<event>
 7    1  0.4894942E-006  0.1603066E+04  0.7818608E-02  0.8401871E-01
          2   -1    0    0  502    0  0.00000000000E+00  0.00000000000E+00  0.89215365100E+03  0.89215365100E+03  0.00000000000E+00 0. -1.
          4   -1    0    0  501    0 -0.00000000000E+00 -0.00000000000E+00 -0.35533218606E+04  0.35533218606E+04  0.00000000000E+00 0.  1.
    9000010    2    1    2  502    0 -0.55608367414E+03 -0.12442290058E+04 -0.31878765977E+03  0.17052547384E+04  0.97413206464E+03 0.  0.
        -13    1    3    3    0    0  0.13827984930E+03  0.55267321012E+01 -0.23547861204E+03  0.27313375731E+03  0.10566000000E+00 0.  1.
         13    1    1    2    0    0  0.41290292886E+03  0.11801289728E+04 -0.19361194571E+04  0.23047237979E+04  0.10566000000E+00 0. -1.
          2    1    1    2  501    0  0.14318074528E+03  0.64100033043E+02 -0.40626109275E+03  0.43549697535E+03  0.00000000000E+00 0. -1.
          4    1    3    3  502    0 -0.69436352343E+03 -0.12497557379E+04 -0.83309047730E+02  0.14321209811E+04  0.00000000000E+00 0.  1.
</event>
<event>
 7    1  0.4894942E-006  0.1470493E+04  0.7818608E-02  0.8505265E-01
          2   -1    0    0  502    0  0.00000000000E+00  0.00000000000E+00  0.15313732941E+04  0.15313732941E+04  0.00000000000E+00 0. -1.
          4   -1    0    0  501    0 -0.00000000000E+00 -0.00000000000E+00 -0.11383916382E+04  0.11383916382E+04  0.00000000000E+00 0.  1.
    9000010    2    1    2  502    0  0.40035262359E+03 -0.94063215316E+03  0.37626305038E+03  0.15149618808E+04  0.10528364290E+04 0.  0.
        -13    1    3    3    0    0  0.29608312747E+03 -0.96721186546E+03  0.66250439797E+03  0.12091633883E+04  0.10566000000E+00 0.  1.
         13    1    1    2    0    0 -0.41113753440E+03  0.94298893571E+03 -0.10365185586E+03  0.10339274266E+04  0.10566000000E+00 0. -1.
          2    1    1    2  501    0  0.10784910809E+02 -0.23567825469E+01  0.12037046143E+03  0.12087562496E+03  0.00000000000E+00 0. -1.
          4    1    3    3  502    0  0.10426949612E+03  0.26579712304E+02 -0.28624134759E+03  0.30579849247E+03  0.00000000000E+00 0.  1.
</event>
<event>
 7    1  0.4894942E-006  0.1209138E+04  0.7818608E-02  0.8814210E-01
          4   -1    0    0  501    0 -0.00000000000E+00  0.00000000000E+00  0.23741378286E+04  0.23741378286E+04  0.00000000000E+00 0.  1.
          2   -1    0    0  502    0  0.00000000000E+00 -0.00000000000E+00 -0.10951282609E+04  0.10951282609E+04  0.00000000000E+00 0.  1.
    9000010    2    1    2  502    0 -0.48939205061E+03  0.27625830712E+03  0.11379936261E+03  0.11618821236E+04  0.10105426972E+04 0.  0.
        -13    1    3    3    0    0 -0.27815663704E+03  0.52232201880E+03 -0.27755280127E+03  0.65362602052E+03  0.10566000000E+00 0.  1.
         13    1    1    2    0    0  0.22383241785E+03  0.42261752348E+03  0.14349804553E+04  0.15125724580E+04  0.10566000000E+00 0. -1.
          2    1    1    2  501    0  0.26555963276E+03 -0.69887583060E+03 -0.26977025027E+03  0.79481150789E+03  0.00000000000E+00 0.  1.
          4    1    3    3  502    0 -0.21123541357E+03 -0.24606371168E+03  0.39135216388E+03  0.50825610309E+03  0.00000000000E+00 0.  1.
</event>
<event>
 7    1  0.4894942E-006  0.1062562E+04  0.7818608E-02  0.8991851E-01
          4   -1    0    0  501    0 -0.00000000000E+00  0.00000000000E+00  0.41721800390E+04  0.41721800390E+04  0.00000000000E+00 0.  1.
          2   -1    0    0  502    0  0.00000000000E+00 -0.00000000000E+00 -0.35376084061E+03  0.35376084061E+03  0.00000000000E+00 0.  1.
    9000010    2    1    2  502    0 -0.28596943957E+03 -0.18007928106E+03  0.25766149037E+04  0.27871093369E+04  0.10073862347E+04 0.  0.
        -13    1    3    3    0    0 -0.61092750815E+03  0.10847006627E+03  0.16748431422E+04  0.17860844710E+04  0.10566000000E+00 0.  1.
         13    1    1    2    0    0  0.29309266883E+03  0.16833385683E+03  0.14709459551E+04  0.15092785077E+04  0.10566000000E+00 0. -1.
          2    1    1    2  501    0 -0.71232292649E+01  0.11745424238E+02 -0.22914166038E+03  0.22955303506E+03  0.00000000000E+00 0.  1.
          4    1    3    3  502    0  0.32495806859E+03 -0.28854934734E+03  0.90177176153E+03  0.10010248659E+04  0.00000000000E+00 0.  1.
</event>
<event>
 7    1  0.4894942E-006  0.1153637E+04  0.7818608E-02  0.8995025E-01
          2   -1    0    0  502    0  0.00000000000E+00  0.00000000000E+00  0.95301703071E+03  0.95301703071E+03  0.00000000000E+00 0.  1.
          4   -1    0    0  501    0 -0.00000000000E+00 -0.00000000000E+00 -0.14481391229E+04  0.14481391229E+04  0.00000000000E+00 0.  1.
    9000010    2    1    2  502    0 -0.24956406564E+03 -0.42648642801E+02 -0.78748247609E+03  0.13954028506E+04  0.11237968391E+04 0.  0.
        -13    1    3    3    0    0  0.27710055560E+03  0.32293596634E+03 -0.58436965808E+03  0.72288329952E+03  0.10566000000E+00 0.  1.
         13    1    1    2    0    0  0.25636505135E+03  0.53555878433E+02 -0.30854447766E+03  0.40471098024E+03  0.10566000000E+00 0. -1.
          2    1    1    2  501    0 -0.68009857071E+01 -0.10907235631E+02  0.60090486154E+03  0.60104232282E+03  0.00000000000E+00 0.  1.
          4    1    3    3  502    0 -0.52666462124E+03 -0.36558460915E+03 -0.20311281800E+03  0.67251955105E+03  0.00000000000E+00 0.  1.
</event>
<event>
 7    1  0.4894942E-006  0.1045095E+04  0.7818608E-02  0.8982459E-01
          4   -1    0    0  501    0 -0.00000000000E+00  0.00000000000E+00  0.12878448325E+04  0.12878448325E+04  0.00000000000E+00 0.  1.
          2   -1    0    0  502    0  0.00000000000E+00 -0.00000000000E+00 -0.73415077485E+03  0.73415077485E+03  0.00000000000E+00 0.  1.
    9000010    2    1    2  502    0  0.28523024357E+03 -0.30627542535E+03  0.21710332195E+03  0.10855285893E+04  0.97779217516E+03 0.  0.
        -13    1    3    3    0    0  0.37893543696E+03  0.64056444924E+02  0.48510683555E+03  0.61888928459E+03  0.10566000000E+00 0.  1.
         13    1    1    2    0    0 -0.63230457343E+02  0.36490032832E+03  0.52291178084E+03  0.64077069381E+03  0.10566000000E+00 0. -1.
          2    1    1    2  501    0 -0.22199978622E+03 -0.58624902967E+02 -0.18632104511E+03  0.29569632426E+03  0.00000000000E+00 0.  1.
          4    1    3    3  502    0 -0.93705193395E+02 -0.37033187027E+03 -0.26800351360E+03  0.46663930472E+03  0.00000000000E+00 0.  1.
</event>
<event>
 7    1  0.4894942E-006  0.1039672E+04  0.7818608E-02  0.9028485E-01
          2   -1    0    0  501    0  0.00000000000E+00  0.00000000000E+00  0.13614255990E+04  0.13614255990E+04  0.00000000000E+00 0.  1.
         -4   -1    0    0    0  501 -0.00000000000E+00 -0.00000000000E+00 -0.85331297804E+03  0.85331297804E+03  0.00000000000E+00 0. -1.
   -9000010    2    1    2    0  502  0.26904238724E+03 -0.17031091124E+03 -0.11721720533E+03  0.10484368134E+04  0.99201323877E+03 0.  0.
        -13    1    1    2    0    0 -0.25477030440E+03  0.17631856606E+03 -0.18166168730E+03  0.35916169692E+03  0.10566000000E+00 0.  1.
         13    1    3    3    0    0 -0.71495773379E+02  0.38381326740E+03 -0.21231038180E+02  0.39099237587E+03  0.10566000000E+00 0. -1.
          2    1    1    2  502    0 -0.14272082847E+02 -0.60076548218E+01  0.80699151359E+03  0.80714006670E+03  0.00000000000E+00 0.  1.
         -4    1    3    3    0  502  0.34053816062E+03 -0.55412417863E+03 -0.95986167151E+02  0.65744443755E+03  0.00000000000E+00 0. -1.
</event>
<event>
 7    1  0.4894942E-006  0.1266279E+04  0.7818608E-02  0.9087966E-01
          4   -1    0    0  501    0 -0.00000000000E+00  0.00000000000E+00  0.14325993218E+04  0.14325993218E+04  0.00000000000E+00 0.  1.
          2   -1    0    0  502    0  0.00000000000E+00 -0.00000000000E+00 -0.16104836948E+04  0.16104836948E+04  0.00000000000E+00 0.  1.
    9000010    2    1    2  502    0  0.58233661988E+03  0.25598756751E+03  0.90118752480E+03  0.14995763180E+04  0.10158467429E+04 0.  0.
        -13    1    3    3    0    0  0.37176521113E+03 -0.36405789840E+03  0.54758166694E+03  0.75537621006E+03  0.10566000000E+00 0.  1.
         13    1    1    2    0    0  0.10456904378E+03  0.86656081640E+02  0.76755316265E+02  0.15599792031E+03  0.10566000000E+00 0. -1.
          2    1    1    2  501    0 -0.68690566366E+03 -0.34264364915E+03 -0.11558272141E+04  0.13875087783E+04  0.00000000000E+00 0.  1.
          4    1    3    3  502    0  0.21057140874E+03  0.62004546591E+03  0.35360585786E+03  0.74420010796E+03  0.00000000000E+00 0.  1.
</event>
<event>
 7    1  0.4894942E-006  0.1083573E+04  0.7818608E-02  0.8921014E-01
         -4   -1    0    0    0  501 -0.00000000000E+00  0.00000000000E+00  0.25802026011E+04  0.25802026011E+04  0.00000000000E+00 0. -1.
          2   -1    0    0  501    0  0.00000000000E+00 -0.00000000000E+00 -0.24440311740E+03  0.24440311740E+03  0.00000000000E+00 0. -1.
   -9000010    2    1    2    0  502 -0.42585211791E+03  0.82616003564E+01  0.16843540677E+04  0.20028491807E+04  0.99646271126E+03 0.  0.
        -13    1    1    2    0    0  0.42551235613E+03  0.13132172694E+02  0.66975021975E+03  0.79359850504E+03  0.10566000000E+00 0.  1.
         13    1    3    3    0    0  0.27338751377E+03  0.19469474173E+03  0.35017439816E+03  0.48504525091E+03  0.10566000000E+00 0. -1.
          2    1    1    2  502    0  0.33976177816E+00 -0.21393773051E+02 -0.18304803794E+02  0.28158032697E+02  0.00000000000E+00 0. -1.
         -4    1    3    3    0  502 -0.69923963168E+03 -0.18643314137E+03  0.13341796696E+04  0.15178039298E+04  0.00000000000E+00 0. -1.
</event>
<event>
 7    1  0.4894942E-006  0.1001839E+04  0.7818608E-02  0.9126168E-01
         -4   -1    0    0    0  501 -0.00000000000E+00  0.00000000000E+00  0.10300771038E+04  0.10300771038E+04  0.00000000000E+00 0. -1.
          4   -1    0    0  501    0  0.00000000000E+00 -0.00000000000E+00 -0.89796515667E+03  0.89796515667E+03  0.00000000000E+00 0. -1.
   -9000010    2    1    2    0  502 -0.16476644083E+02  0.20324564688E+03  0.54242358905E+03  0.11330855261E+04  0.97369357948E+03 0.  0.
        -13    1    1    2    0    0  0.12592092370E+03 -0.21535267810E+03  0.10305545503E+03  0.26991349163E+03  0.10566000000E+00 0.  1.
         13    1    3    3    0    0  0.30536877774E+03  0.39440621536E+02 -0.15723106186E+03  0.34572716270E+03  0.10566000000E+00 0. -1.
          4    1    1    2  502    0 -0.10944427961E+03  0.12107031226E+02 -0.51336709693E+03  0.52504324275E+03  0.00000000000E+00 0. -1.
         -4    1    3    3    0  502 -0.32184542183E+03  0.16380502534E+03  0.69965465091E+03  0.78735836340E+03  0.00000000000E+00 0. -1.
</event>
<event>
 7    1  0.4894942E-006  0.1215651E+04  0.7818608E-02  0.8718464E-01
          2   -1    0    0  501    0  0.00000000000E+00  0.00000000000E+00  0.10057755002E+04  0.10057755002E+04  0.00000000000E+00 0.  1.
         -4   -1    0    0    0  501 -0.00000000000E+00 -0.00000000000E+00 -0.16275876644E+04  0.16275876644E+04  0.00000000000E+00 0. -1.
   -9000010    2    1    2    0  502  0.36489966789E+03 -0.62575863793E+03 -0.25992642027E+03  0.12525686906E+04  0.98825145597E+03 0.  0.
        -13    1    1    2    0    0 -0.40584618408E+03  0.57501005300E+03 -0.72584593143E+03  0.10110390762E+04  0.10566000000E+00 0.  1.
         13    1    3    3    0    0 -0.15550782327E+03  0.19294205501E+03 -0.10930535433E+03  0.27084495812E+03  0.10566000000E+00 0. -1.
          2    1    1    2  502    0  0.40946516196E+02  0.50748584929E+02  0.36396018759E+03  0.36975539781E+03  0.00000000000E+00 0.  1.
         -4    1    3    3    0  502  0.52040749116E+03 -0.81870069294E+03 -0.15062106593E+03  0.98172373251E+03  0.00000000000E+00 0. -1.
</event>
<event>
 7    1  0.4894942E-006  0.1075664E+04  0.7818608E-02  0.8980945E-01
          2   -1    0    0  502    0  0.00000000000E+00  0.00000000000E+00  0.13700089358E+04  0.13700089358E+04  0.00000000000E+00 0. -1.
          4   -1    0    0  501    0 -0.00000000000E+00 -0.00000000000E+00 -0.27911774143E+04  0.27911774143E+04  0.00000000000E+00 0.  1.
    9000010    2    1    2  502    0 -0.13450007274E+03  0.55743796612E+03 -0.16501659867E+04  0.20104712320E+04  0.99504745383E+03 0.  0.
        -13    1    3    3    0    0 -0.53210836936E+03  0.50070223037E+03 -0.12191872314E+04  0.14213583491E+04  0.10566000000E+00 0.  1.
         13    1    1    2    0    0  0.28879821822E+03 -0.18036591723E+03 -0.89370643442E+03  0.95637203902E+03  0.10566000000E+00 0. -1.
          2    1    1    2  501    0 -0.15429814549E+03 -0.37707204890E+03  0.11227039426E+04  0.11943430790E+04  0.00000000000E+00 0. -1.
          4    1    3    3  502    0  0.39760829662E+03  0.56735735758E+02 -0.43097875534E+03  0.58911288291E+03  0.00000000000E+00 0.  1.
</event>
<event>
 7    1  0.4894942E-006  0.1061482E+04  0.7818608E-02  0.8987252E-01
          2   -1    0    0  502    0  0.00000000000E+00  0.00000000000E+00  0.14880223225E+04  0.14880223225E+04  0.00000000000E+00 0.  1.
          4   -1    0    0  501    0 -0.00000000000E+00 -0.00000000000E+00 -0.12522239164E+04  0.12522239164E+04  0.00000000000E+00 0.  1.
    9000010    2    1    2  502    0  0.18256752946E+02 -0.39861922739E+03 -0.84496012907E+03  0.13713700742E+04  0.10037268868E+04 0.  0.
        -13    1    3    3    0    0  0.42033516896E+03 -0.19244867929E+02 -0.67067543556E+03  0.79174337398E+03  0.10566000000E+00 0.  1.
         13    1    1    2    0    0  0.16842398338E+03  0.28406289983E+03  0.73817614600E+02  0.33838945112E+03  0.10566000000E+00 0. -1.
          2    1    1    2  501    0 -0.18668073632E+03  0.11455632756E+03  0.10069409205E+04  0.10304867136E+04  0.00000000000E+00 0.  1.
          4    1    3    3  502    0 -0.40207841602E+03 -0.37937435946E+03 -0.17428469351E+03  0.57962670024E+03  0.00000000000E+00 0.  1.
</event>
<event>
 7    1  0.4894942E-006  0.9872509E+03  0.7818608E-02  0.9481337E-01
          2   -1    0    0  501    0  0.00000000000E+00  0.00000000000E+00  0.81776062735E+03  0.81776062735E+03  0.00000000000E+00 0. -1.
         -4   -1    0    0    0  501 -0.00000000000E+00 -0.00000000000E+00 -0.50597584015E+03  0.50597584015E+03  0.00000000000E+00 0. -1.
   -9000010    2    1    2    0  502  0.10761563047E+03  0.89689139617E+01  0.22964446664E+03  0.10131942204E+04  0.98089978174E+03 0.  0.
        -13    1    1    2    0    0 -0.89656241613E+01 -0.63530581875E+02 -0.86496356123E+02  0.10769469828E+03  0.10566000000E+00 0.  1.
         13    1    3    3    0    0 -0.23862970094E+03  0.65951152927E+02 -0.29305436183E+03  0.38363336520E+03  0.10566000000E+00 0. -1.
          2    1    1    2  502    0 -0.98650006312E+02  0.54561667914E+02  0.16863667668E+03  0.20284754884E+03  0.00000000000E+00 0. -1.
         -4    1    3    3    0  502  0.34624533141E+03 -0.56982238966E+02  0.52269882847E+03  0.62956085518E+03  0.00000000000E+00 0. -1.
</event>
<event>
 7    1  0.4894942E-006  0.9999228E+03  0.7818608E-02  0.9314031E-01
         -4   -1    0    0    0  501 -0.00000000000E+00  0.00000000000E+00  0.58479585503E+03  0.58479585503E+03  0.00000000000E+00 0. -1.
          1   -1    0    0  501    0  0.00000000000E+00 -0.00000000000E+00 -0.18478736721E+04  0.18478736721E+04  0.00000000000E+00 0. -1.
   -9000010    2    1    2    0  502  0.10363955708E+03  0.57916406332E+01  0.14064837682E+03  0.10085630192E+04  0.99329889603E+03 0.  0.
        -13    1    1    2    0    0 -0.12437959489E+03 -0.10311936512E+02 -0.37622400344E+03  0.39638507992E+03  0.10566000000E+00 0.  1.
         13    1    3    3    0    0  0.20651738713E+03 -0.42176936294E+03  0.28060776883E+03  0.54706449144E+03  0.10566000000E+00 0. -1.
          1    1    1    2  502    0  0.20740037804E+02  0.45202958788E+01 -0.10275021905E+04  0.10277214280E+04  0.00000000000E+00 0. -1.
         -4    1    3    3    0  502 -0.10287783004E+03  0.42756100358E+03 -0.13995939201E+03  0.46149852774E+03  0.00000000000E+00 0. -1.
</event>
<event>
 7    1  0.4894942E-006  0.1008336E+04  0.7818608E-02  0.9431480E-01
          2   -1    0    0  501    0  0.00000000000E+00  0.00000000000E+00  0.16944867800E+04  0.16944867800E+04  0.00000000000E+00 0.  1.
         -4   -1    0    0    0  501 -0.00000000000E+00 -0.00000000000E+00 -0.29356353503E+03  0.29356353503E+03  0.00000000000E+00 0. -1.
   -9000010    2    1    2    0  502 -0.22450424503E+02  0.56512521117E+02  0.62648984810E+03  0.11864662573E+04  0.10057410021E+04 0.  0.
        -13    1    1    2    0    0  0.21774151557E+02 -0.70290369070E+02  0.86723276806E+02  0.11373560377E+03  0.10566000000E+00 0.  1.
         13    1    3    3    0    0  0.15498615505E+03  0.15974968397E+03 -0.22148280657E+03  0.31399890852E+03  0.10566000000E+00 0. -1.
          2    1    1    2  502    0  0.67627294631E+00  0.13777847953E+02  0.68771012008E+03  0.68784845402E+03  0.00000000000E+00 0.  1.
         -4    1    3    3    0  502 -0.17743657955E+03 -0.10323716285E+03  0.84797265467E+03  0.87246734875E+03  0.00000000000E+00 0. -1.
</event>
<event>
 7    1  0.4894942E-006  0.1095660E+04  0.7818608E-02  0.8939212E-01
         -4   -1    0    0    0  501 -0.00000000000E+00  0.00000000000E+00  0.81953600090E+03  0.81953600090E+03  0.00000000000E+00 0. -1.
          2   -1    0    0  501    0  0.00000000000E+00 -0.00000000000E+00 -0.24086723449E+04  0.24086723449E+04  0.00000000000E+00 0.  1.
   -9000010    2    1    2    0  502 -0.11731276279E+03  0.47470416993E+02 -0.70497699304E+02  0.10046212608E+04  0.99412183719E+03 0.  0.
        -13    1    1    2    0    0 -0.36350092232E+03 -0.11760598109E+03  0.20443647694E+03  0.43331094099E+03  0.10566000000E+00 0.  1.
         13    1    3    3    0    0  0.24910560118E+03  0.86410700499E+02  0.35470622849E+03  0.44196937608E+03  0.10566000000E+00 0. -1.
          2    1    1    2  502    0  0.48081368510E+03  0.70135564095E+02 -0.17230751216E+04  0.17902761440E+04  0.00000000000E+00 0.  1.
         -4    1    3    3    0  502 -0.36641836397E+03 -0.38940283506E+02 -0.42520392779E+03  0.56265188469E+03  0.00000000000E+00 0. -1.
</event>
<event>
 7    1  0.4894942E-006  0.1030364E+04  0.7818608E-02  0.9031380E-01
         -4   -1    0    0    0  501 -0.00000000000E+00  0.00000000000E+00  0.44255935000E+03  0.44255935000E+03  0.00000000000E+00 0. -1.
          2   -1    0    0  501    0  0.00000000000E+00 -0.00000000000E+00 -0.31107311995E+04  0.31107311995E+04  0.00000000000E+00 0. -1.
   -9000010    2    1    2    0  502  0.16983809456E+03  0.20590848490E+03 -0.11957295570E+04  0.15693366057E+04  0.98071653690E+03 0.  0.
        -13    1    1    2    0    0 -0.27251274924E+03 -0.16878310938E+03  0.15276120917E+03  0.35508722126E+03  0.10566000000E+00 0.  1.
         13    1    3    3    0    0  0.49644547414E+03  0.34031194918E+03 -0.99559815316E+03  0.11633941831E+04  0.10566000000E+00 0. -1.
          2    1    1    2  502    0  0.10267465468E+03 -0.37125375522E+02 -0.16252035017E+04  0.16288667226E+04  0.00000000000E+00 0. -1.
         -4    1    3    3    0  502 -0.32660737958E+03 -0.13440346427E+03 -0.20013140388E+03  0.40594242255E+03  0.00000000000E+00 0. -1.
</event>
<event>
 7    1  0.4894942E-006  0.1071644E+04  0.7818608E-02  0.8963967E-01
          2   -1    0    0  502    0  0.00000000000E+00  0.00000000000E+00  0.15039774796E+04  0.15039774796E+04  0.00000000000E+00 0. -1.
          4   -1    0    0  501    0 -0.00000000000E+00 -0.00000000000E+00 -0.11902946730E+04  0.11902946730E+04  0.00000000000E+00 0.  1.
    9000010    2    1    2  502    0  0.17510811433E+03  0.32510714263E+03 -0.52231686710E+03  0.11922424889E+04  0.10061161646E+04 0.  0.
        -13    1    3    3    0    0 -0.30234354546E+02  0.32527652096E+03 -0.78999480116E+03  0.85487468573E+03  0.10566000000E+00 0.  1.
         13    1    1    2    0    0 -0.26238775175E+03 -0.26445549922E+03 -0.22533612705E+03  0.43538537488E+03  0.10566000000E+00 0. -1.
          2    1    1    2  501    0  0.87279637415E+02 -0.60651643408E+02  0.10613358008E+04  0.10666442889E+04  0.00000000000E+00 0. -1.
          4    1    3    3  502    0  0.20534246888E+03 -0.16937833123E+00  0.26767793406E+03  0.33736780314E+03  0.00000000000E+00 0.  1.
</event>
<event>
 7    1  0.4894942E-006  0.1250311E+04  0.7818608E-02  0.8685233E-01
         -4   -1    0    0    0  501 -0.00000000000E+00  0.00000000000E+00  0.32285484391E+04  0.32285484391E+04  0.00000000000E+00 0. -1.
          2   -1    0    0  501    0  0.00000000000E+00 -0.00000000000E+00 -0.77030803637E+03  0.77030803637E+03  0.00000000000E+00 0.  1.
   -9000010    2    1    2    0  502  0.77155690779E+03  0.31670443708E+02  0.26167397547E+04  0.29055858070E+04  0.99939924908E+03 0.  0.
        -13    1    1    2    0    0 -0.69394643761E+03  0.26342533505E+03  0.14703349971E+02  0.74240875875E+03  0.10566000000E+00 0.  1.
         13    1    3    3    0    0  0.57243991581E+03  0.16245591525E+02  0.44646695415E+03  0.72614332522E+03  0.10566000000E+00 0. -1.
          2    1    1    2  502    0 -0.77610470186E+02 -0.29509577875E+03 -0.17320270194E+03  0.35086190970E+03  0.00000000000E+00 0.  1.
         -4    1    3    3    0  502  0.19911699198E+03  0.15424852182E+02  0.21702728006E+04  0.21794424818E+04  0.00000000000E+00 0. -1.
</event>
<event>
 7    1  0.4894942E-006  0.1061551E+04  0.7818608E-02  0.8998206E-01
          4   -1    0    0  501    0 -0.00000000000E+00  0.00000000000E+00  0.26221880517E+04  0.26221880517E+04  0.00000000000E+00 0.  1.
          2   -1    0    0  502    0  0.00000000000E+00 -0.00000000000E+00 -0.47163211950E+03  0.47163211950E+03  0.00000000000E+00 0.  1.
    9000010    2    1    2  502    0 -0.24575326412E+03 -0.54974813527E+02  0.16410722050E+04  0.19429882663E+04  0.10092910998E+04 0.  0.
        -13    1    3    3    0    0 -0.58022839836E+03 -0.12182654415E+03  0.14138948451E+04  0.15331684008E+04  0.10566000000E+00 0.  1.
         13    1    1    2    0    0  0.17602268608E+03 -0.27949311159E+03  0.68958503733E+03  0.76460965225E+03  0.10566000000E+00 0. -1.
          2    1    1    2  501    0  0.69730578036E+02  0.33446792512E+03 -0.18010131021E+03  0.38622225257E+03  0.00000000000E+00 0.  1.
          4    1    3    3  502    0  0.33447513424E+03  0.66851730628E+02  0.22717735996E+03  0.40981986554E+03  0.00000000000E+00 0.  1.
</event>
<event>
 7    1  0.4894942E-006  0.1038455E+04  0.7818608E-02  0.9064990E-01
          2   -1    0    0  501    0  0.00000000000E+00  0.00000000000E+00  0.45209310522E+03  0.45209310522E+03  0.00000000000E+00 0.  1.
         -4   -1    0    0    0  501 -0.00000000000E+00 -0.00000000000E+00 -0.22226777947E+04  0.22226777947E+04  0.00000000000E+00 0. -1.
   -9000010    2    1    2    0  502  0.27799000464E+02 -0.27553712355E+03 -0.18384031272E+04  0.21123476966E+04  0.10027927215E+04 0.  0.
        -13    1    1    2    0    0 -0.25109905700E+02  0.26489196449E+03 -0.17557223521E+03  0.31878500774E+03  0.10566000000E+00 0.  1.
         13    1    3    3    0    0 -0.26152474805E+03 -0.18482027261E+03 -0.17736107827E+04  0.18022899174E+04  0.10566000000E+00 0. -1.
          2    1    1    2  502    0 -0.26890947646E+01  0.10645159052E+02  0.24339067297E+03  0.24363819555E+03  0.00000000000E+00 0.  1.
         -4    1    3    3    0  502  0.28932374851E+03 -0.90716850938E+02 -0.64792344556E+02  0.31005777915E+03  0.00000000000E+00 0. -1.
</event>
<event>
 7    1  0.4894942E-006  0.1104947E+04  0.7818608E-02  0.8876174E-01
          1   -1    0    0  501    0  0.00000000000E+00  0.00000000000E+00  0.90141125507E+03  0.90141125507E+03  0.00000000000E+00 0. -1.
         -4   -1    0    0    0  501 -0.00000000000E+00 -0.00000000000E+00 -0.13447520840E+04  0.13447520840E+04  0.00000000000E+00 0. -1.
   -9000010    2    1    2    0  502 -0.38395008367E+02 -0.48272280417E+03 -0.73189281564E+03  0.13256864848E+04  0.99362069222E+03 0.  0.
        -13    1    1    2    0    0  0.48890190791E+02  0.48035299382E+03 -0.13139365795E+03  0.50039339918E+03  0.10566000000E+00 0.  1.
         13    1    3    3    0    0  0.13345207465E+03 -0.38175371966E+03 -0.94863091000E+03  0.10312351688E+04  0.10566000000E+00 0. -1.
          1    1    1    2  502    0 -0.10495182424E+02  0.23698103470E+01  0.41994564462E+03  0.42008345515E+03  0.00000000000E+00 0. -1.
         -4    1    3    3    0  502 -0.17184708302E+03 -0.10096908451E+03  0.21673809435E+03  0.29445131603E+03  0.00000000000E+00 0. -1.
</event>
<event>
 7    1  0.4894942E-006  0.1037873E+04  0.7818608E-02  0.9056192E-01
         -4   -1    0    0    0  501 -0.00000000000E+00  0.00000000000E+00  0.10791502375E+04  0.10791502375E+04  0.00000000000E+00 0. -1.
          2   -1    0    0  501    0  0.00000000000E+00 -0.00000000000E+00 -0.84636837844E+03  0.84636837844E+03  0.00000000000E+00 0. -1.
   -9000010    2    1    2    0  502  0.11849287715E+03  0.24932588965E+03 -0.18660928639E+03  0.10534952089E+04  0.99941241152E+03 0.  0.
        -13    1    1    2    0    0 -0.77258061135E+02 -0.26942752448E+03  0.61247661740E+03  0.67356337265E+03  0.10566000000E+00 0.  1.
         13    1    3    3    0    0 -0.30705100950E+03 -0.80176776164E+02 -0.36764208438E+03  0.48566382534E+03  0.10566000000E+00 0. -1.
          2    1    1    2  502    0 -0.41234816020E+02  0.20101634829E+02 -0.19308547192E+03  0.19846003437E+03  0.00000000000E+00 0. -1.
         -4    1    3    3    0  502  0.42554388665E+03  0.32950266582E+03  0.18103279799E+03  0.56783138360E+03  0.00000000000E+00 0. -1.
</event>
<event>
 7    1  0.4894942E-006  0.1015377E+04  0.7818608E-02  0.9135895E-01
          2   -1    0    0  501    0  0.00000000000E+00  0.00000000000E+00  0.13428148650E+04  0.13428148650E+04  0.00000000000E+00 0. -1.
         -4   -1    0    0    0  501 -0.00000000000E+00 -0.00000000000E+00 -0.62200073576E+03  0.62200073576E+03  0.00000000000E+00 0. -1.
   -9000010    2    1    2    0  502  0.69068273412E+02  0.20530297788E+03  0.49430729522E+03  0.11290385107E+04  0.99169981211E+03 0.  0.
        -13    1    1    2    0    0 -0.55754859898E+02 -0.21083363675E+03 -0.26548617219E+03  0.34357291159E+03  0.10566000000E+00 0.  1.
         13    1    3    3    0    0  0.61165229620E+02  0.13563586492E+03 -0.29829349303E+03  0.33334260501E+03  0.10566000000E+00 0. -1.
          2    1    1    2  502    0 -0.13313413515E+02  0.55306588667E+01  0.49199300626E+03  0.49220417854E+03  0.00000000000E+00 0. -1.
         -4    1    3    3    0  502  0.79030437926E+01  0.69667112960E+02  0.79260078825E+03  0.79569590565E+03  0.00000000000E+00 0. -1.
</event>
<event>
 7    1  0.4894942E-006  0.1001268E+04  0.7818608E-02  0.9286970E-01
          4   -1    0    0  501    0 -0.00000000000E+00  0.00000000000E+00  0.85466466130E+03  0.85466466130E+03  0.00000000000E+00 0.  1.
          2   -1    0    0  502    0  0.00000000000E+00 -0.00000000000E+00 -0.33079508752E+04  0.33079508752E+04  0.00000000000E+00 0.  1.
    9000010    2    1    2  502    0  0.22971906542E+02  0.14450337772E+03 -0.15557649326E+03  0.10159094183E+04  0.99320640670E+03 0.  0.
        -13    1    3    3    0    0 -0.44754067796E+03 -0.43008088807E+02  0.81069727310E+02  0.45685300260E+03  0.10566000000E+00 0.  1.
         13    1    1    2    0    0 -0.80594889761E+02 -0.97897586679E+02  0.41451101236E+03  0.43347302600E+03  0.10566000000E+00 0. -1.
          2    1    1    2  501    0  0.57622983219E+02 -0.46605791038E+02 -0.27122207330E+04  0.27132330921E+04  0.00000000000E+00 0.  1.
          4    1    3    3  502    0  0.47051258450E+03  0.18751146652E+03 -0.23664622057E+03  0.55905641572E+03  0.00000000000E+00 0.  1.
</event>
<event>
 7    1  0.4894942E-006  0.1363231E+04  0.7818608E-02  0.8662491E-01
         -4   -1    0    0    0  501 -0.00000000000E+00  0.00000000000E+00  0.25717269801E+04  0.25717269801E+04  0.00000000000E+00 0. -1.
          2   -1    0    0  501    0  0.00000000000E+00 -0.00000000000E+00 -0.17309337610E+04  0.17309337610E+04  0.00000000000E+00 0. -1.
   -9000010    2    1    2    0  502 -0.62021486790E+03  0.57251872509E+03  0.98555174359E+03  0.16448911175E+04  0.10108958285E+04 0.  0.
        -13    1    1    2    0    0  0.52147167125E+03  0.37109378733E+03  0.98985301014E+03  0.11787503110E+04  0.10566000000E+00 0.  1.
         13    1    3    3    0    0  0.87808747811E+02  0.37669423430E+03 -0.33968792444E+02  0.38828187232E+03  0.10566000000E+00 0. -1.
          2    1    1    2  502    0  0.98743196650E+02 -0.94361251242E+03 -0.11346115347E+04  0.14790193126E+04  0.00000000000E+00 0. -1.
         -4    1    3    3    0  502 -0.70802361571E+03  0.19582449079E+03  0.10195205360E+04  0.12566092452E+04  0.00000000000E+00 0. -1.
</event>
<event>
 7    1  0.4894942E-006  0.1047362E+04  0.7818608E-02  0.8987044E-01
          2   -1    0    0  501    0  0.00000000000E+00  0.00000000000E+00  0.55069345356E+03  0.55069345356E+03  0.00000000000E+00 0. -1.
         -4   -1    0    0    0  501 -0.00000000000E+00 -0.00000000000E+00 -0.21470073275E+04  0.21470073275E+04  0.00000000000E+00 0. -1.
   -9000010    2    1    2    0  502 -0.51742213245E+03 -0.28274706773E+03 -0.47705571897E+03  0.12420735365E+04  0.98361219164E+03 0.  0.
        -13    1    1    2    0    0  0.29154497806E+03  0.18405059491E+03 -0.11560769369E+04  0.12063942104E+04  0.10566000000E+00 0.  1.
         13    1    3    3    0    0  0.31101987452E+02  0.22588785140E+03  0.14410779722E+03  0.26974010347E+03  0.10566000000E+00 0. -1.
          2    1    1    2  502    0  0.22587715438E+03  0.98696472827E+02  0.36818781940E+02  0.24923303417E+03  0.00000000000E+00 0. -1.
         -4    1    3    3    0  502 -0.54852411990E+03 -0.50863491914E+03 -0.62116351620E+03  0.97233343300E+03  0.00000000000E+00 0. -1.
</event>
<event>
 7    1  0.4894942E-006  0.1169999E+04  0.7818608E-02  0.8776835E-01
         -4   -1    0    0    0  501 -0.00000000000E+00  0.00000000000E+00  0.27859063182E+04  0.27859063182E+04  0.00000000000E+00 0. -1.
          4   -1    0    0  501    0  0.00000000000E+00 -0.00000000000E+00 -0.10813836511E+04  0.10813836511E+04  0.00000000000E+00 0. -1.
   -9000010    2    1    2    0  502  0.24740905761E+03  0.34372869502E+03  0.10804630431E+04  0.15274794921E+04  0.99319310994E+03 0.  0.
        -13    1    1    2    0    0 -0.39308918233E+03 -0.56646538293E+03  0.13776739479E+04  0.15405802975E+04  0.10566000000E+00 0.  1.
         13    1    3    3    0    0  0.47877616407E+03 -0.13620251182E+03  0.29580629677E+03  0.57903291433E+03  0.10566000000E+00 0. -1.
          4    1    1    2  502    0  0.14568012472E+03  0.22273668791E+03 -0.75361432396E+03  0.79923017971E+03  0.00000000000E+00 0. -1.
         -4    1    3    3    0  502 -0.23136710646E+03  0.47993120685E+03  0.78465674638E+03  0.94844657778E+03  0.00000000000E+00 0. -1.
</event>
<event>
 7    1  0.4894942E-006  0.1084487E+04  0.7818608E-02  0.8916203E-01
          4   -1    0    0  501    0 -0.00000000000E+00  0.00000000000E+00  0.99214863327E+03  0.99214863327E+03  0.00000000000E+00 0.  1.
          2   -1    0    0  502    0  0.00000000000E+00 -0.00000000000E+00 -0.11757095207E+04  0.11757095207E+04  0.00000000000E+00 0. -1.
    9000010    2    1    2  502    0  0.25765448519E+03 -0.30109273981E+03 -0.16992711696E+03  0.10837234398E+04  0.99425278338E+03 0.  0.
        -13    1    3    3    0    0  0.31539947076E+03  0.31222424088E+03  0.32523616206E+01  0.44381459166E+03  0.10566000000E+00 0.  1.
         13    1    1    2    0    0 -0.35881878674E+03  0.25467979599E+03  0.43688801481E+03  0.62006763248E+03  0.10566000000E+00 0. -1.
          2    1    1    2  501    0  0.10116430155E+03  0.46412943820E+02 -0.45052178527E+03  0.46406708164E+03  0.00000000000E+00 0. -1.
          4    1    3    3  502    0 -0.57744985569E+02 -0.61331698069E+03 -0.17317947858E+03  0.63990884817E+03  0.00000000000E+00 0.  1.
</event>
<event>
 7    1  0.4894942E-006  0.1284348E+04  0.7818608E-02  0.8986326E-01
          1   -1    0    0  501    0  0.00000000000E+00  0.00000000000E+00  0.85810252028E+03  0.85810252028E+03  0.00000000000E+00 0. -1.
         -4   -1    0    0    0  501 -0.00000000000E+00 -0.00000000000E+00 -0.20338937641E+04  0.20338937641E+04  0.00000000000E+00 0. -1.
   -9000010    2    1    2    0  502  0.64584436906E+03  0.14803411977E+03 -0.72446214235E+03  0.14002633931E+04  0.99843033042E+03 0.  0.
        -13    1    1    2    0    0  0.19367845174E+03  0.28087047574E+02 -0.59107044457E+03  0.62262710069E+03  0.10566000000E+00 0.  1.
         13    1    3    3    0    0 -0.12861888999E+03  0.28290171830E+03 -0.48943914122E+03  0.57976450840E+03  0.10566000000E+00 0. -1.
          1    1    1    2  502    0 -0.83952282080E+03 -0.17612116734E+03  0.13974134312E+03  0.86910579057E+03  0.00000000000E+00 0. -1.
         -4    1    3    3    0  502  0.77446325904E+03 -0.13486759853E+03 -0.23502300114E+03  0.82049888471E+03  0.00000000000E+00 0. -1.
</event>
<event>
 7    1  0.4894942E-006  0.1032806E+04  0.7818608E-02  0.9070406E-01
          2   -1    0    0  502    0  0.00000000000E+00  0.00000000000E+00  0.77061236822E+03  0.77061236822E+03  0.00000000000E+00 0.  1.
          4   -1    0    0  501    0 -0.00000000000E+00 -0.00000000000E+00 -0.13610572283E+04  0.13610572283E+04  0.00000000000E+00 0.  1.
    9000010    2    1    2  502    0  0.28679019598E+03 -0.98434780287E+02 -0.28512381124E+01  0.10423990401E+04  0.99732121544E+03 0.  0.
        -13    1    3    3    0    0  0.11916763639E+03 -0.50488011657E+03  0.20285080616E+03  0.55700387646E+03  0.10566000000E+00 0.  1.
         13    1    1    2    0    0 -0.25228967888E+03  0.87322106436E+02 -0.81571239895E+03  0.85829013818E+03  0.10566000000E+00 0. -1.
          2    1    1    2  501    0 -0.34500517107E+02  0.11112673851E+02  0.22811877698E+03  0.23098041824E+03  0.00000000000E+00 0.  1.
          4    1    3    3  502    0  0.16762255959E+03  0.40644533628E+03 -0.20570204428E+03  0.48539516364E+03  0.00000000000E+00 0.  1.
</event>
<event>
 7    1  0.4894942E-006  0.1087932E+04  0.7818608E-02  0.8920894E-01
         -2   -1    0    0    0  501  0.00000000000E+00  0.00000000000E+00  0.12442910796E+04  0.12442910796E+04  0.00000000000E+00 0.  1.
         -4   -1    0    0    0  502 -0.00000000000E+00 -0.00000000000E+00 -0.15613432592E+04  0.15613432592E+04  0.00000000000E+00 0. -1.
   -9000010    2    1    2    0  501 -0.12051335427E+03 -0.39785001773E+03 -0.87255891520E+03  0.13930929718E+04  0.10032651007E+04 0.  0.
        -13    1    1    2    0    0  0.14253162217E+03  0.39822337758E+03 -0.32397606922E+03  0.53278290735E+03  0.10566000000E+00 0.  1.
         13    1    3    3    0    0 -0.40816738107E+03  0.16243940124E+03 -0.24057009355E+03  0.50086041082E+03  0.10566000000E+00 0. -1.
         -2    1    1    2    0  502 -0.22018267895E+02 -0.37335984992E+00  0.87948280478E+03  0.87975845970E+03  0.00000000000E+00 0.  1.
         -4    1    3    3    0  501  0.28765402680E+03 -0.56028941898E+03 -0.63198882165E+03  0.89223256096E+03  0.00000000000E+00 0. -1.
</event>
<event>
 7    1  0.4894942E-006  0.1129156E+04  0.7818608E-02  0.8842551E-01
         -4   -1    0    0    0  501 -0.00000000000E+00  0.00000000000E+00  0.22672134218E+04  0.22672134218E+04  0.00000000000E+00 0. -1.
          3   -1    0    0  501    0  0.00000000000E+00 -0.00000000000E+00 -0.54358803152E+03  0.54358803152E+03  0.00000000000E+00 0.  1.
   -9000010    2    1    2    0  502  0.38732452399E+03 -0.27433275922E+03  0.16223399182E+04  0.19648361324E+04  0.10016563618E+04 0.  0.
        -13    1    1    2    0    0 -0.51168509273E+03  0.25906354639E+03  0.27155123410E+03  0.63456728493E+03  0.10566000000E+00 0.  1.
         13    1    3    3    0    0 -0.20862205666E+03  0.21019029351E+02 -0.19026267663E+01  0.20968689342E+03  0.10566000000E+00 0. -1.
          3    1    1    2  502    0  0.12436056875E+03  0.15269212828E+02 -0.17026576203E+03  0.21139803604E+03  0.00000000000E+00 0.  1.
         -4    1    3    3    0  502  0.59594658064E+03 -0.29535178857E+03  0.16242425450E+04  0.17551492389E+04  0.00000000000E+00 0. -1.
</event>
<event>
 7    1  0.4894942E-006  0.1041448E+04  0.7818608E-02  0.9199370E-01
          1   -1    0    0  501    0  0.00000000000E+00  0.00000000000E+00  0.10099728274E+04  0.10099728274E+04  0.00000000000E+00 0. -1.
         -4   -1    0    0    0  501 -0.00000000000E+00 -0.00000000000E+00 -0.51452030977E+03  0.51452030977E+03  0.00000000000E+00 0. -1.
   -9000010    2    1    2    0  502  0.15202735702E+03  0.12949173156E+03  0.14787010364E+03  0.10590034371E+04  0.10294378497E+04 0.  0.
        -13    1    1    2    0    0 -0.10662391067E+03 -0.10668942254E+03  0.43205323775E+02  0.15690125039E+03  0.10566000000E+00 0.  1.
         13    1    3    3    0    0 -0.34451221526E+02 -0.26439987502E+03 -0.32205165318E+03  0.41810460301E+03  0.10566000000E+00 0. -1.
          1    1    1    2  502    0 -0.45403446358E+02 -0.22802309014E+02  0.30437709024E+03  0.30858844972E+03  0.00000000000E+00 0. -1.
         -4    1    3    3    0  502  0.18647857855E+03  0.39389160658E+03  0.46992175683E+03  0.64089883408E+03  0.00000000000E+00 0. -1.
</event>
<event>
 7    1  0.4894942E-006  0.1093302E+04  0.7818608E-02  0.8906710E-01
          2   -1    0    0  501    0  0.00000000000E+00  0.00000000000E+00  0.65370996946E+03  0.65370996946E+03  0.00000000000E+00 0. -1.
         -4   -1    0    0    0  501 -0.00000000000E+00 -0.00000000000E+00 -0.15732715581E+04  0.15732715581E+04  0.00000000000E+00 0. -1.
   -9000010    2    1    2    0  502  0.86714980029E+02  0.43484803379E+03 -0.81614038425E+03  0.13655604461E+04  0.10010284236E+04 0.  0.
        -13    1    1    2    0    0  0.26585741829E+03 -0.41408573016E+03 -0.12456431082E+03  0.50760559244E+03  0.10566000000E+00 0.  1.
         13    1    3    3    0    0 -0.40728623862E+03  0.44165697588E+03 -0.44981045381E+03  0.75051477003E+03  0.10566000000E+00 0. -1.
          2    1    1    2  502    0 -0.35257239832E+03 -0.20762303625E+02  0.21143106451E+02  0.35381548900E+03  0.00000000000E+00 0. -1.
         -4    1    3    3    0  502  0.49400121865E+03 -0.68089420928E+01 -0.36632993044E+03  0.61504567607E+03  0.00000000000E+00 0. -1.
</event>
<event>
 7    1  0.4894942E-006  0.1314772E+04  0.7818608E-02  0.8865828E-01
          2   -1    0    0  502    0  0.00000000000E+00  0.00000000000E+00  0.12050521322E+04  0.12050521322E+04  0.00000000000E+00 0.  1.
          4   -1    0    0  501    0 -0.00000000000E+00 -0.00000000000E+00 -0.14849117133E+04  0.14849117133E+04  0.00000000000E+00 0.  1.
    9000010    2    1    2  502    0 -0.70636880403E+03  0.31585550323E+03  0.35393700580E+02  0.12698609791E+04  0.10062666674E+04 0.  0.
        -13    1    3    3    0    0 -0.41320670408E+03 -0.25160165795E+03 -0.27846804495E+03  0.55820035633E+03  0.10566000000E+00 0.  1.
         13    1    1    2    0    0 -0.20015947661E+03 -0.22284664698E+03 -0.40574407263E+03  0.50433392488E+03  0.10566000000E+00 0. -1.
          2    1    1    2  501    0  0.90652828064E+03 -0.93008856253E+02  0.90490790938E+02  0.91576894149E+03  0.00000000000E+00 0.  1.
          4    1    3    3  502    0 -0.29316209995E+03  0.56745716119E+03  0.31386174553E+03  0.71166062273E+03  0.00000000000E+00 0.  1.
</event>
<event>
 7    1  0.4894942E-006  0.1032797E+04  0.7818608E-02  0.9071424E-01
          1   -1    0    0  501    0  0.00000000000E+00  0.00000000000E+00  0.94133237574E+03  0.94133237574E+03  0.00000000000E+00 0.  1.
         -4   -1    0    0    0  501 -0.00000000000E+00 -0.00000000000E+00 -0.21561873000E+04  0.21561873000E+04  0.00000000000E+00 0. -1.
   -9000010    2    1    2    0  502  0.11165632105E+03 -0.69734729785E+02 -0.12580599331E+04  0.16109792549E+04  0.99760177312E+03 0.  0.
        -13    1    1    2    0    0 -0.10253619381E+03  0.27721713410E+03 -0.67608333447E+03  0.73786970177E+03  0.10566000000E+00 0.  1.
         13    1    3    3    0    0  0.47415859707E+03  0.23783154743E+03 -0.64110100773E+03  0.83210620320E+03  0.10566000000E+00 0. -1.
          1    1    1    2  502    0 -0.91201272344E+01 -0.20748240431E+03  0.71928834332E+03  0.74867071911E+03  0.00000000000E+00 0.  1.
         -4    1    3    3    0  502 -0.36250227602E+03 -0.30756627722E+03 -0.61695892538E+03  0.77887305167E+03  0.00000000000E+00 0. -1.
</event>
<event>
 7    1  0.4894942E-006  0.1090209E+04  0.7818608E-02  0.8873938E-01
          4   -1    0    0  501    0 -0.00000000000E+00  0.00000000000E+00  0.89623422304E+03  0.89623422304E+03  0.00000000000E+00 0.  1.
          2   -1    0    0  502    0  0.00000000000E+00 -0.00000000000E+00 -0.84967347402E+03  0.84967347402E+03  0.00000000000E+00 0.  1.
    9000010    2    1    2  502    0 -0.50057742550E+03 -0.71885574372E+02  0.28893259177E+03  0.11268519684E+04  0.96465953656E+03 0.  0.
        -13    1    3    3    0    0 -0.99185905841E+02  0.35863698794E+03  0.37929826236E+03  0.53134312457E+03  0.10566000000E+00 0.  1.
         13    1    1    2    0    0  0.50648984638E+03  0.58359096803E+02 -0.15852246923E+03  0.53391678479E+03  0.10566000000E+00 0. -1.
          2    1    1    2  501    0 -0.59124208765E+01  0.13526477569E+02 -0.83849373518E+02  0.85138943824E+02  0.00000000000E+00 0.  1.
          4    1    3    3  502    0 -0.40139151966E+03 -0.43052256231E+03 -0.90365670588E+02  0.59550884388E+03  0.00000000000E+00 0.  1.
</event>
<event>
 7    1  0.4894942E-006  0.1665578E+04  0.7818608E-02  0.8357630E-01
          4   -1    0    0  501    0  0.00000000000E+00  0.00000000000E+00  0.18786384524E+04  0.18786384524E+04  0.00000000000E+00 0.  1.
         -4   -1    0    0    0  501 -0.00000000000E+00 -0.00000000000E+00 -0.17958549503E+04  0.17958549503E+04  0.00000000000E+00 0. -1.
   -9000010    2    1    2    0  502  0.13953728556E+04 -0.95288364533E+02 -0.67374584040E+03  0.17991414028E+04  0.90930250815E+03 0.  0.
        -13    1    1    2    0    0 -0.13884833350E+04  0.77992790964E+02  0.30536484905E+03  0.14238035500E+04  0.10566000000E+00 0.  1.
         13    1    3    3    0    0  0.95329309797E+03 -0.49271508105E+03 -0.40908020896E+03  0.11484261013E+04  0.10566000000E+00 0. -1.
          4    1    1    2  502    0 -0.68895206352E+01  0.17295573569E+02  0.45116449348E+03  0.45154844982E+03  0.00000000000E+00 0.  1.
         -4    1    3    3    0  502  0.44207975762E+03  0.39742671652E+03 -0.26466563143E+03  0.65071530146E+03  0.00000000000E+00 0. -1.
</event>
<event>
 7    1  0.4894942E-006  0.1002839E+04  0.7818608E-02  0.9352166E-01
          4   -1    0    0  501    0  0.00000000000E+00  0.00000000000E+00  0.53812220027E+03  0.53812220027E+03  0.00000000000E+00 0.  1.
          4   -1    0    0  502    0 -0.00000000000E+00 -0.00000000000E+00 -0.90891881961E+03  0.90891881961E+03  0.00000000000E+00 0.  1.
    9000010    2    1    2  501    0  0.83676379904E+02 -0.63420431262E+02 -0.13650674499E+03  0.10127218543E+04  0.99797173060E+03 0.  0.
        -13    1    3    3    0    0  0.36767148969E+03 -0.15037493458E+03 -0.43676182165E+03  0.59038618319E+03  0.10566000000E+00 0.  1.
         13    1    1    2    0    0 -0.83945609500E+02  0.51689501569E+02 -0.32665743655E+03  0.34120926416E+03  0.10566000000E+00 0. -1.
          4    1    3    3  501    0 -0.28399510978E+03  0.86954503322E+02  0.30025507666E+03  0.42233567111E+03  0.00000000000E+00 0.  1.
          4    1    1    2  502    0  0.26922959612E+00  0.11730929693E+02  0.92367562208E+02  0.93109901430E+02  0.00000000000E+00 0.  1.
</event>
<event>
 7    1  0.4894942E-006  0.1477031E+04  0.7818608E-02  0.8753584E-01
          2   -1    0    0  502    0  0.00000000000E+00  0.00000000000E+00  0.30616857003E+04  0.30616857003E+04  0.00000000000E+00 0.  1.
          4   -1    0    0  501    0 -0.00000000000E+00 -0.00000000000E+00 -0.70966300512E+03  0.70966300512E+03  0.00000000000E+00 0.  1.
    9000010    2    1    2  502    0 -0.91471906110E+03 -0.19940845275E+03  0.12163060619E+04  0.18376902818E+04  0.10105594706E+04 0.  0.
        -13    1    3    3    0    0 -0.45495813379E+03 -0.85034987063E+02 -0.68902663585E+02  0.46793743251E+03  0.10566000000E+00 0.  1.
         13    1    1    2    0    0 -0.21436795108E+03 -0.26318256529E+03  0.18321512533E+03  0.38572849834E+03  0.10566000000E+00 0. -1.
          2    1    1    2  501    0  0.11290870122E+04  0.46259101804E+03  0.95250150794E+03  0.15479299253E+04  0.00000000000E+00 0.  1.
          4    1    3    3  502    0 -0.45976092730E+03 -0.11437346569E+03  0.12852087255E+04  0.13697528492E+04  0.00000000000E+00 0.  1.
</event>
<event>
 7    1  0.4894942E-006  0.1193485E+04  0.7818608E-02  0.8765144E-01
          4   -1    0    0  501    0 -0.00000000000E+00  0.00000000000E+00  0.33939118184E+04  0.33939118184E+04  0.00000000000E+00 0.  1.
          2   -1    0    0  502    0  0.00000000000E+00 -0.00000000000E+00 -0.18026711745E+04  0.18026711745E+04  0.00000000000E+00 0. -1.
    9000010    2    1    2  502    0 -0.16062365291E+03 -0.58503711990E+03  0.10740833994E+04  0.16034642360E+04  0.10243895830E+04 0.  0.
        -13    1    3    3    0    0 -0.44300016228E+03 -0.36908770353E+03  0.11052476652E+04  0.12466143306E+04  0.10566000000E+00 0.  1.
         13    1    1    2    0    0  0.24730658808E+03  0.56237759258E+03  0.20078500274E+04  0.20997358997E+04  0.10566000000E+00 0. -1.
          2    1    1    2  501    0 -0.86682935176E+02  0.22659527323E+02 -0.14906927828E+04  0.14933828572E+04  0.00000000000E+00 0. -1.
          4    1    3    3  502    0  0.28237650937E+03 -0.21594941637E+03 -0.31164265876E+02  0.35684990535E+03  0.00000000000E+00 0.  1.
</event>
<event>
 7    1  0.4894942E-006  0.1081187E+04  0.7818608E-02  0.8921380E-01
         -4   -1    0    0    0  501  0.00000000000E+00  0.00000000000E+00  0.11680121064E+04  0.11680121064E+04  0.00000000000E+00 0. -1.
         -4   -1    0    0    0  502 -0.00000000000E+00 -0.00000000000E+00 -0.17475301358E+04  0.17475301358E+04  0.00000000000E+00 0. -1.
   -9000010    2    1    2    0  501 -0.37737710241E+03  0.18012264276E+03 -0.15490291304E+03  0.10884696596E+04  0.99293184234E+03 0.  0.
        -13    1    1    2    0    0  0.38005721276E+03 -0.19837296578E+03 -0.10848975812E+04  0.11665325077E+04  0.10566000000E+00 0.  1.
         13    1    3    3    0    0 -0.35325101016E+03  0.26308959124E+03 -0.53825529107E+03  0.69550066767E+03  0.10566000000E+00 0. -1.
         -4    1    3    3    0  501 -0.24126092247E+02 -0.82966948477E+02  0.38335237803E+03  0.39296899192E+03  0.00000000000E+00 0. -1.
         -4    1    1    2    0  502 -0.26801103474E+01  0.18250323019E+02  0.66028246479E+03  0.66054007493E+03  0.00000000000E+00 0. -1.
</event>
<event>
 7    1  0.4894942E-006  0.1148763E+04  0.7818608E-02  0.8816016E-01
          4   -1    0    0  501    0  0.00000000000E+00  0.00000000000E+00  0.65015917038E+03  0.65015917038E+03  0.00000000000E+00 0.  1.
         -4   -1    0    0    0  501 -0.00000000000E+00 -0.00000000000E+00 -0.18543297386E+04  0.18543297386E+04  0.00000000000E+00 0. -1.
   -9000010    2    1    2    0  502 -0.46692904340E+03 -0.21107825082E+03 -0.12649079510E+04  0.16958582290E+04  0.10066609403E+04 0.  0.
        -13    1    1    2    0    0  0.49508960673E+03  0.38684431861E+03  0.50568793737E+02  0.63033281653E+03  0.10566000000E+00 0.  1.
         13    1    3    3    0    0  0.14762342537E+03  0.17168365754E+03 -0.80941832148E+03  0.84049151351E+03  0.10566000000E+00 0. -1.
          4    1    1    2  502    0 -0.28160563322E+02 -0.17576606779E+03  0.10168589051E+02  0.17829786346E+03  0.00000000000E+00 0.  1.
         -4    1    3    3    0  502 -0.61455246877E+03 -0.38276190836E+03 -0.45548962957E+03  0.85536671552E+03  0.00000000000E+00 0. -1.
</event>
<event>
 7    1  0.4894942E-006  0.9397087E+03  0.7818608E-02  0.9042865E-01
          4   -1    0    0  501    0 -0.00000000000E+00  0.00000000000E+00  0.18800012705E+04  0.18800012705E+04  0.00000000000E+00 0.  1.
          2   -1    0    0  502    0  0.00000000000E+00 -0.00000000000E+00 -0.29615264542E+03  0.29615264542E+03  0.00000000000E+00 0. -1.
    9000010    2    1    2  502    0  0.32216985598E+03 -0.22995321226E+03  0.11993040229E+04  0.15230968773E+04  0.85136482334E+03 0.  0.
        -13    1    3    3    0    0  0.48264729034E+03 -0.24048077484E+03  0.12442817027E+04  0.13561033798E+04  0.10566000000E+00 0.  1.
         13    1    1    2    0    0 -0.25846441964E+03  0.30974840985E+03  0.37450917259E+03  0.55045895863E+03  0.10566000000E+00 0. -1.
          2    1    1    2  501    0 -0.63705436340E+02 -0.79795197597E+02  0.10035429665E+02  0.10259808004E+03  0.00000000000E+00 0. -1.
          4    1    3    3  502    0 -0.16047743437E+03  0.10527562578E+02 -0.44977679829E+02  0.16699349747E+03  0.00000000000E+00 0.  1.
</event>
<event>
 7    1  0.4894942E-006  0.1221105E+04  0.7818608E-02  0.8713111E-01
          1   -1    0    0  501    0  0.00000000000E+00  0.00000000000E+00  0.58658340418E+03  0.58658340418E+03  0.00000000000E+00 0. -1.
         -4   -1    0    0    0  501 -0.00000000000E+00 -0.00000000000E+00 -0.20970029968E+04  0.20970029968E+04  0.00000000000E+00 0. -1.
   -9000010    2    1    2    0  502 -0.75430446359E+02 -0.68267587254E+03 -0.85499403063E+03  0.14774641270E+04  0.99002492638E+03 0.  0.
        -13    1    1    2    0    0  0.44289653811E+02  0.72659215087E+03 -0.78212151618E+03  0.10684623552E+04  0.10566000000E+00 0.  1.
         13    1    3    3    0    0  0.34703914293E+03 -0.39150694886E+03 -0.53633352274E+02  0.52591862999E+03  0.10566000000E+00 0. -1.
          1    1    1    2  502    0  0.31140792548E+02 -0.43916278329E+02  0.12669595418E+03  0.13765991888E+03  0.00000000000E+00 0. -1.
         -4    1    3    3    0  502 -0.42246958929E+03 -0.29116892368E+03 -0.80136067836E+03  0.95154549697E+03  0.00000000000E+00 0. -1.
</event>
<event>
 7    1  0.4894942E-006  0.1078836E+04  0.7818608E-02  0.8922816E-01
          2   -1    0    0  501    0  0.00000000000E+00  0.00000000000E+00  0.95736105347E+03  0.95736105347E+03  0.00000000000E+00 0. -1.
         -4   -1    0    0    0  501 -0.00000000000E+00 -0.00000000000E+00 -0.18305698321E+04  0.18305698321E+04  0.00000000000E+00 0. -1.
   -9000010    2    1    2    0  502  0.33142707931E+03 -0.31900751595E+03 -0.53155061929E+03  0.12143993409E+04  0.99025753935E+03 0.  0.
        -13    1    1    2    0    0 -0.25680298765E+03  0.33784039590E+03 -0.90784853206E+03  0.10021341606E+04  0.10566000000E+00 0.  1.
         13    1    3    3    0    0  0.10001063597E+03 -0.52424883966E+03 -0.68560131634E+03  0.86884299463E+03  0.10566000000E+00 0. -1.
          2    1    1    2  502    0 -0.74624091660E+02 -0.18832879949E+02  0.56619037266E+03  0.57139738407E+03  0.00000000000E+00 0. -1.
         -4    1    3    3    0  502  0.23141644334E+03  0.20524132371E+03  0.15405069705E+03  0.34555634630E+03  0.00000000000E+00 0. -1.
</event>
<event>
 7    1  0.4894942E-006  0.1289431E+04  0.7818608E-02  0.8686904E-01
         -4   -1    0    0    0  501 -0.00000000000E+00  0.00000000000E+00  0.17211779906E+04  0.17211779906E+04  0.00000000000E+00 0. -1.
          2   -1    0    0  501    0  0.00000000000E+00 -0.00000000000E+00 -0.22530790945E+04  0.22530790945E+04  0.00000000000E+00 0. -1.
   -9000010    2    1    2    0  502  0.14256632006E+03 -0.71578437397E+03  0.31789765705E+03  0.13542199251E+04  0.10955273888E+04 0.  0.
        -13    1    1    2    0    0 -0.28021343076E+03  0.61035475478E+03  0.75236640531E+03  0.10085175816E+04  0.10566000000E+00 0.  1.
         13    1    3    3    0    0  0.62066543979E+02 -0.73739784683E+03 -0.24934619328E+03  0.78088499516E+03  0.10566000000E+00 0. -1.
          2    1    1    2  502    0  0.13764711070E+03  0.10542961920E+03 -0.16021651662E+04  0.16115195784E+04  0.00000000000E+00 0. -1.
         -4    1    3    3    0  502  0.80499776081E+02  0.21613472857E+02  0.56724385034E+03  0.57333492995E+03  0.00000000000E+00 0. -1.
</event>
<event>
 7    1  0.4894942E-006  0.9957867E+03  0.7818608E-02  0.9709526E-01
          2   -1    0    0  501    0  0.00000000000E+00  0.00000000000E+00  0.29716418711E+03  0.29716418711E+03  0.00000000000E+00 0. -1.
         -4   -1    0    0    0  501 -0.00000000000E+00 -0.00000000000E+00 -0.33383370782E+04  0.33383370782E+04  0.00000000000E+00 0. -1.
   -9000010    2    1    2    0  502 -0.67962821113E+01  0.37236436878E+02 -0.32597700003E+04  0.34085707741E+04  0.99540018363E+03 0.  0.
        -13    1    1    2    0    0  0.48458535167E+00 -0.23138580515E+02  0.30938022102E+02  0.38636784375E+02  0.10566000000E+00 0.  1.
         13    1    3    3    0    0  0.37138583207E+03 -0.30711151431E+03 -0.14554994916E+04  0.15332069983E+04  0.10566000000E+00 0. -1.
          2    1    1    2  502    0  0.63116967597E+01 -0.14097856363E+02  0.18765908708E+03  0.18829370684E+03  0.00000000000E+00 0. -1.
         -4    1    3    3    0  502 -0.37818211418E+03  0.34434795119E+03 -0.18042705087E+04  0.18753637758E+04  0.00000000000E+00 0. -1.
</event>
<event>
 7    1  0.4894942E-006  0.1094077E+04  0.7818608E-02  0.8875431E-01
          2   -1    0    0  502    0  0.00000000000E+00  0.00000000000E+00  0.26048573664E+04  0.26048573664E+04  0.00000000000E+00 0.  1.
          4   -1    0    0  501    0 -0.00000000000E+00 -0.00000000000E+00 -0.83941366973E+03  0.83941366973E+03  0.00000000000E+00 0.  1.
    9000010    2    1    2  502    0  0.17679653791E+03 -0.45343772442E+03  0.11289782626E+04  0.15681260493E+04  0.97342930070E+03 0.  0.
        -13    1    3    3    0    0  0.27670812383E+03 -0.29068012214E+03 -0.21503210390E+02  0.40190137897E+03  0.10566000000E+00 0.  1.
         13    1    1    2    0    0 -0.18939329695E+03  0.46317415947E+03 -0.51878209238E+03  0.72078775896E+03  0.10566000000E+00 0. -1.
          2    1    1    2  501    0  0.12596759037E+02 -0.97364350480E+01  0.11552475265E+04  0.11553572278E+04  0.00000000000E+00 0.  1.
          4    1    3    3  502    0 -0.99911585916E+02 -0.16275760228E+03  0.11504814730E+04  0.11662246703E+04  0.00000000000E+00 0.  1.
</event>
<event>
 7    1  0.4894942E-006  0.1152166E+04  0.7818608E-02  0.8894149E-01
         -4   -1    0    0    0  501 -0.00000000000E+00  0.00000000000E+00  0.77265232816E+03  0.77265232816E+03  0.00000000000E+00 0. -1.
          2   -1    0    0  501    0  0.00000000000E+00 -0.00000000000E+00 -0.21241295553E+04  0.21241295553E+04  0.00000000000E+00 0.  1.
   -9000010    2    1    2    0  502  0.15099684476E+03  0.31184647605E+03 -0.23759963271E+03  0.10897057543E+04  0.10054634622E+04 0.  0.
        -13    1    1    2    0    0 -0.27476698220E+03  0.28468310095E+03  0.13456673774E+03  0.41791097203E+03  0.10566000000E+00 0.  1.
         13    1    3    3    0    0 -0.41643085217E+03  0.59784175390E+01 -0.12908690092E+03  0.43602045281E+03  0.10566000000E+00 0. -1.
          2    1    1    2  502    0  0.12377013744E+03 -0.59652957699E+03 -0.12484443321E+04  0.13891651571E+04  0.00000000000E+00 0.  1.
         -4    1    3    3    0  502  0.56742769693E+03  0.30586805851E+03 -0.10851273179E+03  0.65368530152E+03  0.00000000000E+00 0. -1.
</event>
<event>
 7    1  0.4894942E-006  0.1157316E+04  0.7818608E-02  0.8789433E-01
          2   -1    0    0  501    0  0.00000000000E+00  0.00000000000E+00  0.16254976458E+04  0.16254976458E+04  0.00000000000E+00 0. -1.
         -4   -1    0    0    0  501 -0.00000000000E+00 -0.00000000000E+00 -0.85941957600E+03  0.85941957600E+03  0.00000000000E+00 0. -1.
   -9000010    2    1    2    0  502 -0.68990497339E+02  0.64551843081E+03  0.14135185756E+03  0.11890989411E+04  0.98616540746E+03 0.  0.
        -13    1    1    2    0    0  0.30548852919E+02 -0.58817055013E+03 -0.74085252281E+02  0.59360463629E+03  0.10566000000E+00 0.  1.
         13    1    3    3    0    0  0.38904630343E+03  0.41994073828E+03 -0.16234571287E+03  0.59503226092E+03  0.10566000000E+00 0. -1.
          2    1    1    2  502    0  0.38441644420E+02 -0.57347880675E+02  0.69881146453E+03  0.70221364442E+03  0.00000000000E+00 0. -1.
         -4    1    3    3    0  502 -0.45803680077E+03  0.22557769253E+03  0.30369757043E+03  0.59406668019E+03  0.00000000000E+00 0. -1.
</event>
<event>
 6    1  0.4894942E-006  0.7635408E+03  0.7818608E-02  0.9227560E-01
         -4   -1    0    0    0  501 -0.00000000000E+00  0.00000000000E+00  0.20587409871E+04  0.20587409871E+04  0.00000000000E+00 0. -1.
          5   -1    0    0  501    0  0.00000000000E+00 -0.00000000000E+00 -0.42499919428E+03  0.42499919428E+03  0.00000000000E+00 0. -1.
        -13    1    1    2    0    0  0.34856903386E+03  0.20913023586E+02  0.18410125772E+03  0.39475436689E+03  0.10566000000E+00 0.  1.
         13    1    1    2    0    0 -0.38423174954E+03  0.24798288826E+03  0.13019420540E+04  0.13799212562E+04  0.10566000000E+00 0. -1.
          5    1    1    2  502    0  0.17071239732E+02  0.55396460912E+01 -0.23615253245E+03  0.23683355650E+03  0.00000000000E+00 0. -1.
         -4    1    1    2    0  502  0.18591475955E+02 -0.27443555793E+03  0.38385101361E+03  0.47223100183E+03  0.00000000000E+00 0. -1.
</event>
<event>
 7    1  0.4894942E-006  0.1458534E+04  0.7818608E-02  0.8503005E-01
         -4   -1    0    0    0  501 -0.00000000000E+00  0.00000000000E+00  0.20225659327E+04  0.20225659327E+04  0.00000000000E+00 0. -1.
          1   -1    0    0  501    0  0.00000000000E+00 -0.00000000000E+00 -0.90156619711E+03  0.90156619711E+03  0.00000000000E+00 0.  1.
   -9000010    2    1    2    0  502 -0.34665483300E+02 -0.10741163367E+04  0.26978663304E+03  0.14917499469E+04  0.99880202050E+03 0.  0.
        -13    1    1    2    0    0  0.88373149807E+02  0.10547753155E+04  0.87223342084E+03  0.13715509219E+04  0.10566000000E+00 0.  1.
         13    1    3    3    0    0 -0.33533141097E+01 -0.42209596414E+03  0.62070425745E+03  0.75063308883E+03  0.10566000000E+00 0. -1.
          1    1    1    2  502    0 -0.53707666506E+02  0.19341021212E+02 -0.21020318270E+02  0.60831261069E+02  0.00000000000E+00 0.  1.
         -4    1    3    3    0  502 -0.31312169190E+02 -0.65202037254E+03 -0.35091762441E+03  0.74111685804E+03  0.00000000000E+00 0. -1.
</event>
<event>
 7    1  0.4894942E-006  0.1037924E+04  0.7818608E-02  0.9078310E-01
          2   -1    0    0  501    0  0.00000000000E+00  0.00000000000E+00  0.13160988553E+04  0.13160988553E+04  0.00000000000E+00 0. -1.
         -4   -1    0    0    0  501 -0.00000000000E+00 -0.00000000000E+00 -0.15569249424E+04  0.15569249424E+04  0.00000000000E+00 0. -1.
   -9000010    2    1    2    0  502  0.37023128345E+02  0.20721789037E+03  0.10266809640E+03  0.10326994291E+04  0.10057919302E+04 0.  0.
        -13    1    1    2    0    0 -0.34281787526E+01 -0.25753548748E+03 -0.10754556519E+04  0.11058666963E+04  0.10566000000E+00 0.  1.
         13    1    3    3    0    0  0.14625066446E+03  0.53765131864E+03 -0.17872652282E+03  0.58515073136E+03  0.10566000000E+00 0. -1.
          2    1    1    2  502    0 -0.33594949592E+02  0.50317597114E+02  0.73196146838E+03  0.73445767231E+03  0.00000000000E+00 0. -1.
         -4    1    3    3    0  502 -0.10922753612E+03 -0.33043342828E+03  0.28139461921E+03  0.44754869779E+03  0.00000000000E+00 0. -1.
</event>
<event>
 7    1  0.4894942E-006  0.1036661E+04  0.7818608E-02  0.9072222E-01
         -4   -1    0    0    0  501 -0.00000000000E+00  0.00000000000E+00  0.17432942352E+04  0.17432942352E+04  0.00000000000E+00 0. -1.
          1   -1    0    0  501    0  0.00000000000E+00 -0.00000000000E+00 -0.78421705658E+03  0.78421705658E+03  0.00000000000E+00 0.  1.
   -9000010    2    1    2    0  502  0.35588339851E+02 -0.13683703078E+03  0.86010363396E+03  0.13285336793E+04  0.10026128730E+04 0.  0.
        -13    1    1    2    0    0  0.16751207906E+03  0.23373725114E+03  0.59137884212E+03  0.65758827945E+03  0.10566000000E+00 0.  1.
         13    1    3    3    0    0  0.24632875454E+03 -0.28304369574E+03 -0.54035263903E+02  0.37909287770E+03  0.10566000000E+00 0. -1.
          1    1    1    2  502    0 -0.20310041891E+03 -0.96900220356E+02 -0.49240529748E+03  0.54138933297E+03  0.00000000000E+00 0.  1.
         -4    1    3    3    0  502 -0.21074041469E+03  0.14620666496E+03  0.91413889786E+03  0.94944080165E+03  0.00000000000E+00 0. -1.
</event>
<event>
 7    1  0.4894942E-006  0.1050406E+04  0.7818608E-02  0.9045174E-01
          2   -1    0    0  502    0  0.00000000000E+00  0.00000000000E+00  0.11239263770E+04  0.11239263770E+04  0.00000000000E+00 0. -1.
          4   -1    0    0  501    0 -0.00000000000E+00 -0.00000000000E+00 -0.70677153799E+03  0.70677153799E+03  0.00000000000E+00 0.  1.
    9000010    2    1    2  502    0  0.16733203047E+03 -0.73297889889E+02  0.17032504988E+03  0.10421647454E+04  0.10117925404E+04 0.  0.
        -13    1    3    3    0    0 -0.19052024465E+03  0.27221071181E+03  0.37787284495E+03  0.50317445619E+03  0.10566000000E+00 0.  1.
         13    1    1    2    0    0 -0.29839388171E+03 -0.47514404987E+00 -0.17137587137E+03  0.34410584833E+03  0.10566000000E+00 0. -1.
          2    1    1    2  501    0  0.13106185124E+03  0.73773033939E+02  0.41820566051E+03  0.44442732124E+03  0.00000000000E+00 0. -1.
          4    1    3    3  502    0  0.35785227512E+03 -0.34550860170E+03 -0.20754779506E+03  0.53899028924E+03  0.00000000000E+00 0.  1.
</event>
<event>
 7    1  0.4894942E-006  0.1113364E+04  0.7818608E-02  0.8876362E-01
          2   -1    0    0  502    0  0.00000000000E+00  0.00000000000E+00  0.16125803855E+04  0.16125803855E+04  0.00000000000E+00 0.  1.
          4   -1    0    0  501    0 -0.00000000000E+00 -0.00000000000E+00 -0.41330618429E+03  0.41330618429E+03  0.00000000000E+00 0.  1.
    9000010    2    1    2  502    0 -0.13879576488E+03  0.44876088768E+03  0.67351848743E+03  0.13003764628E+04  0.10083160187E+04 0.  0.
        -13    1    3    3    0    0 -0.45665516271E+02 -0.31482528835E+03  0.32854383398E+03  0.45731976075E+03  0.10566000000E+00 0.  1.
         13    1    1    2    0    0  0.12490024507E+03 -0.45678501250E+03  0.46886004605E+03  0.66639505762E+03  0.10566000000E+00 0. -1.
          2    1    1    2  501    0  0.13895519810E+02  0.80241248252E+01  0.56895667743E+02  0.59115049335E+02  0.00000000000E+00 0.  1.
          4    1    3    3  502    0 -0.93130248612E+02  0.76358617603E+03  0.34497465344E+03  0.84305670210E+03  0.00000000000E+00 0.  1.
</event>
<event>
 7    1  0.4894942E-006  0.9964959E+03  0.7818608E-02  0.9125764E-01
         -4   -1    0    0    0  501 -0.00000000000E+00  0.00000000000E+00  0.20145464872E+04  0.20145464872E+04  0.00000000000E+00 0. -1.
          4   -1    0    0  501    0  0.00000000000E+00 -0.00000000000E+00 -0.40682605136E+03  0.40682605136E+03  0.00000000000E+00 0. -1.
   -9000010    2    1    2    0  502  0.22696815954E+03  0.10836008260E+03  0.14621611724E+04  0.17710388704E+04  0.96716437777E+03 0.  0.
        -13    1    1    2    0    0 -0.21417748853E+03 -0.10229764671E+03  0.36230286459E+03  0.43312836662E+03  0.10566000000E+00 0.  1.
         13    1    3    3    0    0  0.91750308151E+02  0.49845014101E+03  0.11392343751E+04  0.12468863760E+04  0.10566000000E+00 0. -1.
          4    1    1    2  502    0 -0.12790671009E+02 -0.60624358900E+01 -0.21674360110E+03  0.21720530153E+03  0.00000000000E+00 0. -1.
         -4    1    3    3    0  502  0.13521785139E+03 -0.39009005842E+03  0.32292679730E+03  0.52415249444E+03  0.00000000000E+00 0. -1.
</event>
<event>
 7    1  0.4894942E-006  0.1168368E+04  0.7818608E-02  0.9071397E-01
         -4   -1    0    0    0  501 -0.00000000000E+00  0.00000000000E+00  0.34866919890E+03  0.34866919890E+03  0.00000000000E+00 0. -1.
          2   -1    0    0  501    0  0.00000000000E+00 -0.00000000000E+00 -0.27061816946E+04  0.27061816946E+04  0.00000000000E+00 0. -1.
   -9000010    2    1    2    0  502  0.12759119044E+03 -0.13522324908E+03 -0.14740560787E+04  0.18810602516E+04  0.11536817187E+04 0.  0.
        -13    1    1    2    0    0 -0.11490147886E+03  0.14453744721E+03  0.86363283415E+02  0.20384320292E+03  0.10566000000E+00 0.  1.
         13    1    3    3    0    0 -0.20575045634E+03 -0.52155319571E+03 -0.11421666197E+04  0.12723582768E+04  0.10566000000E+00 0. -1.
          2    1    1    2  502    0 -0.12689711577E+02 -0.93141981325E+01 -0.96981970035E+03  0.96994743891E+03  0.00000000000E+00 0. -1.
         -4    1    3    3    0  502  0.33334164678E+03  0.38632994663E+03 -0.33188945901E+03  0.60870197482E+03  0.00000000000E+00 0. -1.
</event>
<event>
 6    1  0.4894942E-006  0.8167557E+03  0.7818608E-02  0.9004737E-01
          2   -1    0    0  502    0  0.00000000000E+00  0.00000000000E+00  0.14979849343E+04  0.14979849343E+04  0.00000000000E+00 0. -1.
          4   -1    0    0  501    0 -0.00000000000E+00 -0.00000000000E+00 -0.81855547993E+03  0.81855547993E+03  0.00000000000E+00 0.  1.
        -13    1    1    2    0    0 -0.30021742404E+03 -0.36023946362E+03  0.31597416560E+03  0.56545791827E+03  0.10566000000E+00 0.  1.
         13    1    1    2    0    0  0.67875430600E+03  0.25655426488E+03 -0.31447273194E+03  0.79083538681E+03  0.10566000000E+00 0. -1.
          2    1    1    2  501    0 -0.10029356238E+03  0.70338567314E+02  0.66873454922E+03  0.67986190511E+03  0.00000000000E+00 0. -1.
          4    1    1    2  502    0 -0.27824331958E+03  0.33346631422E+02  0.91934714755E+01  0.28038520402E+03  0.00000000000E+00 0.  1.
</event>
<event>
 7    1  0.4894942E-006  0.1024518E+04  0.7818608E-02  0.9178505E-01
          2   -1    0    0  502    0  0.00000000000E+00  0.00000000000E+00  0.53753527905E+03  0.53753527905E+03  0.00000000000E+00 0. -1.
          4   -1    0    0  501    0 -0.00000000000E+00 -0.00000000000E+00 -0.12194504108E+04  0.12194504108E+04  0.00000000000E+00 0.  1.
    9000010    2    1    2  502    0 -0.13202823726E+03  0.13323608520E+03 -0.51149602078E+03  0.11463757418E+04  0.10086455533E+04 0.  0.
        -13    1    3    3    0    0 -0.29431657227E+03 -0.38116748962E+03 -0.18513903285E+03  0.51593349620E+03  0.10566000000E+00 0.  1.
         13    1    1    2    0    0  0.13251849417E+03 -0.12054470606E+03 -0.36975697629E+03  0.41086787431E+03  0.10566000000E+00 0. -1.
          2    1    1    2  501    0 -0.49025691192E+00 -0.12691379135E+02  0.19933786534E+03  0.19974207372E+03  0.00000000000E+00 0. -1.
          4    1    3    3  502    0  0.16228833501E+03  0.51440357482E+03 -0.32635698793E+03  0.63044224560E+03  0.00000000000E+00 0.  1.
</event>
<event>
 7    1  0.4894942E-006  0.1031855E+04  0.7818608E-02  0.9304888E-01
          4   -1    0    0  501    0 -0.00000000000E+00  0.00000000000E+00  0.44921037034E+03  0.44921037034E+03  0.00000000000E+00 0.  1.
          2   -1    0    0  502    0  0.00000000000E+00 -0.00000000000E+00 -0.17067715013E+04  0.17067715013E+04  0.00000000000E+00 0. -1.
    9000010    2    1    2  502    0 -0.15471482235E+01 -0.39914057711E+03 -0.46590794271E+03  0.11374068394E+04  0.95776224253E+03 0.  0.
        -13    1    3    3    0    0 -0.24727338627E+03  0.23844775003E+03 -0.23475461299E+03  0.41606633670E+03  0.10566000000E+00 0.  1.
         13    1    1    2    0    0  0.10388214937E+03  0.30410345957E+02 -0.56190563117E+03  0.57223617467E+03  0.10566000000E+00 0. -1.
          2    1    1    2  501    0 -0.10233500115E+03  0.36873023115E+03 -0.22974755711E+03  0.44633885762E+03  0.00000000000E+00 0. -1.
          4    1    3    3  502    0  0.24572623805E+03 -0.63758832713E+03 -0.23115332972E+03  0.72134050268E+03  0.00000000000E+00 0.  1.
</event>
<event>
 7    1  0.4894942E-006  0.1042641E+04  0.7818608E-02  0.9098457E-01
         -4   -1    0    0    0  501 -0.00000000000E+00  0.00000000000E+00  0.11848498188E+04  0.11848498188E+04  0.00000000000E+00 0. -1.
          2   -1    0    0  501    0  0.00000000000E+00 -0.00000000000E+00 -0.92316078188E+03  0.92316078188E+03  0.00000000000E+00 0. -1.
   -9000010    2    1    2    0  502 -0.14456934202E+03 -0.18056827449E+03  0.21664025124E+03  0.10644606254E+04  0.10161880870E+04 0.  0.
        -13    1    1    2    0    0  0.15848711100E+03  0.17151132241E+03  0.51909938220E+03  0.56920864174E+03  0.10566000000E+00 0.  1.
         13    1    3    3    0    0 -0.11122864345E+03  0.54333094280E+02 -0.39206950455E+03  0.41114766669E+03  0.10566000000E+00 0. -1.
          2    1    1    2  502    0 -0.13917768984E+02  0.90569520839E+01 -0.47405059650E+03  0.47434133355E+03  0.00000000000E+00 0. -1.
         -4    1    3    3    0  502 -0.33340698569E+02 -0.23490136877E+03  0.60870975579E+03  0.65331295871E+03  0.00000000000E+00 0. -1.
</event>
<event>
 7    1  0.4894942E-006  0.1219230E+04  0.7818608E-02  0.8726865E-01
         -4   -1    0    0    0  501 -0.00000000000E+00  0.00000000000E+00  0.18246977543E+04  0.18246977543E+04  0.00000000000E+00 0. -1.
          2   -1    0    0  501    0  0.00000000000E+00 -0.00000000000E+00 -0.65948819703E+03  0.65948819703E+03  0.00000000000E+00 0.  1.
   -9000010    2    1    2    0  502 -0.62507862619E+03 -0.22882025854E+03  0.83031109487E+03  0.14700288585E+04  0.10141431511E+04 0.  0.
        -13    1    1    2    0    0  0.63619670278E+03  0.24809645462E+03  0.50077028435E+03  0.84679925854E+03  0.10566000000E+00 0.  1.
         13    1    3    3    0    0  0.25672901957E+03  0.78135031366E+01  0.35036285540E+02  0.25922652795E+03  0.10566000000E+00 0. -1.
          2    1    1    2  502    0 -0.11118076584E+02 -0.19276196081E+02 -0.16587182198E+03  0.16735783426E+03  0.00000000000E+00 0.  1.
         -4    1    3    3    0  502 -0.88180764576E+03 -0.23663376168E+03  0.79527480933E+03  0.12108023305E+04  0.00000000000E+00 0. -1.
</event>
<event>
 7    1  0.4894942E-006  0.1201189E+04  0.7818608E-02  0.8745068E-01
          2   -1    0    0  501    0  0.00000000000E+00  0.00000000000E+00  0.33509315890E+04  0.33509315890E+04  0.00000000000E+00 0.  1.
         -4   -1    0    0    0  501 -0.00000000000E+00 -0.00000000000E+00 -0.10740627390E+04  0.10740627390E+04  0.00000000000E+00 0. -1.
   -9000010    2    1    2    0  502  0.22923555131E+03  0.49860041432E+03  0.30188262448E+03  0.11860569460E+04  0.10071974231E+04 0.  0.
        -13    1    1    2    0    0  0.49048555445E+02 -0.69554618811E+03 -0.42385421574E+03  0.81599183081E+03  0.10566000000E+00 0.  1.
         13    1    3    3    0    0 -0.38892138989E+02  0.75441919982E+03  0.94281466970E+02  0.76128177025E+03  0.10566000000E+00 0. -1.
          2    1    1    2  502    0 -0.27828410675E+03  0.19694577379E+03  0.23988404412E+04  0.24229455512E+04  0.00000000000E+00 0.  1.
         -4    1    3    3    0  502  0.26812769030E+03 -0.25581878551E+03  0.20760115751E+03  0.42477517574E+03  0.00000000000E+00 0. -1.
</event>
<event>
 7    1  0.4894942E-006  0.1021770E+04  0.7818608E-02  0.9148092E-01
         -4   -1    0    0    0  501 -0.00000000000E+00  0.00000000000E+00  0.15776003873E+04  0.15776003873E+04  0.00000000000E+00 0. -1.
          4   -1    0    0  501    0  0.00000000000E+00 -0.00000000000E+00 -0.65580024344E+03  0.65580024344E+03  0.00000000000E+00 0.  1.
   -9000010    2    1    2    0  502 -0.10134946178E+03  0.13882566395E+03  0.95689881169E+03  0.13955733114E+04  0.10012118923E+04 0.  0.
        -13    1    1    2    0    0  0.39572176099E+02 -0.28067431568E+03 -0.37165646685E+03  0.46741049316E+03  0.10566000000E+00 0.  1.
         13    1    3    3    0    0 -0.21915138110E+02 -0.39943652757E+03  0.67034306344E+03  0.78063413114E+03  0.10566000000E+00 0. -1.
          4    1    1    2  502    0  0.61777285685E+02  0.14184865173E+03  0.33655779901E+03  0.37041682616E+03  0.00000000000E+00 0.  1.
         -4    1    3    3    0  502 -0.79434323674E+02  0.53826219152E+03  0.28655574825E+03  0.61493918029E+03  0.00000000000E+00 0. -1.
</event>
<event>
 7    1  0.4894942E-006  0.1126335E+04  0.7818608E-02  0.8906711E-01
          2   -1    0    0  501    0  0.00000000000E+00  0.00000000000E+00  0.13321252373E+04  0.13321252373E+04  0.00000000000E+00 0. -1.
         -4   -1    0    0    0  501 -0.00000000000E+00 -0.00000000000E+00 -0.13148909543E+04  0.13148909543E+04  0.00000000000E+00 0. -1.
   -9000010    2    1    2    0  502  0.14763726770E+03 -0.13223780916E+03  0.19562619631E+03  0.10469613773E+04  0.10092447255E+04 0.  0.
        -13    1    1    2    0    0  0.35238244878E+03 -0.19356592979E+03 -0.70012731207E+03  0.80735334498E+03  0.10566000000E+00 0.  1.
         13    1    3    3    0    0  0.16608912419E+03  0.21641831219E+03 -0.32235439014E+03  0.42229710753E+03  0.10566000000E+00 0. -1.
          2    1    1    2  502    0 -0.50001971648E+03  0.32580373895E+03  0.52173539878E+03  0.79270146936E+03  0.00000000000E+00 0. -1.
         -4    1    3    3    0  502 -0.18451856494E+02 -0.34865612135E+03  0.51798058644E+03  0.62466426975E+03  0.00000000000E+00 0. -1.
</event>
<event>
 7    1  0.4894942E-006  0.1029659E+04  0.7818608E-02  0.9112239E-01
          2   -1    0    0  501    0  0.00000000000E+00  0.00000000000E+00  0.14546670869E+04  0.14546670869E+04  0.00000000000E+00 0. -1.
         -4   -1    0    0    0  501 -0.00000000000E+00 -0.00000000000E+00 -0.54640023793E+03  0.54640023793E+03  0.00000000000E+00 0. -1.
   -9000010    2    1    2    0  502  0.26943207265E+03 -0.25491922763E+02  0.62056409210E+03  0.12107392070E+04  0.10037659862E+04 0.  0.
        -13    1    1    2    0    0 -0.15684021858E+03  0.16949565759E+03 -0.17700501913E+03  0.29096120028E+03  0.10566000000E+00 0.  1.
         13    1    3    3    0    0 -0.59613471008E+02 -0.11773579821E+03 -0.24603633221E+03  0.27919414757E+03  0.10566000000E+00 0. -1.
          2    1    1    2  502    0 -0.11259185407E+03 -0.14400373483E+03  0.46470777601E+03  0.49936691754E+03  0.00000000000E+00 0. -1.
         -4    1    3    3    0  502  0.32904554366E+03  0.92243875447E+02  0.86660042432E+03  0.93154505945E+03  0.00000000000E+00 0. -1.
</event>
<event>
 7    1  0.4894942E-006  0.1017540E+04  0.7818608E-02  0.9172665E-01
          4   -1    0    0  501    0 -0.00000000000E+00  0.00000000000E+00  0.17724947236E+04  0.17724947236E+04  0.00000000000E+00 0.  1.
          2   -1    0    0  502    0  0.00000000000E+00 -0.00000000000E+00 -0.57953339633E+03  0.57953339633E+03  0.00000000000E+00 0.  1.
    9000010    2    1    2  502    0 -0.90142633996E+02 -0.15183693585E+03  0.10587371800E+04  0.14670740494E+04  0.10001008452E+04 0.  0.
        -13    1    3    3    0    0 -0.35916934662E+03 -0.33291291579E+03  0.10312442320E+04  0.11416209118E+04  0.10566000000E+00 0.  1.
         13    1    1    2    0    0  0.10006338540E+03  0.15977699517E+03  0.49203617684E+03  0.52691648272E+03  0.10566000000E+00 0. -1.
          2    1    1    2  501    0 -0.99207514081E+01 -0.79400593111E+01 -0.35781202950E+03  0.35803758783E+03  0.00000000000E+00 0.  1.
          4    1    3    3  502    0  0.26902671263E+03  0.18107597994E+03  0.27492948005E+02  0.32545313765E+03  0.00000000000E+00 0.  1.
</event>
<event>
 7    1  0.4894942E-006  0.1032216E+04  0.7818608E-02  0.9063424E-01
         -4   -1    0    0    0  501 -0.00000000000E+00  0.00000000000E+00  0.15512734832E+04  0.15512734832E+04  0.00000000000E+00 0. -1.
          2   -1    0    0  501    0  0.00000000000E+00 -0.00000000000E+00 -0.14003759060E+04  0.14003759060E+04  0.00000000000E+00 0. -1.
   -9000010    2    1    2    0  502 -0.22135379040E+03  0.37441510205E+02  0.89116990011E+03  0.13541153602E+04  0.99450754171E+03 0.  0.
        -13    1    1    2    0    0  0.17522142888E+03 -0.24608623104E+03  0.36385581409E+03  0.47291864719E+03  0.10566000000E+00 0.  1.
         13    1    3    3    0    0  0.31505432335E+03 -0.10237248422E+02  0.72496075967E+03  0.79052649680E+03  0.10566000000E+00 0. -1.
          2    1    1    2  502    0  0.46132361526E+02  0.20864472084E+03 -0.11041281370E+04  0.11246153819E+04  0.00000000000E+00 0. -1.
         -4    1    3    3    0  502 -0.53640811376E+03  0.47678758628E+02  0.16620914044E+03  0.56358886335E+03  0.00000000000E+00 0. -1.
</event>
<event>
 7    1  0.4894942E-006  0.1104616E+04  0.7818608E-02  0.8891310E-01
         -4   -1    0    0    0  501 -0.00000000000E+00  0.00000000000E+00  0.41657733478E+04  0.41657733478E+04  0.00000000000E+00 0. -1.
          4   -1    0    0  501    0  0.00000000000E+00 -0.00000000000E+00 -0.15849831524E+04  0.15849831524E+04  0.00000000000E+00 0. -1.
   -9000010    2    1    2    0  502  0.39361882159E+02  0.41828833586E+03  0.14653386097E+04  0.18268894496E+04  0.10068730458E+04 0.  0.
        -13    1    1    2    0    0 -0.74578170159E+02 -0.45223243293E+03  0.24983796904E+04  0.25400742441E+04  0.10566000000E+00 0.  1.
         13    1    3    3    0    0 -0.14749754498E+03  0.71340455403E+03  0.85129967834E+03  0.11204520235E+04  0.10566000000E+00 0. -1.
          4    1    1    2  502    0  0.35216288001E+02  0.33944097070E+02 -0.13829281047E+04  0.13837928065E+04  0.00000000000E+00 0. -1.
         -4    1    3    3    0  502  0.18685942714E+03 -0.29511621817E+03  0.61403893136E+03  0.70643742608E+03  0.00000000000E+00 0. -1.
</event>
<event>
 7    1  0.4894942E-006  0.1275740E+04  0.7818608E-02  0.8676331E-01
          2   -1    0    0  502    0  0.00000000000E+00  0.00000000000E+00  0.16448145698E+04  0.16448145698E+04  0.00000000000E+00 0. -1.
          4   -1    0    0  501    0 -0.00000000000E+00 -0.00000000000E+00 -0.80242129537E+03  0.80242129537E+03  0.00000000000E+00 0.  1.
    9000010    2    1    2  502    0  0.62434137508E+03 -0.39326212723E+03  0.10505817910E+03  0.12815916845E+04  0.10425846591E+04 0.  0.
        -13    1    3    3    0    0  0.48370584874E+03 -0.25990557359E+03 -0.43965060617E+03  0.70343082244E+03  0.10566000000E+00 0.  1.
         13    1    1    2    0    0 -0.63719713407E+03  0.36258279202E+03  0.41668853875E+03  0.84327683369E+03  0.10566000000E+00 0. -1.
          2    1    1    2  501    0  0.12855758999E+02  0.30679335209E+02  0.32064655654E+03  0.32236734693E+03  0.00000000000E+00 0. -1.
          4    1    3    3  502    0  0.14063552633E+03 -0.13335655364E+03  0.54470878527E+03  0.57816086206E+03  0.00000000000E+00 0.  1.
</event>
<event>
 7    1  0.4894942E-006  0.1175055E+04  0.7818608E-02  0.8763848E-01
          2   -1    0    0  502    0  0.00000000000E+00  0.00000000000E+00  0.18713085317E+04  0.18713085317E+04  0.00000000000E+00 0. -1.
          4   -1    0    0  501    0 -0.00000000000E+00 -0.00000000000E+00 -0.85105523009E+03  0.85105523009E+03  0.00000000000E+00 0.  1.
    9000010    2    1    2  502    0  0.21321372942E+03  0.69340179078E+03 -0.21134382093E+03  0.12390990574E+04  0.98205607048E+03 0.  0.
        -13    1    3    3    0    0  0.11665947114E+03 -0.19243244007E+03  0.15752411223E+03  0.27468806544E+03  0.10566000000E+00 0.  1.
         13    1    1    2    0    0 -0.10559625834E+02 -0.54381128905E+03  0.63766629304E+03  0.83812918828E+03  0.10566000000E+00 0. -1.
          2    1    1    2  501    0 -0.20265410359E+03 -0.14959050173E+03  0.59393082945E+03  0.64513551606E+03  0.00000000000E+00 0. -1.
          4    1    3    3  502    0  0.96554258286E+02  0.88583423085E+03 -0.36886793316E+03  0.96441099198E+03  0.00000000000E+00 0.  1.
</event>
<event>
 7    1  0.4894942E-006  0.1148022E+04  0.7818608E-02  0.8904159E-01
          4   -1    0    0  501    0 -0.00000000000E+00  0.00000000000E+00  0.72858390981E+03  0.72858390981E+03  0.00000000000E+00 0.  1.
          2   -1    0    0  502    0  0.00000000000E+00 -0.00000000000E+00 -0.28411024340E+04  0.28411024340E+04  0.00000000000E+00 0.  1.
    9000010    2    1    2  502    0  0.33864211309E+03  0.60140095036E+02 -0.52018135003E+03  0.12488394795E+04  0.10819963479E+04 0.  0.
        -13    1    3    3    0    0  0.52597880884E+03 -0.33638931496E+02 -0.76350572923E+03  0.92775335882E+03  0.10566000000E+00 0.  1.
         13    1    1    2    0    0 -0.38577237399E+03 -0.45440552617E+02  0.26027499433E+03  0.46757700135E+03  0.10566000000E+00 0. -1.
          2    1    1    2  501    0  0.47130260901E+02 -0.14699542419E+02 -0.18526121685E+04  0.18532698629E+04  0.00000000000E+00 0.  1.
          4    1    3    3  502    0 -0.18733669575E+03  0.93779026531E+02  0.24332437920E+03  0.32108612070E+03  0.00000000000E+00 0.  1.
</event>
<event>
 7    1  0.4894942E-006  0.1015055E+04  0.7818608E-02  0.9151891E-01
          1   -1    0    0  501    0  0.00000000000E+00  0.00000000000E+00  0.87904255439E+03  0.87904255439E+03  0.00000000000E+00 0. -1.
         -4   -1    0    0    0  501 -0.00000000000E+00 -0.00000000000E+00 -0.75531311152E+03  0.75531311152E+03  0.00000000000E+00 0. -1.
   -9000010    2    1    2    0  502  0.18574033457E+03  0.24809793455E+03 -0.13719857397E+03  0.10503405630E+04  0.99415280146E+03 0.  0.
        -13    1    1    2    0    0 -0.18458424422E+03 -0.64478800258E+02 -0.68245405749E+02  0.20709009022E+03  0.10566000000E+00 0.  1.
         13    1    3    3    0    0 -0.38597064016E+03  0.43230811197E+02 -0.20515948960E+03  0.43924101066E+03  0.10566000000E+00 0. -1.
          1    1    1    2  502    0 -0.11560903497E+01 -0.18361913429E+03  0.32917342259E+03  0.37692501265E+03  0.00000000000E+00 0. -1.
         -4    1    3    3    0  502  0.57171097473E+03  0.20486712335E+03  0.67960915635E+02  0.61109955238E+03  0.00000000000E+00 0. -1.
</event>
<event>
 7    1  0.4894942E-006  0.1040687E+04  0.7818608E-02  0.9078685E-01
          4   -1    0    0  501    0 -0.00000000000E+00  0.00000000000E+00  0.47781267306E+03  0.47781267306E+03  0.00000000000E+00 0.  1.
          2   -1    0    0  502    0  0.00000000000E+00 -0.00000000000E+00 -0.21992775430E+04  0.21992775430E+04  0.00000000000E+00 0.  1.
    9000010    2    1    2  502    0  0.24867444097E+03  0.74328191890E+02 -0.18369164279E+04  0.21119226673E+04  0.10092530564E+04 0.  0.
        -13    1    3    3    0    0 -0.22571695630E+03  0.39884605533E+03 -0.67879173827E+03  0.81901438042E+03  0.10566000000E+00 0.  1.
         13    1    1    2    0    0 -0.24631294811E+03 -0.60838193408E+02  0.29271987551E+03  0.38737099900E+03  0.10566000000E+00 0. -1.
          2    1    1    2  501    0 -0.23614928646E+01 -0.13489998482E+02 -0.17726831759E+03  0.17779654982E+03  0.00000000000E+00 0.  1.
          4    1    3    3  502    0  0.47439139727E+03 -0.32451786344E+03 -0.11581246896E+04  0.12929082869E+04  0.00000000000E+00 0.  1.
</event>
<event>
 7    1  0.4894942E-006  0.1000134E+04  0.7818608E-02  0.9664921E-01
          2   -1    0    0  502    0  0.00000000000E+00  0.00000000000E+00  0.16089628383E+04  0.16089628383E+04  0.00000000000E+00 0. -1.
          4   -1    0    0  501    0 -0.00000000000E+00 -0.00000000000E+00 -0.17659664686E+04  0.17659664686E+04  0.00000000000E+00 0.  1.
    9000010    2    1    2  502    0 -0.20740184351E+02  0.89304624441E+01 -0.16176734093E+04  0.19017417613E+04  0.99962220824E+03 0.  0.
        -13    1    3    3    0    0 -0.17122418412E+03 -0.13001869246E+03  0.50659896216E+02  0.22088236205E+03  0.10566000000E+00 0.  1.
         13    1    1    2    0    0  0.21282800765E+02 -0.29785922211E+02  0.48015808487E+02  0.60379531292E+02  0.10566000000E+00 0. -1.
          2    1    1    2  501    0 -0.54261641393E+00  0.20855459767E+02  0.14126539706E+04  0.14128080143E+04  0.00000000000E+00 0. -1.
          4    1    3    3  502    0  0.15048399977E+03  0.13894915490E+03 -0.16683333055E+04  0.16808593993E+04  0.00000000000E+00 0.  1.
</event>
<event>
 7    1  0.4894942E-006  0.1527068E+04  0.7818608E-02  0.8454363E-01
          2   -1    0    0  501    0  0.00000000000E+00  0.00000000000E+00  0.20371410163E+04  0.20371410163E+04  0.00000000000E+00 0.  1.
         -4   -1    0    0    0  501 -0.00000000000E+00 -0.00000000000E+00 -0.13496778275E+04  0.13496778275E+04  0.00000000000E+00 0. -1.
   -9000010    2    1    2    0  502 -0.52446501338E+03 -0.10899114483E+04 -0.34499700275E+03  0.16054293705E+04  0.99770236861E+03 0.  0.
        -13    1    1    2    0    0  0.44507011117E+03  0.99290139051E+03  0.43648572631E+03  0.11723738207E+04  0.10566000000E+00 0.  1.
         13    1    3    3    0    0  0.12646678475E+02 -0.17952662724E+03 -0.50523636198E+03  0.53633342335E+03  0.10566000000E+00 0. -1.
          2    1    1    2  502    0  0.79394902209E+02  0.97010057835E+02  0.59597446525E+03  0.60901565255E+03  0.00000000000E+00 0.  1.
         -4    1    3    3    0  502 -0.53711169185E+03 -0.91038482110E+03  0.16023935923E+03  0.10690959472E+04  0.00000000000E+00 0. -1.
</event>
<event>
 7    1  0.4894942E-006  0.1009965E+04  0.7818608E-02  0.9355499E-01
         -4   -1    0    0    0  501 -0.00000000000E+00  0.00000000000E+00  0.13804008677E+04  0.13804008677E+04  0.00000000000E+00 0. -1.
          1   -1    0    0  501    0  0.00000000000E+00 -0.00000000000E+00 -0.25260659945E+03  0.25260659945E+03  0.00000000000E+00 0. -1.
   -9000010    2    1    2    0  502  0.89162680461E+02 -0.98810892970E+02  0.10137237416E+04  0.14339721407E+04  0.10054485068E+04 0.  0.
        -13    1    1    2    0    0 -0.20410770318E+02  0.90747105592E+02  0.75446891668E+02  0.11976594401E+03  0.10566000000E+00 0.  1.
         13    1    3    3    0    0  0.14457374458E+03  0.20135890866E+03  0.10912411024E+04  0.11190416133E+04  0.10566000000E+00 0. -1.
          1    1    1    2  502    0 -0.68751910143E+02  0.80637873779E+01  0.38623635067E+02  0.79269382494E+02  0.00000000000E+00 0. -1.
         -4    1    3    3    0  502 -0.55411064124E+02 -0.30016980163E+03 -0.77517360799E+02  0.31493052736E+03  0.00000000000E+00 0. -1.
</event>
<event>
 7    1  0.4894942E-006  0.1078770E+04  0.7818608E-02  0.8923072E-01
          2   -1    0    0  502    0  0.00000000000E+00  0.00000000000E+00  0.18872288003E+04  0.18872288003E+04  0.00000000000E+00 0.  1.
          4   -1    0    0  501    0 -0.00000000000E+00 -0.00000000000E+00 -0.22808122675E+04  0.22808122675E+04  0.00000000000E+00 0.  1.
    9000010    2    1    2  502    0  0.18273709887E+03  0.39190337467E+03 -0.91726948233E+03  0.14174455878E+04  0.99034720610E+03 0.  0.
        -13    1    3    3    0    0  0.15057542969E+03 -0.32751368927E+03 -0.31084269290E+03  0.47598462956E+03  0.10566000000E+00 0.  1.
         13    1    1    2    0    0 -0.13127285185E+03 -0.40677964735E+03 -0.10719671703E+04  0.11540432697E+04  0.10566000000E+00 0. -1.
          2    1    1    2  501    0 -0.51464247015E+02  0.14876272682E+02  0.15956531854E+04  0.15965522104E+04  0.00000000000E+00 0.  1.
          4    1    3    3  502    0  0.32161669174E+02  0.71941706394E+03 -0.60642678944E+03  0.94146095819E+03  0.00000000000E+00 0.  1.
</event>
<event>
 7    1  0.4894942E-006  0.1012404E+04  0.7818608E-02  0.9135380E-01
          2   -1    0    0  501    0  0.00000000000E+00  0.00000000000E+00  0.16999725983E+04  0.16999725983E+04  0.00000000000E+00 0. -1.
         -4   -1    0    0    0  501 -0.00000000000E+00 -0.00000000000E+00 -0.31483442068E+03  0.31483442068E+03  0.00000000000E+00 0. -1.
   -9000010    2    1    2    0  502 -0.12653715409E+03 -0.23879714676E+02  0.91849722226E+03  0.13587447395E+04  0.99295932824E+03 0.  0.
        -13    1    1    2    0    0  0.22895362680E+02  0.21917219676E+03  0.13811587130E+03  0.26007047994E+03  0.10566000000E+00 0.  1.
         13    1    3    3    0    0  0.87338332052E+02 -0.31154696987E+03 -0.48751132651E+02  0.32720969237E+03  0.10566000000E+00 0. -1.
          2    1    1    2  502    0  0.10364179141E+03 -0.19529248208E+03  0.32852508404E+03  0.39599179957E+03  0.00000000000E+00 0. -1.
         -4    1    3    3    0  502 -0.21387548614E+03  0.28766725519E+03  0.96724835491E+03  0.10315350471E+04  0.00000000000E+00 0. -1.
</event>
<event>
 7    1  0.4894942E-006  0.1099607E+04  0.7818608E-02  0.8957153E-01
         -4   -1    0    0    0  501 -0.00000000000E+00  0.00000000000E+00  0.30730122351E+04  0.30730122351E+04  0.00000000000E+00 0. -1.
          2   -1    0    0  501    0  0.00000000000E+00 -0.00000000000E+00 -0.42186221719E+03  0.42186221719E+03  0.00000000000E+00 0.  1.
   -9000010    2    1    2    0  502  0.55981164603E+02 -0.34822537601E+03  0.24599950611E+04  0.26947681239E+04  0.10420195476E+04 0.  0.
        -13    1    1    2    0    0 -0.81428620101E+02  0.34114086263E+03  0.43277451701E+03  0.55704712733E+03  0.10566000000E+00 0.  1.
         13    1    3    3    0    0  0.35530180906E+03 -0.29240590843E+03  0.39202617375E+03  0.60450403049E+03  0.10566000000E+00 0. -1.
          2    1    1    2  502    0  0.25447455498E+02  0.70845133862E+01 -0.24161956023E+03  0.24305920104E+03  0.00000000000E+00 0.  1.
         -4    1    3    3    0  502 -0.29932064446E+03 -0.55819467580E+02  0.20679688874E+04  0.20902640934E+04  0.00000000000E+00 0. -1.
</event>
<event>
 7    1  0.4894942E-006  0.1041974E+04  0.7818608E-02  0.9030581E-01
          1   -1    0    0  501    0  0.00000000000E+00  0.00000000000E+00  0.27645474997E+04  0.27645474997E+04  0.00000000000E+00 0. -1.
         -4   -1    0    0    0  501 -0.00000000000E+00 -0.00000000000E+00 -0.13094076161E+04  0.13094076161E+04  0.00000000000E+00 0. -1.
   -9000010    2    1    2    0  502 -0.37304061024E+02 -0.28918697715E+03 -0.41001438944E+03  0.11157450538E+04  0.99586872874E+03 0.  0.
        -13    1    1    2    0    0  0.72354117486E+02  0.29995043523E+03 -0.50282455294E+03  0.58994739097E+03  0.10566000000E+00 0.  1.
         13    1    3    3    0    0 -0.31147840955E+03 -0.53970648692E+03 -0.98234209776E+02  0.63083425936E+03  0.10566000000E+00 0. -1.
          1    1    1    2  502    0 -0.35050056462E+02 -0.10763458076E+02  0.23679788260E+04  0.23682626710E+04  0.00000000000E+00 0. -1.
         -4    1    3    3    0  502  0.27417434853E+03  0.25051950977E+03 -0.31178017966E+03  0.48491079447E+03  0.00000000000E+00 0. -1.
</event>
<event>
 7    1  0.4894942E-006  0.1039208E+04  0.7818608E-02  0.8961024E-01
          2   -1    0    0  502    0  0.00000000000E+00  0.00000000000E+00  0.14537310910E+04  0.14537310910E+04  0.00000000000E+00 0. -1.
          4   -1    0    0  501    0 -0.00000000000E+00 -0.00000000000E+00 -0.14034439311E+04  0.14034439311E+04  0.00000000000E+00 0.  1.
    9000010    2    1    2  502    0 -0.20471709973E+02 -0.40971732961E+03 -0.70488855747E+03  0.12559472571E+04  0.95511687929E+03 0.  0.
        -13    1    3    3    0    0 -0.34562428255E+03  0.99360453240E+02 -0.46794919557E+02  0.36265468427E+03  0.10566000000E+00 0.  1.
         13    1    1    2    0    0  0.58376357664E+01  0.40928963657E+03 -0.32394477661E+03  0.52200796360E+03  0.10566000000E+00 0. -1.
          2    1    1    2  501    0  0.14634074206E+02  0.42769303611E+00  0.10791204940E+04  0.10792198013E+04  0.00000000000E+00 0. -1.
          4    1    3    3  502    0  0.32515257258E+03 -0.50907778285E+03 -0.65809363791E+03  0.89329257285E+03  0.00000000000E+00 0.  1.
</event>
<event>
 7    1  0.4894942E-006  0.1093699E+04  0.7818608E-02  0.8900324E-01
         -4   -1    0    0    0  501 -0.00000000000E+00  0.00000000000E+00  0.83909587708E+03  0.83909587708E+03  0.00000000000E+00 0. -1.
          1   -1    0    0  501    0  0.00000000000E+00 -0.00000000000E+00 -0.12732166803E+04  0.12732166803E+04  0.00000000000E+00 0.  1.
   -9000010    2    1    2    0  502  0.15807317394E+02 -0.43996669396E+03 -0.97170195462E+02  0.10936869900E+04  0.99643796701E+03 0.  0.
        -13    1    1    2    0    0 -0.14177300506E+03  0.43474072888E+03  0.17632629853E+03  0.49009189040E+03  0.10566000000E+00 0.  1.
         13    1    3    3    0    0 -0.36763135012E+03 -0.53680087205E+03 -0.20784855022E+03  0.68301465344E+03  0.10566000000E+00 0. -1.
          1    1    1    2  502    0  0.12596568767E+03  0.52259650745E+01 -0.51327690633E+03  0.52853367703E+03  0.00000000000E+00 0.  1.
         -4    1    3    3    0  502  0.38343866752E+03  0.96834178090E+02  0.11067835476E+03  0.41067233655E+03  0.00000000000E+00 0. -1.
</event>
<event>
 7    1  0.4894942E-006  0.1113871E+04  0.7818608E-02  0.8860369E-01
         -4   -1    0    0    0  501 -0.00000000000E+00  0.00000000000E+00  0.34009361368E+04  0.34009361368E+04  0.00000000000E+00 0. -1.
          2   -1    0    0  501    0  0.00000000000E+00 -0.00000000000E+00 -0.56665846095E+03  0.56665846095E+03  0.00000000000E+00 0. -1.
   -9000010    2    1    2    0  502 -0.48221137160E+03 -0.12020761873E+03  0.14243536929E+04  0.18062361251E+04  0.99334174323E+03 0.  0.
        -13    1    1    2    0    0  0.48880952578E+03  0.12795496561E+03  0.17498190765E+04  0.18213110765E+04  0.10566000000E+00 0.  1.
         13    1    3    3    0    0  0.28074001688E+03  0.99268019709E+02  0.54857000192E+03  0.62417798342E+03  0.10566000000E+00 0. -1.
          2    1    1    2  502    0 -0.65981541765E+01 -0.77473468764E+01 -0.33989509352E+03  0.34004739614E+03  0.00000000000E+00 0. -1.
         -4    1    3    3    0  502 -0.76295138848E+03 -0.21947563844E+03  0.87578369095E+03  0.11820581417E+04  0.00000000000E+00 0. -1.
</event>
<event>
 7    1  0.4894942E-006  0.1027202E+04  0.7818608E-02  0.9158616E-01
         -4   -1    0    0    0  501 -0.00000000000E+00  0.00000000000E+00  0.25981251505E+04  0.25981251505E+04  0.00000000000E+00 0. -1.
          2   -1    0    0  501    0  0.00000000000E+00 -0.00000000000E+00 -0.33916089881E+03  0.33916089881E+03  0.00000000000E+00 0.  1.
   -9000010    2    1    2    0  502  0.31430442870E+02  0.15393591935E+03  0.16957979516E+04  0.19795093649E+04  0.10089809181E+04 0.  0.
        -13    1    1    2    0    0 -0.60897546683E+02 -0.18616069718E+03  0.74523494664E+03  0.77054490669E+03  0.10566000000E+00 0.  1.
         13    1    3    3    0    0 -0.11378669957E+03 -0.26638562826E+03  0.75575260922E+02  0.29936657657E+03  0.10566000000E+00 0. -1.
          2    1    1    2  502    0  0.29467103813E+02  0.32224777833E+02 -0.18206864657E+03  0.18723177769E+03  0.00000000000E+00 0.  1.
         -4    1    3    3    0  502  0.14521714244E+03  0.42032154761E+03  0.16202226907E+04  0.16801427883E+04  0.00000000000E+00 0. -1.
</event>
<event>
 7    1  0.4894942E-006  0.1045266E+04  0.7818608E-02  0.9053305E-01
         -4   -1    0    0    0  501 -0.00000000000E+00  0.00000000000E+00  0.12990725654E+04  0.12990725654E+04  0.00000000000E+00 0. -1.
          1   -1    0    0  501    0  0.00000000000E+00 -0.00000000000E+00 -0.19044200587E+04  0.19044200587E+04  0.00000000000E+00 0.  1.
   -9000010    2    1    2    0  502 -0.19132362669E+02 -0.20345852378E+03 -0.10921514931E+04  0.15000983400E+04  0.10078386416E+04 0.  0.
        -13    1    1    2    0    0 -0.92291605314E+02  0.26271998357E+03  0.10705446862E+04  0.11061670157E+04  0.10566000000E+00 0.  1.
         13    1    3    3    0    0  0.41547701863E+03 -0.53223388840E+02 -0.13817049016E+03  0.44107253104E+03  0.10566000000E+00 0. -1.
          1    1    1    2  502    0  0.11142396798E+03 -0.59261459787E+02 -0.58374068641E+03  0.59722726849E+03  0.00000000000E+00 0.  1.
         -4    1    3    3    0  502 -0.43460938129E+03 -0.15023513494E+03 -0.95398100290E+03  0.10590258089E+04  0.00000000000E+00 0. -1.
</event>
<event>
 7    1  0.4894942E-006  0.1216377E+04  0.7818608E-02  0.8880605E-01
          2   -1    0    0  502    0  0.00000000000E+00  0.00000000000E+00  0.30675761164E+04  0.30675761164E+04  0.00000000000E+00 0.  1.
          4   -1    0    0  501    0 -0.00000000000E+00 -0.00000000000E+00 -0.32039911615E+04  0.32039911615E+04  0.00000000000E+00 0.  1.
    9000010    2    1    2  502    0  0.91952503147E+02  0.40792922359E+03 -0.16830755288E+04  0.20170504698E+04  0.10299941008E+04 0.  0.
        -13    1    3    3    0    0 -0.36021522278E+03  0.46107224723E+03 -0.58066265747E+03  0.82432503106E+03  0.10566000000E+00 0.  1.
         13    1    1    2    0    0 -0.28226598021E+03  0.21643327794E+03 -0.12928827276E+04  0.13409187917E+04  0.10566000000E+00 0. -1.
          2    1    1    2  501    0  0.19031347706E+03 -0.62436250153E+03  0.28395432113E+04  0.29135980164E+04  0.00000000000E+00 0.  1.
          4    1    3    3  502    0  0.45216772593E+03 -0.53143023638E+02 -0.11024128713E+04  0.11927254387E+04  0.00000000000E+00 0.  1.
</event>
<event>
 7    1  0.4894942E-006  0.1518207E+04  0.7818608E-02  0.8476951E-01
         -4   -1    0    0    0  501 -0.00000000000E+00  0.00000000000E+00  0.19724593493E+04  0.19724593493E+04  0.00000000000E+00 0. -1.
          2   -1    0    0  501    0  0.00000000000E+00 -0.00000000000E+00 -0.31422271392E+04  0.31422271392E+04  0.00000000000E+00 0.  1.
   -9000010    2    1    2    0  502  0.18754425728E+03  0.35297484920E+03  0.49944016012E+03  0.11610582818E+04  0.96894363485E+03 0.  0.
        -13    1    1    2    0    0 -0.39441149843E+03  0.98493781118E+03  0.66720546660E+03  0.12533260022E+04  0.10566000000E+00 0.  1.
         13    1    3    3    0    0  0.27745166256E+03  0.10416948520E+02 -0.22323916262E+03  0.35626348783E+03  0.10566000000E+00 0. -1.
          2    1    1    2  502    0  0.20686724114E+03 -0.13379126604E+04 -0.23364134167E+04  0.27003022045E+04  0.00000000000E+00 0.  1.
         -4    1    3    3    0  502 -0.89907405271E+02  0.34255790068E+03  0.72267932273E+03  0.80479479394E+03  0.00000000000E+00 0. -1.
</event>
<event>
 7    1  0.4894942E-006  0.1164245E+04  0.7818608E-02  0.8791584E-01
         -2   -1    0    0    0  501  0.00000000000E+00  0.00000000000E+00  0.10148142008E+04  0.10148142008E+04  0.00000000000E+00 0. -1.
         -4   -1    0    0    0  502 -0.00000000000E+00 -0.00000000000E+00 -0.11929727052E+04  0.11929727052E+04  0.00000000000E+00 0. -1.
   -9000010    2    1    2    0  501  0.49358806973E+03  0.32186276372E+03 -0.24095794359E+03  0.11887826248E+04  0.10039514815E+04 0.  0.
        -13    1    1    2    0    0 -0.49950789650E+03 -0.31335958550E+03 -0.29618549873E+03  0.65986985786E+03  0.10566000000E+00 0.  1.
         13    1    3    3    0    0  0.25285133770E+03 -0.21678241803E+03 -0.45263352683E+03  0.56196577878E+03  0.10566000000E+00 0. -1.
         -2    1    1    2    0  502  0.59198267749E+01 -0.85031782193E+01  0.35898493793E+03  0.35913442337E+03  0.00000000000E+00 0. -1.
         -4    1    3    3    0  501  0.24073673203E+03  0.53864518175E+03  0.21167558324E+03  0.62681684607E+03  0.00000000000E+00 0. -1.
</event>
<event>
 7    1  0.4894942E-006  0.1068811E+04  0.7818608E-02  0.8996713E-01
          4   -1    0    0  501    0 -0.00000000000E+00  0.00000000000E+00  0.18083032432E+04  0.18083032432E+04  0.00000000000E+00 0.  1.
          2   -1    0    0  502    0  0.00000000000E+00 -0.00000000000E+00 -0.77317690648E+03  0.77317690648E+03  0.00000000000E+00 0.  1.
    9000010    2    1    2  502    0 -0.16913880239E+03  0.15559815598E+03  0.38615603455E+03  0.11127850573E+04  0.10180154125E+04 0.  0.
        -13    1    3    3    0    0 -0.46561776458E+03 -0.40431171489E+02 -0.13089588754E+03  0.48535381616E+03  0.10566000000E+00 0.  1.
         13    1    1    2    0    0  0.33173487637E+03 -0.50495891759E+02  0.10071279842E+04  0.10615576531E+04  0.10566000000E+00 0. -1.
          2    1    1    2  501    0 -0.16259607399E+03 -0.10510226422E+03 -0.35815768201E+03  0.40713743920E+03  0.00000000000E+00 0.  1.
          4    1    3    3  502    0  0.29647896219E+03  0.19602932747E+03  0.51705192209E+03  0.62743124116E+03  0.00000000000E+00 0.  1.
</event>
<event>
 7    1  0.4894942E-006  0.1365860E+04  0.7818608E-02  0.8577363E-01
          4   -1    0    0  501    0  0.00000000000E+00  0.00000000000E+00  0.11391759032E+04  0.11391759032E+04  0.00000000000E+00 0. -1.
         -4   -1    0    0    0  501 -0.00000000000E+00 -0.00000000000E+00 -0.15257868676E+04  0.15257868676E+04  0.00000000000E+00 0. -1.
   -9000010    2    1    2    0  502 -0.36817011146E+03  0.84827806091E+03  0.17070435452E+03  0.13753098502E+04  0.10035996751E+04 0.  0.
        -13    1    1    2    0    0  0.37813074080E+03 -0.84638914863E+03 -0.69060308965E+03  0.11559801411E+04  0.10566000000E+00 0.  1.
         13    1    3    3    0    0  0.47880186031E+02  0.90837847736E+02  0.45431734748E+03  0.46577708207E+03  0.10566000000E+00 0. -1.
          4    1    1    2  502    0 -0.99606293430E+01 -0.18889122790E+01  0.13328777075E+03  0.13367277942E+03  0.00000000000E+00 0. -1.
         -4    1    3    3    0  502 -0.41605029749E+03  0.75744021317E+03 -0.28361299296E+03  0.90953276815E+03  0.00000000000E+00 0. -1.
</event>
<event>
 7    1  0.4894942E-006  0.1001706E+04  0.7818608E-02  0.9570349E-01
         -4   -1    0    0    0  501 -0.00000000000E+00  0.00000000000E+00  0.19664490718E+04  0.19664490718E+04  0.00000000000E+00 0. -1.
          2   -1    0    0  501    0  0.00000000000E+00 -0.00000000000E+00 -0.87856003886E+03  0.87856003886E+03  0.00000000000E+00 0. -1.
   -9000010    2    1    2    0  502  0.43120553009E+02 -0.20740263482E+02  0.18320679816E+04  0.20881081714E+04  0.10007162962E+04 0.  0.
        -13    1    1    2    0    0 -0.44382700178E+02 -0.80046481006E+00 -0.73427622941E+02  0.85802632791E+02  0.10566000000E+00 0.  1.
         13    1    3    3    0    0  0.40303223131E+03 -0.53942707307E+02  0.27802732765E+03  0.49258907949E+03  0.10566000000E+00 0. -1.
          2    1    1    2  502    0  0.12621471690E+01  0.21540728292E+02 -0.67075132573E+03  0.67109830648E+03  0.00000000000E+00 0. -1.
         -4    1    3    3    0  502 -0.35991167830E+03  0.33202443824E+02  0.15540406540E+04  0.15955190919E+04  0.00000000000E+00 0. -1.
</event>
<event>
 7    1  0.4894942E-006  0.1029488E+04  0.7818608E-02  0.9070716E-01
         -4   -1    0    0    0  501 -0.00000000000E+00  0.00000000000E+00  0.95830040932E+03  0.95830040932E+03  0.00000000000E+00 0. -1.
          2   -1    0    0  501    0  0.00000000000E+00 -0.00000000000E+00 -0.19575129203E+04  0.19575129203E+04  0.00000000000E+00 0.  1.
   -9000010    2    1    2    0  502 -0.15320328503E+03  0.21045619334E+03  0.47016670799E+03  0.11293377322E+04  0.99326931106E+03 0.  0.
        -13    1    1    2    0    0  0.17841620794E+03 -0.20876647297E+03  0.39446789431E+02  0.27743800002E+03  0.10566000000E+00 0.  1.
         13    1    3    3    0    0  0.26234533879E+03  0.10603164870E+03  0.61506457994E+03  0.67703193128E+03  0.10566000000E+00 0. -1.
          2    1    1    2  502    0 -0.25212922911E+02 -0.16897203723E+01 -0.15088260084E+04  0.15090375974E+04  0.00000000000E+00 0.  1.
         -4    1    3    3    0  502 -0.41554862383E+03  0.10442454464E+03 -0.14489787194E+03  0.45230580096E+03  0.00000000000E+00 0. -1.
</event>
<event>
 7    1  0.4894942E-006  0.1415867E+04  0.7818608E-02  0.8536742E-01
         -4   -1    0    0    0  501 -0.00000000000E+00  0.00000000000E+00  0.26850055816E+04  0.26850055816E+04  0.00000000000E+00 0. -1.
          2   -1    0    0  501    0  0.00000000000E+00 -0.00000000000E+00 -0.18667509281E+04  0.18667509281E+04  0.00000000000E+00 0. -1.
   -9000010    2    1    2    0  502  0.94600328460E+03 -0.24916947989E+03  0.15201945642E+04  0.20681732216E+04  0.10046598017E+04 0.  0.
        -13    1    1    2    0    0 -0.98669010914E+03  0.25172295176E+03  0.59939667330E+03  0.11816083103E+04  0.10566000000E+00 0.  1.
         13    1    3    3    0    0  0.58710415769E+03  0.12219114747E+03  0.17111496269E+03  0.62362032529E+03  0.10566000000E+00 0. -1.
          2    1    1    2  502    0  0.40686824540E+02 -0.25534718644E+01 -0.13013365840E+04  0.13019749778E+04  0.00000000000E+00 0. -1.
         -4    1    3    3    0  502  0.35889912691E+03 -0.37136062736E+03  0.13490796015E+04  0.14445528963E+04  0.00000000000E+00 0. -1.
</event>
<event>
 7    1  0.4894942E-006  0.1125347E+04  0.7818608E-02  0.8849563E-01
         -4   -1    0    0    0  501 -0.00000000000E+00  0.00000000000E+00  0.14785651332E+04  0.14785651332E+04  0.00000000000E+00 0. -1.
          2   -1    0    0  501    0  0.00000000000E+00 -0.00000000000E+00 -0.16685333053E+04  0.16685333053E+04  0.00000000000E+00 0. -1.
   -9000010    2    1    2    0  502 -0.29330527017E+02 -0.47717647059E+02  0.97923738626E+02  0.10088168787E+04  0.10024894925E+04 0.  0.
        -13    1    1    2    0    0  0.60798713328E+03  0.17912396052E+03  0.72585298085E+03  0.96363702110E+03  0.10566000000E+00 0.  1.
         13    1    3    3    0    0  0.42987566630E+03  0.29758553082E+01  0.27912688941E+03  0.51255611961E+03  0.10566000000E+00 0. -1.
          2    1    1    2  502    0 -0.57865660626E+03 -0.13140631346E+03 -0.10137448916E+04  0.11746445388E+04  0.00000000000E+00 0. -1.
         -4    1    3    3    0  502 -0.45920619332E+03 -0.50693502367E+02 -0.18120315078E+03  0.49626075910E+03  0.00000000000E+00 0. -1.
</event>
<event>
 7    1  0.4894942E-006  0.1346687E+04  0.7818608E-02  0.8601736E-01
          2   -1    0    0  502    0  0.00000000000E+00  0.00000000000E+00  0.46316722625E+03  0.46316722625E+03  0.00000000000E+00 0. -1.
          4   -1    0    0  501    0 -0.00000000000E+00 -0.00000000000E+00 -0.29162470617E+04  0.29162470617E+04  0.00000000000E+00 0.  1.
    9000010    2    1    2  502    0 -0.13562531502E+03  0.85888963392E+03 -0.14721702483E+04  0.19961445783E+04  0.10301564484E+04 0.  0.
        -13    1    3    3    0    0  0.35932972328E+03  0.60457444282E+03 -0.45782245978E+03  0.83918384326E+03  0.10566000000E+00 0.  1.
         13    1    1    2    0    0  0.18018501457E+03 -0.84757757014E+03 -0.10085148389E+04  0.13296452791E+04  0.10566000000E+00 0. -1.
          2    1    1    2  501    0 -0.44559699546E+02 -0.11312063778E+02  0.27605251844E+02  0.53624430439E+02  0.00000000000E+00 0. -1.
          4    1    3    3  502    0 -0.49495503830E+03  0.25431519110E+03 -0.10143477886E+04  0.11569607351E+04  0.00000000000E+00 0.  1.
</event>
<event>
 7    1  0.4894942E-006  0.1028972E+04  0.7818608E-02  0.9033945E-01
         -2   -1    0    0    0  501  0.00000000000E+00  0.00000000000E+00  0.33784170667E+04  0.33784170667E+04  0.00000000000E+00 0. -1.
         -4   -1    0    0    0  502 -0.00000000000E+00 -0.00000000000E+00 -0.29806135190E+03  0.29806135190E+03  0.00000000000E+00 0. -1.
   -9000010    2    1    2    0  501 -0.15136406903E+03  0.26259334954E+03  0.12114718562E+04  0.15873586245E+04  0.97988621575E+03 0.  0.
        -13    1    1    2    0    0  0.12380057825E+03 -0.29084665962E+03  0.11740730491E+03  0.33719853054E+03  0.10566000000E+00 0.  1.
         13    1    3    3    0    0 -0.10273335240E+03  0.55435196225E+03  0.32038792502E+03  0.64846640114E+03  0.10566000000E+00 0. -1.
         -2    1    1    2    0  502  0.27563490787E+02  0.28253310082E+02  0.17514765536E+04  0.17519212635E+04  0.00000000000E+00 0. -1.
         -4    1    3    3    0  501 -0.48630716638E+02 -0.29175861271E+03  0.89108393120E+03  0.93889222339E+03  0.00000000000E+00 0. -1.
</event>
<event>
 7    1  0.4894942E-006  0.9372514E+03  0.7818608E-02  0.9289658E-01
          2   -1    0    0  502    0  0.00000000000E+00  0.00000000000E+00  0.69609412913E+03  0.69609412913E+03  0.00000000000E+00 0. -1.
          4   -1    0    0  501    0 -0.00000000000E+00 -0.00000000000E+00 -0.10890833008E+04  0.10890833008E+04  0.00000000000E+00 0.  1.
    9000010    2    1    2  502    0 -0.97992292325E+02 -0.11502085816E+03 -0.72348652215E+03  0.11837602524E+04  0.92467469969E+03 0.  0.
        -13    1    3    3    0    0  0.10776371179E+02 -0.51600342453E+03 -0.33757883760E+03  0.61671318055E+03  0.10566000000E+00 0.  1.
         13    1    1    2    0    0  0.83208797359E+02  0.12911451189E+03 -0.91588682490E+02  0.17883724182E+03  0.10566000000E+00 0. -1.
          2    1    1    2  501    0  0.14783494966E+02 -0.14093653730E+02  0.42208603300E+03  0.42257993569E+03  0.00000000000E+00 0. -1.
          4    1    3    3  502    0 -0.10876866350E+03  0.40098256637E+03 -0.38590768456E+03  0.56704707185E+03  0.00000000000E+00 0.  1.
</event>
<event>
 7    1  0.4894942E-006  0.1068569E+04  0.7818608E-02  0.9009089E-01
         -4   -1    0    0    0  501 -0.00000000000E+00  0.00000000000E+00  0.33596022855E+04  0.33596022855E+04  0.00000000000E+00 0. -1.
          2   -1    0    0  501    0  0.00000000000E+00 -0.00000000000E+00 -0.77309601552E+03  0.77309601552E+03  0.00000000000E+00 0.  1.
   -9000010    2    1    2    0  502  0.22811207464E+03 -0.51073424060E+03  0.29353259091E+04  0.31462463437E+04  0.98480621415E+03 0.  0.
        -13    1    1    2    0    0  0.11888854659E+03  0.28618503253E+03  0.14529019548E+03  0.34226541078E+03  0.10566000000E+00 0.  1.
         13    1    3    3    0    0  0.47716844245E+03  0.73689679105E+02  0.10242378103E+04  0.11323351952E+04  0.10566000000E+00 0. -1.
          2    1    1    2  502    0 -0.34700062122E+03  0.22454920807E+03 -0.49410983466E+03  0.64418654649E+03  0.00000000000E+00 0.  1.
         -4    1    3    3    0  502 -0.24905636781E+03 -0.58442391971E+03  0.19110880989E+04  0.20139111485E+04  0.00000000000E+00 0. -1.
</event>
<event>
 7    1  0.4894942E-006  0.9994135E+03  0.7818608E-02  0.8887646E-01
          2   -1    0    0  501    0  0.00000000000E+00  0.00000000000E+00  0.17385320080E+04  0.17385320080E+04  0.00000000000E+00 0.  1.
         -4   -1    0    0    0  501 -0.00000000000E+00 -0.00000000000E+00 -0.19023553225E+04  0.19023553225E+04  0.00000000000E+00 0. -1.
   -9000010    2    1    2    0  502  0.23521239437E+03 -0.60474513742E+03 -0.14601825816E+04  0.17788021647E+04  0.78164084965E+03 0.  0.
        -13    1    1    2    0    0 -0.16442345473E+03  0.55185100445E+03  0.13292100810E+02  0.57597855401E+03  0.10566000000E+00 0.  1.
         13    1    3    3    0    0  0.36973490789E+03 -0.67836293960E+03 -0.14257766686E+04  0.16216409281E+04  0.10566000000E+00 0. -1.
          2    1    1    2  502    0 -0.70788939641E+02  0.52894132969E+02  0.12830671664E+04  0.12861066117E+04  0.00000000000E+00 0.  1.
         -4    1    3    3    0  502 -0.13452251352E+03  0.73617802188E+02 -0.34405913081E+02  0.15716123663E+03  0.00000000000E+00 0. -1.
</event>
<event>
 7    1  0.4894942E-006  0.1177707E+04  0.7818608E-02  0.8769692E-01
         -4   -1    0    0    0  501 -0.00000000000E+00  0.00000000000E+00  0.10373380100E+04  0.10373380100E+04  0.00000000000E+00 0. -1.
          4   -1    0    0  501    0  0.00000000000E+00 -0.00000000000E+00 -0.16566876239E+04  0.16566876239E+04  0.00000000000E+00 0. -1.
   -9000010    2    1    2    0  502  0.47012149394E+03 -0.43525049731E+03 -0.23101584620E+03  0.12083305032E+04  0.99811676131E+03 0.  0.
        -13    1    1    2    0    0 -0.48350034067E+03  0.39062107910E+03  0.37169884862E+03  0.72423577107E+03  0.10566000000E+00 0.  1.
         13    1    3    3    0    0 -0.11888537369E+03 -0.11832299203E+03 -0.46923762727E+03  0.49831518593E+03  0.10566000000E+00 0. -1.
          4    1    1    2  502    0  0.13378846738E+02  0.44629418211E+02 -0.76003261629E+03  0.76145935961E+03  0.00000000000E+00 0. -1.
         -4    1    3    3    0  502  0.58900686763E+03 -0.31692750527E+03  0.23822178107E+03  0.71001531722E+03  0.00000000000E+00 0. -1.
</event>
<event>
 7    1  0.4894942E-006  0.1046843E+04  0.7818608E-02  0.9230099E-01
          2   -1    0    0  502    0  0.00000000000E+00  0.00000000000E+00  0.35569962000E+03  0.35569962000E+03  0.00000000000E+00 0.  1.
          4   -1    0    0  501    0 -0.00000000000E+00 -0.00000000000E+00 -0.18461230442E+04  0.18461230442E+04  0.00000000000E+00 0.  1.
    9000010    2    1    2  502    0 -0.33856963341E+03 -0.68193802363E+02 -0.10042918605E+04  0.14552998250E+04  0.99499530061E+03 0.  0.
        -13    1    3    3    0    0  0.21081794479E+03  0.22186525578E+03 -0.69903628453E+03  0.76309903409E+03  0.10566000000E+00 0.  1.
         13    1    1    2    0    0  0.19686720279E+02  0.13649713781E+03 -0.37891943410E+03  0.40323564363E+03  0.10566000000E+00 0. -1.
          2    1    1    2  501    0  0.31888291313E+03 -0.68303335447E+02 -0.10721212961E+03  0.34328719559E+03  0.00000000000E+00 0.  1.
          4    1    3    3  502    0 -0.54938757820E+03 -0.29005905814E+03 -0.30525557599E+03  0.69220079093E+03  0.00000000000E+00 0.  1.
</event>
<event>
 7    1  0.4894942E-006  0.1075307E+04  0.7818608E-02  0.8973553E-01
         -4   -1    0    0    0  502 -0.00000000000E+00  0.00000000000E+00  0.18038868148E+04  0.18038868148E+04  0.00000000000E+00 0. -1.
         -2   -1    0    0    0  501  0.00000000000E+00 -0.00000000000E+00 -0.68035573335E+03  0.68035573335E+03  0.00000000000E+00 0.  1.
   -9000010    2    1    2    0  501  0.61197547845E+02  0.40948601689E+03  0.12976517398E+04  0.16994826314E+04  0.10163253607E+04 0.  0.
        -13    1    1    2    0    0  0.89430124114E+02 -0.31975291412E+03  0.18862595996E+03  0.38186311306E+03  0.10566000000E+00 0.  1.
         13    1    3    3    0    0  0.41323177823E+03  0.41328085926E+02  0.14600110110E+03  0.44021000206E+03  0.10566000000E+00 0. -1.
         -2    1    1    2    0  502 -0.15062767196E+03 -0.89733102778E+02 -0.36274661831E+03  0.40289680365E+03  0.00000000000E+00 0.  1.
         -4    1    3    3    0  501 -0.35203423039E+03  0.36815793097E+03  0.11516506387E+04  0.12592726294E+04  0.00000000000E+00 0. -1.
</event>
<event>
 7    1  0.4894942E-006  0.1003437E+04  0.7818608E-02  0.9378322E-01
          2   -1    0    0  501    0  0.00000000000E+00  0.00000000000E+00  0.10761635490E+04  0.10761635490E+04  0.00000000000E+00 0.  1.
         -4   -1    0    0    0  501 -0.00000000000E+00 -0.00000000000E+00 -0.47891323537E+03  0.47891323537E+03  0.00000000000E+00 0. -1.
   -9000010    2    1    2    0  502 -0.29088801667E+02  0.13124383727E+03  0.27214615082E+03  0.10436330760E+04  0.99851658306E+03 0.  0.
        -13    1    1    2    0    0 -0.51326930855E+02 -0.73116203176E+02 -0.63996395990E+02  0.10989077696E+03  0.10566000000E+00 0.  1.
         13    1    3    3    0    0 -0.44143661115E+03 -0.54153318744E+02 -0.10257379208E+03  0.45642114059E+03  0.10566000000E+00 0. -1.
          2    1    1    2  502    0  0.80415732521E+02 -0.58127634097E+02  0.38910055878E+03  0.40155293141E+03  0.00000000000E+00 0.  1.
         -4    1    3    3    0  502  0.41234780948E+03  0.18539715602E+03  0.37471994290E+03  0.58721193538E+03  0.00000000000E+00 0. -1.
</event>
<event>
 7    1  0.4894942E-006  0.1307905E+04  0.7818608E-02  0.8945616E-01
          4   -1    0    0  501    0 -0.00000000000E+00  0.00000000000E+00  0.74864622534E+03  0.74864622534E+03  0.00000000000E+00 0.  1.
          2   -1    0    0  502    0  0.00000000000E+00 -0.00000000000E+00 -0.28373667067E+04  0.28373667067E+04  0.00000000000E+00 0.  1.
    9000010    2    1    2  502    0 -0.93054316114E+03  0.21291514573E+03 -0.16843358959E+03  0.14004268974E+04  0.10107334896E+04 0.  0.
        -13    1    3    3    0    0 -0.52649592384E+03  0.33195813390E+03  0.36437892838E+03  0.72122546759E+03  0.10566000000E+00 0.  1.
         13    1    1    2    0    0  0.18638631707E+03  0.11457552847E+03 -0.28457621908E+03  0.35895827968E+03  0.10566000000E+00 0. -1.
          2    1    1    2  501    0  0.74415684407E+03 -0.32749067420E+03 -0.16357106726E+04  0.18266277549E+04  0.00000000000E+00 0.  1.
          4    1    3    3  502    0 -0.40404723730E+03 -0.11904298817E+03 -0.53281251797E+03  0.67920142985E+03  0.00000000000E+00 0.  1.
</event>
<event>
 7    1  0.4894942E-006  0.1175578E+04  0.7818608E-02  0.9066739E-01
          2   -1    0    0  502    0  0.00000000000E+00  0.00000000000E+00  0.15105478793E+04  0.15105478793E+04  0.00000000000E+00 0. -1.
          4   -1    0    0  501    0 -0.00000000000E+00 -0.00000000000E+00 -0.19201570353E+04  0.19201570353E+04  0.00000000000E+00 0.  1.
    9000010    2    1    2  502    0  0.11968115788E+03 -0.45276880321E+03 -0.13112978938E+04  0.17182058422E+04  0.10066806750E+04 0.  0.
        -13    1    3    3    0    0  0.24151147585E+03  0.24688453687E+02 -0.11848763298E+04  0.12094913148E+04  0.10566000000E+00 0.  1.
         13    1    1    2    0    0  0.15833926737E+03 -0.95062524053E+02 -0.30606989936E+03  0.35747307804E+03  0.10566000000E+00 0. -1.
          2    1    1    2  501    0 -0.27802042525E+03  0.54783132726E+03  0.12077586370E+04  0.13550259943E+04  0.00000000000E+00 0. -1.
          4    1    3    3  502    0 -0.12183031796E+03 -0.47745725689E+03 -0.12642156400E+03  0.50871452739E+03  0.00000000000E+00 0.  1.
</event>
<event>
 7    1  0.4894942E-006  0.1143185E+04  0.7818608E-02  0.8820490E-01
         -4   -1    0    0    0  501 -0.00000000000E+00  0.00000000000E+00  0.18147713891E+04  0.18147713891E+04  0.00000000000E+00 0. -1.
          2   -1    0    0  501    0  0.00000000000E+00 -0.00000000000E+00 -0.93430628211E+03  0.93430628211E+03  0.00000000000E+00 0.  1.
   -9000010    2    1    2    0  502 -0.35222494358E+03 -0.43076836499E+03  0.10502015833E+04  0.15542609480E+04  0.10015887048E+04 0.  0.
        -13    1    1    2    0    0  0.33476896149E+03  0.43392249095E+03  0.36584618820E+03  0.65894038449E+03  0.10566000000E+00 0.  1.
         13    1    3    3    0    0 -0.49633050564E+02 -0.72318285229E+03  0.65465970031E+03  0.97674777293E+03  0.10566000000E+00 0. -1.
          2    1    1    2  502    0  0.17455982091E+02 -0.31541259616E+01 -0.53558266458E+03  0.53587633874E+03  0.00000000000E+00 0.  1.
         -4    1    3    3    0  502 -0.30259189302E+03  0.29241448730E+03  0.39554188304E+03  0.57751317503E+03  0.00000000000E+00 0. -1.
</event>
<event>
 7    1  0.4894942E-006  0.1132640E+04  0.7818608E-02  0.9209454E-01
          2   -1    0    0  502    0  0.00000000000E+00  0.00000000000E+00  0.67931509045E+03  0.67931509045E+03  0.00000000000E+00 0.  1.
          4   -1    0    0  501    0 -0.00000000000E+00 -0.00000000000E+00 -0.13612415791E+04  0.13612415791E+04  0.00000000000E+00 0.  1.
    9000010    2    1    2  502    0 -0.12526817408E+03  0.40774754921E+03 -0.40411890253E+03  0.12214484053E+04  0.10708286231E+04 0.  0.
        -13    1    3    3    0    0  0.19977789149E+03  0.77772178698E+02  0.30599885392E+03  0.37362417946E+03  0.10566000000E+00 0.  1.
         13    1    1    2    0    0 -0.63865531799E+02 -0.99115266536E+02 -0.41544202940E+03  0.43185035970E+03  0.10566000000E+00 0. -1.
          2    1    1    2  501    0  0.18913370588E+03 -0.30863228268E+03  0.13763444333E+03  0.38725790450E+03  0.00000000000E+00 0.  1.
          4    1    3    3  502    0 -0.32504606558E+03  0.32997537052E+03 -0.71011775645E+03  0.84782422584E+03  0.00000000000E+00 0.  1.
</event>
<event>
 7    1  0.4894942E-006  0.1137988E+04  0.7818608E-02  0.8838051E-01
          4   -1    0    0  501    0 -0.00000000000E+00  0.00000000000E+00  0.13441422444E+04  0.13441422444E+04  0.00000000000E+00 0.  1.
          2   -1    0    0  502    0  0.00000000000E+00 -0.00000000000E+00 -0.25780376230E+04  0.25780376230E+04  0.00000000000E+00 0. -1.
    9000010    2    1    2  502    0  0.40671184235E+03  0.35174405747E+03  0.38956741664E+02  0.11473563997E+04  0.10128033746E+04 0.  0.
        -13    1    3    3    0    0  0.66684123993E+03  0.88416270613E+02  0.25428260476E+03  0.71913443140E+03  0.10566000000E+00 0.  1.
         13    1    1    2    0    0 -0.41029794136E+03 -0.31293646245E+03  0.66212490045E+03  0.83945400421E+03  0.10566000000E+00 0. -1.
          2    1    1    2  501    0  0.35860990129E+01 -0.38807595016E+02 -0.19349770207E+04  0.19353694634E+04  0.00000000000E+00 0. -1.
          4    1    3    3  502    0 -0.26012939758E+03  0.26332778685E+03 -0.21532586309E+03  0.42822196830E+03  0.00000000000E+00 0.  1.
</event>
<event>
 7    1  0.4894942E-006  0.1006086E+04  0.7818608E-02  0.9274388E-01
         -4   -1    0    0    0  501 -0.00000000000E+00  0.00000000000E+00  0.44728742113E+03  0.44728742113E+03  0.00000000000E+00 0. -1.
          2   -1    0    0  501    0  0.00000000000E+00 -0.00000000000E+00 -0.22525596240E+04  0.22525596240E+04  0.00000000000E+00 0. -1.
   -9000010    2    1    2    0  502 -0.57173325648E+02  0.13883157292E+03 -0.44980254555E+03  0.10947754353E+04  0.98674613194E+03 0.  0.
        -13    1    1    2    0    0 -0.12059403802E+03 -0.51468988105E+02  0.81586462714E+02  0.15442908017E+03  0.10566000000E+00 0.  1.
         13    1    3    3    0    0 -0.79160932197E+02  0.23568393731E+03  0.27064877509E+03  0.36751073742E+03  0.10566000000E+00 0. -1.
          2    1    1    2  502    0  0.17776736366E+03 -0.87362584811E+02 -0.14370561200E+04  0.14506425297E+04  0.00000000000E+00 0. -1.
         -4    1    3    3    0  502  0.21987606549E+02 -0.96852364396E+02 -0.72045132065E+03  0.72726469786E+03  0.00000000000E+00 0. -1.
</event>
<event>
 7    1  0.4894942E-006  0.1083798E+04  0.7818608E-02  0.8922478E-01
         -4   -1    0    0    0  501 -0.00000000000E+00  0.00000000000E+00  0.12294816296E+04  0.12294816296E+04  0.00000000000E+00 0. -1.
          2   -1    0    0  501    0  0.00000000000E+00 -0.00000000000E+00 -0.15363508469E+04  0.15363508469E+04  0.00000000000E+00 0. -1.
   -9000010    2    1    2    0  502  0.41469662880E+03 -0.59823790462E+02  0.80265898210E+03  0.13474546263E+04  0.99790798603E+03 0.  0.
        -13    1    1    2    0    0 -0.42558706227E+03  0.38648348404E+02 -0.14164453017E+03  0.45020131774E+03  0.10566000000E+00 0.  1.
         13    1    3    3    0    0 -0.16806035866E+03 -0.37580248267E+03  0.38696977070E+03  0.56499327848E+03  0.10566000000E+00 0. -1.
          2    1    1    2  502    0  0.10890433464E+02  0.21175442058E+02 -0.96788366921E+03  0.96817653246E+03  0.00000000000E+00 0. -1.
         -4    1    3    3    0  502  0.58275698747E+03  0.31597869221E+03  0.41568921140E+03  0.78246134783E+03  0.00000000000E+00 0. -1.
</event>
<event>
 7    1  0.4894942E-006  0.1733888E+04  0.7818608E-02  0.8328962E-01
          2   -1    0    0  501    0  0.00000000000E+00  0.00000000000E+00  0.12912750443E+04  0.12912750443E+04  0.00000000000E+00 0.  1.
         -4   -1    0    0    0  501 -0.00000000000E+00 -0.00000000000E+00 -0.26428624758E+04  0.26428624758E+04  0.00000000000E+00 0. -1.
   -9000010    2    1    2    0  502 -0.14899398241E+04 -0.14019565868E+03 -0.11568425410E+04  0.21400613779E+04  0.10010007663E+04 0.  0.
        -13    1    1    2    0    0  0.13205050485E+04 -0.25986420042E+03 -0.10099615134E+03  0.13496159526E+04  0.10566000000E+00 0.  1.
         13    1    3    3    0    0 -0.11301266372E+04  0.27988836451E+03 -0.46353793725E+03  0.12531524820E+04  0.10566000000E+00 0. -1.
          2    1    1    2  502    0  0.16943477563E+03  0.40005985911E+03 -0.93748739215E+02  0.44446018963E+03  0.00000000000E+00 0.  1.
         -4    1    3    3    0  502 -0.35981318693E+03 -0.42008402319E+03 -0.69330460373E+03  0.88690889588E+03  0.00000000000E+00 0. -1.
</event>
<event>
 7    1  0.4894942E-006  0.1019585E+04  0.7818608E-02  0.9195542E-01
          2   -1    0    0  501    0  0.00000000000E+00  0.00000000000E+00  0.35218962809E+03  0.35218962809E+03  0.00000000000E+00 0. -1.
         -4   -1    0    0    0  501 -0.00000000000E+00 -0.00000000000E+00 -0.31063083388E+04  0.31063083388E+04  0.00000000000E+00 0. -1.
   -9000010    2    1    2    0  502  0.15814553436E+03 -0.92103504740E+02 -0.24777397292E+04  0.26801380178E+04  0.10052126954E+04 0.  0.
        -13    1    1    2    0    0 -0.94676574169E+02  0.14257795438E+03 -0.50635930637E+03  0.53450152954E+03  0.10566000000E+00 0.  1.
         13    1    3    3    0    0  0.34129736001E+02  0.35401820440E+03 -0.33723659922E+03  0.49012474223E+03  0.10566000000E+00 0. -1.
          2    1    1    2  502    0 -0.63468960194E+02 -0.50474449637E+02  0.22998032486E+03  0.24385841957E+03  0.00000000000E+00 0. -1.
         -4    1    3    3    0  502  0.12401579836E+03 -0.44612170914E+03 -0.21405031300E+04  0.21900132755E+04  0.00000000000E+00 0. -1.
</event>
<event>
 7    1  0.4894942E-006  0.1007644E+04  0.7818608E-02  0.9337437E-01
         -4   -1    0    0    0  501 -0.00000000000E+00  0.00000000000E+00  0.24640831642E+04  0.24640831642E+04  0.00000000000E+00 0. -1.
          1   -1    0    0  501    0  0.00000000000E+00 -0.00000000000E+00 -0.20802369705E+04  0.20802369705E+04  0.00000000000E+00 0. -1.
   -9000010    2    1    2    0  502 -0.20387191973E+02  0.70335043866E+01  0.17511148358E+04  0.20168111682E+04  0.10003294517E+04 0.  0.
        -13    1    1    2    0    0 -0.61933020206E+02  0.82053290629E+02  0.57365756269E+03  0.58279623531E+03  0.10566000000E+00 0.  1.
         13    1    3    3    0    0 -0.47302684123E+03 -0.93273406114E+02  0.56176369892E+03  0.74029236481E+03  0.10566000000E+00 0. -1.
          1    1    1    2  502    0  0.82320212179E+02 -0.89086795015E+02 -0.19409262048E+04  0.19447127312E+04  0.00000000000E+00 0. -1.
         -4    1    3    3    0  502  0.45263964926E+03  0.10030691050E+03  0.11893511369E+04  0.12765188033E+04  0.00000000000E+00 0. -1.
</event>
<event>
 7    1  0.4894942E-006  0.1102242E+04  0.7818608E-02  0.8881662E-01
          2   -1    0    0  502    0  0.00000000000E+00  0.00000000000E+00  0.35777366022E+04  0.35777366022E+04  0.00000000000E+00 0. -1.
          4   -1    0    0  501    0 -0.00000000000E+00 -0.00000000000E+00 -0.76698694076E+03  0.76698694076E+03  0.00000000000E+00 0.  1.
    9000010    2    1    2  502    0  0.16389991876E+03  0.33924681054E+03  0.34666373694E+02  0.10637602103E+04  0.99419939943E+03 0.  0.
        -13    1    3    3    0    0 -0.31519320766E+03 -0.17252825447E+03 -0.25023972316E+02  0.36019295815E+03  0.10566000000E+00 0.  1.
         13    1    1    2    0    0 -0.33184734012E+03 -0.41385698763E+03  0.32750291240E+02  0.53148175519E+03  0.10566000000E+00 0. -1.
          2    1    1    2  501    0  0.16794742136E+03  0.74610177095E+02  0.27433329965E+04  0.27494815774E+04  0.00000000000E+00 0. -1.
          4    1    3    3  502    0  0.47909312642E+03  0.51177506501E+03  0.59690346010E+02  0.70356725219E+03  0.00000000000E+00 0.  1.
</event>
<event>
 7    1  0.4894942E-006  0.1084936E+04  0.7818608E-02  0.8916261E-01
          2   -1    0    0  501    0  0.00000000000E+00  0.00000000000E+00  0.21187832540E+04  0.21187832540E+04  0.00000000000E+00 0. -1.
         -4   -1    0    0    0  501 -0.00000000000E+00 -0.00000000000E+00 -0.36164484711E+03  0.36164484711E+03  0.00000000000E+00 0. -1.
   -9000010    2    1    2    0  502  0.22088451751E+03  0.34357011748E+03  0.10451828671E+04  0.14997690448E+04  0.99502239494E+03 0.  0.
        -13    1    1    2    0    0 -0.12352773580E+03 -0.42644352954E+03  0.26784529682E+03  0.51851161954E+03  0.10566000000E+00 0.  1.
         13    1    3    3    0    0  0.19432720184E+03 -0.14448014177E+02 -0.15376627389E+03  0.24822547137E+03  0.10566000000E+00 0. -1.
          2    1    1    2  502    0 -0.97356781710E+02  0.82873412065E+02  0.44411024301E+03  0.46214743678E+03  0.00000000000E+00 0. -1.
         -4    1    3    3    0  502  0.26557315671E+02  0.35801813165E+03  0.11989491409E+04  0.12515435734E+04  0.00000000000E+00 0. -1.
</event>
<event>
 7    1  0.4894942E-006  0.1016527E+04  0.7818608E-02  0.9127676E-01
          4   -1    0    0  501    0  0.00000000000E+00  0.00000000000E+00  0.92857381787E+03  0.92857381787E+03  0.00000000000E+00 0. -1.
         -4   -1    0    0    0  501 -0.00000000000E+00 -0.00000000000E+00 -0.22996978377E+04  0.22996978377E+04  0.00000000000E+00 0. -1.
   -9000010    2    1    2    0  502  0.56718231319E+02 -0.31856815515E+03 -0.10576620048E+04  0.14853716109E+04  0.99145210612E+03 0.  0.
        -13    1    1    2    0    0 -0.12763114488E+03  0.17976197855E+03 -0.10076203816E+04  0.10314566993E+04  0.10566000000E+00 0.  1.
         13    1    3    3    0    0 -0.38057626215E+03  0.14019625766E+03 -0.47324797898E+03  0.62326314086E+03  0.10566000000E+00 0. -1.
          4    1    1    2  502    0  0.70912913559E+02  0.13880617659E+03  0.69415836650E+03  0.71144334542E+03  0.00000000000E+00 0. -1.
         -4    1    3    3    0  502  0.43729449347E+03 -0.45876441281E+03 -0.58441402581E+03  0.86210847000E+03  0.00000000000E+00 0. -1.
</event>
<event>
 7    1  0.4894942E-006  0.1071388E+04  0.7818608E-02  0.8943929E-01
          4   -1    0    0  501    0 -0.00000000000E+00  0.00000000000E+00  0.17690087542E+04  0.17690087542E+04  0.00000000000E+00 0.  1.
          2   -1    0    0  502    0  0.00000000000E+00 -0.00000000000E+00 -0.15395077383E+04  0.15395077383E+04  0.00000000000E+00 0. -1.
    9000010    2    1    2  502    0 -0.19088045832E+03 -0.83182779707E+02  0.72187304472E+03  0.11748028617E+04  0.90316462895E+03 0.  0.
        -13    1    3    3    0    0  0.35802730724E+03 -0.45070061234E+02  0.18281437528E+03  0.40451943108E+03  0.10566000000E+00 0.  1.
         13    1    1    2    0    0 -0.39560060980E+03 -0.64248562657E+02  0.69439499922E+03  0.80175566502E+03  0.10566000000E+00 0. -1.
          2    1    1    2  501    0  0.58648106812E+03  0.14743134236E+03 -0.11867670280E+04  0.13319579658E+04  0.00000000000E+00 0. -1.
          4    1    3    3  502    0 -0.54890776557E+03 -0.38112718473E+02  0.53905866944E+03  0.77028343063E+03  0.00000000000E+00 0.  1.
</event>
<event>
 7    1  0.4894942E-006  0.9879651E+03  0.7818608E-02  0.9288365E-01
          2   -1    0    0  502    0  0.00000000000E+00  0.00000000000E+00  0.44699098188E+03  0.44699098188E+03  0.00000000000E+00 0.  1.
          4   -1    0    0  501    0 -0.00000000000E+00 -0.00000000000E+00 -0.80814464849E+03  0.80814464849E+03  0.00000000000E+00 0.  1.
    9000010    2    1    2  502    0  0.12262128443E+03 -0.32577009969E+02 -0.30057888186E+03  0.10321249919E+04  0.97920227416E+03 0.  0.
        -13    1    3    3    0    0  0.17473635877E+02  0.71947824860E+02  0.35364471130E+03  0.36131206795E+03  0.10566000000E+00 0.  1.
         13    1    1    2    0    0 -0.13127706824E+03  0.11881167629E+02 -0.10809071767E+03  0.17046537831E+03  0.10566000000E+00 0. -1.
          2    1    1    2  501    0  0.86557838129E+01  0.20695842340E+02  0.47515932925E+02  0.52545260160E+02  0.00000000000E+00 0.  1.
          4    1    3    3  502    0  0.10514764855E+03 -0.10452483483E+03 -0.65422359316E+03  0.67081292395E+03  0.00000000000E+00 0.  1.
</event>
<event>
 7    1  0.4894942E-006  0.1244889E+04  0.7818608E-02  0.8668129E-01
         -4   -1    0    0    0  501 -0.00000000000E+00  0.00000000000E+00  0.12152333677E+04  0.12152333677E+04  0.00000000000E+00 0. -1.
          1   -1    0    0  501    0  0.00000000000E+00 -0.00000000000E+00 -0.12265148090E+04  0.12265148090E+04  0.00000000000E+00 0. -1.
   -9000010    2    1    2    0  502  0.41367764169E+03  0.69649254695E+03 -0.15379684752E+03  0.12478722513E+04  0.93664327584E+03 0.  0.
        -13    1    1    2    0    0 -0.40852651120E+03 -0.71521307794E+03  0.41389025817E+03  0.92180736284E+03  0.10566000000E+00 0.  1.
         13    1    3    3    0    0 -0.25409475002E+03  0.13243350680E+03  0.14878906935E+03  0.32286370814E+03  0.10566000000E+00 0. -1.
          1    1    1    2  502    0 -0.51511304939E+01  0.18720530995E+02 -0.27137485193E+03  0.27206856247E+03  0.00000000000E+00 0. -1.
         -4    1    3    3    0  502  0.66777239171E+03  0.56405904015E+03 -0.30258591687E+03  0.92500854320E+03  0.00000000000E+00 0. -1.
</event>
<event>
 7    1  0.4894942E-006  0.1469588E+04  0.7818608E-02  0.8493952E-01
         -4   -1    0    0    0  501 -0.00000000000E+00  0.00000000000E+00  0.25448101059E+04  0.25448101059E+04  0.00000000000E+00 0. -1.
          1   -1    0    0  501    0  0.00000000000E+00 -0.00000000000E+00 -0.11675815029E+04  0.11675815029E+04  0.00000000000E+00 0.  1.
   -9000010    2    1    2    0  502 -0.10877828469E+04 -0.22004316207E+03 -0.34084714150E+03  0.15281978982E+04  0.99374117706E+03 0.  0.
        -13    1    1    2    0    0  0.10550788667E+04  0.22275262072E+03  0.17986856883E+04  0.20971600705E+04  0.10566000000E+00 0.  1.
         13    1    3    3    0    0 -0.90102499635E+03 -0.56174952116E+03 -0.91355402135E+02  0.10657177812E+04  0.10566000000E+00 0. -1.
          1    1    1    2  502    0  0.32703980221E+02 -0.27094586435E+01 -0.80609943751E+02  0.87033640163E+02  0.00000000000E+00 0.  1.
         -4    1    3    3    0  502 -0.18675785058E+03  0.34170635908E+03 -0.24949173937E+03  0.46248011698E+03  0.00000000000E+00 0. -1.
</event>
<event>
 7    1  0.4894942E-006  0.1116169E+04  0.7818608E-02  0.8852967E-01
          1   -1    0    0  501    0  0.00000000000E+00  0.00000000000E+00  0.66311527129E+03  0.66311527129E+03  0.00000000000E+00 0.  1.
         -4   -1    0    0    0  501 -0.00000000000E+00 -0.00000000000E+00 -0.27270800072E+04  0.27270800072E+04  0.00000000000E+00 0. -1.
   -9000010    2    1    2    0  502  0.31760512675E+03  0.41005182086E+03 -0.30208690272E+03  0.11572515284E+04  0.98942361543E+03 0.  0.
        -13    1    1    2    0    0 -0.32869165742E+03 -0.39835512339E+03 -0.19637003638E+04  0.20304787957E+04  0.10566000000E+00 0.  1.
         13    1    3    3    0    0 -0.13653678704E+03 -0.29504625093E+01  0.27985239762E+03  0.31139745513E+03  0.10566000000E+00 0. -1.
          1    1    1    2  502    0  0.11086530671E+02 -0.11696697465E+02  0.20182253061E+03  0.20246495438E+03  0.00000000000E+00 0.  1.
         -4    1    3    3    0  502  0.45414191379E+03  0.41300228337E+03 -0.58193930034E+03  0.84585407324E+03  0.00000000000E+00 0. -1.
</event>
<event>
 7    1  0.4894942E-006  0.1001432E+04  0.7818608E-02  0.9330457E-01
          2   -1    0    0  502    0  0.00000000000E+00  0.00000000000E+00  0.13462993061E+04  0.13462993061E+04  0.00000000000E+00 0.  1.
          4   -1    0    0  501    0 -0.00000000000E+00 -0.00000000000E+00 -0.16688185694E+04  0.16688185694E+04  0.00000000000E+00 0.  1.
    9000010    2    1    2  502    0  0.96358800951E+01 -0.10063143142E+03 -0.10714298015E+04  0.14661133459E+04  0.99564400675E+03 0.  0.
        -13    1    3    3    0    0  0.22682489850E+03 -0.83838345379E+02 -0.11925819846E+04  0.12168525810E+04  0.10566000000E+00 0.  1.
         13    1    1    2    0    0  0.77209288405E+02  0.77098115823E+02 -0.39080076114E+03  0.40574701447E+03  0.10566000000E+00 0. -1.
          2    1    1    2  501    0 -0.86845168501E+02  0.23533315593E+02  0.11397112994E+04  0.11432575152E+04  0.00000000000E+00 0.  1.
          4    1    3    3  502    0 -0.21718901841E+03 -0.16793086037E+02  0.12115218305E+03  0.24926076489E+03  0.00000000000E+00 0.  1.
</event>
<event>
 7    1  0.4894942E-006  0.1385523E+04  0.7818608E-02  0.8561910E-01
         -4   -1    0    0    0  501  0.00000000000E+00  0.00000000000E+00  0.20786886635E+04  0.20786886635E+04  0.00000000000E+00 0. -1.
         -4   -1    0    0    0  502 -0.00000000000E+00 -0.00000000000E+00 -0.25934665535E+04  0.25934665535E+04  0.00000000000E+00 0. -1.
   -9000010    2    1    2    0  501  0.24708453692E+03  0.11545554916E+04 -0.11041298998E+04  0.19048467576E+04  0.10076155927E+04 0.  0.
        -13    1    1    2    0    0 -0.72335452051E+03 -0.56569151441E+03 -0.77844041362E+03  0.12038347646E+04  0.10566000000E+00 0.  1.
         13    1    3    3    0    0  0.36489492046E+03  0.10634330618E+04 -0.12603943837E+04  0.16889737102E+04  0.10566000000E+00 0. -1.
         -4    1    1    2    0  502  0.47626998359E+03 -0.58886397715E+03  0.13677924234E+04  0.15634736948E+04  0.00000000000E+00 0. -1.
         -4    1    3    3    0  501 -0.11781038354E+03  0.91122429720E+02  0.15626448391E+03  0.21587304741E+03  0.00000000000E+00 0. -1.
</event>
<event>
 7    1  0.4894942E-006  0.1038930E+04  0.7818608E-02  0.9072492E-01
         -2   -1    0    0    0  501  0.00000000000E+00  0.00000000000E+00  0.72882799471E+03  0.72882799471E+03  0.00000000000E+00 0. -1.
         -4   -1    0    0    0  502 -0.00000000000E+00 -0.00000000000E+00 -0.24439756907E+04  0.24439756907E+04  0.00000000000E+00 0. -1.
   -9000010    2    1    2    0  501  0.17392902921E+03 -0.25292702774E+03 -0.21474067859E+04  0.23909357754E+04  0.10054822671E+04 0.  0.
        -13    1    1    2    0    0 -0.30914595051E+02  0.23946415244E+03 -0.76450903573E+02  0.25326575827E+03  0.10566000000E+00 0.  1.
         13    1    3    3    0    0  0.28248119955E+03  0.15645786353E+03 -0.18386920785E+04  0.18668324140E+04  0.10566000000E+00 0. -1.
         -2    1    1    2    0  502 -0.14301443416E+03  0.13462875300E+02  0.50870999345E+03  0.52860215174E+03  0.00000000000E+00 0. -1.
         -4    1    3    3    0  501 -0.10855217034E+03 -0.40938489127E+03 -0.30871470732E+03  0.52410336138E+03  0.00000000000E+00 0. -1.
</event>
<event>
 7    1  0.4894942E-006  0.1005198E+04  0.7818608E-02  0.9029375E-01
          2   -1    0    0  502    0  0.00000000000E+00  0.00000000000E+00  0.67142939552E+03  0.67142939552E+03  0.00000000000E+00 0.  1.
          4   -1    0    0  501    0 -0.00000000000E+00 -0.00000000000E+00 -0.93468716297E+03  0.93468716297E+03  0.00000000000E+00 0.  1.
    9000010    2    1    2  502    0  0.13212466734E+03  0.26703502096E+03 -0.26509540439E+03  0.10255576319E+04  0.94484297781E+03 0.  0.
        -13    1    3    3    0    0  0.49461152795E+03  0.22449186077E+03 -0.35598937425E+03  0.64943483497E+03  0.10566000000E+00 0.  1.
         13    1    1    2    0    0 -0.17005259741E+03 -0.31317981614E+03 -0.17275223859E+03  0.39603387510E+03  0.10566000000E+00 0. -1.
          2    1    1    2  501    0  0.37927930068E+02  0.46144795187E+02  0.17458987553E+03  0.18452505152E+03  0.00000000000E+00 0.  1.
          4    1    3    3  502    0 -0.36248686060E+03  0.42543160185E+02  0.90893969855E+02  0.37612279690E+03  0.00000000000E+00 0.  1.
</event>
<event>
 7    1  0.4894942E-006  0.1107067E+04  0.7818608E-02  0.8882636E-01
          2   -1    0    0  501    0  0.00000000000E+00  0.00000000000E+00  0.11977947056E+04  0.11977947056E+04  0.00000000000E+00 0.  1.
         -4   -1    0    0    0  501 -0.00000000000E+00 -0.00000000000E+00 -0.16874556462E+04  0.16874556462E+04  0.00000000000E+00 0. -1.
   -9000010    2    1    2    0  502 -0.30856624661E+03 -0.44821073822E+03 -0.10792024995E+04  0.15708320988E+04  0.10033590849E+04 0.  0.
        -13    1    1    2    0    0  0.38435465660E+03  0.21883839389E+03 -0.20243871191E+03  0.48641565346E+03  0.10566000000E+00 0.  1.
         13    1    3    3    0    0 -0.62722503015E+03 -0.36439947741E+03 -0.99392082448E+03  0.12304782948E+04  0.10566000000E+00 0. -1.
          2    1    1    2  502    0 -0.75788409987E+02  0.22937234433E+03  0.79198027085E+03  0.82800259955E+03  0.00000000000E+00 0.  1.
         -4    1    3    3    0  502  0.31865878355E+03 -0.83811260814E+02 -0.85281675021E+02  0.34035380395E+03  0.00000000000E+00 0. -1.
</event>
<event>
 7    1  0.4894942E-006  0.1053021E+04  0.7818608E-02  0.8994239E-01
          4   -1    0    0  501    0 -0.00000000000E+00  0.00000000000E+00  0.19175142200E+04  0.19175142200E+04  0.00000000000E+00 0.  1.
          2   -1    0    0  502    0  0.00000000000E+00 -0.00000000000E+00 -0.72966253737E+03  0.72966253737E+03  0.00000000000E+00 0.  1.
    9000010    2    1    2  502    0  0.11469264127E+03 -0.25810117624E+03  0.95184660305E+03  0.14058400379E+04  0.99529072999E+03 0.  0.
        -13    1    3    3    0    0 -0.16077536218E+03  0.25103721673E+03  0.75184739984E+01  0.29820285023E+03  0.10566000000E+00 0.  1.
         13    1    1    2    0    0 -0.82352741960E+02  0.34673938563E+03  0.69055631969E+03  0.77709601561E+03  0.10566000000E+00 0. -1.
          2    1    1    2  501    0 -0.32339899313E+02 -0.88638209384E+02 -0.45455124011E+03  0.46424070388E+03  0.00000000000E+00 0.  1.
          4    1    3    3  502    0  0.27546800346E+03 -0.50913839297E+03  0.94432812905E+03  0.11076371876E+04  0.00000000000E+00 0.  1.
</event>
<event>
 7    1  0.4894942E-006  0.9922300E+03  0.7818608E-02  0.9571795E-01
         -4   -1    0    0    0  501 -0.00000000000E+00  0.00000000000E+00  0.17142722454E+04  0.17142722454E+04  0.00000000000E+00 0. -1.
          2   -1    0    0  501    0  0.00000000000E+00 -0.00000000000E+00 -0.22991464352E+03  0.22991464352E+03  0.00000000000E+00 0. -1.
   -9000010    2    1    2    0  502  0.58804203944E+02 -0.82888859802E+01  0.13733213023E+04  0.16946919545E+04  0.99118251663E+03 0.  0.
        -13    1    1    2    0    0 -0.45331417930E+02 -0.12057214319E+01  0.17637399858E+03  0.18211037794E+03  0.10566000000E+00 0.  1.
         13    1    3    3    0    0  0.18992312167E+03  0.45005148915E+03  0.49565873452E+03  0.69591287335E+03  0.10566000000E+00 0. -1.
          2    1    1    2  502    0 -0.13472786014E+02  0.94946074121E+01 -0.65337699031E+02  0.67384556447E+02  0.00000000000E+00 0. -1.
         -4    1    3    3    0  502 -0.13111891772E+03 -0.45834037513E+03  0.87766256781E+03  0.99877908118E+03  0.00000000000E+00 0. -1.
</event>
<event>
 7    1  0.4894942E-006  0.1033367E+04  0.7818608E-02  0.9310947E-01
         -4   -1    0    0    0  501 -0.00000000000E+00  0.00000000000E+00  0.41515758193E+03  0.41515758193E+03  0.00000000000E+00 0. -1.
          2   -1    0    0  501    0  0.00000000000E+00 -0.00000000000E+00 -0.15898077415E+04  0.15898077415E+04  0.00000000000E+00 0. -1.
   -9000010    2    1    2    0  502 -0.13633359238E+02  0.11311560468E+03 -0.98960890391E+03  0.14314543500E+04  0.10279857806E+04 0.  0.
        -13    1    1    2    0    0  0.23263789803E+02 -0.10262677955E+03  0.17983310689E+03  0.20835886661E+03  0.10566000000E+00 0.  1.
         13    1    3    3    0    0 -0.28946330024E+03  0.45986449537E+03 -0.75467555015E+03  0.92994599491E+03  0.10566000000E+00 0. -1.
          2    1    1    2  502    0 -0.96304305649E+01 -0.10488825129E+02 -0.36487436258E+03  0.36515210681E+03  0.00000000000E+00 0. -1.
         -4    1    3    3    0  502  0.27582994101E+03 -0.34674889069E+03 -0.23493335375E+03  0.50150835512E+03  0.00000000000E+00 0. -1.
</event>
<event>
 7    1  0.4894942E-006  0.1275865E+04  0.7818608E-02  0.8739565E-01
          2   -1    0    0  502    0  0.00000000000E+00  0.00000000000E+00  0.24235516911E+04  0.24235516911E+04  0.00000000000E+00 0.  1.
          4   -1    0    0  501    0 -0.00000000000E+00 -0.00000000000E+00 -0.20871686073E+04  0.20871686073E+04  0.00000000000E+00 0.  1.
    9000010    2    1    2  502    0 -0.55068074451E+03 -0.94825428104E+03 -0.12019482130E+04  0.19803131545E+04  0.11289487230E+04 0.  0.
        -13    1    3    3    0    0  0.81442785825E+02 -0.63434755545E+03 -0.10927392991E+04  0.12661393823E+04  0.10566000000E+00 0.  1.
         13    1    1    2    0    0  0.40501133333E+03  0.38563379633E+03 -0.27716750821E+03  0.62415498377E+03  0.10566000000E+00 0. -1.
          2    1    1    2  501    0  0.14566941118E+03  0.56262048471E+03  0.18154988050E+04  0.19062521602E+04  0.00000000000E+00 0.  1.
          4    1    3    3  502    0 -0.63212353033E+03 -0.31390672559E+03 -0.10920891392E+03  0.71417377217E+03  0.00000000000E+00 0.  1.
</event>
<event>
 7    1  0.4894942E-006  0.1056824E+04  0.7818608E-02  0.8977052E-01
         -4   -1    0    0    0  501 -0.00000000000E+00  0.00000000000E+00  0.12721753713E+04  0.12721753713E+04  0.00000000000E+00 0. -1.
          2   -1    0    0  501    0  0.00000000000E+00 -0.00000000000E+00 -0.95622597700E+03  0.95622597700E+03  0.00000000000E+00 0. -1.
   -9000010    2    1    2    0  502  0.32220400187E+03 -0.16749846886E+03  0.58065077392E+03  0.12053436993E+04  0.99188051510E+03 0.  0.
        -13    1    1    2    0    0 -0.33678906675E+03  0.14193462335E+03  0.29063084420E+03  0.46694604779E+03  0.10566000000E+00 0.  1.
         13    1    3    3    0    0  0.28570192631E+03  0.38224229131E+03  0.13284878215E+03  0.49536205955E+03  0.10566000000E+00 0. -1.
          2    1    1    2  502    0  0.14585064883E+02  0.25563845512E+02 -0.55533222378E+03  0.55611160128E+03  0.00000000000E+00 0. -1.
         -4    1    3    3    0  502  0.36502075560E+02 -0.54974076017E+03  0.44780199177E+03  0.70998163972E+03  0.00000000000E+00 0. -1.
</event>
<event>
 7    1  0.4894942E-006  0.1005790E+04  0.7818608E-02  0.9048961E-01
         -4   -1    0    0    0  501 -0.00000000000E+00  0.00000000000E+00  0.17223711058E+04  0.17223711058E+04  0.00000000000E+00 0. -1.
          2   -1    0    0  501    0  0.00000000000E+00 -0.00000000000E+00 -0.16262288112E+04  0.16262288112E+04  0.00000000000E+00 0. -1.
   -9000010    2    1    2    0  502  0.28963080416E+03 -0.10507345668E+03 -0.13294358846E+04  0.16654450920E+04  0.95466284587E+03 0.  0.
        -13    1    1    2    0    0 -0.29486391729E+03  0.11552224173E+03  0.15379299147E+04  0.15701969786E+04  0.10566000000E+00 0.  1.
         13    1    3    3    0    0  0.56570759665E+03 -0.87545357046E+02 -0.12543585752E+04  0.13788055413E+04  0.10566000000E+00 0. -1.
          2    1    1    2  502    0  0.52331131349E+01 -0.10448785052E+02 -0.11235173549E+03  0.11295784634E+03  0.00000000000E+00 0. -1.
         -4    1    3    3    0  502 -0.27607679249E+03 -0.17528099630E+02 -0.75077309356E+02  0.28663955067E+03  0.00000000000E+00 0. -1.
</event>
<event>
 7    1  0.4894942E-006  0.1280042E+04  0.7818608E-02  0.8869121E-01
          2   -1    0    0  502    0  0.00000000000E+00  0.00000000000E+00  0.25540707645E+04  0.25540707645E+04  0.00000000000E+00 0.  1.
          4   -1    0    0  501    0 -0.00000000000E+00 -0.00000000000E+00 -0.87280750814E+03  0.87280750814E+03  0.00000000000E+00 0.  1.
    9000010    2    1    2  502    0 -0.23702244166E+03 -0.84709382097E+03  0.85786810724E+03  0.15872101160E+04  0.10047639939E+04 0.  0.
        -13    1    3    3    0    0 -0.24224781492E+03 -0.13108455909E+03  0.82573316813E+03  0.87046105115E+03  0.10566000000E+00 0.  1.
         13    1    1    2    0    0  0.31201082157E+03  0.71785918794E+02 -0.32228213928E+03  0.45427938472E+03  0.10566000000E+00 0. -1.
          2    1    1    2  501    0 -0.74988379908E+02  0.77530790217E+03  0.11456772884E+04  0.13853887720E+04  0.00000000000E+00 0.  1.
          4    1    3    3  502    0  0.52253732580E+01 -0.71600926188E+03  0.32134939116E+02  0.71674906483E+03  0.00000000000E+00 0.  1.
</event>
<event>
 7    1  0.4894942E-006  0.1190697E+04  0.7818608E-02  0.8752218E-01
         -4   -1    0    0    0  501 -0.00000000000E+00  0.00000000000E+00  0.15193130225E+04  0.15193130225E+04  0.00000000000E+00 0. -1.
          2   -1    0    0  501    0  0.00000000000E+00 -0.00000000000E+00 -0.13717944207E+04  0.13717944207E+04  0.00000000000E+00 0. -1.
   -9000010    2    1    2    0  502  0.25980210464E+03  0.60832828934E+03 -0.21631040099E+03  0.12154685938E+04  0.99650051270E+03 0.  0.
        -13    1    1    2    0    0 -0.29998911112E+03 -0.57725239571E+03  0.91469019865E+03  0.11224401836E+04  0.10566000000E+00 0.  1.
         13    1    3    3    0    0  0.56640492143E+03  0.18366795142E+03 -0.32816353693E+03  0.67988217327E+03  0.10566000000E+00 0. -1.
          2    1    1    2  502    0  0.40187006473E+02 -0.31075893631E+02 -0.55086119583E+03  0.55319866569E+03  0.00000000000E+00 0. -1.
         -4    1    3    3    0  502 -0.30660281679E+03  0.42466033792E+03  0.11185313594E+03  0.53558642055E+03  0.00000000000E+00 0. -1.
</event>
<event>
 7    1  0.4894942E-006  0.1229762E+04  0.7818608E-02  0.8699856E-01
          2   -1    0    0  502    0  0.00000000000E+00  0.00000000000E+00  0.17666206070E+04  0.17666206070E+04  0.00000000000E+00 0.  1.
          4   -1    0    0  501    0 -0.00000000000E+00 -0.00000000000E+00 -0.26200055126E+04  0.26200055126E+04  0.00000000000E+00 0.  1.
    9000010    2    1    2  502    0  0.71072195838E+03  0.26624257028E+03 -0.11545305556E+04  0.16947134691E+04  0.98137766945E+03 0.  0.
        -13    1    3    3    0    0  0.95446444576E+03  0.20293021457E+03 -0.10098880161E+04  0.14042994219E+04  0.10566000000E+00 0.  1.
         13    1    1    2    0    0 -0.64418318177E+03 -0.35590319788E+03 -0.10796388433E+04  0.13066212539E+04  0.10566000000E+00 0. -1.
          2    1    1    2  501    0 -0.66538776607E+02  0.89660627604E+02  0.13807844933E+04  0.13852913967E+04  0.00000000000E+00 0.  1.
          4    1    3    3  502    0 -0.24374248738E+03  0.63312355707E+02 -0.14464253945E+03  0.29041404711E+03  0.00000000000E+00 0.  1.
</event>
<event>
 7    1  0.4894942E-006  0.1011840E+04  0.7818608E-02  0.9473786E-01
          2   -1    0    0  502    0  0.00000000000E+00  0.00000000000E+00  0.26717814904E+04  0.26717814904E+04  0.00000000000E+00 0. -1.
          4   -1    0    0  501    0 -0.00000000000E+00 -0.00000000000E+00 -0.38110006047E+03  0.38110006047E+03  0.00000000000E+00 0.  1.
    9000010    2    1    2  502    0  0.20089989427E+03 -0.24704929315E+02  0.34767880402E+03  0.10784943923E+04  0.10006490406E+04 0.  0.
        -13    1    3    3    0    0  0.24849393154E+03 -0.41722483068E+03  0.45849413321E+03  0.66786426369E+03  0.10566000000E+00 0.  1.
         13    1    1    2    0    0 -0.57985933509E+02 -0.19761675093E+02  0.61032218261E+02  0.86474476681E+02  0.10566000000E+00 0. -1.
          2    1    1    2  501    0 -0.14291396076E+03  0.44466604408E+02  0.18819704076E+04  0.18879126818E+04  0.00000000000E+00 0. -1.
          4    1    3    3  502    0 -0.47594037273E+02  0.39251990137E+03 -0.11081532919E+03  0.41063012863E+03  0.00000000000E+00 0.  1.
</event>
<event>
 7    1  0.4894942E-006  0.1007968E+04  0.7818608E-02  0.9155531E-01
         -4   -1    0    0    0  501 -0.00000000000E+00  0.00000000000E+00  0.14968305269E+04  0.14968305269E+04  0.00000000000E+00 0. -1.
          2   -1    0    0  501    0  0.00000000000E+00 -0.00000000000E+00 -0.78879072075E+03  0.78879072075E+03  0.00000000000E+00 0. -1.
   -9000010    2    1    2    0  502 -0.16718869229E+03  0.12975286086E+03  0.70411624136E+03  0.12304451615E+04  0.98662442215E+03 0.  0.
        -13    1    1    2    0    0  0.15140405191E+03 -0.13965462195E+03  0.50934208386E+03  0.54941420615E+03  0.10566000000E+00 0.  1.
         13    1    3    3    0    0 -0.22661521385E+02 -0.39266015108E+03  0.75652187715E+02  0.40052316221E+03  0.10566000000E+00 0. -1.
          2    1    1    2  502    0  0.15784640380E+02  0.99017610836E+01 -0.50541851912E+03  0.50576187995E+03  0.00000000000E+00 0. -1.
         -4    1    3    3    0  502 -0.14452717090E+03  0.52241301194E+03  0.62846405364E+03  0.82992199929E+03  0.00000000000E+00 0. -1.
</event>
<event>
 7    1  0.4894942E-006  0.1190890E+04  0.7818608E-02  0.8748750E-01
          2   -1    0    0  502    0  0.00000000000E+00  0.00000000000E+00  0.24465359222E+04  0.24465359222E+04  0.00000000000E+00 0.  1.
          4   -1    0    0  501    0 -0.00000000000E+00 -0.00000000000E+00 -0.75177472741E+03  0.75177472741E+03  0.00000000000E+00 0.  1.
    9000010    2    1    2  502    0  0.69188228650E+03  0.75367739421E+03  0.15060169147E+04  0.20726602485E+04  0.99050635797E+03 0.  0.
        -13    1    3    3    0    0  0.43018851113E+03  0.82426467156E+02  0.12221918405E+04  0.12983101262E+04  0.10566000000E+00 0.  1.
         13    1    1    2    0    0 -0.50741463703E+03 -0.28876620916E+03  0.22143880611E+03  0.62441227842E+03  0.10566000000E+00 0. -1.
          2    1    1    2  501    0 -0.18446764948E+03 -0.46491118505E+03 -0.32694526016E+02  0.50123812277E+03  0.00000000000E+00 0.  1.
          4    1    3    3  502    0  0.26169377537E+03  0.67125092705E+03  0.28382507427E+03  0.77435012231E+03  0.00000000000E+00 0.  1.
</event>
<event>
 7    1  0.4894942E-006  0.1010556E+04  0.7818608E-02  0.9367895E-01
         -4   -1    0    0    0  501 -0.00000000000E+00  0.00000000000E+00  0.10136299259E+04  0.10136299259E+04  0.00000000000E+00 0. -1.
          2   -1    0    0  501    0  0.00000000000E+00 -0.00000000000E+00 -0.97675741090E+03  0.97675741090E+03  0.00000000000E+00 0. -1.
   -9000010    2    1    2    0  502 -0.89095450445E+02 -0.29837544502E+02  0.37117511705E+03  0.10768266115E+04  0.10064573043E+04 0.  0.
        -13    1    1    2    0    0  0.90022766236E+02 -0.13792001312E+02  0.28167854275E+03  0.29603569101E+03  0.10566000000E+00 0.  1.
         13    1    3    3    0    0  0.24244496042E+03  0.29065132377E+02 -0.26294988037E+03  0.35884117866E+03  0.10566000000E+00 0. -1.
          2    1    1    2  502    0 -0.92731579068E+00  0.43629545813E+02 -0.61598114483E+03  0.61752503429E+03  0.00000000000E+00 0. -1.
         -4    1    3    3    0  502 -0.33154041086E+03 -0.58902676878E+02  0.63412499742E+03  0.71798543281E+03  0.00000000000E+00 0. -1.
</event>
<event>
 7    1  0.4894942E-006  0.1006354E+04  0.7818608E-02  0.9299398E-01
          2   -1    0    0  501    0  0.00000000000E+00  0.00000000000E+00  0.96592918069E+03  0.96592918069E+03  0.00000000000E+00 0. -1.
         -4   -1    0    0    0  501 -0.00000000000E+00 -0.00000000000E+00 -0.67386205198E+03  0.67386205198E+03  0.00000000000E+00 0. -1.
   -9000010    2    1    2    0  502  0.18770013565E+03 -0.79515120976E+01 -0.14112515717E+03  0.10265310382E+04  0.99927728632E+03 0.  0.
        -13    1    1    2    0    0 -0.10249630140E+03 -0.51998486495E+02 -0.45315244355E+02  0.12354277370E+03  0.10566000000E+00 0.  1.
         13    1    3    3    0    0 -0.33165026275E+03  0.90367511120E+02 -0.31887401606E+03  0.46886974004E+03  0.10566000000E+00 0. -1.
          2    1    1    2  502    0 -0.85203834248E+02  0.59949998592E+02  0.47850753023E+03  0.48971742075E+03  0.00000000000E+00 0. -1.
         -4    1    3    3    0  502  0.51935039839E+03 -0.98319023217E+02  0.17774885889E+03  0.55766129817E+03  0.00000000000E+00 0. -1.
</event>
<event>
 7    1  0.4894942E-006  0.1111501E+04  0.7818608E-02  0.8874235E-01
         -4   -1    0    0    0  501 -0.00000000000E+00  0.00000000000E+00  0.12817140568E+04  0.12817140568E+04  0.00000000000E+00 0. -1.
          2   -1    0    0  501    0  0.00000000000E+00 -0.00000000000E+00 -0.66412842771E+03  0.66412842771E+03  0.00000000000E+00 0. -1.
   -9000010    2    1    2    0  502  0.32712744180E+03 -0.35289596849E+03  0.35878478365E+03  0.11689988456E+04  0.10031370058E+04 0.  0.
        -13    1    1    2    0    0 -0.31360990326E+03  0.36082970156E+03  0.40697920960E+03  0.62783862032E+03  0.10566000000E+00 0.  1.
         13    1    3    3    0    0  0.51435563787E+03 -0.51281749594E+03 -0.90248692936E+01  0.72637797721E+03  0.10566000000E+00 0. -1.
          2    1    1    2  502    0 -0.13517538539E+02 -0.79337330660E+01 -0.14817836414E+03  0.14900501860E+03  0.00000000000E+00 0. -1.
         -4    1    3    3    0  502 -0.18722819607E+03  0.15992152745E+03  0.36780965295E+03  0.44262086840E+03  0.00000000000E+00 0. -1.
</event>
<event>
 7    1  0.4894942E-006  0.1297988E+04  0.7818608E-02  0.8637095E-01
         -4   -1    0    0    0  501 -0.00000000000E+00  0.00000000000E+00  0.15879507019E+04  0.15879507019E+04  0.00000000000E+00 0. -1.
          2   -1    0    0  501    0  0.00000000000E+00 -0.00000000000E+00 -0.95643939588E+03  0.95643939588E+03  0.00000000000E+00 0.  1.
   -9000010    2    1    2    0  502  0.68755540531E+03 -0.46898336837E+03 -0.11372427591E+03  0.13052003763E+04  0.99896795553E+03 0.  0.
        -13    1    1    2    0    0 -0.68898570954E+03  0.45905372036E+03  0.81911178861E+03  0.11646354621E+04  0.10566000000E+00 0.  1.
         13    1    3    3    0    0 -0.20256470444E+03 -0.30199183309E+03 -0.16238158312E+03  0.39824529682E+03  0.10566000000E+00 0. -1.
          2    1    1    2  502    0  0.14303042245E+01  0.99296480051E+01 -0.73876206690E+02  0.74554259399E+02  0.00000000000E+00 0.  1.
         -4    1    3    3    0  502  0.89012010975E+03 -0.16699153528E+03  0.48657307219E+02  0.90695507948E+03  0.00000000000E+00 0. -1.
</event>
<event>
 7    1  0.4894942E-006  0.1031072E+04  0.7818608E-02  0.9085846E-01
          4   -1    0    0  501    0 -0.00000000000E+00  0.00000000000E+00  0.38743931896E+03  0.38743931896E+03  0.00000000000E+00 0.  1.
          2   -1    0    0  502    0  0.00000000000E+00 -0.00000000000E+00 -0.23991336108E+04  0.23991336108E+04  0.00000000000E+00 0.  1.
    9000010    2    1    2  502    0  0.28609566009E+03 -0.95732726871E+02 -0.16965116860E+04  0.19919638094E+04  0.99937602300E+03 0.  0.
        -13    1    3    3    0    0  0.12603463509E+03 -0.51604498009E+03 -0.12500414076E+04  0.13582307177E+04  0.10566000000E+00 0.  1.
         13    1    1    2    0    0 -0.24565799828E+03  0.56194803776E+02  0.17138884947E+03  0.30476196773E+03  0.10566000000E+00 0. -1.
          2    1    1    2  501    0 -0.40437661809E+02  0.39537923096E+02 -0.48657145531E+03  0.48984715267E+03  0.00000000000E+00 0.  1.
          4    1    3    3  502    0  0.16006102500E+03  0.42031225322E+03 -0.44647027844E+03  0.63373309166E+03  0.00000000000E+00 0.  1.
</event>
<event>
 7    1  0.4894942E-006  0.9970485E+03  0.7818608E-02  0.9379104E-01
          2   -1    0    0  502    0  0.00000000000E+00  0.00000000000E+00  0.90242944361E+03  0.90242944361E+03  0.00000000000E+00 0.  1.
          4   -1    0    0  501    0 -0.00000000000E+00 -0.00000000000E+00 -0.39710804372E+03  0.39710804372E+03  0.00000000000E+00 0.  1.
    9000010    2    1    2  502    0  0.88290007964E+02  0.32609361300E+02  0.46961425694E+03  0.11023872783E+04  0.99290566777E+03 0.  0.
        -13    1    3    3    0    0 -0.98381479285E+02  0.34565424845E+03  0.61311389248E+03  0.71067885240E+03  0.10566000000E+00 0.  1.
         13    1    1    2    0    0 -0.88847930200E+02 -0.18343638757E+02 -0.54491298891E+02  0.10582890249E+03  0.10566000000E+00 0. -1.
          2    1    1    2  501    0  0.55792223563E+00 -0.14265722543E+02  0.90198441846E+02  0.91321306541E+02  0.00000000000E+00 0.  1.
          4    1    3    3  502    0  0.18667148725E+03 -0.31304488715E+03 -0.14349963554E+03  0.39170842590E+03  0.00000000000E+00 0.  1.
</event>
<event>
 7    1  0.4894942E-006  0.1122244E+04  0.7818608E-02  0.8943757E-01
          4   -1    0    0  501    0 -0.00000000000E+00  0.00000000000E+00  0.18087007671E+04  0.18087007671E+04  0.00000000000E+00 0.  1.
          2   -1    0    0  502    0  0.00000000000E+00 -0.00000000000E+00 -0.12672989578E+04  0.12672989578E+04  0.00000000000E+00 0. -1.
    9000010    2    1    2  502    0 -0.20390666221E+02 -0.31454457421E+03  0.12490543359E+04  0.16724649512E+04  0.10666059302E+04 0.  0.
        -13    1    3    3    0    0  0.97580429103E+02 -0.71218252224E+02 -0.18070012144E+03  0.21736265697E+03  0.10566000000E+00 0.  1.
         13    1    1    2    0    0  0.12823101066E+03  0.34617053373E+03  0.24578640482E+03  0.44349543230E+03  0.10566000000E+00 0. -1.
          2    1    1    2  501    0 -0.10784034444E+03 -0.31625959523E+02 -0.95343893139E+03  0.96003934143E+03  0.00000000000E+00 0. -1.
          4    1    3    3  502    0 -0.11797109532E+03 -0.24332632198E+03  0.14297544573E+04  0.14551022942E+04  0.00000000000E+00 0.  1.
</event>
<event>
 7    1  0.4894942E-006  0.1191251E+04  0.7818608E-02  0.8750690E-01
          4   -1    0    0  501    0 -0.00000000000E+00  0.00000000000E+00  0.10749778339E+04  0.10749778339E+04  0.00000000000E+00 0.  1.
          2   -1    0    0  502    0  0.00000000000E+00 -0.00000000000E+00 -0.15147454801E+04  0.15147454801E+04  0.00000000000E+00 0. -1.
    9000010    2    1    2  502    0  0.56242975277E+03  0.73691800283E+03 -0.66384248651E+03  0.15132754451E+04  0.99495746447E+03 0.  0.
        -13    1    3    3    0    0  0.57813186505E+03  0.10046425359E+03  0.91450488744E+01  0.58686724454E+03  0.10566000000E+00 0.  1.
         13    1    1    2    0    0 -0.23606435243E+03 -0.56588397808E+03  0.32561780597E+03  0.69424636972E+03  0.10566000000E+00 0. -1.
          2    1    1    2  501    0 -0.32636540035E+03 -0.17103402475E+03 -0.10154296562E+03  0.38220149925E+03  0.00000000000E+00 0. -1.
          4    1    3    3  502    0 -0.15702112271E+02  0.63645374924E+03 -0.67298753539E+03  0.92640820055E+03  0.00000000000E+00 0.  1.
</event>
<event>
 7    1  0.4894942E-006  0.1032858E+04  0.7818608E-02  0.9155812E-01
         -4   -1    0    0    0  501 -0.00000000000E+00  0.00000000000E+00  0.30385976111E+04  0.30385976111E+04  0.00000000000E+00 0. -1.
          1   -1    0    0  501    0  0.00000000000E+00 -0.00000000000E+00 -0.10328785877E+04  0.10328785877E+04  0.00000000000E+00 0. -1.
   -9000010    2    1    2    0  502  0.14885165401E+03  0.50556534879E+02  0.20370132586E+04  0.22812799227E+04  0.10149395508E+04 0.  0.
        -13    1    1    2    0    0 -0.16137674877E+03 -0.10959181120E+03  0.86760957648E+03  0.88926891798E+03  0.10566000000E+00 0.  1.
         13    1    3    3    0    0 -0.29440360851E+03  0.25781577835E+03  0.15194195290E+04  0.15690054737E+04  0.10566000000E+00 0. -1.
          1    1    1    2  502    0  0.12525094757E+02  0.59035276323E+02 -0.89890381169E+03  0.90092735807E+03  0.00000000000E+00 0. -1.
         -4    1    3    3    0  502  0.44325526252E+03 -0.20725924347E+03  0.51759372960E+03  0.71227444899E+03  0.00000000000E+00 0. -1.
</event>
<event>
 7    1  0.4894942E-006  0.1075407E+04  0.7818608E-02  0.8927532E-01
          4   -1    0    0  501    0 -0.00000000000E+00  0.00000000000E+00  0.81837678428E+03  0.81837678428E+03  0.00000000000E+00 0.  1.
          2   -1    0    0  502    0  0.00000000000E+00 -0.00000000000E+00 -0.23392073937E+04  0.23392073937E+04  0.00000000000E+00 0. -1.
    9000010    2    1    2  502    0 -0.22011474272E+03  0.37936237806E+03  0.94764183494E+02  0.10854250927E+04  0.98833246808E+03 0.  0.
        -13    1    3    3    0    0  0.35656870162E+03 -0.38170185184E+02  0.10405453606E+03  0.37339732143E+03  0.10566000000E+00 0.  1.
         13    1    1    2    0    0  0.15543836632E+03 -0.38961321931E+03  0.34383231843E+02  0.42088212623E+03  0.10566000000E+00 0. -1.
          2    1    1    2  501    0  0.64676376399E+02  0.10250841246E+02 -0.16499780248E+04  0.16512769591E+04  0.00000000000E+00 0. -1.
          4    1    3    3  502    0 -0.57668344434E+03  0.41753256325E+03 -0.92903525651E+01  0.71202777123E+03  0.00000000000E+00 0.  1.
</event>
<event>
 7    1  0.4894942E-006  0.9144660E+03  0.7818608E-02  0.9309243E-01
          4   -1    0    0  502    0  0.00000000000E+00  0.00000000000E+00  0.60178611768E+03  0.60178611768E+03  0.00000000000E+00 0.  1.
          4   -1    0    0  501    0 -0.00000000000E+00 -0.00000000000E+00 -0.12122600549E+04  0.12122600549E+04  0.00000000000E+00 0.  1.
    9000010    2    1    2  502    0  0.12120121038E+03 -0.11346485657E+03 -0.50126053740E+03  0.10448329858E+04  0.90158185144E+03 0.  0.
        -13    1    3    3    0    0 -0.26051692512E+03  0.15258531375E+03 -0.49463956341E+03  0.57949948671E+03  0.10566000000E+00 0.  1.
         13    1    1    2    0    0 -0.12754197201E+03  0.83497493591E+02 -0.42522291391E+03  0.45172261814E+03  0.10566000000E+00 0. -1.
          4    1    1    2  501    0  0.63407616323E+01  0.29967362983E+02  0.31600951414E+03  0.31749056857E+03  0.00000000000E+00 0.  1.
          4    1    3    3  502    0  0.38171813550E+03 -0.26605017032E+03 -0.66209739860E+01  0.46533349911E+03  0.00000000000E+00 0.  1.
</event>
<event>
 7    1  0.4894942E-006  0.1081316E+04  0.7818608E-02  0.8935433E-01
          2   -1    0    0  501    0  0.00000000000E+00  0.00000000000E+00  0.33535492407E+04  0.33535492407E+04  0.00000000000E+00 0. -1.
         -4   -1    0    0    0  501 -0.00000000000E+00 -0.00000000000E+00 -0.44609978634E+03  0.44609978634E+03  0.00000000000E+00 0. -1.
   -9000010    2    1    2    0  502  0.31223885831E+03 -0.23087791005E+03  0.15457868242E+04  0.18832280099E+04  0.10031416239E+04 0.  0.
        -13    1    1    2    0    0 -0.31090355007E+03  0.25962433078E+03 -0.12929486828E+03  0.42518582373E+03  0.10566000000E+00 0.  1.
         13    1    3    3    0    0 -0.31229315635E+03 -0.16626285788E+03  0.96547133687E+03  0.10282535032E+04  0.10566000000E+00 0. -1.
          2    1    1    2  502    0 -0.13353082365E+01 -0.28746420724E+02  0.14909574985E+04  0.14912351934E+04  0.00000000000E+00 0. -1.
         -4    1    3    3    0  502  0.62453201466E+03 -0.64615052175E+02  0.58031548732E+03  0.85497450671E+03  0.00000000000E+00 0. -1.
</event>
<event>
 7    1  0.4894942E-006  0.1004397E+04  0.7818608E-02  0.9805768E-01
          4   -1    0    0  501    0  0.00000000000E+00  0.00000000000E+00  0.19491335133E+04  0.19491335133E+04  0.00000000000E+00 0.  1.
         -4   -1    0    0    0  501 -0.00000000000E+00 -0.00000000000E+00 -0.54758160897E+03  0.54758160897E+03  0.00000000000E+00 0. -1.
   -9000010    2    1    2    0  502 -0.19687238121E+02 -0.60002107728E+02  0.11630635038E+03  0.10097222861E+04  0.10010115322E+04 0.  0.
        -13    1    1    2    0    0 -0.37190397581E+01 -0.19050150450E+02 -0.98701665078E+02  0.10059209383E+03  0.10566000000E+00 0.  1.
         13    1    3    3    0    0  0.22595993275E+03 -0.42098771286E+03 -0.14692483656E+03  0.49987544883E+03  0.10566000000E+00 0. -1.
          4    1    1    2  502    0  0.23406277879E+02  0.79052258177E+02  0.13839472191E+04  0.13864007424E+04  0.00000000000E+00 0.  1.
         -4    1    3    3    0  502 -0.24564717088E+03  0.36098560513E+03  0.26323118693E+03  0.50984683724E+03  0.00000000000E+00 0. -1.
</event>
<event>
 7    1  0.4894942E-006  0.8799608E+03  0.7818608E-02  0.9288367E-01
          2   -1    0    0  502    0  0.00000000000E+00  0.00000000000E+00  0.36745704877E+04  0.36745704877E+04  0.00000000000E+00 0.  1.
          4   -1    0    0  501    0 -0.00000000000E+00 -0.00000000000E+00 -0.24452591920E+03  0.24452591920E+03  0.00000000000E+00 0.  1.
    9000010    2    1    2  502    0  0.15820192978E+03 -0.62128876332E+02  0.10018346689E+04  0.13313021245E+04  0.86011905862E+03 0.  0.
        -13    1    3    3    0    0  0.37890811577E+03 -0.99330930685E+01  0.87160723274E+02  0.38893062284E+03  0.10566000000E+00 0.  1.
         13    1    1    2    0    0 -0.18774858195E+03  0.10917424762E+02  0.31896303579E+02  0.19075142341E+03  0.10566000000E+00 0. -1.
          2    1    1    2  501    0  0.29546652166E+02  0.51211451570E+02  0.23963135960E+04  0.23970428590E+04  0.00000000000E+00 0.  1.
          4    1    3    3  502    0 -0.22070618599E+03 -0.52195783264E+02  0.91467394561E+03  0.94237150164E+03  0.00000000000E+00 0.  1.
</event>
<event>
 7    1  0.4894942E-006  0.1100014E+04  0.7818608E-02  0.9056245E-01
          4   -1    0    0  501    0 -0.00000000000E+00  0.00000000000E+00  0.15217061109E+04  0.15217061109E+04  0.00000000000E+00 0.  1.
          2   -1    0    0  502    0  0.00000000000E+00 -0.00000000000E+00 -0.17193753411E+04  0.17193753411E+04  0.00000000000E+00 0. -1.
    9000010    2    1    2  502    0 -0.25854581823E+02  0.19443258103E+03  0.74139905965E+03  0.12737033447E+04  0.10169440283E+04 0.  0.
        -13    1    3    3    0    0  0.82007208991E+02  0.48924259351E+03  0.31001009867E+02  0.49703578483E+03  0.10566000000E+00 0.  1.
         13    1    1    2    0    0 -0.97768050062E+02  0.21376285708E+03  0.45358764127E+03  0.51087660952E+03  0.10566000000E+00 0. -1.
          2    1    1    2  501    0  0.12362263188E+03 -0.40819543811E+03 -0.13926559310E+04  0.14565014978E+04  0.00000000000E+00 0. -1.
          4    1    3    3  502    0 -0.10786179081E+03 -0.29481001248E+03  0.71039804978E+03  0.77666755984E+03  0.00000000000E+00 0.  1.
</event>
<event>
 7    1  0.4894942E-006  0.1049110E+04  0.7818608E-02  0.9021518E-01
          2   -1    0    0  501    0  0.00000000000E+00  0.00000000000E+00  0.26459190960E+04  0.26459190960E+04  0.00000000000E+00 0. -1.
         -4   -1    0    0    0  501 -0.00000000000E+00 -0.00000000000E+00 -0.25727712812E+03  0.25727712812E+03  0.00000000000E+00 0. -1.
   -9000010    2    1    2    0  502 -0.28878818280E+03  0.95470018145E+02  0.11737650547E+04  0.15728524235E+04  0.10018119601E+04 0.  0.
        -13    1    1    2    0    0  0.29227194168E+03 -0.11431065409E+03  0.36966380482E+03  0.48491355239E+03  0.10566000000E+00 0.  1.
         13    1    3    3    0    0 -0.51263731599E+03 -0.28514482419E+03  0.51978679472E+03  0.78376202488E+03  0.10566000000E+00 0. -1.
          2    1    1    2  502    0 -0.34837588737E+01  0.18840635944E+02  0.84521310842E+03  0.84543024832E+03  0.00000000000E+00 0. -1.
         -4    1    3    3    0  502  0.22384913319E+03  0.38061484233E+03  0.65397825996E+03  0.78909039858E+03  0.00000000000E+00 0. -1.
</event>
<event>
 7    1  0.4894942E-006  0.1028236E+04  0.7818608E-02  0.9049728E-01
          2   -1    0    0  502    0  0.00000000000E+00  0.00000000000E+00  0.11876437101E+04  0.11876437101E+04  0.00000000000E+00 0.  1.
          4   -1    0    0  501    0 -0.00000000000E+00 -0.00000000000E+00 -0.81525355712E+03  0.81525355712E+03  0.00000000000E+00 0.  1.
    9000010    2    1    2  502    0  0.21014147660E+03 -0.22011325806E+03  0.78260915848E+03  0.12942545425E+04  0.98489006461E+03 0.  0.
        -13    1    3    3    0    0 -0.23551880241E+03 -0.43564552679E+03  0.57110856277E+03  0.75592402591E+03  0.10566000000E+00 0.  1.
         13    1    1    2    0    0 -0.21227236745E+03  0.20496349705E+03 -0.51995335022E+03  0.59784704623E+03  0.10566000000E+00 0. -1.
          2    1    1    2  501    0  0.21308908542E+01  0.15149761002E+02  0.10973434476E+03  0.11079567850E+03  0.00000000000E+00 0.  1.
          4    1    3    3  502    0  0.44566027901E+03  0.21553226874E+03  0.21150059570E+03  0.53833051663E+03  0.00000000000E+00 0.  1.
</event>
<event>
 7    1  0.4894942E-006  0.1134400E+04  0.7818608E-02  0.8931372E-01
          2   -1    0    0  502    0  0.00000000000E+00  0.00000000000E+00  0.44005942985E+03  0.44005942985E+03  0.00000000000E+00 0.  1.
          4   -1    0    0  501    0 -0.00000000000E+00 -0.00000000000E+00 -0.26274207811E+04  0.26274207811E+04  0.00000000000E+00 0.  1.
    9000010    2    1    2  502    0 -0.55653216629E+03 -0.18476435702E+03 -0.14344485391E+04  0.18281621053E+04  0.96988048337E+03 0.  0.
        -13    1    3    3    0    0 -0.79567662905E+03 -0.19350865260E+03 -0.77828553032E+03  0.11297235390E+04  0.10566000000E+00 0.  1.
         13    1    1    2    0    0  0.18329153112E+03 -0.30460067029E+03 -0.37682777811E+03  0.51805071107E+03  0.10566000000E+00 0. -1.
          2    1    1    2  501    0  0.37324063517E+03  0.48936502731E+03 -0.37608503402E+03  0.72126739460E+03  0.00000000000E+00 0.  1.
          4    1    3    3  502    0  0.23914446276E+03  0.87442955746E+01 -0.65616300879E+03  0.69843856629E+03  0.00000000000E+00 0.  1.
</event>
<event>
 7    1  0.4894942E-006  0.1416322E+04  0.7818608E-02  0.8535259E-01
          3   -1    0    0  501    0  0.00000000000E+00  0.00000000000E+00  0.75392968044E+03  0.75392968044E+03  0.00000000000E+00 0.  1.
         -4   -1    0    0    0  501 -0.00000000000E+00 -0.00000000000E+00 -0.33712522197E+04  0.33712522197E+04  0.00000000000E+00 0. -1.
   -9000010    2    1    2    0  502  0.27833121149E+03 -0.96232510523E+03 -0.10358098790E+04  0.17537488579E+04  0.99959745891E+03 0.  0.
        -13    1    1    2    0    0 -0.26891405000E+03  0.96728262351E+03 -0.18488665689E+04  0.21038674009E+04  0.10566000000E+00 0.  1.
         13    1    3    3    0    0  0.58987313577E+03 -0.85866441258E+03 -0.58103589509E+03  0.11928359536E+04  0.10566000000E+00 0. -1.
          3    1    1    2  502    0 -0.94171614949E+01 -0.49575182794E+01  0.26735390863E+03  0.26756564125E+03  0.00000000000E+00 0.  1.
         -4    1    3    3    0  502 -0.31154192428E+03 -0.10366069264E+03 -0.45477398387E+03  0.56091290428E+03  0.00000000000E+00 0. -1.
</event>
<event>
 7    1  0.4894942E-006  0.1027784E+04  0.7818608E-02  0.9060605E-01
          2   -1    0    0  501    0  0.00000000000E+00  0.00000000000E+00  0.15866760124E+04  0.15866760124E+04  0.00000000000E+00 0. -1.
         -4   -1    0    0    0  501 -0.00000000000E+00 -0.00000000000E+00 -0.38654516728E+03  0.38654516728E+03  0.00000000000E+00 0. -1.
   -9000010    2    1    2    0  502 -0.84622434767E+02 -0.25802939451E+03  0.12059149730E+04  0.15824364028E+04  0.98799489975E+03 0.  0.
        -13    1    1    2    0    0  0.10033041037E+03  0.26577331808E+03 -0.95248030442E+02  0.29962284011E+03  0.10566000000E+00 0.  1.
         13    1    3    3    0    0 -0.39562135017E+03 -0.15317419604E+03  0.10976678930E+03  0.43820924938E+03  0.10566000000E+00 0. -1.
          2    1    1    2  502    0 -0.15707975606E+02 -0.77439235701E+01  0.89463902575E+02  0.91161936760E+02  0.00000000000E+00 0. -1.
         -4    1    3    3    0  502  0.31099891541E+03 -0.10485519848E+03  0.10961481837E+04  0.11442271534E+04  0.00000000000E+00 0. -1.
</event>
<event>
 7    1  0.4894942E-006  0.1386736E+04  0.7818608E-02  0.8622372E-01
          2   -1    0    0  501    0  0.00000000000E+00  0.00000000000E+00  0.19084651640E+04  0.19084651640E+04  0.00000000000E+00 0. -1.
         -4   -1    0    0    0  501 -0.00000000000E+00 -0.00000000000E+00 -0.28173694977E+04  0.28173694977E+04  0.00000000000E+00 0. -1.
   -9000010    2    1    2    0  502  0.16766939813E+03  0.75336339626E+03 -0.15907395725E+04  0.21268214485E+04  0.11820523053E+04 0.  0.
        -13    1    1    2    0    0 -0.22094331297E+03 -0.66822216578E+03 -0.82751090850E+03  0.10863291975E+04  0.10566000000E+00 0.  1.
         13    1    3    3    0    0 -0.27493543834E+03  0.38179416267E+03 -0.40328344375E+02  0.47221040271E+03  0.10566000000E+00 0. -1.
          2    1    1    2  502    0  0.53273914843E+02 -0.85141230475E+02  0.15093461472E+04  0.15126840157E+04  0.00000000000E+00 0. -1.
         -4    1    3    3    0  502  0.44260483647E+03  0.37156923359E+03 -0.15504112281E+04  0.16546110458E+04  0.00000000000E+00 0. -1.
</event>
<event>
 7    1  0.4894942E-006  0.1031821E+04  0.7818608E-02  0.9126078E-01
          2   -1    0    0  502    0  0.00000000000E+00  0.00000000000E+00  0.10315715652E+04  0.10315715652E+04  0.00000000000E+00 0.  1.
          4   -1    0    0  501    0 -0.00000000000E+00 -0.00000000000E+00 -0.98948910823E+03  0.98948910823E+03  0.00000000000E+00 0.  1.
    9000010    2    1    2  502    0  0.32287863666E+02  0.20286437926E+03 -0.46937843396E+03  0.11316137634E+04  0.10089782617E+04 0.  0.
        -13    1    3    3    0    0 -0.48855295271E+02 -0.29128531222E+03  0.15312694585E+03  0.33268881211E+03  0.10566000000E+00 0.  1.
         13    1    1    2    0    0 -0.14900285358E+02 -0.21752977182E+03 -0.12583496535E+03  0.25174524782E+03  0.10566000000E+00 0. -1.
          2    1    1    2  501    0 -0.17387578308E+02  0.14665392552E+02  0.63729585630E+03  0.63770166228E+03  0.00000000000E+00 0.  1.
          4    1    3    3  502    0  0.81143158937E+02  0.49414969148E+03 -0.62250537981E+03  0.79892495125E+03  0.00000000000E+00 0.  1.
</event>
<event>
 7    1  0.4894942E-006  0.1023879E+04  0.7818608E-02  0.9181404E-01
          2   -1    0    0  502    0  0.00000000000E+00  0.00000000000E+00  0.58906873373E+03  0.58906873373E+03  0.00000000000E+00 0. -1.
          4   -1    0    0  501    0 -0.00000000000E+00 -0.00000000000E+00 -0.19769357592E+04  0.19769357592E+04  0.00000000000E+00 0.  1.
    9000010    2    1    2  502    0 -0.84707252537E+02 -0.14229738479E+03 -0.15740453059E+04  0.18766198536E+04  0.10082953861E+04 0.  0.
        -13    1    3    3    0    0  0.23804287983E+03 -0.35688456458E+03 -0.13761094189E+04  0.14414257349E+04  0.10566000000E+00 0.  1.
         13    1    1    2    0    0  0.86549334354E+02  0.15854340665E+03 -0.21899812683E+03  0.28387847715E+03  0.10566000000E+00 0. -1.
          2    1    1    2  501    0 -0.18420818161E+01 -0.16246021858E+02  0.40517640730E+03  0.40550616212E+03  0.00000000000E+00 0. -1.
          4    1    3    3  502    0 -0.32275013237E+03  0.21458717979E+03 -0.19793588699E+03  0.43519411879E+03  0.00000000000E+00 0.  1.
</event>
<event>
 7    1  0.4894942E-006  0.1083066E+04  0.7818608E-02  0.8937641E-01
          2   -1    0    0  502    0  0.00000000000E+00  0.00000000000E+00  0.87599347329E+03  0.87599347329E+03  0.00000000000E+00 0.  1.
          4   -1    0    0  501    0 -0.00000000000E+00 -0.00000000000E+00 -0.99928171234E+03  0.99928171234E+03  0.00000000000E+00 0.  1.
    9000010    2    1    2  502    0 -0.21777071646E+03 -0.31191120980E+03  0.39414195944E+02  0.10774139090E+04  0.10072509939E+04 0.  0.
        -13    1    3    3    0    0 -0.50994547506E+03 -0.85996444482E+01  0.29065000926E+03  0.58702281086E+03  0.10566000000E+00 0.  1.
         13    1    1    2    0    0  0.21577415554E+03  0.33774495235E+03 -0.39582651529E+03  0.56330167797E+03  0.10566000000E+00 0. -1.
          2    1    1    2  501    0  0.19965609258E+01 -0.25833742552E+02  0.23312408030E+03  0.23455959867E+03  0.00000000000E+00 0.  1.
          4    1    3    3  502    0  0.29217475860E+03 -0.30331156535E+03 -0.25123581332E+03  0.49039109814E+03  0.00000000000E+00 0.  1.
</event>
<event>
 7    1  0.4894942E-006  0.1149377E+04  0.7818608E-02  0.8812092E-01
          2   -1    0    0  502    0  0.00000000000E+00  0.00000000000E+00  0.15510607934E+04  0.15510607934E+04  0.00000000000E+00 0.  1.
          4   -1    0    0  501    0 -0.00000000000E+00 -0.00000000000E+00 -0.75802463234E+03  0.75802463234E+03  0.00000000000E+00 0.  1.
    9000010    2    1    2  502    0  0.45417510737E+03  0.58027909072E+02  0.79363144464E+03  0.13582964770E+04  0.10027343533E+04 0.  0.
        -13    1    3    3    0    0 -0.13553580535E+03  0.21914147173E+03  0.69221630535E+03  0.73861787395E+03  0.10566000000E+00 0.  1.
         13    1    1    2    0    0 -0.57259856574E+03 -0.87834036993E+02 -0.28180894972E+03  0.64420511551E+03  0.10566000000E+00 0. -1.
          2    1    1    2  501    0  0.11842345837E+03  0.29806127921E+02  0.28121366615E+03  0.30658383321E+03  0.00000000000E+00 0.  1.
          4    1    3    3  502    0  0.58971091272E+03 -0.16111356265E+03  0.10141513930E+03  0.61967860309E+03  0.00000000000E+00 0.  1.
</event>
<event>
 7    1  0.4894942E-006  0.1008148E+04  0.7818608E-02  0.8970036E-01
          2   -1    0    0  501    0  0.00000000000E+00  0.00000000000E+00  0.82457349049E+03  0.82457349049E+03  0.00000000000E+00 0. -1.
         -4   -1    0    0    0  501 -0.00000000000E+00 -0.00000000000E+00 -0.77690372879E+03  0.77690372879E+03  0.00000000000E+00 0. -1.
   -9000010    2    1    2    0  502 -0.62179146395E+02 -0.45030263868E+03  0.19768336711E+03  0.10368910414E+04  0.91072806339E+03 0.  0.
        -13    1    1    2    0    0  0.50876092733E+02  0.42469766096E+03 -0.22588610419E+03  0.48371584972E+03  0.10566000000E+00 0.  1.
         13    1    3    3    0    0 -0.36579189397E+03 -0.52284270474E+03  0.30441385878E+03  0.70699081478E+03  0.10566000000E+00 0. -1.
          2    1    1    2  502    0  0.11303053662E+02  0.25604977721E+02  0.75872498780E+02  0.80870328164E+02  0.00000000000E+00 0. -1.
         -4    1    3    3    0  502  0.30361274757E+03  0.72540066065E+02 -0.10673049167E+03  0.32990022662E+03  0.00000000000E+00 0. -1.
</event>
<event>
 7    1  0.4894942E-006  0.1127623E+04  0.7818608E-02  0.9035682E-01
         -4   -1    0    0    0  501 -0.00000000000E+00  0.00000000000E+00  0.10616672179E+04  0.10616672179E+04  0.00000000000E+00 0. -1.
          4   -1    0    0  501    0  0.00000000000E+00 -0.00000000000E+00 -0.10264273651E+04  0.10264273651E+04  0.00000000000E+00 0.  1.
   -9000010    2    1    2    0  502 -0.32866923838E+03  0.21992387027E+03  0.23946592212E+03  0.10880920701E+04  0.98499261329E+03 0.  0.
        -13    1    1    2    0    0 -0.49689515132E+02  0.23167349133E+03  0.17919643296E+03  0.29707411070E+03  0.10566000000E+00 0.  1.
         13    1    3    3    0    0 -0.58191446125E+03 -0.13258027401E+03  0.95205883876E+01  0.59690252306E+03  0.10566000000E+00 0. -1.
          4    1    1    2  502    0  0.37835875352E+03 -0.45159736160E+03 -0.38342250227E+03  0.70292840219E+03  0.00000000000E+00 0.  1.
         -4    1    3    3    0  502  0.25324522287E+03  0.35250414428E+03  0.22994533373E+03  0.49118954706E+03  0.00000000000E+00 0. -1.
</event>
<event>
 7    1  0.4894942E-006  0.1128064E+04  0.7818608E-02  0.8893401E-01
          4   -1    0    0  501    0 -0.00000000000E+00  0.00000000000E+00  0.21319261722E+04  0.21319261722E+04  0.00000000000E+00 0.  1.
          2   -1    0    0  502    0  0.00000000000E+00 -0.00000000000E+00 -0.92975880900E+03  0.92975880900E+03  0.00000000000E+00 0.  1.
    9000010    2    1    2  502    0  0.25586860148E+03  0.61993907593E+03  0.31122507190E+03  0.12449878406E+04  0.10016688469E+04 0.  0.
        -13    1    3    3    0    0  0.80068757126E+01  0.37390649411E+03 -0.34037798520E+03  0.50569492816E+03  0.10566000000E+00 0.  1.
         13    1    1    2    0    0  0.19481558225E+03 -0.37532013427E+03  0.11620862192E+04  0.12366336184E+04  0.10566000000E+00 0. -1.
          2    1    1    2  501    0 -0.45068418373E+03 -0.24461894166E+03 -0.27114392787E+03  0.58006352213E+03  0.00000000000E+00 0.  1.
          4    1    3    3  502    0  0.24786172577E+03  0.24603258182E+03  0.65160305710E+03  0.73929291248E+03  0.00000000000E+00 0.  1.
</event>
<event>
 7    1  0.4894942E-006  0.9962627E+03  0.7818608E-02  0.9021202E-01
          2   -1    0    0  501    0  0.00000000000E+00  0.00000000000E+00  0.14814961234E+04  0.14814961234E+04  0.00000000000E+00 0.  1.
         -4   -1    0    0    0  501 -0.00000000000E+00 -0.00000000000E+00 -0.16034105741E+04  0.16034105741E+04  0.00000000000E+00 0. -1.
   -9000010    2    1    2    0  502 -0.11601996656E+03  0.34199893270E+03 -0.12097632593E+04  0.15664859719E+04  0.92732262670E+03 0.  0.
        -13    1    1    2    0    0  0.14007261689E+03 -0.33939250719E+03 -0.58520623034E+02  0.37179602798E+03  0.10566000000E+00 0.  1.
         13    1    3    3    0    0 -0.13251515938E+03  0.19707587114E+03 -0.13460648949E+04  0.13668540079E+04  0.10566000000E+00 0. -1.
          2    1    1    2  502    0 -0.24052650323E+02 -0.26064255072E+01  0.11463694316E+04  0.11466246976E+04  0.00000000000E+00 0.  1.
         -4    1    3    3    0  502  0.16495192821E+02  0.14492306155E+03  0.13630163565E+03  0.19963196396E+03  0.00000000000E+00 0. -1.
</event>
<event>
 7    1  0.4894942E-006  0.1324090E+04  0.7818608E-02  0.8893328E-01
          2   -1    0    0  502    0  0.00000000000E+00  0.00000000000E+00  0.13958160991E+04  0.13958160991E+04  0.00000000000E+00 0.  1.
          4   -1    0    0  501    0 -0.00000000000E+00 -0.00000000000E+00 -0.13858560470E+04  0.13858560470E+04  0.00000000000E+00 0.  1.
    9000010    2    1    2  502    0 -0.60848188456E+03  0.20195204538E+03 -0.58004897648E+03  0.13440979142E+04  0.10291295135E+04 0.  0.
        -13    1    3    3    0    0 -0.16672485443E+03 -0.30935511606E+03  0.11979963289E+03  0.37128119818E+03  0.10566000000E+00 0.  1.
         13    1    1    2    0    0 -0.25503595221E+03 -0.58090627435E+02 -0.14093364957E+03  0.29711977831E+03  0.10566000000E+00 0. -1.
          2    1    1    2  501    0  0.86351783677E+03 -0.14386141794E+03  0.73094267808E+03  0.11404544536E+04  0.00000000000E+00 0.  1.
          4    1    3    3  502    0 -0.44175703013E+03  0.51130716144E+03 -0.69984860938E+03  0.97281671607E+03  0.00000000000E+00 0.  1.
</event>
<event>
 7    1  0.4894942E-006  0.1193107E+04  0.7818608E-02  0.8751290E-01
         -4   -1    0    0    0  501 -0.00000000000E+00  0.00000000000E+00  0.29553566415E+04  0.29553566415E+04  0.00000000000E+00 0. -1.
          2   -1    0    0  501    0  0.00000000000E+00 -0.00000000000E+00 -0.80066429963E+03  0.80066429963E+03  0.00000000000E+00 0. -1.
   -9000010    2    1    2    0  502  0.96005056980E+02  0.74017037555E+03  0.23084318690E+04  0.26242068150E+04  0.10002672435E+04 0.  0.
        -13    1    1    2    0    0  0.26051192199E+03 -0.52025168341E+03  0.16576247524E+03  0.60498387165E+03  0.10566000000E+00 0.  1.
         13    1    3    3    0    0 -0.24238026815E+03 -0.10109945079E+03  0.20339519026E+03  0.33217300902E+03  0.10566000000E+00 0. -1.
          2    1    1    2  502    0 -0.35651697897E+03 -0.21991869214E+03 -0.31950200241E+03  0.52683025444E+03  0.00000000000E+00 0. -1.
         -4    1    3    3    0  502  0.33838532513E+03  0.84126982634E+03  0.21050366787E+04  0.22920338060E+04  0.00000000000E+00 0. -1.
</event>
<event>
 7    1  0.4894942E-006  0.1130414E+04  0.7818608E-02  0.8834798E-01
          2   -1    0    0  502    0  0.00000000000E+00  0.00000000000E+00  0.27209560452E+04  0.27209560452E+04  0.00000000000E+00 0.  1.
          4   -1    0    0  501    0 -0.00000000000E+00 -0.00000000000E+00 -0.50161974975E+03  0.50161974975E+03  0.00000000000E+00 0.  1.
    9000010    2    1    2  502    0 -0.58328467827E+03 -0.45529088659E+03  0.14241185544E+04  0.18882379619E+04  0.99489604300E+03 0.  0.
        -13    1    3    3    0    0 -0.32369850359E+03 -0.53412524563E+03  0.23298114128E+03  0.66659637158E+03  0.10566000000E+00 0.  1.
         13    1    1    2    0    0  0.25378388090E+03  0.44251133726E+03  0.41692916249E+02  0.51182111351E+03  0.10566000000E+00 0. -1.
          2    1    1    2  501    0  0.32950079737E+03  0.12779549330E+02  0.75352482485E+03  0.82251671960E+03  0.00000000000E+00 0.  1.
          4    1    3    3  502    0 -0.25958617468E+03  0.78834359033E+02  0.11911374131E+04  0.12216415903E+04  0.00000000000E+00 0.  1.
</event>
<event>
 7    1  0.4894942E-006  0.1390462E+04  0.7818608E-02  0.8560470E-01
          4   -1    0    0  501    0  0.00000000000E+00  0.00000000000E+00  0.20431768992E+04  0.20431768992E+04  0.00000000000E+00 0. -1.
          4   -1    0    0  502    0 -0.00000000000E+00 -0.00000000000E+00 -0.17888551494E+04  0.17888551494E+04  0.00000000000E+00 0.  1.
    9000010    2    1    2  501    0  0.76766544540E+03 -0.44343750435E+03 -0.77287512344E+03  0.15556071752E+04  0.10181506130E+04 0.  0.
        -13    1    3    3    0    0  0.96120760722E+03 -0.47459849254E+03 -0.82507394965E+03  0.13527419661E+04  0.10566000000E+00 0.  1.
         13    1    1    2    0    0 -0.81880181144E+03  0.59784466226E+03 -0.20431806245E+03  0.10342149334E+04  0.10566000000E+00 0. -1.
          4    1    3    3  501    0 -0.19354216182E+03  0.31160988192E+02  0.52198826213E+02  0.20286520906E+03  0.00000000000E+00 0.  1.
          4    1    1    2  502    0  0.51136366035E+02 -0.15440715791E+03  0.12315149357E+04  0.12422099400E+04  0.00000000000E+00 0. -1.
</event>
<event>
 7    1  0.4894942E-006  0.1046818E+04  0.7818608E-02  0.9001253E-01
          1   -1    0    0  501    0  0.00000000000E+00  0.00000000000E+00  0.18913221883E+04  0.18913221883E+04  0.00000000000E+00 0. -1.
         -4   -1    0    0    0  501 -0.00000000000E+00 -0.00000000000E+00 -0.70800031557E+03  0.70800031557E+03  0.00000000000E+00 0. -1.
   -9000010    2    1    2    0  502  0.24401963759E+03  0.25265923326E+03 -0.23022437037E+03  0.10753885187E+04  0.98998734020E+03 0.  0.
        -13    1    1    2    0    0 -0.26355948686E+03 -0.19775615883E+03  0.44538638280E+03  0.55402178894E+03  0.10566000000E+00 0.  1.
         13    1    3    3    0    0  0.98993660870E+02  0.62812112008E+03 -0.61100733904E+02  0.63880294084E+03  0.10566000000E+00 0. -1.
          1    1    1    2  502    0  0.19539849271E+02 -0.54903074425E+02  0.96815986030E+03  0.96991219623E+03  0.00000000000E+00 0. -1.
         -4    1    3    3    0  502  0.14502597672E+03 -0.37546188682E+03 -0.16912363647E+03  0.43658557785E+03  0.00000000000E+00 0. -1.
</event>
<event>
 7    1  0.4894942E-006  0.1164492E+04  0.7818608E-02  0.8797308E-01
          2   -1    0    0  502    0  0.00000000000E+00  0.00000000000E+00  0.97300828730E+03  0.97300828730E+03  0.00000000000E+00 0.  1.
          4   -1    0    0  501    0 -0.00000000000E+00 -0.00000000000E+00 -0.16114660463E+04  0.16114660463E+04  0.00000000000E+00 0.  1.
    9000010    2    1    2  502    0 -0.18576099123E+03  0.49651291453E+03 -0.91717515064E+02  0.11466557542E+04  0.10126080663E+04 0.  0.
        -13    1    3    3    0    0  0.24437311095E+03  0.60577130073E+03  0.10433679041E+03  0.66148564848E+03  0.10566000000E+00 0.  1.
         13    1    1    2    0    0  0.22634640208E+03 -0.53660686819E+03 -0.90436868591E+03  0.10756683299E+04  0.10566000000E+00 0. -1.
          2    1    1    2  501    0 -0.40585410857E+02  0.40093953663E+02  0.35762844198E+03  0.36215024949E+03  0.00000000000E+00 0.  1.
          4    1    3    3  502    0 -0.43013410217E+03 -0.10925838621E+03 -0.19605430547E+03  0.48517010574E+03  0.00000000000E+00 0.  1.
</event>
<event>
 7    1  0.4894942E-006  0.1121714E+04  0.7818608E-02  0.8850230E-01
          2   -1    0    0  501    0  0.00000000000E+00  0.00000000000E+00  0.64290808828E+03  0.64290808828E+03  0.00000000000E+00 0. -1.
         -4   -1    0    0    0  501 -0.00000000000E+00 -0.00000000000E+00 -0.16483563946E+04  0.16483563946E+04  0.00000000000E+00 0. -1.
   -9000010    2    1    2    0  502  0.28517672341E+02 -0.50682242972E+03 -0.56599024718E+03  0.12534793867E+04  0.99658586190E+03 0.  0.
        -13    1    1    2    0    0 -0.18798671261E+02  0.51641385001E+03 -0.64798749960E+03  0.82880906445E+03  0.10566000000E+00 0.  1.
         13    1    3    3    0    0 -0.37031433757E+03 -0.41715814450E+03 -0.62805931767E+03  0.84000722842E+03  0.10566000000E+00 0. -1.
          2    1    1    2  502    0 -0.97190010802E+01 -0.95914202906E+01  0.20852944041E+03  0.20897603174E+03  0.00000000000E+00 0. -1.
         -4    1    3    3    0  502  0.39883200991E+03 -0.89664285219E+02  0.62069070493E+02  0.41347215830E+03  0.00000000000E+00 0. -1.
</event>
<event>
 7    1  0.4894942E-006  0.1041038E+04  0.7818608E-02  0.9069508E-01
          4   -1    0    0  501    0 -0.00000000000E+00  0.00000000000E+00  0.69389833114E+03  0.69389833114E+03  0.00000000000E+00 0.  1.
          2   -1    0    0  502    0  0.00000000000E+00 -0.00000000000E+00 -0.83009155528E+03  0.83009155528E+03  0.00000000000E+00 0.  1.
    9000010    2    1    2  502    0 -0.10324196634E+03  0.19502479217E+03 -0.59888361247E+02  0.10328892268E+04  0.10072636030E+04 0.  0.
        -13    1    3    3    0    0 -0.31495445775E+03 -0.28536300097E+03  0.17263455841E+03  0.45872764763E+03  0.10566000000E+00 0.  1.
         13    1    1    2    0    0  0.75243990809E+02 -0.26011307407E+03  0.10962552777E+03  0.29212709042E+03  0.10566000000E+00 0. -1.
          2    1    1    2  501    0  0.27997975527E+02  0.65088281895E+02 -0.18593039066E+03  0.19897356921E+03  0.00000000000E+00 0.  1.
          4    1    3    3  502    0  0.21171249142E+03  0.48038779314E+03 -0.23252291966E+03  0.57416157916E+03  0.00000000000E+00 0.  1.
</event>
<event>
 7    1  0.4894942E-006  0.1060729E+04  0.7818608E-02  0.8893350E-01
          2   -1    0    0  502    0  0.00000000000E+00  0.00000000000E+00  0.15202446425E+04  0.15202446425E+04  0.00000000000E+00 0. -1.
          4   -1    0    0  501    0 -0.00000000000E+00 -0.00000000000E+00 -0.23975122818E+04  0.23975122818E+04  0.00000000000E+00 0.  1.
    9000010    2    1    2  502    0  0.28925198328E+03  0.40390684272E+03 -0.10215208750E+04  0.14685553312E+04  0.93077516904E+03 0.  0.
        -13    1    3    3    0    0 -0.31772929429E+03  0.29854937328E+03 -0.47850404725E+03  0.64734053414E+03  0.10566000000E+00 0.  1.
         13    1    1    2    0    0 -0.29044509781E+03 -0.42137502188E+03 -0.10955934540E+04  0.12092312812E+04  0.10566000000E+00 0. -1.
          2    1    1    2  501    0  0.11931145294E+01  0.17468179156E+02  0.12398466896E+04  0.12399703119E+04  0.00000000000E+00 0. -1.
          4    1    3    3  502    0  0.60698127757E+03  0.10535746944E+03 -0.54301682770E+03  0.82121479703E+03  0.00000000000E+00 0.  1.
</event>
<event>
 7    1  0.4894942E-006  0.1119103E+04  0.7818608E-02  0.8880798E-01
          4   -1    0    0  501    0 -0.00000000000E+00  0.00000000000E+00  0.49947480910E+03  0.49947480910E+03  0.00000000000E+00 0.  1.
          2   -1    0    0  502    0  0.00000000000E+00 -0.00000000000E+00 -0.22785160565E+04  0.22785160565E+04  0.00000000000E+00 0. -1.
    9000010    2    1    2  502    0 -0.31196522757E+03 -0.27285144349E+03 -0.39722769967E+03  0.11720393629E+04  0.10218200475E+04 0.  0.
        -13    1    3    3    0    0 -0.59747099164E+02  0.35403799268E+03 -0.33902507180E+03  0.49381233945E+03  0.10566000000E+00 0.  1.
         13    1    1    2    0    0  0.38794839056E+03  0.29163626697E+03 -0.42257721282E+03  0.64352713844E+03  0.10566000000E+00 0. -1.
          2    1    1    2  501    0 -0.75983162990E+02 -0.18784823482E+02 -0.95923633492E+03  0.96242436424E+03  0.00000000000E+00 0. -1.
          4    1    3    3  502    0 -0.25221812841E+03 -0.62688943617E+03 -0.58202627866E+02  0.67822702348E+03  0.00000000000E+00 0.  1.
</event>
<event>
 7    1  0.4894942E-006  0.1052899E+04  0.7818608E-02  0.9010236E-01
          2   -1    0    0  501    0  0.00000000000E+00  0.00000000000E+00  0.24286963422E+04  0.24286963422E+04  0.00000000000E+00 0.  1.
         -4   -1    0    0    0  501 -0.00000000000E+00 -0.00000000000E+00 -0.18609156362E+04  0.18609156362E+04  0.00000000000E+00 0. -1.
   -9000010    2    1    2    0  502 -0.18639649736E+03 -0.27947594407E+03 -0.11257711785E+04  0.15442915351E+04  0.10023099029E+04 0.  0.
        -13    1    1    2    0    0  0.21298658135E+03  0.23872150599E+03 -0.47692958573E+03  0.57429355052E+03  0.10566000000E+00 0.  1.
         13    1    3    3    0    0 -0.16348003076E+03 -0.63357406277E+03 -0.49464384595E+03  0.82025261900E+03  0.10566000000E+00 0. -1.
          2    1    1    2  502    0 -0.26590083994E+02  0.40754438073E+02  0.21704814702E+04  0.21710268928E+04  0.00000000000E+00 0.  1.
         -4    1    3    3    0  502 -0.22916466599E+02  0.35409811871E+03 -0.63112733256E+03  0.72403891609E+03  0.00000000000E+00 0. -1.
</event>
<event>
 7    1  0.4894942E-006  0.1024929E+04  0.7818608E-02  0.9133147E-01
          4   -1    0    0  501    0 -0.00000000000E+00  0.00000000000E+00  0.23812145506E+04  0.23812145506E+04  0.00000000000E+00 0.  1.
          2   -1    0    0  502    0  0.00000000000E+00 -0.00000000000E+00 -0.15983116694E+04  0.15983116694E+04  0.00000000000E+00 0. -1.
    9000010    2    1    2  502    0 -0.16435724344E+03  0.16114301103E+03  0.21324681326E+04  0.23674826047E+04  0.10022839785E+04 0.  0.
        -13    1    3    3    0    0  0.13781040445E+03  0.48518387729E+03  0.66531916397E+03  0.83489203102E+03  0.10566000000E+00 0.  1.
         13    1    1    2    0    0  0.12702052118E+03 -0.15983026524E+03  0.51442324934E+02  0.21053800238E+03  0.10566000000E+00 0. -1.
          2    1    1    2  501    0  0.37336722261E+02 -0.13127457930E+01 -0.14010075763E+04  0.14015056129E+04  0.00000000000E+00 0. -1.
          4    1    3    3  502    0 -0.30216764789E+03 -0.32404086625E+03  0.14671489687E+04  0.15325905737E+04  0.00000000000E+00 0.  1.
</event>
<event>
 7    1  0.4894942E-006  0.1054818E+04  0.7818608E-02  0.8984104E-01
          2   -1    0    0  501    0  0.00000000000E+00  0.00000000000E+00  0.19926919383E+04  0.19926919383E+04  0.00000000000E+00 0. -1.
         -4   -1    0    0    0  501 -0.00000000000E+00 -0.00000000000E+00 -0.74935553589E+03  0.74935553589E+03  0.00000000000E+00 0. -1.
   -9000010    2    1    2    0  502  0.37880111853E+03  0.31225259091E+02 -0.52791216612E+02  0.10643380139E+04  0.99275535306E+03 0.  0.
        -13    1    1    2    0    0 -0.34894905476E+03  0.29481055849E+02 -0.28505108527E+02  0.35135043453E+03  0.10566000000E+00 0.  1.
         13    1    3    3    0    0 -0.89393850229E+02  0.25961671163E+03  0.32156741218E+03  0.42284478140E+03  0.10566000000E+00 0. -1.
          2    1    1    2  502    0 -0.29852063770E+02 -0.60706314940E+02  0.13246327275E+04  0.13263590258E+04  0.00000000000E+00 0. -1.
         -4    1    3    3    0  502  0.46819496876E+03 -0.22839145254E+03 -0.37435862880E+03  0.64149323248E+03  0.00000000000E+00 0. -1.
</event>
<event>
 7    1  0.4894942E-006  0.1041363E+04  0.7818608E-02  0.9064323E-01
          2   -1    0    0  502    0  0.00000000000E+00  0.00000000000E+00  0.94017627294E+03  0.94017627294E+03  0.00000000000E+00 0.  1.
          4   -1    0    0  501    0 -0.00000000000E+00 -0.00000000000E+00 -0.60271311382E+03  0.60271311382E+03  0.00000000000E+00 0.  1.
    9000010    2    1    2  502    0 -0.22170437636E+03 -0.18808921799E+03  0.43564749888E+03  0.11343675227E+04  0.10062159554E+04 0.  0.
        -13    1    3    3    0    0 -0.51360420686E+03 -0.10973073829E+03  0.59422866575E+03  0.79305600975E+03  0.10566000000E+00 0.  1.
         13    1    1    2    0    0  0.21071998328E+03  0.16277454539E+03 -0.18051511706E+03  0.32168957495E+03  0.10566000000E+00 0. -1.
          2    1    1    2  501    0  0.10984393073E+02  0.25314672594E+02  0.82330777300E+02  0.86832289101E+02  0.00000000000E+00 0.  1.
          4    1    3    3  502    0  0.29189983051E+03 -0.78358479698E+02 -0.15858116687E+03  0.34131151296E+03  0.00000000000E+00 0.  1.
</event>
<event>
 7    1  0.4894942E-006  0.1408835E+04  0.7818608E-02  0.8561261E-01
          2   -1    0    0  501    0  0.00000000000E+00  0.00000000000E+00  0.29202019338E+04  0.29202019338E+04  0.00000000000E+00 0.  1.
         -4   -1    0    0    0  501 -0.00000000000E+00 -0.00000000000E+00 -0.11948374897E+04  0.11948374897E+04  0.00000000000E+00 0. -1.
   -9000010    2    1    2    0  502 -0.16358254228E+03 -0.10056489057E+04 -0.21477973247E+03  0.14986799210E+04  0.10778785658E+04 0.  0.
        -13    1    1    2    0    0 -0.19008323619E+03  0.82022337168E+03  0.24798575250E+03  0.87772145966E+03  0.10566000000E+00 0.  1.
         13    1    3    3    0    0 -0.18607216835E+03  0.47024757846E+02 -0.38680935910E+03  0.43180513098E+03  0.10566000000E+00 0. -1.
          2    1    1    2  502    0  0.35366577848E+03  0.18542553401E+03  0.16921584241E+04  0.17386380427E+04  0.00000000000E+00 0.  1.
         -4    1    3    3    0  502  0.22489626068E+02 -0.10526736635E+04  0.17202962663E+03  0.10668747900E+04  0.00000000000E+00 0. -1.
</event>
<event>
 7    1  0.4894942E-006  0.1029232E+04  0.7818608E-02  0.9096767E-01
          1   -1    0    0  501    0  0.00000000000E+00  0.00000000000E+00  0.50390144582E+03  0.50390144582E+03  0.00000000000E+00 0. -1.
         -4   -1    0    0    0  501 -0.00000000000E+00 -0.00000000000E+00 -0.21336944424E+04  0.21336944424E+04  0.00000000000E+00 0. -1.
   -9000010    2    1    2    0  502 -0.13814621139E+03  0.16298121846E+03 -0.97599593093E+03  0.14134636909E+04  0.99983213348E+03 0.  0.
        -13    1    1    2    0    0  0.97241317288E+02 -0.22726673679E+03 -0.91720130272E+03  0.94992856801E+03  0.10566000000E+00 0.  1.
         13    1    3    3    0    0  0.22866017371E+02 -0.35589934481E+03 -0.73935908569E+03  0.82087701098E+03  0.10566000000E+00 0. -1.
          1    1    1    2  502    0  0.40904894104E+02  0.64285518339E+02  0.26340423704E+03  0.27420362930E+03  0.00000000000E+00 0. -1.
         -4    1    3    3    0  502 -0.16101222876E+03  0.51888056327E+03 -0.23663684523E+03  0.59258667996E+03  0.00000000000E+00 0. -1.
</event>
<event>
 7    1  0.4894942E-006  0.1042287E+04  0.7818608E-02  0.9056246E-01
         -4   -1    0    0    0  501 -0.00000000000E+00  0.00000000000E+00  0.19742405509E+04  0.19742405509E+04  0.00000000000E+00 0. -1.
          4   -1    0    0  501    0  0.00000000000E+00 -0.00000000000E+00 -0.43900140508E+03  0.43900140508E+03  0.00000000000E+00 0.  1.
   -9000010    2    1    2    0  502  0.74551172816E+02  0.80061655687E+01  0.11127621998E+04  0.15012897283E+04  0.10049921188E+04 0.  0.
        -13    1    1    2    0    0 -0.41356689826E+03 -0.13653701064E+03  0.15848728505E+03  0.46346322972E+03  0.10566000000E+00 0.  1.
         13    1    3    3    0    0  0.13912817197E+03 -0.48691680781E+03  0.61067452374E+03  0.79332717783E+03  0.10566000000E+00 0. -1.
          4    1    1    2  502    0  0.33901572544E+03  0.12853084508E+03  0.26398966099E+03  0.44848899802E+03  0.00000000000E+00 0.  1.
         -4    1    3    3    0  502 -0.64576999150E+02  0.49492297338E+03  0.50208767608E+03  0.70796255047E+03  0.00000000000E+00 0. -1.
</event>
<event>
 7    1  0.4894942E-006  0.1032220E+04  0.7818608E-02  0.9169633E-01
          2   -1    0    0  502    0  0.00000000000E+00  0.00000000000E+00  0.13213950428E+04  0.13213950428E+04  0.00000000000E+00 0.  1.
          4   -1    0    0  501    0 -0.00000000000E+00 -0.00000000000E+00 -0.73358260159E+03  0.73358260159E+03  0.00000000000E+00 0.  1.
    9000010    2    1    2  502    0 -0.12603939705E+03 -0.28774375197E+03  0.53333825959E+03  0.11682273054E+04  0.99076886384E+03 0.  0.
        -13    1    3    3    0    0 -0.57637592971E+02  0.21112672008E+03  0.61981440365E+03  0.65731764786E+03  0.10566000000E+00 0.  1.
         13    1    1    2    0    0 -0.12334430640E+03  0.13359429618E+03 -0.34574153765E+03  0.39063854894E+03  0.10566000000E+00 0. -1.
          2    1    1    2  501    0  0.24938370345E+03  0.15414945579E+03  0.40021571928E+03  0.49611179005E+03  0.00000000000E+00 0.  1.
          4    1    3    3  502    0 -0.68401804083E+02 -0.49887047205E+03 -0.86476144063E+02  0.51090965755E+03  0.00000000000E+00 0.  1.
</event>
<event>
 7    1  0.4894942E-006  0.2342429E+04  0.7818608E-02  0.8050984E-01
         -4   -1    0    0    0  501 -0.00000000000E+00  0.00000000000E+00  0.25312282369E+04  0.25312282369E+04  0.00000000000E+00 0. -1.
          2   -1    0    0  501    0  0.00000000000E+00 -0.00000000000E+00 -0.24368855290E+04  0.24368855290E+04  0.00000000000E+00 0.  1.
   -9000010    2    1    2    0  502  0.21696085364E+04 -0.48513143893E+03  0.15010858683E+03  0.23362092456E+04  0.70198813152E+03 0.  0.
        -13    1    1    2    0    0 -0.21849354738E+04  0.51679067438E+03  0.30817157418E+03  0.22662712450E+04  0.10566000000E+00 0.  1.
         13    1    3    3    0    0  0.21493786349E+04 -0.56662336893E+03  0.21053705486E+03  0.22327598216E+04  0.10566000000E+00 0. -1.
          2    1    1    2  502    0  0.15326937337E+02 -0.31659235453E+02 -0.36393745310E+03  0.36563327524E+03  0.00000000000E+00 0.  1.
         -4    1    3    3    0  502  0.20229901570E+02  0.81491930006E+02 -0.60428468028E+02  0.10344942398E+03  0.00000000000E+00 0. -1.
</event>
<event>
 7    1  0.4894942E-006  0.1117632E+04  0.7818608E-02  0.8820862E-01
         -4   -1    0    0    0  501 -0.00000000000E+00  0.00000000000E+00  0.24080566013E+04  0.24080566013E+04  0.00000000000E+00 0. -1.
          2   -1    0    0  501    0  0.00000000000E+00 -0.00000000000E+00 -0.10271454178E+04  0.10271454178E+04  0.00000000000E+00 0. -1.
   -9000010    2    1    2    0  502  0.16561156711E+03  0.58496704398E+03  0.70922303502E+03  0.13322897946E+04  0.94993955053E+03 0.  0.
        -13    1    1    2    0    0 -0.12886374512E+03 -0.57081551677E+03  0.13249718199E+04  0.14484428031E+04  0.10566000000E+00 0.  1.
         13    1    3    3    0    0  0.29834964562E+03 -0.17018329626E+03  0.11487396778E+03  0.36217524074E+03  0.10566000000E+00 0. -1.
          2    1    1    2  502    0 -0.36747821996E+02 -0.14151527208E+02 -0.65328367145E+03  0.65446942138E+03  0.00000000000E+00 0. -1.
         -4    1    3    3    0  502 -0.13273807851E+03  0.75515034024E+03  0.59434906723E+03  0.97011455384E+03  0.00000000000E+00 0. -1.
</event>
<event>
 7    1  0.4894942E-006  0.9812348E+03  0.7818608E-02  0.9560098E-01
         -4   -1    0    0    0  501 -0.00000000000E+00  0.00000000000E+00  0.21649325772E+04  0.21649325772E+04  0.00000000000E+00 0. -1.
          1   -1    0    0  501    0  0.00000000000E+00 -0.00000000000E+00 -0.90504736452E+03  0.90504736452E+03  0.00000000000E+00 0.  1.
   -9000010    2    1    2    0  502  0.47608098539E+01 -0.38194372402E+02  0.20147666048E+04  0.22407972437E+04  0.98000323473E+03 0.  0.
        -13    1    1    2    0    0 -0.23148349561E+02  0.45589800782E+02  0.19371116852E+02  0.54676570438E+02  0.10566000000E+00 0.  1.
         13    1    3    3    0    0  0.85685702143E+01  0.45665230582E+03  0.12403749070E+04  0.13217922189E+04  0.10566000000E+00 0. -1.
          1    1    1    2  502    0  0.18387539707E+02 -0.73954283802E+01 -0.77425250899E+03  0.77450612758E+03  0.00000000000E+00 0.  1.
         -4    1    3    3    0  502 -0.38077603604E+01 -0.49484667822E+03  0.77439169777E+03  0.91900502478E+03  0.00000000000E+00 0. -1.
</event>
<event>
 7    1  0.4894942E-006  0.1190017E+04  0.7818608E-02  0.8757071E-01
          2   -1    0    0  502    0  0.00000000000E+00  0.00000000000E+00  0.18403899337E+04  0.18403899337E+04  0.00000000000E+00 0.  1.
          4   -1    0    0  501    0 -0.00000000000E+00 -0.00000000000E+00 -0.55246540700E+03  0.55246540700E+03  0.00000000000E+00 0.  1.
    9000010    2    1    2  502    0  0.31069071156E+03  0.49915848137E+03  0.10485840468E+04  0.15660394047E+04  0.10036249329E+04 0.  0.
        -13    1    3    3    0    0 -0.80576653345E+02  0.36239115408E+03  0.10880906196E+04  0.11496787174E+04  0.10566000000E+00 0.  1.
         13    1    1    2    0    0 -0.33214039243E+03 -0.56359053418E+03  0.86890941742E+02  0.65992543323E+03  0.10566000000E+00 0. -1.
          2    1    1    2  501    0  0.21449680878E+02  0.64432052808E+02  0.15244953810E+03  0.16689050274E+03  0.00000000000E+00 0.  1.
          4    1    3    3  502    0  0.39126736490E+03  0.13676732730E+03 -0.39506572751E+02  0.41636068732E+03  0.00000000000E+00 0.  1.
</event>
<event>
 7    1  0.4894942E-006  0.9912589E+03  0.7818608E-02  0.9774247E-01
         -4   -1    0    0    0  502 -0.00000000000E+00  0.00000000000E+00  0.13693517490E+04  0.13693517490E+04  0.00000000000E+00 0. -1.
         -2   -1    0    0    0  501  0.00000000000E+00 -0.00000000000E+00 -0.42577086243E+03  0.42577086243E+03  0.00000000000E+00 0. -1.
   -9000010    2    1    2    0  501 -0.49031948421E+01  0.34193004976E+02  0.10823144874E+04  0.14678849299E+04  0.99100369057E+03 0.  0.
        -13    1    1    2    0    0  0.14937105875E+02 -0.16755003409E+02  0.92472512060E+02  0.95157889436E+02  0.10566000000E+00 0.  1.
         13    1    3    3    0    0  0.47354168163E+03 -0.10816775686E+03  0.44876078620E+03  0.66130797837E+03  0.10566000000E+00 0. -1.
         -2    1    1    2    0  502 -0.10033911033E+02 -0.17438001567E+02 -0.23120611291E+03  0.23207979214E+03  0.00000000000E+00 0. -1.
         -4    1    3    3    0  501 -0.47844487648E+03  0.14236076183E+03  0.63355370121E+03  0.80657695148E+03  0.00000000000E+00 0. -1.
</event>
<event>
 7    1  0.4894942E-006  0.1066657E+04  0.7818608E-02  0.8977813E-01
          4   -1    0    0  501    0 -0.00000000000E+00  0.00000000000E+00  0.42806574591E+03  0.42806574591E+03  0.00000000000E+00 0.  1.
          2   -1    0    0  502    0  0.00000000000E+00 -0.00000000000E+00 -0.21591381790E+04  0.21591381790E+04  0.00000000000E+00 0. -1.
    9000010    2    1    2  502    0 -0.11993543326E+03  0.29854597837E+03 -0.93942921404E+03  0.14137599489E+04  0.10063179098E+04 0.  0.
        -13    1    3    3    0    0  0.24333565193E+03  0.54835927716E+03 -0.65939065247E+03  0.89146294375E+03  0.10566000000E+00 0.  1.
         13    1    1    2    0    0  0.50110988875E+02 -0.35602642635E+03  0.16828542074E+02  0.35992935203E+03  0.10566000000E+00 0. -1.
          2    1    1    2  501    0  0.69824444387E+02  0.57480447973E+02 -0.80847176108E+03  0.81351462396E+03  0.00000000000E+00 0. -1.
          4    1    3    3  502    0 -0.36327108520E+03 -0.24981329879E+03 -0.28003856157E+03  0.52229700512E+03  0.00000000000E+00 0.  1.
</event>
<event>
 7    1  0.4894942E-006  0.1077883E+04  0.7818608E-02  0.9482746E-01
          4   -1    0    0  501    0 -0.00000000000E+00  0.00000000000E+00  0.81230339143E+03  0.81230339143E+03  0.00000000000E+00 0.  1.
          2   -1    0    0  502    0  0.00000000000E+00 -0.00000000000E+00 -0.25672133230E+04  0.25672133230E+04  0.00000000000E+00 0.  1.
    9000010    2    1    2  502    0  0.10772989902E+03 -0.34848508252E+03  0.80706965287E+02  0.10743424321E+04  0.10072985969E+04 0.  0.
        -13    1    3    3    0    0 -0.21115496738E+03  0.28859646315E+03  0.51760221785E+02  0.36132183786E+03  0.10566000000E+00 0.  1.
         13    1    1    2    0    0  0.48986285323E+02 -0.24133069692E+01  0.21414896685E+03  0.21969358517E+03  0.10566000000E+00 0. -1.
          2    1    1    2  501    0 -0.15671618434E+03  0.35089838949E+03 -0.20497658637E+04  0.20854806971E+04  0.00000000000E+00 0.  1.
          4    1    3    3  502    0  0.31888486640E+03 -0.63708154567E+03  0.28946743502E+02  0.71302059424E+03  0.00000000000E+00 0.  1.
</event>
<event>
 7    1  0.4894942E-006  0.1014081E+04  0.7818608E-02  0.9241913E-01
          2   -1    0    0  501    0  0.00000000000E+00  0.00000000000E+00  0.93306496896E+03  0.93306496896E+03  0.00000000000E+00 0.  1.
         -4   -1    0    0    0  501 -0.00000000000E+00 -0.00000000000E+00 -0.63049861973E+03  0.63049861973E+03  0.00000000000E+00 0. -1.
   -9000010    2    1    2    0  502  0.12846033955E+03 -0.38457872872E+02  0.11189655137E+03  0.10187462985E+04  0.10036643441E+04 0.  0.
        -13    1    1    2    0    0 -0.13885763398E+03  0.43640637339E+02 -0.14704577592E+03  0.20690195534E+03  0.10566000000E+00 0.  1.
         13    1    3    3    0    0 -0.20893829822E+02 -0.47791386907E+03 -0.12949074238E+03  0.49558660383E+03  0.10566000000E+00 0. -1.
          2    1    1    2  502    0  0.10397294436E+02 -0.51827644672E+01  0.33771557378E+03  0.33791533489E+03  0.00000000000E+00 0.  1.
         -4    1    3    3    0  502  0.14935416937E+03  0.43945599620E+03  0.24138729375E+03  0.52315969463E+03  0.00000000000E+00 0. -1.
</event>
<event>
 7    1  0.4894942E-006  0.1248998E+04  0.7818608E-02  0.8688649E-01
          4   -1    0    0  501    0 -0.00000000000E+00  0.00000000000E+00  0.16144102590E+04  0.16144102590E+04  0.00000000000E+00 0.  1.
          2   -1    0    0  502    0  0.00000000000E+00 -0.00000000000E+00 -0.16928086374E+04  0.16928086374E+04  0.00000000000E+00 0. -1.
    9000010    2    1    2  502    0 -0.58057686816E+03 -0.55507267911E+03  0.10991415365E+03  0.12906620300E+04  0.10042669842E+04 0.  0.
        -13    1    3    3    0    0  0.28656445160E+03 -0.91315990904E+02 -0.34782349558E+01  0.30078215439E+03  0.10566000000E+00 0.  1.
         13    1    1    2    0    0  0.69016419584E+03  0.26553348107E+03  0.73506263510E+03  0.10426656873E+04  0.10566000000E+00 0. -1.
          2    1    1    2  501    0 -0.10958732768E+03  0.28953919804E+03 -0.92337516713E+03  0.97389117917E+03  0.00000000000E+00 0. -1.
          4    1    3    3  502    0 -0.86714131976E+03 -0.46375668821E+03  0.11339238861E+03  0.98987987559E+03  0.00000000000E+00 0.  1.
</event>
<event>
 7    1  0.4894942E-006  0.1037775E+04  0.7818608E-02  0.9246412E-01
         -4   -1    0    0    0  501 -0.00000000000E+00  0.00000000000E+00  0.27718791480E+04  0.27718791480E+04  0.00000000000E+00 0. -1.
          2   -1    0    0  501    0  0.00000000000E+00 -0.00000000000E+00 -0.12441937910E+04  0.12441937910E+04  0.00000000000E+00 0. -1.
   -9000010    2    1    2    0  502  0.66488804840E+02 -0.10594141438E+03  0.23628303534E+04  0.25802930008E+04  0.10292231763E+04 0.  0.
        -13    1    1    2    0    0 -0.10711875511E+03  0.82212376335E+02  0.28462004320E+03  0.31502679675E+03  0.10566000000E+00 0.  1.
         13    1    3    3    0    0 -0.78738467427E+02 -0.44970734108E+03  0.48634446536E+03  0.66705875980E+03  0.10566000000E+00 0. -1.
          2    1    1    2  502    0  0.40629950266E+02  0.23729038042E+02 -0.11197650396E+04  0.11207531414E+04  0.00000000000E+00 0. -1.
         -4    1    3    3    0  502  0.14522727227E+03  0.34376592670E+03  0.18764858881E+04  0.19132342410E+04  0.00000000000E+00 0. -1.
</event>
<event>
 7    1  0.4894942E-006  0.9008430E+03  0.7818608E-02  0.9191493E-01
          2   -1    0    0  501    0  0.00000000000E+00  0.00000000000E+00  0.10924840988E+04  0.10924840988E+04  0.00000000000E+00 0.  1.
         -4   -1    0    0    0  501 -0.00000000000E+00 -0.00000000000E+00 -0.13199463272E+04  0.13199463272E+04  0.00000000000E+00 0. -1.
   -9000010    2    1    2    0  502 -0.13034185455E+03  0.22639670638E+03 -0.78538775492E+03  0.11972776781E+04  0.86509851762E+03 0.  0.
        -13    1    1    2    0    0  0.11393725701E+03 -0.22140976865E+03 -0.28134257988E+03  0.37570951892E+03  0.10566000000E+00 0.  1.
         13    1    3    3    0    0 -0.28111465480E+03  0.47589068872E+03 -0.70316180008E+03  0.89439025319E+03  0.10566000000E+00 0. -1.
          2    1    1    2  502    0  0.16404597536E+02 -0.49869377319E+01  0.83926810634E+03  0.83944322899E+03  0.00000000000E+00 0.  1.
         -4    1    3    3    0  502  0.15077280025E+03 -0.24949398234E+03 -0.82225954840E+02  0.30288742491E+03  0.00000000000E+00 0. -1.
</event>
<event>
 7    1  0.4894942E-006  0.1025322E+04  0.7818608E-02  0.9071656E-01
          2   -1    0    0  501    0  0.00000000000E+00  0.00000000000E+00  0.14992459961E+04  0.14992459961E+04  0.00000000000E+00 0.  1.
         -4   -1    0    0    0  501 -0.00000000000E+00 -0.00000000000E+00 -0.12471722107E+04  0.12471722107E+04  0.00000000000E+00 0. -1.
   -9000010    2    1    2    0  502 -0.23300525344E+03 -0.15497927165E+03 -0.73451170333E+03  0.12627731813E+04  0.98832112309E+03 0.  0.
        -13    1    1    2    0    0  0.23420866834E+03  0.13660477293E+03 -0.17448556957E+03  0.32242796012E+03  0.10566000000E+00 0.  1.
         13    1    3    3    0    0 -0.55722112182E+03  0.14813276706E+03 -0.34268321001E+03  0.67072385440E+03  0.10566000000E+00 0. -1.
          2    1    1    2  502    0 -0.12034148908E+01  0.18374498717E+02  0.11610710583E+04  0.11612170653E+04  0.00000000000E+00 0.  1.
         -4    1    3    3    0  502  0.32421586837E+03 -0.30311203872E+03 -0.39182849331E+03  0.59204932691E+03  0.00000000000E+00 0. -1.
</event>
<event>
 7    1  0.4894942E-006  0.1006030E+04  0.7818608E-02  0.9481502E-01
          2   -1    0    0  502    0  0.00000000000E+00  0.00000000000E+00  0.18964394765E+04  0.18964394765E+04  0.00000000000E+00 0.  1.
          4   -1    0    0  501    0 -0.00000000000E+00 -0.00000000000E+00 -0.10834663008E+04  0.10834663008E+04  0.00000000000E+00 0.  1.
    9000010    2    1    2  502    0 -0.29151163848E+03  0.45078788315E+03 -0.76554494308E+03  0.12695277211E+04  0.85875073442E+03 0.  0.
        -13    1    3    3    0    0 -0.43221323663E+03  0.26168344555E+03 -0.87441347326E+03  0.10098937771E+04  0.10566000000E+00 0.  1.
         13    1    1    2    0    0 -0.40057743033E+02 -0.45468692451E+02  0.16332382226E+02  0.62759721505E+02  0.10566000000E+00 0. -1.
          2    1    1    2  501    0  0.33156938151E+03 -0.40531919070E+03  0.15621857366E+04  0.16476183347E+04  0.00000000000E+00 0.  1.
          4    1    3    3  502    0  0.14070159815E+03  0.18910443759E+03  0.10886853018E+03  0.25963394405E+03  0.00000000000E+00 0.  1.
</event>
<event>
 7    1  0.4894942E-006  0.1093067E+04  0.7818608E-02  0.9068963E-01
          4   -1    0    0  501    0 -0.00000000000E+00  0.00000000000E+00  0.91174569114E+03  0.91174569114E+03  0.00000000000E+00 0.  1.
          2   -1    0    0  502    0  0.00000000000E+00 -0.00000000000E+00 -0.25028464703E+04  0.25028464703E+04  0.00000000000E+00 0.  1.
    9000010    2    1    2  502    0  0.46024539329E+03  0.93626227816E+02  0.46058643666E+03  0.12303259693E+04  0.10396972792E+04 0.  0.
        -13    1    3    3    0    0 -0.14129873819E+03 -0.35510048744E+03  0.22619207903E+03  0.44409971558E+03  0.10566000000E+00 0.  1.
         13    1    1    2    0    0 -0.19673454341E+03  0.11467475818E+03 -0.20222405898E+03  0.30454779908E+03  0.10566000000E+00 0. -1.
          2    1    1    2  501    0 -0.26351084987E+03 -0.20830098599E+03 -0.18494631568E+04  0.18797183931E+04  0.00000000000E+00 0.  1.
          4    1    3    3  502    0  0.60154413148E+03  0.44872671526E+03  0.23439435763E+03  0.78622625369E+03  0.00000000000E+00 0.  1.
</event>
<event>
 7    1  0.4894942E-006  0.1037965E+04  0.7818608E-02  0.9077284E-01
          4   -1    0    0  501    0  0.00000000000E+00  0.00000000000E+00  0.12399609341E+04  0.12399609341E+04  0.00000000000E+00 0. -1.
         -4   -1    0    0    0  501 -0.00000000000E+00 -0.00000000000E+00 -0.15676788224E+04  0.15676788224E+04  0.00000000000E+00 0. -1.
   -9000010    2    1    2    0  502  0.25765650193E+03 -0.19730307378E+03 -0.11113988969E+04  0.15335261742E+04  0.10055742852E+04 0.  0.
        -13    1    1    2    0    0 -0.89784736271E+02  0.23031868812E+03 -0.17334104313E+03  0.30191907088E+03  0.10566000000E+00 0.  1.
         13    1    3    3    0    0  0.31017951170E+03  0.36425934294E+03 -0.38642871159E+03  0.61499866561E+03  0.10566000000E+00 0. -1.
          4    1    1    2  502    0 -0.16787176566E+03 -0.33015614340E+02  0.95702205176E+03  0.97219451143E+03  0.00000000000E+00 0. -1.
         -4    1    3    3    0  502 -0.52523009768E+02 -0.56156241672E+03 -0.72497018536E+03  0.91852750861E+03  0.00000000000E+00 0. -1.
</event>
<event>
 7    1  0.4894942E-006  0.1027211E+04  0.7818608E-02  0.9359966E-01
         -4   -1    0    0    0  501 -0.00000000000E+00  0.00000000000E+00  0.10199137628E+04  0.10199137628E+04  0.00000000000E+00 0. -1.
          2   -1    0    0  501    0  0.00000000000E+00 -0.00000000000E+00 -0.10208610094E+04  0.10208610094E+04  0.00000000000E+00 0.  1.
   -9000010    2    1    2    0  502 -0.17008759192E+03 -0.50825612639E+02  0.33676647855E+03  0.10709503325E+04  0.10010044565E+04 0.  0.
        -13    1    1    2    0    0 -0.16610012665E+02 -0.87618789571E+02  0.28844643868E+03  0.30191771058E+03  0.10566000000E+00 0.  1.
         13    1    3    3    0    0 -0.93113257191E+02  0.47366731784E+03  0.20664513611E+03  0.52510287573E+03  0.10566000000E+00 0. -1.
          2    1    1    2  502    0  0.18669760459E+03  0.13844440221E+03 -0.62616016381E+03  0.66790672912E+03  0.00000000000E+00 0.  1.
         -4    1    3    3    0  502 -0.76974334733E+02 -0.52449293048E+03  0.13012134244E+03  0.54584745680E+03  0.00000000000E+00 0. -1.
</event>
<event>
 7    1  0.4894942E-006  0.1046125E+04  0.7818608E-02  0.9055028E-01
          1   -1    0    0  501    0  0.00000000000E+00  0.00000000000E+00  0.16899950829E+04  0.16899950829E+04  0.00000000000E+00 0. -1.
         -4   -1    0    0    0  501 -0.00000000000E+00 -0.00000000000E+00 -0.10564324476E+04  0.10564324476E+04  0.00000000000E+00 0. -1.
   -9000010    2    1    2    0  502 -0.93138328627E+02 -0.26679776318E+03 -0.64379817247E+03  0.12301596086E+04  0.10094358727E+04 0.  0.
        -13    1    1    2    0    0  0.11385519049E+03  0.24581459150E+03  0.34537214972E+02  0.27309457735E+03  0.10566000000E+00 0.  1.
         13    1    3    3    0    0  0.43934168051E+03 -0.19592197375E+01 -0.17507673458E+03  0.47294484343E+03  0.10566000000E+00 0. -1.
          1    1    1    2  502    0 -0.20716861864E+02  0.20983171674E+02  0.12428235928E+04  0.12431733446E+04  0.00000000000E+00 0. -1.
         -4    1    3    3    0  502 -0.53248000913E+03 -0.26483854344E+03 -0.46872143789E+03  0.75721476515E+03  0.00000000000E+00 0. -1.
</event>
<event>
 7    1  0.4894942E-006  0.1007758E+04  0.7818608E-02  0.9180851E-01
          2   -1    0    0  501    0  0.00000000000E+00  0.00000000000E+00  0.16936200383E+04  0.16936200383E+04  0.00000000000E+00 0. -1.
         -4   -1    0    0    0  501 -0.00000000000E+00 -0.00000000000E+00 -0.38506780745E+03  0.38506780745E+03  0.00000000000E+00 0. -1.
   -9000010    2    1    2    0  502  0.15661052655E+03 -0.89064107264E+02  0.80099474613E+03  0.12863299130E+04  0.99024885229E+03 0.  0.
        -13    1    1    2    0    0 -0.15659205134E+03  0.10306580593E+03 -0.80582066497E+02  0.20405173732E+03  0.10566000000E+00 0.  1.
         13    1    3    3    0    0 -0.19746297572E+03  0.31464970635E+03  0.61416730226E+03  0.71777263170E+03  0.10566000000E+00 0. -1.
          2    1    1    2  502    0 -0.18475206056E-01 -0.14001698671E+02  0.58813955117E+03  0.58830619541E+03  0.00000000000E+00 0. -1.
         -4    1    3    3    0  502  0.35407350227E+03 -0.40371381361E+03  0.18682744387E+03  0.56855728128E+03  0.00000000000E+00 0. -1.
</event>
<event>
 7    1  0.4894942E-006  0.1117488E+04  0.7818608E-02  0.8850324E-01
          2   -1    0    0  502    0  0.00000000000E+00  0.00000000000E+00  0.34190077784E+03  0.34190077784E+03  0.00000000000E+00 0.  1.
          4   -1    0    0  501    0 -0.00000000000E+00 -0.00000000000E+00 -0.43314999676E+04  0.43314999676E+04  0.00000000000E+00 0.  1.
    9000010    2    1    2  502    0 -0.17008562259E+03 -0.14933488122E+03 -0.11897668131E+04  0.15759145931E+04  0.10083311508E+04 0.  0.
        -13    1    3    3    0    0  0.10018898248E+03  0.18974905143E+03  0.83948229648E+02  0.23041235026E+03  0.10566000000E+00 0.  1.
         13    1    1    2    0    0 -0.64969255924E+02 -0.51642350636E+03 -0.17982821723E+04  0.18720932200E+04  0.10566000000E+00 0. -1.
          2    1    1    2  501    0  0.23505487851E+03  0.66575838758E+03 -0.10015502044E+04  0.12253929323E+04  0.00000000000E+00 0.  1.
          4    1    3    3  502    0 -0.27027460507E+03 -0.33908393265E+03 -0.12737150427E+04  0.13455022429E+04  0.00000000000E+00 0.  1.
</event>
<event>
 7    1  0.4894942E-006  0.1070396E+04  0.7818608E-02  0.8921086E-01
          2   -1    0    0  501    0  0.00000000000E+00  0.00000000000E+00  0.15254364820E+04  0.15254364820E+04  0.00000000000E+00 0. -1.
         -4   -1    0    0    0  501 -0.00000000000E+00 -0.00000000000E+00 -0.30239624165E+04  0.30239624165E+04  0.00000000000E+00 0. -1.
   -9000010    2    1    2    0  502  0.76029558641E+01 -0.42780825689E+03 -0.11131009760E+04  0.15404352448E+04  0.97512524890E+03 0.  0.
        -13    1    1    2    0    0 -0.79435243326E+02  0.43680663226E+03 -0.16671207023E+04  0.17252250401E+04  0.10566000000E+00 0.  1.
         13    1    3    3    0    0 -0.80454798620E+02  0.28640504076E+03 -0.13643206689E+03  0.32728358045E+03  0.10566000000E+00 0. -1.
          2    1    1    2  502    0  0.71832287462E+02 -0.89983753663E+01  0.12816957438E+04  0.12837386136E+04  0.00000000000E+00 0. -1.
         -4    1    3    3    0  502  0.88057754484E+02 -0.71421329766E+03 -0.97666890908E+03  0.12131516643E+04  0.00000000000E+00 0. -1.
</event>
<event>
 7    1  0.4894942E-006  0.1023864E+04  0.7818608E-02  0.9274380E-01
         -4   -1    0    0    0  501 -0.00000000000E+00  0.00000000000E+00  0.31474823767E+04  0.31474823767E+04  0.00000000000E+00 0. -1.
          2   -1    0    0  501    0  0.00000000000E+00 -0.00000000000E+00 -0.32308840081E+03  0.32308840081E+03  0.00000000000E+00 0.  1.
   -9000010    2    1    2    0  502 -0.15927423118E+03 -0.14080606046E+03  0.22250773783E+04  0.24478763200E+04  0.99796518531E+03 0.  0.
        -13    1    1    2    0    0  0.95091019830E+02 -0.80221567659E+02  0.74169559504E+03  0.75205729092E+03  0.10566000000E+00 0.  1.
         13    1    3    3    0    0 -0.52787553088E+02 -0.56646499436E+03  0.10620321458E+04  0.12048159218E+04  0.10566000000E+00 0. -1.
          2    1    1    2  502    0  0.64183211354E+02  0.22102762812E+03 -0.14237899748E+03  0.27063716658E+03  0.00000000000E+00 0.  1.
         -4    1    3    3    0  502 -0.10648667810E+03  0.42565893390E+03  0.11630452325E+04  0.12430603982E+04  0.00000000000E+00 0. -1.
</event>
<event>
 7    1  0.4894942E-006  0.1095341E+04  0.7818608E-02  0.9024899E-01
         -4   -1    0    0    0  501 -0.00000000000E+00  0.00000000000E+00  0.26202145565E+04  0.26202145565E+04  0.00000000000E+00 0. -1.
          1   -1    0    0  501    0  0.00000000000E+00 -0.00000000000E+00 -0.28243350584E+03  0.28243350584E+03  0.00000000000E+00 0.  1.
   -9000010    2    1    2    0  502  0.29232648532E+03  0.77250308431E+02  0.21490370724E+04  0.24159212296E+04  0.10615520076E+04 0.  0.
        -13    1    1    2    0    0 -0.18370455461E+03 -0.19560452370E+03  0.18519180451E+03  0.32604372207E+03  0.10566000000E+00 0.  1.
         13    1    3    3    0    0  0.41413388170E+03 -0.24248530617E+03  0.37459175069E+03  0.60878977203E+03  0.10566000000E+00 0. -1.
          1    1    1    2  502    0 -0.10862193070E+03  0.11835421527E+03  0.35521736484E+01  0.16068311062E+03  0.00000000000E+00 0.  1.
         -4    1    3    3    0  502 -0.12180739638E+03  0.31973561460E+03  0.17744453218E+04  0.18071314576E+04  0.00000000000E+00 0. -1.
</event>
<event>
 7    1  0.4894942E-006  0.1078256E+04  0.7818608E-02  0.8945884E-01
         -4   -1    0    0    0  501 -0.00000000000E+00  0.00000000000E+00  0.79205575317E+03  0.79205575317E+03  0.00000000000E+00 0. -1.
          2   -1    0    0  501    0  0.00000000000E+00 -0.00000000000E+00 -0.20948919063E+04  0.20948919063E+04  0.00000000000E+00 0. -1.
   -9000010    2    1    2    0  502 -0.44975167496E+02 -0.39876229074E+03 -0.25622801059E+03  0.11122920838E+04  0.10052396511E+04 0.  0.
        -13    1    1    2    0    0  0.59824741643E+02  0.38374499819E+03  0.26032249249E+03  0.46755431193E+03  0.10566000000E+00 0.  1.
         13    1    3    3    0    0 -0.49675899393E+03 -0.63122194421E+02 -0.17841334632E+02  0.50107108664E+03  0.10566000000E+00 0. -1.
          2    1    1    2  502    0 -0.14849574147E+02  0.15017292550E+02 -0.13069306350E+04  0.13071012637E+04  0.00000000000E+00 0. -1.
         -4    1    3    3    0  502  0.45178382643E+03 -0.33564009632E+03 -0.23838667596E+03  0.61122099715E+03  0.00000000000E+00 0. -1.
</event>
<event>
 7    1  0.4894942E-006  0.1055852E+04  0.7818608E-02  0.9012464E-01
         -4   -1    0    0    0  501 -0.00000000000E+00  0.00000000000E+00  0.16819516098E+04  0.16819516098E+04  0.00000000000E+00 0. -1.
          2   -1    0    0  501    0  0.00000000000E+00 -0.00000000000E+00 -0.75943794812E+03  0.75943794812E+03  0.00000000000E+00 0. -1.
   -9000010    2    1    2    0  502  0.20911347994E+03 -0.24529105573E+03  0.21186493709E+03  0.10785130762E+04  0.10071780152E+04 0.  0.
        -13    1    1    2    0    0 -0.22100691542E+03  0.22672276563E+03  0.10121774562E+04  0.10605425419E+04  0.10566000000E+00 0.  1.
         13    1    3    3    0    0  0.21167321265E+02  0.16937164217E+03  0.50766310439E+03  0.53558999933E+03  0.10566000000E+00 0. -1.
          2    1    1    2  502    0  0.11893435479E+02  0.18568290100E+02 -0.30152873162E+03  0.30233393987E+03  0.00000000000E+00 0. -1.
         -4    1    3    3    0  502  0.18794615867E+03 -0.41466269790E+03 -0.29579816730E+03  0.54292307684E+03  0.00000000000E+00 0. -1.
</event>
<event>
 7    1  0.4894942E-006  0.1005601E+04  0.7818608E-02  0.9152516E-01
          2   -1    0    0  501    0  0.00000000000E+00  0.00000000000E+00  0.11986264778E+04  0.11986264778E+04  0.00000000000E+00 0.  1.
         -4   -1    0    0    0  501 -0.00000000000E+00 -0.00000000000E+00 -0.13759342367E+04  0.13759342367E+04  0.00000000000E+00 0. -1.
   -9000010    2    1    2    0  502 -0.21220977159E+03  0.55688772975E+01 -0.61199998321E+03  0.11775551234E+04  0.98337586385E+03 0.  0.
        -13    1    1    2    0    0  0.20539327468E+03 -0.45537392273E+02 -0.45767764308E+03  0.50371508566E+03  0.10566000000E+00 0.  1.
         13    1    3    3    0    0  0.17214763522E+03  0.15713129255E+03 -0.71476387956E+03  0.75180613598E+03  0.10566000000E+00 0. -1.
          2    1    1    2  502    0  0.68164969057E+01  0.39968514975E+02  0.89236986739E+03  0.89329050540E+03  0.00000000000E+00 0.  1.
         -4    1    3    3    0  502 -0.38435740681E+03 -0.15156241525E+03  0.10276389634E+03  0.42574898741E+03  0.00000000000E+00 0. -1.
</event>
<event>
 7    1  0.4894942E-006  0.9966532E+03  0.7818608E-02  0.9362619E-01
          2   -1    0    0  501    0  0.00000000000E+00  0.00000000000E+00  0.20441785207E+03  0.20441785207E+03  0.00000000000E+00 0. -1.
         -4   -1    0    0    0  501 -0.00000000000E+00 -0.00000000000E+00 -0.30817931188E+04  0.30817931188E+04  0.00000000000E+00 0. -1.
   -9000010    2    1    2    0  502 -0.42939595661E+02  0.51133088280E+02 -0.25380893667E+04  0.27258628015E+04  0.99195361664E+03 0.  0.
        -13    1    1    2    0    0  0.26877010894E+01 -0.99252198348E+02 -0.43484497882E+03  0.44603630949E+03  0.10566000000E+00 0.  1.
         13    1    3    3    0    0 -0.92383509694E+02 -0.26884049960E+03 -0.16074287229E+03  0.32657037411E+03  0.10566000000E+00 0. -1.
          2    1    1    2  502    0  0.40251894572E+02  0.48119110068E+02  0.95559078799E+02  0.11431185989E+03  0.00000000000E+00 0. -1.
         -4    1    3    3    0  502  0.49443914033E+02  0.31997358788E+03 -0.23773464944E+04  0.23992924274E+04  0.00000000000E+00 0. -1.
</event>
<event>
 7    1  0.4894942E-006  0.1006400E+04  0.7818608E-02  0.9093645E-01
         -4   -1    0    0    0  501 -0.00000000000E+00  0.00000000000E+00  0.10367139353E+04  0.10367139353E+04  0.00000000000E+00 0. -1.
          5   -1    0    0  501    0  0.00000000000E+00 -0.00000000000E+00 -0.84425795064E+03  0.84425795064E+03  0.00000000000E+00 0. -1.
   -9000010    2    1    2    0  502 -0.13505900673E+03 -0.20719054577E+03  0.36497832108E+03  0.10664240367E+04  0.97102121172E+03 0.  0.
        -13    1    1    2    0    0  0.13169218324E+03  0.23259746506E+03  0.26493275193E+03  0.37634264453E+03  0.10566000000E+00 0.  1.
         13    1    3    3    0    0 -0.94398465143E+02  0.53496825330E+02 -0.31707087228E+03  0.33512226091E+03  0.10566000000E+00 0. -1.
          5    1    1    2  502    0  0.33668234911E+01 -0.25406919287E+02 -0.43745508840E+03  0.43820520468E+03  0.00000000000E+00 0. -1.
         -4    1    3    3    0  502 -0.40660541588E+02 -0.26068737110E+03  0.68204919336E+03  0.73130177578E+03  0.00000000000E+00 0. -1.
</event>
<event>
 7    1  0.4894942E-006  0.9986814E+03  0.7818608E-02  0.9821382E-01
          2   -1    0    0  501    0  0.00000000000E+00  0.00000000000E+00  0.12358358054E+04  0.12358358054E+04  0.00000000000E+00 0.  1.
         -4   -1    0    0    0  501 -0.00000000000E+00 -0.00000000000E+00 -0.57028344650E+03  0.57028344650E+03  0.00000000000E+00 0. -1.
   -9000010    2    1    2    0  502  0.37163487069E+02 -0.22259003866E+02 -0.75157348420E+02  0.10021140615E+04  0.99835233122E+03 0.  0.
        -13    1    1    2    0    0 -0.17961662777E+02  0.52835987479E+01 -0.28646406789E+02  0.34222295823E+02  0.10566000000E+00 0.  1.
         13    1    3    3    0    0 -0.18716393717E+03 -0.43794622465E+03  0.11981292952E+03  0.49110323182E+03  0.10566000000E+00 0. -1.
          2    1    1    2  502    0 -0.19201824291E+02  0.16975405118E+02  0.76935611413E+03  0.76978289458E+03  0.00000000000E+00 0.  1.
         -4    1    3    3    0  502  0.22432742424E+03  0.41568722078E+03 -0.19497027794E+03  0.51101082970E+03  0.00000000000E+00 0. -1.
</event>
<event>
 7    1  0.4894942E-006  0.1083074E+04  0.7818608E-02  0.8992131E-01
          2   -1    0    0  501    0  0.00000000000E+00  0.00000000000E+00  0.10242416562E+04  0.10242416562E+04  0.00000000000E+00 0.  1.
         -4   -1    0    0    0  501 -0.00000000000E+00 -0.00000000000E+00 -0.19649476977E+04  0.19649476977E+04  0.00000000000E+00 0. -1.
   -9000010    2    1    2    0  502  0.16934914450E+03  0.26162395020E+03 -0.15270097904E+04  0.18709181569E+04  0.10351085092E+04 0.  0.
        -13    1    1    2    0    0 -0.18318814497E+03 -0.26583386993E+03 -0.16792648437E+03  0.36390226459E+03  0.10566000000E+00 0.  1.
         13    1    3    3    0    0  0.39295775610E+03  0.52478632899E+03 -0.62796348316E+03  0.90782962968E+03  0.10566000000E+00 0. -1.
          2    1    1    2  502    0  0.13839000467E+02  0.42099197319E+01  0.75423023323E+03  0.75436893234E+03  0.00000000000E+00 0.  1.
         -4    1    3    3    0  502 -0.22360861160E+03 -0.26316237879E+03 -0.89904630720E+03  0.96308852723E+03  0.00000000000E+00 0. -1.
</event>
<event>
 7    1  0.4894942E-006  0.1026877E+04  0.7818608E-02  0.8998879E-01
         -4   -1    0    0    0  501 -0.00000000000E+00  0.00000000000E+00  0.35786511691E+04  0.35786511691E+04  0.00000000000E+00 0. -1.
          2   -1    0    0  501    0  0.00000000000E+00 -0.00000000000E+00 -0.47741399070E+03  0.47741399070E+03  0.00000000000E+00 0.  1.
   -9000010    2    1    2    0  502 -0.36269950366E+03 -0.24662376807E+02  0.30725878752E+04  0.32395989088E+04  0.96023209508E+03 0.  0.
        -13    1    1    2    0    0  0.36074009683E+03 -0.10644438804E+03  0.32201328621E+03  0.49513270228E+03  0.10566000000E+00 0.  1.
         13    1    3    3    0    0 -0.14825943210E+03  0.40833408049E+03  0.21969949862E+04  0.22395322192E+04  0.10566000000E+00 0. -1.
          2    1    1    2  502    0  0.19594068246E+01  0.13110676484E+03 -0.29336398295E+03  0.32133354876E+03  0.00000000000E+00 0.  1.
         -4    1    3    3    0  502 -0.21444007156E+03 -0.43299645730E+03  0.87559288898E+03  0.10000666896E+04  0.00000000000E+00 0. -1.
</event>
<event>
 7    1  0.4894942E-006  0.1041540E+04  0.7818608E-02  0.8969109E-01
         -4   -1    0    0    0  501 -0.00000000000E+00  0.00000000000E+00  0.17333670363E+04  0.17333670363E+04  0.00000000000E+00 0. -1.
          4   -1    0    0  501    0  0.00000000000E+00 -0.00000000000E+00 -0.14963257810E+04  0.14963257810E+04  0.00000000000E+00 0. -1.
   -9000010    2    1    2    0  502 -0.36696219908E+03  0.33623641448E+03  0.89193823193E+03  0.14046961532E+04  0.96431389671E+03 0.  0.
        -13    1    1    2    0    0  0.30719162300E+03 -0.20719704633E+03  0.52166663542E+03  0.63986982967E+03  0.10566000000E+00 0.  1.
         13    1    3    3    0    0  0.19428779581E+03  0.17451106258E+03  0.76312568867E+03  0.80657466265E+03  0.10566000000E+00 0. -1.
          4    1    1    2  502    0  0.59770576076E+02 -0.12903936815E+03 -0.11765636121E+04  0.11851268344E+04  0.00000000000E+00 0. -1.
         -4    1    3    3    0  502 -0.56124999488E+03  0.16172535190E+03  0.12881254326E+03  0.59812149059E+03  0.00000000000E+00 0. -1.
</event>
<event>
 7    1  0.4894942E-006  0.1150332E+04  0.7818608E-02  0.9404077E-01
         -2   -1    0    0    0  501  0.00000000000E+00  0.00000000000E+00  0.91600523649E+03  0.91600523649E+03  0.00000000000E+00 0.  1.
         -4   -1    0    0    0  502 -0.00000000000E+00 -0.00000000000E+00 -0.87651174674E+03  0.87651174674E+03  0.00000000000E+00 0. -1.
   -9000010    2    1    2    0  501 -0.29806743443E+03 -0.47453267831E+03 -0.15188844565E+02  0.11418276928E+04  0.99474334419E+03 0.  0.
        -13    1    1    2    0    0 -0.53667419516E+02  0.48115645317E+01  0.33584237678E+02  0.63492166881E+02  0.10566000000E+00 0.  1.
         13    1    3    3    0    0 -0.34156620971E+03 -0.69920112010E+03  0.22503052126E+03  0.81005458373E+03  0.10566000000E+00 0. -1.
         -2    1    1    2    0  502  0.35173485394E+03  0.46972111378E+03  0.21098096637E+02  0.58719712354E+03  0.00000000000E+00 0.  1.
         -4    1    3    3    0  501  0.43498775282E+02  0.22466844179E+03 -0.24021936583E+03  0.33177310907E+03  0.00000000000E+00 0. -1.
</event>
<event>
 7    1  0.4894942E-006  0.1098786E+04  0.7818608E-02  0.8913825E-01
         -4   -1    0    0    0  501 -0.00000000000E+00  0.00000000000E+00  0.55985907600E+03  0.55985907600E+03  0.00000000000E+00 0. -1.
          1   -1    0    0  501    0  0.00000000000E+00 -0.00000000000E+00 -0.19146341406E+04  0.19146341406E+04  0.00000000000E+00 0.  1.
   -9000010    2    1    2    0  502 -0.54180319649E+03  0.15041889416E+03 -0.39742327181E+03  0.12266297716E+04  0.10151348640E+04 0.  0.
        -13    1    1    2    0    0  0.29744208724E+03 -0.23713461743E+03 -0.16586869907E+03  0.41499043187E+03  0.10566000000E+00 0.  1.
         13    1    3    3    0    0 -0.29596216835E+03  0.54278804796E+03 -0.27750009453E+01  0.61823958293E+03  0.10566000000E+00 0. -1.
          1    1    1    2  502    0  0.24436110925E+03  0.86715723266E+02 -0.79148309367E+03  0.83287301310E+03  0.00000000000E+00 0.  1.
         -4    1    3    3    0  502 -0.24584102813E+03 -0.39236915380E+03 -0.39464827087E+03  0.60839018867E+03  0.00000000000E+00 0. -1.
</event>
<event>
 7    1  0.4894942E-006  0.1008526E+04  0.7818608E-02  0.9393085E-01
         -4   -1    0    0    0  501 -0.00000000000E+00  0.00000000000E+00  0.50351010893E+03  0.50351010893E+03  0.00000000000E+00 0. -1.
          1   -1    0    0  501    0  0.00000000000E+00 -0.00000000000E+00 -0.11965196989E+04  0.11965196989E+04  0.00000000000E+00 0. -1.
   -9000010    2    1    2    0  502 -0.39027636004E+02  0.73540805987E+02 -0.95665331963E+02  0.10040303893E+04  0.99598883549E+03 0.  0.
        -13    1    1    2    0    0  0.48585521694E+01  0.83144123882E+02 -0.62310462870E+01  0.83518788109E+02  0.10566000000E+00 0.  1.
         13    1    3    3    0    0 -0.17252682290E+03  0.40945474479E+03 -0.34700655268E+03  0.56376613184E+03  0.10566000000E+00 0. -1.
          1    1    1    2  502    0  0.34169083835E+02 -0.15668492987E+03 -0.59111321172E+03  0.61248063040E+03  0.00000000000E+00 0. -1.
         -4    1    3    3    0  502  0.13349918690E+03 -0.33591393880E+03  0.25134122071E+03  0.44026425748E+03  0.00000000000E+00 0. -1.
</event>
<event>
 7    1  0.4894942E-006  0.1111508E+04  0.7818608E-02  0.9022606E-01
          4   -1    0    0  501    0 -0.00000000000E+00  0.00000000000E+00  0.13225552114E+04  0.13225552114E+04  0.00000000000E+00 0.  1.
          2   -1    0    0  502    0  0.00000000000E+00 -0.00000000000E+00 -0.24877785081E+04  0.24877785081E+04  0.00000000000E+00 0.  1.
    9000010    2    1    2  502    0  0.17936607532E+03 -0.35075286892E+03  0.49348503121E+03  0.11518983892E+04  0.96340160834E+03 0.  0.
        -13    1    3    3    0    0  0.19131277043E+03 -0.61408663923E+03  0.61888249122E+02  0.64616804560E+03  0.10566000000E+00 0.  1.
         13    1    1    2    0    0 -0.15213293673E+03 -0.21176734614E+03  0.42574158989E+03  0.49924518210E+03  0.10566000000E+00 0. -1.
          2    1    1    2  501    0 -0.27233138589E+02  0.56252021505E+03 -0.20844499178E+04  0.21591901482E+04  0.00000000000E+00 0.  1.
          4    1    3    3  502    0 -0.11946695113E+02  0.26333377031E+03  0.43159678209E+03  0.50573034359E+03  0.00000000000E+00 0.  1.
</event>
<event>
 7    1  0.4894942E-006  0.1074712E+04  0.7818608E-02  0.8940091E-01
          1   -1    0    0  501    0  0.00000000000E+00  0.00000000000E+00  0.15894582421E+04  0.15894582421E+04  0.00000000000E+00 0.  1.
         -4   -1    0    0    0  501 -0.00000000000E+00 -0.00000000000E+00 -0.17959467934E+04  0.17959467934E+04  0.00000000000E+00 0. -1.
   -9000010    2    1    2    0  502 -0.31208464184E+03  0.27352779178E+03 -0.16757632349E+03  0.10920583808E+04  0.99614025430E+03 0.  0.
        -13    1    1    2    0    0  0.29277292270E+03 -0.27623796724E+03 -0.11313045280E+04  0.12007803067E+04  0.10566000000E+00 0.  1.
         13    1    3    3    0    0 -0.25125351070E+03  0.50927774699E+03 -0.44608024668E+03  0.72213554674E+03  0.10566000000E+00 0. -1.
          1    1    1    2  502    0  0.19311719135E+02  0.27101754623E+01  0.10923923001E+04  0.10925663480E+04  0.00000000000E+00 0.  1.
         -4    1    3    3    0  502 -0.60831131138E+02 -0.23574995521E+03  0.27850392319E+03  0.36992283402E+03  0.00000000000E+00 0. -1.
</event>
<event>
 7    1  0.4894942E-006  0.1146355E+04  0.7818608E-02  0.8819499E-01
          4   -1    0    0  501    0 -0.00000000000E+00  0.00000000000E+00  0.14858802247E+04  0.14858802247E+04  0.00000000000E+00 0.  1.
          2   -1    0    0  502    0  0.00000000000E+00 -0.00000000000E+00 -0.72049600254E+03  0.72049600254E+03  0.00000000000E+00 0.  1.
    9000010    2    1    2  502    0  0.55857435693E+03 -0.14120153713E+03  0.60635427693E+03  0.13086424158E+04  0.10064473543E+04 0.  0.
        -13    1    3    3    0    0  0.13976246871E+03 -0.53679993951E+03  0.15261726804E+03  0.57530840806E+03  0.10566000000E+00 0.  1.
         13    1    1    2    0    0 -0.49835319276E+03  0.20697743001E+03  0.37963394725E+03  0.65978595494E+03  0.10566000000E+00 0. -1.
          2    1    1    2  501    0 -0.60221164171E+02 -0.65775892883E+02 -0.22060400202E+03  0.23794785649E+03  0.00000000000E+00 0.  1.
          4    1    3    3  502    0  0.41881188822E+03  0.39559840238E+03  0.45373700890E+03  0.73333400775E+03  0.00000000000E+00 0.  1.
</event>
<event>
 7    1  0.4894942E-006  0.9985543E+03  0.7818608E-02  0.9263830E-01
         -4   -1    0    0    0  501 -0.00000000000E+00  0.00000000000E+00  0.22653043790E+04  0.22653043790E+04  0.00000000000E+00 0. -1.
          2   -1    0    0  501    0  0.00000000000E+00 -0.00000000000E+00 -0.69309395894E+03  0.69309395894E+03  0.00000000000E+00 0.  1.
   -9000010    2    1    2    0  502 -0.73467392563E+02  0.99069845404E+02  0.16690778816E+04  0.19438749931E+04  0.98874502358E+03 0.  0.
        -13    1    1    2    0    0  0.96037639520E+02 -0.10318306107E+03  0.44775425238E+03  0.46941863404E+03  0.10566000000E+00 0.  1.
         13    1    3    3    0    0  0.43113670692E+03  0.17767050523E+03  0.98880303110E+03  0.10932415625E+04  0.10566000000E+00 0. -1.
          2    1    1    2  502    0 -0.22570246957E+02  0.41132156628E+01 -0.54462171390E+03  0.54510471090E+03  0.00000000000E+00 0.  1.
         -4    1    3    3    0  502 -0.50460409948E+03 -0.78600659829E+02  0.68027485052E+03  0.85063343056E+03  0.00000000000E+00 0. -1.
</event>
<event>
 7    1  0.4894942E-006  0.1081496E+04  0.7818608E-02  0.9171822E-01
          2   -1    0    0  501    0  0.00000000000E+00  0.00000000000E+00  0.19401034470E+04  0.19401034470E+04  0.00000000000E+00 0.  1.
         -4   -1    0    0    0  501 -0.00000000000E+00 -0.00000000000E+00 -0.12359504794E+04  0.12359504794E+04  0.00000000000E+00 0. -1.
   -9000010    2    1    2    0  502  0.70793575682E+02  0.25813591533E+03  0.10492712679E+03  0.10398191031E+04  0.99928383559E+03 0.  0.
        -13    1    1    2    0    0  0.26373855358E+02  0.15451028604E+03 -0.72710125814E+03  0.74380458421E+03  0.10566000000E+00 0.  1.
         13    1    3    3    0    0  0.14459061389E+03  0.50797585160E+03  0.38782035581E+03  0.65524846507E+03  0.10566000000E+00 0. -1.
          2    1    1    2  502    0 -0.97167431040E+02 -0.41264620136E+03  0.13263270990E+04  0.13924302391E+04  0.00000000000E+00 0.  1.
         -4    1    3    3    0  502 -0.73797038208E+02 -0.24983993627E+03 -0.28289322902E+03  0.38457063802E+03  0.00000000000E+00 0. -1.
</event>
<event>
 7    1  0.4894942E-006  0.1045081E+04  0.7818608E-02  0.9027139E-01
          2   -1    0    0  501    0  0.00000000000E+00  0.00000000000E+00  0.99063324481E+03  0.99063324481E+03  0.00000000000E+00 0.  1.
         -4   -1    0    0    0  501 -0.00000000000E+00 -0.00000000000E+00 -0.80665207151E+03  0.80665207151E+03  0.00000000000E+00 0. -1.
   -9000010    2    1    2    0  502 -0.12607720586E+03 -0.19585521372E+03  0.57037998725E+02  0.10270460078E+04  0.99865681910E+03 0.  0.
        -13    1    1    2    0    0  0.39243593350E+03 -0.46492210083E+02  0.10780501565E+03  0.40962106887E+03  0.10566000000E+00 0.  1.
         13    1    3    3    0    0  0.21845586232E+03 -0.45581530811E+03 -0.17763845943E+03  0.53576673313E+03  0.10566000000E+00 0. -1.
          2    1    1    2  502    0 -0.26635872764E+03  0.24234742381E+03  0.19138158929E+02  0.36061823961E+03  0.00000000000E+00 0.  1.
         -4    1    3    3    0  502 -0.34453306818E+03  0.25996009439E+03  0.23467645816E+03  0.49127927471E+03  0.00000000000E+00 0. -1.
</event>
<event>
 7    1  0.4894942E-006  0.9494851E+03  0.7818608E-02  0.9280973E-01
          1   -1    0    0  501    0  0.00000000000E+00  0.00000000000E+00  0.38674734983E+04  0.38674734983E+04  0.00000000000E+00 0.  1.
         -4   -1    0    0    0  501 -0.00000000000E+00 -0.00000000000E+00 -0.61085040125E+03  0.61085040125E+03  0.00000000000E+00 0. -1.
   -9000010    2    1    2    0  502 -0.39125789242E+02  0.65111986966E+02  0.96098663601E+03  0.13444867047E+04  0.93721864375E+03 0.  0.
        -13    1    1    2    0    0 -0.62891658556E+02 -0.13997777171E+03 -0.40352078492E+03  0.43171538346E+03  0.10566000000E+00 0.  1.
         13    1    3    3    0    0 -0.36863760744E+03 -0.25015272122E+03  0.66632724863E+03  0.80153732476E+03  0.10566000000E+00 0. -1.
          1    1    1    2  502    0  0.10201744780E+03  0.74865784746E+02  0.26991572459E+04  0.27021218114E+04  0.00000000000E+00 0.  1.
         -4    1    3    3    0  502  0.32951181820E+03  0.31526470818E+03  0.29465938738E+03  0.54294937990E+03  0.00000000000E+00 0. -1.
</event>
<event>
 7    1  0.4894942E-006  0.1115329E+04  0.7818608E-02  0.8866528E-01
         -4   -1    0    0    0  501 -0.00000000000E+00  0.00000000000E+00  0.47440518795E+03  0.47440518795E+03  0.00000000000E+00 0. -1.
          1   -1    0    0  501    0  0.00000000000E+00 -0.00000000000E+00 -0.19465192939E+04  0.19465192939E+04  0.00000000000E+00 0. -1.
   -9000010    2    1    2    0  502 -0.47426965931E+03  0.92849737643E+02 -0.54964651708E+03  0.12410717178E+04  0.10022948326E+04 0.  0.
        -13    1    1    2    0    0  0.48420988124E+03 -0.89445658115E+02 -0.34253487917E+03  0.59982488233E+03  0.10566000000E+00 0.  1.
         13    1    3    3    0    0 -0.23209196333E+03 -0.45131358915E+03 -0.33435135091E+03  0.60773470545E+03  0.10566000000E+00 0. -1.
          1    1    1    2  502    0 -0.99402219296E+01 -0.34040795277E+01 -0.57993270968E+03  0.58002788168E+03  0.00000000000E+00 0. -1.
         -4    1    3    3    0  502 -0.24217769598E+03  0.54416332679E+03 -0.21529516617E+03  0.63333701236E+03  0.00000000000E+00 0. -1.
</event>
<event>
 7    1  0.4894942E-006  0.1225240E+04  0.7818608E-02  0.8905886E-01
          2   -1    0    0  501    0  0.00000000000E+00  0.00000000000E+00  0.13781892360E+04  0.13781892360E+04  0.00000000000E+00 0. -1.
         -4   -1    0    0    0  501 -0.00000000000E+00 -0.00000000000E+00 -0.19180796901E+04  0.19180796901E+04  0.00000000000E+00 0. -1.
   -9000010    2    1    2    0  502  0.31531604178E+03  0.13938619513E+03 -0.14752917593E+04  0.19231052969E+04  0.11844811060E+04 0.  0.
        -13    1    1    2    0    0 -0.24055987875E+03 -0.18180888690E+03 -0.11242933198E+03  0.32181344359E+03  0.10566000000E+00 0.  1.
         13    1    3    3    0    0  0.38827862304E+03  0.19768109982E+03 -0.16599471155E+04  0.17161767228E+04  0.10566000000E+00 0. -1.
          2    1    1    2  502    0 -0.74756163027E+02  0.42422691776E+02  0.10478306371E+04  0.10513501856E+04  0.00000000000E+00 0. -1.
         -4    1    3    3    0  502 -0.72962581260E+02 -0.58294904692E+02  0.18465535628E+03  0.20692857410E+03  0.00000000000E+00 0. -1.
</event>
<event>
 7    1  0.4894942E-006  0.1000354E+04  0.7818608E-02  0.9069921E-01
          2   -1    0    0  501    0  0.00000000000E+00  0.00000000000E+00  0.15791686347E+04  0.15791686347E+04  0.00000000000E+00 0. -1.
         -4   -1    0    0    0  501 -0.00000000000E+00 -0.00000000000E+00 -0.75904488478E+03  0.75904488478E+03  0.00000000000E+00 0. -1.
   -9000010    2    1    2    0  502  0.26358564392E+03 -0.23635351248E+03  0.43306811719E+02  0.10199696982E+04  0.95557434604E+03 0.  0.
        -13    1    1    2    0    0 -0.19692172261E+03  0.20976731575E+03 -0.19256378481E+03  0.34620992761E+03  0.10566000000E+00 0.  1.
         13    1    3    3    0    0  0.20945646975E+03 -0.29460546488E+03 -0.41756354655E+03  0.55228952482E+03  0.10566000000E+00 0. -1.
          2    1    1    2  502    0 -0.66663921310E+02  0.26586196728E+02  0.96938072298E+03  0.97203389362E+03  0.00000000000E+00 0. -1.
         -4    1    3    3    0  502  0.54129174174E+02  0.58251952401E+02  0.46087035827E+03  0.46768017340E+03  0.00000000000E+00 0. -1.
</event>
<event>
 7    1  0.4894942E-006  0.1106772E+04  0.7818608E-02  0.8895265E-01
          2   -1    0    0  501    0  0.00000000000E+00  0.00000000000E+00  0.31585191287E+04  0.31585191287E+04  0.00000000000E+00 0. -1.
         -4   -1    0    0    0  501 -0.00000000000E+00 -0.00000000000E+00 -0.25048057800E+03  0.25048057800E+03  0.00000000000E+00 0. -1.
   -9000010    2    1    2    0  502  0.44329540751E+03  0.51547229919E+02  0.17873193581E+04  0.21026694645E+04  0.10136767008E+04 0.  0.
        -13    1    1    2    0    0 -0.43816472059E+03 -0.70840493513E+02  0.43887503172E+03  0.62419388216E+03  0.10566000000E+00 0.  1.
         13    1    3    3    0    0  0.12574430816E+03  0.47999768465E+03  0.12533467552E+04  0.13479938829E+04  0.10566000000E+00 0. -1.
          2    1    1    2  502    0 -0.51306869157E+01  0.19293263594E+02  0.68184416088E+03  0.68213636004E+03  0.00000000000E+00 0. -1.
         -4    1    3    3    0  502  0.31755109935E+03 -0.42845045474E+03  0.53397260291E+03  0.75467558164E+03  0.00000000000E+00 0. -1.
</event>
<event>
 7    1  0.4894942E-006  0.8774454E+03  0.7818608E-02  0.9451501E-01
          2   -1    0    0  502    0  0.00000000000E+00  0.00000000000E+00  0.13005092079E+04  0.13005092079E+04  0.00000000000E+00 0.  1.
          4   -1    0    0  501    0 -0.00000000000E+00 -0.00000000000E+00 -0.37753875210E+03  0.37753875210E+03  0.00000000000E+00 0.  1.
    9000010    2    1    2  502    0 -0.68635602805E+02 -0.52169776484E+00  0.40488937584E+03  0.96341453574E+03  0.87150504466E+03 0.  0.
        -13    1    3    3    0    0  0.31638895260E+03 -0.26024993215E+03  0.19676379029E+03  0.45447551842E+03  0.10566000000E+00 0.  1.
         13    1    1    2    0    0  0.98749159169E+02  0.30580545371E+02 -0.70108400020E+02  0.12490702586E+03  0.10566000000E+00 0. -1.
          2    1    1    2  501    0 -0.30113556364E+02 -0.30058847606E+02  0.58818948003E+03  0.58972639844E+03  0.00000000000E+00 0.  1.
          4    1    3    3  502    0 -0.38502455540E+03  0.25972823438E+03  0.20812558554E+03  0.50893901732E+03  0.00000000000E+00 0.  1.
</event>
<event>
 7    1  0.4894942E-006  0.1001642E+04  0.7818608E-02  0.9193642E-01
          4   -1    0    0  501    0 -0.00000000000E+00  0.00000000000E+00  0.82743262478E+03  0.82743262478E+03  0.00000000000E+00 0.  1.
          2   -1    0    0  502    0  0.00000000000E+00 -0.00000000000E+00 -0.14583442516E+04  0.14583442516E+04  0.00000000000E+00 0.  1.
    9000010    2    1    2  502    0  0.57638255600E+02 -0.14967308514E+03 -0.53702022492E+03  0.11333795688E+04  0.98510625014E+03 0.  0.
        -13    1    3    3    0    0 -0.41651285613E+03 -0.27862201212E+03 -0.33102046119E+03  0.60057284475E+03  0.10566000000E+00 0.  1.
         13    1    1    2    0    0 -0.72948122678E+02  0.16635272270E+03  0.51345031892E+03  0.54463372840E+03  0.10566000000E+00 0. -1.
          2    1    1    2  501    0  0.15309867079E+02 -0.16679637559E+02 -0.60734172077E+03  0.60776357914E+03  0.00000000000E+00 0.  1.
          4    1    3    3  502    0  0.47415111173E+03  0.12894892698E+03 -0.20599976373E+03  0.53280672404E+03  0.00000000000E+00 0.  1.
</event>
<event>
 7    1  0.4894942E-006  0.1114421E+04  0.7818608E-02  0.8871606E-01
         -4   -1    0    0    0  501  0.00000000000E+00  0.00000000000E+00  0.26452406873E+04  0.26452406873E+04  0.00000000000E+00 0. -1.
         -4   -1    0    0    0  502 -0.00000000000E+00 -0.00000000000E+00 -0.89464837130E+03  0.89464837130E+03  0.00000000000E+00 0. -1.
   -9000010    2    1    2    0  501 -0.50379161580E+03 -0.12069046608E+03  0.31661629690E+02  0.11316997082E+04  0.10056687278E+04 0.  0.
        -13    1    1    2    0    0  0.46571560769E+03  0.64943476405E+02 -0.18335538949E+03  0.50470574832E+03  0.10566000000E+00 0.  1.
         13    1    3    3    0    0 -0.55098334642E+03  0.28415316380E+03 -0.21396334922E+03  0.65582466750E+03  0.10566000000E+00 0. -1.
         -4    1    3    3    0  501  0.47191730616E+02 -0.40484362988E+03  0.24562497891E+03  0.47587504070E+03  0.00000000000E+00 0. -1.
         -4    1    1    2    0  502  0.38076008113E+02  0.55746989678E+02  0.19022860758E+04  0.19034836021E+04  0.00000000000E+00 0. -1.
</event>
<event>
 7    1  0.4894942E-006  0.8865850E+03  0.7818608E-02  0.9682004E-01
          4   -1    0    0  501    0 -0.00000000000E+00  0.00000000000E+00  0.30007332843E+03  0.30007332843E+03  0.00000000000E+00 0.  1.
          2   -1    0    0  502    0  0.00000000000E+00 -0.00000000000E+00 -0.14367807179E+04  0.14367807179E+04  0.00000000000E+00 0.  1.
    9000010    2    1    2  502    0  0.20470872479E+02  0.25438834117E+02 -0.42306100622E+03  0.98138153915E+03  0.88490842436E+03 0.  0.
        -13    1    3    3    0    0  0.44021589442E+03  0.10092066181E+03 -0.15422493992E+03  0.47724245090E+03  0.10566000000E+00 0.  1.
         13    1    1    2    0    0  0.34145943086E+02 -0.26571106794E+02 -0.36965379856E+01  0.43424010670E+02  0.10566000000E+00 0. -1.
          2    1    1    2  501    0 -0.54616815565E+02  0.11322726769E+01 -0.70994984531E+03  0.71204849655E+03  0.00000000000E+00 0.  1.
          4    1    3    3  502    0 -0.41974502194E+03 -0.75481827698E+02 -0.26883606630E+03  0.50413908825E+03  0.00000000000E+00 0.  1.
</event>
<event>
 7    1  0.4894942E-006  0.1016147E+04  0.7818608E-02  0.9411899E-01
          2   -1    0    0  501    0  0.00000000000E+00  0.00000000000E+00  0.42229261929E+03  0.42229261929E+03  0.00000000000E+00 0. -1.
         -4   -1    0    0    0  501 -0.00000000000E+00 -0.00000000000E+00 -0.13957920909E+04  0.13957920909E+04  0.00000000000E+00 0. -1.
   -9000010    2    1    2    0  502  0.75393250735E+02  0.18335955766E+02 -0.88515274822E+03  0.13477028509E+04  0.10133051056E+04 0.  0.
        -13    1    1    2    0    0 -0.72430066278E+02  0.23537137149E+02 -0.27175815907E+03  0.28222795665E+03  0.10566000000E+00 0.  1.
         13    1    3    3    0    0  0.78496763236E+02  0.23554123578E+03  0.14995425797E+03  0.29004776545E+03  0.10566000000E+00 0. -1.
          2    1    1    2  502    0 -0.29631844568E+01 -0.41873092916E+02  0.18341143566E+03  0.18815390270E+03  0.00000000000E+00 0. -1.
         -4    1    3    3    0  502 -0.31035125008E+01 -0.21720528001E+03 -0.10351070062E+04  0.10576550854E+04  0.00000000000E+00 0. -1.
</event>
<event>
 7    1  0.4894942E-006  0.1105419E+04  0.7818608E-02  0.8884176E-01
         -4   -1    0    0    0  501 -0.00000000000E+00  0.00000000000E+00  0.13266579270E+04  0.13266579270E+04  0.00000000000E+00 0. -1.
          1   -1    0    0  501    0  0.00000000000E+00 -0.00000000000E+00 -0.12164808530E+04  0.12164808530E+04  0.00000000000E+00 0.  1.
   -9000010    2    1    2    0  502 -0.30778041702E+03  0.34977784528E+03  0.79651288690E+03  0.13621435245E+04  0.10019625124E+04 0.  0.
        -13    1    1    2    0    0  0.31791169034E+03 -0.34316601651E+03  0.26039059930E+02  0.46851766407E+03  0.10566000000E+00 0.  1.
         13    1    3    3    0    0 -0.15711239853E+03 -0.23149676409E+03 -0.87793997315E+02  0.29322833200E+03  0.10566000000E+00 0. -1.
          1    1    1    2  502    0 -0.10131273325E+02 -0.66118287721E+01 -0.71237487281E+03  0.71247759150E+03  0.00000000000E+00 0.  1.
         -4    1    3    3    0  502 -0.15066801848E+03  0.58127460937E+03  0.88430688421E+03  0.10689151925E+04  0.00000000000E+00 0. -1.
</event>
<event>
 7    1  0.4894942E-006  0.9781271E+03  0.7818608E-02  0.9132678E-01
         -4   -1    0    0    0  501 -0.00000000000E+00  0.00000000000E+00  0.14576764736E+04  0.14576764736E+04  0.00000000000E+00 0. -1.
          2   -1    0    0  501    0  0.00000000000E+00 -0.00000000000E+00 -0.57111743684E+03  0.57111743684E+03  0.00000000000E+00 0. -1.
   -9000010    2    1    2    0  502 -0.15656156106E+03  0.29555174424E+03  0.71999366467E+03  0.12353120921E+04  0.94643686097E+03 0.  0.
        -13    1    1    2    0    0 -0.22668404182E+02 -0.24080085932E+03  0.41617355218E+03  0.48135158367E+03  0.10566000000E+00 0.  1.
         13    1    3    3    0    0 -0.10355617829E+03  0.64030513112E+03  0.40056071899E+03  0.76234076617E+03  0.10566000000E+00 0. -1.
          2    1    1    2  502    0  0.17922996524E+03 -0.54750884918E+02 -0.24960818008E+03  0.31213023468E+03  0.00000000000E+00 0. -1.
         -4    1    3    3    0  502 -0.53005382761E+02 -0.34475338688E+03  0.31943294568E+03  0.47297132593E+03  0.00000000000E+00 0. -1.
</event>
<event>
 7    1  0.4894942E-006  0.1190158E+04  0.7818608E-02  0.8748224E-01
          2   -1    0    0  501    0  0.00000000000E+00  0.00000000000E+00  0.15318771273E+04  0.15318771273E+04  0.00000000000E+00 0.  1.
         -4   -1    0    0    0  501 -0.00000000000E+00 -0.00000000000E+00 -0.69045100552E+03  0.69045100552E+03  0.00000000000E+00 0. -1.
   -9000010    2    1    2    0  502  0.54918063838E+03 -0.43786817707E+03  0.57067397799E+03  0.13396848405E+04  0.98780502558E+03 0.  0.
        -13    1    1    2    0    0 -0.47133246023E+03  0.44805527008E+03  0.54515549038E+02  0.65259464399E+03  0.10566000000E+00 0.  1.
         13    1    3    3    0    0  0.14793109220E+02 -0.12491291461E+03 -0.26864106490E+03  0.29663126139E+03  0.10566000000E+00 0. -1.
          2    1    1    2  502    0 -0.77848178152E+02 -0.10187093009E+02  0.21623659480E+03  0.23004864841E+03  0.00000000000E+00 0.  1.
         -4    1    3    3    0  502  0.53438752916E+03 -0.31295526246E+03  0.83931504289E+03  0.10430535791E+04  0.00000000000E+00 0. -1.
</event>
<event>
 7    1  0.4894942E-006  0.1105435E+04  0.7818608E-02  0.8887546E-01
         -4   -1    0    0    0  501 -0.00000000000E+00  0.00000000000E+00  0.10413421505E+04  0.10413421505E+04  0.00000000000E+00 0. -1.
          2   -1    0    0  501    0  0.00000000000E+00 -0.00000000000E+00 -0.28287636018E+04  0.28287636018E+04  0.00000000000E+00 0. -1.
   -9000010    2    1    2    0  502  0.89709471479E+02 -0.57347567430E+03  0.43783687715E+03  0.12404109535E+04  0.10049856041E+04 0.  0.
        -13    1    1    2    0    0  0.10442800272E+03  0.39713304840E+03 -0.22363259088E+02  0.41124201196E+03  0.10566000000E+00 0.  1.
         13    1    3    3    0    0 -0.14007840828E+03 -0.76890560832E+03  0.10070111228E+03  0.78802190334E+03  0.10566000000E+00 0. -1.
          2    1    1    2  502    0 -0.19413747420E+03  0.17634262591E+03 -0.22028950694E+04  0.22184527868E+04  0.00000000000E+00 0. -1.
         -4    1    3    3    0  502  0.22978787976E+03  0.19542993401E+03  0.33713576488E+03  0.45238905021E+03  0.00000000000E+00 0. -1.
</event>
<event>
 6    1  0.4894942E-006  0.6306125E+03  0.7818608E-02  0.9417940E-01
          4   -1    0    0  501    0  0.00000000000E+00  0.00000000000E+00  0.29628008831E+04  0.29628008831E+04  0.00000000000E+00 0.  1.
         -4   -1    0    0    0  501 -0.00000000000E+00 -0.00000000000E+00 -0.11071399316E+03  0.11071399316E+03  0.00000000000E+00 0. -1.
        -13    1    1    2    0    0 -0.15678012089E+02 -0.31705316549E+03  0.46641434387E+03  0.56419044758E+03  0.10566000000E+00 0.  1.
         13    1    1    2    0    0 -0.58218595264E+02  0.40429228762E+03  0.12938544296E+04  0.13567980524E+04  0.10566000000E+00 0. -1.
          4    1    1    2  502    0 -0.61054418778E+02  0.32313255142E+02  0.83992508331E+03  0.84276089971E+03  0.00000000000E+00 0.  1.
         -4    1    1    2    0  502  0.13495102613E+03 -0.11955237728E+03  0.25189303317E+03  0.30976547665E+03  0.00000000000E+00 0. -1.
</event>
<event>
 7    1  0.4894942E-006  0.1029040E+04  0.7818608E-02  0.9105604E-01
          2   -1    0    0  501    0  0.00000000000E+00  0.00000000000E+00  0.12282906952E+04  0.12282906952E+04  0.00000000000E+00 0. -1.
         -4   -1    0    0    0  501 -0.00000000000E+00 -0.00000000000E+00 -0.13420779402E+04  0.13420779402E+04  0.00000000000E+00 0. -1.
   -9000010    2    1    2    0  502 -0.37073299927E+02 -0.28489000541E+03 -0.72149383317E+03  0.12674100392E+04  0.10016177472E+04 0.  0.
        -13    1    1    2    0    0  0.15773150930E+03  0.17404181695E+03 -0.29975799936E+03  0.38082102413E+03  0.10566000000E+00 0.  1.
         13    1    3    3    0    0 -0.30981113276E+03 -0.46298004008E+03 -0.10035460423E+03  0.56604285461E+03  0.10566000000E+00 0. -1.
          2    1    1    2  502    0 -0.12065820938E+03  0.11084818846E+03  0.90746458752E+03  0.92213757216E+03  0.00000000000E+00 0. -1.
         -4    1    3    3    0  502  0.27273783283E+03  0.17809003467E+03 -0.62113922893E+03  0.70136718459E+03  0.00000000000E+00 0. -1.
</event>
<event>
 7    1  0.4894942E-006  0.8273657E+03  0.7818608E-02  0.9375291E-01
         -4   -1    0    0    0  501 -0.00000000000E+00  0.00000000000E+00  0.76004233080E+03  0.76004233080E+03  0.00000000000E+00 0. -1.
          2   -1    0    0  501    0  0.00000000000E+00 -0.00000000000E+00 -0.11181601370E+04  0.11181601370E+04  0.00000000000E+00 0. -1.
   -9000010    2    1    2    0  502 -0.11288260959E+03  0.10710541435E+03  0.48571636030E+03  0.95848376116E+03  0.81151505496E+03 0.  0.
        -13    1    1    2    0    0  0.11839313118E+03 -0.11554583827E+03 -0.14259143664E+03  0.21840353299E+03  0.10566000000E+00 0.  1.
         13    1    3    3    0    0  0.77011390256E+02  0.34727820167E+03 -0.31849516978E+02  0.35713765761E+03  0.10566000000E+00 0. -1.
          2    1    1    2  502    0 -0.55105215922E+01  0.84404239207E+01 -0.70124272991E+03  0.70131517369E+03  0.00000000000E+00 0. -1.
         -4    1    3    3    0  502 -0.18989399985E+03 -0.24017278732E+03  0.51756587727E+03  0.60134610356E+03  0.00000000000E+00 0. -1.
</event>
<event>
 7    1  0.4894942E-006  0.1021371E+04  0.7818608E-02  0.9163946E-01
          4   -1    0    0  501    0 -0.00000000000E+00  0.00000000000E+00  0.19655642707E+04  0.19655642707E+04  0.00000000000E+00 0.  1.
          2   -1    0    0  502    0  0.00000000000E+00 -0.00000000000E+00 -0.58156939045E+03  0.58156939045E+03  0.00000000000E+00 0.  1.
    9000010    2    1    2  502    0  0.13455329775E+03  0.57180400636E+02  0.15298386865E+04  0.18352536602E+04  0.10031826367E+04 0.  0.
        -13    1    3    3    0    0 -0.38912639430E+03 -0.63478521023E+02  0.10238149963E+04  0.10971080308E+04  0.10566000000E+00 0.  1.
         13    1    1    2    0    0 -0.18949554657E+03 -0.72451906020E+02  0.24432104153E+03  0.31756987162E+03  0.10566000000E+00 0. -1.
          2    1    1    2  501    0  0.54942248825E+02  0.15271505384E+02 -0.39016484781E+03  0.39431012927E+03  0.00000000000E+00 0.  1.
          4    1    3    3  502    0  0.52367969205E+03  0.12065892166E+03  0.50602369019E+03  0.73814562945E+03  0.00000000000E+00 0.  1.
</event>
<event>
 7    1  0.4894942E-006  0.1003017E+04  0.7818608E-02  0.9452519E-01
          2   -1    0    0  501    0  0.00000000000E+00  0.00000000000E+00  0.18312686726E+04  0.18312686726E+04  0.00000000000E+00 0. -1.
         -4   -1    0    0    0  501 -0.00000000000E+00 -0.00000000000E+00 -0.17636540615E+04  0.17636540615E+04  0.00000000000E+00 0. -1.
   -9000010    2    1    2    0  502  0.34360936164E+02  0.40775906725E+02 -0.14458806166E+04  0.17584450682E+04  0.99935726954E+03 0.  0.
        -13    1    1    2    0    0  0.51192802444E+02 -0.44734395842E+02 -0.15318763621E+03  0.16759574053E+03  0.10566000000E+00 0.  1.
         13    1    3    3    0    0 -0.28839497947E+03 -0.34090387715E+03 -0.40098989058E+03  0.60014999887E+03  0.10566000000E+00 0. -1.
          2    1    1    2  502    0 -0.85553738608E+02  0.39584891173E+01  0.16666828639E+04  0.16688819253E+04  0.00000000000E+00 0. -1.
         -4    1    3    3    0  502  0.32275591563E+03  0.38167978387E+03 -0.10448907260E+04  0.11582950694E+04  0.00000000000E+00 0. -1.
</event>
<event>
 7    1  0.4894942E-006  0.1028295E+04  0.7818608E-02  0.9169598E-01
         -4   -1    0    0    0  501 -0.00000000000E+00  0.00000000000E+00  0.34829264590E+03  0.34829264590E+03  0.00000000000E+00 0. -1.
          2   -1    0    0  501    0  0.00000000000E+00 -0.00000000000E+00 -0.28418342885E+04  0.28418342885E+04  0.00000000000E+00 0. -1.
   -9000010    2    1    2    0  502  0.14139709812E+03  0.11717495657E+03 -0.10124299348E+04  0.14279162359E+04  0.99005418742E+03 0.  0.
        -13    1    1    2    0    0 -0.84487777385E+02  0.16339130447E+03  0.60967564629E+02  0.19378327587E+03  0.10566000000E+00 0.  1.
         13    1    3    3    0    0 -0.24585789002E+03 -0.30470389175E+03 -0.21654968606E+03  0.44741964801E+03  0.10566000000E+00 0. -1.
          2    1    1    2  502    0 -0.56909320733E+02 -0.28056626104E+03 -0.15420792724E+04  0.15684274227E+04  0.00000000000E+00 0. -1.
         -4    1    3    3    0  502  0.38725498814E+03  0.42187884832E+03 -0.79588024874E+03  0.98049658788E+03  0.00000000000E+00 0. -1.
</event>
<event>
 7    1  0.4894942E-006  0.1097171E+04  0.7818608E-02  0.8894393E-01
          1   -1    0    0  501    0  0.00000000000E+00  0.00000000000E+00  0.46039730535E+03  0.46039730535E+03  0.00000000000E+00 0. -1.
         -4   -1    0    0    0  501 -0.00000000000E+00 -0.00000000000E+00 -0.34463088266E+04  0.34463088266E+04  0.00000000000E+00 0. -1.
   -9000010    2    1    2    0  502 -0.45891347431E+03  0.10687201028E+03 -0.29719777830E+04  0.31700084044E+04  0.99713496475E+03 0.  0.
        -13    1    1    2    0    0  0.42646277562E+03 -0.10894987471E+03 -0.24473120595E+03  0.50362083805E+03  0.10566000000E+00 0.  1.
         13    1    3    3    0    0 -0.51483308698E+03 -0.36214432057E+03 -0.16281551286E+04  0.17455918052E+04  0.10566000000E+00 0. -1.
          1    1    1    2  502    0  0.32450698695E+02  0.20778644347E+01  0.23079746765E+03  0.23307688955E+03  0.00000000000E+00 0. -1.
         -4    1    3    3    0  502  0.55919612668E+02  0.46901633085E+03 -0.13438226544E+04  0.14244165992E+04  0.00000000000E+00 0. -1.
</event>
<event>
 7    1  0.4894942E-006  0.1401096E+04  0.7818608E-02  0.8547825E-01
          2   -1    0    0  502    0  0.00000000000E+00  0.00000000000E+00  0.18163579933E+04  0.18163579933E+04  0.00000000000E+00 0.  1.
          4   -1    0    0  501    0 -0.00000000000E+00 -0.00000000000E+00 -0.20753898962E+04  0.20753898962E+04  0.00000000000E+00 0.  1.
    9000010    2    1    2  502    0 -0.66865769908E+03 -0.72159706552E+03 -0.83472734567E+03  0.16334495444E+04  0.10017895133E+04 0.  0.
        -13    1    3    3    0    0 -0.12605291162E+02 -0.51069753119E+03  0.48548884533E+02  0.51315481785E+03  0.10566000000E+00 0.  1.
         13    1    1    2    0    0  0.59032333164E+03  0.78042580187E+03 -0.55391952744E+03  0.11244433833E+04  0.10566000000E+00 0. -1.
          2    1    1    2  501    0  0.78334367436E+02 -0.58828736349E+02  0.11296149703E+04  0.11338549618E+04  0.00000000000E+00 0.  1.
          4    1    3    3  502    0 -0.65605240791E+03 -0.21089953433E+03 -0.88327623020E+03  0.11202947266E+04  0.00000000000E+00 0.  1.
</event>
<event>
 7    1  0.4894942E-006  0.1098280E+04  0.7818608E-02  0.8944670E-01
          4   -1    0    0  501    0  0.00000000000E+00  0.00000000000E+00  0.17901746626E+04  0.17901746626E+04  0.00000000000E+00 0.  1.
         -4   -1    0    0    0  501 -0.00000000000E+00 -0.00000000000E+00 -0.11062206966E+04  0.11062206966E+04  0.00000000000E+00 0. -1.
   -9000010    2    1    2    0  502  0.20969836150E+03 -0.28707363827E+03 -0.58851840750E+03  0.12415181881E+04  0.10337450454E+04 0.  0.
        -13    1    1    2    0    0 -0.22928920888E+03  0.30286380655E+03 -0.22811897692E+01  0.37987529745E+03  0.10566000000E+00 0.  1.
         13    1    3    3    0    0  0.55628124483E+02  0.38453169882E+03 -0.31492900745E+03  0.50013938710E+03  0.10566000000E+00 0. -1.
          4    1    1    2  502    0  0.19590847376E+02 -0.15790168277E+02  0.12747535633E+04  0.12750018737E+04  0.00000000000E+00 0.  1.
         -4    1    3    3    0  502  0.15407023702E+03 -0.67160533709E+03 -0.27358940005E+03  0.74137880099E+03  0.00000000000E+00 0. -1.
</event>
<event>
 7    1  0.4894942E-006  0.1450630E+04  0.7818608E-02  0.8516072E-01
          4   -1    0    0  501    0 -0.00000000000E+00  0.00000000000E+00  0.22519123920E+04  0.22519123920E+04  0.00000000000E+00 0.  1.
          2   -1    0    0  502    0  0.00000000000E+00 -0.00000000000E+00 -0.31848318800E+04  0.31848318800E+04  0.00000000000E+00 0.  1.
    9000010    2    1    2  502    0 -0.85130433214E+03 -0.56286036008E+03  0.11279475927E+04  0.18388073701E+04  0.10331582268E+04 0.  0.
        -13    1    3    3    0    0 -0.10546723470E+04 -0.35963953812E+03  0.67648913390E+03  0.13035765863E+04  0.10566000000E+00 0.  1.
         13    1    1    2    0    0  0.87160394374E+03  0.52326987218E+03  0.43205637581E+03  0.11046164569E+04  0.10566000000E+00 0. -1.
          2    1    1    2  501    0 -0.20299611605E+02  0.39590487904E+02 -0.24929234565E+04  0.24933204449E+04  0.00000000000E+00 0.  1.
          4    1    3    3  502    0  0.20336801484E+03 -0.20322082196E+03  0.45145845880E+03  0.53523078383E+03  0.00000000000E+00 0.  1.
</event>
<event>
 7    1  0.4894942E-006  0.1038606E+04  0.7818608E-02  0.9051822E-01
          4   -1    0    0  501    0 -0.00000000000E+00  0.00000000000E+00  0.37181276795E+03  0.37181276795E+03  0.00000000000E+00 0.  1.
          2   -1    0    0  502    0  0.00000000000E+00 -0.00000000000E+00 -0.22152125882E+04  0.22152125882E+04  0.00000000000E+00 0.  1.
    9000010    2    1    2  502    0 -0.13721502735E+03  0.31773598237E+03 -0.13002701068E+04  0.16758254108E+04  0.99895161970E+03 0.  0.
        -13    1    3    3    0    0 -0.12131182052E+03  0.67371968276E+03 -0.98824859011E+03  0.12021855330E+04  0.10566000000E+00 0.  1.
         13    1    1    2    0    0  0.12307978439E+03 -0.25128672600E+03  0.74729313491E+02  0.28961721884E+03  0.10566000000E+00 0. -1.
          2    1    1    2  501    0  0.14135242955E+02 -0.66449256364E+02 -0.61785902689E+03  0.62158272649E+03  0.00000000000E+00 0.  1.
          4    1    3    3  502    0 -0.15903206825E+02 -0.35598370039E+03 -0.31202151670E+03  0.47363987777E+03  0.00000000000E+00 0.  1.
</event>
<event>
 7    1  0.4894942E-006  0.1083116E+04  0.7818608E-02  0.9013614E-01
         -4   -1    0    0    0  501 -0.00000000000E+00  0.00000000000E+00  0.30244614136E+04  0.30244614136E+04  0.00000000000E+00 0. -1.
          2   -1    0    0  501    0  0.00000000000E+00 -0.00000000000E+00 -0.45374849411E+03  0.45374849411E+03  0.00000000000E+00 0. -1.
   -9000010    2    1    2    0  502  0.17533465186E+03 -0.17796795623E+02  0.22849829962E+04  0.24973557932E+04  0.99225989483E+03 0.  0.
        -13    1    1    2    0    0  0.26612692938E+03  0.12063514373E+03  0.41678699562E+03  0.50900667120E+03  0.10566000000E+00 0.  1.
         13    1    3    3    0    0  0.43158597909E+03 -0.37193263096E+03  0.13458125551E+04  0.14614416800E+04  0.10566000000E+00 0. -1.
          2    1    1    2  502    0 -0.44146158123E+03 -0.10283834811E+03 -0.13105707232E+03  0.47184744330E+03  0.00000000000E+00 0. -1.
         -4    1    3    3    0  502 -0.25625132724E+03  0.35413583533E+03  0.93917044112E+03  0.10359141133E+04  0.00000000000E+00 0. -1.
</event>
<event>
 7    1  0.4894942E-006  0.1131326E+04  0.7818608E-02  0.8983506E-01
         -4   -1    0    0    0  501 -0.00000000000E+00  0.00000000000E+00  0.16581021035E+04  0.16581021035E+04  0.00000000000E+00 0. -1.
          2   -1    0    0  501    0  0.00000000000E+00 -0.00000000000E+00 -0.10491943786E+04  0.10491943786E+04  0.00000000000E+00 0.  1.
   -9000010    2    1    2    0  502  0.18907597682E+03 -0.16504589495E+03  0.46311835342E+03  0.12138682729E+04  0.10936213706E+04 0.  0.
        -13    1    1    2    0    0 -0.23515302400E+03  0.17375423317E+03  0.79265733760E+03  0.84486279611E+03  0.10566000000E+00 0.  1.
         13    1    3    3    0    0 -0.87720778729E+02 -0.44953001358E+03 -0.15133427715E+03  0.48236318550E+03  0.10566000000E+00 0. -1.
          2    1    1    2  502    0  0.46077047174E+02 -0.87083382142E+01 -0.64686796619E+03  0.64856541313E+03  0.00000000000E+00 0.  1.
         -4    1    3    3    0  502  0.27679675555E+03  0.28448411862E+03  0.61445263057E+03  0.73150508737E+03  0.00000000000E+00 0. -1.
</event>
<event>
 7    1  0.4894942E-006  0.1352545E+04  0.7818608E-02  0.8622655E-01
          2   -1    0    0  501    0  0.00000000000E+00  0.00000000000E+00  0.86366668999E+03  0.86366668999E+03  0.00000000000E+00 0.  1.
         -4   -1    0    0    0  501 -0.00000000000E+00 -0.00000000000E+00 -0.28585265443E+04  0.28585265443E+04  0.00000000000E+00 0. -1.
   -9000010    2    1    2    0  502 -0.73195085022E+03 -0.19204514047E+03 -0.10348548829E+04  0.16922474246E+04  0.11046009841E+04 0.  0.
        -13    1    1    2    0    0  0.76431821397E+03  0.19202126888E+03 -0.13904686017E+04  0.15982670126E+04  0.10566000000E+00 0.  1.
         13    1    3    3    0    0  0.19649249241E+02  0.38139549371E+02  0.21309378822E+03  0.21736994264E+03  0.10566000000E+00 0. -1.
          2    1    1    2  502    0 -0.32367363750E+02  0.23871590140E-01  0.43046363037E+03  0.43167879711E+03  0.00000000000E+00 0.  1.
         -4    1    3    3    0  502 -0.75160009946E+03 -0.23018468984E+03 -0.12479486711E+04  0.14748774819E+04  0.00000000000E+00 0. -1.
</event>
<event>
 7    1  0.4894942E-006  0.1051638E+04  0.7818608E-02  0.9184735E-01
          1   -1    0    0  501    0  0.00000000000E+00  0.00000000000E+00  0.83468269401E+03  0.83468269401E+03  0.00000000000E+00 0. -1.
         -4   -1    0    0    0  501 -0.00000000000E+00 -0.00000000000E+00 -0.75171792551E+03  0.75171792551E+03  0.00000000000E+00 0. -1.
   -9000010    2    1    2    0  502  0.13822019944E+03 -0.52351948397E+02 -0.52892780668E+02  0.10508573874E+04  0.10390659519E+04 0.  0.
        -13    1    1    2    0    0 -0.15918684843E+03  0.35846296551E+02 -0.16584759501E+03  0.23266036539E+03  0.10566000000E+00 0.  1.
         13    1    3    3    0    0 -0.44442048518E+03  0.81003056321E+02 -0.16502917454E+02  0.45204360435E+03  0.10566000000E+00 0. -1.
          1    1    1    2  502    0  0.20966648989E+02  0.16505651846E+02  0.30170514418E+03  0.30288286669E+03  0.00000000000E+00 0. -1.
         -4    1    3    3    0  502  0.58264068463E+03 -0.13335500472E+03 -0.36389863214E+02  0.59881378308E+03  0.00000000000E+00 0. -1.
</event>
<event>
 7    1  0.4894942E-006  0.1219916E+04  0.7818608E-02  0.8718673E-01
         -4   -1    0    0    0  501 -0.00000000000E+00  0.00000000000E+00  0.69164307987E+03  0.69164307987E+03  0.00000000000E+00 0. -1.
          2   -1    0    0  501    0  0.00000000000E+00 -0.00000000000E+00 -0.22644538597E+04  0.22644538597E+04  0.00000000000E+00 0. -1.
   -9000010    2    1    2    0  502  0.11501751928E+03  0.68575945864E+03 -0.16522010196E+04  0.20522170781E+04  0.99916548272E+03 0.  0.
        -13    1    1    2    0    0 -0.19379345582E+03 -0.67376180350E+03  0.22634542900E+03  0.73671102595E+03  0.10566000000E+00 0.  1.
         13    1    3    3    0    0 -0.14238641732E+03  0.53860528604E+03 -0.16647082808E+04  0.17554552735E+04  0.10566000000E+00 0. -1.
          2    1    1    2  502    0  0.78775936547E+02 -0.11997655140E+02 -0.14695518920E+03  0.16716883544E+03  0.00000000000E+00 0. -1.
         -4    1    3    3    0  502  0.25740393659E+03  0.14715417259E+03  0.12507261244E+02  0.29676180460E+03  0.00000000000E+00 0. -1.
</event>
<event>
 7    1  0.4894942E-006  0.9494642E+03  0.7818608E-02  0.9378563E-01
          1   -1    0    0  501    0  0.00000000000E+00  0.00000000000E+00  0.76555282870E+03  0.76555282870E+03  0.00000000000E+00 0.  1.
         -4   -1    0    0    0  501 -0.00000000000E+00 -0.00000000000E+00 -0.22926879010E+04  0.22926879010E+04  0.00000000000E+00 0. -1.
   -9000010    2    1    2    0  502  0.63180724757E+02 -0.48794733944E+02 -0.20110154619E+04  0.22228221550E+04  0.94360077088E+03 0.  0.
        -13    1    1    2    0    0 -0.83353297748E+02  0.70990356556E+02 -0.15833513382E+03  0.19250306163E+03  0.10566000000E+00 0.  1.
         13    1    3    3    0    0  0.29966376004E+03  0.34325668958E+03 -0.71042217275E+03  0.84399241628E+03  0.10566000000E+00 0. -1.
          1    1    1    2  502    0  0.20172572991E+02 -0.22195622612E+02  0.64221552344E+03  0.64291551304E+03  0.00000000000E+00 0.  1.
         -4    1    3    3    0  502 -0.23648303529E+03 -0.39205142353E+03 -0.13005932892E+04  0.13788297387E+04  0.00000000000E+00 0. -1.
</event>
<event>
 7    1  0.4894942E-006  0.1009445E+04  0.7818608E-02  0.9143779E-01
          1   -1    0    0  501    0  0.00000000000E+00  0.00000000000E+00  0.12277121494E+04  0.12277121494E+04  0.00000000000E+00 0. -1.
         -4   -1    0    0    0  501 -0.00000000000E+00 -0.00000000000E+00 -0.20958617720E+04  0.20958617720E+04  0.00000000000E+00 0. -1.
   -9000010    2    1    2    0  502  0.18894384591E+03 -0.85957120145E+02 -0.59799851929E+03  0.11719229236E+04  0.98626198667E+03 0.  0.
        -13    1    1    2    0    0 -0.16202549698E+03  0.14229465022E+03 -0.12002457443E+04  0.12194629502E+04  0.10566000000E+00 0.  1.
         13    1    3    3    0    0  0.34227175054E+03  0.35452090187E+03 -0.12659271331E+03  0.50878359575E+03  0.10566000000E+00 0. -1.
          1    1    1    2  502    0 -0.26918348925E+02 -0.56337530071E+02  0.93009464099E+03  0.93218804755E+03  0.00000000000E+00 0. -1.
         -4    1    3    3    0  502 -0.15332790463E+03 -0.44047802201E+03 -0.47140580598E+03  0.66313932784E+03  0.00000000000E+00 0. -1.
</event>
<event>
 6    1  0.4894942E-006  0.1842940E+04  0.7818608E-02  0.8311874E-01
          2   -1    0    0  501    0  0.00000000000E+00  0.00000000000E+00  0.19097827699E+04  0.19097827699E+04  0.00000000000E+00 0. -1.
         -4   -1    0    0    0  501 -0.00000000000E+00 -0.00000000000E+00 -0.44677355343E+04  0.44677355343E+04  0.00000000000E+00 0. -1.
        -13    1    1    2    0    0 -0.78424537540E+03  0.10268467970E+04 -0.14354404884E+04  0.19313064387E+04  0.10566000000E+00 0.  1.
         13    1    1    2    0    0  0.84295295008E+03 -0.53958027444E+03 -0.23345197176E+04  0.25400194628E+04  0.10566000000E+00 0. -1.
          2    1    1    2  502    0  0.76874417003E+02  0.19398783485E+02  0.13591425444E+04  0.13614530638E+04  0.00000000000E+00 0. -1.
         -4    1    1    2    0  502 -0.13558199168E+03 -0.50666530603E+03 -0.14713510287E+03  0.54473933885E+03  0.00000000000E+00 0. -1.
</event>
<event>
 7    1  0.4894942E-006  0.1056235E+04  0.7818608E-02  0.8978742E-01
         -4   -1    0    0    0  501 -0.00000000000E+00  0.00000000000E+00  0.17431794114E+04  0.17431794114E+04  0.00000000000E+00 0. -1.
          2   -1    0    0  501    0  0.00000000000E+00 -0.00000000000E+00 -0.13898965903E+04  0.13898965903E+04  0.00000000000E+00 0. -1.
   -9000010    2    1    2    0  502  0.65830012246E+02 -0.35137962581E+03 -0.13414330112E+03  0.10628996871E+04  0.99194762341E+03 0.  0.
        -13    1    1    2    0    0 -0.78684803030E+02  0.35447900058E+03  0.12529675282E+04  0.13045207158E+04  0.10566000000E+00 0.  1.
         13    1    3    3    0    0  0.48020784228E+03 -0.37758732302E+03  0.41029566210E+02  0.61225419129E+03  0.10566000000E+00 0. -1.
          2    1    1    2  502    0  0.12854790784E+02 -0.30993747708E+01 -0.76554140599E+03  0.76565559885E+03  0.00000000000E+00 0. -1.
         -4    1    3    3    0  502 -0.41437783003E+03  0.26207697203E+02 -0.17517286733E+03  0.45064549578E+03  0.00000000000E+00 0. -1.
</event>
<event>
 7    1  0.4894942E-006  0.1046327E+04  0.7818608E-02  0.9262423E-01
          2   -1    0    0  502    0  0.00000000000E+00  0.00000000000E+00  0.28769658256E+04  0.28769658256E+04  0.00000000000E+00 0. -1.
          4   -1    0    0  501    0 -0.00000000000E+00 -0.00000000000E+00 -0.25480264831E+03  0.25480264831E+03  0.00000000000E+00 0.  1.
    9000010    2    1    2  502    0 -0.12292499375E+03 -0.39950040850E+03  0.18663017368E+04  0.21429513385E+04  0.96666805884E+03 0.  0.
        -13    1    3    3    0    0 -0.11468519389E+03 -0.69621298144E+03  0.15807084718E+04  0.17310414476E+04  0.10566000000E+00 0.  1.
         13    1    1    2    0    0 -0.10060439703E+03  0.69031373584E+02 -0.12903348896E+02  0.12269100545E+03  0.10566000000E+00 0. -1.
          2    1    1    2  501    0  0.22352939078E+03  0.33046903492E+03  0.76876478945E+03  0.86612613001E+03  0.00000000000E+00 0. -1.
          4    1    3    3  502    0 -0.82397998594E+01  0.29671257294E+03  0.28559326498E+03  0.41190989092E+03  0.00000000000E+00 0.  1.
</event>
<event>
 7    1  0.4894942E-006  0.1031688E+04  0.7818608E-02  0.9044720E-01
          2   -1    0    0  501    0  0.00000000000E+00  0.00000000000E+00  0.32560693763E+04  0.32560693763E+04  0.00000000000E+00 0.  1.
         -4   -1    0    0    0  501 -0.00000000000E+00 -0.00000000000E+00 -0.17995652648E+03  0.17995652648E+03  0.00000000000E+00 0. -1.
   -9000010    2    1    2    0  502  0.26020710010E+03 -0.58129671204E+02  0.17829602489E+04  0.20555756797E+04  0.98760180858E+03 0.  0.
        -13    1    1    2    0    0 -0.28367648611E+03  0.12203348635E+03  0.52352933027E+03  0.60782192406E+03  0.10566000000E+00 0.  1.
         13    1    3    3    0    0 -0.17789027924E+03 -0.31566535477E+03  0.13175811260E+04  0.13664953723E+04  0.10566000000E+00 0. -1.
          2    1    1    2  502    0  0.23469386005E+02 -0.63903815146E+02  0.76962327067E+03  0.77262829901E+03  0.00000000000E+00 0.  1.
         -4    1    3    3    0  502  0.43809737935E+03  0.25753568357E+03  0.46537912289E+03  0.68908030746E+03  0.00000000000E+00 0. -1.
</event>
<event>
 7    1  0.4894942E-006  0.1391517E+04  0.7818608E-02  0.8552049E-01
         -4   -1    0    0    0  501 -0.00000000000E+00  0.00000000000E+00  0.20492353030E+04  0.20492353030E+04  0.00000000000E+00 0. -1.
          2   -1    0    0  501    0  0.00000000000E+00 -0.00000000000E+00 -0.16341368020E+04  0.16341368020E+04  0.00000000000E+00 0. -1.
   -9000010    2    1    2    0  502  0.98471994359E+03  0.14724111740E+03 -0.20086985550E+03  0.14161176641E+04  0.98675590991E+03 0.  0.
        -13    1    1    2    0    0 -0.97787896364E+03 -0.46854471793E+02  0.12711162539E+04  0.16044248662E+04  0.10566000000E+00 0.  1.
         13    1    3    3    0    0  0.18424105895E+03 -0.37795085862E+03  0.57750199934E+02  0.42441337878E+03  0.10566000000E+00 0. -1.
          2    1    1    2  502    0 -0.68409799519E+01 -0.10038664561E+03 -0.65514789743E+03  0.66282957472E+03  0.00000000000E+00 0. -1.
         -4    1    3    3    0  502  0.80047888464E+03  0.52519197602E+03 -0.25862005544E+03  0.99170428531E+03  0.00000000000E+00 0. -1.
</event>
<event>
 7    1  0.4894942E-006  0.1012048E+04  0.7818608E-02  0.9110785E-01
          2   -1    0    0  502    0  0.00000000000E+00  0.00000000000E+00  0.38455787341E+03  0.38455787341E+03  0.00000000000E+00 0.  1.
          4   -1    0    0  501    0 -0.00000000000E+00 -0.00000000000E+00 -0.11185798876E+04  0.11185798876E+04  0.00000000000E+00 0.  1.
    9000010    2    1    2  502    0 -0.23278245152E+03 -0.11432989760E+03 -0.52578443612E+03  0.11440641378E+04  0.98243294069E+03 0.  0.
        -13    1    3    3    0    0 -0.26812352451E+03 -0.35441195032E+03 -0.71122421203E+03  0.83865245834E+03  0.10566000000E+00 0.  1.
         13    1    1    2    0    0  0.20686985944E+03  0.12243630083E+03 -0.22323632723E+03  0.32805526282E+03  0.10566000000E+00 0. -1.
          2    1    1    2  501    0  0.25912592087E+02 -0.81064032239E+01  0.14998749179E+02  0.31018360351E+02  0.00000000000E+00 0.  1.
          4    1    3    3  502    0  0.35341072982E+02  0.24008205272E+03  0.18543977591E+03  0.30541167949E+03  0.00000000000E+00 0.  1.
</event>
<event>
 7    1  0.4894942E-006  0.1000075E+04  0.7818608E-02  0.9354020E-01
         -4   -1    0    0    0  501 -0.00000000000E+00  0.00000000000E+00  0.30351412426E+04  0.30351412426E+04  0.00000000000E+00 0. -1.
          5   -1    0    0  501    0  0.00000000000E+00 -0.00000000000E+00 -0.23802381711E+03  0.23802381711E+03  0.00000000000E+00 0. -1.
   -9000010    2    1    2    0  502  0.10146985056E+03 -0.36831090672E+02  0.28928849706E+04  0.30611797292E+04  0.99518099946E+03 0.  0.
        -13    1    1    2    0    0 -0.93957171153E+02  0.14770490330E+02  0.17187157175E+02  0.96651574905E+02  0.10566000000E+00 0.  1.
         13    1    3    3    0    0  0.45979476803E+03 -0.28249683212E+03  0.19449925702E+04  0.20184676857E+04  0.10566000000E+00 0. -1.
          5    1    1    2  502    0 -0.75126794061E+01  0.22060600342E+02 -0.11295470221E+03  0.11533375564E+03  0.00000000000E+00 0. -1.
         -4    1    3    3    0  502 -0.35832491747E+03  0.24566574144E+03  0.94789240031E+03  0.10427120435E+04  0.00000000000E+00 0. -1.
</event>
<event>
 7    1  0.4894942E-006  0.1035112E+04  0.7818608E-02  0.9096304E-01
         -4   -1    0    0    0  501 -0.00000000000E+00  0.00000000000E+00  0.24672255648E+04  0.24672255648E+04  0.00000000000E+00 0. -1.
          1   -1    0    0  501    0  0.00000000000E+00 -0.00000000000E+00 -0.75221536669E+03  0.75221536669E+03  0.00000000000E+00 0. -1.
   -9000010    2    1    2    0  502  0.14331411507E+03  0.23232527206E+03  0.13220951028E+04  0.16840562189E+04  0.10067750095E+04 0.  0.
        -13    1    1    2    0    0 -0.20372858987E+03 -0.12690401065E+03  0.94247237237E+03  0.97255547405E+03  0.10566000000E+00 0.  1.
         13    1    3    3    0    0  0.14599663493E+03 -0.36759079497E+03  0.29064994995E+03  0.49083135039E+03  0.10566000000E+00 0. -1.
          1    1    1    2  502    0  0.60414474805E+02 -0.10542126141E+03 -0.54955727702E+03  0.56282923862E+03  0.00000000000E+00 0. -1.
         -4    1    3    3    0  502 -0.26825198614E+01  0.59991606703E+03  0.10314451529E+04  0.11932248685E+04  0.00000000000E+00 0. -1.
</event>
<event>
 7    1  0.4894942E-006  0.1029252E+04  0.7818608E-02  0.8988635E-01
         -4   -1    0    0    0  502 -0.00000000000E+00  0.00000000000E+00  0.16726275077E+04  0.16726275077E+04  0.00000000000E+00 0. -1.
         -2   -1    0    0    0  501  0.00000000000E+00 -0.00000000000E+00 -0.14684582301E+04  0.14684582301E+04  0.00000000000E+00 0.  1.
   -9000010    2    1    2    0  501 -0.10196477685E+03  0.35973470892E+03  0.14113820483E+04  0.17462102529E+04  0.95783353707E+03 0.  0.
        -13    1    1    2    0    0  0.11774085236E+03 -0.36494268032E+03 -0.29834467162E+03  0.48585555722E+03  0.10566000000E+00 0.  1.
         13    1    3    3    0    0  0.32684301016E+03  0.35316677086E+03  0.11433446335E+04  0.12404797795E+04  0.10566000000E+00 0. -1.
         -2    1    1    2    0  502 -0.15776075511E+02  0.52079714062E+01 -0.90886809897E+03  0.90901992765E+03  0.00000000000E+00 0.  1.
         -4    1    3    3    0  501 -0.42880778701E+03  0.65679380545E+01  0.26803741480E+03  0.50573047342E+03  0.00000000000E+00 0. -1.
</event>
<event>
 7    1  0.4894942E-006  0.1048554E+04  0.7818608E-02  0.9135482E-01
         -4   -1    0    0    0  501 -0.00000000000E+00  0.00000000000E+00  0.13411794329E+04  0.13411794329E+04  0.00000000000E+00 0. -1.
          1   -1    0    0  501    0  0.00000000000E+00 -0.00000000000E+00 -0.73266099594E+03  0.73266099594E+03  0.00000000000E+00 0. -1.
   -9000010    2    1    2    0  502 -0.31612033494E+03 -0.98180902760E+02  0.37034798816E+03  0.11304502171E+04  0.10154745222E+04 0.  0.
        -13    1    1    2    0    0  0.70406157193E+02  0.18534847977E+03  0.52176330296E+03  0.55816488729E+03  0.10566000000E+00 0.  1.
         13    1    3    3    0    0 -0.34215885305E+03 -0.16676438327E+03 -0.28217248638E+03  0.47381891423E+03  0.10566000000E+00 0. -1.
          1    1    1    2  502    0  0.24571417775E+03 -0.87167577012E+02 -0.28359285418E+03  0.38522532441E+03  0.00000000000E+00 0. -1.
         -4    1    3    3    0  502  0.26038518104E+02  0.68583480514E+02  0.65252047454E+03  0.65663130288E+03  0.00000000000E+00 0. -1.
</event>
<event>
 7    1  0.4894942E-006  0.9856298E+03  0.7818608E-02  0.9057133E-01
          4   -1    0    0  501    0 -0.00000000000E+00  0.00000000000E+00  0.69931604040E+03  0.69931604040E+03  0.00000000000E+00 0.  1.
          2   -1    0    0  502    0  0.00000000000E+00 -0.00000000000E+00 -0.16130855234E+04  0.16130855234E+04  0.00000000000E+00 0.  1.
    9000010    2    1    2  502    0 -0.38177319549E+03  0.35954637138E+02 -0.21894540086E+03  0.10297705602E+04  0.93029393704E+03 0.  0.
        -13    1    3    3    0    0 -0.14220680137E+03  0.22914117805E+02 -0.57925226264E+03  0.59689280954E+03  0.10566000000E+00 0.  1.
         13    1    1    2    0    0  0.31447511088E+03 -0.44934553165E+02  0.20641282402E+03  0.37884030213E+03  0.10566000000E+00 0. -1.
          2    1    1    2  501    0  0.67298084611E+02  0.89799160267E+01 -0.90123690617E+03  0.90379070150E+03  0.00000000000E+00 0.  1.
          4    1    3    3  502    0 -0.23956639412E+03  0.13040519333E+02  0.36030686178E+03  0.43287775062E+03  0.00000000000E+00 0.  1.
</event>
<event>
 7    1  0.4894942E-006  0.1234906E+04  0.7818608E-02  0.9094520E-01
          2   -1    0    0  501    0  0.00000000000E+00  0.00000000000E+00  0.24811387111E+04  0.24811387111E+04  0.00000000000E+00 0. -1.
         -4   -1    0    0    0  501 -0.00000000000E+00 -0.00000000000E+00 -0.69614801199E+03  0.69614801199E+03  0.00000000000E+00 0. -1.
   -9000010    2    1    2    0  502 -0.22306269615E+02 -0.77532887047E+03  0.36409331925E+03  0.13158986821E+04  0.99869563402E+03 0.  0.
        -13    1    1    2    0    0  0.12781356929E+03  0.63383949535E+02 -0.10307931015E+03  0.17600905914E+03  0.10566000000E+00 0.  1.
         13    1    3    3    0    0  0.16027089208E+03 -0.97563277690E+03  0.33207554285E+03  0.10429862183E+04  0.10566000000E+00 0. -1.
          2    1    1    2  502    0 -0.10550729967E+03  0.71194492093E+03  0.15239766900E+04  0.16853789819E+04  0.00000000000E+00 0. -1.
         -4    1    3    3    0  502 -0.18257716170E+03  0.20030390643E+03  0.32017776400E+02  0.27291246383E+03  0.00000000000E+00 0. -1.
</event>
<event>
 7    1  0.4894942E-006  0.1162365E+04  0.7818608E-02  0.8794229E-01
          2   -1    0    0  502    0  0.00000000000E+00  0.00000000000E+00  0.11783126822E+04  0.11783126822E+04  0.00000000000E+00 0.  1.
          4   -1    0    0  501    0 -0.00000000000E+00 -0.00000000000E+00 -0.12223434569E+04  0.12223434569E+04  0.00000000000E+00 0.  1.
    9000010    2    1    2  502    0  0.55405418120E+03  0.18545831010E+03 -0.55231772650E+03  0.12862221850E+04  0.10039630560E+04 0.  0.
        -13    1    3    3    0    0 -0.25694903657E+03  0.89543850335E+02  0.43177996531E+02  0.27550909073E+03  0.10566000000E+00 0.  1.
         13    1    1    2    0    0 -0.55338419316E+03 -0.19581398865E+03 -0.18738844423E+02  0.58730600102E+03  0.10566000000E+00 0. -1.
          2    1    1    2  501    0 -0.66998804638E+00  0.10355678547E+02  0.52702579620E+03  0.52712795299E+03  0.00000000000E+00 0.  1.
          4    1    3    3  502    0  0.81100321777E+03  0.95914459763E+02 -0.59549572303E+03  0.10107130943E+04  0.00000000000E+00 0.  1.
</event>
<event>
 7    1  0.4894942E-006  0.1058339E+04  0.7818608E-02  0.8912609E-01
         -4   -1    0    0    0  501 -0.00000000000E+00  0.00000000000E+00  0.71844837649E+03  0.71844837649E+03  0.00000000000E+00 0. -1.
          2   -1    0    0  501    0  0.00000000000E+00 -0.00000000000E+00 -0.16324226224E+04  0.16324226224E+04  0.00000000000E+00 0.  1.
   -9000010    2    1    2    0  502  0.11810064309E+03 -0.44562969673E+03  0.21855478228E+03  0.10754958080E+04  0.94677951587E+03 0.  0.
        -13    1    1    2    0    0 -0.18848533004E+03  0.46552222977E+03 -0.88851932843E+03  0.10206391499E+04  0.10566000000E+00 0.  1.
         13    1    3    3    0    0  0.46454259179E+03 -0.49542163458E+03  0.34437496778E+02  0.68002085846E+03  0.10566000000E+00 0. -1.
          2    1    1    2  502    0  0.70384686951E+02 -0.19892533045E+02 -0.24400969976E+03  0.25473604104E+03  0.00000000000E+00 0.  1.
         -4    1    3    3    0  502 -0.34644194870E+03  0.49791937851E+02  0.18411728551E+03  0.39547494954E+03  0.00000000000E+00 0. -1.
</event>
<event>
 7    1  0.4894942E-006  0.1013142E+04  0.7818608E-02  0.9352046E-01
         -4   -1    0    0    0  501 -0.00000000000E+00  0.00000000000E+00  0.83981070574E+03  0.83981070574E+03  0.00000000000E+00 0. -1.
          2   -1    0    0  501    0  0.00000000000E+00 -0.00000000000E+00 -0.25257764169E+04  0.25257764169E+04  0.00000000000E+00 0.  1.
   -9000010    2    1    2    0  502  0.39262362712E+02  0.10237963939E+02  0.41823095436E+03  0.10907236521E+04  0.10065359432E+04 0.  0.
        -13    1    1    2    0    0  0.53465285417E+02 -0.79424074360E+02  0.56434058416E+02  0.11113745744E+03  0.10566000000E+00 0.  1.
         13    1    3    3    0    0  0.12509758279E+03  0.40975737437E+03 -0.90819395478E+02  0.43794826730E+03  0.10566000000E+00 0. -1.
          2    1    1    2  502    0 -0.92727648129E+02  0.69186110421E+02 -0.21606307239E+04  0.21637260131E+04  0.00000000000E+00 0.  1.
         -4    1    3    3    0  502 -0.85835220078E+02 -0.39951941043E+03  0.50905034984E+03  0.65277538479E+03  0.00000000000E+00 0. -1.
</event>
<event>
 7    1  0.4894942E-006  0.1012392E+04  0.7818608E-02  0.9401716E-01
         -4   -1    0    0    0  501  0.00000000000E+00  0.00000000000E+00  0.30352934351E+04  0.30352934351E+04  0.00000000000E+00 0.  1.
         -4   -1    0    0    0  502 -0.00000000000E+00 -0.00000000000E+00 -0.24357607372E+03  0.24357607372E+03  0.00000000000E+00 0. -1.
   -9000010    2    1    2    0  501 -0.82800990420E+02  0.26175817580E+02  0.10559813119E+04  0.14632894673E+04  0.10092464301E+04 0.  0.
        -13    1    1    2    0    0  0.56758371824E+02 -0.56105491395E+02  0.41877602317E+00  0.79809306940E+02  0.10566000000E+00 0.  1.
         13    1    3    3    0    0 -0.55048356981E+02  0.51771612363E+03  0.53839881367E+03  0.74895500532E+03  0.10566000000E+00 0. -1.
         -4    1    3    3    0  501 -0.27752633440E+02 -0.49154030605E+03  0.51758249819E+03  0.71433446198E+03  0.00000000000E+00 0. -1.
         -4    1    1    2    0  502  0.26042618596E+02  0.29929673815E+02  0.17353172735E+04  0.17357707346E+04  0.00000000000E+00 0.  1.
</event>
<event>
 7    1  0.4894942E-006  0.1077833E+04  0.7818608E-02  0.8950908E-01
          4   -1    0    0  501    0 -0.00000000000E+00  0.00000000000E+00  0.77543096757E+03  0.77543096757E+03  0.00000000000E+00 0.  1.
          2   -1    0    0  502    0  0.00000000000E+00 -0.00000000000E+00 -0.14180057568E+04  0.14180057568E+04  0.00000000000E+00 0.  1.
    9000010    2    1    2  502    0 -0.30650789334E+03 -0.33910224733E+03 -0.29611868936E+03  0.11454291510E+04  0.10076627605E+04 0.  0.
        -13    1    3    3    0    0  0.16068248494E+03 -0.96963510423E+02  0.29775601568E+03  0.35196511099E+03  0.10566000000E+00 0.  1.
         13    1    1    2    0    0  0.35681768968E+03  0.12600471286E+03  0.22208021799E+03  0.43876609454E+03  0.10566000000E+00 0. -1.
          2    1    1    2  501    0 -0.50309796333E+02  0.21309753448E+03 -0.56853631784E+03  0.60924147882E+03  0.00000000000E+00 0.  1.
          4    1    3    3  502    0 -0.46719037828E+03 -0.24213873691E+03 -0.59387470503E+03  0.79346403999E+03  0.00000000000E+00 0.  1.
</event>
<event>
 7    1  0.4894942E-006  0.1261975E+04  0.7818608E-02  0.8677165E-01
          1   -1    0    0  501    0  0.00000000000E+00  0.00000000000E+00  0.14196465569E+04  0.14196465569E+04  0.00000000000E+00 0.  1.
         -4   -1    0    0    0  501 -0.00000000000E+00 -0.00000000000E+00 -0.29554741811E+04  0.29554741811E+04  0.00000000000E+00 0. -1.
   -9000010    2    1    2    0  502 -0.27733988364E+02 -0.75076195308E+03 -0.18626336417E+04  0.22480415123E+04  0.10098880500E+04 0.  0.
        -13    1    1    2    0    0  0.78038355793E+02  0.75811851884E+03 -0.73810321281E+03  0.10609571327E+04  0.10566000000E+00 0.  1.
         13    1    3    3    0    0 -0.40728676740E+03  0.95423386197E+01 -0.65587784773E+03  0.77210707122E+03  0.10566000000E+00 0. -1.
          1    1    1    2  502    0 -0.50304367429E+02 -0.73565657553E+01  0.10649092302E+04  0.10661220930E+04  0.00000000000E+00 0.  1.
         -4    1    3    3    0  502  0.37955277904E+03 -0.76030429170E+03 -0.12067557940E+04  0.14759344411E+04  0.00000000000E+00 0. -1.
</event>
<event>
 7    1  0.4894942E-006  0.9965559E+03  0.7818608E-02  0.9441681E-01
         -4   -1    0    0    0  501 -0.00000000000E+00  0.00000000000E+00  0.46748187900E+03  0.46748187900E+03  0.00000000000E+00 0. -1.
          2   -1    0    0  501    0  0.00000000000E+00 -0.00000000000E+00 -0.12029891141E+04  0.12029891141E+04  0.00000000000E+00 0.  1.
   -9000010    2    1    2    0  502 -0.40794037281E+02  0.74239712960E+02 -0.10749435065E+03  0.10033202579E+04  0.99394205873E+03 0.  0.
        -13    1    1    2    0    0  0.34977882335E+02 -0.61418286953E+02 -0.44615650717E+02  0.83583644798E+02  0.10566000000E+00 0.  1.
         13    1    3    3    0    0 -0.29016059313E+02  0.51640222421E+03 -0.19440099831E+03  0.55254406899E+03  0.10566000000E+00 0. -1.
          2    1    1    2  502    0  0.58161549456E+01 -0.12821426007E+02 -0.58339723371E+03  0.58356709034E+03  0.00000000000E+00 0.  1.
         -4    1    3    3    0  502 -0.11777977967E+02 -0.44216251125E+03  0.86906647662E+02  0.45077618895E+03  0.00000000000E+00 0. -1.
</event>
<event>
 7    1  0.4894942E-006  0.9527862E+03  0.7818608E-02  0.9119898E-01
         -4   -1    0    0    0  501 -0.00000000000E+00  0.00000000000E+00  0.38775330623E+03  0.38775330623E+03  0.00000000000E+00 0. -1.
          2   -1    0    0  501    0  0.00000000000E+00 -0.00000000000E+00 -0.16472932474E+04  0.16472932474E+04  0.00000000000E+00 0.  1.
   -9000010    2    1    2    0  502  0.73274342071E+02 -0.26557296218E+03 -0.74040616587E+03  0.12053839764E+04  0.91041260573E+03 0.  0.
        -13    1    1    2    0    0 -0.82762235809E+02  0.26928400880E+03  0.27390217070E+02  0.28304363661E+03  0.10566000000E+00 0.  1.
         13    1    3    3    0    0 -0.35964710127E+03 -0.33658945695E+03 -0.26831745710E+03  0.56092135717E+03  0.10566000000E+00 0. -1.
          2    1    1    2  502    0  0.94878937380E+01 -0.37110466231E+01 -0.54652399234E+03  0.54661894058E+03  0.00000000000E+00 0.  1.
         -4    1    3    3    0  502  0.43292144334E+03  0.71016494778E+02 -0.47208870878E+03  0.64446261923E+03  0.00000000000E+00 0. -1.
</event>
<event>
 7    1  0.4894942E-006  0.9913933E+03  0.7818608E-02  0.9520543E-01
          2   -1    0    0  501    0  0.00000000000E+00  0.00000000000E+00  0.96234421451E+03  0.96234421451E+03  0.00000000000E+00 0. -1.
         -4   -1    0    0    0  501 -0.00000000000E+00 -0.00000000000E+00 -0.63220208481E+03  0.63220208481E+03  0.00000000000E+00 0. -1.
   -9000010    2    1    2    0  502  0.38255835084E+02  0.67868501677E+02 -0.64970404995E+01  0.99295177370E+03  0.98986937064E+03 0.  0.
        -13    1    1    2    0    0 -0.31024675968E+02 -0.45037227932E+02 -0.12651093038E+03  0.13782564742E+03  0.10566000000E+00 0.  1.
         13    1    3    3    0    0 -0.55484296731E+02  0.20974807164E+03  0.45339218332E+03  0.50263032519E+03  0.10566000000E+00 0. -1.
          2    1    1    2  502    0 -0.72311591156E+01 -0.22831273745E+02  0.46315010057E+03  0.46376887819E+03  0.00000000000E+00 0. -1.
         -4    1    3    3    0  502  0.93740131815E+02 -0.14187956996E+03 -0.45988922382E+03  0.49032144851E+03  0.00000000000E+00 0. -1.
</event>
<event>
 7    1  0.4894942E-006  0.1062422E+04  0.7818608E-02  0.8984342E-01
          2   -1    0    0  501    0  0.00000000000E+00  0.00000000000E+00  0.61491135252E+03  0.61491135252E+03  0.00000000000E+00 0.  1.
         -4   -1    0    0    0  501 -0.00000000000E+00 -0.00000000000E+00 -0.26574478278E+04  0.26574478278E+04  0.00000000000E+00 0. -1.
   -9000010    2    1    2    0  502 -0.13970415448E+03 -0.24771451035E+03 -0.17076254662E+04  0.20010302696E+04  0.10036222785E+04 0.  0.
        -13    1    1    2    0    0  0.30247121079E+03  0.22057303440E+03 -0.74253852101E+03  0.83156765402E+03  0.10566000000E+00 0.  1.
         13    1    3    3    0    0 -0.49015112290E+03 -0.13378743052E+03 -0.41234462798E+03  0.65435105504E+03  0.10566000000E+00 0. -1.
          2    1    1    2  502    0 -0.16276705630E+03  0.27141475951E+02  0.40762751195E+03  0.43976125663E+03  0.00000000000E+00 0.  1.
         -4    1    3    3    0  502  0.35044696842E+03 -0.11392707983E+03 -0.12952808382E+04  0.13466792146E+04  0.00000000000E+00 0. -1.
</event>
<event>
 7    1  0.4894942E-006  0.9961500E+03  0.7818608E-02  0.9232007E-01
          5   -1    0    0  501    0  0.00000000000E+00  0.00000000000E+00  0.77260548002E+03  0.77260548002E+03  0.00000000000E+00 0.  1.
         -4   -1    0    0    0  501 -0.00000000000E+00 -0.00000000000E+00 -0.22383214865E+04  0.22383214865E+04  0.00000000000E+00 0. -1.
   -9000010    2    1    2    0  502 -0.15345081184E+03 -0.55909309222E+02 -0.20170467600E+04  0.22499381929E+04  0.98339780225E+03 0.  0.
        -13    1    1    2    0    0  0.14413347459E+03  0.61557289764E+02 -0.46171013549E+02  0.16338767418E+03  0.10566000000E+00 0.  1.
         13    1    3    3    0    0  0.11107560908E+03 -0.45041016726E+03 -0.13760255765E+04  0.14521203490E+04  0.10566000000E+00 0. -1.
          5    1    1    2  502    0  0.93173372597E+01 -0.56479805414E+01  0.59750176703E+03  0.59760109945E+03  0.00000000000E+00 0.  1.
         -4    1    3    3    0  502 -0.26452642092E+03  0.39450085804E+03 -0.64102118350E+03  0.79781784390E+03  0.00000000000E+00 0. -1.
</event>
<event>
 7    1  0.4894942E-006  0.9684619E+03  0.7818608E-02  0.9314165E-01
          4   -1    0    0  501    0 -0.00000000000E+00  0.00000000000E+00  0.32220068135E+03  0.32220068135E+03  0.00000000000E+00 0.  1.
          2   -1    0    0  502    0  0.00000000000E+00 -0.00000000000E+00 -0.17921314213E+04  0.17921314213E+04  0.00000000000E+00 0. -1.
    9000010    2    1    2  502    0 -0.52879904060E+02 -0.15917223054E+02 -0.60665201363E+03  0.11371087515E+04  0.96017706959E+03 0.  0.
        -13    1    3    3    0    0 -0.29265662710E+03  0.38398523018E+03 -0.40050668773E+03  0.62729433001E+03  0.10566000000E+00 0.  1.
         13    1    1    2    0    0 -0.10998454343E+02  0.13819331342E+03 -0.42596879558E+02  0.14502711190E+03  0.10566000000E+00 0. -1.
          2    1    1    2  501    0  0.63878358403E+02 -0.12227609037E+03 -0.82068184671E+03  0.83219623916E+03  0.00000000000E+00 0. -1.
          4    1    3    3  502    0  0.23977672304E+03 -0.39990245323E+03 -0.20614532590E+03  0.50981442154E+03  0.00000000000E+00 0.  1.
</event>
<event>
 7    1  0.4894942E-006  0.1038324E+04  0.7818608E-02  0.9087966E-01
          4   -1    0    0  501    0  0.00000000000E+00  0.00000000000E+00  0.68464168865E+03  0.68464168865E+03  0.00000000000E+00 0. -1.
         -4   -1    0    0    0  501 -0.00000000000E+00 -0.00000000000E+00 -0.25873816081E+04  0.25873816081E+04  0.00000000000E+00 0. -1.
   -9000010    2    1    2    0  502 -0.15271160305E+03  0.19865664550E+03 -0.22144391013E+04  0.24462142539E+04  0.10086814889E+04 0.  0.
        -13    1    1    2    0    0  0.13980650183E+03 -0.20033239229E+03 -0.19891226955E+03  0.31503178807E+03  0.10566000000E+00 0.  1.
         13    1    3    3    0    0 -0.50003794912E+03 -0.15578255851E+03 -0.90114938193E+03  0.10422938049E+04  0.10566000000E+00 0. -1.
          4    1    1    2  502    0  0.12905101224E+02  0.16757467864E+01  0.51061145137E+03  0.51077725481E+03  0.00000000000E+00 0. -1.
         -4    1    3    3    0  502  0.34732634607E+03  0.35443920401E+03 -0.13132897194E+04  0.14039204490E+04  0.00000000000E+00 0. -1.
</event>
<event>
 7    1  0.4894942E-006  0.1147029E+04  0.7818608E-02  0.8811783E-01
         -4   -1    0    0    0  501 -0.00000000000E+00  0.00000000000E+00  0.30319812794E+04  0.30319812794E+04  0.00000000000E+00 0. -1.
          5   -1    0    0  501    0  0.00000000000E+00 -0.00000000000E+00 -0.69488772706E+03  0.69488772706E+03  0.00000000000E+00 0. -1.
   -9000010    2    1    2    0  502  0.50532382146E+03  0.32523736792E+03  0.10669996648E+04  0.15795484039E+04  0.99767397760E+03 0.  0.
        -13    1    1    2    0    0 -0.43004783902E+03 -0.35928700457E+03  0.16582976395E+04  0.17504226255E+04  0.10566000000E+00 0.  1.
         13    1    3    3    0    0 -0.76446725786E+02 -0.23734676315E+03  0.58905948107E+03  0.63966293567E+03  0.10566000000E+00 0. -1.
          5    1    1    2  502    0 -0.75275982440E+02  0.34049636653E+02 -0.38820375188E+03  0.39689797714E+03  0.00000000000E+00 0. -1.
         -4    1    3    3    0  502  0.58177054725E+03  0.56258413107E+03  0.47794018370E+03  0.93988546822E+03  0.00000000000E+00 0. -1.
</event>
<event>
 7    1  0.4894942E-006  0.1137558E+04  0.7818608E-02  0.8831841E-01
          2   -1    0    0  502    0  0.00000000000E+00  0.00000000000E+00  0.21324753348E+04  0.21324753348E+04  0.00000000000E+00 0.  1.
          4   -1    0    0  501    0 -0.00000000000E+00 -0.00000000000E+00 -0.11250770310E+04  0.11250770310E+04  0.00000000000E+00 0.  1.
    9000010    2    1    2  502    0  0.41455220909E+03  0.37036457252E+03 -0.91643513470E+02  0.11520196085E+04  0.10048518269E+04 0.  0.
        -13    1    3    3    0    0 -0.27697144507E+03 -0.11835545155E+03 -0.37092090555E+02  0.30347492259E+03  0.10566000000E+00 0.  1.
         13    1    1    2    0    0 -0.56887942638E+03  0.52791717158E+02 -0.29325513395E+03  0.64219105562E+03  0.10566000000E+00 0. -1.
          2    1    1    2  501    0  0.15432721729E+03 -0.42315628967E+03  0.13922969512E+04  0.14633417017E+04  0.00000000000E+00 0.  1.
          4    1    3    3  502    0  0.69152365417E+03  0.48872002406E+03 -0.54551422915E+02  0.84854468588E+03  0.00000000000E+00 0.  1.
</event>
<event>
 6    1  0.4894942E-006  0.2556754E+04  0.7818608E-02  0.8396222E-01
          4   -1    0    0  501    0 -0.00000000000E+00  0.00000000000E+00  0.38115656111E+04  0.38115656111E+04  0.00000000000E+00 0.  1.
          2   -1    0    0  502    0  0.00000000000E+00 -0.00000000000E+00 -0.28283161194E+04  0.28283161194E+04  0.00000000000E+00 0.  1.
        -13    1    1    2    0    0  0.59217061669E+03 -0.25966212756E+03  0.23139172606E+04  0.24025618743E+04  0.10566000000E+00 0.  1.
         13    1    1    2    0    0 -0.28498559286E+03 -0.15414071356E+03  0.13188131422E+04  0.13580295515E+04  0.10566000000E+00 0. -1.
          2    1    1    2  501    0  0.56858794080E+02  0.29049489770E+02 -0.21509592583E+04  0.21519067187E+04  0.00000000000E+00 0.  1.
          4    1    1    2  502    0 -0.36404381791E+03  0.38475335135E+03 -0.49852165285E+03  0.72738358594E+03  0.00000000000E+00 0.  1.
</event>
<event>
 7    1  0.4894942E-006  0.9945760E+03  0.7818608E-02  0.9462474E-01
          1   -1    0    0  501    0  0.00000000000E+00  0.00000000000E+00  0.10658872681E+04  0.10658872681E+04  0.00000000000E+00 0. -1.
         -4   -1    0    0    0  501 -0.00000000000E+00 -0.00000000000E+00 -0.12382584421E+04  0.12382584421E+04  0.00000000000E+00 0. -1.
   -9000010    2    1    2    0  502 -0.52466257924E+02  0.58227004735E+02 -0.10127625739E+04  0.14200325776E+04  0.99230106219E+03 0.  0.
        -13    1    1    2    0    0  0.41855530482E+02 -0.49228099843E+02  0.26077292768E+02  0.69680180885E+02  0.10566000000E+00 0.  1.
         13    1    3    3    0    0 -0.43788747817E+03 -0.16437407374E+03 -0.23385369363E+03  0.52292622887E+03  0.10566000000E+00 0. -1.
          1    1    1    2  502    0  0.10610727441E+02 -0.89989048920E+01  0.81431410713E+03  0.81443295175E+03  0.00000000000E+00 0. -1.
         -4    1    3    3    0  502  0.38542122025E+03  0.22260107847E+03 -0.77890888023E+03  0.89710634869E+03  0.00000000000E+00 0. -1.
</event>
<event>
 7    1  0.4894942E-006  0.1008943E+04  0.7818608E-02  0.9185204E-01
         -4   -1    0    0    0  501 -0.00000000000E+00  0.00000000000E+00  0.31785550285E+04  0.31785550285E+04  0.00000000000E+00 0. -1.
          1   -1    0    0  501    0  0.00000000000E+00 -0.00000000000E+00 -0.12290755345E+04  0.12290755345E+04  0.00000000000E+00 0.  1.
   -9000010    2    1    2    0  502 -0.20300529011E+03 -0.91280040494E+02  0.19444577815E+04  0.21942751478E+04  0.99216136113E+03 0.  0.
        -13    1    1    2    0    0  0.10712660813E+03  0.14780816287E+03  0.10988345138E+04  0.11138943680E+04  0.10566000000E+00 0.  1.
         13    1    3    3    0    0 -0.44747321601E+03  0.57816120437E+02  0.34128333781E+03  0.56572900815E+03  0.10566000000E+00 0. -1.
          1    1    1    2  502    0  0.95878681982E+02 -0.56528122375E+02 -0.10938128013E+04  0.10994610473E+04  0.00000000000E+00 0.  1.
         -4    1    3    3    0  502  0.24446792590E+03 -0.14909616093E+03  0.16031744437E+04  0.16285461396E+04  0.00000000000E+00 0. -1.
</event>
<event>
 7    1  0.4894942E-006  0.1025172E+04  0.7818608E-02  0.9028479E-01
         -4   -1    0    0    0  501 -0.00000000000E+00  0.00000000000E+00  0.37604738538E+03  0.37604738538E+03  0.00000000000E+00 0. -1.
          2   -1    0    0  501    0  0.00000000000E+00 -0.00000000000E+00 -0.15359018483E+04  0.15359018483E+04  0.00000000000E+00 0. -1.
   -9000010    2    1    2    0  502  0.14997487992E+03  0.28382135854E+03 -0.11071179246E+04  0.15081080984E+04  0.97243658379E+03 0.  0.
        -13    1    1    2    0    0 -0.11372306111E+03 -0.30475196022E+03  0.13416891557E+02  0.32555601059E+03  0.10566000000E+00 0.  1.
         13    1    3    3    0    0 -0.23735678725E+03  0.51058287341E+03 -0.49940950569E+03  0.75262406327E+03  0.10566000000E+00 0. -1.
          2    1    1    2  502    0 -0.36251818812E+02  0.20930601688E+02 -0.66153429873E+02  0.78285124629E+02  0.00000000000E+00 0. -1.
         -4    1    3    3    0  502  0.38733166717E+03 -0.22676151487E+03 -0.60770841889E+03  0.75548403517E+03  0.00000000000E+00 0. -1.
</event>
<event>
 7    1  0.4894942E-006  0.1314568E+04  0.7818608E-02  0.8623356E-01
          4   -1    0    0  501    0 -0.00000000000E+00  0.00000000000E+00  0.30114053814E+04  0.30114053814E+04  0.00000000000E+00 0.  1.
          2   -1    0    0  502    0  0.00000000000E+00 -0.00000000000E+00 -0.91685723826E+03  0.91685723826E+03  0.00000000000E+00 0.  1.
    9000010    2    1    2  502    0 -0.17819638605E+03  0.11113191751E+04  0.13273463856E+04  0.20095813666E+04  0.10048803812E+04 0.  0.
        -13    1    3    3    0    0 -0.18530568503E+03  0.71121463560E+03  0.12901049735E+03  0.74619580164E+03  0.10566000000E+00 0.  1.
         13    1    1    2    0    0  0.59558043431E+03 -0.52712039651E+03  0.88635371115E+03  0.11908798758E+04  0.10566000000E+00 0. -1.
          2    1    1    2  501    0 -0.41738404826E+03 -0.58419877863E+03 -0.11915195360E+03  0.72780137726E+03  0.00000000000E+00 0.  1.
          4    1    3    3  502    0  0.71092989836E+01  0.40010453954E+03  0.11983358883E+04  0.12633855650E+04  0.00000000000E+00 0.  1.
</event>
<event>
 7    1  0.4894942E-006  0.1074280E+04  0.7818608E-02  0.9325789E-01
          1   -1    0    0  501    0  0.00000000000E+00  0.00000000000E+00  0.63070599606E+03  0.63070599606E+03  0.00000000000E+00 0. -1.
         -4   -1    0    0    0  501 -0.00000000000E+00 -0.00000000000E+00 -0.93119812826E+03  0.93119812826E+03  0.00000000000E+00 0. -1.
   -9000010    2    1    2    0  502  0.17587344444E+03 -0.31019126521E+02 -0.49524721471E+03  0.11928947037E+04  0.10704365071E+04 0.  0.
        -13    1    1    2    0    0 -0.87069267425E+02  0.16595455268E+02 -0.54474673241E+02  0.10403829898E+03  0.10566000000E+00 0.  1.
         13    1    3    3    0    0  0.60118745202E+03  0.12382620737E+03 -0.17445172348E+03  0.63811652312E+03  0.10566000000E+00 0. -1.
          1    1    1    2  502    0 -0.88804177018E+02  0.14423671253E+02  0.24922975574E+03  0.26497112163E+03  0.00000000000E+00 0. -1.
         -4    1    3    3    0  502 -0.42531400757E+03 -0.15484533389E+03 -0.32079549122E+03  0.55477818059E+03  0.00000000000E+00 0. -1.
</event>
<event>
 7    1  0.4894942E-006  0.1243568E+04  0.7818608E-02  0.8850799E-01
         -4   -1    0    0    0  502 -0.00000000000E+00  0.00000000000E+00  0.22676258376E+04  0.22676258376E+04  0.00000000000E+00 0. -1.
         -2   -1    0    0    0  501  0.00000000000E+00 -0.00000000000E+00 -0.10600675423E+04  0.10600675423E+04  0.00000000000E+00 0.  1.
   -9000010    2    1    2    0  501  0.13842321554E+03  0.28813618295E+01  0.17958675364E+04  0.21337592106E+04  0.11439488063E+04 0.  0.
        -13    1    1    2    0    0  0.33708089633E+03 -0.16870284648E+03  0.50706647114E+02  0.38033584673E+03  0.10566000000E+00 0.  1.
         13    1    3    3    0    0 -0.36320117881E+03 -0.47908901193E+02  0.15107556881E+04  0.15545395200E+04  0.10566000000E+00 0. -1.
         -2    1    1    2    0  502 -0.47550411187E+03  0.16582148465E+03 -0.63901588824E+03  0.81359832264E+03  0.00000000000E+00 0.  1.
         -4    1    3    3    0  501  0.50162439435E+03  0.50790263023E+02  0.28511184834E+03  0.57921969052E+03  0.00000000000E+00 0. -1.
</event>
<event>
 7    1  0.4894942E-006  0.1006577E+04  0.7818608E-02  0.9540069E-01
          4   -1    0    0  501    0 -0.00000000000E+00  0.00000000000E+00  0.98750382025E+03  0.98750382025E+03  0.00000000000E+00 0.  1.
          2   -1    0    0  502    0  0.00000000000E+00 -0.00000000000E+00 -0.72083010842E+03  0.72083010842E+03  0.00000000000E+00 0. -1.
    9000010    2    1    2  502    0 -0.24233613460E+02  0.19406286404E+02  0.46735575950E+03  0.11091383958E+04  0.10053868425E+04 0.  0.
        -13    1    3    3    0    0 -0.98086580085E+02 -0.34758103932E+03  0.60970494473E+03  0.70864214303E+03  0.10566000000E+00 0.  1.
         13    1    1    2    0    0  0.40080481770E+02 -0.28353145675E+02  0.19602079680E+03  0.20207550528E+03  0.10566000000E+00 0. -1.
          2    1    1    2  501    0 -0.15846868310E+02  0.89468592710E+01 -0.39670284447E+03  0.39712002762E+03  0.00000000000E+00 0. -1.
          4    1    3    3  502    0  0.73852966624E+02  0.36698732572E+03 -0.14234918523E+03  0.40049625274E+03  0.00000000000E+00 0.  1.
</event>
<event>
 7    1  0.4894942E-006  0.9173769E+03  0.7818608E-02  0.9106407E-01
         -4   -1    0    0    0  501 -0.00000000000E+00  0.00000000000E+00  0.56222968606E+03  0.56222968606E+03  0.00000000000E+00 0. -1.
          1   -1    0    0  501    0  0.00000000000E+00 -0.00000000000E+00 -0.10075706685E+04  0.10075706685E+04  0.00000000000E+00 0. -1.
   -9000010    2    1    2    0  502  0.28025455663E+03 -0.15165070997E+03 -0.21632607277E+03  0.93791703528E+03  0.85519052904E+03 0.  0.
        -13    1    1    2    0    0 -0.29569384604E+03  0.15796003191E+03  0.61546701365E+02  0.34084340962E+03  0.10566000000E+00 0.  1.
         13    1    3    3    0    0  0.11203871097E+02 -0.38315065810E+03  0.16468687079E+03  0.41719507441E+03  0.10566000000E+00 0. -1.
          1    1    1    2  502    0  0.15439289408E+02 -0.63093219397E+01 -0.29056161101E+03  0.29103990962E+03  0.00000000000E+00 0. -1.
         -4    1    3    3    0  502  0.26905068554E+03  0.23149994813E+03 -0.38101294356E+03  0.52072196087E+03  0.00000000000E+00 0. -1.
</event>
<event>
 7    1  0.4894942E-006  0.1099444E+04  0.7818608E-02  0.8886798E-01
          2   -1    0    0  501    0  0.00000000000E+00  0.00000000000E+00  0.97763333968E+03  0.97763333968E+03  0.00000000000E+00 0.  1.
         -4   -1    0    0    0  501 -0.00000000000E+00 -0.00000000000E+00 -0.15109199112E+04  0.15109199112E+04  0.00000000000E+00 0. -1.
   -9000010    2    1    2    0  502 -0.14742040100E+03  0.47327901958E+03 -0.78371744308E+03  0.13595356570E+04  0.99418226051E+03 0.  0.
        -13    1    1    2    0    0  0.12224370010E+03 -0.44199089540E+03 -0.31871217354E+03  0.55845942964E+03  0.10566000000E+00 0.  1.
         13    1    3    3    0    0 -0.41175646868E+03  0.18498857548E+03  0.34416516445E+02  0.45271256922E+03  0.10566000000E+00 0. -1.
          2    1    1    2  502    0  0.25176700900E+02 -0.31288124185E+02  0.56914304510E+03  0.57055816423E+03  0.00000000000E+00 0.  1.
         -4    1    3    3    0  502  0.26433606768E+03  0.28829044410E+03 -0.81813395953E+03  0.90682308780E+03  0.00000000000E+00 0. -1.
</event>
<event>
 7    1  0.4894942E-006  0.1028668E+04  0.7818608E-02  0.9044039E-01
         -4   -1    0    0    0  501 -0.00000000000E+00  0.00000000000E+00  0.23796089389E+04  0.23796089389E+04  0.00000000000E+00 0. -1.
          1   -1    0    0  501    0  0.00000000000E+00 -0.00000000000E+00 -0.65787386493E+03  0.65787386493E+03  0.00000000000E+00 0.  1.
   -9000010    2    1    2    0  502  0.27714779932E+03  0.91936678368E+02  0.90997415450E+03  0.13712676265E+04  0.98339142056E+03 0.  0.
        -13    1    1    2    0    0 -0.28547659021E+03 -0.10039779184E+03  0.12204224422E+04  0.12573812265E+04  0.10566000000E+00 0.  1.
         13    1    3    3    0    0  0.17856829746E+03  0.13054597421E+03 -0.17443491374E+03  0.28170274854E+03  0.10566000000E+00 0. -1.
          1    1    1    2  502    0  0.83287908883E+01  0.84611134756E+01 -0.40866152274E+03  0.40883395085E+03  0.00000000000E+00 0.  1.
         -4    1    3    3    0  502  0.98579501862E+02 -0.38609295841E+02  0.10844090682E+04  0.10895648779E+04  0.00000000000E+00 0. -1.
</event>
<event>
 7    1  0.4894942E-006  0.1074057E+04  0.7818608E-02  0.9042625E-01
          2   -1    0    0  502    0  0.00000000000E+00  0.00000000000E+00  0.20015914303E+04  0.20015914303E+04  0.00000000000E+00 0.  1.
          4   -1    0    0  501    0 -0.00000000000E+00 -0.00000000000E+00 -0.60989126961E+03  0.60989126961E+03  0.00000000000E+00 0.  1.
    9000010    2    1    2  502    0  0.35884490255E+03  0.24671098710E+03  0.63460787810E+03  0.12759953217E+04  0.10177430554E+04 0.  0.
        -13    1    3    3    0    0  0.56705051197E+03 -0.16283671165E+03  0.15108344917E+03  0.60900599140E+03  0.10566000000E+00 0.  1.
         13    1    1    2    0    0 -0.25459184154E+03  0.79316649263E+02 -0.19066542041E+03  0.32781313325E+03  0.10566000000E+00 0. -1.
          2    1    1    2  501    0 -0.10425306101E+03 -0.32602763636E+03  0.94775770302E+03  0.10076742450E+04  0.00000000000E+00 0.  1.
          4    1    3    3  502    0 -0.20820560942E+03  0.40954769875E+03  0.48352442893E+03  0.66698933029E+03  0.00000000000E+00 0.  1.
</event>
<event>
 7    1  0.4894942E-006  0.1127558E+04  0.7818608E-02  0.8846903E-01
         -4   -1    0    0    0  501 -0.00000000000E+00  0.00000000000E+00  0.12892381834E+04  0.12892381834E+04  0.00000000000E+00 0. -1.
          2   -1    0    0  501    0  0.00000000000E+00 -0.00000000000E+00 -0.57604664929E+03  0.57604664929E+03  0.00000000000E+00 0.  1.
   -9000010    2    1    2    0  502 -0.27639915203E+03 -0.45015103536E+03  0.67041441605E+03  0.13174577365E+04  0.10035970070E+04 0.  0.
        -13    1    1    2    0    0  0.27190949318E+03  0.42480266518E+03  0.71319746022E+02  0.50939041428E+03  0.10566000000E+00 0.  1.
         13    1    3    3    0    0 -0.18142481203E+03  0.22738028534E+03 -0.80290966428E+02  0.30176714041E+03  0.10566000000E+00 0. -1.
          2    1    1    2  502    0  0.44896588482E+01  0.25348370180E+02 -0.28542627923E+02  0.38436681908E+02  0.00000000000E+00 0.  1.
         -4    1    3    3    0  502 -0.94974339998E+02 -0.67753132069E+03  0.75070538248E+03  0.10156905961E+04  0.00000000000E+00 0. -1.
</event>
<event>
 7    1  0.4894942E-006  0.1410764E+04  0.7818608E-02  0.8538611E-01
          2   -1    0    0  501    0  0.00000000000E+00  0.00000000000E+00  0.11950549019E+04  0.11950549019E+04  0.00000000000E+00 0.  1.
         -4   -1    0    0    0  501 -0.00000000000E+00 -0.00000000000E+00 -0.16933149103E+04  0.16933149103E+04  0.00000000000E+00 0. -1.
   -9000010    2    1    2    0  502  0.85773056119E+01  0.10491222965E+04  0.17523885006E+03  0.14565429722E+04  0.99502643787E+03 0.  0.
        -13    1    1    2    0    0 -0.25273570430E+03 -0.95880944016E+03 -0.60894166445E+03  0.11636154178E+04  0.10566000000E+00 0.  1.
         13    1    3    3    0    0 -0.25811464081E+02  0.68413111648E+03  0.58943841299E+03  0.90340426725E+03  0.10566000000E+00 0. -1.
          2    1    1    2  502    0  0.24415839869E+03 -0.90312856384E+02 -0.64557194047E+02  0.26821142217E+03  0.00000000000E+00 0.  1.
         -4    1    3    3    0  502  0.34388769693E+02  0.36499118006E+03 -0.41419956292E+03  0.55313870496E+03  0.00000000000E+00 0. -1.
</event>
<event>
 6    1  0.4894942E-006  0.1830678E+04  0.7818608E-02  0.8512359E-01
         -4   -1    0    0    0  501 -0.00000000000E+00  0.00000000000E+00  0.19732891691E+04  0.19732891691E+04  0.00000000000E+00 0.  1.
          4   -1    0    0  501    0  0.00000000000E+00 -0.00000000000E+00 -0.10823125095E+04  0.10823125095E+04  0.00000000000E+00 0. -1.
        -13    1    1    2    0    0  0.21539842366E+03  0.46088738345E+03  0.77351575941E+03  0.92581872003E+03  0.10566000000E+00 0.  1.
         13    1    1    2    0    0 -0.72065731072E+03 -0.93186367385E+03  0.29603035850E+03  0.12146402144E+04  0.10566000000E+00 0. -1.
          4    1    1    2  502    0 -0.50478894475E+02  0.10269358399E+03 -0.21914134050E+03  0.24721856341E+03  0.00000000000E+00 0.  1.
         -4    1    1    2    0  502  0.55573778154E+03  0.36828270641E+03  0.40571882211E+02  0.66792418080E+03  0.00000000000E+00 0. -1.
</event>
<event>
 7    1  0.4894942E-006  0.1110943E+04  0.7818608E-02  0.8842041E-01
          4   -1    0    0  501    0 -0.00000000000E+00  0.00000000000E+00  0.24234932824E+04  0.24234932824E+04  0.00000000000E+00 0.  1.
          2   -1    0    0  502    0  0.00000000000E+00 -0.00000000000E+00 -0.10752345333E+04  0.10752345333E+04  0.00000000000E+00 0. -1.
    9000010    2    1    2  502    0  0.28436483479E+03 -0.47584849339E+03  0.11733820657E+04  0.16178715576E+04  0.96611994961E+03 0.  0.
        -13    1    3    3    0    0 -0.17859905264E+02 -0.50300157931E+03  0.11424218952E+03  0.51612096842E+03  0.10566000000E+00 0.  1.
         13    1    1    2    0    0 -0.27325094241E+03  0.47333902391E+03  0.95516758137E+03  0.11004821801E+04  0.10566000000E+00 0. -1.
          2    1    1    2  501    0 -0.11113892374E+02  0.25094694831E+01 -0.78029089796E+03  0.78037407791E+03  0.00000000000E+00 0. -1.
          4    1    3    3  502    0  0.30222474005E+03  0.27153085925E+02  0.10591398762E+04  0.11017505892E+04  0.00000000000E+00 0.  1.
</event>
<event>
 7    1  0.4894942E-006  0.1084600E+04  0.7818608E-02  0.8926079E-01
          2   -1    0    0  501    0  0.00000000000E+00  0.00000000000E+00  0.18275420874E+04  0.18275420874E+04  0.00000000000E+00 0. -1.
         -4   -1    0    0    0  501 -0.00000000000E+00 -0.00000000000E+00 -0.46680868302E+03  0.46680868302E+03  0.00000000000E+00 0. -1.
   -9000010    2    1    2    0  502 -0.18734207893E+03 -0.36882551555E+03  0.13390571483E+04  0.17227177465E+04  0.10017749610E+04 0.  0.
        -13    1    1    2    0    0  0.11649146919E+03  0.40061220267E+03  0.13122215144E+03  0.43735530580E+03  0.10566000000E+00 0.  1.
         13    1    3    3    0    0 -0.10154912686E+03 -0.39372547430E+03  0.26874288572E+02  0.40749750039E+03  0.10566000000E+00 0. -1.
          2    1    1    2  502    0  0.70850609745E+02 -0.31786687112E+02 -0.10954589535E+03  0.13427771806E+03  0.00000000000E+00 0. -1.
         -4    1    3    3    0  502 -0.85792952074E+02  0.24899958743E+02  0.13121828597E+04  0.13152202461E+04  0.00000000000E+00 0. -1.
</event>
<event>
 7    1  0.4894942E-006  0.1222685E+04  0.7818608E-02  0.8700042E-01
          2   -1    0    0  501    0  0.00000000000E+00  0.00000000000E+00  0.11736636769E+04  0.11736636769E+04  0.00000000000E+00 0.  1.
         -4   -1    0    0    0  501 -0.00000000000E+00 -0.00000000000E+00 -0.26267712578E+04  0.26267712578E+04  0.00000000000E+00 0. -1.
   -9000010    2    1    2    0  502  0.59999240418E+03 -0.47434022037E+03  0.20590645487E+03  0.12468765409E+04  0.96297150029E+03 0.  0.
        -13    1    1    2    0    0 -0.57630552418E+03  0.48370233550E+03 -0.20386546372E+04  0.21730643680E+04  0.10566000000E+00 0.  1.
         13    1    3    3    0    0  0.65971917035E+03 -0.30921155812E+02  0.38554011625E+03  0.76473962497E+03  0.10566000000E+00 0. -1.
          2    1    1    2  502    0 -0.23686880001E+02 -0.93621151384E+01  0.37964060141E+03  0.38049402587E+03  0.00000000000E+00 0.  1.
         -4    1    3    3    0  502 -0.59726766168E+02 -0.44341906455E+03 -0.17963366138E+03  0.48213691593E+03  0.00000000000E+00 0. -1.
</event>
<event>
 7    1  0.4894942E-006  0.1443677E+04  0.7818608E-02  0.8512792E-01
          2   -1    0    0  502    0  0.00000000000E+00  0.00000000000E+00  0.15798756254E+04  0.15798756254E+04  0.00000000000E+00 0.  1.
          4   -1    0    0  501    0 -0.00000000000E+00 -0.00000000000E+00 -0.20787965294E+04  0.20787965294E+04  0.00000000000E+00 0.  1.
    9000010    2    1    2  502    0  0.41753376447E+03 -0.10509791415E+04 -0.88158355670E+03  0.17438204195E+04  0.99238525154E+03 0.  0.
        -13    1    3    3    0    0  0.22439854392E+03 -0.16958538895E+03  0.19264719550E+03  0.34092061211E+03  0.10566000000E+00 0.  1.
         13    1    1    2    0    0 -0.42996945847E+03  0.88972563011E+03 -0.43620388471E+03  0.10801663170E+04  0.10566000000E+00 0. -1.
          2    1    1    2  501    0  0.12435694001E+02  0.16125351144E+03  0.81886653749E+03  0.83468541838E+03  0.00000000000E+00 0.  1.
          4    1    3    3  502    0  0.19313522055E+03 -0.88139375259E+03 -0.10742307522E+04  0.14028998074E+04  0.00000000000E+00 0.  1.
</event>
<event>
 7    1  0.4894942E-006  0.1023241E+04  0.7818608E-02  0.9183486E-01
         -4   -1    0    0    0  501 -0.00000000000E+00  0.00000000000E+00  0.13266327650E+04  0.13266327650E+04  0.00000000000E+00 0. -1.
          2   -1    0    0  501    0  0.00000000000E+00 -0.00000000000E+00 -0.11843402173E+04  0.11843402173E+04  0.00000000000E+00 0. -1.
   -9000010    2    1    2    0  502 -0.13532043477E+03  0.10323128993E+03  0.66121731456E+03  0.12173421478E+04  0.10078418768E+04 0.  0.
        -13    1    1    2    0    0  0.14755928024E+03 -0.98407082434E+02  0.36699864526E+03  0.40760975435E+03  0.10566000000E+00 0.  1.
         13    1    3    3    0    0  0.31187317343E+02  0.30704671953E+03 -0.16517924650E+03  0.35004932706E+03  0.10566000000E+00 0. -1.
          2    1    1    2  502    0 -0.12238845468E+02 -0.48242074942E+01 -0.88592341211E+03  0.88602108013E+03  0.00000000000E+00 0. -1.
         -4    1    3    3    0  502 -0.16650775211E+03 -0.20381542960E+03  0.82639656106E+03  0.86729282079E+03  0.00000000000E+00 0. -1.
</event>
<event>
 7    1  0.4894942E-006  0.1315266E+04  0.7818608E-02  0.8767172E-01
         -4   -1    0    0    0  501 -0.00000000000E+00  0.00000000000E+00  0.29278713318E+04  0.29278713318E+04  0.00000000000E+00 0. -1.
          1   -1    0    0  501    0  0.00000000000E+00 -0.00000000000E+00 -0.83509317817E+03  0.83509317817E+03  0.00000000000E+00 0. -1.
   -9000010    2    1    2    0  502 -0.32941456088E+03 -0.39536356452E+03  0.13682373322E+04  0.17667332603E+04  0.99219288179E+03 0.  0.
        -13    1    1    2    0    0 -0.14349632766E+03 -0.43032127843E+03  0.91916727873E+03  0.10250054128E+04  0.10566000000E+00 0.  1.
         13    1    3    3    0    0 -0.40097057861E+03 -0.32890448426E+03  0.14348343418E+03  0.53809206622E+03  0.10566000000E+00 0. -1.
          1    1    1    2  502    0  0.47291088854E+03  0.82568484295E+03 -0.19462645732E+03  0.97122583691E+03  0.00000000000E+00 0. -1.
         -4    1    3    3    0  502  0.71556017729E+02 -0.66459080265E+02  0.12247538980E+04  0.12286411941E+04  0.00000000000E+00 0. -1.
</event>
<event>
 7    1  0.4894942E-006  0.1108434E+04  0.7818608E-02  0.8975646E-01
         -4   -1    0    0    0  501 -0.00000000000E+00  0.00000000000E+00  0.30374453329E+04  0.30374453329E+04  0.00000000000E+00 0. -1.
          2   -1    0    0  501    0  0.00000000000E+00 -0.00000000000E+00 -0.14000526762E+04  0.14000526762E+04  0.00000000000E+00 0.  1.
   -9000010    2    1    2    0  502 -0.15781114510E+03  0.25180132829E+03  0.20490943627E+04  0.23269347257E+04  0.10618517995E+04 0.  0.
        -13    1    1    2    0    0  0.19011105611E+03 -0.26072829222E+03  0.81854991502E+03  0.87985534639E+03  0.10566000000E+00 0.  1.
         13    1    3    3    0    0 -0.10709383931E+02 -0.55088076888E+02 -0.11938243397E+03  0.13191498711E+03  0.10566000000E+00 0. -1.
          2    1    1    2  502    0 -0.32299911011E+02  0.89269639308E+01 -0.12302516211E+04  0.12307079369E+04  0.00000000000E+00 0.  1.
         -4    1    3    3    0  502 -0.14710176117E+03  0.30688940518E+03  0.21684767967E+04  0.21950197386E+04  0.00000000000E+00 0. -1.
</event>
<event>
 7    1  0.4894942E-006  0.1179202E+04  0.7818608E-02  0.8741926E-01
          4   -1    0    0  501    0 -0.00000000000E+00  0.00000000000E+00  0.22248229446E+04  0.22248229446E+04  0.00000000000E+00 0.  1.
          2   -1    0    0  502    0  0.00000000000E+00 -0.00000000000E+00 -0.12821721093E+04  0.12821721093E+04  0.00000000000E+00 0. -1.
    9000010    2    1    2  502    0 -0.35513265917E+03 -0.59416911101E+03  0.12828910234E+04  0.17389038142E+04  0.94806168527E+03 0.  0.
        -13    1    3    3    0    0  0.15045573293E+03 -0.42677826094E+03  0.13299270002E+03  0.47166055697E+03  0.10566000000E+00 0.  1.
         13    1    1    2    0    0  0.37936598566E+03  0.59808263217E+03  0.53805577427E+03  0.88945231090E+03  0.10566000000E+00 0. -1.
          2    1    1    2  501    0 -0.24233326494E+02 -0.39135211648E+01 -0.87829596229E+03  0.87863892877E+03  0.00000000000E+00 0. -1.
          4    1    3    3  502    0 -0.50558839209E+03 -0.16739085007E+03  0.11498983234E+04  0.12672432573E+04  0.00000000000E+00 0.  1.
</event>
<event>
 7    1  0.4894942E-006  0.1049039E+04  0.7818608E-02  0.9023542E-01
          2   -1    0    0  502    0  0.00000000000E+00  0.00000000000E+00  0.91664363538E+03  0.91664363538E+03  0.00000000000E+00 0.  1.
          4   -1    0    0  501    0 -0.00000000000E+00 -0.00000000000E+00 -0.12026183105E+04  0.12026183105E+04  0.00000000000E+00 0.  1.
    9000010    2    1    2  502    0  0.32087948692E+03  0.11200802086E+03 -0.46576541778E+03  0.11564829704E+04  0.10024998726E+04 0.  0.
        -13    1    3    3    0    0  0.38273843294E+02 -0.14820289206E+03  0.27914115106E+03  0.31835322783E+03  0.10566000000E+00 0.  1.
         13    1    1    2    0    0 -0.17295931247E+03 -0.26249970512E+03 -0.30254975483E+03  0.43629964964E+03  0.10566000000E+00 0. -1.
          2    1    1    2  501    0 -0.14792017445E+03  0.15049168426E+03  0.48234049750E+03  0.52647932587E+03  0.00000000000E+00 0.  1.
          4    1    3    3  502    0  0.28260564363E+03  0.26021091292E+03 -0.74490656884E+03  0.83812974253E+03  0.00000000000E+00 0.  1.
</event>
<event>
 7    1  0.4894942E-006  0.1052488E+04  0.7818608E-02  0.8987987E-01
          2   -1    0    0  502    0  0.00000000000E+00  0.00000000000E+00  0.32096193884E+03  0.32096193884E+03  0.00000000000E+00 0. -1.
          4   -1    0    0  501    0 -0.00000000000E+00 -0.00000000000E+00 -0.24906034400E+04  0.24906034400E+04  0.00000000000E+00 0.  1.
    9000010    2    1    2  502    0 -0.35668652064E+03  0.11442325617E+02 -0.87031423208E+03  0.13666587911E+04  0.99143995686E+03 0.  0.
        -13    1    3    3    0    0  0.23346605269E+03  0.16489242180E+03  0.21138491469E+02  0.28660557480E+03  0.10566000000E+00 0.  1.
         13    1    1    2    0    0  0.35291579282E+03  0.35369204708E+01 -0.13482107697E+04  0.13936406845E+04  0.10566000000E+00 0. -1.
          2    1    1    2  501    0  0.37707278160E+01 -0.14979246088E+02  0.48883500627E+02  0.51265903242E+02  0.00000000000E+00 0. -1.
          4    1    3    3  502    0 -0.59015257333E+03 -0.15345009618E+03 -0.89145272354E+03  0.10800532163E+04  0.00000000000E+00 0.  1.
</event>
<event>
 7    1  0.4894942E-006  0.1181992E+04  0.7818608E-02  0.8763020E-01
         -4   -1    0    0    0  501 -0.00000000000E+00  0.00000000000E+00  0.19400714198E+04  0.19400714198E+04  0.00000000000E+00 0. -1.
          2   -1    0    0  501    0  0.00000000000E+00 -0.00000000000E+00 -0.74649994235E+03  0.74649994235E+03  0.00000000000E+00 0.  1.
   -9000010    2    1    2    0  502 -0.27331663549E+03  0.58215565792E+03  0.12655774375E+04  0.17342652316E+04  0.99618394379E+03 0.  0.
        -13    1    1    2    0    0  0.26968359132E+03 -0.56881572562E+03  0.21481573989E+03  0.66515139811E+03  0.10566000000E+00 0.  1.
         13    1    3    3    0    0 -0.45997074201E+03  0.73265753679E+03  0.12111900743E+04  0.14884023505E+04  0.10566000000E+00 0. -1.
          2    1    1    2  502    0  0.36330441639E+01 -0.13339932301E+02 -0.28682169995E+03  0.28715473244E+03  0.00000000000E+00 0.  1.
         -4    1    3    3    0  502  0.18665410652E+03 -0.15050187887E+03  0.54387363214E+02  0.24586288110E+03  0.00000000000E+00 0. -1.
</event>
<event>
 7    1  0.4894942E-006  0.1295494E+04  0.7818608E-02  0.8704181E-01
          4   -1    0    0  501    0 -0.00000000000E+00  0.00000000000E+00  0.23088901091E+04  0.23088901091E+04  0.00000000000E+00 0.  1.
          2   -1    0    0  502    0  0.00000000000E+00 -0.00000000000E+00 -0.13105170927E+04  0.13105170927E+04  0.00000000000E+00 0. -1.
    9000010    2    1    2  502    0 -0.14528368961E+03  0.60559793360E+03  0.14856877093E+04  0.19713831843E+04  0.11363219096E+04 0.  0.
        -13    1    3    3    0    0  0.42434148845E+03 -0.75746222535E+01  0.72668708289E+03  0.84154453318E+03  0.10566000000E+00 0.  1.
         13    1    1    2    0    0  0.12879800759E+03 -0.60833201510E+03  0.41369439194E+03  0.74685997914E+03  0.10566000000E+00 0. -1.
          2    1    1    2  501    0  0.16485682013E+02  0.27340815020E+01 -0.90100908485E+03  0.90116403828E+03  0.00000000000E+00 0. -1.
          4    1    3    3  502    0 -0.56962517806E+03  0.61317255585E+03  0.75900062639E+03  0.11298386511E+04  0.00000000000E+00 0.  1.
</event>
<event>
 7    1  0.4894942E-006  0.1274949E+04  0.7818608E-02  0.8641507E-01
          1   -1    0    0  501    0  0.00000000000E+00  0.00000000000E+00  0.98391558774E+03  0.98391558774E+03  0.00000000000E+00 0. -1.
         -4   -1    0    0    0  501 -0.00000000000E+00 -0.00000000000E+00 -0.35561343796E+04  0.35561343796E+04  0.00000000000E+00 0. -1.
   -9000010    2    1    2    0  502  0.42601118152E+03  0.15452702745E+03 -0.87878564694E+03  0.14163299549E+04  0.10140819488E+04 0.  0.
        -13    1    1    2    0    0 -0.34100727414E+03  0.78701167192E+03 -0.19617100723E+04  0.21410230619E+04  0.10566000000E+00 0.  1.
         13    1    3    3    0    0  0.30037415108E+03 -0.42157216152E+03 -0.46670090862E+03  0.69696303150E+03  0.10566000000E+00 0. -1.
          1    1    1    2  502    0 -0.85003907376E+02 -0.94153869937E+03  0.26827692741E+03  0.98269695047E+03  0.00000000000E+00 0. -1.
         -4    1    3    3    0  502  0.12563703044E+03  0.57609918897E+03 -0.41208473833E+03  0.71936692342E+03  0.00000000000E+00 0. -1.
</event>
<event>
 7    1  0.4894942E-006  0.1043137E+04  0.7818608E-02  0.9034129E-01
         -4   -1    0    0    0  501 -0.00000000000E+00  0.00000000000E+00  0.11733399877E+04  0.11733399877E+04  0.00000000000E+00 0. -1.
          1   -1    0    0  501    0  0.00000000000E+00 -0.00000000000E+00 -0.90492995538E+03  0.90492995538E+03  0.00000000000E+00 0.  1.
   -9000010    2    1    2    0  502 -0.27151365344E+03  0.15676437571E+03  0.32868764811E+03  0.10971596187E+04  0.99871363529E+03 0.  0.
        -13    1    1    2    0    0  0.26393690493E+03 -0.14181506560E+03  0.41150558548E+03  0.50902952828E+03  0.10566000000E+00 0.  1.
         13    1    3    3    0    0  0.11100562548E+03 -0.11845541493E+03  0.55222270610E+03  0.57559001252E+03  0.10566000000E+00 0. -1.
          1    1    1    2  502    0  0.75767485136E+01 -0.14949310115E+02 -0.47178320132E+03  0.47208079609E+03  0.00000000000E+00 0.  1.
         -4    1    3    3    0  502 -0.38251927893E+03  0.27521979064E+03 -0.22353505799E+03  0.52156960615E+03  0.00000000000E+00 0. -1.
</event>
<event>
 7    1  0.4894942E-006  0.1050147E+04  0.7818608E-02  0.9022621E-01
          2   -1    0    0  501    0  0.00000000000E+00  0.00000000000E+00  0.21677693250E+04  0.21677693250E+04  0.00000000000E+00 0. -1.
         -4   -1    0    0    0  501 -0.00000000000E+00 -0.00000000000E+00 -0.25761213749E+04  0.25761213749E+04  0.00000000000E+00 0. -1.
   -9000010    2    1    2    0  502  0.57940407449E+01 -0.29340600485E+03 -0.85141402510E+03  0.13484272646E+04  0.10036082857E+04 0.  0.
        -13    1    1    2    0    0  0.25292036820E+02  0.30924998057E+03 -0.14597344653E+04  0.14923471305E+04  0.10566000000E+00 0.  1.
         13    1    3    3    0    0 -0.21827383673E+03  0.23974993586E+03 -0.66663295194E+03  0.74129818785E+03  0.10566000000E+00 0. -1.
          2    1    1    2  502    0 -0.31086077564E+02 -0.15843975713E+02  0.19027964405E+04  0.19031163049E+04  0.00000000000E+00 0. -1.
         -4    1    3    3    0  502  0.22406787747E+03 -0.53315594071E+03 -0.18478107316E+03  0.60712907674E+03  0.00000000000E+00 0. -1.
</event>
<event>
 7    1  0.4894942E-006  0.1048550E+04  0.7818608E-02  0.9037381E-01
         -4   -1    0    0    0  501 -0.00000000000E+00  0.00000000000E+00  0.18222115124E+04  0.18222115124E+04  0.00000000000E+00 0. -1.
          2   -1    0    0  501    0  0.00000000000E+00 -0.00000000000E+00 -0.14035311926E+04  0.14035311926E+04  0.00000000000E+00 0.  1.
   -9000010    2    1    2    0  502  0.15643642901E+03  0.28058631223E+03  0.15192698479E+04  0.18507221022E+04  0.10068715875E+04 0.  0.
        -13    1    1    2    0    0 -0.62157655852E+02 -0.26691269964E+03 -0.37791022859E+01  0.27408074757E+03  0.10566000000E+00 0.  1.
         13    1    3    3    0    0 -0.15400685739E+03 -0.31478906761E+03  0.31158601984E+03  0.46893083513E+03  0.10566000000E+00 0. -1.
          2    1    1    2  502    0 -0.94278773156E+02 -0.13673612589E+02 -0.10968104258E+04  0.11009398553E+04  0.00000000000E+00 0.  1.
         -4    1    3    3    0  502  0.31044328640E+03  0.59537537984E+03  0.12076838281E+04  0.13817912670E+04  0.00000000000E+00 0. -1.
</event>
<event>
 7    1  0.4894942E-006  0.1083198E+04  0.7818608E-02  0.8938468E-01
          2   -1    0    0  501    0  0.00000000000E+00  0.00000000000E+00  0.54569443710E+03  0.54569443710E+03  0.00000000000E+00 0.  1.
         -4   -1    0    0    0  501 -0.00000000000E+00 -0.00000000000E+00 -0.12769330442E+04  0.12769330442E+04  0.00000000000E+00 0. -1.
   -9000010    2    1    2    0  502  0.10855212719E+02  0.38891528510E+03 -0.58250048438E+03  0.12274794298E+04  0.10079811514E+04 0.  0.
        -13    1    1    2    0    0 -0.20118836875E+02 -0.39862154843E+03 -0.26436789857E+03  0.47874241866E+03  0.10566000000E+00 0.  1.
         13    1    3    3    0    0 -0.76983694230E+02  0.60422866334E+03 -0.96063300915E+01  0.60918885374E+03  0.10566000000E+00 0. -1.
          2    1    1    2  502    0  0.92636241554E+01  0.97062633266E+01  0.11562977588E+03  0.11640563281E+03  0.00000000000E+00 0.  1.
         -4    1    3    3    0  502  0.87838906949E+02 -0.21531337824E+03 -0.57289415429E+03  0.61829057606E+03  0.00000000000E+00 0. -1.
</event>
<event>
 6    1  0.4894942E-006  0.1372109E+04  0.7818608E-02  0.8828899E-01
         -4   -1    0    0    0  501 -0.00000000000E+00  0.00000000000E+00  0.20394661630E+04  0.20394661630E+04  0.00000000000E+00 0. -1.
          1   -1    0    0  501    0  0.00000000000E+00 -0.00000000000E+00 -0.66848669009E+03  0.66848669009E+03  0.00000000000E+00 0.  1.
        -13    1    1    2    0    0 -0.99377060792E+02 -0.29970453122E+03  0.64570612893E+03  0.71877327604E+03  0.10566000000E+00 0.  1.
         13    1    1    2    0    0 -0.54964802674E+03 -0.17691907123E+03  0.59023371845E+03  0.82570525288E+03  0.10566000000E+00 0. -1.
          1    1    1    2  502    0 -0.21683875029E+01  0.89350690875E+02 -0.28395284279E+03  0.29768685693E+03  0.00000000000E+00 0.  1.
         -4    1    1    2    0  502  0.65119347504E+03  0.38727291157E+03  0.41899246835E+03  0.86578746728E+03  0.00000000000E+00 0. -1.
</event>
<event>
 7    1  0.4894942E-006  0.1021615E+04  0.7818608E-02  0.9126079E-01
         -4   -1    0    0    0  501 -0.00000000000E+00  0.00000000000E+00  0.20599886624E+04  0.20599886624E+04  0.00000000000E+00 0. -1.
          2   -1    0    0  501    0  0.00000000000E+00 -0.00000000000E+00 -0.11501889377E+04  0.11501889377E+04  0.00000000000E+00 0.  1.
   -9000010    2    1    2    0  502 -0.23712471254E+03  0.13107818844E+03  0.11846497066E+04  0.15719474641E+04  0.99710294432E+03 0.  0.
        -13    1    1    2    0    0  0.20751884255E+03  0.93144679356E+02  0.64868226342E+03  0.68740722381E+03  0.10566000000E+00 0.  1.
         13    1    3    3    0    0 -0.16895750778E+03  0.40583056268E+03  0.99814538191E+02  0.45078602268E+03  0.10566000000E+00 0. -1.
          2    1    1    2  502    0  0.29605869991E+02 -0.22422286779E+03 -0.92353224540E+03  0.95082291215E+03  0.00000000000E+00 0.  1.
         -4    1    3    3    0  502 -0.68167204755E+02 -0.27475237424E+03  0.10848351685E+04  0.11211614414E+04  0.00000000000E+00 0. -1.
</event>
<event>
 7    1  0.4894942E-006  0.1124486E+04  0.7818608E-02  0.9086787E-01
          2   -1    0    0  501    0  0.00000000000E+00  0.00000000000E+00  0.11229582340E+04  0.11229582340E+04  0.00000000000E+00 0. -1.
         -4   -1    0    0    0  501 -0.00000000000E+00 -0.00000000000E+00 -0.22455826825E+04  0.22455826825E+04  0.00000000000E+00 0. -1.
   -9000010    2    1    2    0  502 -0.12895626388E+03  0.37782804126E+03 -0.12871425782E+04  0.16636803047E+04  0.97555747795E+03 0.  0.
        -13    1    1    2    0    0  0.55769340732E+02  0.18669119293E+03 -0.66827920328E+03  0.69610410542E+03  0.10566000000E+00 0.  1.
         13    1    3    3    0    0 -0.18709405829E+03  0.68750049984E+03 -0.10517861483E+04  0.12703996367E+04  0.10566000000E+00 0. -1.
          2    1    1    2  502    0  0.73186923152E+02 -0.56451923420E+03  0.83279733300E+03  0.10087565065E+04  0.00000000000E+00 0. -1.
         -4    1    3    3    0  502  0.58137794403E+02 -0.30967245857E+03 -0.23535642991E+03  0.39328066802E+03  0.00000000000E+00 0. -1.
</event>
<event>
 7    1  0.4894942E-006  0.1108987E+04  0.7818608E-02  0.8803773E-01
          2   -1    0    0  502    0  0.00000000000E+00  0.00000000000E+00  0.98306645195E+03  0.98306645195E+03  0.00000000000E+00 0.  1.
          4   -1    0    0  501    0 -0.00000000000E+00 -0.00000000000E+00 -0.15879190952E+04  0.15879190952E+04  0.00000000000E+00 0.  1.
    9000010    2    1    2  502    0 -0.37120980790E+03 -0.54113815070E+03  0.83903081529E+02  0.11170837226E+04  0.90011615728E+03 0.  0.
        -13    1    3    3    0    0 -0.52348875845E+03 -0.47114494710E+02 -0.15444009666E+03  0.54782479905E+03  0.10566000000E+00 0.  1.
         13    1    1    2    0    0  0.35762431320E+03  0.53850787090E+03 -0.97362975174E+03  0.11686919102E+04  0.10566000000E+00 0. -1.
          2    1    1    2  501    0  0.13585494696E+02  0.26302798057E+01  0.28487402692E+03  0.28520991436E+03  0.00000000000E+00 0.  1.
          4    1    3    3  502    0  0.15227895055E+03 -0.49402365599E+03  0.23834317819E+03  0.56925892356E+03  0.00000000000E+00 0.  1.
</event>
<event>
 7    1  0.4894942E-006  0.1027207E+04  0.7818608E-02  0.9163903E-01
          4   -1    0    0  501    0  0.00000000000E+00  0.00000000000E+00  0.13549800859E+04  0.13549800859E+04  0.00000000000E+00 0.  1.
         -4   -1    0    0    0  501 -0.00000000000E+00 -0.00000000000E+00 -0.12930637925E+04  0.12930637925E+04  0.00000000000E+00 0. -1.
   -9000010    2    1    2    0  502 -0.69437558329E+02 -0.25214938568E+03 -0.68681095446E+03  0.12488660402E+04  0.10097307621E+04 0.  0.
        -13    1    1    2    0    0  0.67059739816E+02  0.16935837659E+03 -0.29795555518E+03  0.34922312703E+03  0.10566000000E+00 0.  1.
         13    1    3    3    0    0  0.17831322663E+03 -0.16254641149E+03  0.20645789500E+03  0.31755600490E+03  0.10566000000E+00 0. -1.
          4    1    1    2  502    0  0.23778185130E+01  0.82791009084E+02  0.10466828030E+04  0.10499547111E+04  0.00000000000E+00 0.  1.
         -4    1    3    3    0  502 -0.24775078496E+03 -0.89602974191E+02 -0.89326884946E+03  0.93131003530E+03  0.00000000000E+00 0. -1.
</event>
<event>
 7    1  0.4894942E-006  0.1302454E+04  0.7818608E-02  0.8650637E-01
          2   -1    0    0  501    0  0.00000000000E+00  0.00000000000E+00  0.11579396953E+04  0.11579396953E+04  0.00000000000E+00 0.  1.
         -4   -1    0    0    0  501 -0.00000000000E+00 -0.00000000000E+00 -0.19173887661E+04  0.19173887661E+04  0.00000000000E+00 0. -1.
   -9000010    2    1    2    0  502  0.69181191675E+03  0.52530074660E+03  0.40640754877E+03  0.14207974873E+04  0.10483099740E+04 0.  0.
        -13    1    1    2    0    0 -0.53262059099E+03 -0.54598304259E+03 -0.12567146863E+04  0.14700727841E+04  0.10566000000E+00 0.  1.
         13    1    3    3    0    0 -0.26025194482E+03  0.13691573709E+03 -0.45623005387E+02  0.29758774106E+03  0.10566000000E+00 0. -1.
          2    1    1    2  502    0 -0.15919132577E+03  0.20682295986E+02  0.90858066652E+02  0.18445818996E+03  0.00000000000E+00 0.  1.
         -4    1    3    3    0  502  0.95206386157E+03  0.38838500951E+03  0.45203055416E+03  0.11232097462E+04  0.00000000000E+00 0. -1.
</event>
<event>
 7    1  0.4894942E-006  0.9803150E+03  0.7818608E-02  0.9197248E-01
          2   -1    0    0  502    0  0.00000000000E+00  0.00000000000E+00  0.16592292953E+04  0.16592292953E+04  0.00000000000E+00 0. -1.
          4   -1    0    0  501    0 -0.00000000000E+00 -0.00000000000E+00 -0.31079589262E+03  0.31079589262E+03  0.00000000000E+00 0.  1.
    9000010    2    1    2  502    0 -0.20406381401E+03 -0.51189193356E+02  0.11515556322E+04  0.15149293173E+04  0.96159663515E+03 0.  0.
        -13    1    3    3    0    0 -0.56941780990E+03 -0.17500041311E+02  0.46057745376E+03  0.73258070938E+03  0.10566000000E+00 0.  1.
         13    1    1    2    0    0  0.18926640460E+03  0.13787081975E+02 -0.56927820945E+02  0.19812279905E+03  0.10566000000E+00 0. -1.
          2    1    1    2  501    0  0.14797409406E+02  0.37402111381E+02  0.25380559144E+03  0.25697307156E+03  0.00000000000E+00 0. -1.
          4    1    3    3  502    0  0.36535399589E+03 -0.33689152044E+02  0.69097817843E+03  0.78234860794E+03  0.00000000000E+00 0.  1.
</event>
<event>
 7    1  0.4894942E-006  0.1041584E+04  0.7818608E-02  0.9085541E-01
          4   -1    0    0  501    0 -0.00000000000E+00  0.00000000000E+00  0.37206586626E+03  0.37206586626E+03  0.00000000000E+00 0.  1.
          2   -1    0    0  502    0  0.00000000000E+00 -0.00000000000E+00 -0.13781700954E+04  0.13781700954E+04  0.00000000000E+00 0.  1.
    9000010    2    1    2  502    0  0.20351202397E+03 -0.12117385507E+03 -0.89322605149E+03  0.13704543786E+04  0.10120238030E+04 0.  0.
        -13    1    3    3    0    0  0.61404282074E+03 -0.10845096366E+03 -0.60395234769E+03  0.86808331781E+03  0.10566000000E+00 0.  1.
         13    1    1    2    0    0 -0.20671806125E+03  0.13587331932E+03  0.18012588428E+02  0.24802899075E+03  0.10566000000E+00 0. -1.
          2    1    1    2  501    0  0.32060372749E+01 -0.14699464248E+02 -0.13089076604E+03  0.13175259223E+03  0.00000000000E+00 0.  1.
          4    1    3    3  502    0 -0.41053079676E+03 -0.12722891408E+02 -0.28927370380E+03  0.50237106084E+03  0.00000000000E+00 0.  1.
</event>
<event>
 7    1  0.4894942E-006  0.1067054E+04  0.7818608E-02  0.9411993E-01
         -4   -1    0    0    0  501 -0.00000000000E+00  0.00000000000E+00  0.79582051947E+03  0.79582051947E+03  0.00000000000E+00 0. -1.
          1   -1    0    0  501    0  0.00000000000E+00 -0.00000000000E+00 -0.12477120394E+04  0.12477120394E+04  0.00000000000E+00 0. -1.
   -9000010    2    1    2    0  502 -0.33457237184E+02  0.65859126853E+02  0.39402915234E+03  0.11379900503E+04  0.10650378258E+04 0.  0.
        -13    1    1    2    0    0  0.37760304836E+02 -0.52712589472E+02 -0.55729283416E+01  0.65080921970E+02  0.10566000000E+00 0.  1.
         13    1    3    3    0    0  0.45745830496E+03 -0.11849445586E+03  0.39139302067E+03  0.61359395746E+03  0.10566000000E+00 0. -1.
          1    1    1    2  502    0 -0.43030676517E+01 -0.13146537381E+02 -0.84034774390E+03  0.84046158658E+03  0.00000000000E+00 0. -1.
         -4    1    3    3    0  502 -0.49091554214E+03  0.18435358271E+03  0.26361316785E+01  0.52439609282E+03  0.00000000000E+00 0. -1.
</event>
<event>
 6    1  0.4894942E-006  0.7433404E+03  0.7818608E-02  0.9163729E-01
          4   -1    0    0  501    0 -0.00000000000E+00  0.00000000000E+00  0.12404733253E+04  0.12404733253E+04  0.00000000000E+00 0.  1.
          2   -1    0    0  502    0  0.00000000000E+00 -0.00000000000E+00 -0.31753114143E+04  0.31753114143E+04  0.00000000000E+00 0.  1.
        -13    1    1    2    0    0  0.25374936898E+03 -0.44501143841E+03  0.37920587591E+02  0.51367490177E+03  0.10566000000E+00 0.  1.
         13    1    1    2    0    0 -0.11547384413E+02  0.50240521251E+03  0.72430736988E+03  0.88156991604E+03  0.10566000000E+00 0. -1.
          2    1    1    2  501    0 -0.33893619190E+02 -0.22217343981E+02 -0.27896078688E+04  0.27899022293E+04  0.00000000000E+00 0.  1.
          4    1    1    2  502    0 -0.20830836538E+03 -0.35176430117E+02  0.92541822273E+02  0.23063769248E+03  0.00000000000E+00 0.  1.
</event>
<event>
 7    1  0.4894942E-006  0.1024938E+04  0.7818608E-02  0.9015720E-01
         -2   -1    0    0    0  501  0.00000000000E+00  0.00000000000E+00  0.40280914268E+03  0.40280914268E+03  0.00000000000E+00 0.  1.
         -4   -1    0    0    0  502 -0.00000000000E+00 -0.00000000000E+00 -0.22908881031E+04  0.22908881031E+04  0.00000000000E+00 0. -1.
   -9000010    2    1    2    0  501 -0.10645382929E+03  0.27562802463E+03 -0.13982072846E+04  0.17250745112E+04  0.96622731940E+03 0.  0.
        -13    1    1    2    0    0 -0.61446267983E+01 -0.35993502167E+03 -0.65762018415E+03  0.74970347073E+03  0.10566000000E+00 0.  1.
         13    1    3    3    0    0 -0.53750555312E+03  0.12831405150E+03 -0.82347490856E+03  0.99170945928E+03  0.10566000000E+00 0. -1.
         -2    1    1    2    0  502  0.11259845608E+03  0.84306997046E+02  0.16774850829E+03  0.21891926388E+03  0.00000000000E+00 0.  1.
         -4    1    3    3    0  501  0.43105172383E+03  0.14731397313E+03 -0.57473237601E+03  0.73336505189E+03  0.00000000000E+00 0. -1.
</event>
<event>
 7    1  0.4894942E-006  0.1048125E+04  0.7818608E-02  0.9037185E-01
          1   -1    0    0  501    0  0.00000000000E+00  0.00000000000E+00  0.26185868281E+03  0.26185868281E+03  0.00000000000E+00 0. -1.
         -4   -1    0    0    0  501 -0.00000000000E+00 -0.00000000000E+00 -0.21553087363E+04  0.21553087363E+04  0.00000000000E+00 0. -1.
   -9000010    2    1    2    0  502  0.25713731829E+03  0.75415978440E+01 -0.11796850954E+04  0.15717469431E+04  0.10062579454E+04 0.  0.
        -13    1    1    2    0    0 -0.29609468011E+03 -0.40533033622E+02 -0.73243770228E+03  0.79106256724E+03  0.10566000000E+00 0.  1.
         13    1    3    3    0    0  0.17713018106E+02  0.48847112803E+03 -0.68455925699E+03  0.84115348268E+03  0.10566000000E+00 0. -1.
          1    1    1    2  502    0  0.38957361822E+02  0.32991435778E+02  0.18672744179E+02  0.54357908809E+02  0.00000000000E+00 0. -1.
         -4    1    3    3    0  502  0.23942430019E+03 -0.48092953019E+03 -0.49512583845E+03  0.73059346043E+03  0.00000000000E+00 0. -1.
</event>
<event>
 7    1  0.4894942E-006  0.1035221E+04  0.7818608E-02  0.9246836E-01
          2   -1    0    0  501    0  0.00000000000E+00  0.00000000000E+00  0.22051216245E+04  0.22051216245E+04  0.00000000000E+00 0. -1.
         -4   -1    0    0    0  501 -0.00000000000E+00 -0.00000000000E+00 -0.44643875762E+03  0.44643875762E+03  0.00000000000E+00 0. -1.
   -9000010    2    1    2    0  502  0.26185036176E+03 -0.71346576888E+02  0.70456715103E+03  0.12412677850E+04  0.98522834809E+03 0.  0.
        -13    1    1    2    0    0  0.57728907472E+02  0.12062328184E+03 -0.12778060497E+03  0.18496079869E+03  0.10566000000E+00 0.  1.
         13    1    3    3    0    0 -0.11938010232E+03 -0.46121809395E+03  0.34144793168E+03  0.58614029057E+03  0.10566000000E+00 0. -1.
          2    1    1    2  502    0 -0.31957926923E+03 -0.49276704953E+02  0.11818963208E+04  0.12253317984E+04  0.00000000000E+00 0. -1.
         -4    1    3    3    0  502  0.38123046407E+03  0.38987151706E+03  0.36311921935E+03  0.65512749447E+03  0.00000000000E+00 0. -1.
</event>
<event>
 7    1  0.4894942E-006  0.8788290E+03  0.7818608E-02  0.9210292E-01
          1   -1    0    0  501    0  0.00000000000E+00  0.00000000000E+00  0.26159606656E+03  0.26159606656E+03  0.00000000000E+00 0.  1.
         -4   -1    0    0    0  501 -0.00000000000E+00 -0.00000000000E+00 -0.18148667145E+04  0.18148667145E+04  0.00000000000E+00 0. -1.
   -9000010    2    1    2    0  502  0.31382735506E+03 -0.27393702987E+02 -0.13160583335E+04  0.15938278768E+04  0.84204497501E+03 0.  0.
        -13    1    1    2    0    0 -0.23017013011E+03  0.38810334440E+02 -0.29804494806E+03  0.37857011647E+03  0.10566000000E+00 0.  1.
         13    1    3    3    0    0  0.25398086929E+03 -0.30688949912E+03 -0.20778824606E+03  0.44929212435E+03  0.10566000000E+00 0. -1.
          1    1    1    2  502    0 -0.83657224947E+02 -0.11416631452E+02  0.60832633576E+02  0.10406478784E+03  0.00000000000E+00 0.  1.
         -4    1    3    3    0  502  0.59846485767E+02  0.27949579614E+03 -0.11082700874E+04  0.11445357524E+04  0.00000000000E+00 0. -1.
</event>
<event>
 7    1  0.4894942E-006  0.1063778E+04  0.7818608E-02  0.9125376E-01
         -4   -1    0    0    0  502 -0.00000000000E+00  0.00000000000E+00  0.50801908674E+03  0.50801908674E+03  0.00000000000E+00 0. -1.
         -2   -1    0    0    0  501  0.00000000000E+00 -0.00000000000E+00 -0.15147114194E+04  0.15147114194E+04  0.00000000000E+00 0. -1.
   -9000010    2    1    2    0  501 -0.28672435955E+03  0.11038353042E+03 -0.38005446061E+03  0.11115145684E+04  0.99831250653E+03 0.  0.
        -13    1    1    2    0    0  0.50964921817E+02  0.19089173791E+03 -0.26260679341E+02  0.19931561229E+03  0.10566000000E+00 0.  1.
         13    1    3    3    0    0 -0.15811225606E+03 -0.13724469928E+03 -0.67426684698E+03  0.70602505983E+03  0.10566000000E+00 0. -1.
         -2    1    1    2    0  502  0.23575943773E+03 -0.30127526833E+03 -0.60037719276E+03  0.71190032545E+03  0.00000000000E+00 0. -1.
         -4    1    3    3    0  501 -0.12861210349E+03  0.24762822970E+03  0.29421238637E+03  0.40548950862E+03  0.00000000000E+00 0. -1.
</event>
<event>
 7    1  0.4894942E-006  0.1241015E+04  0.7818608E-02  0.9012917E-01
          2   -1    0    0  502    0  0.00000000000E+00  0.00000000000E+00  0.24361104615E+04  0.24361104615E+04  0.00000000000E+00 0.  1.
          4   -1    0    0  501    0 -0.00000000000E+00 -0.00000000000E+00 -0.27865774537E+04  0.27865774537E+04  0.00000000000E+00 0.  1.
    9000010    2    1    2  502    0  0.37454003094E+03 -0.43686247864E+03 -0.15747520064E+04  0.19515092620E+04  0.99870689288E+03 0.  0.
        -13    1    3    3    0    0 -0.22238760103E+03 -0.50229404811E+03 -0.82039366791E+03  0.98732028105E+03  0.10566000000E+00 0.  1.
         13    1    1    2    0    0  0.18917686199E+03 -0.46457953269E+02 -0.95198797277E+03  0.97171360904E+03  0.10566000000E+00 0. -1.
          2    1    1    2  501    0 -0.56371689294E+03  0.48332043191E+03  0.21762729870E+04  0.22994650441E+04  0.00000000000E+00 0.  1.
          4    1    3    3  502    0  0.59692763197E+03  0.65431569472E+02 -0.75435833850E+03  0.96418898093E+03  0.00000000000E+00 0.  1.
</event>
<event>
 7    1  0.4894942E-006  0.1144869E+04  0.7818608E-02  0.8774307E-01
          2   -1    0    0  501    0  0.00000000000E+00  0.00000000000E+00  0.47267875150E+03  0.47267875150E+03  0.00000000000E+00 0. -1.
         -4   -1    0    0    0  501 -0.00000000000E+00 -0.00000000000E+00 -0.24759698656E+04  0.24759698656E+04  0.00000000000E+00 0. -1.
   -9000010    2    1    2    0  502  0.24018871722E+03 -0.63680147407E+03 -0.10651399798E+04  0.15694882391E+04  0.93035660840E+03 0.  0.
        -13    1    1    2    0    0 -0.23847167037E+03  0.61775210615E+03 -0.10632585480E+04  0.12525993587E+04  0.10566000000E+00 0.  1.
         13    1    3    3    0    0 -0.35718486103E+03 -0.19624516870E+03 -0.32489788529E+03  0.52120230067E+03  0.10566000000E+00 0. -1.
          2    1    1    2  502    0 -0.17170468466E+01  0.19049367914E+02  0.12510741368E+03  0.12656101938E+03  0.00000000000E+00 0. -1.
         -4    1    3    3    0  502  0.59737357825E+03 -0.44055630537E+03 -0.74024209448E+03  0.10482859384E+04  0.00000000000E+00 0. -1.
</event>
<event>
 7    1  0.4894942E-006  0.1034704E+04  0.7818608E-02  0.9197528E-01
          4   -1    0    0  501    0 -0.00000000000E+00  0.00000000000E+00  0.74096220930E+03  0.74096220930E+03  0.00000000000E+00 0.  1.
          2   -1    0    0  502    0  0.00000000000E+00 -0.00000000000E+00 -0.10543188852E+04  0.10543188852E+04  0.00000000000E+00 0. -1.
    9000010    2    1    2  502    0 -0.42829241899E+02  0.15068085706E+03  0.32900464274E+03  0.10849709468E+04  0.10219485485E+04 0.  0.
        -13    1    3    3    0    0  0.68911252440E+02 -0.95705052676E+02  0.65260662362E+03  0.66317692524E+03  0.10566000000E+00 0.  1.
         13    1    1    2    0    0  0.38239562596E+02 -0.16033816614E+03 -0.16637387936E+03  0.23420262716E+03  0.10566000000E+00 0. -1.
          2    1    1    2  501    0  0.45896793026E+01  0.96573090780E+01 -0.47598743925E+03  0.47610752053E+03  0.00000000000E+00 0. -1.
          4    1    3    3  502    0 -0.11174049434E+03  0.24638590974E+03 -0.32360198088E+03  0.42179402156E+03  0.00000000000E+00 0.  1.
</event>
<event>
 7    1  0.4894942E-006  0.1247767E+04  0.7818608E-02  0.8687827E-01
          2   -1    0    0  501    0  0.00000000000E+00  0.00000000000E+00  0.32808385478E+04  0.32808385478E+04  0.00000000000E+00 0.  1.
         -4   -1    0    0    0  501 -0.00000000000E+00 -0.00000000000E+00 -0.65454749364E+03  0.65454749364E+03  0.00000000000E+00 0. -1.
   -9000010    2    1    2    0  502 -0.45114869639E+03 -0.66649686084E+03  0.15608715841E+03  0.12924192448E+04  0.99911515430E+03 0.  0.
        -13    1    1    2    0    0  0.49816390873E+03  0.41565161231E+03  0.14042150957E+04  0.15468528013E+04  0.10566000000E+00 0.  1.
         13    1    3    3    0    0 -0.46145294517E+03 -0.82595348981E+03 -0.13955898867E+03  0.95635490819E+03  0.10566000000E+00 0. -1.
          2    1    1    2  502    0 -0.47015212337E+02  0.25084524853E+03  0.10659888000E+04  0.10961139953E+04  0.00000000000E+00 0.  1.
         -4    1    3    3    0  502  0.10304248778E+02  0.15945662897E+03  0.29564614707E+03  0.33606433661E+03  0.00000000000E+00 0. -1.
</event>
<event>
 7    1  0.4894942E-006  0.1075172E+04  0.7818608E-02  0.9212166E-01
          4   -1    0    0  501    0 -0.00000000000E+00  0.00000000000E+00  0.72078025008E+03  0.72078025008E+03  0.00000000000E+00 0.  1.
          2   -1    0    0  502    0  0.00000000000E+00 -0.00000000000E+00 -0.13802795566E+04  0.13802795566E+04  0.00000000000E+00 0.  1.
    9000010    2    1    2  502    0  0.10763718371E+03  0.74418383358E+02  0.27132604930E+03  0.11082099196E+04  0.10664837279E+04 0.  0.
        -13    1    3    3    0    0  0.42397568381E+03  0.41289476842E+03  0.25562266199E+03  0.64465527745E+03  0.10566000000E+00 0.  1.
         13    1    1    2    0    0 -0.12167308154E+03 -0.66511562667E+02 -0.12447565871E+03  0.18633928066E+03  0.10566000000E+00 0. -1.
          2    1    1    2  501    0  0.14035897832E+02 -0.79068206905E+01 -0.80634969712E+03  0.80651060644E+03  0.00000000000E+00 0.  1.
          4    1    3    3  502    0 -0.31633850011E+03 -0.33847638506E+03  0.15703387312E+02  0.46355464216E+03  0.00000000000E+00 0.  1.
</event>
<event>
 7    1  0.4894942E-006  0.9836487E+03  0.7818608E-02  0.9421460E-01
          2   -1    0    0  502    0  0.00000000000E+00  0.00000000000E+00  0.83356264034E+03  0.83356264034E+03  0.00000000000E+00 0.  1.
          4   -1    0    0  501    0 -0.00000000000E+00 -0.00000000000E+00 -0.15108871879E+04  0.15108871879E+04  0.00000000000E+00 0.  1.
    9000010    2    1    2  502    0  0.44898524892E+02 -0.65635118253E+02 -0.12344508049E+04  0.15783621011E+04  0.98032356195E+03 0.  0.
        -13    1    3    3    0    0  0.15072014991E+03 -0.26243472864E+03  0.20827205375E+02  0.30335183209E+03  0.10566000000E+00 0.  1.
         13    1    1    2    0    0 -0.58756266693E+02  0.55866932241E+02 -0.88623903921E+02  0.12011503030E+03  0.10566000000E+00 0. -1.
          2    1    1    2  501    0  0.13857741801E+02  0.97681860120E+01  0.64575016120E+03  0.64597269691E+03  0.00000000000E+00 0.  1.
          4    1    3    3  502    0 -0.10582162502E+03  0.19679961038E+03 -0.12552780103E+04  0.12750102690E+04  0.00000000000E+00 0.  1.
</event>
<event>
 7    1  0.4894942E-006  0.1156212E+04  0.7818608E-02  0.9041860E-01
         -4   -1    0    0    0  501 -0.00000000000E+00  0.00000000000E+00  0.23314982117E+04  0.23314982117E+04  0.00000000000E+00 0. -1.
          1   -1    0    0  501    0  0.00000000000E+00 -0.00000000000E+00 -0.95816207968E+03  0.95816207968E+03  0.00000000000E+00 0. -1.
   -9000010    2    1    2    0  502 -0.23134672405E+03  0.43469780757E+01  0.16508336854E+04  0.20173356870E+04  0.11361563334E+04 0.  0.
        -13    1    1    2    0    0  0.21231899949E+03  0.20927865154E+01  0.47461421956E+03  0.51994461808E+03  0.10566000000E+00 0.  1.
         13    1    3    3    0    0  0.17943428711E+03  0.40132933629E+03  0.12345644864E+04  0.13105004318E+04  0.10566000000E+00 0. -1.
          1    1    1    2  502    0  0.19027724559E+02 -0.64397645911E+01 -0.75211177294E+03  0.75237998636E+03  0.00000000000E+00 0. -1.
         -4    1    3    3    0  502 -0.41078101115E+03 -0.39698235821E+03  0.41626919904E+03  0.70683525515E+03  0.00000000000E+00 0. -1.
</event>
<event>
 7    1  0.1063319E-005  0.1198548E+04  0.7818608E-02  0.8747759E-01
         -4   -1    0    0    0  501 -0.00000000000E+00  0.00000000000E+00  0.89938590558E+03  0.89938590558E+03  0.00000000000E+00 0. -1.
          4   -1    0    0  501    0  0.00000000000E+00 -0.00000000000E+00 -0.19929813531E+04  0.19929813531E+04  0.00000000000E+00 0.  1.
   -9000010    2    1    2    0  502  0.58512507711E+03 -0.96216684603E+02  0.18243955330E+03  0.11820407895E+04  0.10061347977E+04 0.  0.
        -13    1    1    2    0    0 -0.72124184229E+03  0.68901402650E+02 -0.40849511456E+03  0.83174844042E+03  0.10566000000E+00 0.  1.
         13    1    3    3    0    0 -0.25679141413E+03  0.13787759508E+03  0.79704230592E+02  0.30216690277E+03  0.10566000000E+00 0. -1.
          4    1    1    2  502    0  0.13611676519E+03  0.27315281953E+02 -0.86753988630E+03  0.87857802881E+03  0.00000000000E+00 0.  1.
         -4    1    3    3    0  502  0.84191649123E+03 -0.23409427968E+03  0.10273532271E+03  0.87987388671E+03  0.00000000000E+00 0. -1.
</event>
<event>
 7    1  0.4894942E-006  0.1146660E+04  0.7818608E-02  0.8815292E-01
          2   -1    0    0  502    0  0.00000000000E+00  0.00000000000E+00  0.29694141607E+04  0.29694141607E+04  0.00000000000E+00 0.  1.
          4   -1    0    0  501    0 -0.00000000000E+00 -0.00000000000E+00 -0.18135410705E+04  0.18135410705E+04  0.00000000000E+00 0.  1.
    9000010    2    1    2  502    0 -0.59543378979E+03  0.15098423995E+03 -0.16452374621E+03  0.11864488868E+04  0.10016263071E+04 0.  0.
        -13    1    3    3    0    0 -0.57433238032E+03  0.45918431364E+03  0.14461515825E+03  0.74941408589E+03  0.10566000000E+00 0.  1.
         13    1    1    2    0    0  0.53314530249E+03 -0.13861346065E+03 -0.10709470430E+04  0.12043193866E+04  0.10566000000E+00 0. -1.
          2    1    1    2  501    0  0.62288487297E+02 -0.12370779291E+02  0.23913438793E+04  0.23921869578E+04  0.00000000000E+00 0.  1.
          4    1    3    3  502    0 -0.21101409472E+02 -0.30820007370E+03 -0.30913890446E+03  0.43703480086E+03  0.00000000000E+00 0.  1.
</event>
<event>
 7    1  0.4894942E-006  0.1150531E+04  0.7818608E-02  0.8982403E-01
          4   -1    0    0  501    0 -0.00000000000E+00  0.00000000000E+00  0.34838173001E+04  0.34838173001E+04  0.00000000000E+00 0.  1.
          2   -1    0    0  502    0  0.00000000000E+00 -0.00000000000E+00 -0.10723865865E+04  0.10723865865E+04  0.00000000000E+00 0. -1.
    9000010    2    1    2  502    0  0.79975837835E+02 -0.32772375448E+03  0.25358359702E+04  0.27579310208E+04  0.10304952468E+04 0.  0.
        -13    1    3    3    0    0  0.37198777690E+03  0.19506893163E+03  0.60607709415E+03  0.73739829771E+03  0.10566000000E+00 0.  1.
         13    1    1    2    0    0  0.27169437162E+03 -0.51933129033E+02  0.74043878262E+03  0.79042044725E+03  0.10566000000E+00 0. -1.
          2    1    1    2  501    0 -0.35167020945E+03  0.37965688352E+03 -0.86484403922E+03  0.10078524186E+04  0.00000000000E+00 0. -1.
          4    1    3    3  502    0 -0.29201193906E+03 -0.52279268612E+03  0.19297588761E+04  0.20205327231E+04  0.00000000000E+00 0.  1.
</event>
<event>
 7    1  0.4894942E-006  0.1047425E+04  0.7818608E-02  0.9076620E-01
          4   -1    0    0  501    0 -0.00000000000E+00  0.00000000000E+00  0.25715755694E+03  0.25715755694E+03  0.00000000000E+00 0.  1.
          2   -1    0    0  502    0  0.00000000000E+00 -0.00000000000E+00 -0.20874719358E+04  0.20874719358E+04  0.00000000000E+00 0.  1.
    9000010    2    1    2  502    0  0.12258058077E+03  0.20403066201E+03 -0.11953217187E+04  0.15873033233E+04  0.10168988736E+04 0.  0.
        -13    1    3    3    0    0  0.22055543580E+03 -0.51953722986E+02  0.11115298656E+03  0.25238638469E+03  0.10566000000E+00 0.  1.
         13    1    1    2    0    0 -0.20705265676E+03 -0.15251286764E+03 -0.24573946952E+03  0.35569491915E+03  0.10566000000E+00 0. -1.
          2    1    1    2  501    0  0.84472075994E+02 -0.51517794370E+02 -0.38925319067E+03  0.40163125029E+03  0.00000000000E+00 0.  1.
          4    1    3    3  502    0 -0.97974855034E+02  0.25598438500E+03 -0.13064747052E+04  0.13349169386E+04  0.00000000000E+00 0.  1.
</event>
<event>
 7    1  0.4894942E-006  0.9194179E+03  0.7818608E-02  0.9382365E-01
          2   -1    0    0  502    0  0.00000000000E+00  0.00000000000E+00  0.99486333136E+03  0.99486333136E+03  0.00000000000E+00 0.  1.
          4   -1    0    0  501    0 -0.00000000000E+00 -0.00000000000E+00 -0.68222561284E+03  0.68222561284E+03  0.00000000000E+00 0.  1.
    9000010    2    1    2  502    0 -0.17250388139E+03 -0.12302211258E+02  0.28289637064E+02  0.92895228462E+03  0.91227359385E+03 0.  0.
        -13    1    3    3    0    0  0.16260481563E+03 -0.26295371283E+03 -0.27368087627E+03  0.41289976309E+03  0.10566000000E+00 0.  1.
         13    1    1    2    0    0  0.10909583508E+03 -0.29280423213E+02 -0.21510536044E+03  0.24296002073E+03  0.10566000000E+00 0. -1.
          2    1    1    2  501    0  0.63408046305E+02  0.41582634471E+02  0.49945344190E+03  0.50517663886E+03  0.00000000000E+00 0.  1.
          4    1    3    3  502    0 -0.33510869702E+03  0.25065150157E+03  0.30197051334E+03  0.51605252153E+03  0.00000000000E+00 0.  1.
</event>
<event>
 7    1  0.4894942E-006  0.9980822E+03  0.7818608E-02  0.9324750E-01
         -4   -1    0    0    0  501 -0.00000000000E+00  0.00000000000E+00  0.55974325556E+03  0.55974325556E+03  0.00000000000E+00 0. -1.
          2   -1    0    0  501    0  0.00000000000E+00 -0.00000000000E+00 -0.11187281228E+04  0.11187281228E+04  0.00000000000E+00 0. -1.
   -9000010    2    1    2    0  502  0.12098038019E+03  0.22437507043E+02 -0.15885118826E+03  0.10120421613E+04  0.99189512658E+03 0.  0.
        -13    1    1    2    0    0 -0.93314152030E+02 -0.59790452496E+02  0.10884211521E+03  0.15533527091E+03  0.10566000000E+00 0.  1.
         13    1    3    3    0    0 -0.11532530709E+03  0.46699138001E+03  0.97054257316E+01  0.48111857365E+03  0.10566000000E+00 0. -1.
          2    1    1    2  502    0 -0.27666228158E+02  0.37352945453E+02 -0.50897579417E+03  0.51109394612E+03  0.00000000000E+00 0. -1.
         -4    1    3    3    0  502  0.23630568728E+03 -0.44455387297E+03 -0.16855661399E+03  0.53092358765E+03  0.00000000000E+00 0. -1.
</event>
<event>
 7    1  0.4894942E-006  0.1058418E+04  0.7818608E-02  0.9038394E-01
         -4   -1    0    0    0  501  0.00000000000E+00  0.00000000000E+00  0.12641810617E+04  0.12641810617E+04  0.00000000000E+00 0. -1.
         -4   -1    0    0    0  502 -0.00000000000E+00 -0.00000000000E+00 -0.60502635513E+03  0.60502635513E+03  0.00000000000E+00 0. -1.
   -9000010    2    1    2    0  501  0.18128299152E+03 -0.30291400195E+03  0.49492100975E+03  0.11737992136E+04  0.10041102392E+04 0.  0.
        -13    1    1    2    0    0 -0.28069034291E+03 -0.39272771697E+02 -0.37561359317E+02  0.28590258145E+03  0.10566000000E+00 0.  1.
         13    1    3    3    0    0  0.17282410825E+03  0.22246263221E+02  0.74398873316E+03  0.76412192408E+03  0.10566000000E+00 0. -1.
         -4    1    3    3    0  501  0.84588832642E+01 -0.32516026517E+03 -0.24906772341E+03  0.40967728957E+03  0.00000000000E+00 0. -1.
         -4    1    1    2    0  502  0.99407351395E+02  0.34218677364E+03  0.20179505618E+03  0.40950562178E+03  0.00000000000E+00 0. -1.
</event>
<event>
 7    1  0.4894942E-006  0.1047953E+04  0.7818608E-02  0.9028495E-01
          4   -1    0    0  501    0 -0.00000000000E+00  0.00000000000E+00  0.22867537185E+04  0.22867537185E+04  0.00000000000E+00 0.  1.
          2   -1    0    0  502    0  0.00000000000E+00 -0.00000000000E+00 -0.27075992932E+04  0.27075992932E+04  0.00000000000E+00 0. -1.
    9000010    2    1    2  502    0  0.13611810836E+03  0.15928302277E+03  0.71785687097E+03  0.12510409301E+04  0.10029385330E+04 0.  0.
        -13    1    3    3    0    0 -0.15377899707E+03  0.41903791531E+03  0.73665909067E+03  0.86134045617E+03  0.10566000000E+00 0.  1.
         13    1    1    2    0    0 -0.12181810775E+03 -0.28621990006E+03  0.12820217080E+04  0.13192199034E+04  0.10566000000E+00 0. -1.
          2    1    1    2  501    0 -0.14300000612E+02  0.12693687729E+03 -0.24207241536E+04  0.24240921783E+04  0.00000000000E+00 0. -1.
          4    1    3    3  502    0  0.28989710543E+03 -0.25975489255E+03 -0.18802219708E+02  0.38970047396E+03  0.00000000000E+00 0.  1.
</event>
<event>
 7    1  0.4894942E-006  0.1131624E+04  0.7818608E-02  0.8837964E-01
          4   -1    0    0  501    0 -0.00000000000E+00  0.00000000000E+00  0.18026904011E+04  0.18026904011E+04  0.00000000000E+00 0.  1.
          2   -1    0    0  502    0  0.00000000000E+00 -0.00000000000E+00 -0.13293905890E+04  0.13293905890E+04  0.00000000000E+00 0.  1.
    9000010    2    1    2  502    0 -0.33314555701E+03 -0.40000617489E+03  0.57872287617E+03  0.12679981402E+04  0.10009536522E+04 0.  0.
        -13    1    3    3    0    0 -0.39415214208E+03 -0.23042400360E+03 -0.17805574637E+03  0.49005611161E+03  0.10566000000E+00 0.  1.
         13    1    1    2    0    0  0.35465578902E+03  0.39338893619E+03  0.79941893939E+03  0.95896101882E+03  0.10566000000E+00 0. -1.
          2    1    1    2  501    0 -0.21510232018E+02  0.66172387021E+01 -0.90484200351E+03  0.90512183116E+03  0.00000000000E+00 0.  1.
          4    1    3    3  502    0  0.61006585079E+02 -0.16958217129E+03  0.75677862254E+03  0.77794202854E+03  0.00000000000E+00 0.  1.
</event>
<event>
 7    1  0.4894942E-006  0.1132262E+04  0.7818608E-02  0.8839611E-01
          4   -1    0    0  501    0  0.00000000000E+00  0.00000000000E+00  0.31330386168E+04  0.31330386168E+04  0.00000000000E+00 0.  1.
          4   -1    0    0  502    0 -0.00000000000E+00 -0.00000000000E+00 -0.37500543634E+03  0.37500543634E+03  0.00000000000E+00 0.  1.
    9000010    2    1    2  501    0 -0.83215809319E+02 -0.48851724546E+03  0.97757844692E+03  0.14863848893E+04  0.10040450434E+04 0.  0.
        -13    1    3    3    0    0 -0.20415898670E+03 -0.15717744742E+03 -0.15463863917E+03  0.30049752364E+03  0.10566000000E+00 0.  1.
         13    1    1    2    0    0 -0.14177552628E+02  0.54035763117E+03  0.49960263940E+03  0.73606397889E+03  0.10566000000E+00 0. -1.
          4    1    3    3  501    0  0.12094317738E+03 -0.33133979804E+03  0.11322170861E+04  0.11858873656E+04  0.00000000000E+00 0.  1.
          4    1    1    2  502    0  0.97393361947E+02 -0.51840385716E+02  0.12808520942E+04  0.12855951850E+04  0.00000000000E+00 0.  1.
</event>
<event>
 7    1  0.4894942E-006  0.1053447E+04  0.7818608E-02  0.9086078E-01
         -4   -1    0    0    0  501 -0.00000000000E+00  0.00000000000E+00  0.14957498495E+04  0.14957498495E+04  0.00000000000E+00 0. -1.
          1   -1    0    0  501    0  0.00000000000E+00 -0.00000000000E+00 -0.57247630364E+03  0.57247630364E+03  0.00000000000E+00 0. -1.
   -9000010    2    1    2    0  502 -0.51495370392E+02 -0.24176984639E+02  0.64980502681E+03  0.12160419187E+04  0.10262919056E+04 0.  0.
        -13    1    1    2    0    0  0.14884613627E+03  0.21211031462E+03  0.48692745394E+03  0.55158346097E+03  0.10566000000E+00 0.  1.
         13    1    3    3    0    0  0.40814814217E+03 -0.25443121359E+02 -0.13359330756E+02  0.40915857716E+03  0.10566000000E+00 0. -1.
          1    1    1    2  502    0 -0.97350765880E+02 -0.18793332998E+03 -0.21345893486E+03  0.30060077347E+03  0.00000000000E+00 0. -1.
         -4    1    3    3    0  502 -0.45964351257E+03  0.12661367203E+01  0.66316435757E+03  0.80688334157E+03  0.00000000000E+00 0. -1.
</event>
<event>
 7    1  0.4894942E-006  0.1823043E+04  0.7818608E-02  0.8567756E-01
          2   -1    0    0  501    0  0.00000000000E+00  0.00000000000E+00  0.12585571521E+04  0.12585571521E+04  0.00000000000E+00 0.  1.
         -4   -1    0    0    0  501 -0.00000000000E+00 -0.00000000000E+00 -0.33074697235E+04  0.33074697235E+04  0.00000000000E+00 0. -1.
   -9000010    2    1    2    0  502  0.15121598248E+03  0.15185496662E+04 -0.18651767794E+04  0.26092334339E+04  0.10001776502E+04 0.  0.
        -13    1    1    2    0    0  0.39832840764E+03 -0.82104500710E+02 -0.86128925750E+02  0.41572210957E+03  0.10566000000E+00 0.  1.
         13    1    3    3    0    0 -0.32893206126E+03  0.13142471154E+03 -0.41848951583E+03  0.54827205086E+03  0.10566000000E+00 0. -1.
          2    1    1    2  502    0 -0.54954439012E+03 -0.14364451655E+04 -0.97606866169E+02  0.15410713321E+04  0.00000000000E+00 0.  1.
         -4    1    3    3    0  502  0.48014804373E+03  0.13871249547E+04 -0.14466872636E+04  0.20609613831E+04  0.00000000000E+00 0. -1.
</event>
<event>
 7    1  0.4894942E-006  0.1007313E+04  0.7818608E-02  0.9216289E-01
          2   -1    0    0  502    0  0.00000000000E+00  0.00000000000E+00  0.11526413207E+04  0.11526413207E+04  0.00000000000E+00 0.  1.
          4   -1    0    0  501    0 -0.00000000000E+00 -0.00000000000E+00 -0.61311007548E+03  0.61311007548E+03  0.00000000000E+00 0.  1.
    9000010    2    1    2  502    0  0.16477850353E+03 -0.15843510730E+03  0.28059018756E+03  0.10578339493E+04  0.99399606259E+03 0.  0.
        -13    1    3    3    0    0  0.26472417192E+03  0.34814342482E+03 -0.56802278087E+02  0.44103201858E+03  0.10566000000E+00 0.  1.
         13    1    1    2    0    0 -0.12504605041E+03  0.10054762981E+03 -0.19275315454E+03  0.25079898391E+03  0.10566000000E+00 0. -1.
          2    1    1    2  501    0 -0.39732453116E+02  0.57887477497E+02  0.45169421219E+03  0.45711846299E+03  0.00000000000E+00 0.  1.
          4    1    3    3  502    0 -0.99945668395E+02 -0.50657853213E+03  0.33739246565E+03  0.61680193070E+03  0.00000000000E+00 0.  1.
</event>
<event>
 7    1  0.4894942E-006  0.1066168E+04  0.7818608E-02  0.9039051E-01
         -4   -1    0    0    0  501 -0.00000000000E+00  0.00000000000E+00  0.11100453456E+04  0.11100453456E+04  0.00000000000E+00 0. -1.
          2   -1    0    0  501    0  0.00000000000E+00 -0.00000000000E+00 -0.17074028631E+04  0.17074028631E+04  0.00000000000E+00 0. -1.
   -9000010    2    1    2    0  502  0.27673284902E+03 -0.24873716118E+02  0.44376091587E+03  0.11551425542E+04  0.10296750937E+04 0.  0.
        -13    1    1    2    0    0 -0.27633736692E+03  0.68169338005E+01  0.24901563485E+03  0.37204516998E+03  0.10566000000E+00 0.  1.
         13    1    3    3    0    0  0.34167404662E+03  0.38118826443E+03  0.52796690803E+03  0.73538745856E+03  0.10566000000E+00 0. -1.
          2    1    1    2  502    0 -0.39548210674E+00  0.18056782318E+02 -0.12901340682E+04  0.12902604845E+04  0.00000000000E+00 0. -1.
         -4    1    3    3    0  502 -0.64941197598E+02 -0.40606198055E+03 -0.84205992156E+02  0.41975509563E+03  0.00000000000E+00 0. -1.
</event>
<event>
 7    1  0.4894942E-006  0.1018517E+04  0.7818608E-02  0.8890202E-01
          2   -1    0    0  502    0  0.00000000000E+00  0.00000000000E+00  0.70583999258E+03  0.70583999258E+03  0.00000000000E+00 0.  1.
          4   -1    0    0  501    0 -0.00000000000E+00 -0.00000000000E+00 -0.18585018626E+04  0.18585018626E+04  0.00000000000E+00 0.  1.
    9000010    2    1    2  502    0 -0.59235835720E+03 -0.20510646926E+03 -0.10472766714E+04  0.14792490082E+04  0.83572251057E+03 0.  0.
        -13    1    3    3    0    0 -0.22807277495E+03  0.31147411124E+03 -0.24244246851E+03  0.45586365763E+03  0.10566000000E+00 0.  1.
         13    1    1    2    0    0  0.49309021121E+03  0.25992506818E+03 -0.45374713585E+03  0.71873880646E+03  0.10566000000E+00 0. -1.
          2    1    1    2  501    0  0.99268145995E+02 -0.54818598917E+02  0.34836193732E+03  0.36635404047E+03  0.00000000000E+00 0.  1.
          4    1    3    3  502    0 -0.36428558225E+03 -0.51658058050E+03 -0.80483420293E+03  0.10233853506E+04  0.00000000000E+00 0.  1.
</event>
<event>
 7    1  0.4894942E-006  0.1298719E+04  0.7818608E-02  0.8633428E-01
          4   -1    0    0  501    0 -0.00000000000E+00  0.00000000000E+00  0.25105496292E+04  0.25105496292E+04  0.00000000000E+00 0.  1.
          2   -1    0    0  502    0  0.00000000000E+00 -0.00000000000E+00 -0.20029716204E+04  0.20029716204E+04  0.00000000000E+00 0.  1.
    9000010    2    1    2  502    0 -0.46396547251E+03 -0.70589880854E+03  0.14477154251E+04  0.19465757575E+04  0.98980813300E+03 0.  0.
        -13    1    3    3    0    0 -0.63636463895E+03 -0.83187792756E+03  0.98864553794E+03  0.14402780464E+04  0.10566000000E+00 0.  1.
         13    1    1    2    0    0  0.55613941520E+03  0.63122576928E+03  0.59297508709E+03  0.10292504486E+04  0.10566000000E+00 0. -1.
          2    1    1    2  501    0 -0.92173942683E+02  0.74673039265E+02 -0.15331125034E+04  0.15376950435E+04  0.00000000000E+00 0.  1.
          4    1    3    3  502    0  0.17239916643E+03  0.12597911901E+03  0.45906988715E+03  0.50629771113E+03  0.00000000000E+00 0.  1.
</event>
<event>
 7    1  0.4894942E-006  0.1006279E+04  0.7818608E-02  0.9128197E-01
          4   -1    0    0  501    0 -0.00000000000E+00  0.00000000000E+00  0.26947198774E+04  0.26947198774E+04  0.00000000000E+00 0.  1.
          2   -1    0    0  502    0  0.00000000000E+00 -0.00000000000E+00 -0.12765031505E+04  0.12765031505E+04  0.00000000000E+00 0.  1.
    9000010    2    1    2  502    0  0.20186641668E+03 -0.10774163473E+03  0.25459322677E+04  0.27374145644E+04  0.97944324774E+03 0.  0.
        -13    1    3    3    0    0 -0.35769685337E+03  0.10295995050E+03  0.64535524041E+03  0.74500415288E+03  0.10566000000E+00 0.  1.
         13    1    1    2    0    0 -0.19647296350E+03  0.13333710400E+03 -0.21379375707E+03  0.31951242607E+03  0.10566000000E+00 0. -1.
          2    1    1    2  501    0 -0.53934531800E+01 -0.25595469267E+02 -0.91392178375E+03  0.91429603750E+03  0.00000000000E+00 0.  1.
          4    1    3    3  502    0  0.55956327005E+03 -0.21070158523E+03  0.19005770273E+04  0.19924104115E+04  0.00000000000E+00 0.  1.
</event>
<event>
 7    1  0.4894942E-006  0.1006300E+04  0.7818608E-02  0.9281877E-01
         -4   -1    0    0    0  501 -0.00000000000E+00  0.00000000000E+00  0.17497666948E+04  0.17497666948E+04  0.00000000000E+00 0. -1.
          2   -1    0    0  501    0  0.00000000000E+00 -0.00000000000E+00 -0.37361712767E+03  0.37361712767E+03  0.00000000000E+00 0. -1.
   -9000010    2    1    2    0  502 -0.74762472396E+02 -0.25849551515E+02  0.13663623171E+04  0.16903681100E+04  0.99203867819E+03 0.  0.
        -13    1    1    2    0    0 -0.27335202719E+01 -0.12732106785E+03  0.16029024014E+03  0.20472200346E+03  0.10566000000E+00 0.  1.
         13    1    3    3    0    0 -0.31347203382E+03 -0.30082283748E+03  0.21885809343E+03  0.48647504742E+03  0.10566000000E+00 0. -1.
          2    1    1    2  502    0  0.77495992668E+02  0.15317061937E+03 -0.15050299017E+03  0.22829370899E+03  0.00000000000E+00 0. -1.
         -4    1    3    3    0  502  0.23870956142E+03  0.27497328597E+03  0.11475042237E+04  0.12038930626E+04  0.00000000000E+00 0. -1.
</event>
<event>
 7    1  0.4894942E-006  0.1053252E+04  0.7818608E-02  0.9051643E-01
          1   -1    0    0  501    0  0.00000000000E+00  0.00000000000E+00  0.12971122169E+04  0.12971122169E+04  0.00000000000E+00 0. -1.
         -4   -1    0    0    0  501 -0.00000000000E+00 -0.00000000000E+00 -0.20855001800E+04  0.20855001800E+04  0.00000000000E+00 0. -1.
   -9000010    2    1    2    0  502  0.26701420756E+03  0.11932399999E+03 -0.10356840782E+04  0.14809196982E+04  0.10173233698E+04 0.  0.
        -13    1    1    2    0    0 -0.25088448339E+03 -0.10193906902E+03 -0.80489754993E+03  0.84923181456E+03  0.10566000000E+00 0.  1.
         13    1    3    3    0    0  0.64214408999E+03  0.19159150407E+03 -0.73606211682E+03  0.99541136608E+03  0.10566000000E+00 0. -1.
          1    1    1    2  502    0 -0.16129724164E+02 -0.17384930962E+02  0.10521936650E+04  0.10524608841E+04  0.00000000000E+00 0. -1.
         -4    1    3    3    0  502 -0.37512988243E+03 -0.72267504080E+02 -0.29962196135E+03  0.48550833212E+03  0.00000000000E+00 0. -1.
</event>
<event>
 7    1  0.4894942E-006  0.1074352E+04  0.7818608E-02  0.8957009E-01
          1   -1    0    0  501    0  0.00000000000E+00  0.00000000000E+00  0.49541914305E+03  0.49541914305E+03  0.00000000000E+00 0.  1.
         -4   -1    0    0    0  501 -0.00000000000E+00 -0.00000000000E+00 -0.29213970124E+04  0.29213970124E+04  0.00000000000E+00 0. -1.
   -9000010    2    1    2    0  502  0.22363898117E+03  0.32103559296E+03 -0.11926962951E+04  0.16086913923E+04  0.10061238977E+04 0.  0.
        -13    1    1    2    0    0 -0.24582461178E+03 -0.28366394207E+03 -0.14957260053E+04  0.15421061137E+04  0.10566000000E+00 0.  1.
         13    1    3    3    0    0 -0.16222206800E+03  0.51205557816E+03 -0.10038925238E+04  0.11385592321E+04  0.10566000000E+00 0. -1.
          1    1    1    2  502    0  0.22185630613E+02 -0.37371650895E+02  0.26244443102E+03  0.26601864948E+03  0.00000000000E+00 0.  1.
         -4    1    3    3    0  502  0.38586104917E+03 -0.19101998519E+03 -0.18880377130E+03  0.47013216021E+03  0.00000000000E+00 0. -1.
</event>
<event>
 7    1  0.4894942E-006  0.1094445E+04  0.7818608E-02  0.8930397E-01
         -4   -1    0    0    0  501 -0.00000000000E+00  0.00000000000E+00  0.26085636640E+04  0.26085636640E+04  0.00000000000E+00 0. -1.
          2   -1    0    0  501    0  0.00000000000E+00 -0.00000000000E+00 -0.14519693943E+04  0.14519693943E+04  0.00000000000E+00 0. -1.
   -9000010    2    1    2    0  502 -0.29570161212E+03 -0.29189861628E+03  0.15277672865E+04  0.18832297744E+04  0.10197241077E+04 0.  0.
        -13    1    1    2    0    0  0.27414274723E+03  0.28177497904E+03  0.86015928335E+03  0.94574065609E+03  0.10566000000E+00 0.  1.
         13    1    3    3    0    0 -0.12945789724E+03  0.73869334892E+02 -0.11738720763E+03  0.18972557411E+03  0.10566000000E+00 0. -1.
          2    1    1    2  502    0  0.21558864885E+02  0.10123637239E+02 -0.12313323001E+04  0.12315626277E+04  0.00000000000E+00 0. -1.
         -4    1    3    3    0  502 -0.16624371488E+03 -0.36576795117E+03  0.16451544942E+04  0.16935042003E+04  0.00000000000E+00 0. -1.
</event>
<event>
 7    1  0.4894942E-006  0.1069467E+04  0.7818608E-02  0.8953222E-01
         -4   -1    0    0    0  501 -0.00000000000E+00  0.00000000000E+00  0.19116179450E+04  0.19116179450E+04  0.00000000000E+00 0. -1.
          2   -1    0    0  501    0  0.00000000000E+00 -0.00000000000E+00 -0.84973929383E+03  0.84973929383E+03  0.00000000000E+00 0.  1.
   -9000010    2    1    2    0  502 -0.41274859896E+03 -0.73779751156E+02  0.60168491809E+03  0.12373838947E+04  0.99663900419E+03 0.  0.
        -13    1    1    2    0    0  0.38209569587E+03  0.41372808714E+02  0.95381818526E+03  0.10283374795E+04  0.10566000000E+00 0.  1.
         13    1    3    3    0    0 -0.25017270176E+03 -0.41170819033E+03 -0.51195645710E+02  0.48446983394E+03  0.10566000000E+00 0. -1.
          2    1    1    2  502    0  0.30652903092E+02  0.32406942442E+02 -0.49362445222E+03  0.49563586454E+03  0.00000000000E+00 0.  1.
         -4    1    3    3    0  502 -0.16257589720E+03  0.33792843918E+03  0.65288056380E+03  0.75291406080E+03  0.00000000000E+00 0. -1.
</event>
<event>
 7    1  0.4894942E-006  0.1030751E+04  0.7818608E-02  0.9359982E-01
          4   -1    0    0  501    0 -0.00000000000E+00  0.00000000000E+00  0.16968620157E+04  0.16968620157E+04  0.00000000000E+00 0.  1.
          2   -1    0    0  502    0  0.00000000000E+00 -0.00000000000E+00 -0.40079692953E+03  0.40079692953E+03  0.00000000000E+00 0.  1.
    9000010    2    1    2  502    0  0.65887953600E+02 -0.35256807374E+02  0.12497134348E+04  0.16192673126E+04  0.10269657714E+04 0.  0.
        -13    1    3    3    0    0 -0.15569000399E+03  0.17284594600E+03 -0.87047512753E+02  0.24837950606E+03  0.10566000000E+00 0.  1.
         13    1    1    2    0    0 -0.62365548187E+02  0.63419559807E+02  0.25383922119E+03  0.26897186385E+03  0.10566000000E+00 0. -1.
          2    1    1    2  501    0 -0.35224054131E+01 -0.28162752433E+02 -0.20748756977E+03  0.20941976882E+03  0.00000000000E+00 0.  1.
          4    1    3    3  502    0  0.22157795759E+03 -0.20810275337E+03  0.13367609475E+04  0.13708878065E+04  0.00000000000E+00 0.  1.
</event>
<event>
 7    1  0.4894942E-006  0.1026897E+04  0.7818608E-02  0.9169269E-01
          4   -1    0    0  501    0 -0.00000000000E+00  0.00000000000E+00  0.16055550546E+04  0.16055550546E+04  0.00000000000E+00 0.  1.
          2   -1    0    0  502    0  0.00000000000E+00 -0.00000000000E+00 -0.26266334464E+03  0.26266334464E+03  0.00000000000E+00 0.  1.
    9000010    2    1    2  502    0  0.14082509886E+03  0.68588642354E+02  0.11673476152E+04  0.15516295575E+04  0.10101077757E+04 0.  0.
        -13    1    3    3    0    0 -0.37949083082E+03 -0.98518795205E+02  0.80650434605E+03  0.89675443408E+03  0.10566000000E+00 0.  1.
         13    1    1    2    0    0 -0.17961201405E+03 -0.64434168498E+02  0.19514233415E+03  0.27293365384E+03  0.10566000000E+00 0. -1.
          2    1    1    2  501    0  0.38786915184E+02 -0.41544738563E+01 -0.19598239408E+02  0.43655187898E+02  0.00000000000E+00 0.  1.
          4    1    3    3  502    0  0.52031592968E+03  0.16710743756E+03  0.36084326916E+03  0.65487512341E+03  0.00000000000E+00 0.  1.
</event>
<event>
 7    1  0.4894942E-006  0.1107125E+04  0.7818608E-02  0.8878320E-01
         -4   -1    0    0    0  501 -0.00000000000E+00  0.00000000000E+00  0.22056741175E+04  0.22056741175E+04  0.00000000000E+00 0. -1.
          2   -1    0    0  501    0  0.00000000000E+00 -0.00000000000E+00 -0.10929908850E+04  0.10929908850E+04  0.00000000000E+00 0.  1.
   -9000010    2    1    2    0  502 -0.30692796595E+03 -0.36814694895E+03  0.17208588019E+04  0.20469550953E+04  0.99946645452E+03 0.  0.
        -13    1    1    2    0    0  0.28757975048E+03  0.37572997650E+03  0.14760522716E+03  0.49564346296E+03  0.10566000000E+00 0.  1.
         13    1    3    3    0    0  0.91173456721E+01 -0.65558298991E+03  0.81965200834E+03  0.10496197448E+04  0.10566000000E+00 0. -1.
          2    1    1    2  502    0  0.19348215472E+02 -0.75830275501E+01 -0.75578079653E+03  0.75606644427E+03  0.00000000000E+00 0.  1.
         -4    1    3    3    0  502 -0.31604531162E+03  0.28743604096E+03  0.90120679357E+03  0.99733535053E+03  0.00000000000E+00 0. -1.
</event>
<event>
 7    1  0.4894942E-006  0.1060538E+04  0.7818608E-02  0.9121092E-01
         -4   -1    0    0    0  501 -0.00000000000E+00  0.00000000000E+00  0.24586307447E+04  0.24586307447E+04  0.00000000000E+00 0. -1.
          2   -1    0    0  501    0  0.00000000000E+00 -0.00000000000E+00 -0.42329611295E+03  0.42329611295E+03  0.00000000000E+00 0. -1.
   -9000010    2    1    2    0  502 -0.46343676364E+03  0.15796794341E+03  0.13256605723E+04  0.17373307605E+04  0.10105516876E+04 0.  0.
        -13    1    1    2    0    0  0.15472674975E+03 -0.13108059157E+03  0.79720486419E+03  0.82259230195E+03  0.10566000000E+00 0.  1.
         13    1    3    3    0    0 -0.64469728666E+03 -0.12856421757E+03  0.12136479421E+04  0.13802552982E+04  0.10566000000E+00 0. -1.
          2    1    1    2  502    0  0.30871001389E+03 -0.26887351837E+02 -0.87530804729E+02  0.32200379523E+03  0.00000000000E+00 0. -1.
         -4    1    3    3    0  502  0.18126052302E+03  0.28653216098E+03  0.11201263016E+03  0.35707546233E+03  0.00000000000E+00 0. -1.
</event>
<event>
 7    1  0.4894942E-006  0.1619165E+04  0.7818608E-02  0.8381049E-01
          2   -1    0    0  501    0  0.00000000000E+00  0.00000000000E+00  0.17374848553E+04  0.17374848553E+04  0.00000000000E+00 0. -1.
         -4   -1    0    0    0  501 -0.00000000000E+00 -0.00000000000E+00 -0.52559032514E+04  0.52559032514E+04  0.00000000000E+00 0. -1.
   -9000010    2    1    2    0  502  0.17796933068E+03 -0.13454826441E+04 -0.27019984168E+04  0.31482419690E+04  0.87671855397E+03 0.  0.
        -13    1    1    2    0    0 -0.15395042508E+03  0.13563165148E+04 -0.21307824785E+04  0.25305195520E+04  0.10566000000E+00 0.  1.
         13    1    3    3    0    0 -0.57693936398E+02 -0.10121580711E+04 -0.24895340980E+04  0.26880425197E+04  0.10566000000E+00 0. -1.
          2    1    1    2  502    0 -0.24018905599E+02 -0.10833870667E+02  0.13143624992E+04  0.13146265857E+04  0.00000000000E+00 0. -1.
         -4    1    3    3    0  502  0.23566326708E+03 -0.33332457304E+03 -0.21246431879E+03  0.46019944937E+03  0.00000000000E+00 0. -1.
</event>
<event>
 7    1  0.4894942E-006  0.9881351E+03  0.7818608E-02  0.9137202E-01
         -4   -1    0    0    0  501 -0.00000000000E+00  0.00000000000E+00  0.80088336392E+03  0.80088336392E+03  0.00000000000E+00 0. -1.
          2   -1    0    0  501    0  0.00000000000E+00 -0.00000000000E+00 -0.10163292623E+04  0.10163292623E+04  0.00000000000E+00 0. -1.
   -9000010    2    1    2    0  502  0.24370828944E+03  0.20790029926E+02 -0.59210143437E+02  0.99215448731E+03  0.95970762731E+03 0.  0.
        -13    1    1    2    0    0 -0.23399591577E+03 -0.16659368889E+02  0.29320092078E+03  0.37549755562E+03  0.10566000000E+00 0.  1.
         13    1    3    3    0    0  0.78764692058E+02 -0.46711095089E+03  0.25356208556E+00  0.47370517478E+03  0.10566000000E+00 0. -1.
          2    1    1    2  502    0 -0.97123736688E+01 -0.41306610369E+01 -0.44943667570E+03  0.44956058327E+03  0.00000000000E+00 0. -1.
         -4    1    3    3    0  502  0.16494359738E+03  0.48790098081E+03 -0.59463705523E+02  0.51844931254E+03  0.00000000000E+00 0. -1.
</event>
<event>
 7    1  0.4894942E-006  0.1012660E+04  0.7818608E-02  0.9186840E-01
          2   -1    0    0  501    0  0.00000000000E+00  0.00000000000E+00  0.14878621333E+04  0.14878621333E+04  0.00000000000E+00 0.  1.
         -4   -1    0    0    0  501 -0.00000000000E+00 -0.00000000000E+00 -0.43760594749E+03  0.43760594749E+03  0.00000000000E+00 0. -1.
   -9000010    2    1    2    0  502 -0.16043244643E+03  0.84904277548E+02  0.30208194489E+03  0.10569992578E+04  0.99651724685E+03 0.  0.
        -13    1    1    2    0    0  0.15390783862E+03 -0.93069838259E+02  0.74443964044E+02  0.19465747488E+03  0.10566000000E+00 0.  1.
         13    1    3    3    0    0  0.96627491652E+02 -0.29084923921E+03  0.47892122268E+03  0.56859097846E+03  0.10566000000E+00 0. -1.
          2    1    1    2  502    0  0.65246078084E+01  0.81655607103E+01  0.67373027689E+03  0.67381134814E+03  0.00000000000E+00 0.  1.
         -4    1    3    3    0  502 -0.25705993808E+03  0.37575351676E+03 -0.17683927779E+03  0.48840827930E+03  0.00000000000E+00 0. -1.
</event>
<event>
 6    1  0.4894942E-006  0.1655373E+04  0.7818608E-02  0.9166608E-01
          2   -1    0    0  501    0  0.00000000000E+00  0.00000000000E+00  0.74402245217E+03  0.74402245217E+03  0.00000000000E+00 0. -1.
         -4   -1    0    0    0  501 -0.00000000000E+00 -0.00000000000E+00 -0.17910269708E+04  0.17910269708E+04  0.00000000000E+00 0. -1.
        -13    1    1    2    0    0 -0.21597166682E+00  0.44607434984E+02 -0.21368023388E+03  0.21828679167E+03  0.10566000000E+00 0.  1.
         13    1    1    2    0    0 -0.33820429696E+03  0.42145604492E+03 -0.12674429753E+04  0.13778312854E+04  0.10566000000E+00 0. -1.
          2    1    1    2  502    0  0.21731898030E+02  0.62896539862E+02  0.30092257520E+03  0.30819254758E+03  0.00000000000E+00 0. -1.
         -4    1    1    2    0  502  0.31668837059E+03 -0.52896001976E+03  0.13319611533E+03  0.63073879833E+03  0.00000000000E+00 0. -1.
</event>
<event>
 7    1  0.4894942E-006  0.1059564E+04  0.7818608E-02  0.9038876E-01
         -4   -1    0    0    0  501 -0.00000000000E+00  0.00000000000E+00  0.48505617093E+03  0.48505617093E+03  0.00000000000E+00 0. -1.
          2   -1    0    0  501    0  0.00000000000E+00 -0.00000000000E+00 -0.15967171407E+04  0.15967171407E+04  0.00000000000E+00 0. -1.
   -9000010    2    1    2    0  502  0.74684386144E+01  0.27724877263E+03 -0.65999726752E+03  0.12472747218E+04  0.10213594759E+04 0.  0.
        -13    1    1    2    0    0  0.66250052217E+02 -0.27558175209E+03  0.82557894770E+02  0.29521210791E+03  0.10566000000E+00 0.  1.
         13    1    3    3    0    0 -0.40047169237E+03  0.37914044726E+03 -0.61240942495E+03  0.82411793456E+03  0.10566000000E+00 0. -1.
          2    1    1    2  502    0 -0.73718490831E+02 -0.16670205389E+01 -0.53422159699E+03  0.53928648188E+03  0.00000000000E+00 0. -1.
         -4    1    3    3    0  502  0.40794013098E+03 -0.10189167463E+03 -0.47587842573E+02  0.42315678724E+03  0.00000000000E+00 0. -1.
</event>
<event>
 7    1  0.4894942E-006  0.1002712E+04  0.7818608E-02  0.9339359E-01
         -4   -1    0    0    0  501 -0.00000000000E+00  0.00000000000E+00  0.11919121364E+04  0.11919121364E+04  0.00000000000E+00 0. -1.
          1   -1    0    0  501    0  0.00000000000E+00 -0.00000000000E+00 -0.44541427611E+03  0.44541427611E+03  0.00000000000E+00 0.  1.
   -9000010    2    1    2    0  502  0.41464102932E+02  0.12502177258E+03  0.72340342375E+03  0.12390990457E+04  0.99734859308E+03 0.  0.
        -13    1    1    2    0    0  0.81043318332E+01 -0.10234600940E+03  0.19364520501E+03  0.21917769599E+03  0.10566000000E+00 0.  1.
         13    1    3    3    0    0  0.10834948099E+03  0.33311453183E+03  0.89506621005E+03  0.96117034540E+03  0.10566000000E+00 0. -1.
          1    1    1    2  502    0 -0.49568434766E+02 -0.22675763180E+02 -0.17055076851E+03  0.17904967076E+03  0.00000000000E+00 0.  1.
         -4    1    3    3    0  502 -0.66885378053E+02 -0.20809275926E+03 -0.17166278630E+03  0.27792870030E+03  0.00000000000E+00 0. -1.
</event>
<event>
 7    1  0.4894942E-006  0.1737110E+04  0.7818608E-02  0.8540334E-01
          2   -1    0    0  501    0  0.00000000000E+00  0.00000000000E+00  0.26781500890E+04  0.26781500890E+04  0.00000000000E+00 0. -1.
         -4   -1    0    0    0  501 -0.00000000000E+00 -0.00000000000E+00 -0.15485849978E+04  0.15485849978E+04  0.00000000000E+00 0. -1.
   -9000010    2    1    2    0  502 -0.10634272413E+04 -0.29769872242E+03  0.70297364363E+02  0.15045704747E+04  0.10194550343E+04 0.  0.
        -13    1    1    2    0    0 -0.49545767317E+03  0.19256530003E+03 -0.33480718155E+03  0.62821617351E+03  0.10566000000E+00 0.  1.
         13    1    3    3    0    0 -0.38189793429E+02 -0.37362118953E+03 -0.22136709129E+03  0.43595258213E+03  0.10566000000E+00 0. -1.
          2    1    1    2  502    0  0.15588849145E+04  0.10513342239E+03  0.13940749084E+04  0.20939484386E+04  0.00000000000E+00 0. -1.
         -4    1    3    3    0  502 -0.10252374479E+04  0.75922467117E+02  0.29166445566E+03  0.10686178925E+04  0.00000000000E+00 0. -1.
</event>
<event>
 7    1  0.4894942E-006  0.1496942E+04  0.7818608E-02  0.8481346E-01
         -4   -1    0    0    0  501 -0.00000000000E+00  0.00000000000E+00  0.17219367042E+04  0.17219367042E+04  0.00000000000E+00 0. -1.
          1   -1    0    0  501    0  0.00000000000E+00 -0.00000000000E+00 -0.14559316353E+04  0.14559316353E+04  0.00000000000E+00 0.  1.
   -9000010    2    1    2    0  502 -0.88592511311E+03  0.65124108656E+03  0.55184259788E+03  0.16054242272E+04  0.10314448301E+04 0.  0.
        -13    1    1    2    0    0  0.85017861656E+03 -0.65386467838E+03  0.19512731604E+03  0.10901455767E+04  0.10566000000E+00 0.  1.
         13    1    3    3    0    0 -0.94111057717E+03  0.82828216055E+03  0.29379607533E+03  0.12876554667E+04  0.10566000000E+00 0. -1.
          1    1    1    2  502    0  0.35746496552E+02  0.26235918254E+01 -0.48096484509E+03  0.48229853562E+03  0.00000000000E+00 0.  1.
         -4    1    3    3    0  502  0.55185464061E+02 -0.17704107399E+03  0.25804652255E+03  0.31776876046E+03  0.00000000000E+00 0. -1.
</event>
<event>
 7    1  0.4894942E-006  0.1025039E+04  0.7818608E-02  0.9111282E-01
          4   -1    0    0  501    0 -0.00000000000E+00  0.00000000000E+00  0.17584895688E+04  0.17584895688E+04  0.00000000000E+00 0.  1.
          2   -1    0    0  502    0  0.00000000000E+00 -0.00000000000E+00 -0.61716577236E+03  0.61716577236E+03  0.00000000000E+00 0.  1.
    9000010    2    1    2  502    0 -0.22025508125E+03 -0.98418617730E+02  0.11815759393E+04  0.15654148726E+04  0.99809994393E+03 0.  0.
        -13    1    3    3    0    0 -0.22400635908E+03  0.42341266622E+03  0.74156718455E+03  0.88282446454E+03  0.10566000000E+00 0.  1.
         13    1    1    2    0    0  0.20062319471E+03  0.11700279027E+03  0.34945720429E+03  0.41959464723E+03  0.10566000000E+00 0. -1.
          2    1    1    2  501    0  0.19631886543E+02 -0.18584172542E+02 -0.38970934714E+03  0.39064582128E+03  0.00000000000E+00 0.  1.
          4    1    3    3  502    0  0.37512778250E+01 -0.52183128395E+03  0.44000875471E+03  0.68259040809E+03  0.00000000000E+00 0.  1.
</event>
<event>
 7    1  0.4894942E-006  0.1046354E+04  0.7818608E-02  0.9052087E-01
          2   -1    0    0  502    0  0.00000000000E+00  0.00000000000E+00  0.27092834343E+04  0.27092834343E+04  0.00000000000E+00 0.  1.
          4   -1    0    0  501    0 -0.00000000000E+00 -0.00000000000E+00 -0.41722976217E+03  0.41722976217E+03  0.00000000000E+00 0.  1.
    9000010    2    1    2  502    0 -0.19133211981E+03  0.14074339506E+03  0.17792326861E+04  0.20590854938E+04  0.10088346922E+04 0.  0.
        -13    1    3    3    0    0 -0.51063164715E+03  0.27742891747E+03  0.62366590469E+03  0.85244979627E+03  0.10566000000E+00 0.  1.
         13    1    1    2    0    0  0.21963119789E+03 -0.17232306420E+03 -0.20626034856E+03  0.34709716809E+03  0.10566000000E+00 0. -1.
          2    1    1    2  501    0 -0.28299078089E+02  0.31579669133E+02  0.71908133454E+03  0.72033053456E+03  0.00000000000E+00 0.  1.
          4    1    3    3  502    0  0.31929952735E+03 -0.13668552241E+03  0.11555667814E+04  0.12066356975E+04  0.00000000000E+00 0.  1.
</event>
<event>
 7    1  0.4894942E-006  0.1033150E+04  0.7818608E-02  0.9267945E-01
         -4   -1    0    0    0  501 -0.00000000000E+00  0.00000000000E+00  0.68247562300E+03  0.68247562300E+03  0.00000000000E+00 0. -1.
          2   -1    0    0  501    0  0.00000000000E+00 -0.00000000000E+00 -0.22737329462E+04  0.22737329462E+04  0.00000000000E+00 0.  1.
   -9000010    2    1    2    0  502  0.15659983162E+03 -0.20385329079E+03 -0.17763721461E+03  0.10458191445E+04  0.99804961381E+03 0.  0.
        -13    1    1    2    0    0 -0.10873375583E+03 -0.59801571217E+02  0.22126599181E+03  0.25368860415E+03  0.10566000000E+00 0.  1.
         13    1    3    3    0    0  0.27216576637E+03 -0.57778682987E+03 -0.12682535147E+03  0.65115014098E+03  0.10566000000E+00 0. -1.
          2    1    1    2  502    0 -0.47866075784E+02  0.26365486201E+03 -0.16348861004E+04  0.16567008205E+04  0.00000000000E+00 0.  1.
         -4    1    3    3    0  502 -0.11556593475E+03  0.37393353908E+03 -0.50811863132E+02  0.39466900355E+03  0.00000000000E+00 0. -1.
</event>
<event>
 7    1  0.4894942E-006  0.1042056E+04  0.7818608E-02  0.9173417E-01
         -4   -1    0    0    0  501 -0.00000000000E+00  0.00000000000E+00  0.17466863241E+04  0.17466863241E+04  0.00000000000E+00 0. -1.
          1   -1    0    0  501    0  0.00000000000E+00 -0.00000000000E+00 -0.45524016235E+03  0.45524016235E+03  0.00000000000E+00 0.  1.
   -9000010    2    1    2    0  502  0.12128314782E+02  0.18106013633E+03  0.13665882588E+04  0.17193167263E+04  0.10274028748E+04 0.  0.
        -13    1    1    2    0    0  0.11998883295E+02 -0.17248184136E+03  0.16625168103E+03  0.23986160887E+03  0.10566000000E+00 0.  1.
         13    1    3    3    0    0  0.31642552901E+02 -0.21446571619E+03  0.12997545522E+04  0.13177096424E+04  0.10566000000E+00 0. -1.
          1    1    1    2  502    0 -0.24127198076E+02 -0.85782949676E+01 -0.24139377811E+03  0.24274815127E+03  0.00000000000E+00 0.  1.
         -4    1    3    3    0  502 -0.19514238120E+02  0.39552585252E+03  0.66833706633E+02  0.40160708391E+03  0.00000000000E+00 0. -1.
</event>
<event>
 7    1  0.4894942E-006  0.1028967E+04  0.7818608E-02  0.9138802E-01
          4   -1    0    0  501    0  0.00000000000E+00  0.00000000000E+00  0.54868243961E+03  0.54868243961E+03  0.00000000000E+00 0.  1.
          4   -1    0    0  502    0 -0.00000000000E+00 -0.00000000000E+00 -0.14045208299E+04  0.14045208299E+04  0.00000000000E+00 0.  1.
    9000010    2    1    2  501    0 -0.53677638792E+02 -0.12493492823E+03 -0.51906845217E+03  0.11418445152E+04  0.10079121061E+04 0.  0.
        -13    1    3    3    0    0 -0.13683482892E+03  0.38871920697E+03 -0.46088976271E+03  0.61826028241E+03  0.10566000000E+00 0.  1.
         13    1    1    2    0    0  0.18220780163E+03  0.11103003138E+03 -0.53427409460E+03  0.57530528432E+03  0.10566000000E+00 0. -1.
          4    1    3    3  501    0  0.83157190124E+02 -0.51365413520E+03 -0.58178689457E+02  0.52358423275E+03  0.00000000000E+00 0.  1.
          4    1    1    2  502    0 -0.12853016284E+03  0.13904896851E+02  0.19750415645E+03  0.23605347007E+03  0.00000000000E+00 0.  1.
</event>
<event>
 7    1  0.4894942E-006  0.1203398E+04  0.7818608E-02  0.8740832E-01
          1   -1    0    0  501    0  0.00000000000E+00  0.00000000000E+00  0.12503685525E+04  0.12503685525E+04  0.00000000000E+00 0. -1.
         -4   -1    0    0    0  501 -0.00000000000E+00 -0.00000000000E+00 -0.22887562263E+04  0.22887562263E+04  0.00000000000E+00 0. -1.
   -9000010    2    1    2    0  502 -0.55040493955E+02 -0.25508852048E+03  0.15279166611E+03  0.10489166444E+04  0.10043810156E+04 0.  0.
        -13    1    1    2    0    0  0.40347283118E+03  0.58926054363E+03 -0.16662739154E+04  0.18128670900E+04  0.10566000000E+00 0.  1.
         13    1    3    3    0    0  0.14045103081E+03  0.18719046279E+03  0.43143736996E+03  0.49082071755E+03  0.10566000000E+00 0. -1.
          1    1    1    2  502    0 -0.34843233723E+03 -0.33417202315E+03  0.47509457547E+03  0.67734104432E+03  0.00000000000E+00 0. -1.
         -4    1    3    3    0  502 -0.19549152477E+03 -0.44227898327E+03 -0.27864570385E+03  0.55809592685E+03  0.00000000000E+00 0. -1.
</event>
<event>
 7    1  0.4894942E-006  0.1016812E+04  0.7818608E-02  0.9248069E-01
          4   -1    0    0  501    0 -0.00000000000E+00  0.00000000000E+00  0.17984271532E+04  0.17984271532E+04  0.00000000000E+00 0.  1.
          2   -1    0    0  502    0  0.00000000000E+00 -0.00000000000E+00 -0.34508773590E+04  0.34508773590E+04  0.00000000000E+00 0.  1.
    9000010    2    1    2  502    0  0.12464739683E+03  0.28967779458E+02  0.11307949703E+04  0.15196221011E+04  0.10070640296E+04 0.  0.
        -13    1    3    3    0    0  0.22617052599E+03  0.41337752827E+03  0.99248302601E+03  0.10986613017E+04  0.10566000000E+00 0.  1.
         13    1    1    2    0    0 -0.12520702281E+03  0.68854932437E+02  0.46167801290E+03  0.48328500809E+03  0.10566000000E+00 0. -1.
          2    1    1    2  501    0  0.55962598767E+00 -0.97822711895E+02 -0.32449231889E+04  0.32463974030E+04  0.00000000000E+00 0.  1.
          4    1    3    3  502    0 -0.10152312917E+03 -0.38440974882E+03  0.13831194426E+03  0.42096079944E+03  0.00000000000E+00 0.  1.
</event>
<event>
 7    1  0.4894942E-006  0.1023779E+04  0.7818608E-02  0.9179420E-01
          1   -1    0    0  501    0  0.00000000000E+00  0.00000000000E+00  0.58329790997E+03  0.58329790997E+03  0.00000000000E+00 0. -1.
         -4   -1    0    0    0  501 -0.00000000000E+00 -0.00000000000E+00 -0.32014256505E+04  0.32014256505E+04  0.00000000000E+00 0. -1.
   -9000010    2    1    2    0  502 -0.11265259753E+03 -0.14103801028E+03 -0.21757467822E+04  0.24046621474E+04  0.10079403034E+04 0.  0.
        -13    1    1    2    0    0  0.17702940631E+03  0.42812105071E+02 -0.89454306585E+03  0.91289626731E+03  0.10566000000E+00 0.  1.
         13    1    3    3    0    0  0.27650755000E+03 -0.42568394901E+03 -0.14221474310E+04  0.15100220449E+04  0.10566000000E+00 0. -1.
          1    1    1    2  502    0 -0.64376808779E+02  0.98225905207E+02  0.45216210747E+03  0.46716514574E+03  0.00000000000E+00 0. -1.
         -4    1    3    3    0  502 -0.38916014752E+03  0.28464593874E+03 -0.75359935120E+03  0.89464010249E+03  0.00000000000E+00 0. -1.
</event>
<event>
 7    1  0.4894942E-006  0.1333508E+04  0.7818608E-02  0.8608249E-01
          4   -1    0    0  501    0 -0.00000000000E+00  0.00000000000E+00  0.26233573187E+04  0.26233573187E+04  0.00000000000E+00 0.  1.
          2   -1    0    0  502    0  0.00000000000E+00 -0.00000000000E+00 -0.10329787986E+04  0.10329787986E+04  0.00000000000E+00 0.  1.
    9000010    2    1    2  502    0 -0.58689540601E+02 -0.87273415449E+03  0.21637793370E+04  0.25440024605E+04  0.10123725271E+04 0.  0.
        -13    1    3    3    0    0  0.14888251411E+03 -0.93476851219E+03  0.21217598672E+04  0.23233215704E+04  0.10566000000E+00 0.  1.
         13    1    1    2    0    0  0.83200534141E+02  0.84046911175E+03 -0.40045712135E+03  0.93470667800E+03  0.10566000000E+00 0. -1.
          2    1    1    2  501    0 -0.24510993540E+02  0.32265042745E+02 -0.17294369544E+03  0.17762697875E+03  0.00000000000E+00 0.  1.
          4    1    3    3  502    0 -0.20757205471E+03  0.62034357696E+02  0.42019469781E+02  0.22068089014E+03  0.00000000000E+00 0.  1.
</event>
<event>
 7    1  0.4894942E-006  0.1495222E+04  0.7818608E-02  0.8600673E-01
          2   -1    0    0  502    0  0.00000000000E+00  0.00000000000E+00  0.18221847620E+04  0.18221847620E+04  0.00000000000E+00 0. -1.
          4   -1    0    0  501    0 -0.00000000000E+00 -0.00000000000E+00 -0.17119966365E+04  0.17119966365E+04  0.00000000000E+00 0.  1.
    9000010    2    1    2  502    0 -0.59645534393E+03 -0.12762733550E+04 -0.19892831560E+03  0.17487657577E+04  0.10168463732E+04 0.  0.
        -13    1    3    3    0    0 -0.31174322419E+03 -0.13602166011E+04 -0.31406627233E+03  0.14303882950E+04  0.10566000000E+00 0.  1.
         13    1    1    2    0    0 -0.17802517893E+03  0.61130995184E+03 -0.16820370856E+03  0.65854788762E+03  0.10566000000E+00 0. -1.
          2    1    1    2  501    0  0.77448052286E+03  0.66496340312E+03  0.47732014964E+03  0.11268677531E+04  0.00000000000E+00 0. -1.
          4    1    3    3  502    0 -0.28471211974E+03  0.83943246177E+02  0.11513795674E+03  0.31837746275E+03  0.00000000000E+00 0.  1.
</event>
<event>
 7    1  0.4894942E-006  0.1083269E+04  0.7818608E-02  0.9252595E-01
          4   -1    0    0  501    0 -0.00000000000E+00  0.00000000000E+00  0.33930138861E+04  0.33930138861E+04  0.00000000000E+00 0.  1.
          2   -1    0    0  502    0  0.00000000000E+00 -0.00000000000E+00 -0.23997343677E+04  0.23997343677E+04  0.00000000000E+00 0. -1.
    9000010    2    1    2  502    0 -0.24942882182E+03 -0.95328833274E+02  0.26325706803E+04  0.28544620592E+04  0.10706180165E+04 0.  0.
        -13    1    3    3    0    0  0.34043059090E+03 -0.79289597566E+02  0.18021915952E+04  0.18357762348E+04  0.10566000000E+00 0.  1.
         13    1    1    2    0    0  0.85656053327E+02  0.75470837433E+02  0.64147860268E+03  0.65155783752E+03  0.10566000000E+00 0. -1.
          2    1    1    2  501    0  0.16377276849E+03  0.19857995842E+02 -0.22807697646E+04  0.22867283570E+04  0.00000000000E+00 0. -1.
          4    1    3    3  502    0 -0.58985941272E+03 -0.16039235709E+02  0.83037908509E+03  0.10186858244E+04  0.00000000000E+00 0.  1.
</event>
<event>
 7    1  0.4894942E-006  0.1375296E+04  0.7818608E-02  0.8568242E-01
         -4   -1    0    0    0  501 -0.00000000000E+00  0.00000000000E+00  0.20615217398E+04  0.20615217398E+04  0.00000000000E+00 0. -1.
          2   -1    0    0  501    0  0.00000000000E+00 -0.00000000000E+00 -0.10066749805E+04  0.10066749805E+04  0.00000000000E+00 0.  1.
   -9000010    2    1    2    0  502  0.35085761169E+03  0.85105785061E+03  0.11362594811E+04  0.17710060785E+04  0.99898768404E+03 0.  0.
        -13    1    1    2    0    0 -0.37384998763E+03 -0.90137238578E+03  0.21201640889E+03  0.99859248941E+03  0.10566000000E+00 0.  1.
         13    1    3    3    0    0  0.16689776342E+03  0.98362411344E+03  0.54297407441E+03  0.11358662406E+04  0.10566000000E+00 0. -1.
          2    1    1    2  502    0  0.22992375947E+02  0.50314535168E+02 -0.29342913081E+03  0.29859815238E+03  0.00000000000E+00 0.  1.
         -4    1    3    3    0  502  0.18395984827E+03 -0.13256626283E+03  0.59328540673E+03  0.63513983787E+03  0.00000000000E+00 0. -1.
</event>
<event>
 7    1  0.4894942E-006  0.1211787E+04  0.7818608E-02  0.8948578E-01
         -4   -1    0    0    0  501 -0.00000000000E+00  0.00000000000E+00  0.89046407492E+03  0.89046407492E+03  0.00000000000E+00 0. -1.
          4   -1    0    0  501    0  0.00000000000E+00 -0.00000000000E+00 -0.13907634199E+04  0.13907634199E+04  0.00000000000E+00 0. -1.
   -9000010    2    1    2    0  502 -0.38857398274E+03  0.43936263791E+03 -0.33162771902E+02  0.11773508028E+04  0.10203067557E+04 0.  0.
        -13    1    1    2    0    0  0.17036662867E+03  0.21173980683E+03  0.27890328595E+01  0.27178359743E+03  0.10566000000E+00 0.  1.
         13    1    3    3    0    0 -0.11057704700E+03 -0.21082861628E+03 -0.33294400208E+03  0.40930148845E+03  0.10566000000E+00 0. -1.
          4    1    1    2  502    0  0.21820735408E+03 -0.65110244475E+03 -0.46992560592E+03  0.83209309457E+03  0.00000000000E+00 0. -1.
         -4    1    3    3    0  502 -0.27799693575E+03  0.65019125419E+03  0.29978123018E+03  0.76804931436E+03  0.00000000000E+00 0. -1.
</event>
<event>
 7    1  0.4894942E-006  0.1014857E+04  0.7818608E-02  0.9250361E-01
         -4   -1    0    0    0  501 -0.00000000000E+00  0.00000000000E+00  0.12136550573E+03  0.12136550573E+03  0.00000000000E+00 0. -1.
          1   -1    0    0  501    0  0.00000000000E+00 -0.00000000000E+00 -0.55511689771E+04  0.55511689771E+04  0.00000000000E+00 0. -1.
   -9000010    2    1    2    0  502  0.36206019579E+02  0.11760299487E+03 -0.36430639452E+04  0.37811878302E+04  0.10051493215E+04 0.  0.
        -13    1    1    2    0    0 -0.12885149810E+03 -0.58646528656E+02 -0.48508471982E+02  0.14965028200E+03  0.10566000000E+00 0.  1.
         13    1    3    3    0    0  0.31359308125E+03 -0.75177341223E+00 -0.33301201083E+03  0.45742561832E+03  0.10566000000E+00 0. -1.
          1    1    1    2  502    0  0.92645478518E+02 -0.58956466216E+02 -0.17382310542E+04  0.17416963706E+04  0.00000000000E+00 0. -1.
         -4    1    3    3    0  502 -0.27738706167E+03  0.11835476828E+03 -0.33100519344E+04  0.33237622119E+04  0.00000000000E+00 0. -1.
</event>
<event>
 7    1  0.4894942E-006  0.1028653E+04  0.7818608E-02  0.9117933E-01
          4   -1    0    0  501    0 -0.00000000000E+00  0.00000000000E+00  0.26958029342E+03  0.26958029342E+03  0.00000000000E+00 0.  1.
          2   -1    0    0  502    0  0.00000000000E+00 -0.00000000000E+00 -0.40586561529E+04  0.40586561529E+04  0.00000000000E+00 0.  1.
    9000010    2    1    2  502    0  0.10215184118E+03 -0.20908704432E+03 -0.10163476195E+04  0.14472763389E+04  0.10037399697E+04 0.  0.
        -13    1    3    3    0    0 -0.91072626912E+02 -0.29575664286E+02  0.18982318289E+03  0.21260713821E+03  0.10566000000E+00 0.  1.
         13    1    1    2    0    0 -0.57261514408E+02  0.21683918210E+03 -0.17930900298E+03  0.28714080455E+03  0.10566000000E+00 0. -1.
          2    1    1    2  501    0 -0.44890326770E+02 -0.77521377749E+01 -0.25934192370E+04  0.25938193029E+04  0.00000000000E+00 0.  1.
          4    1    3    3  502    0  0.19322446809E+03 -0.17951138003E+03 -0.12061708024E+04  0.12346692007E+04  0.00000000000E+00 0.  1.
</event>
<event>
 7    1  0.4894942E-006  0.1150788E+04  0.7818608E-02  0.9081889E-01
         -4   -1    0    0    0  501 -0.00000000000E+00  0.00000000000E+00  0.80498091059E+03  0.80498091059E+03  0.00000000000E+00 0. -1.
          2   -1    0    0  501    0  0.00000000000E+00 -0.00000000000E+00 -0.11146467387E+04  0.11146467387E+04  0.00000000000E+00 0. -1.
   -9000010    2    1    2    0  502  0.56421982947E+03  0.14007977267E+03 -0.26569255320E+03  0.12220919139E+04  0.10416092139E+04 0.  0.
        -13    1    1    2    0    0 -0.10234794961E+03 -0.15453915496E+03  0.10372669196E+03  0.21240689959E+03  0.10566000000E+00 0.  1.
         13    1    3    3    0    0 -0.20119370858E+03 -0.23506480423E+01 -0.38504217025E+03  0.43444437844E+03  0.10566000000E+00 0. -1.
          2    1    1    2  502    0 -0.46187187987E+03  0.14459382283E+02 -0.14769996688E+03  0.48512883584E+03  0.00000000000E+00 0. -1.
         -4    1    3    3    0  502  0.76541353805E+03  0.14243042072E+03  0.11934961705E+03  0.78764753543E+03  0.00000000000E+00 0. -1.
</event>
<event>
 7    1  0.4894942E-006  0.1022795E+04  0.7818608E-02  0.9150929E-01
          2   -1    0    0  502    0  0.00000000000E+00  0.00000000000E+00  0.35626990367E+03  0.35626990367E+03  0.00000000000E+00 0. -1.
          4   -1    0    0  501    0 -0.00000000000E+00 -0.00000000000E+00 -0.27820584046E+04  0.27820584046E+04  0.00000000000E+00 0.  1.
    9000010    2    1    2  502    0  0.15737553628E+03 -0.90449250484E+02 -0.17553563947E+04  0.20297547188E+04  0.10028359886E+04 0.  0.
        -13    1    3    3    0    0  0.28409748197E+02 -0.28291649084E+03 -0.26642149257E+02  0.28558478577E+03  0.10566000000E+00 0.  1.
         13    1    1    2    0    0 -0.13641530291E+03  0.15093234884E+03 -0.87286524520E+03  0.89626081931E+03  0.10566000000E+00 0. -1.
          2    1    1    2  501    0 -0.20960233367E+02 -0.60483098359E+02  0.20243313899E+03  0.21231277007E+03  0.00000000000E+00 0. -1.
          4    1    3    3  502    0  0.12896578808E+03  0.19246724036E+03 -0.17287142454E+04  0.17441699331E+04  0.00000000000E+00 0.  1.
</event>
<event>
 7    1  0.4894942E-006  0.1122929E+04  0.7818608E-02  0.8838595E-01
          1   -1    0    0  501    0  0.00000000000E+00  0.00000000000E+00  0.39751635836E+03  0.39751635836E+03  0.00000000000E+00 0. -1.
         -4   -1    0    0    0  501 -0.00000000000E+00 -0.00000000000E+00 -0.22066562257E+04  0.22066562257E+04  0.00000000000E+00 0. -1.
   -9000010    2    1    2    0  502 -0.41849714947E+03  0.26824323277E+03 -0.11111469950E+04  0.15660107198E+04  0.98521451170E+03 0.  0.
        -13    1    1    2    0    0  0.45786159949E+03 -0.31438859527E+03 -0.76655751069E+03  0.94661917447E+03  0.10566000000E+00 0.  1.
         13    1    3    3    0    0 -0.38001184721E+03  0.52354323604E+03 -0.29687566540E+03  0.71178767613E+03  0.10566000000E+00 0. -1.
          1    1    1    2  502    0 -0.39364450015E+02  0.46145362505E+02  0.68564638388E+02  0.91542689730E+02  0.00000000000E+00 0. -1.
         -4    1    3    3    0  502 -0.38485302261E+02 -0.25530000327E+03 -0.81427132961E+03  0.85422304370E+03  0.00000000000E+00 0. -1.
</event>
<event>
 7    1  0.4894942E-006  0.1285648E+04  0.7818608E-02  0.8647882E-01
          4   -1    0    0  501    0 -0.00000000000E+00  0.00000000000E+00  0.12156625944E+04  0.12156625944E+04  0.00000000000E+00 0.  1.
          2   -1    0    0  502    0  0.00000000000E+00 -0.00000000000E+00 -0.19194375514E+04  0.19194375514E+04  0.00000000000E+00 0. -1.
    9000010    2    1    2  502    0 -0.44739338234E+03 -0.61853849764E+03  0.11674513924E+03  0.12600131953E+04  0.99561695099E+03 0.  0.
        -13    1    3    3    0    0 -0.26962265688E+03  0.21991263696E+03  0.19587139518E+03  0.39927879935E+03  0.10566000000E+00 0.  1.
         13    1    1    2    0    0  0.56708274019E+03  0.62647248906E+03  0.18285017246E+03  0.86457203893E+03  0.10566000000E+00 0. -1.
          2    1    1    2  501    0 -0.11968935785E+03 -0.79339914243E+01 -0.10033702687E+04  0.10105149117E+04  0.00000000000E+00 0. -1.
          4    1    3    3  502    0 -0.17777072546E+03 -0.83845113460E+03 -0.79126255941E+02  0.86073439592E+03  0.00000000000E+00 0.  1.
</event>
<event>
 7    1  0.4894942E-006  0.1508134E+04  0.7818608E-02  0.8468349E-01
         -4   -1    0    0    0  501 -0.00000000000E+00  0.00000000000E+00  0.29495016056E+04  0.29495016056E+04  0.00000000000E+00 0. -1.
          2   -1    0    0  501    0  0.00000000000E+00 -0.00000000000E+00 -0.24593362565E+04  0.24593362565E+04  0.00000000000E+00 0. -1.
   -9000010    2    1    2    0  502  0.52367510413E+03  0.10139116984E+04 -0.47983766095E+03  0.15936384503E+04  0.10035869582E+04 0.  0.
        -13    1    1    2    0    0 -0.50596356501E+03 -0.10034333079E+04  0.22605581107E+04  0.25244802466E+04  0.10566000000E+00 0.  1.
         13    1    3    3    0    0  0.37183837886E+03  0.10461090127E+04 -0.70867504624E+03  0.13171287632E+04  0.10566000000E+00 0. -1.
          2    1    1    2  502    0 -0.17711539121E+02 -0.10478390569E+02 -0.12905551007E+04  0.12907191651E+04  0.00000000000E+00 0. -1.
         -4    1    3    3    0  502  0.15183672527E+03 -0.32197314286E+02  0.22883738529E+03  0.27650968716E+03  0.00000000000E+00 0. -1.
</event>
<event>
 7    1  0.4894942E-006  0.1025352E+04  0.7818608E-02  0.9058370E-01
          2   -1    0    0  501    0  0.00000000000E+00  0.00000000000E+00  0.11762817808E+04  0.11762817808E+04  0.00000000000E+00 0. -1.
         -4   -1    0    0    0  501 -0.00000000000E+00 -0.00000000000E+00 -0.16609706185E+04  0.16609706185E+04  0.00000000000E+00 0. -1.
   -9000010    2    1    2    0  502 -0.16227554030E+03 -0.24546307365E+03 -0.10697991625E+04  0.14830992277E+04  0.98413799816E+03 0.  0.
        -13    1    1    2    0    0  0.16628445745E+03  0.23288423214E+03 -0.33122864388E+03  0.43771910178E+03  0.10566000000E+00 0.  1.
         13    1    3    3    0    0 -0.33614762095E+03  0.15077490831E+03 -0.45574464931E+02  0.37122141515E+03  0.10566000000E+00 0. -1.
          2    1    1    2  502    0 -0.40089171576E+01  0.12578841516E+02  0.91633896880E+03  0.91643406987E+03  0.00000000000E+00 0. -1.
         -4    1    3    3    0  502  0.17387208065E+03 -0.39623798197E+03 -0.10242246976E+04  0.11118778125E+04  0.00000000000E+00 0. -1.
</event>
<event>
 7    1  0.4894942E-006  0.1168204E+04  0.7818608E-02  0.8881805E-01
         -4   -1    0    0    0  501  0.00000000000E+00  0.00000000000E+00  0.20767144907E+04  0.20767144907E+04  0.00000000000E+00 0.  1.
         -4   -1    0    0    0  502 -0.00000000000E+00 -0.00000000000E+00 -0.19280673302E+04  0.19280673302E+04  0.00000000000E+00 0. -1.
   -9000010    2    1    2    0  501 -0.12799206811E+03 -0.24029926460E+03 -0.59576297417E+03  0.12001843515E+04  0.10056755193E+04 0.  0.
        -13    1    1    2    0    0  0.13597402026E+03 -0.37568699195E+03 -0.93445041095E+03  0.10162810791E+04  0.10566000000E+00 0.  1.
         13    1    3    3    0    0 -0.13949690410E+03  0.21613802961E+03  0.17020741093E+03  0.30845681707E+03  0.10566000000E+00 0. -1.
         -4    1    1    2    0  502 -0.79819521507E+01  0.61598625655E+03  0.16788605457E+04  0.17883163902E+04  0.00000000000E+00 0.  1.
         -4    1    3    3    0  501  0.11504835993E+02 -0.45643729421E+03 -0.76597038510E+03  0.89172753442E+03  0.00000000000E+00 0. -1.
</event>
<event>
 7    1  0.4894942E-006  0.1197035E+04  0.7818608E-02  0.8884750E-01
          1   -1    0    0  501    0  0.00000000000E+00  0.00000000000E+00  0.63881518034E+03  0.63881518034E+03  0.00000000000E+00 0. -1.
         -4   -1    0    0    0  501 -0.00000000000E+00 -0.00000000000E+00 -0.14575459179E+04  0.14575459179E+04  0.00000000000E+00 0. -1.
   -9000010    2    1    2    0  502 -0.20225539822E+02  0.36187357601E+03 -0.79544360256E+03  0.14361104343E+04  0.11394389397E+04 0.  0.
        -13    1    1    2    0    0  0.77598686173E+01 -0.36817539751E+03 -0.24228217439E+03  0.44081061930E+03  0.10566000000E+00 0.  1.
         13    1    3    3    0    0 -0.46100952316E+03  0.43670513315E+03 -0.75596303420E+03  0.98727973442E+03  0.10566000000E+00 0. -1.
          1    1    1    2  502    0  0.12465671205E+02  0.63018215028E+01  0.21899503937E+03  0.21944004462E+03  0.00000000000E+00 0. -1.
         -4    1    3    3    0  502  0.44078398334E+03 -0.74831557135E+02 -0.39480568368E+02  0.44883069992E+03  0.00000000000E+00 0. -1.
</event>
<event>
 7    1  0.4894942E-006  0.1044744E+04  0.7818608E-02  0.9261333E-01
          4   -1    0    0  501    0 -0.00000000000E+00  0.00000000000E+00  0.11583493701E+04  0.11583493701E+04  0.00000000000E+00 0.  1.
          2   -1    0    0  502    0  0.00000000000E+00 -0.00000000000E+00 -0.12494947804E+04  0.12494947804E+04  0.00000000000E+00 0. -1.
    9000010    2    1    2  502    0 -0.96901013785E+01  0.29793437131E+02  0.33836351315E+03  0.10904745307E+04  0.10361772474E+04 0.  0.
        -13    1    3    3    0    0  0.22257216675E+03 -0.38140659304E+03 -0.92517570874E+02  0.45118607105E+03  0.10566000000E+00 0.  1.
         13    1    1    2    0    0  0.10379199091E+03  0.66146379994E+02  0.43007743376E+03  0.44734185044E+03  0.10566000000E+00 0. -1.
          2    1    1    2  501    0 -0.94101889532E+02 -0.95939817125E+02 -0.85958635718E+03  0.87002776942E+03  0.00000000000E+00 0. -1.
          4    1    3    3  502    0 -0.23226226813E+03  0.41120003017E+03  0.43088108403E+03  0.63928845960E+03  0.00000000000E+00 0.  1.
</event>
<event>
 7    1  0.4894942E-006  0.1147996E+04  0.7818608E-02  0.8813554E-01
         -4   -1    0    0    0  501 -0.00000000000E+00  0.00000000000E+00  0.31925927333E+04  0.31925927333E+04  0.00000000000E+00 0. -1.
          2   -1    0    0  501    0  0.00000000000E+00 -0.00000000000E+00 -0.15770620603E+04  0.15770620603E+04  0.00000000000E+00 0.  1.
   -9000010    2    1    2    0  502  0.38479119619E+03  0.44350499249E+03  0.14574447273E+04  0.18635507258E+04  0.10019557034E+04 0.  0.
        -13    1    1    2    0    0 -0.50052404310E+03 -0.25588879862E+03  0.14710314145E+04  0.15747815177E+04  0.10566000000E+00 0.  1.
         13    1    3    3    0    0 -0.25352523261E+03  0.13195884384E+03  0.94614822791E+03  0.98837475705E+03  0.10566000000E+00 0. -1.
          2    1    1    2  502    0  0.11573284691E+03 -0.18761619388E+03 -0.13129454688E+04  0.13313225500E+04  0.00000000000E+00 0.  1.
         -4    1    3    3    0  502  0.63831642879E+03  0.31154614866E+03  0.51129649941E+03  0.87517596877E+03  0.00000000000E+00 0. -1.
</event>
<event>
 7    1  0.4894942E-006  0.1632467E+04  0.7818608E-02  0.8444174E-01
         -4   -1    0    0    0  501 -0.00000000000E+00  0.00000000000E+00  0.36750573580E+04  0.36750573580E+04  0.00000000000E+00 0. -1.
          2   -1    0    0  501    0  0.00000000000E+00 -0.00000000000E+00 -0.20436747191E+04  0.20436747191E+04  0.00000000000E+00 0.  1.
   -9000010    2    1    2    0  502  0.86675618779E+03  0.59303828455E+03  0.56771571855E+03  0.15529590223E+04  0.99318673567E+03 0.  0.
        -13    1    1    2    0    0 -0.54112648621E+03  0.83095447795E+03  0.21351498624E+04  0.23541809966E+04  0.10566000000E+00 0.  1.
         13    1    3    3    0    0  0.68686601677E+03  0.55274988913E+03 -0.74510307718E+02  0.88479893876E+03  0.10566000000E+00 0. -1.
          2    1    1    2  502    0 -0.32562970158E+03 -0.14239927625E+04 -0.10714829421E+04  0.18115920582E+04  0.00000000000E+00 0.  1.
         -4    1    3    3    0  502  0.17989017102E+03  0.40288395421E+02  0.64222602627E+03  0.66816008356E+03  0.00000000000E+00 0. -1.
</event>
<event>
 7    1  0.4894942E-006  0.1031474E+04  0.7818608E-02  0.9026293E-01
          2   -1    0    0  501    0  0.00000000000E+00  0.00000000000E+00  0.16384913789E+04  0.16384913789E+04  0.00000000000E+00 0. -1.
         -4   -1    0    0    0  501 -0.00000000000E+00 -0.00000000000E+00 -0.61220102796E+03  0.61220102796E+03  0.00000000000E+00 0. -1.
   -9000010    2    1    2    0  502  0.11207621874E+03  0.17679835240E+03  0.12642034717E+02  0.10022851115E+04  0.98010044763E+03 0.  0.
        -13    1    1    2    0    0 -0.30900660397E+03 -0.33834904459E+03  0.52120662974E+03  0.69398956716E+03  0.10566000000E+00 0.  1.
         13    1    3    3    0    0  0.45633939197E+03  0.36215668900E+03 -0.10924008100E+03  0.59273646295E+03  0.10566000000E+00 0. -1.
          2    1    1    2  502    0  0.19693038523E+03  0.16155069219E+03  0.49244168647E+03  0.55441772820E+03  0.00000000000E+00 0. -1.
         -4    1    3    3    0  502 -0.34426317323E+03 -0.18535833659E+03  0.12188211571E+03  0.40954864853E+03  0.00000000000E+00 0. -1.
</event>
<event>
 7    1  0.4894942E-006  0.1030446E+04  0.7818608E-02  0.9166291E-01
          3   -1    0    0  501    0  0.00000000000E+00  0.00000000000E+00  0.56744063481E+03  0.56744063481E+03  0.00000000000E+00 0. -1.
         -4   -1    0    0    0  501 -0.00000000000E+00 -0.00000000000E+00 -0.12293058238E+04  0.12293058238E+04  0.00000000000E+00 0. -1.
   -9000010    2    1    2    0  502  0.17688866021E+03  0.10988584735E+03 -0.21618553447E+03  0.10571820104E+04  0.10136730835E+04 0.  0.
        -13    1    1    2    0    0 -0.17156393834E+03 -0.67826135098E+02 -0.57479058033E+03  0.60367109584E+03  0.10566000000E+00 0.  1.
         13    1    3    3    0    0  0.13613906547E+03 -0.68777643665E+02  0.39271980015E+03  0.42129925470E+03  0.10566000000E+00 0. -1.
          3    1    1    2  502    0 -0.53247218656E+01 -0.42059712247E+02  0.12911092581E+03  0.13589335238E+03  0.00000000000E+00 0. -1.
         -4    1    3    3    0  502  0.40749594735E+02  0.17866349101E+03 -0.60890533462E+03  0.63588275572E+03  0.00000000000E+00 0. -1.
</event>
<event>
 7    1  0.4894942E-006  0.1012911E+04  0.7818608E-02  0.9366149E-01
          2   -1    0    0  501    0  0.00000000000E+00  0.00000000000E+00  0.12283016023E+04  0.12283016023E+04  0.00000000000E+00 0. -1.
         -4   -1    0    0    0  501 -0.00000000000E+00 -0.00000000000E+00 -0.37969660942E+03  0.37969660942E+03  0.00000000000E+00 0. -1.
   -9000010    2    1    2    0  502 -0.68629381616E+02  0.39979857840E+02  0.49138100356E+03  0.11249406656E+04  0.10088249747E+04 0.  0.
        -13    1    1    2    0    0  0.72127387107E+02 -0.56114830691E+02 -0.29463775462E+02  0.96017495400E+02  0.10566000000E+00 0.  1.
         13    1    3    3    0    0 -0.23511850939E+03 -0.11079348239E+03 -0.24370870947E+03  0.35630023216E+03  0.10566000000E+00 0. -1.
          2    1    1    2  502    0 -0.34980054913E+01  0.16134972851E+02  0.38668776475E+03  0.38704005064E+03  0.00000000000E+00 0. -1.
         -4    1    3    3    0  502  0.16648912777E+03  0.15077334023E+03  0.73508971303E+03  0.76864043349E+03  0.00000000000E+00 0. -1.
</event>
<event>
 7    1  0.4894942E-006  0.1174204E+04  0.7818608E-02  0.8787879E-01
          2   -1    0    0  502    0  0.00000000000E+00  0.00000000000E+00  0.10392172470E+04  0.10392172470E+04  0.00000000000E+00 0.  1.
          4   -1    0    0  501    0 -0.00000000000E+00 -0.00000000000E+00 -0.12856334270E+04  0.12856334270E+04  0.00000000000E+00 0.  1.
    9000010    2    1    2  502    0 -0.32231100085E+03  0.48543945221E+03 -0.58200948824E+03  0.13100551941E+04  0.10188099548E+04 0.  0.
        -13    1    3    3    0    0  0.25672994190E+03  0.23832365955E+03 -0.58339834918E+03  0.68048664554E+03  0.10566000000E+00 0.  1.
         13    1    1    2    0    0  0.36577613100E+03 -0.45712310626E+03 -0.84493858489E+02  0.59151748543E+03  0.10566000000E+00 0. -1.
          2    1    1    2  501    0 -0.43465130144E+02 -0.28316345949E+02  0.42008716674E+03  0.42327799452E+03  0.00000000000E+00 0.  1.
          4    1    3    3  502    0 -0.57904094275E+03  0.24711579266E+03  0.13888609379E+01  0.62956854853E+03  0.00000000000E+00 0.  1.
</event>
<event>
 7    1  0.4894942E-006  0.1051784E+04  0.7818608E-02  0.8995869E-01
         -4   -1    0    0    0  501 -0.00000000000E+00  0.00000000000E+00  0.47169169590E+03  0.47169169590E+03  0.00000000000E+00 0. -1.
          4   -1    0    0  501    0  0.00000000000E+00 -0.00000000000E+00 -0.22564881061E+04  0.22564881061E+04  0.00000000000E+00 0.  1.
   -9000010    2    1    2    0  502 -0.15371766072E+03 -0.21540672078E+03 -0.70637175697E+03  0.12480849096E+04  0.99434687505E+03 0.  0.
        -13    1    1    2    0    0  0.28296241737E+03  0.21842984777E+03  0.35016728530E+02  0.35917337106E+03  0.10566000000E+00 0.  1.
         13    1    3    3    0    0  0.16450866331E+03 -0.13679155588E+03  0.19467655814E+03  0.28926459085E+03  0.10566000000E+00 0. -1.
          4    1    1    2  502    0 -0.12924475665E+03 -0.30231269847E+01 -0.11134413818E+04  0.11209215214E+04  0.00000000000E+00 0.  1.
         -4    1    3    3    0  502 -0.31822632404E+03 -0.78615164903E+02 -0.90104831511E+03  0.95882031874E+03  0.00000000000E+00 0. -1.
</event>
<event>
 7    1  0.4894942E-006  0.1053322E+04  0.7818608E-02  0.9020802E-01
          2   -1    0    0  501    0  0.00000000000E+00  0.00000000000E+00  0.65544604437E+03  0.65544604437E+03  0.00000000000E+00 0. -1.
         -4   -1    0    0    0  501 -0.00000000000E+00 -0.00000000000E+00 -0.18496635803E+04  0.18496635803E+04  0.00000000000E+00 0. -1.
   -9000010    2    1    2    0  502  0.32177762304E+03  0.60410668376E+00 -0.99380717278E+03  0.14510103739E+04  0.10070934439E+04 0.  0.
        -13    1    1    2    0    0 -0.30641123025E+03  0.66042548405E+01 -0.58962128257E+03  0.66451841677E+03  0.10566000000E+00 0.  1.
         13    1    3    3    0    0  0.29050115133E+03 -0.89968167781E+02  0.12449577994E+03  0.32860979980E+03  0.10566000000E+00 0. -1.
          2    1    1    2  502    0 -0.15366392791E+02 -0.72083615242E+01  0.38921091939E+03  0.38958083407E+03  0.00000000000E+00 0. -1.
         -4    1    3    3    0  502  0.31276471710E+02  0.90572274465E+02 -0.11183029527E+04  0.11224005741E+04  0.00000000000E+00 0. -1.
</event>
<event>
 7    1  0.4894942E-006  0.1001930E+04  0.7818608E-02  0.9419092E-01
         -4   -1    0    0    0  501 -0.00000000000E+00  0.00000000000E+00  0.93005455795E+03  0.93005455795E+03  0.00000000000E+00 0. -1.
          2   -1    0    0  501    0  0.00000000000E+00 -0.00000000000E+00 -0.94160102053E+03  0.94160102053E+03  0.00000000000E+00 0. -1.
   -9000010    2    1    2    0  502  0.73184873768E+02  0.54601715091E+02  0.39216815806E+03  0.10770549387E+04  0.99895650740E+03 0.  0.
        -13    1    1    2    0    0 -0.73282136998E+02 -0.23417962829E+02  0.18744524566E+03  0.20261886356E+03  0.10566000000E+00 0.  1.
         13    1    3    3    0    0  0.86084119922E+02  0.52444757875E+03  0.17742332643E+03  0.56029883677E+03  0.10566000000E+00 0. -1.
          2    1    1    2  502    0  0.97263229271E-01 -0.31183752262E+02 -0.59115986631E+03  0.59198177624E+03  0.00000000000E+00 0. -1.
         -4    1    3    3    0  502 -0.12899246154E+02 -0.46984586366E+03  0.21474483163E+03  0.51675610191E+03  0.00000000000E+00 0. -1.
</event>
<event>
 7    1  0.4894942E-006  0.1172648E+04  0.7818608E-02  0.8791893E-01
         -4   -1    0    0    0  502 -0.00000000000E+00  0.00000000000E+00  0.15425169063E+04  0.15425169063E+04  0.00000000000E+00 0. -1.
         -2   -1    0    0    0  501  0.00000000000E+00 -0.00000000000E+00 -0.12658613703E+04  0.12658613703E+04  0.00000000000E+00 0. -1.
   -9000010    2    1    2    0  501 -0.51343510297E+03  0.38432749035E+03  0.52691566757E+03  0.13160801364E+04  0.10213244244E+04 0.  0.
        -13    1    1    2    0    0  0.34859967320E+03 -0.43824684006E+03  0.48256953248E+03  0.73922621018E+03  0.10566000000E+00 0.  1.
         13    1    3    3    0    0 -0.24523757995E+03  0.66711070278E+03  0.58689840116E+03  0.92175262671E+03  0.10566000000E+00 0. -1.
         -2    1    1    2    0  502  0.16483542977E+03  0.53919349711E+02 -0.73282966411E+03  0.75307193002E+03  0.00000000000E+00 0. -1.
         -4    1    3    3    0  501 -0.26819752302E+03 -0.28278321243E+03 -0.59982733596E+02  0.39432750971E+03  0.00000000000E+00 0. -1.
</event>
<event>
 7    1  0.4894942E-006  0.1035219E+04  0.7818608E-02  0.9066713E-01
          1   -1    0    0  501    0  0.00000000000E+00  0.00000000000E+00  0.84861138093E+03  0.84861138093E+03  0.00000000000E+00 0. -1.
         -4   -1    0    0    0  501 -0.00000000000E+00 -0.00000000000E+00 -0.94299844227E+03  0.94299844227E+03  0.00000000000E+00 0. -1.
   -9000010    2    1    2    0  502  0.11071995075E+03 -0.25957948321E+03  0.13812401507E+03  0.10474910204E+04  0.99925911489E+03 0.  0.
        -13    1    1    2    0    0 -0.70307261538E+02  0.26058253998E+03 -0.44900578907E+03  0.52388222050E+03  0.10566000000E+00 0.  1.
         13    1    3    3    0    0 -0.19582080555E+03  0.11693984573E+03  0.42587318067E+03  0.48310319041E+03  0.10566000000E+00 0. -1.
          1    1    1    2  502    0 -0.40412689212E+02 -0.10030567700E+01  0.21649471266E+03  0.22023658230E+03  0.00000000000E+00 0. -1.
         -4    1    3    3    0  502  0.30654075630E+03 -0.37651932895E+03 -0.28774916560E+03  0.56438783000E+03  0.00000000000E+00 0. -1.
</event>
<event>
 7    1  0.4894942E-006  0.1012787E+04  0.7818608E-02  0.9246905E-01
         -4   -1    0    0    0  501 -0.00000000000E+00  0.00000000000E+00  0.12946009523E+04  0.12946009523E+04  0.00000000000E+00 0. -1.
          2   -1    0    0  501    0  0.00000000000E+00 -0.00000000000E+00 -0.11154244218E+04  0.11154244218E+04  0.00000000000E+00 0.  1.
   -9000010    2    1    2    0  502 -0.11939137307E+03 -0.50115385364E+02  0.22512395917E+03  0.10357604754E+04  0.10026729844E+04 0.  0.
        -13    1    1    2    0    0  0.12658220356E+03  0.66601678030E+02  0.65634121841E+03  0.67174596680E+03  0.10566000000E+00 0.  1.
         13    1    3    3    0    0 -0.16530563708E+03 -0.15210682460E+03 -0.36856466769E+03  0.43162757694E+03  0.10566000000E+00 0. -1.
          2    1    1    2  502    0 -0.71908304946E+01 -0.16486292666E+02 -0.70228864705E+03  0.70251893189E+03  0.00000000000E+00 0.  1.
         -4    1    3    3    0  502  0.45914264015E+02  0.10199143924E+03  0.59368862686E+03  0.60413289845E+03  0.00000000000E+00 0. -1.
</event>
<event>
 7    1  0.4894942E-006  0.1016023E+04  0.7818608E-02  0.9146551E-01
          2   -1    0    0  502    0  0.00000000000E+00  0.00000000000E+00  0.16988835863E+04  0.16988835863E+04  0.00000000000E+00 0. -1.
          4   -1    0    0  501    0 -0.00000000000E+00 -0.00000000000E+00 -0.68327429682E+03  0.68327429682E+03  0.00000000000E+00 0.  1.
    9000010    2    1    2  502    0 -0.71543650413E+02  0.18966668909E+03  0.77113268179E+03  0.12745576226E+04  0.99436390402E+03 0.  0.
        -13    1    3    3    0    0  0.38270412172E+03  0.13852400988E+03  0.70310076853E+03  0.81240510090E+03  0.10566000000E+00 0.  1.
         13    1    1    2    0    0  0.83575989237E+02 -0.19136718267E+03 -0.40624099599E+03  0.45676920054E+03  0.10566000000E+00 0. -1.
          2    1    1    2  501    0 -0.12032338824E+02  0.17004935840E+01  0.65071760367E+03  0.65083105994E+03  0.00000000000E+00 0. -1.
          4    1    3    3  502    0 -0.45424777213E+03  0.51142679206E+02  0.68031913264E+02  0.46215252173E+03  0.00000000000E+00 0.  1.
</event>
<event>
 7    1  0.4894942E-006  0.1065889E+04  0.7818608E-02  0.8972046E-01
          2   -1    0    0  502    0  0.00000000000E+00  0.00000000000E+00  0.15421502332E+04  0.15421502332E+04  0.00000000000E+00 0.  1.
          4   -1    0    0  501    0 -0.00000000000E+00 -0.00000000000E+00 -0.57187385845E+03  0.57187385845E+03  0.00000000000E+00 0.  1.
    9000010    2    1    2  502    0 -0.20093972862E+03 -0.19720200225E+03  0.43950560269E+03  0.11299954010E+04  0.10022270337E+04 0.  0.
        -13    1    3    3    0    0  0.20426262706E+03  0.16902418755E+03  0.51440096220E+03  0.57870610664E+03  0.10566000000E+00 0.  1.
         13    1    1    2    0    0  0.15455084406E+03  0.35200085306E+03 -0.44025409449E+02  0.38694807377E+03  0.10566000000E+00 0. -1.
          2    1    1    2  501    0  0.46388884557E+02 -0.15479885081E+03  0.57479618154E+03  0.59708061695E+03  0.00000000000E+00 0.  1.
          4    1    3    3  502    0 -0.40520235568E+03 -0.36622618980E+03 -0.74895359514E+02  0.55128929431E+03  0.00000000000E+00 0.  1.
</event>
<event>
 7    1  0.4894942E-006  0.1054155E+04  0.7818608E-02  0.9109195E-01
          4   -1    0    0  501    0 -0.00000000000E+00  0.00000000000E+00  0.47269588143E+03  0.47269588143E+03  0.00000000000E+00 0.  1.
          2   -1    0    0  502    0  0.00000000000E+00 -0.00000000000E+00 -0.16879351899E+04  0.16879351899E+04  0.00000000000E+00 0.  1.
    9000010    2    1    2  502    0 -0.20422296550E+03  0.55065955186E+02 -0.61463128933E+03  0.12193924807E+04  0.10317010812E+04 0.  0.
        -13    1    3    3    0    0 -0.25895342648E+03 -0.64313982423E+02 -0.88201943930E+03  0.92149414968E+03  0.10566000000E+00 0.  1.
         13    1    1    2    0    0  0.21328490335E+03 -0.39087350530E+02  0.10112981942E+03  0.23926036552E+03  0.10566000000E+00 0. -1.
          2    1    1    2  501    0 -0.90619378531E+01 -0.15978604656E+02 -0.70173783859E+03  0.70197822519E+03  0.00000000000E+00 0.  1.
          4    1    3    3  502    0  0.54730460979E+02  0.11937993761E+03  0.26738814997E+03  0.29789833099E+03  0.00000000000E+00 0.  1.
</event>
<event>
 7    1  0.4894942E-006  0.9971945E+03  0.7818608E-02  0.8934834E-01
          2   -1    0    0  502    0  0.00000000000E+00  0.00000000000E+00  0.10008286984E+04  0.10008286984E+04  0.00000000000E+00 0. -1.
          4   -1    0    0  501    0 -0.00000000000E+00 -0.00000000000E+00 -0.22463543232E+04  0.22463543232E+04  0.00000000000E+00 0.  1.
    9000010    2    1    2  502    0  0.13937954428E+02  0.46025113988E+03 -0.11929280453E+04  0.15372982358E+04  0.85333649063E+03 0.  0.
        -13    1    3    3    0    0  0.14910415238E+03  0.68845322606E+03 -0.86735525310E+03  0.11173652218E+04  0.10566000000E+00 0.  1.
         13    1    1    2    0    0  0.26101134970E+02 -0.54292120192E+03 -0.79432287661E+03  0.96249339957E+03  0.10566000000E+00 0. -1.
          2    1    1    2  501    0 -0.40039089398E+02  0.82670062040E+02  0.74172529709E+03  0.74739138620E+03  0.00000000000E+00 0. -1.
          4    1    3    3  502    0 -0.13516619795E+03 -0.22820208618E+03 -0.32557279224E+03  0.41993301400E+03  0.00000000000E+00 0.  1.
</event>
<event>
 7    1  0.4894942E-006  0.1108005E+04  0.7818608E-02  0.8863445E-01
         -4   -1    0    0    0  501 -0.00000000000E+00  0.00000000000E+00  0.81930577994E+03  0.81930577994E+03  0.00000000000E+00 0. -1.
          2   -1    0    0  501    0  0.00000000000E+00 -0.00000000000E+00 -0.93477598189E+03  0.93477598189E+03  0.00000000000E+00 0. -1.
   -9000010    2    1    2    0  502 -0.13546153963E+02 -0.50541758481E+03 -0.14699981355E+03  0.11177698120E+04  0.98598680222E+03 0.  0.
        -13    1    1    2    0    0  0.33362939900E+02  0.50442629829E+03  0.14118691976E+03  0.52487401692E+03  0.10566000000E+00 0.  1.
         13    1    3    3    0    0 -0.64306496099E+02 -0.62057762219E+03  0.27175198469E+03  0.68051529223E+03  0.10566000000E+00 0. -1.
          2    1    1    2  502    0 -0.19816785938E+02  0.99128652419E+00 -0.10965730816E+03  0.11143793289E+03  0.00000000000E+00 0. -1.
         -4    1    3    3    0  502  0.50760342136E+02  0.11516003738E+03 -0.41875179825E+03  0.43725451979E+03  0.00000000000E+00 0. -1.
</event>
<event>
 7    1  0.4894942E-006  0.1092987E+04  0.7818608E-02  0.9038136E-01
         -4   -1    0    0    0  501 -0.00000000000E+00  0.00000000000E+00  0.21522940366E+04  0.21522940366E+04  0.00000000000E+00 0. -1.
          2   -1    0    0  501    0  0.00000000000E+00 -0.00000000000E+00 -0.71102368256E+03  0.71102368256E+03  0.00000000000E+00 0.  1.
   -9000010    2    1    2    0  502  0.23909737294E+03 -0.48803383820E+02  0.16848621998E+04  0.20066271199E+04  0.10621875739E+04 0.  0.
        -13    1    1    2    0    0 -0.25135897647E+03 -0.11995163779E+03  0.22528291917E+03  0.35822079127E+03  0.10566000000E+00 0.  1.
         13    1    3    3    0    0  0.49587510961E+03  0.15432252630E+03  0.33588647227E+03  0.61848791409E+03  0.10566000000E+00 0. -1.
          2    1    1    2  502    0  0.12261603533E+02  0.16875502161E+03 -0.46887476493E+03  0.49846980794E+03  0.00000000000E+00 0.  1.
         -4    1    3    3    0  502 -0.25677773667E+03 -0.20312591012E+03  0.13489757275E+04  0.13881392058E+04  0.00000000000E+00 0. -1.
</event>
<event>
 7    1  0.6228850E-006  0.1050239E+04  0.7818608E-02  0.9035973E-01
         -4   -1    0    0    0  501 -0.00000000000E+00  0.00000000000E+00  0.15018741031E+04  0.15018741031E+04  0.00000000000E+00 0. -1.
          4   -1    0    0  501    0  0.00000000000E+00 -0.00000000000E+00 -0.14794909906E+04  0.14794909906E+04  0.00000000000E+00 0.  1.
   -9000010    2    1    2    0  502 -0.23955927151E+03 -0.24403865228E+03  0.10710206626E+04  0.15103719145E+04  0.10085606338E+04 0.  0.
        -13    1    1    2    0    0  0.49023738922E+02  0.28449534451E+03  0.10033472572E+03  0.30562721799E+03  0.10566000000E+00 0.  1.
         13    1    3    3    0    0 -0.42640907769E+03 -0.33054362636E+03  0.11651292037E+04  0.12839820337E+04  0.10566000000E+00 0. -1.
          4    1    1    2  502    0  0.19053553258E+03 -0.40456692225E+02 -0.11489722758E+04  0.11653659612E+04  0.00000000000E+00 0.  1.
         -4    1    3    3    0  502  0.18684980618E+03  0.86504974081E+02 -0.94108541111E+02  0.22638988078E+03  0.00000000000E+00 0. -1.
</event>
<event>
 7    1  0.4894942E-006  0.1027031E+04  0.7818608E-02  0.9130568E-01
          2   -1    0    0  502    0  0.00000000000E+00  0.00000000000E+00  0.36007830740E+03  0.36007830740E+03  0.00000000000E+00 0.  1.
          4   -1    0    0  501    0 -0.00000000000E+00 -0.00000000000E+00 -0.23331628835E+04  0.23331628835E+04  0.00000000000E+00 0.  1.
    9000010    2    1    2  502    0  0.20270585955E+03  0.96190020613E+02 -0.15515024126E+04  0.18617250824E+04  0.10042501483E+04 0.  0.
        -13    1    3    3    0    0  0.21819999571E+02 -0.45127798404E+03 -0.64948420960E+03  0.79117487381E+03  0.10566000000E+00 0.  1.
         13    1    1    2    0    0 -0.19465695003E+03 -0.88968580187E+02 -0.60811057757E+03  0.64467450871E+03  0.10566000000E+00 0. -1.
          2    1    1    2  501    0 -0.80489095179E+01 -0.72214404268E+01  0.18652841411E+03  0.18684159980E+03  0.00000000000E+00 0.  1.
          4    1    3    3  502    0  0.18088585998E+03  0.54746800465E+03 -0.90201820301E+03  0.10705502085E+04  0.00000000000E+00 0.  1.
</event>
<event>
 7    1  0.4894942E-006  0.1123042E+04  0.7818608E-02  0.8858007E-01
          3   -1    0    0  501    0  0.00000000000E+00  0.00000000000E+00  0.60946044624E+03  0.60946044624E+03  0.00000000000E+00 0. -1.
         -4   -1    0    0    0  501 -0.00000000000E+00 -0.00000000000E+00 -0.26531863199E+04  0.26531863199E+04  0.00000000000E+00 0. -1.
   -9000010    2    1    2    0  502 -0.12650440068E+03  0.51210617097E+03 -0.81911750016E+03  0.14013654608E+04  0.10072812824E+04 0.  0.
        -13    1    1    2    0    0 -0.45888433047E+02 -0.49372792869E+03 -0.14753452551E+04  0.15564435900E+04  0.10566000000E+00 0.  1.
         13    1    3    3    0    0  0.32953512657E+03 -0.42163726179E+01 -0.58923717433E+03  0.67513823489E+03  0.10566000000E+00 0. -1.
          3    1    1    2  502    0  0.17239283373E+03 -0.18378242278E+02  0.25073688162E+03  0.30483771537E+03  0.00000000000E+00 0. -1.
         -4    1    3    3    0  502 -0.45603952725E+03  0.51632254358E+03 -0.22988032584E+03  0.72622722590E+03  0.00000000000E+00 0. -1.
</event>
<event>
 7    1  0.4894942E-006  0.7331037E+03  0.7818608E-02  0.9550988E-01
          4   -1    0    0  501    0 -0.00000000000E+00  0.00000000000E+00  0.15594673734E+04  0.15594673734E+04  0.00000000000E+00 0.  1.
          2   -1    0    0  502    0  0.00000000000E+00 -0.00000000000E+00 -0.77833718558E+03  0.77833718558E+03  0.00000000000E+00 0.  1.
    9000010    2    1    2  502    0 -0.78818839398E+02 -0.15044078273E+03  0.13568219591E+04  0.15467466363E+04  0.72292080468E+03 0.  0.
        -13    1    3    3    0    0  0.18616671160E+03 -0.34681404315E+03  0.90910943788E+03  0.99066543608E+03  0.10566000000E+00 0.  1.
         13    1    1    2    0    0  0.71515958211E+02  0.81744427861E+02  0.78004522035E+02  0.13372135352E+03  0.10566000000E+00 0. -1.
          2    1    1    2  501    0  0.73028811867E+01  0.68696354867E+02 -0.65369629329E+03  0.65733656912E+03  0.00000000000E+00 0.  1.
          4    1    3    3  502    0 -0.26498555100E+03  0.19637326042E+03  0.44771252118E+03  0.55608120024E+03  0.00000000000E+00 0.  1.
</event>
<event>
 7    1  0.4894942E-006  0.1596288E+04  0.7818608E-02  0.8634206E-01
         -4   -1    0    0    0  501 -0.00000000000E+00  0.00000000000E+00  0.15448200313E+04  0.15448200313E+04  0.00000000000E+00 0. -1.
          4   -1    0    0  501    0  0.00000000000E+00 -0.00000000000E+00 -0.30112728168E+04  0.30112728168E+04  0.00000000000E+00 0. -1.
   -9000010    2    1    2    0  502 -0.93624810101E+03 -0.40696157616E+03 -0.84019959143E+03  0.16560401429E+04  0.99717369111E+03 0.  0.
        -13    1    1    2    0    0 -0.44362268987E+03  0.82633724124E+02  0.78142249952E+03  0.90235833085E+03  0.10566000000E+00 0.  1.
         13    1    3    3    0    0  0.16894659361E+03 -0.25934495420E+03 -0.22418223431E+03  0.38217854741E+03  0.10566000000E+00 0. -1.
          4    1    1    2  502    0  0.13798707909E+04  0.32432785204E+03 -0.14076756936E+04  0.19976943744E+04  0.00000000000E+00 0. -1.
         -4    1    3    3    0  502 -0.11051946946E+04 -0.14761662196E+03 -0.61601735713E+03  0.12738615955E+04  0.00000000000E+00 0. -1.
</event>
<event>
 7    1  0.4894942E-006  0.1067301E+04  0.7818608E-02  0.8968588E-01
         -4   -1    0    0    0  501 -0.00000000000E+00  0.00000000000E+00  0.19761656856E+04  0.19761656856E+04  0.00000000000E+00 0. -1.
          2   -1    0    0  501    0  0.00000000000E+00 -0.00000000000E+00 -0.13817693605E+04  0.13817693605E+04  0.00000000000E+00 0.  1.
   -9000010    2    1    2    0  502 -0.24532197779E+03 -0.29678392167E+03  0.13147114947E+04  0.16975015658E+04  0.10023879901E+04 0.  0.
        -13    1    1    2    0    0  0.38664380382E+03  0.53750898209E+02  0.36794981479E+03  0.53644167200E+03  0.10566000000E+00 0.  1.
         13    1    3    3    0    0 -0.14000457596E+03 -0.61697420669E+03  0.47033999024E+03  0.78833886787E+03  0.10566000000E+00 0. -1.
          2    1    1    2  502    0 -0.14132182603E+03  0.24303302346E+03 -0.10882649844E+04  0.11239918083E+04  0.00000000000E+00 0.  1.
         -4    1    3    3    0  502 -0.10531740183E+03  0.32019028502E+03  0.84437150443E+03  0.90916269789E+03  0.00000000000E+00 0. -1.
</event>
<event>
 7    1  0.4894942E-006  0.1450453E+04  0.7818608E-02  0.8506209E-01
          1   -1    0    0  501    0  0.00000000000E+00  0.00000000000E+00  0.20998480228E+04  0.20998480228E+04  0.00000000000E+00 0.  1.
         -4   -1    0    0    0  501 -0.00000000000E+00 -0.00000000000E+00 -0.11364998448E+04  0.11364998448E+04  0.00000000000E+00 0. -1.
   -9000010    2    1    2    0  502  0.20955704582E+03  0.12528251759E+04  0.69871667317E+03  0.17524064260E+04  0.98449896683E+03 0.  0.
        -13    1    1    2    0    0 -0.35635971590E+03 -0.92796082095E+03 -0.68009378534E+02  0.99635777664E+03  0.10566000000E+00 0.  1.
         13    1    3    3    0    0 -0.22970105842E+03  0.11038342869E+04  0.38070343907E+03  0.11900200960E+04  0.10566000000E+00 0. -1.
          1    1    1    2  502    0  0.14680267008E+03 -0.32486435495E+03  0.33264088338E+03  0.48758366498E+03  0.00000000000E+00 0.  1.
         -4    1    3    3    0  502  0.43925810425E+03  0.14899088905E+03  0.31801323410E+03  0.56238633005E+03  0.00000000000E+00 0. -1.
</event>
<event>
 7    1  0.4894942E-006  0.1020791E+04  0.7818608E-02  0.9133013E-01
          4   -1    0    0  501    0 -0.00000000000E+00  0.00000000000E+00  0.43559904102E+03  0.43559904102E+03  0.00000000000E+00 0.  1.
          2   -1    0    0  502    0  0.00000000000E+00 -0.00000000000E+00 -0.23818668312E+04  0.23818668312E+04  0.00000000000E+00 0.  1.
    9000010    2    1    2  502    0 -0.19470446636E+03  0.49737616442E+02 -0.79527454837E+03  0.12914240244E+04  0.99746215151E+03 0.  0.
        -13    1    3    3    0    0  0.99447769573E+02 -0.16657076151E+03 -0.89269184998E+03  0.91352855875E+03  0.10566000000E+00 0.  1.
         13    1    1    2    0    0  0.20915380482E+03 -0.61355979906E+02  0.12409583404E+03  0.25081797689E+03  0.10566000000E+00 0. -1.
          2    1    1    2  501    0 -0.14449338465E+02  0.11618363464E+02 -0.12750890759E+04  0.12752238710E+04  0.00000000000E+00 0.  1.
          4    1    3    3  502    0 -0.29415223593E+03  0.21630837796E+03  0.97417301608E+02  0.37789546561E+03  0.00000000000E+00 0.  1.
</event>
<event>
 7    1  0.4894942E-006  0.1037936E+04  0.7818608E-02  0.9058978E-01
          2   -1    0    0  502    0  0.00000000000E+00  0.00000000000E+00  0.56925991729E+03  0.56925991729E+03  0.00000000000E+00 0. -1.
          4   -1    0    0  501    0 -0.00000000000E+00 -0.00000000000E+00 -0.25882121386E+04  0.25882121386E+04  0.00000000000E+00 0.  1.
    9000010    2    1    2  502    0  0.16260670550E+03  0.34065678504E+03 -0.22579199121E+04  0.24982794302E+04  0.10003548353E+04 0.  0.
        -13    1    3    3    0    0  0.10369305832E+03  0.16676500927E+03  0.33761342848E+02  0.19925525864E+03  0.10566000000E+00 0.  1.
         13    1    1    2    0    0 -0.62522959210E+01 -0.22780005698E+03 -0.11563939197E+03  0.25554732889E+03  0.10566000000E+00 0. -1.
          2    1    1    2  501    0 -0.15635440958E+03 -0.11285672806E+03  0.35460708273E+03  0.40364529675E+03  0.00000000000E+00 0. -1.
          4    1    3    3  502    0  0.58913647180E+02  0.17389177577E+03 -0.22916812549E+04  0.22990241716E+04  0.00000000000E+00 0.  1.
</event>
<event>
 7    1  0.4894942E-006  0.1006358E+04  0.7818608E-02  0.9205771E-01
          4   -1    0    0  501    0 -0.00000000000E+00  0.00000000000E+00  0.14352942500E+04  0.14352942500E+04  0.00000000000E+00 0.  1.
          2   -1    0    0  502    0  0.00000000000E+00 -0.00000000000E+00 -0.78343485857E+03  0.78343485857E+03  0.00000000000E+00 0.  1.
    9000010    2    1    2  502    0 -0.60092672200E+02 -0.13580568216E+03  0.33654544906E+02  0.10034292483E+04  0.99180810407E+03 0.  0.
        -13    1    3    3    0    0  0.66203845102E+02 -0.37876917613E+03  0.39420842295E+03  0.55068078756E+03  0.10566000000E+00 0.  1.
         13    1    1    2    0    0  0.15341621175E+03  0.76524389769E+02  0.89812227995E+03  0.91433919152E+03  0.10566000000E+00 0. -1.
          2    1    1    2  501    0 -0.93323539552E+02  0.59281292386E+02 -0.27991743339E+03  0.30096066882E+03  0.00000000000E+00 0.  1.
          4    1    3    3  502    0 -0.12629651730E+03  0.24296349398E+03 -0.36055387805E+03  0.45274846070E+03  0.00000000000E+00 0.  1.
</event>
<event>
 7    1  0.4894942E-006  0.1103401E+04  0.7818608E-02  0.8881322E-01
          2   -1    0    0  502    0  0.00000000000E+00  0.00000000000E+00  0.13785241922E+04  0.13785241922E+04  0.00000000000E+00 0.  1.
          4   -1    0    0  501    0 -0.00000000000E+00 -0.00000000000E+00 -0.63131802254E+03  0.63131802254E+03  0.00000000000E+00 0.  1.
    9000010    2    1    2  502    0  0.18028354460E+03 -0.44929359620E+03  0.30511344063E+03  0.11485787212E+04  0.99587749000E+03 0.  0.
        -13    1    3    3    0    0  0.37743928312E+03  0.10655619165E+03 -0.13272699704E+03  0.41404239074E+03  0.10566000000E+00 0.  1.
         13    1    1    2    0    0 -0.13708076488E+03  0.45194106384E+03  0.59242551020E+02  0.47597431895E+03  0.10566000000E+00 0. -1.
          2    1    1    2  501    0 -0.43202779714E+02 -0.26474676436E+01  0.38285017799E+03  0.38528917458E+03  0.00000000000E+00 0.  1.
          4    1    3    3  502    0 -0.19715573853E+03 -0.55584978785E+03  0.43784043767E+03  0.73453633045E+03  0.00000000000E+00 0.  1.
</event>
<event>
 7    1  0.4894942E-006  0.1009869E+04  0.7818608E-02  0.9268909E-01
          2   -1    0    0  501    0  0.00000000000E+00  0.00000000000E+00  0.82520705290E+03  0.82520705290E+03  0.00000000000E+00 0. -1.
         -4   -1    0    0    0  501 -0.00000000000E+00 -0.00000000000E+00 -0.11698340573E+04  0.11698340573E+04  0.00000000000E+00 0. -1.
   -9000010    2    1    2    0  502 -0.78778843511E+02  0.73715640849E+02 -0.50851381668E+03  0.11280670122E+04  0.10011537247E+04 0.  0.
        -13    1    1    2    0    0  0.96328051930E+02 -0.92269857663E+02 -0.33855427661E+03  0.36388436295E+03  0.10566000000E+00 0.  1.
         13    1    3    3    0    0  0.53171983703E+02  0.34871627571E+03 -0.68871483854E+03  0.77379483120E+03  0.10566000000E+00 0. -1.
          2    1    1    2  502    0 -0.17549208419E+02  0.18554216814E+02  0.50244108889E+03  0.50308973502E+03  0.00000000000E+00 0. -1.
         -4    1    3    3    0  502 -0.13195082721E+03 -0.27500063486E+03  0.18020102187E+03  0.35427218104E+03  0.00000000000E+00 0. -1.
</event>
<event>
 7    1  0.4894942E-006  0.1010871E+04  0.7818608E-02  0.9641076E-01
          1   -1    0    0  501    0  0.00000000000E+00  0.00000000000E+00  0.43405852198E+03  0.43405852198E+03  0.00000000000E+00 0. -1.
         -4   -1    0    0    0  501 -0.00000000000E+00 -0.00000000000E+00 -0.11482750880E+04  0.11482750880E+04  0.00000000000E+00 0. -1.
   -9000010    2    1    2    0  502 -0.45217546466E+02 -0.17500020954E+02 -0.91635599749E+03  0.13648382449E+04  0.10103089841E+04 0.  0.
        -13    1    1    2    0    0  0.30101414558E+02  0.91662362715E+01  0.26869422104E+02  0.41377434116E+02  0.10566000000E+00 0.  1.
         13    1    3    3    0    0 -0.40435708336E+02 -0.50871140901E+03 -0.56206582062E+03  0.75917082534E+03  0.10566000000E+00 0. -1.
          1    1    1    2  502    0  0.15116131908E+02  0.83337846829E+01  0.17527000937E+03  0.17611793093E+03  0.00000000000E+00 0. -1.
         -4    1    3    3    0  502 -0.47818381306E+01  0.49121138806E+03 -0.35429017687E+03  0.60566741959E+03  0.00000000000E+00 0. -1.
</event>
<event>
 7    1  0.4894942E-006  0.1053971E+04  0.7818608E-02  0.8977653E-01
         -4   -1    0    0    0  501 -0.00000000000E+00  0.00000000000E+00  0.18276480380E+04  0.18276480380E+04  0.00000000000E+00 0. -1.
          1   -1    0    0  501    0  0.00000000000E+00 -0.00000000000E+00 -0.10872423824E+04  0.10872423824E+04  0.00000000000E+00 0. -1.
   -9000010    2    1    2    0  502  0.89807102385E+02  0.22010055215E+03  0.97499984794E+03  0.14083409525E+04  0.98807386689E+03 0.  0.
        -13    1    1    2    0    0 -0.47272259690E+03 -0.40367533044E+02  0.48078840656E+03  0.67546553901E+03  0.10566000000E+00 0.  1.
         13    1    3    3    0    0 -0.19133670079E+03  0.17266034957E+03  0.10755616355E+04  0.11060082153E+04  0.10566000000E+00 0. -1.
          1    1    1    2  502    0  0.38291549451E+03 -0.17973301911E+03 -0.71538259889E+03  0.83108392890E+03  0.00000000000E+00 0. -1.
         -4    1    3    3    0  502  0.28114380317E+03  0.47440202582E+02 -0.10056178757E+03  0.30233273723E+03  0.00000000000E+00 0. -1.
</event>
<event>
 7    1  0.4894942E-006  0.1199875E+04  0.7818608E-02  0.8759318E-01
          2   -1    0    0  502    0  0.00000000000E+00  0.00000000000E+00  0.17754939676E+04  0.17754939676E+04  0.00000000000E+00 0. -1.
          4   -1    0    0  501    0 -0.00000000000E+00 -0.00000000000E+00 -0.52135678834E+03  0.52135678834E+03  0.00000000000E+00 0.  1.
    9000010    2    1    2  502    0 -0.74705008533E+02  0.58130090385E+03  0.74497849854E+03  0.13987325147E+04  0.10285757655E+04 0.  0.
        -13    1    3    3    0    0 -0.36391230698E+02 -0.24695493798E+03 -0.44840033992E+02  0.25361723695E+03  0.10566000000E+00 0.  1.
         13    1    1    2    0    0  0.88572593243E+02 -0.62717604598E+03  0.33308746660E+03  0.71564108916E+03  0.10566000000E+00 0. -1.
          2    1    1    2  501    0 -0.13867584710E+02  0.45875142133E+02  0.17607121416E+03  0.18247715207E+03  0.00000000000E+00 0. -1.
          4    1    3    3  502    0 -0.38313777836E+02  0.82825584183E+03  0.78981853253E+03  0.11451152778E+04  0.00000000000E+00 0.  1.
</event>
<event>
 7    1  0.4894942E-006  0.1025386E+04  0.7818608E-02  0.9086743E-01
         -4   -1    0    0    0  501 -0.00000000000E+00  0.00000000000E+00  0.91113907671E+03  0.91113907671E+03  0.00000000000E+00 0. -1.
          1   -1    0    0  501    0  0.00000000000E+00 -0.00000000000E+00 -0.12409994946E+04  0.12409994946E+04  0.00000000000E+00 0. -1.
   -9000010    2    1    2    0  502 -0.12041491376E+03  0.23519401006E+03  0.27421704227E+03  0.10631880583E+04  0.99265194667E+03 0.  0.
        -13    1    1    2    0    0  0.13381167111E+03 -0.21812205989E+03  0.17471753759E+03  0.30985323210E+03  0.10566000000E+00 0.  1.
         13    1    3    3    0    0 -0.27661345423E+02  0.42601560653E+03  0.56192927076E+03  0.70570458660E+03  0.10566000000E+00 0. -1.
          1    1    1    2  502    0 -0.13396757349E+02 -0.17071950172E+02 -0.77879499774E+03  0.77909728090E+03  0.00000000000E+00 0. -1.
         -4    1    3    3    0  502 -0.92753568339E+02 -0.19082159647E+03 -0.28771222849E+03  0.35748347171E+03  0.00000000000E+00 0. -1.
</event>
<event>
 7    1  0.4894942E-006  0.9959014E+03  0.7818608E-02  0.9262961E-01
          2   -1    0    0  501    0  0.00000000000E+00  0.00000000000E+00  0.17287982574E+04  0.17287982574E+04  0.00000000000E+00 0. -1.
         -4   -1    0    0    0  501 -0.00000000000E+00 -0.00000000000E+00 -0.49652383353E+03  0.49652383353E+03  0.00000000000E+00 0. -1.
   -9000010    2    1    2    0  502 -0.64679211158E+02  0.18659075880E+03  0.23544965594E+03  0.10326257829E+04  0.98583972100E+03 0.  0.
        -13    1    1    2    0    0  0.49903690684E+02 -0.12751362860E+03 -0.48749596943E+02  0.14535005397E+03  0.10566000000E+00 0.  1.
         13    1    3    3    0    0 -0.21565274514E+03 -0.23388293842E+03 -0.22608338332E+03  0.39028328525E+03  0.10566000000E+00 0. -1.
          2    1    1    2  502    0  0.14775520473E+02 -0.59077130198E+02  0.10455743649E+04  0.10473462540E+04  0.00000000000E+00 0. -1.
         -4    1    3    3    0  502  0.15097353399E+03  0.42047369722E+03  0.46153303926E+03  0.64234249769E+03  0.00000000000E+00 0. -1.
</event>
<event>
 7    1  0.4894942E-006  0.1070530E+04  0.7818608E-02  0.8933729E-01
         -4   -1    0    0    0  501 -0.00000000000E+00  0.00000000000E+00  0.14376862711E+04  0.14376862711E+04  0.00000000000E+00 0. -1.
          2   -1    0    0  501    0  0.00000000000E+00 -0.00000000000E+00 -0.58508359650E+03  0.58508359650E+03  0.00000000000E+00 0. -1.
   -9000010    2    1    2    0  502 -0.37611506293E+03  0.17364980290E+03  0.24465587995E+03  0.10963644174E+04  0.98516071867E+03 0.  0.
        -13    1    1    2    0    0  0.41413111821E+03 -0.76637720236E+02  0.67990318105E+03  0.79977888819E+03  0.10566000000E+00 0.  1.
         13    1    3    3    0    0 -0.37421551281E+03 -0.24452223906E+03 -0.19668053105E+03  0.48837651242E+03  0.10566000000E+00 0. -1.
          2    1    1    2  502    0 -0.38016055277E+02 -0.97012082661E+02 -0.71956386439E+02  0.12662656195E+03  0.00000000000E+00 0. -1.
         -4    1    3    3    0  502 -0.18995501226E+01  0.41817204196E+03  0.44133641100E+03  0.60798790501E+03  0.00000000000E+00 0. -1.
</event>
<event>
 7    1  0.4894942E-006  0.1024505E+04  0.7818608E-02  0.9109154E-01
         -4   -1    0    0    0  501 -0.00000000000E+00  0.00000000000E+00  0.24559150494E+04  0.24559150494E+04  0.00000000000E+00 0. -1.
          2   -1    0    0  501    0  0.00000000000E+00 -0.00000000000E+00 -0.89624123907E+03  0.89624123907E+03  0.00000000000E+00 0.  1.
   -9000010    2    1    2    0  502  0.93295288680E+02  0.21456174870E+03  0.23139485989E+04  0.25304367595E+04  0.99700116382E+03 0.  0.
        -13    1    1    2    0    0 -0.79937808430E+02 -0.23039936857E+03 -0.41162856762E+03  0.47844750088E+03  0.10566000000E+00 0.  1.
         13    1    3    3    0    0  0.39127507191E+03 -0.25144989207E+03  0.92360514214E+03  0.10341033313E+04  0.10566000000E+00 0. -1.
          2    1    1    2  502    0 -0.13357480250E+02  0.15837619872E+02 -0.34264622098E+03  0.34327202804E+03  0.00000000000E+00 0.  1.
         -4    1    3    3    0  502 -0.29797978323E+03  0.46601164077E+03  0.13903434568E+04  0.14963334282E+04  0.00000000000E+00 0. -1.
</event>
<event>
 7    1  0.4894942E-006  0.1612494E+04  0.7818608E-02  0.8404558E-01
          4   -1    0    0  501    0 -0.00000000000E+00  0.00000000000E+00  0.19332748686E+04  0.19332748686E+04  0.00000000000E+00 0.  1.
          2   -1    0    0  502    0  0.00000000000E+00 -0.00000000000E+00 -0.17131528967E+04  0.17131528967E+04  0.00000000000E+00 0. -1.
    9000010    2    1    2  502    0  0.12028217882E+04  0.22476867451E+03 -0.54194078833E+02  0.16043927970E+04  0.10362615682E+04 0.  0.
        -13    1    3    3    0    0  0.43611974127E+03 -0.33611793605E+03 -0.29461749606E+03  0.62447992427E+03  0.10566000000E+00 0.  1.
         13    1    1    2    0    0 -0.12253148049E+04 -0.19227494689E+03  0.82519788852E+03  0.14897374240E+04  0.10566000000E+00 0. -1.
          2    1    1    2  501    0  0.22493016694E+02 -0.32493727618E+02 -0.55088183782E+03  0.55229754425E+03  0.00000000000E+00 0. -1.
          4    1    3    3  502    0  0.76670204689E+03  0.56088661056E+03  0.24042341723E+03  0.97991287274E+03  0.00000000000E+00 0.  1.
</event>
<event>
 7    1  0.4894942E-006  0.1027285E+04  0.7818608E-02  0.9226487E-01
          2   -1    0    0  501    0  0.00000000000E+00  0.00000000000E+00  0.12052281515E+04  0.12052281515E+04  0.00000000000E+00 0. -1.
         -4   -1    0    0    0  501 -0.00000000000E+00 -0.00000000000E+00 -0.10821016404E+04  0.10821016404E+04  0.00000000000E+00 0. -1.
   -9000010    2    1    2    0  502 -0.51331289106E+02 -0.16494635621E+03 -0.15131285633E+03  0.10421870998E+04  0.10165707888E+04 0.  0.
        -13    1    1    2    0    0  0.12332070394E+03  0.82381080367E+02 -0.46991952132E+03  0.49276668526E+03  0.10566000000E+00 0.  1.
         13    1    3    3    0    0 -0.31525214943E+03 -0.31117284499E+03 -0.44018129503E+03  0.62447741419E+03  0.10566000000E+00 0. -1.
          2    1    1    2  502    0 -0.71989414831E+02  0.82565275841E+02  0.74435888873E+03  0.75237600696E+03  0.00000000000E+00 0. -1.
         -4    1    3    3    0  502  0.26392086032E+03  0.14622648879E+03  0.28886843870E+03  0.41770968556E+03  0.00000000000E+00 0. -1.
</event>
<event>
 7    1  0.4894942E-006  0.1011405E+04  0.7818608E-02  0.9841864E-01
          2   -1    0    0  501    0  0.00000000000E+00  0.00000000000E+00  0.15830555534E+04  0.15830555534E+04  0.00000000000E+00 0. -1.
         -4   -1    0    0    0  501 -0.00000000000E+00 -0.00000000000E+00 -0.17316337606E+04  0.17316337606E+04  0.00000000000E+00 0. -1.
   -9000010    2    1    2    0  502  0.34390333301E+00  0.81975123681E+01 -0.15820355222E+04  0.18776478027E+04  0.10112653263E+04 0.  0.
        -13    1    1    2    0    0 -0.29447191455E+02 -0.53312240379E+01  0.13595476933E+03  0.13920944473E+03  0.10566000000E+00 0.  1.
         13    1    3    3    0    0 -0.80284164670E+02 -0.37812904102E+03 -0.13822980954E+04  0.14353310261E+04  0.10566000000E+00 0. -1.
          2    1    1    2  502    0  0.29103288122E+02 -0.28662883302E+01  0.12975025457E+04  0.12978320666E+04  0.00000000000E+00 0. -1.
         -4    1    3    3    0  502  0.80628068003E+02  0.38632655339E+03 -0.19973742673E+03  0.44231677658E+03  0.00000000000E+00 0. -1.
</event>
<event>
 7    1  0.4894942E-006  0.1048710E+04  0.7818608E-02  0.9035014E-01
          2   -1    0    0  501    0  0.00000000000E+00  0.00000000000E+00  0.21867915163E+04  0.21867915163E+04  0.00000000000E+00 0. -1.
         -4   -1    0    0    0  501 -0.00000000000E+00 -0.00000000000E+00 -0.40345122863E+03  0.40345122863E+03  0.00000000000E+00 0. -1.
   -9000010    2    1    2    0  502  0.30050629005E+03 -0.16355073376E+03  0.17013923518E+04  0.20060785371E+04  0.10062615412E+04 0.  0.
        -13    1    1    2    0    0 -0.25890877348E+03  0.13752579506E+03 -0.16226020208E+03  0.33507533725E+03  0.10566000000E+00 0.  1.
         13    1    3    3    0    0  0.63114833030E+03  0.62273767213E+02  0.12568476325E+04  0.14077969383E+04  0.10566000000E+00 0. -1.
          2    1    1    2  502    0 -0.41597516572E+02  0.26024938700E+02  0.24420813788E+03  0.24908887054E+03  0.00000000000E+00 0. -1.
         -4    1    3    3    0  502 -0.33064204025E+03 -0.22582450097E+03  0.44454471931E+03  0.59828159882E+03  0.00000000000E+00 0. -1.
</event>
<event>
 7    1  0.4894942E-006  0.1037549E+04  0.7818608E-02  0.9055160E-01
          4   -1    0    0  501    0 -0.00000000000E+00  0.00000000000E+00  0.17681904089E+04  0.17681904089E+04  0.00000000000E+00 0.  1.
          2   -1    0    0  502    0  0.00000000000E+00 -0.00000000000E+00 -0.18212770539E+04  0.18212770539E+04  0.00000000000E+00 0.  1.
    9000010    2    1    2  502    0 -0.26177007732E+03  0.14881146867E+03  0.11490072350E+04  0.15518513970E+04  0.99867747835E+03 0.  0.
        -13    1    3    3    0    0 -0.40186833444E+03  0.39156863453E+03  0.25756485411E+03  0.61738466049E+03  0.10566000000E+00 0.  1.
         13    1    1    2    0    0  0.24041220750E+03 -0.13726162160E+03  0.37179435762E+03  0.46354054601E+03  0.10566000000E+00 0. -1.
          2    1    1    2  501    0  0.21357869822E+02 -0.11549847069E+02 -0.15738882376E+04  0.15740755197E+04  0.00000000000E+00 0.  1.
          4    1    3    3  502    0  0.14009825712E+03 -0.24275716587E+03  0.89144238088E+03  0.93446673652E+03  0.00000000000E+00 0.  1.
</event>
<event>
 7    1  0.4894942E-006  0.1023543E+04  0.7818608E-02  0.9144314E-01
         -4   -1    0    0    0  501 -0.00000000000E+00  0.00000000000E+00  0.35373062924E+03  0.35373062924E+03  0.00000000000E+00 0. -1.
          2   -1    0    0  501    0  0.00000000000E+00 -0.00000000000E+00 -0.23472845226E+04  0.23472845226E+04  0.00000000000E+00 0. -1.
   -9000010    2    1    2    0  502 -0.18866446234E+03  0.15102990273E+02 -0.74396026769E+03  0.12627524451E+04  0.10026188099E+04 0.  0.
        -13    1    1    2    0    0  0.20786700380E+03  0.56980540753E+00 -0.20452368611E+02  0.20887155502E+03  0.10566000000E+00 0.  1.
         13    1    3    3    0    0  0.25235199310E+03  0.37289024488E+03 -0.28824811566E+03  0.53461729348E+03  0.10566000000E+00 0. -1.
          2    1    1    2  502    0 -0.19202541466E+02 -0.15672795681E+02 -0.12291412571E+04  0.12293911517E+04  0.00000000000E+00 0. -1.
         -4    1    3    3    0  502 -0.44101645543E+03 -0.35778725461E+03 -0.45571215203E+03  0.72813515163E+03  0.00000000000E+00 0. -1.
</event>
<event>
 7    1  0.4894942E-006  0.1400924E+04  0.7818608E-02  0.8551568E-01
         -4   -1    0    0    0  501 -0.00000000000E+00  0.00000000000E+00  0.25114405441E+04  0.25114405441E+04  0.00000000000E+00 0. -1.
          2   -1    0    0  501    0  0.00000000000E+00 -0.00000000000E+00 -0.12627385849E+04  0.12627385849E+04  0.00000000000E+00 0. -1.
   -9000010    2    1    2    0  502 -0.15416719701E+01 -0.10413891243E+04  0.11948102770E+04  0.18831247938E+04  0.10169039807E+04 0.  0.
        -13    1    1    2    0    0 -0.36123528782E+03  0.86879625400E+03  0.67032637560E+03  0.11552641798E+04  0.10566000000E+00 0.  1.
         13    1    3    3    0    0  0.11522575178E+03 -0.11112296785E+04  0.59041743483E+03  0.12636063987E+04  0.10566000000E+00 0. -1.
          2    1    1    2  502    0  0.36277695979E+03  0.17259287035E+03 -0.61643469347E+03  0.73579015539E+03  0.00000000000E+00 0. -1.
         -4    1    3    3    0  502 -0.11676742375E+03  0.69840554136E+02  0.60439284219E+03  0.61951839516E+03  0.00000000000E+00 0. -1.
</event>
<event>
 6    1  0.4894942E-006  0.6715496E+03  0.7818608E-02  0.9491147E-01
          2   -1    0    0  502    0  0.00000000000E+00  0.00000000000E+00  0.89084283950E+03  0.89084283950E+03  0.00000000000E+00 0.  1.
          4   -1    0    0  501    0 -0.00000000000E+00 -0.00000000000E+00 -0.37490649738E+03  0.37490649738E+03  0.00000000000E+00 0.  1.
        -13    1    1    2    0    0 -0.36055602763E+02  0.16393802044E+03 -0.13457498532E+03  0.21514208996E+03  0.10566000000E+00 0.  1.
         13    1    1    2    0    0  0.18596279251E+03 -0.64079072222E+02 -0.50843405396E+02  0.20315843751E+03  0.10566000000E+00 0. -1.
          2    1    1    2  501    0 -0.17330159191E+03  0.14327116020E+03  0.26644788315E+03  0.34864672885E+03  0.00000000000E+00 0.  1.
          4    1    1    2  502    0  0.23394402164E+02 -0.24313010841E+03  0.43490684969E+03  0.49880208056E+03  0.00000000000E+00 0.  1.
</event>
<event>
 7    1  0.4894942E-006  0.9945327E+03  0.7818608E-02  0.9411563E-01
         -4   -1    0    0    0  501 -0.00000000000E+00  0.00000000000E+00  0.19047223137E+04  0.19047223137E+04  0.00000000000E+00 0. -1.
          2   -1    0    0  501    0  0.00000000000E+00 -0.00000000000E+00 -0.97101812865E+03  0.97101812865E+03  0.00000000000E+00 0.  1.
   -9000010    2    1    2    0  502 -0.68133288561E+02  0.58422942535E+02  0.16044063789E+04  0.18880395059E+04  0.99122044076E+03 0.  0.
        -13    1    1    2    0    0  0.65323016214E+02 -0.47040943693E+02  0.14823391344E+03  0.16868091501E+03  0.10566000000E+00 0.  1.
         13    1    3    3    0    0 -0.29467139915E+03  0.44648317498E+03  0.10097330331E+04  0.11426894890E+04  0.10566000000E+00 0. -1.
          2    1    1    2  502    0  0.28102723467E+01 -0.11381998843E+02 -0.81893610731E+03  0.81902002136E+03  0.00000000000E+00 0.  1.
         -4    1    3    3    0  502  0.22653811059E+03 -0.38806023244E+03  0.59467334579E+03  0.74535001694E+03  0.00000000000E+00 0. -1.
</event>
<event>
 7    1  0.4894942E-006  0.9593761E+03  0.7818608E-02  0.9138507E-01
         -4   -1    0    0    0  501 -0.00000000000E+00  0.00000000000E+00  0.15395688542E+04  0.15395688542E+04  0.00000000000E+00 0. -1.
          2   -1    0    0  501    0  0.00000000000E+00 -0.00000000000E+00 -0.41207222052E+03  0.41207222052E+03  0.00000000000E+00 0. -1.
   -9000010    2    1    2    0  502  0.25147461153E+00 -0.28563713378E+03  0.10687434640E+04  0.14417937251E+04  0.92464475260E+03 0.  0.
        -13    1    1    2    0    0 -0.12614008450E+02  0.24688857628E+03  0.22768654878E+03  0.33608668222E+03  0.10566000000E+00 0.  1.
         13    1    3    3    0    0  0.37553842780E+03 -0.37884601082E+03  0.39061158833E+03  0.66115870619E+03  0.10566000000E+00 0. -1.
          2    1    1    2  502    0  0.12362533839E+02  0.38748557500E+02 -0.16893337910E+03  0.17376066737E+03  0.00000000000E+00 0. -1.
         -4    1    3    3    0  502 -0.37528695319E+03  0.93208877034E+02  0.67813187565E+03  0.78063501892E+03  0.00000000000E+00 0. -1.
</event>
<event>
 7    1  0.4894942E-006  0.1063771E+04  0.7818608E-02  0.9228501E-01
         -4   -1    0    0    0  501 -0.00000000000E+00  0.00000000000E+00  0.75443205449E+03  0.75443205449E+03  0.00000000000E+00 0. -1.
          4   -1    0    0  501    0  0.00000000000E+00 -0.00000000000E+00 -0.12249590326E+04  0.12249590326E+04  0.00000000000E+00 0.  1.
   -9000010    2    1    2    0  502  0.51319180912E+02 -0.13412956205E+03  0.25482381596E+03  0.10952996729E+04  0.10555196817E+04 0.  0.
        -13    1    1    2    0    0 -0.11322294475E+03  0.71924097049E+02  0.18212690294E+02  0.13536699821E+03  0.10566000000E+00 0.  1.
         13    1    3    3    0    0 -0.43808425505E+03 -0.65473279001E+02  0.38209411609E+03  0.58497905048E+03  0.10566000000E+00 0. -1.
          4    1    1    2  502    0  0.61903763836E+02  0.62205464999E+02 -0.74356348432E+03  0.74872441597E+03  0.00000000000E+00 0.  1.
         -4    1    3    3    0  502  0.48940343596E+03 -0.68656283047E+02 -0.12727030013E+03  0.51032062238E+03  0.00000000000E+00 0. -1.
</event>
<event>
 7    1  0.4894942E-006  0.1431070E+04  0.7818608E-02  0.9239201E-01
         -4   -1    0    0    0  501 -0.00000000000E+00  0.00000000000E+00  0.97296301398E+03  0.97296301398E+03  0.00000000000E+00 0. -1.
          2   -1    0    0  501    0  0.00000000000E+00 -0.00000000000E+00 -0.21697133593E+04  0.21697133593E+04  0.00000000000E+00 0. -1.
   -9000010    2    1    2    0  502  0.11804833897E+03 -0.10685299792E+04  0.88373665224E+02  0.14538346763E+04  0.97474798521E+03 0.  0.
        -13    1    1    2    0    0  0.35026722879E+02  0.38603993655E+02 -0.39884980212E+02  0.65635070293E+02  0.10566000000E+00 0.  1.
         13    1    3    3    0    0  0.46213027259E+03 -0.58565681113E+03  0.32718868348E+03  0.81462306316E+03  0.10566000000E+00 0. -1.
          2    1    1    2  502    0 -0.15307506184E+03  0.10299259855E+04 -0.12452390303E+04  0.16232066266E+04  0.00000000000E+00 0. -1.
         -4    1    3    3    0  502 -0.34408193363E+03 -0.48287316803E+03 -0.23881501826E+03  0.63921161316E+03  0.00000000000E+00 0. -1.
</event>
<event>
 7    1  0.4894942E-006  0.1078875E+04  0.7818608E-02  0.8922167E-01
          2   -1    0    0  502    0  0.00000000000E+00  0.00000000000E+00  0.11741437591E+04  0.11741437591E+04  0.00000000000E+00 0.  1.
          4   -1    0    0  501    0 -0.00000000000E+00 -0.00000000000E+00 -0.14115686179E+04  0.14115686179E+04  0.00000000000E+00 0.  1.
    9000010    2    1    2  502    0  0.32009945477E+03 -0.30271450322E+03 -0.55943145684E+03  0.12193498892E+04  0.98982365401E+03 0.  0.
        -13    1    3    3    0    0  0.64774281718E+03 -0.33482487122E+03 -0.25940256367E+03  0.77393032813E+03  0.10566000000E+00 0.  1.
         13    1    1    2    0    0 -0.30946261476E+03  0.29307294717E+03 -0.43512683417E+03  0.60909296111E+03  0.10566000000E+00 0. -1.
          2    1    1    2  501    0 -0.10636840010E+02  0.96415560423E+01  0.75713343221E+03  0.75726952674E+03  0.00000000000E+00 0.  1.
          4    1    3    3  502    0 -0.32764336241E+03  0.32110368008E+02 -0.30002889317E+03  0.44541956109E+03  0.00000000000E+00 0.  1.
</event>
<event>
 7    1  0.4894942E-006  0.1005455E+04  0.7818608E-02  0.9185135E-01
          2   -1    0    0  502    0  0.00000000000E+00  0.00000000000E+00  0.15270510958E+04  0.15270510958E+04  0.00000000000E+00 0. -1.
          4   -1    0    0  501    0 -0.00000000000E+00 -0.00000000000E+00 -0.75954148645E+03  0.75954148645E+03  0.00000000000E+00 0.  1.
    9000010    2    1    2  502    0 -0.12088533473E+03  0.32791971937E+02  0.17802714866E+03  0.10119372814E+04  0.98824835859E+03 0.  0.
        -13    1    3    3    0    0 -0.21601809703E+03  0.32037013387E+02  0.56904628018E+03  0.60951117186E+03  0.10566000000E+00 0.  1.
         13    1    1    2    0    0  0.17592561820E+03  0.68886716666E+02 -0.31256467521E+03  0.36522854519E+03  0.10566000000E+00 0. -1.
          2    1    1    2  501    0 -0.55040283463E+02 -0.10167868860E+03  0.90204713587E+03  0.90942675562E+03  0.00000000000E+00 0. -1.
          4    1    3    3  502    0  0.95132762299E+02  0.75495855017E+00 -0.39101913152E+03  0.40242610954E+03  0.00000000000E+00 0.  1.
</event>
<event>
 7    1  0.4894942E-006  0.1234978E+04  0.7818608E-02  0.8952842E-01
          2   -1    0    0  502    0  0.00000000000E+00  0.00000000000E+00  0.21528328507E+04  0.21528328507E+04  0.00000000000E+00 0.  1.
          4   -1    0    0  501    0 -0.00000000000E+00 -0.00000000000E+00 -0.85731047279E+03  0.85731047279E+03  0.00000000000E+00 0.  1.
    9000010    2    1    2  502    0 -0.25748052244E+02 -0.74432105327E+03 -0.37561672870E+02  0.13163821207E+04  0.10847922455E+04 0.  0.
        -13    1    3    3    0    0 -0.13907336930E+03 -0.90118913144E+03 -0.32656510377E+03  0.96857009599E+03  0.10566000000E+00 0.  1.
         13    1    1    2    0    0 -0.15918959364E+03  0.19574392032E+03  0.13371566822E+02  0.25265751331E+03  0.10566000000E+00 0. -1.
          2    1    1    2  501    0  0.18493764589E+03  0.54857713295E+03  0.13197124840E+04  0.14411036895E+04  0.00000000000E+00 0.  1.
          4    1    3    3  502    0  0.11332531705E+03  0.15686807817E+03  0.28900343090E+03  0.34781202467E+03  0.00000000000E+00 0.  1.
</event>
<event>
 7    1  0.4894942E-006  0.9456843E+03  0.7818608E-02  0.9100265E-01
          4   -1    0    0  501    0 -0.00000000000E+00  0.00000000000E+00  0.24641187835E+04  0.24641187835E+04  0.00000000000E+00 0.  1.
          2   -1    0    0  502    0  0.00000000000E+00 -0.00000000000E+00 -0.21666953758E+04  0.21666953758E+04  0.00000000000E+00 0.  1.
    9000010    2    1    2  502    0 -0.43980808902E+02 -0.26213821954E+03  0.10806825585E+04  0.14270299633E+04  0.89324630771E+03 0.  0.
        -13    1    3    3    0    0 -0.88569834484E+02  0.18991754863E+03 -0.43958583063E+02  0.21411599438E+03  0.10566000000E+00 0.  1.
         13    1    1    2    0    0  0.10430996226E+03  0.29859160019E+03  0.11889577356E+04  0.12303080997E+04  0.10566000000E+00 0. -1.
          2    1    1    2  501    0 -0.60329153357E+02 -0.36453380648E+02 -0.19722168864E+04  0.19734760963E+04  0.00000000000E+00 0.  1.
          4    1    3    3  502    0  0.44589025582E+02 -0.45205576817E+03  0.11246411416E+04  0.12129139689E+04  0.00000000000E+00 0.  1.
</event>
<event>
 7    1  0.4894942E-006  0.9939140E+03  0.7818608E-02  0.9208813E-01
         -4   -1    0    0    0  501  0.00000000000E+00  0.00000000000E+00  0.31636134538E+03  0.31636134538E+03  0.00000000000E+00 0.  1.
         -4   -1    0    0    0  502 -0.00000000000E+00 -0.00000000000E+00 -0.27230106489E+04  0.27230106489E+04  0.00000000000E+00 0. -1.
   -9000010    2    1    2    0  501 -0.17853926969E+03 -0.36398761520E+02 -0.23095574844E+04  0.25148604397E+04  0.97839977336E+03 0.  0.
        -13    1    1    2    0    0  0.17186466258E+03  0.22250963566E+02 -0.28629643250E+03  0.33466136026E+03  0.10566000000E+00 0.  1.
         13    1    3    3    0    0 -0.45165943888E+03  0.30506947361E+03 -0.10773799708E+04  0.12073985444E+04  0.10566000000E+00 0. -1.
         -4    1    3    3    0  501  0.27312016919E+03 -0.34146823514E+03 -0.12321775136E+04  0.13074618952E+04  0.00000000000E+00 0. -1.
         -4    1    1    2    0  502  0.66746071120E+01  0.14147797955E+02  0.18920461340E+03  0.18985019436E+03  0.00000000000E+00 0.  1.
</event>
<event>
 7    1  0.4894942E-006  0.1117295E+04  0.7818608E-02  0.8870083E-01
          1   -1    0    0  501    0  0.00000000000E+00  0.00000000000E+00  0.56724315394E+03  0.56724315394E+03  0.00000000000E+00 0.  1.
         -4   -1    0    0    0  501 -0.00000000000E+00 -0.00000000000E+00 -0.16222200981E+04  0.16222200981E+04  0.00000000000E+00 0. -1.
   -9000010    2    1    2    0  502 -0.50484702058E+03  0.27089533356E+02 -0.10335848253E+04  0.15304633424E+04  0.10091660390E+04 0.  0.
        -13    1    1    2    0    0  0.45933062774E+03 -0.60419431579E+02 -0.17509486490E+03  0.49527099266E+03  0.10566000000E+00 0.  1.
         13    1    3    3    0    0 -0.61072775695E+03 -0.22335865680E+03 -0.10740369862E+04  0.12555608076E+04  0.10566000000E+00 0. -1.
          1    1    1    2  502    0  0.45516392837E+02  0.33329898222E+02  0.15370274605E+03  0.16372891704E+03  0.00000000000E+00 0.  1.
         -4    1    3    3    0  502  0.10588073638E+03  0.25044819016E+03  0.40452160899E+02  0.27490253475E+03  0.00000000000E+00 0. -1.
</event>
<event>
 7    1  0.4894942E-006  0.1071110E+04  0.7818608E-02  0.8959679E-01
          1   -1    0    0  501    0  0.00000000000E+00  0.00000000000E+00  0.89934587466E+03  0.89934587466E+03  0.00000000000E+00 0. -1.
         -4   -1    0    0    0  501 -0.00000000000E+00 -0.00000000000E+00 -0.15204259959E+04  0.15204259959E+04  0.00000000000E+00 0. -1.
   -9000010    2    1    2    0  502  0.16459448482E+03  0.31570145435E+03 -0.62954206788E+03  0.12365001980E+04  0.10029211194E+04 0.  0.
        -13    1    1    2    0    0 -0.20587978878E+03 -0.31985904576E+03 -0.52493163424E+03  0.64826655658E+03  0.10566000000E+00 0.  1.
         13    1    3    3    0    0 -0.37317922943E+03  0.16854266517E+03 -0.53062612129E+03  0.67024880381E+03  0.10566000000E+00 0. -1.
          1    1    1    2  502    0  0.41285303964E+02  0.41575914071E+01  0.53339358092E+03  0.53500511592E+03  0.00000000000E+00 0. -1.
         -4    1    3    3    0  502  0.53777371425E+03  0.14715878918E+03 -0.98915946593E+02  0.56625139422E+03  0.00000000000E+00 0. -1.
</event>
<event>
 7    1  0.4894942E-006  0.1016367E+04  0.7818608E-02  0.9049925E-01
          2   -1    0    0  501    0  0.00000000000E+00  0.00000000000E+00  0.16286524281E+04  0.16286524281E+04  0.00000000000E+00 0. -1.
         -4   -1    0    0    0  501 -0.00000000000E+00 -0.00000000000E+00 -0.61024069026E+03  0.61024069026E+03  0.00000000000E+00 0. -1.
   -9000010    2    1    2    0  502 -0.32000612343E+03  0.24052108543E+02  0.22701831157E+03  0.10459975436E+04  0.96932508713E+03 0.  0.
        -13    1    1    2    0    0  0.30143553799E+03 -0.29748067013E+02 -0.86326074956E+02  0.31496116179E+03  0.10566000000E+00 0.  1.
         13    1    3    3    0    0  0.29712712450E+02 -0.17143281147E+03  0.52085711435E+03  0.54914861273E+03  0.10566000000E+00 0. -1.
          2    1    1    2  502    0  0.18570585444E+02  0.56959584697E+01  0.87771950120E+03  0.87793441291E+03  0.00000000000E+00 0. -1.
         -4    1    3    3    0  502 -0.34971883588E+03  0.19548492001E+03 -0.29383880278E+03  0.49684893091E+03  0.00000000000E+00 0. -1.
</event>
<event>
 7    1  0.4894942E-006  0.1136331E+04  0.7818608E-02  0.8799511E-01
          4   -1    0    0  501    0 -0.00000000000E+00  0.00000000000E+00  0.16191434839E+04  0.16191434839E+04  0.00000000000E+00 0.  1.
          2   -1    0    0  502    0  0.00000000000E+00 -0.00000000000E+00 -0.23953944066E+04  0.23953944066E+04  0.00000000000E+00 0. -1.
    9000010    2    1    2  502    0 -0.41510820819E+03 -0.54932050256E+03  0.37443937840E+03  0.12367767802E+04  0.95673617930E+03 0.  0.
        -13    1    3    3    0    0  0.29000147030E+02  0.17698672561E+03 -0.15262763641E+03  0.23550056503E+03  0.10566000000E+00 0.  1.
         13    1    1    2    0    0  0.25001707238E+03  0.54212273978E+03  0.69983204017E+03  0.91987526170E+03  0.10566000000E+00 0. -1.
          2    1    1    2  501    0  0.16509113580E+03  0.71977627786E+01 -0.18505223413E+04  0.18578858486E+04  0.00000000000E+00 0. -1.
          4    1    3    3  502    0 -0.44410835522E+03 -0.72630722818E+03  0.52706701480E+03  0.10012762151E+04  0.00000000000E+00 0.  1.
</event>
<event>
 7    1  0.4894942E-006  0.1084635E+04  0.7818608E-02  0.8924694E-01
         -4   -1    0    0    0  501 -0.00000000000E+00  0.00000000000E+00  0.75521154246E+03  0.75521154246E+03  0.00000000000E+00 0. -1.
          1   -1    0    0  501    0  0.00000000000E+00 -0.00000000000E+00 -0.17567198977E+04  0.17567198977E+04  0.00000000000E+00 0.  1.
   -9000010    2    1    2    0  502 -0.37209669862E+03 -0.24362484068E+03  0.78552843236E+02  0.10980257579E+04  0.10008401469E+04 0.  0.
        -13    1    1    2    0    0  0.37089883856E+03  0.16680385071E+03 -0.84478216016E+02  0.41536255633E+03  0.10566000000E+00 0.  1.
         13    1    3    3    0    0 -0.73819590518E+02 -0.10551032850E+03  0.52672397515E+03  0.54223603581E+03  0.10566000000E+00 0. -1.
          1    1    1    2  502    0  0.11978600582E+01  0.76820989972E+02 -0.99558298250E+03  0.99854312597E+03  0.00000000000E+00 0.  1.
         -4    1    3    3    0  502 -0.29827710810E+03 -0.13811451218E+03 -0.44817113192E+03  0.55578972209E+03  0.00000000000E+00 0. -1.
</event>
<event>
 7    1  0.4894942E-006  0.9627336E+03  0.7818608E-02  0.9380561E-01
         -4   -1    0    0    0  501 -0.00000000000E+00  0.00000000000E+00  0.80512317055E+03  0.80512317055E+03  0.00000000000E+00 0. -1.
          4   -1    0    0  501    0  0.00000000000E+00 -0.00000000000E+00 -0.12052370953E+04  0.12052370953E+04  0.00000000000E+00 0. -1.
   -9000010    2    1    2    0  502 -0.66526151294E+02  0.25274694462E+02 -0.33600849237E+03  0.10171311230E+04  0.95738679512E+03 0.  0.
        -13    1    1    2    0    0  0.64152683127E+02  0.77113805506E+02  0.45407592913E+03  0.46502372663E+03  0.10566000000E+00 0.  1.
         13    1    3    3    0    0  0.37544543143E+03 -0.18559199413E+03 -0.32017606148E+03  0.52717775160E+03  0.10566000000E+00 0. -1.
          4    1    1    2  502    0  0.23734681668E+01 -0.10238849997E+03 -0.51818136153E+03  0.52820541621E+03  0.00000000000E+00 0. -1.
         -4    1    3    3    0  502 -0.44197158273E+03  0.21086668860E+03 -0.15832430892E+02  0.48995337142E+03  0.00000000000E+00 0. -1.
</event>
<event>
 7    1  0.4894942E-006  0.1180949E+04  0.7818608E-02  0.8807556E-01
          2   -1    0    0  501    0  0.00000000000E+00  0.00000000000E+00  0.26759398109E+04  0.26759398109E+04  0.00000000000E+00 0.  1.
         -4   -1    0    0    0  501 -0.00000000000E+00 -0.00000000000E+00 -0.14431370485E+04  0.14431370485E+04  0.00000000000E+00 0. -1.
   -9000010    2    1    2    0  502  0.10247923211E+03 -0.93126806518E+02  0.15899920381E+02  0.10191349430E+04  0.10095586310E+04 0.  0.
        -13    1    1    2    0    0  0.46672440406E+03 -0.24674080272E+03 -0.81029008617E+03  0.96710016441E+03  0.10566000000E+00 0.  1.
         13    1    3    3    0    0  0.11194905925E+00 -0.41033896619E+03 -0.33899407557E+03  0.53225470795E+03  0.10566000000E+00 0. -1.
          2    1    1    2  502    0 -0.56920363618E+03  0.33986760924E+03  0.20271929282E+04  0.21328417520E+04  0.00000000000E+00 0.  1.
         -4    1    3    3    0  502  0.10236728305E+03  0.31721215967E+03  0.35489399595E+03  0.48688023501E+03  0.00000000000E+00 0. -1.
</event>
<event>
 7    1  0.4894942E-006  0.1035503E+04  0.7818608E-02  0.9095344E-01
          1   -1    0    0  501    0  0.00000000000E+00  0.00000000000E+00  0.55072015488E+03  0.55072015488E+03  0.00000000000E+00 0. -1.
         -4   -1    0    0    0  501 -0.00000000000E+00 -0.00000000000E+00 -0.21198419360E+04  0.21198419360E+04  0.00000000000E+00 0. -1.
   -9000010    2    1    2    0  502  0.10548908901E+03 -0.13220175272E+03 -0.65390723731E+03  0.12125571910E+04  0.10070228474E+04 0.  0.
        -13    1    1    2    0    0 -0.11546337756E+03  0.21560884732E+03 -0.11671155487E+04  0.11924670569E+04  0.10566000000E+00 0.  1.
         13    1    3    3    0    0  0.43648523791E+03  0.93141893417E+02 -0.67766140378E+03  0.81143068994E+03  0.10566000000E+00 0. -1.
          1    1    1    2  502    0  0.99742885463E+01 -0.83407094603E+02  0.25190100481E+03  0.26553784304E+03  0.00000000000E+00 0. -1.
         -4    1    3    3    0  502 -0.33099614890E+03 -0.22534364614E+03  0.23754166478E+02  0.40112650108E+03  0.00000000000E+00 0. -1.
</event>
<event>
 7    1  0.4894942E-006  0.9992504E+03  0.7818608E-02  0.9306859E-01
         -4   -1    0    0    0  501 -0.00000000000E+00  0.00000000000E+00  0.10277439919E+04  0.10277439919E+04  0.00000000000E+00 0. -1.
          1   -1    0    0  501    0  0.00000000000E+00 -0.00000000000E+00 -0.15707096682E+04  0.15707096682E+04  0.00000000000E+00 0. -1.
   -9000010    2    1    2    0  502  0.14012785411E+03 -0.24329595026E+02  0.47543703257E+03  0.11022110318E+04  0.98417531059E+03 0.  0.
        -13    1    1    2    0    0  0.57376440600E+01  0.11816161632E+03  0.21784160653E+03  0.24789123589E+03  0.10566000000E+00 0.  1.
         13    1    3    3    0    0  0.10129380333E+03  0.19386024744E+03 -0.25671020728E+03  0.33725713012E+03  0.10566000000E+00 0. -1.
          1    1    1    2  502    0 -0.14586549817E+03 -0.93832021289E+02 -0.12362443154E+04  0.12483513925E+04  0.00000000000E+00 0. -1.
         -4    1    3    3    0  502  0.38834050783E+02 -0.21818984247E+03  0.73214723985E+03  0.76495390167E+03  0.00000000000E+00 0. -1.
</event>
<event>
 7    1  0.4894942E-006  0.1025051E+04  0.7818608E-02  0.9210072E-01
         -4   -1    0    0    0  501 -0.00000000000E+00  0.00000000000E+00  0.16945903139E+04  0.16945903139E+04  0.00000000000E+00 0. -1.
          1   -1    0    0  501    0  0.00000000000E+00 -0.00000000000E+00 -0.10611039894E+04  0.10611039894E+04  0.00000000000E+00 0. -1.
   -9000010    2    1    2    0  502 -0.19625888553E+03 -0.40510590101E+02  0.14649484794E+04  0.17921438868E+04  0.10126929474E+04 0.  0.
        -13    1    1    2    0    0  0.12576094121E+03  0.63755633532E+02 -0.12853776375E+02  0.14158328246E+03  0.10566000000E+00 0.  1.
         13    1    3    3    0    0 -0.53497828290E+03 -0.23884380781E+03  0.11433104942E+04  0.12846816823E+04  0.10566000000E+00 0. -1.
          1    1    1    2  502    0  0.70497944324E+02 -0.23245043431E+02 -0.81860837849E+03  0.82196713409E+03  0.00000000000E+00 0. -1.
         -4    1    3    3    0  502  0.33871939737E+03  0.19833321771E+03  0.32163798521E+03  0.50746220444E+03  0.00000000000E+00 0. -1.
</event>
<event>
 7    1  0.4894942E-006  0.1004776E+04  0.7818608E-02  0.9373909E-01
          4   -1    0    0  501    0 -0.00000000000E+00  0.00000000000E+00  0.10929156086E+04  0.10929156086E+04  0.00000000000E+00 0.  1.
          2   -1    0    0  502    0  0.00000000000E+00 -0.00000000000E+00 -0.26193189939E+04  0.26193189939E+04  0.00000000000E+00 0. -1.
    9000010    2    1    2  502    0  0.59102043256E+02  0.46217853949E+02  0.28885925241E+03  0.10442521652E+04  0.10006966450E+04 0.  0.
        -13    1    3    3    0    0  0.39197796564E+03  0.95373040768E+02 -0.20040451300E+03  0.45044946714E+03  0.10566000000E+00 0.  1.
         13    1    1    2    0    0 -0.87195795719E+02  0.26236270630E+02  0.42081546008E+03  0.43055442315E+03  0.10566000000E+00 0. -1.
          2    1    1    2  501    0  0.28093752463E+02 -0.72454124579E+02 -0.22360780978E+04  0.22374280141E+04  0.00000000000E+00 0. -1.
          4    1    3    3  502    0 -0.33287592238E+03 -0.49155186819E+02  0.48926376541E+03  0.59380269807E+03  0.00000000000E+00 0.  1.
</event>
<event>
 7    1  0.4894942E-006  0.1192991E+04  0.7818608E-02  0.8748852E-01
         -4   -1    0    0    0  501 -0.00000000000E+00  0.00000000000E+00  0.74315630585E+03  0.74315630585E+03  0.00000000000E+00 0. -1.
          2   -1    0    0  501    0  0.00000000000E+00 -0.00000000000E+00 -0.22655366657E+04  0.22655366657E+04  0.00000000000E+00 0. -1.
   -9000010    2    1    2    0  502  0.30448241259E+03  0.57143231798E+03 -0.61791338993E+03  0.13387093704E+04  0.99553070636E+03 0.  0.
        -13    1    1    2    0    0 -0.29983177487E+03 -0.58827799103E+03  0.97869999702E+02  0.66749429657E+03  0.10566000000E+00 0.  1.
         13    1    3    3    0    0 -0.19385341228E+03  0.48189460007E+03  0.25402752869E+02  0.52004505770E+03  0.10566000000E+00 0. -1.
          2    1    1    2  502    0 -0.46506377182E+01  0.16845673047E+02 -0.10023369696E+04  0.10024893046E+04  0.00000000000E+00 0. -1.
         -4    1    3    3    0  502  0.49833582487E+03  0.89537717919E+02 -0.64331614280E+03  0.81866431268E+03  0.00000000000E+00 0. -1.
</event>
<event>
 7    1  0.4894942E-006  0.1015303E+04  0.7818608E-02  0.9343659E-01
          1   -1    0    0  501    0  0.00000000000E+00  0.00000000000E+00  0.16118236950E+04  0.16118236950E+04  0.00000000000E+00 0. -1.
         -4   -1    0    0    0  501 -0.00000000000E+00 -0.00000000000E+00 -0.24619537015E+03  0.24619537015E+03  0.00000000000E+00 0. -1.
   -9000010    2    1    2    0  502  0.11923428209E+03 -0.95209699602E+01  0.10694656077E+04  0.14762338864E+04  0.10105455647E+04 0.  0.
        -13    1    1    2    0    0 -0.94230956542E+02  0.24240285456E+02  0.14195331016E+02  0.98328954009E+02  0.10566000000E+00 0.  1.
         13    1    3    3    0    0 -0.28659878610E+03  0.32833772176E+03  0.72448462377E+03  0.84547176474E+03  0.10566000000E+00 0. -1.
          1    1    1    2  502    0 -0.25003325544E+02 -0.14719315495E+02  0.28196738604E+03  0.28345622471E+03  0.00000000000E+00 0. -1.
         -4    1    3    3    0  502  0.40583306819E+03 -0.33785869172E+03  0.34498098398E+03  0.63076212165E+03  0.00000000000E+00 0. -1.
</event>
<event>
 7    1  0.4894942E-006  0.1014576E+04  0.7818608E-02  0.9477508E-01
          1   -1    0    0  501    0  0.00000000000E+00  0.00000000000E+00  0.12505120729E+04  0.12505120729E+04  0.00000000000E+00 0. -1.
         -4   -1    0    0    0  501 -0.00000000000E+00 -0.00000000000E+00 -0.40070337509E+03  0.40070337509E+03  0.00000000000E+00 0. -1.
   -9000010    2    1    2    0  502 -0.57611499972E+02  0.10905153963E+03  0.37284794522E+03  0.10827998878E+04  0.10090731805E+04 0.  0.
        -13    1    1    2    0    0 -0.30758614578E+02 -0.51453504517E+02 -0.17801490594E+02  0.62533668765E+02  0.10566000000E+00 0.  1.
         13    1    3    3    0    0 -0.13742605173E+03  0.15350268741E+03 -0.32183551741E+03  0.38213493188E+03  0.10566000000E+00 0. -1.
          1    1    1    2  502    0  0.88370114550E+02 -0.57598035115E+02  0.49476224317E+03  0.50588189141E+03  0.00000000000E+00 0. -1.
         -4    1    3    3    0  502  0.79814551760E+02 -0.44451147774E+02  0.69468346263E+03  0.70066495592E+03  0.00000000000E+00 0. -1.
</event>
<event>
 7    1  0.4894942E-006  0.1155932E+04  0.7818608E-02  0.8812270E-01
         -4   -1    0    0    0  501 -0.00000000000E+00  0.00000000000E+00  0.10878705111E+04  0.10878705111E+04  0.00000000000E+00 0. -1.
          1   -1    0    0  501    0  0.00000000000E+00 -0.00000000000E+00 -0.11432402925E+04  0.11432402925E+04  0.00000000000E+00 0.  1.
   -9000010    2    1    2    0  502  0.52987135172E+03 -0.22787046014E+03  0.16234160069E+02  0.11681534496E+04  0.10156920488E+04 0.  0.
        -13    1    1    2    0    0 -0.51298558270E+03  0.18565896345E+03  0.34395085705E+03  0.64492298919E+03  0.10566000000E+00 0.  1.
         13    1    3    3    0    0 -0.22725215663E+03 -0.18848657838E+03 -0.22647451018E+03  0.37210408201E+03  0.10566000000E+00 0. -1.
          1    1    1    2  502    0 -0.16885769024E+02  0.42211496683E+02 -0.41555479847E+03  0.41803436483E+03  0.00000000000E+00 0.  1.
         -4    1    3    3    0  502  0.75712350835E+03 -0.39383881758E+02  0.24270867025E+03  0.79604936760E+03  0.00000000000E+00 0. -1.
</event>
<event>
 7    1  0.4894942E-006  0.9968032E+03  0.7818608E-02  0.9338996E-01
          4   -1    0    0  502    0  0.00000000000E+00  0.00000000000E+00  0.49339720981E+03  0.49339720981E+03  0.00000000000E+00 0.  1.
          4   -1    0    0  501    0 -0.00000000000E+00 -0.00000000000E+00 -0.10272310612E+04  0.10272310612E+04  0.00000000000E+00 0.  1.
    9000010    2    1    2  502    0 -0.72169510692E+02 -0.65807985729E+02 -0.72571719920E+03  0.12323455143E+04  0.99119669299E+03 0.  0.
        -13    1    3    3    0    0  0.44347227125E+03  0.86370580856E+02 -0.40215618052E+03  0.60486125459E+03  0.10566000000E+00 0.  1.
         13    1    1    2    0    0  0.12291613554E+03 -0.10948196031E+01  0.15153195206E+03  0.19511924217E+03  0.10566000000E+00 0. -1.
          4    1    1    2  501    0 -0.50746624847E+02  0.66902805332E+02  0.40351395760E+02  0.93163514503E+02  0.00000000000E+00 0.  1.
          4    1    3    3  502    0 -0.51564178194E+03 -0.15217856659E+03 -0.32356101868E+03  0.62748425974E+03  0.00000000000E+00 0.  1.
</event>
<event>
 7    1  0.4894942E-006  0.1060737E+04  0.7818608E-02  0.8962406E-01
         -4   -1    0    0    0  501 -0.00000000000E+00  0.00000000000E+00  0.21574051661E+03  0.21574051661E+03  0.00000000000E+00 0. -1.
          2   -1    0    0  501    0  0.00000000000E+00 -0.00000000000E+00 -0.41515290375E+04  0.41515290375E+04  0.00000000000E+00 0. -1.
   -9000010    2    1    2    0  502  0.20316678751E+03 -0.29691140068E+03 -0.19917612079E+04  0.22527944112E+04  0.98921020333E+03 0.  0.
        -13    1    1    2    0    0 -0.16187865071E+03  0.35340970361E+03 -0.36286499012E+03  0.53176510640E+03  0.10566000000E+00 0.  1.
         13    1    3    3    0    0 -0.26352661060E+03  0.22709298132E+03 -0.58170885540E+03  0.67779252008E+03  0.10566000000E+00 0. -1.
          2    1    1    2  502    0 -0.41288136799E+02 -0.56498302931E+02 -0.15811623229E+04  0.15827100366E+04  0.00000000000E+00 0. -1.
         -4    1    3    3    0  502  0.46669339811E+03 -0.52400438200E+03 -0.14100523525E+04  0.15750018911E+04  0.00000000000E+00 0. -1.
</event>
<event>
 7    1  0.4894942E-006  0.1087031E+04  0.7818608E-02  0.8911387E-01
          2   -1    0    0  501    0  0.00000000000E+00  0.00000000000E+00  0.64266069292E+03  0.64266069292E+03  0.00000000000E+00 0. -1.
         -4   -1    0    0    0  501 -0.00000000000E+00 -0.00000000000E+00 -0.28748104447E+04  0.28748104447E+04  0.00000000000E+00 0. -1.
   -9000010    2    1    2    0  502  0.35097403745E+03 -0.16212725738E+03 -0.14826714953E+04  0.18267361588E+04  0.99457639638E+03 0.  0.
        -13    1    1    2    0    0 -0.44676362520E+03  0.81299288671E+02 -0.11683600977E+04  0.12535041445E+04  0.10566000000E+00 0.  1.
         13    1    3    3    0    0  0.38400781138E+03 -0.20157320166E+03 -0.10255152629E+03  0.44565747108E+03  0.10566000000E+00 0. -1.
          2    1    1    2  502    0  0.95789587748E+02  0.80827968707E+02  0.41888184120E+03  0.43723083438E+03  0.00000000000E+00 0. -1.
         -4    1    3    3    0  502 -0.33033773922E+02  0.39445944278E+02 -0.13801199690E+04  0.13810786877E+04  0.00000000000E+00 0. -1.
</event>
<event>
 7    1  0.4894942E-006  0.1014496E+04  0.7818608E-02  0.9219023E-01
         -4   -1    0    0    0  501 -0.00000000000E+00  0.00000000000E+00  0.10570166179E+04  0.10570166179E+04  0.00000000000E+00 0. -1.
          2   -1    0    0  501    0  0.00000000000E+00 -0.00000000000E+00 -0.57194560242E+03  0.57194560242E+03  0.00000000000E+00 0. -1.
   -9000010    2    1    2    0  502 -0.14585067346E+03  0.34605080070E+02  0.52403761161E+03  0.11407372149E+04  0.10020958260E+04 0.  0.
        -13    1    1    2    0    0  0.15318870188E+03 -0.42189483626E+02  0.19639793047E+03  0.25262400751E+03  0.10566000000E+00 0.  1.
         13    1    3    3    0    0  0.12357429083E+03  0.47761491330E+03  0.22557990219E+03  0.54246927489E+03  0.10566000000E+00 0. -1.
          2    1    1    2  502    0 -0.73380284247E+01  0.75844035553E+01 -0.23536452660E+03  0.23560099792E+03  0.00000000000E+00 0. -1.
         -4    1    3    3    0  502 -0.26942496429E+03 -0.44300983323E+03  0.29845770942E+03  0.59826794000E+03  0.00000000000E+00 0. -1.
</event>
<event>
 7    1  0.4894942E-006  0.1081470E+04  0.7818608E-02  0.9276259E-01
          2   -1    0    0  502    0  0.00000000000E+00  0.00000000000E+00  0.92491383511E+03  0.92491383511E+03  0.00000000000E+00 0. -1.
          4   -1    0    0  501    0 -0.00000000000E+00 -0.00000000000E+00 -0.18071592141E+04  0.18071592141E+04  0.00000000000E+00 0.  1.
    9000010    2    1    2  502    0 -0.41802106135E+03 -0.13644638575E+03 -0.11987342543E+04  0.16354025548E+04  0.10218700895E+04 0.  0.
        -13    1    3    3    0    0 -0.23202443563E+03  0.20548713111E+03 -0.12069089830E+04  0.12460696626E+04  0.10566000000E+00 0.  1.
         13    1    1    2    0    0  0.71643760484E+02  0.76508847961E+02 -0.33793165769E+03  0.35381386161E+03  0.10566000000E+00 0. -1.
          2    1    1    2  501    0  0.34637730087E+03  0.59937537785E+02  0.65442053298E+03  0.74285663286E+03  0.00000000000E+00 0. -1.
          4    1    3    3  502    0 -0.18599662573E+03 -0.34193351685E+03  0.81747286545E+01  0.38933289216E+03  0.00000000000E+00 0.  1.
</event>
<event>
 7    1  0.4894942E-006  0.1077384E+04  0.7818608E-02  0.8939858E-01
         -4   -1    0    0    0  501 -0.00000000000E+00  0.00000000000E+00  0.10785640811E+04  0.10785640811E+04  0.00000000000E+00 0. -1.
          1   -1    0    0  501    0  0.00000000000E+00 -0.00000000000E+00 -0.74590001594E+03  0.74590001594E+03  0.00000000000E+00 0. -1.
   -9000010    2    1    2    0  502  0.25859441085E+03  0.25022282747E+03  0.32625419078E+03  0.11117868764E+04  0.10000728618E+04 0.  0.
        -13    1    1    2    0    0 -0.29033485156E+03 -0.29410491203E+03  0.23659759601E+03  0.47620421975E+03  0.10566000000E+00 0.  1.
         13    1    3    3    0    0  0.41522028988E+03 -0.26355593992E+03  0.29557467839E+03  0.57378918103E+03  0.10566000000E+00 0. -1.
          1    1    1    2  502    0  0.31740440711E+02  0.43882084566E+02 -0.23018772165E+03  0.23647300083E+03  0.00000000000E+00 0. -1.
         -4    1    3    3    0  502 -0.15662587903E+03  0.51377876738E+03  0.30679512390E+02  0.53799769542E+03  0.00000000000E+00 0. -1.
</event>
<event>
 7    1  0.4894942E-006  0.1072181E+04  0.7818608E-02  0.8935027E-01
          4   -1    0    0  502    0  0.00000000000E+00  0.00000000000E+00  0.17295294120E+04  0.17295294120E+04  0.00000000000E+00 0. -1.
          4   -1    0    0  501    0 -0.00000000000E+00 -0.00000000000E+00 -0.14493639208E+04  0.14493639208E+04  0.00000000000E+00 0.  1.
    9000010    2    1    2  502    0 -0.35875920210E+03 -0.23188306557E+03 -0.36917156661E+03  0.11385542208E+04  0.98870629957E+03 0.  0.
        -13    1    3    3    0    0  0.31620785764E+03 -0.55298101758E+02  0.49634450189E+02  0.32482130334E+03  0.10566000000E+00 0.  1.
         13    1    1    2    0    0  0.31624304969E+03  0.26601600089E+03 -0.63348550132E+03  0.75635842743E+03  0.10566000000E+00 0. -1.
          4    1    1    2  501    0  0.42516152417E+02 -0.34132935324E+02  0.12828225590E+04  0.12839806846E+04  0.00000000000E+00 0. -1.
          4    1    3    3  502    0 -0.67496705974E+03 -0.17658496381E+03 -0.41880601680E+03  0.81373291742E+03  0.00000000000E+00 0.  1.
</event>
<event>
 7    1  0.4894942E-006  0.1018639E+04  0.7818608E-02  0.9561504E-01
         -4   -1    0    0    0  501 -0.00000000000E+00  0.00000000000E+00  0.31392560258E+03  0.31392560258E+03  0.00000000000E+00 0. -1.
          2   -1    0    0  501    0  0.00000000000E+00 -0.00000000000E+00 -0.21394967685E+04  0.21394967685E+04  0.00000000000E+00 0.  1.
   -9000010    2    1    2    0  502  0.14247221025E+02 -0.14229178468E+03 -0.58829451253E+03  0.11773257844E+04  0.10097304758E+04 0.  0.
        -13    1    1    2    0    0 -0.42337946133E+02  0.10856136856E+02 -0.14639725880E+02  0.46094361131E+02  0.10566000000E+00 0.  1.
         13    1    3    3    0    0  0.87184825548E+02  0.41728198192E+03 -0.39406470794E+03  0.58052773530E+03  0.10566000000E+00 0. -1.
          2    1    1    2  502    0  0.28090725109E+02  0.13143564783E+03 -0.12226369275E+04  0.12300022255E+04  0.00000000000E+00 0.  1.
         -4    1    3    3    0  502 -0.72937604523E+02 -0.55957376660E+03 -0.19422980458E+03  0.59679804910E+03  0.00000000000E+00 0. -1.
</event>
<event>
 7    1  0.4894942E-006  0.1002334E+04  0.7818608E-02  0.9278327E-01
          1   -1    0    0  501    0  0.00000000000E+00  0.00000000000E+00  0.98848211036E+03  0.98848211036E+03  0.00000000000E+00 0. -1.
         -4   -1    0    0    0  501 -0.00000000000E+00 -0.00000000000E+00 -0.20275964042E+04  0.20275964042E+04  0.00000000000E+00 0. -1.
   -9000010    2    1    2    0  502 -0.29106064138E+02  0.12285135211E+03 -0.18708839618E+04  0.21222058940E+04  0.99378641582E+03 0.  0.
        -13    1    1    2    0    0  0.10648526168E+02 -0.13633246453E+03  0.12058359349E+03  0.18231935217E+03  0.10566000000E+00 0.  1.
         13    1    3    3    0    0 -0.12704476253E+03 -0.29155268489E+03 -0.15409395711E+03  0.35339538555E+03  0.10566000000E+00 0. -1.
          1    1    1    2  502    0  0.18457537969E+02  0.13481112421E+02  0.71118607452E+03  0.71155326835E+03  0.00000000000E+00 0. -1.
         -4    1    3    3    0  502  0.97938698388E+02  0.41440403699E+03 -0.17167900047E+04  0.17688105085E+04  0.00000000000E+00 0. -1.
</event>
<event>
 6    1  0.5307232E-006  0.6786653E+03  0.7818608E-02  0.9157891E-01
         -4   -1    0    0    0  501 -0.00000000000E+00  0.00000000000E+00  0.83797076661E+03  0.83797076661E+03  0.00000000000E+00 0. -1.
          2   -1    0    0  501    0  0.00000000000E+00 -0.00000000000E+00 -0.15120643564E+04  0.15120643564E+04  0.00000000000E+00 0.  1.
        -13    1    1    2    0    0 -0.55947505078E+03 -0.39415099473E+03 -0.11388065467E+03  0.69378393882E+03  0.10566000000E+00 0.  1.
         13    1    1    2    0    0  0.52170810306E+03  0.35372651575E+03  0.34312875523E+03  0.71766227891E+03  0.10566000000E+00 0. -1.
          2    1    1    2  502    0  0.20734583915E+02  0.88744157310E+01 -0.90244184442E+03  0.90272363478E+03  0.00000000000E+00 0.  1.
         -4    1    1    2    0  502  0.17032363808E+02  0.31550063243E+02 -0.89984595648E+00  0.35865270531E+02  0.00000000000E+00 0. -1.
</event>
<event>
 7    1  0.4894942E-006  0.1360787E+04  0.7818608E-02  0.8578934E-01
          2   -1    0    0  502    0  0.00000000000E+00  0.00000000000E+00  0.24574346635E+04  0.24574346635E+04  0.00000000000E+00 0.  1.
          4   -1    0    0  501    0 -0.00000000000E+00 -0.00000000000E+00 -0.16322369367E+04  0.16322369367E+04  0.00000000000E+00 0.  1.
    9000010    2    1    2  502    0  0.10780912516E+04 -0.68754555862E+02 -0.40119684492E+03  0.15212436729E+04  0.99308381742E+03 0.  0.
        -13    1    3    3    0    0  0.96471170158E+03 -0.44718399333E+03 -0.21642069945E+03  0.10851175611E+04  0.10566000000E+00 0.  1.
         13    1    1    2    0    0 -0.82024303550E+03 -0.32640904213E+03 -0.32970576262E+03  0.94236266964E+03  0.10566000000E+00 0. -1.
          2    1    1    2  501    0 -0.25784821606E+03  0.39516359799E+03  0.15561003343E+04  0.16260652577E+04  0.00000000000E+00 0.  1.
          4    1    3    3  502    0  0.11337954998E+03  0.37842943747E+03 -0.18477614547E+03  0.43612611184E+03  0.00000000000E+00 0.  1.
</event>
<event>
 7    1  0.4894942E-006  0.1145247E+04  0.7818608E-02  0.8813252E-01
          4   -1    0    0  501    0 -0.00000000000E+00  0.00000000000E+00  0.35675988293E+04  0.35675988293E+04  0.00000000000E+00 0.  1.
          2   -1    0    0  502    0  0.00000000000E+00 -0.00000000000E+00 -0.70124844812E+03  0.70124844812E+03  0.00000000000E+00 0. -1.
    9000010    2    1    2  502    0 -0.50714017702E+03 -0.31543276948E+03  0.23334902458E+04  0.26065522788E+04  0.99611699297E+03 0.  0.
        -13    1    3    3    0    0 -0.21225265044E+03 -0.62039896065E+03  0.91294854728E+03  0.11240200706E+04  0.10566000000E+00 0.  1.
         13    1    1    2    0    0  0.52972945553E+03  0.16505109993E+03  0.10149933968E+04  0.11567483600E+04  0.10566000000E+00 0. -1.
          2    1    1    2  501    0 -0.22589278511E+02  0.15038166955E+03 -0.48213326143E+03  0.50554663861E+03  0.00000000000E+00 0. -1.
          4    1    3    3  502    0 -0.29488752658E+03  0.30496619117E+03  0.14205416985E+04  0.14825322082E+04  0.00000000000E+00 0.  1.
</event>
<event>
 7    1  0.4894942E-006  0.1013560E+04  0.7818608E-02  0.9056625E-01
         -4   -1    0    0    0  502 -0.00000000000E+00  0.00000000000E+00  0.39399181370E+04  0.39399181370E+04  0.00000000000E+00 0. -1.
         -2   -1    0    0    0  501  0.00000000000E+00 -0.00000000000E+00 -0.34082813671E+03  0.34082813671E+03  0.00000000000E+00 0. -1.
   -9000010    2    1    2    0  501  0.61788548988E+02 -0.27554283789E+03  0.34567195132E+04  0.36008242762E+04  0.96813428560E+03 0.  0.
        -13    1    1    2    0    0 -0.19293718793E+03  0.26685476979E+03  0.31985541250E+03  0.45906832031E+03  0.10566000000E+00 0.  1.
         13    1    3    3    0    0 -0.12787951015E+03 -0.57676647607E+03  0.27093819744E+04  0.27730422700E+04  0.10566000000E+00 0. -1.
         -2    1    1    2    0  502  0.13114863894E+03  0.86880680986E+01 -0.17748492535E+03  0.22085367724E+03  0.00000000000E+00 0. -1.
         -4    1    3    3    0  501  0.18966805914E+03  0.30122363818E+03  0.74733753878E+03  0.82778200616E+03  0.00000000000E+00 0. -1.
</event>
<event>
 7    1  0.4894942E-006  0.1083759E+04  0.7818608E-02  0.9036550E-01
          4   -1    0    0  501    0  0.00000000000E+00  0.00000000000E+00  0.16612638418E+04  0.16612638418E+04  0.00000000000E+00 0.  1.
         -4   -1    0    0    0  501 -0.00000000000E+00 -0.00000000000E+00 -0.23035959788E+04  0.23035959788E+04  0.00000000000E+00 0. -1.
   -9000010    2    1    2    0  502 -0.15880610896E+03  0.29573988069E+03 -0.14678084742E+04  0.18360121370E+04  0.10506176245E+04 0.  0.
        -13    1    1    2    0    0  0.10629291588E+03 -0.23341226385E+03 -0.62526319850E+03  0.67582064739E+03  0.10566000000E+00 0.  1.
         13    1    3    3    0    0 -0.41778944503E+03  0.48961125334E+03 -0.49839283882E+03  0.81404092816E+03  0.10566000000E+00 0. -1.
          4    1    1    2  502    0  0.52513193080E+02 -0.62327616835E+02  0.14507395358E+04  0.14530270362E+04  0.00000000000E+00 0.  1.
         -4    1    3    3    0  502  0.25898333607E+03 -0.19387137265E+03 -0.96941563541E+03  0.10219712088E+04  0.00000000000E+00 0. -1.
</event>
<event>
 7    1  0.4894942E-006  0.1853649E+04  0.7818608E-02  0.8270128E-01
          2   -1    0    0  502    0  0.00000000000E+00  0.00000000000E+00  0.16801097809E+04  0.16801097809E+04  0.00000000000E+00 0.  1.
          4   -1    0    0  501    0 -0.00000000000E+00 -0.00000000000E+00 -0.29366499649E+04  0.29366499649E+04  0.00000000000E+00 0.  1.
    9000010    2    1    2  502    0 -0.58023018064E+03  0.14211467916E+04 -0.13039096378E+03  0.18597358888E+04  0.10417727712E+04 0.  0.
        -13    1    3    3    0    0 -0.78125188993E+03  0.11843187926E+04  0.16836612054E+03  0.14287451416E+04  0.10566000000E+00 0.  1.
         13    1    1    2    0    0  0.55315876768E+03 -0.14293313597E+04 -0.16386806196E+04  0.22437127584E+04  0.10566000000E+00 0. -1.
          2    1    1    2  501    0  0.27071412957E+02  0.81845680830E+01  0.51253139940E+03  0.51331109858E+03  0.00000000000E+00 0.  1.
          4    1    3    3  502    0  0.20102170929E+03  0.23682799909E+03 -0.29875708431E+03  0.43099074722E+03  0.00000000000E+00 0.  1.
</event>
<event>
 7    1  0.4894942E-006  0.1014362E+04  0.7818608E-02  0.9361279E-01
         -4   -1    0    0    0  501 -0.00000000000E+00  0.00000000000E+00  0.34419769701E+04  0.34419769701E+04  0.00000000000E+00 0. -1.
          2   -1    0    0  501    0  0.00000000000E+00 -0.00000000000E+00 -0.13807800890E+03  0.13807800890E+03  0.00000000000E+00 0. -1.
   -9000010    2    1    2    0  502  0.91797736734E+01 -0.12940777657E+03  0.31517985516E+04  0.33122654261E+04  0.10101670664E+04 0.  0.
        -13    1    1    2    0    0 -0.16895193921E+02  0.86106153418E+02  0.19028546100E+03  0.20954303870E+03  0.10566000000E+00 0.  1.
         13    1    3    3    0    0  0.35445101577E+03 -0.37471998363E+03  0.10702035064E+04  0.11880177376E+04  0.10566000000E+00 0. -1.
          2    1    1    2  502    0  0.77154202473E+01  0.43301623147E+02 -0.38185051359E+02  0.58246514265E+02  0.00000000000E+00 0. -1.
         -4    1    3    3    0  502 -0.34527124209E+03  0.24531220707E+03  0.20815950452E+04  0.21242476885E+04  0.00000000000E+00 0. -1.
</event>
<event>
 7    1  0.4894942E-006  0.9291722E+03  0.7818608E-02  0.9145886E-01
          4   -1    0    0  501    0 -0.00000000000E+00  0.00000000000E+00  0.95225884976E+03  0.95225884976E+03  0.00000000000E+00 0.  1.
          2   -1    0    0  502    0  0.00000000000E+00 -0.00000000000E+00 -0.11441484316E+04  0.11441484316E+04  0.00000000000E+00 0.  1.
    9000010    2    1    2  502    0 -0.26074900362E+03  0.12619267858E+03  0.47251427225E+03  0.10467687684E+04  0.88799801919E+03 0.  0.
        -13    1    3    3    0    0 -0.44489026970E+03 -0.73226407457E+02 -0.54305321560E+02  0.45413493362E+03  0.10566000000E+00 0.  1.
         13    1    1    2    0    0  0.22171783429E+03 -0.15238505082E+03  0.97595826542E+02  0.28619042311E+03  0.10566000000E+00 0. -1.
          2    1    1    2  501    0  0.39031169335E+02  0.26192372238E+02 -0.76199968060E+03  0.76344808977E+03  0.00000000000E+00 0.  1.
          4    1    3    3  502    0  0.18414126607E+03  0.19941908604E+03  0.52681959381E+03  0.59263383482E+03  0.00000000000E+00 0.  1.
</event>
<event>
 7    1  0.4894942E-006  0.1078495E+04  0.7818608E-02  0.8926566E-01
         -4   -1    0    0    0  501 -0.00000000000E+00  0.00000000000E+00  0.23809414608E+04  0.23809414608E+04  0.00000000000E+00 0. -1.
          2   -1    0    0  501    0  0.00000000000E+00 -0.00000000000E+00 -0.62190087824E+03  0.62190087824E+03  0.00000000000E+00 0. -1.
   -9000010    2    1    2    0  502 -0.30517098807E+03 -0.30005654237E+03  0.13489039632E+04  0.17285291098E+04  0.99252592958E+03 0.  0.
        -13    1    1    2    0    0  0.29012086157E+03  0.30415641163E+03  0.78960992134E+03  0.89451946659E+03  0.10566000000E+00 0.  1.
         13    1    3    3    0    0 -0.43809080530E+03 -0.60144195751E+03  0.10246176061E+04  0.12662927118E+04  0.10566000000E+00 0. -1.
          2    1    1    2  502    0  0.15050126499E+02 -0.40998692624E+01 -0.37947330199E+03  0.37979376266E+03  0.00000000000E+00 0. -1.
         -4    1    3    3    0  502  0.13291981724E+03  0.30138541514E+03  0.32428635708E+03  0.46223639802E+03  0.00000000000E+00 0. -1.
</event>
<event>
 7    1  0.4894942E-006  0.1033800E+04  0.7818608E-02  0.9086963E-01
          2   -1    0    0  501    0  0.00000000000E+00  0.00000000000E+00  0.16359637411E+04  0.16359637411E+04  0.00000000000E+00 0.  1.
         -4   -1    0    0    0  501 -0.00000000000E+00 -0.00000000000E+00 -0.19284699620E+04  0.19284699620E+04  0.00000000000E+00 0. -1.
   -9000010    2    1    2    0  502 -0.54886404145E+02 -0.25031862567E+03 -0.16382496448E+04  0.19379087865E+04  0.10029738950E+04 0.  0.
        -13    1    1    2    0    0  0.70925507713E+02  0.23634156704E+03 -0.31819591288E+02  0.24879763164E+03  0.10566000000E+00 0.  1.
         13    1    3    3    0    0 -0.86685597737E+02 -0.63138335948E+03 -0.11797153215E+04  0.13408533068E+04  0.10566000000E+00 0. -1.
          2    1    1    2  502    0 -0.16039103568E+02  0.13977058629E+02  0.13775630152E+04  0.13777272850E+04  0.00000000000E+00 0.  1.
         -4    1    3    3    0  502  0.31799193592E+02  0.38106473381E+03 -0.45853432337E+03  0.59705547965E+03  0.00000000000E+00 0. -1.
</event>
<event>
 7    1  0.4894942E-006  0.1089788E+04  0.7818608E-02  0.9022809E-01
          2   -1    0    0  502    0  0.00000000000E+00  0.00000000000E+00  0.43850012359E+03  0.43850012359E+03  0.00000000000E+00 0. -1.
          4   -1    0    0  501    0 -0.00000000000E+00 -0.00000000000E+00 -0.24332748476E+04  0.24332748476E+04  0.00000000000E+00 0.  1.
    9000010    2    1    2  502    0 -0.16905184120E+03  0.69082724517E+02 -0.15464028230E+04  0.18545174042E+04  0.10072349097E+04 0.  0.
        -13    1    3    3    0    0  0.12451318471E+03  0.39721562840E+03 -0.25043200831E+03  0.48579830234E+03  0.10566000000E+00 0.  1.
         13    1    1    2    0    0 -0.17023949858E+03  0.21778369032E+03 -0.49861893770E+03  0.57011584686E+03  0.10566000000E+00 0. -1.
          2    1    1    2  501    0  0.33929133978E+03 -0.28686641484E+03  0.50247036723E+02  0.44714172017E+03  0.00000000000E+00 0. -1.
          4    1    3    3  502    0 -0.29356502592E+03 -0.32813290388E+03 -0.12959708147E+04  0.13687191018E+04  0.00000000000E+00 0.  1.
</event>
<event>
 7    1  0.4894942E-006  0.1038352E+04  0.7818608E-02  0.8865933E-01
         -4   -1    0    0    0  501 -0.00000000000E+00  0.00000000000E+00  0.19207750917E+04  0.19207750917E+04  0.00000000000E+00 0. -1.
          4   -1    0    0  501    0  0.00000000000E+00 -0.00000000000E+00 -0.63426849921E+03  0.63426849921E+03  0.00000000000E+00 0.  1.
   -9000010    2    1    2    0  502 -0.47765235978E+03  0.36328214837E+03  0.96290189790E+03  0.14128064988E+04  0.84185298123E+03 0.  0.
        -13    1    1    2    0    0  0.49731122066E+03 -0.35721306496E+03  0.60459367816E+03  0.86049587495E+03  0.10566000000E+00 0.  1.
         13    1    3    3    0    0 -0.44247209790E+03  0.49617024278E+03  0.10552477561E+04  0.12472025919E+04  0.10566000000E+00 0. -1.
          4    1    1    2  502    0 -0.19658860888E+02 -0.60690834070E+01 -0.28098898354E+03  0.28174121718E+03  0.00000000000E+00 0.  1.
         -4    1    3    3    0  502 -0.35180261880E+02 -0.13288809441E+03 -0.92345858224E+02  0.16560390694E+03  0.00000000000E+00 0. -1.
</event>
<event>
 7    1  0.4894942E-006  0.1021236E+04  0.7818608E-02  0.9259348E-01
         -4   -1    0    0    0  501 -0.00000000000E+00  0.00000000000E+00  0.25587675254E+03  0.25587675254E+03  0.00000000000E+00 0. -1.
          2   -1    0    0  501    0  0.00000000000E+00 -0.00000000000E+00 -0.17937183202E+04  0.17937183202E+04  0.00000000000E+00 0. -1.
   -9000010    2    1    2    0  502  0.13121477195E+03 -0.11284325214E+03 -0.11682056066E+04  0.15512483735E+04  0.10058410715E+04 0.  0.
        -13    1    1    2    0    0  0.55576463754E+02  0.12058742311E+03 -0.22783150799E+03  0.26369921717E+03  0.10566000000E+00 0.  1.
         13    1    3    3    0    0 -0.32129324307E+03  0.17184996878E+03 -0.13620141086E+03  0.38898919689E+03  0.10566000000E+00 0. -1.
          2    1    1    2  502    0 -0.18679123571E+03 -0.77441709704E+01 -0.14180445310E+03  0.23464748206E+03  0.00000000000E+00 0. -1.
         -4    1    3    3    0  502  0.45250801502E+03 -0.28469322092E+03 -0.10320041957E+04  0.11622591766E+04  0.00000000000E+00 0. -1.
</event>
<event>
 7    1  0.4894942E-006  0.1220260E+04  0.7818608E-02  0.8723090E-01
          2   -1    0    0  502    0  0.00000000000E+00  0.00000000000E+00  0.11942740468E+04  0.11942740468E+04  0.00000000000E+00 0.  1.
          4   -1    0    0  501    0 -0.00000000000E+00 -0.00000000000E+00 -0.29140632793E+04  0.29140632793E+04  0.00000000000E+00 0.  1.
    9000010    2    1    2  502    0  0.74007967346E+02  0.68244255452E+03 -0.10892947522E+04  0.16358567646E+04  0.10090883399E+04 0.  0.
        -13    1    3    3    0    0  0.34407821307E+03  0.53712740145E+03 -0.11575480576E+04  0.13216706016E+04  0.10566000000E+00 0.  1.
         13    1    1    2    0    0 -0.58183403128E+02 -0.68361193379E+03 -0.14755611268E+04  0.16272649552E+04  0.10566000000E+00 0. -1.
          2    1    1    2  501    0 -0.15824564218E+02  0.11693792675E+01  0.84506664640E+03  0.84521560631E+03  0.00000000000E+00 0.  1.
          4    1    3    3  502    0 -0.27007024572E+03  0.14531515307E+03  0.68253305465E+02  0.31418616304E+03  0.00000000000E+00 0.  1.
</event>
<event>
 6    1  0.5036707E-006  0.6337081E+03  0.7818608E-02  0.9352822E-01
          2   -1    0    0  501    0  0.00000000000E+00  0.00000000000E+00  0.28840875681E+04  0.28840875681E+04  0.00000000000E+00 0.  1.
         -4   -1    0    0    0  501 -0.00000000000E+00 -0.00000000000E+00 -0.13739852109E+03  0.13739852109E+03  0.00000000000E+00 0. -1.
        -13    1    1    2    0    0 -0.33772618384E+02 -0.37232178657E+03  0.68905981717E+03  0.78394358554E+03  0.10566000000E+00 0.  1.
         13    1    1    2    0    0 -0.34661485727E+02  0.22234414955E+03  0.79397134807E+02  0.23862576477E+03  0.10566000000E+00 0. -1.
          2    1    1    2  502    0  0.28347633724E+02 -0.44676975358E+02  0.96081280773E+03  0.96226860698E+03  0.00000000000E+00 0.  1.
         -4    1    1    2    0  502  0.40086470387E+02  0.19465461238E+03  0.10174192873E+04  0.10366481319E+04  0.00000000000E+00 0. -1.
</event>
<event>
 7    1  0.4894942E-006  0.8306810E+03  0.7818608E-02  0.9455540E-01
         -4   -1    0    0    0  501 -0.00000000000E+00  0.00000000000E+00  0.23376868236E+03  0.23376868236E+03  0.00000000000E+00 0. -1.
          4   -1    0    0  501    0  0.00000000000E+00 -0.00000000000E+00 -0.25195611887E+04  0.25195611887E+04  0.00000000000E+00 0. -1.
   -9000010    2    1    2    0  502  0.40388217748E+03  0.47907875598E+02 -0.78178661876E+03  0.11419614423E+04  0.72627105175E+03 0.  0.
        -13    1    1    2    0    0 -0.50160766733E+01 -0.11825748995E+03 -0.11697580701E+03  0.16641317719E+03  0.10566000000E+00 0.  1.
         13    1    3    3    0    0 -0.18774115755E+03 -0.73113719871E+02 -0.33444722149E+03  0.39044501968E+03  0.10566000000E+00 0. -1.
          4    1    1    2  502    0 -0.39886610081E+03  0.70349614347E+02 -0.13870300806E+04  0.14449552516E+04  0.00000000000E+00 0. -1.
         -4    1    3    3    0  502  0.59162333503E+03  0.12102159547E+03 -0.44733939727E+03  0.75151642262E+03  0.00000000000E+00 0. -1.
</event>
<event>
 7    1  0.4894942E-006  0.1027357E+04  0.7818608E-02  0.9135180E-01
         -4   -1    0    0    0  501 -0.00000000000E+00  0.00000000000E+00  0.17201187662E+04  0.17201187662E+04  0.00000000000E+00 0. -1.
          1   -1    0    0  501    0  0.00000000000E+00 -0.00000000000E+00 -0.21723335163E+04  0.21723335163E+04  0.00000000000E+00 0.  1.
   -9000010    2    1    2    0  502  0.54581239718E+02  0.13995667851E+03  0.80612383633E+03  0.12974300389E+04  0.10054462107E+04 0.  0.
        -13    1    1    2    0    0 -0.15033452111E+03 -0.15534861847E+03  0.64959671578E+03  0.68462366729E+03  0.10566000000E+00 0.  1.
         13    1    3    3    0    0  0.36700610943E+03  0.43795956527E+03  0.35353735840E+03  0.67193060663E+03  0.10566000000E+00 0. -1.
          1    1    1    2  502    0  0.95753281396E+02  0.15391939959E+02 -0.19079353023E+04  0.19103985763E+04  0.00000000000E+00 0.  1.
         -4    1    3    3    0  502 -0.31242486972E+03 -0.29800288676E+03  0.45258647793E+03  0.62549943224E+03  0.00000000000E+00 0. -1.
</event>
<event>
 7    1  0.4894942E-006  0.1112060E+04  0.7818608E-02  0.8876451E-01
         -4   -1    0    0    0  502 -0.00000000000E+00  0.00000000000E+00  0.18116730011E+04  0.18116730011E+04  0.00000000000E+00 0. -1.
         -2   -1    0    0    0  501  0.00000000000E+00 -0.00000000000E+00 -0.14129397516E+04  0.14129397516E+04  0.00000000000E+00 0. -1.
   -9000010    2    1    2    0  501  0.95045124824E+02  0.42613622574E+03  0.10226172342E+04  0.14995879336E+04  0.10061770741E+04 0.  0.
        -13    1    1    2    0    0 -0.93462762283E+02 -0.48162744254E+03  0.44040733788E+03  0.65928667192E+03  0.10566000000E+00 0.  1.
         13    1    3    3    0    0 -0.15600503980E+03  0.18914038676E+03  0.11154531408E+04  0.11420802856E+04  0.10566000000E+00 0. -1.
         -2    1    1    2    0  502 -0.15823625410E+01  0.55491216806E+02 -0.10642913226E+04  0.10657381471E+04  0.00000000000E+00 0. -1.
         -4    1    3    3    0  501  0.25105016463E+03  0.23699583898E+03 -0.92835906591E+02  0.35750764804E+03  0.00000000000E+00 0. -1.
</event>
<event>
 7    1  0.4894942E-006  0.1023169E+04  0.7818608E-02  0.9144546E-01
         -4   -1    0    0    0  501  0.00000000000E+00  0.00000000000E+00  0.26703278031E+04  0.26703278031E+04  0.00000000000E+00 0. -1.
         -4   -1    0    0    0  502 -0.00000000000E+00 -0.00000000000E+00 -0.12561994908E+04  0.12561994908E+04  0.00000000000E+00 0. -1.
   -9000010    2    1    2    0  501 -0.12704217526E+03  0.16151434196E+03  0.51721965808E+03  0.11463888680E+04  0.10022298465E+04 0.  0.
        -13    1    1    2    0    0  0.14755395563E+03 -0.14370403840E+03 -0.93024934418E+03  0.95277850206E+03  0.10566000000E+00 0.  1.
         13    1    3    3    0    0 -0.44391349445E+03  0.40877741439E+03  0.41273765078E+03  0.73110228054E+03  0.10566000000E+00 0. -1.
         -4    1    3    3    0  501  0.31687131919E+03 -0.24726307243E+03  0.10448200730E+03  0.41528658751E+03  0.00000000000E+00 0. -1.
         -4    1    1    2    0  502 -0.20511780364E+02 -0.17810303560E+02  0.18271579984E+04  0.18273599238E+04  0.00000000000E+00 0. -1.
</event>
<event>
 7    1  0.4894942E-006  0.1028613E+04  0.7818608E-02  0.9100958E-01
         -4   -1    0    0    0  501 -0.00000000000E+00  0.00000000000E+00  0.11178521968E+04  0.11178521968E+04  0.00000000000E+00 0. -1.
          2   -1    0    0  501    0  0.00000000000E+00 -0.00000000000E+00 -0.20168317428E+04  0.20168317428E+04  0.00000000000E+00 0. -1.
   -9000010    2    1    2    0  502  0.20096861091E+02  0.22665686255E+02 -0.50969173477E+03  0.11228676084E+04  0.10000641901E+04 0.  0.
        -13    1    1    2    0    0 -0.46250903633E+02 -0.24121137848E+03  0.78218844800E+03  0.81984196925E+03  0.10566000000E+00 0.  1.
         13    1    3    3    0    0 -0.76101050346E+02  0.24988629060E+03  0.22692721784E+03  0.34602095522E+03  0.10566000000E+00 0. -1.
          2    1    1    2  502    0  0.26154042542E+02  0.21854569223E+03 -0.11714762592E+04  0.11919743619E+04  0.00000000000E+00 0. -1.
         -4    1    3    3    0  502  0.96197911437E+02 -0.22722060435E+03 -0.73661895261E+03  0.77684665317E+03  0.00000000000E+00 0. -1.
</event>
<event>
 7    1  0.4894942E-006  0.9994581E+03  0.7818608E-02  0.8911328E-01
         -4   -1    0    0    0  501 -0.00000000000E+00  0.00000000000E+00  0.20564462805E+04  0.20564462805E+04  0.00000000000E+00 0. -1.
          1   -1    0    0  501    0  0.00000000000E+00 -0.00000000000E+00 -0.16571651845E+04  0.16571651845E+04  0.00000000000E+00 0.  1.
   -9000010    2    1    2    0  502  0.12417743289E+03 -0.54446765872E+03  0.88490505790E+03  0.13323380694E+04  0.82474402296E+03 0.  0.
        -13    1    1    2    0    0 -0.14644234151E+03  0.54772579359E+03  0.86293649896E+03  0.10325252136E+04  0.10566000000E+00 0.  1.
         13    1    3    3    0    0 -0.15699941863E+02 -0.74551134178E+03  0.60362357010E+03  0.95937222934E+03  0.10566000000E+00 0. -1.
          1    1    1    2  502    0  0.22264908622E+02 -0.32581348705E+01 -0.13485604609E+04  0.13487481819E+04  0.00000000000E+00 0.  1.
         -4    1    3    3    0  502  0.13987737475E+03  0.20104368305E+03  0.28128148780E+03  0.37296584004E+03  0.00000000000E+00 0. -1.
</event>
<event>
 7    1  0.4894942E-006  0.1308088E+04  0.7818608E-02  0.8637851E-01
          2   -1    0    0  501    0  0.00000000000E+00  0.00000000000E+00  0.16347663586E+04  0.16347663586E+04  0.00000000000E+00 0.  1.
         -4   -1    0    0    0  501 -0.00000000000E+00 -0.00000000000E+00 -0.12880148636E+04  0.12880148636E+04  0.00000000000E+00 0. -1.
   -9000010    2    1    2    0  502 -0.40994639718E+03 -0.70371594224E+03  0.81202081556E+02  0.13151732403E+04  0.10294730196E+04 0.  0.
        -13    1    1    2    0    0  0.40640543914E+03  0.69426174544E+03 -0.42987049442E+03  0.91211479830E+03  0.10566000000E+00 0.  1.
         13    1    3    3    0    0 -0.42874007325E+03 -0.50588314983E+03  0.51395152311E+03  0.83897675233E+03  0.10566000000E+00 0. -1.
          2    1    1    2  502    0  0.35409580406E+01  0.94541967992E+01  0.69541990786E+03  0.69549318363E+03  0.00000000000E+00 0.  1.
         -4    1    3    3    0  502  0.18793676067E+02 -0.19783279241E+03 -0.43274944156E+03  0.47619648800E+03  0.00000000000E+00 0. -1.
</event>
<event>
 7    1  0.4894942E-006  0.1048194E+04  0.7818608E-02  0.9124823E-01
          1   -1    0    0  501    0  0.00000000000E+00  0.00000000000E+00  0.22049456168E+04  0.22049456168E+04  0.00000000000E+00 0. -1.
         -4   -1    0    0    0  501 -0.00000000000E+00 -0.00000000000E+00 -0.11644146526E+04  0.11644146526E+04  0.00000000000E+00 0. -1.
   -9000010    2    1    2    0  502  0.29084531666E+02 -0.18345744920E+03 -0.37751867605E+03  0.10967050636E+04  0.10127877863E+04 0.  0.
        -13    1    1    2    0    0  0.20286466608E+03  0.41025947391E+02 -0.39145003879E+03  0.44279831203E+03  0.10566000000E+00 0.  1.
         13    1    3    3    0    0 -0.26093354501E+03  0.27493144749E+03  0.79642814380E+02  0.38731977071E+03  0.10566000000E+00 0. -1.
          1    1    1    2  502    0 -0.23194919774E+03  0.14243150180E+03  0.18094996791E+04  0.18298568938E+04  0.00000000000E+00 0. -1.
         -4    1    3    3    0  502  0.29001807668E+03 -0.45838889669E+03 -0.45716149043E+03  0.70938529287E+03  0.00000000000E+00 0. -1.
</event>
<event>
 7    1  0.4894942E-006  0.1433301E+04  0.7818608E-02  0.8513441E-01
         -4   -1    0    0    0  501  0.00000000000E+00  0.00000000000E+00  0.25346282233E+04  0.25346282233E+04  0.00000000000E+00 0.  1.
         -4   -1    0    0    0  502 -0.00000000000E+00 -0.00000000000E+00 -0.12749731844E+04  0.12749731844E+04  0.00000000000E+00 0. -1.
   -9000010    2    1    2    0  501  0.10665904786E+04  0.15885943350E+03  0.33972208065E+03  0.14803155448E+04  0.95554772332E+03 0.  0.
        -13    1    1    2    0    0 -0.10639652685E+04 -0.54854910139E+02 -0.29851077303E+03  0.11064085351E+04  0.10566000000E+00 0.  1.
         13    1    3    3    0    0  0.10232806756E+04 -0.84322635339E+02  0.54202450643E+03  0.11610358412E+04  0.10566000000E+00 0. -1.
         -4    1    1    2    0  502 -0.26252101043E+01 -0.10400452336E+03  0.12184437313E+04  0.12228773278E+04  0.00000000000E+00 0.  1.
         -4    1    3    3    0  501  0.43309802960E+02  0.24318206884E+03 -0.20230242578E+03  0.31927970357E+03  0.00000000000E+00 0. -1.
</event>
<event>
 7    1  0.4894942E-006  0.9957954E+03  0.7818608E-02  0.9308132E-01
         -4   -1    0    0    0  501 -0.00000000000E+00  0.00000000000E+00  0.64772563354E+03  0.64772563354E+03  0.00000000000E+00 0. -1.
          2   -1    0    0  501    0  0.00000000000E+00 -0.00000000000E+00 -0.20198914095E+04  0.20198914095E+04  0.00000000000E+00 0.  1.
   -9000010    2    1    2    0  502 -0.77732502260E+02  0.36471458342E+02  0.17176203222E+03  0.10071401583E+04  0.98866404485E+03 0.  0.
        -13    1    1    2    0    0  0.11990530823E+03  0.47898977366E+02 -0.16533407933E+02  0.13017280713E+03  0.10566000000E+00 0.  1.
         13    1    3    3    0    0 -0.31716664174E+03 -0.26308328602E+03  0.38875869049E+03  0.56651639395E+03  0.10566000000E+00 0. -1.
          2    1    1    2  502    0 -0.42172805971E+02 -0.84370435708E+02 -0.15273944002E+04  0.15303040776E+04  0.00000000000E+00 0.  1.
         -4    1    3    3    0  502  0.23943413948E+03  0.29955474437E+03 -0.21699665827E+03  0.44062376436E+03  0.00000000000E+00 0. -1.
</event>
<event>
 7    1  0.4894942E-006  0.1148517E+04  0.7818608E-02  0.8917245E-01
         -4   -1    0    0    0  501 -0.00000000000E+00  0.00000000000E+00  0.96606678737E+03  0.96606678737E+03  0.00000000000E+00 0. -1.
          4   -1    0    0  501    0  0.00000000000E+00 -0.00000000000E+00 -0.20031053933E+04  0.20031053933E+04  0.00000000000E+00 0.  1.
   -9000010    2    1    2    0  502  0.29033566488E+03  0.74603270832E+03  0.14293286676E+03  0.12851801453E+04  0.99518772166E+03 0.  0.
        -13    1    1    2    0    0  0.10210849468E+03 -0.34840564111E+03  0.16582590303E+02  0.36343861780E+03  0.10566000000E+00 0.  1.
         13    1    3    3    0    0 -0.18484433101E+03  0.59366278475E+03 -0.22921666763E+03  0.66267882159E+03  0.10566000000E+00 0. -1.
          4    1    1    2  502    0 -0.39244415955E+03 -0.39762706721E+03 -0.11965540630E+04  0.13205534175E+04  0.00000000000E+00 0.  1.
         -4    1    3    3    0  502  0.47517999588E+03  0.15236992357E+03  0.37214953439E+03  0.62250132373E+03  0.00000000000E+00 0. -1.
</event>
<event>
 7    1  0.4894942E-006  0.9989213E+03  0.7818608E-02  0.9234300E-01
         -4   -1    0    0    0  501  0.00000000000E+00  0.00000000000E+00  0.16537253574E+03  0.16537253574E+03  0.00000000000E+00 0.  1.
         -4   -1    0    0    0  502 -0.00000000000E+00 -0.00000000000E+00 -0.28653852062E+04  0.28653852062E+04  0.00000000000E+00 0. -1.
   -9000010    2    1    2    0  501  0.16061211466E+03  0.21173234371E+02 -0.19789183100E+04  0.22171634464E+04  0.98663646466E+03 0.  0.
        -13    1    1    2    0    0 -0.15580544608E+03 -0.37346082666E+01 -0.75727379315E+03  0.77314480745E+03  0.10566000000E+00 0.  1.
         13    1    3    3    0    0  0.45302211841E+03  0.86849957804E+02 -0.18207902977E+04  0.18783102178E+04  0.10566000000E+00 0. -1.
         -4    1    1    2    0  502 -0.48066685794E+01 -0.17438626104E+02  0.36179432624E+02  0.40449488108E+02  0.00000000000E+00 0.  1.
         -4    1    3    3    0  501 -0.29241000375E+03 -0.65676723433E+02 -0.15812801230E+03  0.33885322865E+03  0.00000000000E+00 0. -1.
</event>
<event>
 7    1  0.4894942E-006  0.1126244E+04  0.7818608E-02  0.8839940E-01
         -4   -1    0    0    0  501 -0.00000000000E+00  0.00000000000E+00  0.30871868165E+04  0.30871868165E+04  0.00000000000E+00 0. -1.
          1   -1    0    0  501    0  0.00000000000E+00 -0.00000000000E+00 -0.56202463337E+03  0.56202463337E+03  0.00000000000E+00 0.  1.
   -9000010    2    1    2    0  502  0.28214353120E+03 -0.43988348576E+03  0.58685799609E+03  0.12664511944E+04  0.99317363383E+03 0.  0.
        -13    1    1    2    0    0 -0.29754810369E+03  0.44088219346E+03  0.21274766798E+04  0.21929589638E+04  0.10566000000E+00 0.  1.
         13    1    3    3    0    0  0.15235410928E+03 -0.65290432054E+03  0.47406176721E+02  0.67211842941E+03  0.10566000000E+00 0. -1.
          1    1    1    2  502    0  0.15404572498E+02 -0.99870769971E+00 -0.18917249283E+03  0.18980129165E+03  0.00000000000E+00 0.  1.
         -4    1    3    3    0  502  0.12978942192E+03  0.21302083479E+03  0.53945181937E+03  0.59433276497E+03  0.00000000000E+00 0. -1.
</event>
<event>
 7    1  0.4894942E-006  0.7957046E+03  0.7818608E-02  0.9486660E-01
          4   -1    0    0  501    0 -0.00000000000E+00  0.00000000000E+00  0.80088006057E+03  0.80088006057E+03  0.00000000000E+00 0.  1.
          2   -1    0    0  502    0  0.00000000000E+00 -0.00000000000E+00 -0.50235636498E+03  0.50235636498E+03  0.00000000000E+00 0.  1.
    9000010    2    1    2  502    0  0.94666661662E+02 -0.44238953001E+02  0.29185293055E+03  0.84545687662E+03  0.78657506658E+03 0.  0.
        -13    1    3    3    0    0 -0.41037633823E+02  0.59652201543E+02 -0.25888019060E+03  0.26881487457E+03  0.10566000000E+00 0.  1.
         13    1    1    2    0    0 -0.12167259534E+03 -0.12002794427E+01  0.21271788672E+03  0.24506034282E+03  0.10566000000E+00 0. -1.
          2    1    1    2  501    0  0.27005933675E+02  0.45439232444E+02 -0.20604712168E+03  0.21271920612E+03  0.00000000000E+00 0.  1.
          4    1    3    3  502    0  0.13570429549E+03 -0.10389115454E+03  0.55073312115E+03  0.57664200206E+03  0.00000000000E+00 0.  1.
</event>
<event>
 7    1  0.4894942E-006  0.1179677E+04  0.7818608E-02  0.8812810E-01
         -4   -1    0    0    0  501 -0.00000000000E+00  0.00000000000E+00  0.97837208864E+03  0.97837208864E+03  0.00000000000E+00 0. -1.
          2   -1    0    0  501    0  0.00000000000E+00 -0.00000000000E+00 -0.11068596784E+04  0.11068596784E+04  0.00000000000E+00 0. -1.
   -9000010    2    1    2    0  502 -0.52384614099E+03  0.21080288220E+02 -0.40087246863E+03  0.12485401719E+04  0.10598559651E+04 0.  0.
        -13    1    1    2    0    0  0.51527856553E+03 -0.44211288700E+02  0.43280947723E+03  0.67438171157E+03  0.10566000000E+00 0.  1.
         13    1    3    3    0    0  0.19901923615E+03 -0.29658386210E+03  0.12307216176E+02  0.35738231959E+03  0.10566000000E+00 0. -1.
          2    1    1    2  502    0  0.85675754524E+01  0.23131000480E+02 -0.16042459836E+03  0.16230988353E+03  0.00000000000E+00 0. -1.
         -4    1    3    3    0  502 -0.72286537714E+03  0.31766415032E+03 -0.41317968481E+03  0.89115785235E+03  0.00000000000E+00 0. -1.
</event>
<event>
 7    1  0.4894942E-006  0.1271677E+04  0.7818608E-02  0.8781808E-01
         -4   -1    0    0    0  501 -0.00000000000E+00  0.00000000000E+00  0.24442146977E+04  0.24442146977E+04  0.00000000000E+00 0. -1.
          4   -1    0    0  501    0  0.00000000000E+00 -0.00000000000E+00 -0.17710002541E+04  0.17710002541E+04  0.00000000000E+00 0.  1.
   -9000010    2    1    2    0  502  0.31002580889E+02 -0.37993832138E+03  0.15087275393E+04  0.18557720947E+04  0.10110969249E+04 0.  0.
        -13    1    1    2    0    0  0.34143907623E+03 -0.32525166395E+03  0.57223101078E+03  0.74149688370E+03  0.10566000000E+00 0.  1.
         13    1    3    3    0    0  0.46776419331E+03 -0.73817279581E+02  0.10516603152E+04  0.11533610714E+04  0.10566000000E+00 0. -1.
          4    1    1    2  502    0 -0.37244165712E+03  0.70518998533E+03 -0.14077441065E+04  0.16179459734E+04  0.00000000000E+00 0.  1.
         -4    1    3    3    0  502 -0.43676161242E+03 -0.30612104180E+03  0.45706722411E+03  0.70241102331E+03  0.00000000000E+00 0. -1.
</event>
<event>
 7    1  0.4894942E-006  0.1065126E+04  0.7818608E-02  0.9340318E-01
          2   -1    0    0  502    0  0.00000000000E+00  0.00000000000E+00  0.27975881164E+04  0.27975881164E+04  0.00000000000E+00 0.  1.
          4   -1    0    0  501    0 -0.00000000000E+00 -0.00000000000E+00 -0.25203352471E+03  0.25203352471E+03  0.00000000000E+00 0.  1.
    9000010    2    1    2  502    0 -0.26244205208E+03  0.58713587808E+02  0.10214490920E+04  0.14730803145E+04  0.10267834481E+04 0.  0.
        -13    1    3    3    0    0 -0.50974762462E+02 -0.33987614691E+03  0.95756098493E+03  0.10173678158E+04  0.10566000000E+00 0.  1.
         13    1    1    2    0    0 -0.21388789622E+02 -0.83404657679E+02  0.14775431376E+03  0.17101217981E+03  0.10566000000E+00 0. -1.
          2    1    1    2  501    0  0.28383084171E+03  0.24691069872E+02  0.13763511859E+04  0.14055291468E+04  0.00000000000E+00 0.  1.
          4    1    3    3  502    0 -0.21146728962E+03  0.39858973472E+03  0.63888107099E+02  0.45571249866E+03  0.00000000000E+00 0.  1.
</event>
<event>
 7    1  0.4894942E-006  0.1059848E+04  0.7818608E-02  0.8990313E-01
          2   -1    0    0  501    0  0.00000000000E+00  0.00000000000E+00  0.30460151708E+04  0.30460151708E+04  0.00000000000E+00 0.  1.
         -4   -1    0    0    0  501 -0.00000000000E+00 -0.00000000000E+00 -0.43993609051E+03  0.43993609051E+03  0.00000000000E+00 0. -1.
   -9000010    2    1    2    0  502 -0.33095781040E+03  0.60495705337E+01  0.60312982779E+03  0.12162156631E+04  0.10029183817E+04 0.  0.
        -13    1    1    2    0    0  0.34476726289E+03  0.27789490805E+02  0.91293735872E+02  0.35773073495E+03  0.10566000000E+00 0.  1.
         13    1    3    3    0    0  0.12120677263E+03  0.42358575602E+03  0.25935703749E+03  0.51125537503E+03  0.10566000000E+00 0. -1.
          2    1    1    2  502    0 -0.13809452489E+02 -0.33839061338E+02  0.19116555167E+04  0.19120048633E+04  0.00000000000E+00 0.  1.
         -4    1    3    3    0  502 -0.45216458303E+03 -0.41753618549E+03  0.34377279030E+03  0.70496028802E+03  0.00000000000E+00 0. -1.
</event>
<event>
 7    1  0.4894942E-006  0.1052247E+04  0.7818608E-02  0.9001531E-01
          1   -1    0    0  501    0  0.00000000000E+00  0.00000000000E+00  0.14421553696E+04  0.14421553696E+04  0.00000000000E+00 0. -1.
         -4   -1    0    0    0  501 -0.00000000000E+00 -0.00000000000E+00 -0.10433964044E+04  0.10433964044E+04  0.00000000000E+00 0. -1.
   -9000010    2    1    2    0  502  0.24794970615E+03  0.22173060068E+03 -0.58704595376E+02  0.10532564406E+04  0.99762687617E+03 0.  0.
        -13    1    1    2    0    0 -0.27409617720E+03 -0.19273317270E+03 -0.42934877496E+03  0.54462388117E+03  0.10566000000E+00 0.  1.
         13    1    3    3    0    0  0.36285791865E+03 -0.15489416383E+03  0.31919885244E+03  0.50748989121E+03  0.10566000000E+00 0. -1.
          1    1    1    2  502    0  0.26146471059E+02 -0.28997427979E+02  0.88681233548E+03  0.88767145225E+03  0.00000000000E+00 0. -1.
         -4    1    3    3    0  502 -0.11490821250E+03  0.37662476452E+03 -0.37790344781E+03  0.54576654937E+03  0.00000000000E+00 0. -1.
</event>
<event>
 7    1  0.4894942E-006  0.1033783E+04  0.7818608E-02  0.9323675E-01
          2   -1    0    0  501    0  0.00000000000E+00  0.00000000000E+00  0.12159324595E+04  0.12159324595E+04  0.00000000000E+00 0. -1.
         -4   -1    0    0    0  501 -0.00000000000E+00 -0.00000000000E+00 -0.66437168957E+03  0.66437168957E+03  0.00000000000E+00 0. -1.
   -9000010    2    1    2    0  502 -0.16590487296E+03 -0.13576759732E+03  0.60581472014E+03  0.11870548825E+04  0.99806340060E+03 0.  0.
        -13    1    1    2    0    0 -0.96239260861E+02  0.28116248791E+02 -0.30114615444E+03  0.31739807226E+03  0.10566000000E+00 0.  1.
         13    1    3    3    0    0 -0.23104503346E+03 -0.25545468361E+03 -0.18060436738E+03  0.38891753823E+03  0.10566000000E+00 0. -1.
          2    1    1    2  502    0  0.26214413382E+03  0.10765134853E+03  0.24689220422E+03  0.37585119428E+03  0.00000000000E+00 0. -1.
         -4    1    3    3    0  502  0.65140160497E+02  0.11968708629E+03  0.78641908752E+03  0.79813734429E+03  0.00000000000E+00 0. -1.
</event>
<event>
 7    1  0.4894942E-006  0.1050345E+04  0.7818608E-02  0.9029169E-01
          4   -1    0    0  501    0  0.00000000000E+00  0.00000000000E+00  0.16371236958E+04  0.16371236958E+04  0.00000000000E+00 0. -1.
         -4   -1    0    0    0  501 -0.00000000000E+00 -0.00000000000E+00 -0.45754670123E+03  0.45754670123E+03  0.00000000000E+00 0. -1.
   -9000010    2    1    2    0  502  0.93228569754E+02  0.29754808637E+03  0.54621609272E+03  0.11866886670E+04  0.10063058891E+04 0.  0.
        -13    1    1    2    0    0 -0.91802318661E+02 -0.28446847688E+03  0.25523996522E+02  0.30000244268E+03  0.10566000000E+00 0.  1.
         13    1    3    3    0    0 -0.34756072462E+03  0.97629003919E+02 -0.10438201603E+03  0.37579980860E+03  0.10566000000E+00 0. -1.
          4    1    1    2  502    0 -0.14262510932E+01 -0.13079609483E+02  0.60783690536E+03  0.60797928739E+03  0.00000000000E+00 0. -1.
         -4    1    3    3    0  502  0.44078929438E+03  0.19991908245E+03  0.65059810875E+03  0.81088885840E+03  0.00000000000E+00 0. -1.
</event>
<event>
 7    1  0.4894942E-006  0.1016349E+04  0.7818608E-02  0.9098139E-01
         -4   -1    0    0    0  501 -0.00000000000E+00  0.00000000000E+00  0.32151521770E+03  0.32151521770E+03  0.00000000000E+00 0. -1.
          4   -1    0    0  501    0  0.00000000000E+00 -0.00000000000E+00 -0.19231057843E+04  0.19231057843E+04  0.00000000000E+00 0. -1.
   -9000010    2    1    2    0  502  0.15935997310E+03 -0.38181561014E+03 -0.13993433054E+04  0.17603021807E+04  0.98454218790E+03 0.  0.
        -13    1    1    2    0    0 -0.44113001204E+02  0.22538382141E+03 -0.17365983194E+03  0.28792633124E+03  0.10566000000E+00 0.  1.
         13    1    3    3    0    0  0.43579917340E+03 -0.53679510225E+03 -0.12028444272E+04  0.13874093226E+04  0.10566000000E+00 0. -1.
          4    1    1    2  502    0 -0.11524697190E+03  0.15643178872E+03 -0.28587429284E+02  0.19639249010E+03  0.00000000000E+00 0. -1.
         -4    1    3    3    0  502 -0.27643920030E+03  0.15497949211E+03 -0.19649887817E+03  0.37289285802E+03  0.00000000000E+00 0. -1.
</event>
<event>
 6    1  0.4894942E-006  0.5490774E+03  0.7818608E-02  0.9974145E-01
         -2   -1    0    0    0  501  0.00000000000E+00  0.00000000000E+00  0.51255794565E+03  0.51255794565E+03  0.00000000000E+00 0. -1.
         -4   -1    0    0    0  502 -0.00000000000E+00 -0.00000000000E+00 -0.38489891337E+03  0.38489891337E+03  0.00000000000E+00 0. -1.
        -13    1    1    2    0    0 -0.23967652166E+02  0.63529566920E+02 -0.18550279195E+03  0.19753923967E+03  0.10566000000E+00 0.  1.
         13    1    1    2    0    0 -0.20203324161E+03  0.56739463423E+02  0.23466898473E+03  0.31481159601E+03  0.10566000000E+00 0. -1.
         -2    1    1    2    0  502 -0.36477865609E+02 -0.38664775579E+02  0.95939576726E+02  0.10968136547E+03  0.00000000000E+00 0. -1.
         -4    1    1    2    0  501  0.26247875938E+03 -0.81604254764E+02 -0.17446737229E+02  0.27542465787E+03  0.00000000000E+00 0. -1.
</event>
<event>
 7    1  0.4894942E-006  0.1167430E+04  0.7818608E-02  0.8953350E-01
          4   -1    0    0  501    0  0.00000000000E+00  0.00000000000E+00  0.13653534868E+04  0.13653534868E+04  0.00000000000E+00 0. -1.
         -4   -1    0    0    0  501 -0.00000000000E+00 -0.00000000000E+00 -0.82980127050E+03  0.82980127050E+03  0.00000000000E+00 0.  1.
   -9000010    2    1    2    0  502  0.59377663691E+03  0.38962994341E+03  0.17425239896E+03  0.12340338284E+04  0.99402887464E+03 0.  0.
        -13    1    1    2    0    0 -0.27674380874E+03  0.11069629837E+03  0.11022154503E+03  0.31778861890E+03  0.10566000000E+00 0.  1.
         13    1    3    3    0    0 -0.12907995540E+03  0.27847677456E+03 -0.24348551721E+03  0.39178585619E+03  0.10566000000E+00 0. -1.
          4    1    1    2  502    0 -0.31703282818E+03 -0.50032624178E+03  0.25107827234E+03  0.64333231009E+03  0.00000000000E+00 0.  1.
         -4    1    3    3    0  502  0.72285659231E+03  0.11115316885E+03  0.41773791618E+03  0.84224797216E+03  0.00000000000E+00 0. -1.
</event>
<event>
 7    1  0.4894942E-006  0.1025534E+04  0.7818608E-02  0.9136879E-01
          4   -1    0    0  501    0 -0.00000000000E+00  0.00000000000E+00  0.57092162700E+03  0.57092162700E+03  0.00000000000E+00 0.  1.
          2   -1    0    0  502    0  0.00000000000E+00 -0.00000000000E+00 -0.13220700339E+04  0.13220700339E+04  0.00000000000E+00 0.  1.
    9000010    2    1    2  502    0 -0.11209179241E+03 -0.19966893225E+03 -0.12652406534E+02  0.10295099994E+04  0.10036426172E+04 0.  0.
        -13    1    3    3    0    0 -0.48274073684E+03 -0.21932617183E+03 -0.25281689865E+03  0.58741721465E+03  0.10566000000E+00 0.  1.
         13    1    1    2    0    0  0.99040500335E+02  0.17934279223E+03 -0.10627055817E+03  0.23079493177E+03  0.10566000000E+00 0. -1.
          2    1    1    2  501    0  0.13051292077E+02  0.20326140018E+02 -0.63222544223E+03  0.63268672975E+03  0.00000000000E+00 0.  1.
          4    1    3    3  502    0  0.37064894443E+03  0.19657239584E+02  0.24016449212E+03  0.44209278478E+03  0.00000000000E+00 0.  1.
</event>
<event>
 7    1  0.4894942E-006  0.1362004E+04  0.7818608E-02  0.8574994E-01
          1   -1    0    0  501    0  0.00000000000E+00  0.00000000000E+00  0.27030726033E+04  0.27030726033E+04  0.00000000000E+00 0. -1.
         -4   -1    0    0    0  501 -0.00000000000E+00 -0.00000000000E+00 -0.13565099940E+04  0.13565099940E+04  0.00000000000E+00 0. -1.
   -9000010    2    1    2    0  502  0.93532169517E+03 -0.14440489277E+03  0.14764917958E+04  0.20097483039E+04  0.98151962571E+03 0.  0.
        -13    1    1    2    0    0 -0.93088812535E+03  0.15707261514E+03 -0.88537948114E+03  0.12942647894E+04  0.10566000000E+00 0.  1.
         13    1    3    3    0    0  0.43806257638E+03  0.42117664360E+03  0.59695066198E+03  0.85184428738E+03  0.10566000000E+00 0. -1.
          1    1    1    2  502    0 -0.44335698146E+01 -0.12667722371E+02  0.75545029459E+03  0.75556950396E+03  0.00000000000E+00 0. -1.
         -4    1    3    3    0  502  0.49725911879E+03 -0.56558153637E+03  0.87954113383E+03  0.11579040166E+04  0.00000000000E+00 0. -1.
</event>
<event>
 7    1  0.4894942E-006  0.1043337E+04  0.7818608E-02  0.9048068E-01
         -4   -1    0    0    0  501 -0.00000000000E+00  0.00000000000E+00  0.10375956218E+04  0.10375956218E+04  0.00000000000E+00 0. -1.
          2   -1    0    0  501    0  0.00000000000E+00 -0.00000000000E+00 -0.11209179437E+04  0.11209179437E+04  0.00000000000E+00 0. -1.
   -9000010    2    1    2    0  502  0.21743387315E+03 -0.19555475253E+03  0.62738946853E+03  0.12192898726E+04  0.10037584858E+04 0.  0.
        -13    1    1    2    0    0 -0.20813373652E+03  0.18747633994E+03 -0.57580819991E+02  0.28597655902E+03  0.10566000000E+00 0.  1.
         13    1    3    3    0    0  0.32235616609E+03  0.16371998209E+03  0.74405574576E+03  0.82724645318E+03  0.10566000000E+00 0. -1.
          2    1    1    2  502    0 -0.93001366340E+01  0.80784125891E+01 -0.65313097046E+03  0.65324713383E+03  0.00000000000E+00 0. -1.
         -4    1    3    3    0  502 -0.10492229294E+03 -0.35927473462E+03 -0.11666627723E+03  0.39204341945E+03  0.00000000000E+00 0. -1.
</event>
<event>
 7    1  0.4894942E-006  0.1152690E+04  0.7818608E-02  0.8803938E-01
          2   -1    0    0  501    0  0.00000000000E+00  0.00000000000E+00  0.15245298591E+04  0.15245298591E+04  0.00000000000E+00 0. -1.
         -4   -1    0    0    0  501 -0.00000000000E+00 -0.00000000000E+00 -0.11003381776E+04  0.11003381776E+04  0.00000000000E+00 0. -1.
   -9000010    2    1    2    0  502 -0.13328575985E+03 -0.66619429530E+03 -0.38112733934E+03  0.12661800538E+04  0.99818532701E+03 0.  0.
        -13    1    1    2    0    0  0.46164541948E+03  0.32611751296E+03  0.22050837571E+03  0.60670675001E+03  0.10566000000E+00 0.  1.
         13    1    3    3    0    0 -0.34871196656E+03 -0.44713312993E+03  0.20618600686E+03  0.60335789718E+03  0.10566000000E+00 0. -1.
          2    1    1    2  502    0 -0.32835965963E+03  0.34007678234E+03  0.58481064511E+03  0.75198123287E+03  0.00000000000E+00 0. -1.
         -4    1    3    3    0  502  0.21542620671E+03 -0.21906116537E+03 -0.58731334620E+03  0.66282215665E+03  0.00000000000E+00 0. -1.
</event>
<event>
 7    1  0.4894942E-006  0.1028465E+04  0.7818608E-02  0.9076231E-01
          2   -1    0    0  502    0  0.00000000000E+00  0.00000000000E+00  0.76706508388E+03  0.76706508388E+03  0.00000000000E+00 0. -1.
          4   -1    0    0  501    0 -0.00000000000E+00 -0.00000000000E+00 -0.14093134252E+04  0.14093134252E+04  0.00000000000E+00 0.  1.
    9000010    2    1    2  502    0 -0.19001781611E+02  0.28581509050E+03 -0.11588652163E+04  0.15531344055E+04  0.99358268824E+03 0.  0.
        -13    1    3    3    0    0  0.17481791954E+03 -0.25950599716E+03 -0.70920716369E+02  0.32083395507E+03  0.10566000000E+00 0.  1.
         13    1    1    2    0    0 -0.56678737506E+02 -0.23230459212E+03  0.27478877894E+03  0.36426197578E+03  0.10566000000E+00 0. -1.
          2    1    1    2  501    0  0.75680519117E+02 -0.53510498388E+02  0.24182809611E+03  0.25898212772E+03  0.00000000000E+00 0. -1.
          4    1    3    3  502    0 -0.19381970115E+03  0.54532108766E+03 -0.10879445000E+04  0.12323004505E+04  0.00000000000E+00 0.  1.
</event>
<event>
 7    1  0.4894942E-006  0.1219367E+04  0.7818608E-02  0.8718647E-01
          2   -1    0    0  501    0  0.00000000000E+00  0.00000000000E+00  0.28134158115E+04  0.28134158115E+04  0.00000000000E+00 0. -1.
         -4   -1    0    0    0  501 -0.00000000000E+00 -0.00000000000E+00 -0.19508022575E+04  0.19508022575E+04  0.00000000000E+00 0. -1.
   -9000010    2    1    2    0  502  0.10518658517E+03 -0.57738855449E+03 -0.75503332334E+03  0.13820538165E+04  0.99777536135E+03 0.  0.
        -13    1    1    2    0    0 -0.55680516885E+02  0.76032054562E+03 -0.71300406298E+03  0.10438210848E+04  0.10566000000E+00 0.  1.
         13    1    3    3    0    0  0.26746008652E+03 -0.80936880837E+03 -0.67655709512E+03  0.10882749101E+04  0.10566000000E+00 0. -1.
          2    1    1    2  502    0 -0.49506068289E+02 -0.18293199113E+03  0.23306509403E+04  0.23383431677E+04  0.00000000000E+00 0. -1.
         -4    1    3    3    0  502 -0.16227350134E+03  0.23198025388E+03 -0.78476228212E+02  0.29377890636E+03  0.00000000000E+00 0. -1.
</event>
<event>
 7    1  0.4894942E-006  0.9915581E+03  0.7818608E-02  0.9150801E-01
         -4   -1    0    0    0  501 -0.00000000000E+00  0.00000000000E+00  0.25658810508E+04  0.25658810508E+04  0.00000000000E+00 0. -1.
          1   -1    0    0  501    0  0.00000000000E+00 -0.00000000000E+00 -0.98557156990E+03  0.98557156990E+03  0.00000000000E+00 0.  1.
   -9000010    2    1    2    0  502  0.12998852424E+02  0.77371285786E+02  0.15793411645E+04  0.18533516808E+04  0.96666367106E+03 0.  0.
        -13    1    1    2    0    0 -0.72732881189E+02 -0.22706343234E+03  0.82484207496E+03  0.85861069997E+03  0.10566000000E+00 0.  1.
         13    1    3    3    0    0  0.58462657141E+02 -0.43628980119E+03  0.88541856703E+03  0.98880368269E+03  0.10566000000E+00 0. -1.
          1    1    1    2  502    0  0.59734028765E+02  0.14969214656E+03 -0.82387375853E+03  0.83949023993E+03  0.00000000000E+00 0.  1.
         -4    1    3    3    0  502 -0.45463804717E+02  0.51366108698E+03  0.69392259746E+03  0.86454799814E+03  0.00000000000E+00 0. -1.
</event>
<event>
 7    1  0.4894942E-006  0.1107113E+04  0.7818608E-02  0.8865549E-01
         -4   -1    0    0    0  501 -0.00000000000E+00  0.00000000000E+00  0.78169971619E+03  0.78169971619E+03  0.00000000000E+00 0. -1.
          2   -1    0    0  501    0  0.00000000000E+00 -0.00000000000E+00 -0.33179227850E+04  0.33179227850E+04  0.00000000000E+00 0. -1.
   -9000010    2    1    2    0  502  0.57107003588E+02 -0.58309304159E+03 -0.22484103340E+03  0.11692886853E+04  0.98662243749E+03 0.  0.
        -13    1    1    2    0    0 -0.34243903537E+03  0.36994866747E+03  0.81880396647E+02  0.51071608553E+03  0.10566000000E+00 0.  1.
         13    1    3    3    0    0 -0.42275182352E+02  0.10888115210E+03 -0.42610150055E+03  0.44181986857E+03  0.10566000000E+00 0. -1.
          2    1    1    2  502    0  0.28533203178E+03  0.21314437412E+03 -0.23932624320E+04  0.24196177304E+04  0.00000000000E+00 0. -1.
         -4    1    3    3    0  502  0.99382185940E+02 -0.69197419369E+03  0.20126046715E+03  0.72746881669E+03  0.00000000000E+00 0. -1.
</event>
<event>
 7    1  0.4894942E-006  0.1007442E+04  0.7818608E-02  0.9307524E-01
          4   -1    0    0  501    0 -0.00000000000E+00  0.00000000000E+00  0.21802499554E+03  0.21802499554E+03  0.00000000000E+00 0.  1.
          2   -1    0    0  502    0  0.00000000000E+00 -0.00000000000E+00 -0.23978706009E+04  0.23978706009E+04  0.00000000000E+00 0.  1.
    9000010    2    1    2  502    0 -0.87190869030E+02  0.76492707298E+02 -0.11274643104E+04  0.15120543501E+04  0.10008392502E+04 0.  0.
        -13    1    3    3    0    0 -0.40726317499E+03 -0.29435135407E+03 -0.70137835785E+03  0.86280798870E+03  0.10566000000E+00 0.  1.
         13    1    1    2    0    0  0.77616720515E+02 -0.85032482190E+02 -0.10331915022E+03  0.15469239250E+03  0.10566000000E+00 0. -1.
          2    1    1    2  501    0  0.95741485156E+01  0.85397748915E+01 -0.94906214474E+03  0.94914885380E+03  0.00000000000E+00 0.  1.
          4    1    3    3  502    0  0.32007230596E+03  0.37084406137E+03 -0.42608595253E+03  0.64924636144E+03  0.00000000000E+00 0.  1.
</event>
<event>
 7    1  0.4894942E-006  0.1160593E+04  0.7818608E-02  0.8762084E-01
          1   -1    0    0  501    0  0.00000000000E+00  0.00000000000E+00  0.36139552351E+04  0.36139552351E+04  0.00000000000E+00 0.  1.
         -4   -1    0    0    0  501 -0.00000000000E+00 -0.00000000000E+00 -0.27310520651E+04  0.27310520651E+04  0.00000000000E+00 0. -1.
   -9000010    2    1    2    0  502 -0.55366838363E+03 -0.32369560851E+03 -0.15293842671E+03  0.11517203201E+04  0.94432092392E+03 0.  0.
        -13    1    1    2    0    0  0.23628134533E+03  0.65305520255E+03 -0.20031211416E+04  0.21200953495E+04  0.10566000000E+00 0.  1.
         13    1    3    3    0    0 -0.80493273957E+02 -0.25585071288E+03  0.36107233975E+03  0.44979106275E+03  0.10566000000E+00 0. -1.
          1    1    1    2  502    0  0.31738703830E+03 -0.32935959404E+03  0.30389627383E+04  0.30731916307E+04  0.00000000000E+00 0.  1.
         -4    1    3    3    0  502 -0.47317510967E+03 -0.67844895630E+02 -0.51401076646E+03  0.70192925735E+03  0.00000000000E+00 0. -1.
</event>
<event>
 7    1  0.4894942E-006  0.1759217E+04  0.7818608E-02  0.8314704E-01
          2   -1    0    0  501    0  0.00000000000E+00  0.00000000000E+00  0.23189567480E+04  0.23189567480E+04  0.00000000000E+00 0.  1.
         -4   -1    0    0    0  501 -0.00000000000E+00 -0.00000000000E+00 -0.13718207389E+04  0.13718207389E+04  0.00000000000E+00 0. -1.
   -9000010    2    1    2    0  502 -0.15488318252E+03 -0.14401434264E+04 -0.22572740439E+03  0.17722513600E+04  0.99595187294E+03 0.  0.
        -13    1    1    2    0    0  0.14577927455E+03  0.14459479102E+04  0.10444576007E+04  0.17896671888E+04  0.10566000000E+00 0.  1.
         13    1    3    3    0    0  0.29010750200E+03 -0.79126882638E+03 -0.44828101387E+03  0.95458084879E+03  0.10566000000E+00 0. -1.
          2    1    1    2  502    0  0.91039079680E+01 -0.58044838277E+01  0.12840581274E+03  0.12885893806E+03  0.00000000000E+00 0.  1.
         -4    1    3    3    0  502 -0.44499068452E+03 -0.64887460000E+03  0.22255360948E+03  0.81767051123E+03  0.00000000000E+00 0. -1.
</event>
<event>
 7    1  0.4894942E-006  0.1163401E+04  0.7818608E-02  0.8790717E-01
          1   -1    0    0  501    0  0.00000000000E+00  0.00000000000E+00  0.57377069345E+03  0.57377069345E+03  0.00000000000E+00 0.  1.
         -4   -1    0    0    0  501 -0.00000000000E+00 -0.00000000000E+00 -0.15027143585E+04  0.15027143585E+04  0.00000000000E+00 0. -1.
   -9000010    2    1    2    0  502  0.58473282265E+03  0.37943943658E+01 -0.87462195625E+03  0.14521542347E+04  0.10009303091E+04 0.  0.
        -13    1    1    2    0    0 -0.60064781408E+03 -0.60268581326E+01 -0.66245051285E+02  0.60431989672E+03  0.10566000000E+00 0.  1.
         13    1    3    3    0    0  0.77733204456E+03 -0.21630258237E+03 -0.82777283695E+03  0.11559583883E+04  0.10566000000E+00 0. -1.
          1    1    1    2  502    0  0.15914991436E+02  0.22324637668E+01  0.11923342478E+02  0.20010920586E+02  0.00000000000E+00 0.  1.
         -4    1    3    3    0  502 -0.19259922191E+03  0.22009697674E+03 -0.46849119309E+02  0.29619584641E+03  0.00000000000E+00 0. -1.
</event>
<event>
 7    1  0.4894942E-006  0.1051860E+04  0.7818608E-02  0.9489964E-01
         -2   -1    0    0    0  501  0.00000000000E+00  0.00000000000E+00  0.45073118730E+04  0.45073118730E+04  0.00000000000E+00 0. -1.
         -4   -1    0    0    0  502 -0.00000000000E+00 -0.00000000000E+00 -0.23144622100E+04  0.23144622100E+04  0.00000000000E+00 0. -1.
   -9000010    2    1    2    0  501  0.29347672727E+03  0.84465313150E+02 -0.20204255135E+04  0.22785712347E+04  0.10082185465E+04 0.  0.
        -13    1    1    2    0    0 -0.23399649302E+02  0.45772223574E+02 -0.15569179330E+03  0.16395909765E+03  0.10566000000E+00 0.  1.
         13    1    3    3    0    0 -0.13413696624E+03 -0.38968175973E+03 -0.71202669580E+03  0.82269473456E+03  0.10566000000E+00 0. -1.
         -2    1    1    2    0  502 -0.27007707797E+03 -0.13023753672E+03  0.43689669698E+04  0.43792437506E+04  0.00000000000E+00 0. -1.
         -4    1    3    3    0  501  0.42761369350E+03  0.47414707288E+03 -0.13083988177E+04  0.14558765002E+04  0.00000000000E+00 0. -1.
</event>
<event>
 7    1  0.7000655E-006  0.1113916E+04  0.7818608E-02  0.8978177E-01
          4   -1    0    0  501    0  0.00000000000E+00  0.00000000000E+00  0.23784750858E+04  0.23784750858E+04  0.00000000000E+00 0.  1.
         -4   -1    0    0    0  501 -0.00000000000E+00 -0.00000000000E+00 -0.56973337515E+03  0.56973337515E+03  0.00000000000E+00 0. -1.
   -9000010    2    1    2    0  502  0.21300655079E+03  0.11471247235E+02  0.17737643797E+03  0.10364653309E+04  0.99864638444E+03 0.  0.
        -13    1    1    2    0    0  0.30984090793E+03 -0.12095089035E+02  0.15729216201E+03  0.34769025698E+03  0.10566000000E+00 0.  1.
         13    1    3    3    0    0  0.47281121832E+03  0.14893056906E+02 -0.25095290838E+03  0.53549007900E+03  0.10566000000E+00 0. -1.
          4    1    1    2  502    0 -0.52284745872E+03  0.62384180013E+00  0.14740731107E+04  0.15640528731E+04  0.00000000000E+00 0.  1.
         -4    1    3    3    0  502 -0.25980466753E+03 -0.34218096718E+01  0.42832934635E+03  0.50097525188E+03  0.00000000000E+00 0. -1.
</event>
<event>
 7    1  0.4894942E-006  0.1063672E+04  0.7818608E-02  0.8991500E-01
          4   -1    0    0  501    0 -0.00000000000E+00  0.00000000000E+00  0.59702631930E+03  0.59702631930E+03  0.00000000000E+00 0.  1.
          2   -1    0    0  502    0  0.00000000000E+00 -0.00000000000E+00 -0.13414735723E+04  0.13414735723E+04  0.00000000000E+00 0.  1.
    9000010    2    1    2  502    0  0.11414860056E+03 -0.28308009516E+03 -0.55327845986E+03  0.11903187294E+04  0.10087504053E+04 0.  0.
        -13    1    3    3    0    0  0.43830250887E+03 -0.32293427860E+03 -0.65173327156E+03  0.84920663327E+03  0.10566000000E+00 0.  1.
         13    1    1    2    0    0 -0.19187512927E+03  0.28317606308E+03  0.16772452450E+03  0.38096755140E+03  0.10566000000E+00 0. -1.
          2    1    1    2  501    0  0.77726528711E+02 -0.95967925889E-01 -0.35889331765E+03  0.36721361076E+03  0.00000000000E+00 0.  1.
          4    1    3    3  502    0 -0.32415390831E+03  0.39854183445E+02  0.98454811698E+02  0.34111209617E+03  0.00000000000E+00 0.  1.
</event>
<event>
 7    1  0.4894942E-006  0.1071971E+04  0.7818608E-02  0.8960829E-01
         -4   -1    0    0    0  501 -0.00000000000E+00  0.00000000000E+00  0.31746149045E+04  0.31746149045E+04  0.00000000000E+00 0. -1.
          1   -1    0    0  501    0  0.00000000000E+00 -0.00000000000E+00 -0.73648575271E+03  0.73648575271E+03  0.00000000000E+00 0.  1.
   -9000010    2    1    2    0  502  0.26859800595E+03 -0.24613912309E+03  0.10811331265E+04  0.15202865583E+04  0.10048348250E+04 0.  0.
        -13    1    1    2    0    0 -0.29803660009E+03  0.22643447004E+03  0.18545783746E+04  0.18919723420E+04  0.10566000000E+00 0.  1.
         13    1    3    3    0    0 -0.35391240249E+03 -0.13436491529E+03  0.17954261581E+03  0.41897909394E+03  0.10566000000E+00 0. -1.
          1    1    1    2  502    0  0.29438594145E+02  0.19704653052E+02 -0.49758234925E+03  0.49884175694E+03  0.00000000000E+00 0.  1.
         -4    1    3    3    0  502  0.62251040844E+03 -0.11177420780E+03  0.90159051069E+03  0.11013074644E+04  0.00000000000E+00 0. -1.
</event>
<event>
 7    1  0.4894942E-006  0.1033811E+04  0.7818608E-02  0.9019549E-01
         -4   -1    0    0    0  501 -0.00000000000E+00  0.00000000000E+00  0.11584031692E+04  0.11584031692E+04  0.00000000000E+00 0. -1.
          4   -1    0    0  501    0  0.00000000000E+00 -0.00000000000E+00 -0.17142225216E+04  0.17142225216E+04  0.00000000000E+00 0.  1.
   -9000010    2    1    2    0  502  0.13092460168E+03 -0.29056420582E+03  0.61364671928E+03  0.11996912815E+04  0.98037139172E+03 0.  0.
        -13    1    1    2    0    0 -0.16603264234E+03  0.28753713400E+03  0.14190946108E+03  0.36108551350E+03  0.10566000000E+00 0.  1.
         13    1    3    3    0    0 -0.34426872593E+03  0.46988374111E+02  0.49513145859E+03  0.60488348911E+03  0.10566000000E+00 0. -1.
          4    1    1    2  502    0  0.35108040665E+02  0.30270718139E+01 -0.13113755328E+04  0.13118488959E+04  0.00000000000E+00 0.  1.
         -4    1    3    3    0  502  0.47519332761E+03 -0.33755257993E+03  0.11851526070E+03  0.59480779235E+03  0.00000000000E+00 0. -1.
</event>
<event>
 7    1  0.4894942E-006  0.1113155E+04  0.7818608E-02  0.8859470E-01
          2   -1    0    0  502    0  0.00000000000E+00  0.00000000000E+00  0.67015647317E+03  0.67015647317E+03  0.00000000000E+00 0.  1.
          4   -1    0    0  501    0 -0.00000000000E+00 -0.00000000000E+00 -0.23396396070E+04  0.23396396070E+04  0.00000000000E+00 0.  1.
    9000010    2    1    2  502    0 -0.43118538204E+02 -0.50794115301E+03 -0.77018319860E+03  0.13547245354E+04  0.99107667927E+03 0.  0.
        -13    1    3    3    0    0  0.55758409492E+02  0.26524219996E+03 -0.42077607103E+03  0.50051467309E+03  0.10566000000E+00 0.  1.
         13    1    1    2    0    0  0.30895861761E+02  0.50540859427E+03 -0.12268752158E+04  0.13272585309E+04  0.10566000000E+00 0. -1.
          2    1    1    2  501    0  0.12222676443E+02  0.25325587353E+01  0.32757528055E+03  0.32781301392E+03  0.00000000000E+00 0.  1.
          4    1    3    3  502    0 -0.98876947696E+02 -0.77318335297E+03 -0.34940712757E+03  0.85420986232E+03  0.00000000000E+00 0.  1.
</event>
<event>
 7    1  0.4894942E-006  0.1051785E+04  0.7818608E-02  0.8994391E-01
          2   -1    0    0  502    0  0.00000000000E+00  0.00000000000E+00  0.35404496861E+04  0.35404496861E+04  0.00000000000E+00 0.  1.
          4   -1    0    0  501    0 -0.00000000000E+00 -0.00000000000E+00 -0.16609889567E+03  0.16609889567E+03  0.00000000000E+00 0.  1.
    9000010    2    1    2  502    0 -0.20621599912E+03  0.35462286357E+03  0.21326054452E+04  0.23882211571E+04  0.99363569610E+03 0.  0.
        -13    1    3    3    0    0 -0.55028816581E+03 -0.12590127482E+02  0.87572144705E+03  0.10343421294E+04  0.10566000000E+00 0.  1.
         13    1    1    2    0    0  0.94575561858E+02 -0.30564698203E+03  0.93609256137E+03  0.98925927296E+03  0.10566000000E+00 0. -1.
          2    1    1    2  501    0  0.11164043726E+03 -0.48975881541E+02  0.30565278382E+03  0.32906815170E+03  0.00000000000E+00 0.  1.
          4    1    3    3  502    0  0.34407216669E+03  0.36721299105E+03  0.12568839982E+04  0.13538790277E+04  0.00000000000E+00 0.  1.
</event>
<event>
 7    1  0.4894942E-006  0.1105399E+04  0.7818608E-02  0.9028035E-01
         -2   -1    0    0    0  501  0.00000000000E+00  0.00000000000E+00  0.28100826095E+03  0.28100826095E+03  0.00000000000E+00 0. -1.
         -4   -1    0    0    0  502 -0.00000000000E+00 -0.00000000000E+00 -0.33946563207E+04  0.33946563207E+04  0.00000000000E+00 0. -1.
   -9000010    2    1    2    0  501  0.38691495713E+03 -0.19726550638E+03 -0.23205146127E+04  0.25642882799E+04  0.10010841376E+04 0.  0.
        -13    1    1    2    0    0  0.97891913944E+02  0.24018494424E+03 -0.43743760250E+03  0.50855019565E+03  0.10566000000E+00 0.  1.
         13    1    3    3    0    0  0.52657432578E+03  0.15893889509E+03 -0.19701801962E+04  0.20455200096E+04  0.10566000000E+00 0. -1.
         -2    1    1    2    0  502 -0.48480687108E+03 -0.42919437855E+02 -0.35569584452E+03  0.60282610610E+03  0.00000000000E+00 0. -1.
         -4    1    3    3    0  501 -0.13965936865E+03 -0.35620440147E+03 -0.35033441652E+03  0.51876827031E+03  0.00000000000E+00 0. -1.
</event>
<event>
 7    1  0.4894942E-006  0.1021179E+04  0.7818608E-02  0.9145983E-01
          4   -1    0    0  501    0 -0.00000000000E+00  0.00000000000E+00  0.70538711222E+03  0.70538711222E+03  0.00000000000E+00 0.  1.
          2   -1    0    0  502    0  0.00000000000E+00 -0.00000000000E+00 -0.11162284472E+04  0.11162284472E+04  0.00000000000E+00 0. -1.
    9000010    2    1    2  502    0 -0.14682172226E+03 -0.16680089866E+03  0.15405824807E+03  0.10360947930E+04  0.10001896412E+04 0.  0.
        -13    1    3    3    0    0 -0.43665299806E+03 -0.27421269065E+03  0.39061366966E+03  0.64686744432E+03  0.10566000000E+00 0.  1.
         13    1    1    2    0    0  0.13165703717E+03  0.15393409596E+03  0.17011460875E+02  0.20326997393E+03  0.10566000000E+00 0. -1.
          2    1    1    2  501    0  0.15164685083E+02  0.12866802699E+02 -0.58191104394E+03  0.58225079248E+03  0.00000000000E+00 0. -1.
          4    1    3    3  502    0  0.28983127581E+03  0.10741179199E+03 -0.23655542159E+03  0.38922734871E+03  0.00000000000E+00 0.  1.
</event>
<event>
 7    1  0.4894942E-006  0.1030802E+04  0.7818608E-02  0.9088375E-01
         -4   -1    0    0    0  501 -0.00000000000E+00  0.00000000000E+00  0.23885721677E+04  0.23885721677E+04  0.00000000000E+00 0. -1.
          2   -1    0    0  501    0  0.00000000000E+00 -0.00000000000E+00 -0.37755390359E+03  0.37755390359E+03  0.00000000000E+00 0. -1.
   -9000010    2    1    2    0  502  0.93934574805E+02  0.25436775609E+03  0.17812127585E+04  0.20604901400E+04  0.99968698403E+03 0.  0.
        -13    1    1    2    0    0 -0.52857529267E+02 -0.24146490410E+03  0.43264455660E+03  0.49827757509E+03  0.10566000000E+00 0.  1.
         13    1    3    3    0    0  0.21054252837E+03  0.25330491640E+03  0.18794004570E+04  0.19080454989E+04  0.10566000000E+00 0. -1.
          2    1    1    2  502    0 -0.41077045537E+02 -0.12902851992E+02 -0.20283905106E+03  0.20735835622E+03  0.00000000000E+00 0. -1.
         -4    1    3    3    0  502 -0.11660795357E+03  0.10628396881E+01 -0.98187698457E+02  0.15244464107E+03  0.00000000000E+00 0. -1.
</event>
<event>
 7    1  0.4894942E-006  0.1138759E+04  0.7818608E-02  0.8827555E-01
          4   -1    0    0  501    0 -0.00000000000E+00  0.00000000000E+00  0.23869555989E+04  0.23869555989E+04  0.00000000000E+00 0.  1.
          2   -1    0    0  502    0  0.00000000000E+00 -0.00000000000E+00 -0.45984849055E+03  0.45984849055E+03  0.00000000000E+00 0. -1.
    9000010    2    1    2  502    0  0.57027063606E+03 -0.27654176663E+02  0.74492663627E+03  0.13728713492E+04  0.10019414635E+04 0.  0.
        -13    1    3    3    0    0 -0.16150170204E+03 -0.27895085341E+03  0.43027777206E+03  0.53762008023E+03  0.10566000000E+00 0.  1.
         13    1    1    2    0    0 -0.53448355329E+03  0.41373704969E+02  0.12697856192E+04  0.13783105536E+04  0.10566000000E+00 0. -1.
          2    1    1    2  501    0 -0.35787082770E+02 -0.13719528306E+02 -0.87605147207E+02  0.95622186585E+02  0.00000000000E+00 0. -1.
          4    1    3    3  502    0  0.73177233810E+03  0.25129667674E+03  0.31464886421E+03  0.83525126896E+03  0.00000000000E+00 0.  1.
</event>
<event>
 7    1  0.4894942E-006  0.1010810E+04  0.7818608E-02  0.9367791E-01
          4   -1    0    0  501    0 -0.00000000000E+00  0.00000000000E+00  0.50590400611E+03  0.50590400611E+03  0.00000000000E+00 0.  1.
          2   -1    0    0  502    0  0.00000000000E+00 -0.00000000000E+00 -0.78865464714E+03  0.78865464714E+03  0.00000000000E+00 0.  1.
    9000010    2    1    2  502    0  0.17682760871E+02  0.11633796245E+03 -0.24883697653E+03  0.10436678570E+04  0.10067152295E+04 0.  0.
        -13    1    3    3    0    0  0.41696117161E+03 -0.44887748142E+02 -0.40751923895E+03  0.58475932642E+03  0.10566000000E+00 0.  1.
         13    1    1    2    0    0  0.13449944992E+02 -0.89234880681E+02  0.85640848908E+02  0.12441113743E+03  0.10566000000E+00 0. -1.
          2    1    1    2  501    0 -0.31132705862E+02 -0.27103081770E+02 -0.11955451342E+03  0.12647965882E+03  0.00000000000E+00 0.  1.
          4    1    3    3  502    0 -0.39927841074E+03  0.16122571059E+03  0.15868226242E+03  0.45890853059E+03  0.00000000000E+00 0.  1.
</event>
<event>
 7    1  0.4894942E-006  0.1000731E+04  0.7818608E-02  0.9183886E-01
          4   -1    0    0  501    0 -0.00000000000E+00  0.00000000000E+00  0.45299109456E+03  0.45299109456E+03  0.00000000000E+00 0.  1.
          2   -1    0    0  502    0  0.00000000000E+00 -0.00000000000E+00 -0.17654337722E+04  0.17654337722E+04  0.00000000000E+00 0.  1.
    9000010    2    1    2  502    0  0.20759156244E+03 -0.31303633439E+02 -0.43322518271E+03  0.10943439757E+04  0.98276675968E+03 0.  0.
        -13    1    3    3    0    0  0.25479760237E+03  0.45222742127E+03 -0.21875599146E+03  0.56328114977E+03  0.10566000000E+00 0.  1.
         13    1    1    2    0    0 -0.18590188453E+03  0.18398464162E+02  0.50900553660E+02  0.19362048363E+03  0.10566000000E+00 0. -1.
          2    1    1    2  501    0 -0.21689677919E+02  0.12905169277E+02 -0.93011804858E+03  0.93046040744E+03  0.00000000000E+00 0.  1.
          4    1    3    3  502    0 -0.47206039928E+02 -0.48353105471E+03 -0.21446919126E+03  0.53106282592E+03  0.00000000000E+00 0.  1.
</event>
<event>
 7    1  0.4894942E-006  0.1192322E+04  0.7818608E-02  0.8731213E-01
          4   -1    0    0  501    0 -0.00000000000E+00  0.00000000000E+00  0.17764323360E+04  0.17764323360E+04  0.00000000000E+00 0.  1.
          2   -1    0    0  502    0  0.00000000000E+00 -0.00000000000E+00 -0.13861318260E+04  0.13861318260E+04  0.00000000000E+00 0. -1.
    9000010    2    1    2  502    0  0.61264134732E+03  0.36899236402E+03  0.10364469981E+04  0.15820543743E+04  0.95769978493E+03 0.  0.
        -13    1    3    3    0    0  0.69895751599E+03  0.39990536583E+03  0.33095597989E+03  0.87063068092E+03  0.10566000000E+00 0.  1.
         13    1    1    2    0    0 -0.61838528925E+03 -0.33998967575E+03  0.20028815682E+03  0.73355892913E+03  0.10566000000E+00 0. -1.
          2    1    1    2  501    0  0.57439419276E+01 -0.29002688273E+02 -0.84643464495E+03  0.84695085864E+03  0.00000000000E+00 0. -1.
          4    1    3    3  502    0 -0.86316168665E+02 -0.30913001807E+02  0.70549101821E+03  0.71142369333E+03  0.00000000000E+00 0.  1.
</event>
<event>
 7    1  0.4894942E-006  0.1116207E+04  0.7818608E-02  0.8870282E-01
          4   -1    0    0  501    0 -0.00000000000E+00  0.00000000000E+00  0.96704923513E+03  0.96704923513E+03  0.00000000000E+00 0.  1.
          2   -1    0    0  502    0  0.00000000000E+00 -0.00000000000E+00 -0.78003564267E+03  0.78003564267E+03  0.00000000000E+00 0. -1.
    9000010    2    1    2  502    0 -0.52533391302E+02 -0.48224051441E+03  0.22604159417E+03  0.11408048440E+04  0.10074845998E+04 0.  0.
        -13    1    3    3    0    0  0.20769190121E+03 -0.62157799099E+03  0.42836735468E+03  0.78293915883E+03  0.10566000000E+00 0.  1.
         13    1    1    2    0    0  0.70465247515E+02  0.47338504186E+03  0.80297593198E+02  0.48529008191E+03  0.10566000000E+00 0. -1.
          2    1    1    2  501    0 -0.17931856212E+02  0.88554725512E+01 -0.11932559490E+03  0.12098995190E+03  0.00000000000E+00 0. -1.
          4    1    3    3  502    0 -0.26022529251E+03  0.13933747657E+03 -0.20232576052E+03  0.35786568515E+03  0.00000000000E+00 0.  1.
</event>
<event>
 7    1  0.4894942E-006  0.1007483E+04  0.7818608E-02  0.9335767E-01
          2   -1    0    0  502    0  0.00000000000E+00  0.00000000000E+00  0.25193601525E+04  0.25193601525E+04  0.00000000000E+00 0. -1.
          4   -1    0    0  501    0 -0.00000000000E+00 -0.00000000000E+00 -0.10013552397E+04  0.10013552397E+04  0.00000000000E+00 0.  1.
    9000010    2    1    2  502    0  0.54337160871E+02  0.50274674911E+02  0.48750020659E+02  0.99652422162E+03  0.99257437493E+03 0.  0.
        -13    1    3    3    0    0 -0.21021106918E+02 -0.42170940249E+03 -0.18910828208E+03  0.46264744742E+03  0.10566000000E+00 0.  1.
         13    1    1    2    0    0  0.98481192144E+02  0.31839045673E+02 -0.51857643171E+03  0.52880411943E+03  0.10566000000E+00 0. -1.
          2    1    1    2  501    0 -0.15281835301E+03 -0.82113720584E+02  0.19878313238E+04  0.19953870512E+04  0.00000000000E+00 0. -1.
          4    1    3    3  502    0  0.75358267789E+02  0.47198407740E+03  0.23785830274E+03  0.53387677420E+03  0.00000000000E+00 0.  1.
</event>
<event>
 7    1  0.4894942E-006  0.1017907E+04  0.7818608E-02  0.9330103E-01
          2   -1    0    0  501    0  0.00000000000E+00  0.00000000000E+00  0.26255673789E+04  0.26255673789E+04  0.00000000000E+00 0.  1.
         -4   -1    0    0    0  501 -0.00000000000E+00 -0.00000000000E+00 -0.70664067477E+03  0.70664067477E+03  0.00000000000E+00 0. -1.
   -9000010    2    1    2    0  502  0.96314071182E+02  0.10062282277E+03  0.17740062893E+03  0.10375438518E+04  0.10127314099E+04 0.  0.
        -13    1    1    2    0    0 -0.64454947116E+02 -0.78992017775E+02 -0.26698257431E+03  0.28578643290E+03  0.10566000000E+00 0.  1.
         13    1    3    3    0    0 -0.13976099960E+03  0.42444554830E+03  0.38173597758E+03  0.58771551641E+03  0.10566000000E+00 0. -1.
          2    1    1    2  502    0 -0.31859124066E+02 -0.21630804998E+02  0.20085086495E+04  0.20088777690E+04  0.00000000000E+00 0.  1.
         -4    1    3    3    0  502  0.23607507079E+03 -0.32382272553E+03 -0.20433534865E+03  0.44982833540E+03  0.00000000000E+00 0. -1.
</event>
<event>
 7    1  0.4894942E-006  0.1294310E+04  0.7818608E-02  0.8881887E-01
          4   -1    0    0  501    0 -0.00000000000E+00  0.00000000000E+00  0.26543365395E+04  0.26543365395E+04  0.00000000000E+00 0.  1.
          2   -1    0    0  502    0  0.00000000000E+00 -0.00000000000E+00 -0.23481688493E+04  0.23481688493E+04  0.00000000000E+00 0.  1.
    9000010    2    1    2  502    0  0.53885866130E+03  0.79532896801E+03  0.10695373224E+04  0.17579710309E+04  0.10117486038E+04 0.  0.
        -13    1    3    3    0    0  0.17297992835E+03  0.40608314895E+03 -0.11707491284E+03  0.45665317896E+03  0.10566000000E+00 0.  1.
         13    1    1    2    0    0 -0.29169299715E+03 -0.33958541126E+02  0.11413074808E+04  0.11784823987E+04  0.10566000000E+00 0. -1.
          2    1    1    2  501    0 -0.24716566415E+03 -0.76137042689E+03 -0.19046771131E+04  0.20660519591E+04  0.00000000000E+00 0.  1.
          4    1    3    3  502    0  0.36587873295E+03  0.38924581906E+03  0.11866122353E+04  0.13013178520E+04  0.00000000000E+00 0.  1.
</event>
<event>
 7    1  0.4894942E-006  0.9859957E+03  0.7818608E-02  0.9251411E-01
         -4   -1    0    0    0  501 -0.00000000000E+00  0.00000000000E+00  0.77442325651E+03  0.77442325651E+03  0.00000000000E+00 0. -1.
          2   -1    0    0  501    0  0.00000000000E+00 -0.00000000000E+00 -0.87451335789E+03  0.87451335789E+03  0.00000000000E+00 0.  1.
   -9000010    2    1    2    0  502 -0.17664018985E+03  0.72904437910E+02 -0.12129568227E+02  0.99283589730E+03  0.97419668384E+03 0.  0.
        -13    1    1    2    0    0  0.12972411993E+03 -0.76487489055E+02  0.26242768669E+03  0.30256732338E+03  0.10566000000E+00 0.  1.
         13    1    3    3    0    0 -0.55814239390E+03  0.19582553087E+03 -0.21849153535E+02  0.59190199111E+03  0.10566000000E+00 0. -1.
          2    1    1    2  502    0  0.46916069912E+02  0.35830511453E+01 -0.35038821984E+03  0.35353339372E+03  0.00000000000E+00 0.  1.
         -4    1    3    3    0  502  0.38150220405E+03 -0.12292109296E+03  0.97195853076E+01  0.40093390619E+03  0.00000000000E+00 0. -1.
</event>
<event>
 7    1  0.4894942E-006  0.1007542E+04  0.7818608E-02  0.9360400E-01
         -4   -1    0    0    0  501 -0.00000000000E+00  0.00000000000E+00  0.45908699723E+03  0.45908699723E+03  0.00000000000E+00 0. -1.
          1   -1    0    0  501    0  0.00000000000E+00 -0.00000000000E+00 -0.10210273133E+04  0.10210273133E+04  0.00000000000E+00 0. -1.
   -9000010    2    1    2    0  502 -0.21445002640E+02 -0.10041336802E+03 -0.20681585492E+03  0.10293468785E+04  0.10031148817E+04 0.  0.
        -13    1    1    2    0    0  0.13978700859E+01  0.93852160077E+02  0.11494193500E+01  0.93869666670E+02  0.10566000000E+00 0.  1.
         13    1    3    3    0    0 -0.47895964994E+03 -0.16959956081E+03  0.31094054501E+02  0.50905128297E+03  0.10566000000E+00 0. -1.
          1    1    1    2  502    0  0.20047132554E+02  0.65612079417E+01 -0.35627388047E+03  0.35689776530E+03  0.00000000000E+00 0. -1.
         -4    1    3    3    0  502  0.45751464730E+03  0.69186192787E+02 -0.23790990942E+03  0.52029559557E+03  0.00000000000E+00 0. -1.
</event>
<event>
 7    1  0.4894942E-006  0.1180876E+04  0.7818608E-02  0.8760727E-01
          1   -1    0    0  501    0  0.00000000000E+00  0.00000000000E+00  0.16191335642E+04  0.16191335642E+04  0.00000000000E+00 0.  1.
         -4   -1    0    0    0  501 -0.00000000000E+00 -0.00000000000E+00 -0.11301283579E+04  0.11301283579E+04  0.00000000000E+00 0. -1.
   -9000010    2    1    2    0  502  0.43201216492E+03  0.25966507659E+03 -0.12364175089E+03  0.11174730099E+04  0.98964548333E+03 0.  0.
        -13    1    1    2    0    0 -0.69529713620E+03 -0.21073795573E+03 -0.21841050170E+03  0.75865127167E+03  0.10566000000E+00 0.  1.
         13    1    3    3    0    0  0.22175575924E+03 -0.17550245545E+03 -0.45200050612E+03  0.53318026719E+03  0.10566000000E+00 0. -1.
          1    1    1    2  502    0  0.26328497128E+03 -0.48927120859E+02  0.83105745895E+03  0.87313764054E+03  0.00000000000E+00 0.  1.
         -4    1    3    3    0  502  0.21025640568E+03  0.43516753204E+03  0.32835875522E+03  0.58429274273E+03  0.00000000000E+00 0. -1.
</event>
<event>
 7    1  0.4894942E-006  0.1071177E+04  0.7818608E-02  0.8946678E-01
         -4   -1    0    0    0  501 -0.00000000000E+00  0.00000000000E+00  0.13681680852E+04  0.13681680852E+04  0.00000000000E+00 0. -1.
          2   -1    0    0  501    0  0.00000000000E+00 -0.00000000000E+00 -0.13506611190E+04  0.13506611190E+04  0.00000000000E+00 0.  1.
   -9000010    2    1    2    0  502 -0.34454272422E+03 -0.18625953402E+03 -0.31781167738E-01  0.10693866524E+04  0.99508065426E+03 0.  0.
        -13    1    1    2    0    0  0.34206503654E+03  0.20145533872E+03  0.78614027703E+03  0.88068682802E+03  0.10566000000E+00 0.  1.
         13    1    3    3    0    0  0.27499276475E+03  0.74237659295E+02 -0.22251067386E+03  0.36144607048E+03  0.10566000000E+00 0. -1.
          2    1    1    2  502    0  0.24776876786E+01 -0.15195804695E+02 -0.76860152966E+03  0.76875572375E+03  0.00000000000E+00 0.  1.
         -4    1    3    3    0  502 -0.61953548897E+03 -0.26049719332E+03  0.22247889269E+03  0.70794058191E+03  0.00000000000E+00 0. -1.
</event>
<event>
 7    1  0.4894942E-006  0.1119040E+04  0.7818608E-02  0.9195096E-01
          2   -1    0    0  501    0  0.00000000000E+00  0.00000000000E+00  0.12061452140E+04  0.12061452140E+04  0.00000000000E+00 0.  1.
         -4   -1    0    0    0  501 -0.00000000000E+00 -0.00000000000E+00 -0.15651007523E+04  0.15651007523E+04  0.00000000000E+00 0. -1.
   -9000010    2    1    2    0  502 -0.19646692972E+03  0.59559704522E+03 -0.11136106420E+04  0.16186414425E+04  0.99324536888E+03 0.  0.
        -13    1    1    2    0    0 -0.89082724839E+01 -0.12894317040E+03 -0.95901588376E+02  0.16094354392E+03  0.10566000000E+00 0.  1.
         13    1    3    3    0    0 -0.53775941327E+02  0.47390824025E+03  0.12410180657E+02  0.47711098897E+03  0.10566000000E+00 0. -1.
          2    1    1    2  502    0  0.20537520221E+03 -0.46665387482E+03  0.85055669205E+03  0.99166097985E+03  0.00000000000E+00 0.  1.
         -4    1    3    3    0  502 -0.14269098839E+03  0.12168880497E+03 -0.11260208226E+04  0.11415304535E+04  0.00000000000E+00 0. -1.
</event>
<event>
 7    1  0.4894942E-006  0.1089520E+04  0.7818608E-02  0.8939292E-01
          4   -1    0    0  502    0  0.00000000000E+00  0.00000000000E+00  0.18201486942E+04  0.18201486942E+04  0.00000000000E+00 0.  1.
          4   -1    0    0  501    0 -0.00000000000E+00 -0.00000000000E+00 -0.91206530439E+03  0.91206530439E+03  0.00000000000E+00 0.  1.
    9000010    2    1    2  502    0 -0.33925502473E+03 -0.16294539442E+03  0.20773719693E+03  0.11049806578E+04  0.10179304189E+04 0.  0.
        -13    1    3    3    0    0 -0.40099961315E+03  0.29508145533E+03 -0.15062131420E+03  0.52015434871E+03  0.10566000000E+00 0.  1.
         13    1    1    2    0    0  0.39485510848E+03 -0.20316429211E+02 -0.36903322408E+03  0.54084086904E+03  0.10566000000E+00 0. -1.
          4    1    1    2  501    0 -0.55600083749E+02  0.18326182364E+03  0.10693794169E+04  0.10863924717E+04  0.00000000000E+00 0.  1.
          4    1    3    3  502    0  0.61744588417E+02 -0.45802684975E+03  0.35835851113E+03  0.58482630908E+03  0.00000000000E+00 0.  1.
</event>
<event>
 7    1  0.4894942E-006  0.1047663E+04  0.7818608E-02  0.8919732E-01
         -4   -1    0    0    0  501 -0.00000000000E+00  0.00000000000E+00  0.22991784173E+04  0.22991784173E+04  0.00000000000E+00 0. -1.
          4   -1    0    0  501    0  0.00000000000E+00 -0.00000000000E+00 -0.28415075374E+03  0.28415075374E+03  0.00000000000E+00 0.  1.
   -9000010    2    1    2    0  502 -0.39794212102E+03 -0.16991864719E+03  0.14089843998E+04  0.17452539265E+04  0.93458223327E+03 0.  0.
        -13    1    1    2    0    0  0.43758556117E+03  0.23567839439E+03  0.55910446182E+03  0.74807970119E+03  0.10566000000E+00 0.  1.
         13    1    3    3    0    0 -0.49723175146E+03 -0.33291099907E+03  0.14329775329E+04  0.15528985057E+04  0.10566000000E+00 0. -1.
          4    1    1    2  502    0 -0.39643440159E+02 -0.65759747200E+02  0.46938801961E+02  0.89995543384E+02  0.00000000000E+00 0.  1.
         -4    1    3    3    0  502  0.99289630442E+02  0.16299235187E+03 -0.23993133108E+02  0.19235542082E+03  0.00000000000E+00 0. -1.
</event>
<event>
 7    1  0.4894942E-006  0.1067252E+04  0.7818608E-02  0.8976279E-01
          2   -1    0    0  501    0  0.00000000000E+00  0.00000000000E+00  0.11646023584E+04  0.11646023584E+04  0.00000000000E+00 0. -1.
         -4   -1    0    0    0  501 -0.00000000000E+00 -0.00000000000E+00 -0.68369906389E+03  0.68369906389E+03  0.00000000000E+00 0. -1.
   -9000010    2    1    2    0  502  0.35740115670E+03 -0.34381465264E+02 -0.81235203388E+02  0.10715943313E+04  0.10063784481E+04 0.  0.
        -13    1    1    2    0    0 -0.35052701323E+03  0.42707326431E+02  0.18356829873E+03  0.39798295717E+03  0.10566000000E+00 0.  1.
         13    1    3    3    0    0  0.51319038985E+02  0.37255598395E+03  0.26126865036E+03  0.45792239928E+03  0.10566000000E+00 0. -1.
          2    1    1    2  502    0 -0.68741434714E+01 -0.83258611672E+01  0.37857019913E+03  0.37872413375E+03  0.00000000000E+00 0. -1.
         -4    1    3    3    0  502  0.30608211772E+03 -0.40693744922E+03 -0.34250385375E+03  0.61367193206E+03  0.00000000000E+00 0. -1.
</event>
<event>
 7    1  0.4894942E-006  0.9978985E+03  0.7818608E-02  0.8984681E-01
          2   -1    0    0  502    0  0.00000000000E+00  0.00000000000E+00  0.69952450015E+03  0.69952450015E+03  0.00000000000E+00 0. -1.
          4   -1    0    0  501    0 -0.00000000000E+00 -0.00000000000E+00 -0.16447313633E+04  0.16447313633E+04  0.00000000000E+00 0.  1.
    9000010    2    1    2  502    0  0.40399026025E+03 -0.99195173319E+02 -0.12905922244E+04  0.16303512904E+04  0.90519016098E+03 0.  0.
        -13    1    3    3    0    0  0.68634954934E+03  0.66225979142E+01 -0.79574890975E+03  0.10508738750E+04  0.10566000000E+00 0.  1.
         13    1    1    2    0    0 -0.41422974690E+03  0.99065252135E+02  0.62076958899E+02  0.43041116086E+03  0.10566000000E+00 0. -1.
          2    1    1    2  501    0  0.10239486656E+02  0.12992118463E+00  0.28330840232E+03  0.28349341225E+03  0.00000000000E+00 0. -1.
          4    1    3    3  502    0 -0.28235928909E+03 -0.10581777123E+03 -0.49484331465E+03  0.57947741535E+03  0.00000000000E+00 0.  1.
</event>
<event>
 7    1  0.4894942E-006  0.1002222E+04  0.7818608E-02  0.9646273E-01
          4   -1    0    0  501    0 -0.00000000000E+00  0.00000000000E+00  0.58277453740E+03  0.58277453740E+03  0.00000000000E+00 0.  1.
          2   -1    0    0  502    0  0.00000000000E+00 -0.00000000000E+00 -0.10828380016E+04  0.10828380016E+04  0.00000000000E+00 0.  1.
    9000010    2    1    2  502    0  0.17429032056E+03  0.30561954813E+02 -0.74202591859E+02  0.10085797631E+04  0.99015956541E+03 0.  0.
        -13    1    3    3    0    0 -0.33131876094E+03  0.28391971102E+03 -0.76812230134E+02  0.44303798203E+03  0.10566000000E+00 0.  1.
         13    1    1    2    0    0 -0.27978113658E+02  0.19235102495E+02  0.10174240858E+03  0.10725806674E+03  0.10566000000E+00 0. -1.
          2    1    1    2  501    0 -0.14631220690E+03 -0.49797057308E+02 -0.52760328097E+03  0.54977470921E+03  0.00000000000E+00 0.  1.
          4    1    3    3  502    0  0.50560908150E+03 -0.25335775620E+03  0.26096382756E+01  0.56554178107E+03  0.00000000000E+00 0.  1.
</event>
<event>
 7    1  0.4894942E-006  0.2082078E+04  0.7818608E-02  0.8162105E-01
          1   -1    0    0  501    0  0.00000000000E+00  0.00000000000E+00  0.32296009082E+04  0.32296009082E+04  0.00000000000E+00 0.  1.
         -4   -1    0    0    0  501 -0.00000000000E+00 -0.00000000000E+00 -0.25184269988E+04  0.25184269988E+04  0.00000000000E+00 0. -1.
   -9000010    2    1    2    0  502 -0.11253950808E+04  0.19901695000E+04  0.83705280713E+03  0.26306379082E+04  0.99614741663E+03 0.  0.
        -13    1    1    2    0    0 -0.11781008771E+03 -0.17449743520E+04 -0.45703827177E+03  0.18076777088E+04  0.10566000000E+00 0.  1.
         13    1    3    3    0    0 -0.14231049710E+02  0.99298389526E+03  0.43686864908E+03  0.10849303050E+04  0.10566000000E+00 0. -1.
          1    1    1    2  502    0  0.12432051685E+04 -0.24519514795E+03  0.33115937409E+03  0.13097122900E+04  0.00000000000E+00 0.  1.
         -4    1    3    3    0  502 -0.11111640311E+04  0.99718560472E+03  0.40018415805E+03  0.15457076032E+04  0.00000000000E+00 0. -1.
</event>
<event>
 7    1  0.4894942E-006  0.1077873E+04  0.7818608E-02  0.8960524E-01
         -4   -1    0    0    0  501 -0.00000000000E+00  0.00000000000E+00  0.25130336555E+04  0.25130336555E+04  0.00000000000E+00 0. -1.
          2   -1    0    0  501    0  0.00000000000E+00 -0.00000000000E+00 -0.74113889077E+03  0.74113889077E+03  0.00000000000E+00 0. -1.
   -9000010    2    1    2    0  502 -0.32439088474E+03 -0.14867880576E+03  0.10915688936E+04  0.15314761699E+04  0.10131938492E+04 0.  0.
        -13    1    1    2    0    0  0.36916470541E+03  0.40053115309E+02  0.11656427693E+04  0.12233600895E+04  0.10566000000E+00 0.  1.
         13    1    3    3    0    0  0.23930539184E+03 -0.38771001108E+03  0.54855989838E+03  0.71309473180E+03  0.10566000000E+00 0. -1.
          2    1    1    2  502    0 -0.44773820664E+02  0.10862569045E+03 -0.48531689822E+03  0.49933628683E+03  0.00000000000E+00 0. -1.
         -4    1    3    3    0  502 -0.56369627658E+03  0.23903120532E+03  0.54300899524E+03  0.81838143812E+03  0.00000000000E+00 0. -1.
</event>
<event>
 7    1  0.4894942E-006  0.1048947E+04  0.7818608E-02  0.8997278E-01
          4   -1    0    0  501    0  0.00000000000E+00  0.00000000000E+00  0.29812410554E+03  0.29812410554E+03  0.00000000000E+00 0. -1.
         -4   -1    0    0    0  501 -0.00000000000E+00 -0.00000000000E+00 -0.32974089780E+04  0.32974089780E+04  0.00000000000E+00 0. -1.
   -9000010    2    1    2    0  502  0.34963662191E+03 -0.13290243787E+00 -0.24345360663E+04  0.26516809169E+04  0.99106005978E+03 0.  0.
        -13    1    1    2    0    0 -0.34126653436E+03  0.14854478798E+02 -0.71512808411E+03  0.79252235985E+03  0.10566000000E+00 0.  1.
         13    1    3    3    0    0 -0.16830371943E+03 -0.27912960909E+03 -0.15860381947E+04  0.16191839447E+04  0.10566000000E+00 0. -1.
          4    1    1    2  502    0 -0.83700875440E+01 -0.14721576360E+02  0.15037927795E+03  0.15132980675E+03  0.00000000000E+00 0. -1.
         -4    1    3    3    0  502  0.51794034133E+03  0.27899670666E+03 -0.84849787156E+03  0.10324969722E+04  0.00000000000E+00 0. -1.
</event>
<event>
 7    1  0.4894942E-006  0.1029099E+04  0.7818608E-02  0.9100267E-01
          4   -1    0    0  501    0 -0.00000000000E+00  0.00000000000E+00  0.37806133656E+03  0.37806133656E+03  0.00000000000E+00 0.  1.
          2   -1    0    0  502    0  0.00000000000E+00 -0.00000000000E+00 -0.14359744687E+04  0.14359744687E+04  0.00000000000E+00 0.  1.
    9000010    2    1    2  502    0  0.94883691111E+01  0.22594120097E+03 -0.76737759997E+03  0.12810092290E+04  0.10004882850E+04 0.  0.
        -13    1    3    3    0    0  0.12360590735E+03 -0.66785513809E+02  0.21095935185E+03  0.25346120903E+03  0.10566000000E+00 0.  1.
         13    1    1    2    0    0  0.86827419440E+02 -0.22911747023E+03 -0.19992112517E+02  0.24583228360E+03  0.10566000000E+00 0. -1.
          2    1    1    2  501    0 -0.96315788551E+02  0.31762692572E+01 -0.27054341970E+03  0.28719429269E+03  0.00000000000E+00 0.  1.
          4    1    3    3  502    0 -0.11411753824E+03  0.29272671478E+03 -0.97833695183E+03  0.10275480200E+04  0.00000000000E+00 0.  1.
</event>
<event>
 7    1  0.4894942E-006  0.1135526E+04  0.7818608E-02  0.8834817E-01
          2   -1    0    0  501    0  0.00000000000E+00  0.00000000000E+00  0.13955831143E+04  0.13955831143E+04  0.00000000000E+00 0.  1.
         -4   -1    0    0    0  501 -0.00000000000E+00 -0.00000000000E+00 -0.23150324821E+04  0.23150324821E+04  0.00000000000E+00 0. -1.
   -9000010    2    1    2    0  502  0.38440001970E+03 -0.35037230510E+03 -0.14495692561E+04  0.18387267329E+04  0.10045600245E+04 0.  0.
        -13    1    1    2    0    0 -0.36351442537E+03  0.39278748372E+03 -0.56355845786E+03  0.77718909630E+03  0.10566000000E+00 0.  1.
         13    1    3    3    0    0  0.12722814101E+02  0.33477672355E+03 -0.58911531674E+03  0.67771247016E+03  0.10566000000E+00 0. -1.
          2    1    1    2  502    0 -0.20885594324E+02 -0.42415178618E+02  0.10936783461E+04  0.10946997672E+04  0.00000000000E+00 0.  1.
         -4    1    3    3    0  502  0.37167720560E+03 -0.68514902864E+03 -0.86045393938E+03  0.11610142628E+04  0.00000000000E+00 0. -1.
</event>
<event>
 7    1  0.4894942E-006  0.1191579E+04  0.7818608E-02  0.8741843E-01
          2   -1    0    0  501    0  0.00000000000E+00  0.00000000000E+00  0.18847135257E+04  0.18847135257E+04  0.00000000000E+00 0.  1.
         -4   -1    0    0    0  501 -0.00000000000E+00 -0.00000000000E+00 -0.12697063675E+04  0.12697063675E+04  0.00000000000E+00 0. -1.
   -9000010    2    1    2    0  502  0.23801436771E+03 -0.67197075800E+03  0.32062788323E+03  0.12524740783E+04  0.97861817804E+03 0.  0.
        -13    1    1    2    0    0  0.29907177846E+03  0.64412152584E+03 -0.55178420130E+03  0.89933435645E+03  0.10566000000E+00 0.  1.
         13    1    3    3    0    0  0.56167031006E+03 -0.47289703605E+03  0.43778369911E+03  0.85484485275E+03  0.10566000000E+00 0. -1.
          2    1    1    2  502    0 -0.53708614616E+03  0.27849232161E+02  0.84616347624E+03  0.10026114585E+04  0.00000000000E+00 0.  1.
         -4    1    3    3    0  502 -0.32365594236E+03 -0.19907372195E+03 -0.11715581588E+03  0.39762922552E+03  0.00000000000E+00 0. -1.
</event>
<event>
 7    1  0.4894942E-006  0.1028920E+04  0.7818608E-02  0.9101622E-01
          2   -1    0    0  502    0  0.00000000000E+00  0.00000000000E+00  0.36237213105E+04  0.36237213105E+04  0.00000000000E+00 0.  1.
          4   -1    0    0  501    0 -0.00000000000E+00 -0.00000000000E+00 -0.17122371655E+03  0.17122371655E+03  0.00000000000E+00 0.  1.
    9000010    2    1    2  502    0 -0.16057885476E+03 -0.14349951315E+03  0.24706585254E+04  0.26742662704E+04  0.10005842579E+04 0.  0.
        -13    1    3    3    0    0  0.13358036753E+03  0.39096047032E+03  0.10285781783E+04  0.11084524726E+04  0.10566000000E+00 0.  1.
         13    1    1    2    0    0  0.20432405431E+03  0.12977716625E+03  0.14412988775E+03  0.28171593451E+03  0.10566000000E+00 0. -1.
          2    1    1    2  501    0 -0.43745199545E+02  0.13722346903E+02  0.83770918076E+03  0.83896282207E+03  0.00000000000E+00 0.  1.
          4    1    3    3  502    0 -0.29415922230E+03 -0.53445998348E+03  0.14420803471E+04  0.15658137978E+04  0.00000000000E+00 0.  1.
</event>
<event>
 7    1  0.4894942E-006  0.1009746E+04  0.7818608E-02  0.9359511E-01
         -4   -1    0    0    0  501 -0.00000000000E+00  0.00000000000E+00  0.11494155062E+04  0.11494155062E+04  0.00000000000E+00 0. -1.
          2   -1    0    0  501    0  0.00000000000E+00 -0.00000000000E+00 -0.60269474096E+03  0.60269474096E+03  0.00000000000E+00 0.  1.
   -9000010    2    1    2    0  502 -0.91299874816E+01  0.13650832315E+03  0.76705229931E+03  0.12719393697E+04  0.10053569771E+04 0.  0.
        -13    1    1    2    0    0 -0.10999040322E+02 -0.90759612888E+02  0.11173094673E+03  0.14436793910E+03  0.10566000000E+00 0.  1.
         13    1    3    3    0    0  0.25982936356E+03 -0.49232424392E+02  0.88560159040E+03  0.92424310539E+03  0.10566000000E+00 0. -1.
          2    1    1    2  502    0  0.20129027803E+02 -0.45748710260E+02 -0.33206248080E+03  0.33580293835E+03  0.00000000000E+00 0.  1.
         -4    1    3    3    0  502 -0.26895935105E+03  0.18574074754E+03 -0.11854929108E+03  0.34769626433E+03  0.00000000000E+00 0. -1.
</event>
<event>
 7    1  0.4894942E-006  0.1100245E+04  0.7818608E-02  0.8891038E-01
          4   -1    0    0  501    0  0.00000000000E+00  0.00000000000E+00  0.18894077279E+04  0.18894077279E+04  0.00000000000E+00 0.  1.
         -4   -1    0    0    0  501 -0.00000000000E+00 -0.00000000000E+00 -0.59596261882E+03  0.59596261882E+03  0.00000000000E+00 0. -1.
   -9000010    2    1    2    0  502 -0.25739764109E+02 -0.40574332202E+03  0.61604719136E+03  0.12423822590E+04  0.99935446998E+03 0.  0.
        -13    1    1    2    0    0  0.37019952913E+03  0.33952793068E+03  0.25808388799E+02  0.50298408640E+03  0.10566000000E+00 0.  1.
         13    1    3    3    0    0 -0.21879386200E+03 -0.48830918136E+03  0.80052131639E+03  0.96288680529E+03  0.10566000000E+00 0. -1.
          4    1    1    2  502    0 -0.34445976502E+03  0.66215391346E+02  0.65158952893E+03  0.74000400133E+03  0.00000000000E+00 0.  1.
         -4    1    3    3    0  502  0.19305409789E+03  0.82565859338E+02 -0.18447412503E+03  0.27949545371E+03  0.00000000000E+00 0. -1.
</event>
<event>
 7    1  0.4894942E-006  0.1522999E+04  0.7818608E-02  0.8457778E-01
         -4   -1    0    0    0  501 -0.00000000000E+00  0.00000000000E+00  0.22579970263E+04  0.22579970263E+04  0.00000000000E+00 0. -1.
          2   -1    0    0  501    0  0.00000000000E+00 -0.00000000000E+00 -0.12857186699E+04  0.12857186699E+04  0.00000000000E+00 0.  1.
   -9000010    2    1    2    0  502 -0.13079414226E+03 -0.11342578624E+04  0.99810295319E+03  0.18174552110E+04  0.10016416189E+04 0.  0.
        -13    1    1    2    0    0 -0.71472244162E+02  0.11594692813E+04  0.42062839506E+03  0.12354778646E+04  0.10566000000E+00 0.  1.
         13    1    3    3    0    0  0.24338700514E+03 -0.79560857371E+03  0.10150941369E+04  0.13124962304E+04  0.10566000000E+00 0. -1.
          2    1    1    2  502    0  0.20226638643E+03 -0.25211418897E+02 -0.44645299189E+03  0.49078262060E+03  0.00000000000E+00 0.  1.
         -4    1    3    3    0  502 -0.37418114741E+03 -0.33864928872E+03 -0.16991183685E+02  0.50495898066E+03  0.00000000000E+00 0. -1.
</event>
<event>
 7    1  0.4894942E-006  0.1037710E+04  0.7818608E-02  0.9421802E-01
          2   -1    0    0  502    0  0.00000000000E+00  0.00000000000E+00  0.25249598456E+04  0.25249598456E+04  0.00000000000E+00 0. -1.
          4   -1    0    0  501    0 -0.00000000000E+00 -0.00000000000E+00 -0.20311691966E+03  0.20311691966E+03  0.00000000000E+00 0.  1.
    9000010    2    1    2  502    0 -0.13603243010E+03  0.12703555857E+02  0.18362019839E+04  0.21064211682E+04  0.10230866092E+04 0.  0.
        -13    1    3    3    0    0 -0.14177642107E+03  0.50111140752E+03  0.11669597284E+04  0.12778920984E+04  0.10566000000E+00 0.  1.
         13    1    1    2    0    0 -0.25229606394E+02  0.63943248128E+02 -0.30722391916E+02  0.75293748406E+02  0.10566000000E+00 0. -1.
          2    1    1    2  501    0  0.16126203650E+03 -0.76646803985E+02  0.51636333402E+03  0.54636184868E+03  0.00000000000E+00 0. -1.
          4    1    3    3  502    0  0.57439909631E+01 -0.48840785166E+03  0.66924225547E+03  0.82852906980E+03  0.00000000000E+00 0.  1.
</event>
<event>
 7    1  0.4894942E-006  0.1064429E+04  0.7818608E-02  0.9222221E-01
          1   -1    0    0  501    0  0.00000000000E+00  0.00000000000E+00  0.21415187666E+04  0.21415187666E+04  0.00000000000E+00 0.  1.
         -4   -1    0    0    0  501 -0.00000000000E+00 -0.00000000000E+00 -0.38794676818E+03  0.38794676818E+03  0.00000000000E+00 0. -1.
   -9000010    2    1    2    0  502  0.14413154624E+03  0.86864688734E+01  0.70804752438E+03  0.12794149255E+04  0.10558039106E+04 0.  0.
        -13    1    1    2    0    0 -0.13425457142E+03  0.13122434460E+02 -0.57592076486E+02  0.14667428769E+03  0.10566000000E+00 0.  1.
         13    1    3    3    0    0 -0.50352195117E+02  0.51765490352E+03  0.36853627517E+03  0.63743308666E+03  0.10566000000E+00 0. -1.
          1    1    1    2  502    0 -0.98769748238E+01 -0.21808903333E+02  0.11031165505E+04  0.11033763215E+04  0.00000000000E+00 0.  1.
         -4    1    3    3    0  502  0.19448374136E+03 -0.50896843465E+03  0.33951124921E+03  0.64198183888E+03  0.00000000000E+00 0. -1.
</event>
<event>
 7    1  0.4894942E-006  0.1026576E+04  0.7818608E-02  0.9294351E-01
          2   -1    0    0  501    0  0.00000000000E+00  0.00000000000E+00  0.18143666678E+04  0.18143666678E+04  0.00000000000E+00 0. -1.
         -4   -1    0    0    0  501 -0.00000000000E+00 -0.00000000000E+00 -0.27803046388E+03  0.27803046388E+03  0.00000000000E+00 0. -1.
   -9000010    2    1    2    0  502 -0.60163315512E+02  0.23897188544E+02  0.12217391356E+04  0.15929871749E+04  0.10201818091E+04 0.  0.
        -13    1    1    2    0    0  0.96949290044E+02  0.64715925166E+02 -0.46714072778E+02  0.12557679551E+03  0.10566000000E+00 0.  1.
         13    1    3    3    0    0  0.32883793537E+03  0.36823143620E+03  0.48993487985E+03  0.69553215311E+03  0.10566000000E+00 0. -1.
          2    1    1    2  502    0 -0.36785974532E+02 -0.88613113710E+02  0.36131114110E+03  0.37383316135E+03  0.00000000000E+00 0. -1.
         -4    1    3    3    0  502 -0.38900125089E+03 -0.34433424765E+03  0.73180425579E+03  0.89745502177E+03  0.00000000000E+00 0. -1.
</event>
<event>
 7    1  0.4894942E-006  0.1014619E+04  0.7818608E-02  0.9199027E-01
          2   -1    0    0  502    0  0.00000000000E+00  0.00000000000E+00  0.60943330805E+03  0.60943330805E+03  0.00000000000E+00 0.  1.
          4   -1    0    0  501    0 -0.00000000000E+00 -0.00000000000E+00 -0.26329833759E+04  0.26329833759E+04  0.00000000000E+00 0.  1.
    9000010    2    1    2  502    0  0.12132168060E+03  0.10602554098E+03 -0.23921521917E+04  0.25978141366E+04  0.10001428971E+04 0.  0.
        -13    1    3    3    0    0  0.87750500932E+02  0.35762165320E+03 -0.26039260466E+03  0.45099636027E+03  0.10566000000E+00 0.  1.
         13    1    1    2    0    0 -0.12018446317E+03 -0.12912422753E+03 -0.81209555800E+02  0.19419674158E+03  0.10566000000E+00 0. -1.
          2    1    1    2  501    0 -0.11372174336E+01  0.23098686558E+02  0.44981167973E+03  0.45040580569E+03  0.00000000000E+00 0.  1.
          4    1    3    3  502    0  0.33571179667E+02 -0.25159611223E+03 -0.21317595871E+04  0.21468177764E+04  0.00000000000E+00 0.  1.
</event>
<event>
 7    1  0.4894942E-006  0.1076308E+04  0.7818608E-02  0.8910256E-01
          2   -1    0    0  502    0  0.00000000000E+00  0.00000000000E+00  0.11752612181E+04  0.11752612181E+04  0.00000000000E+00 0.  1.
          4   -1    0    0  501    0 -0.00000000000E+00 -0.00000000000E+00 -0.84731781812E+03  0.84731781812E+03  0.00000000000E+00 0.  1.
    9000010    2    1    2  502    0 -0.17217028274E+03 -0.37056755290E+03  0.12911881792E+03  0.10657907215E+04  0.97584592813E+03 0.  0.
        -13    1    3    3    0    0  0.10829082087E+02  0.32480864507E+03  0.12072844379E+03  0.34668904401E+03  0.10566000000E+00 0.  1.
         13    1    1    2    0    0 -0.16376226102E+03  0.47578933394E+03 -0.77691919768E+02  0.50914596531E+03  0.10566000000E+00 0. -1.
          2    1    1    2  501    0  0.33593254376E+03 -0.10522178104E+03  0.27651650179E+03  0.44764234934E+03  0.00000000000E+00 0.  1.
          4    1    3    3  502    0 -0.18299936483E+03 -0.69537619798E+03  0.83903741250E+01  0.71910167752E+03  0.00000000000E+00 0.  1.
</event>
<event>
 7    1  0.4894942E-006  0.1066203E+04  0.7818608E-02  0.8968514E-01
          2   -1    0    0  501    0  0.00000000000E+00  0.00000000000E+00  0.27687081766E+04  0.27687081766E+04  0.00000000000E+00 0.  1.
         -4   -1    0    0    0  501 -0.00000000000E+00 -0.00000000000E+00 -0.15884513470E+04  0.15884513470E+04  0.00000000000E+00 0. -1.
   -9000010    2    1    2    0  502  0.57638074247E+02  0.33801784580E+03 -0.48119475349E+03  0.11621753042E+04  0.10007621272E+04 0.  0.
        -13    1    1    2    0    0 -0.16327018442E+02 -0.37102671955E+03 -0.72148530543E+03  0.81146069237E+03  0.10566000000E+00 0.  1.
         13    1    3    3    0    0  0.32811174018E+03  0.10069720161E+03  0.19605799189E+03  0.39526698294E+03  0.10566000000E+00 0. -1.
          2    1    1    2  502    0 -0.41311055805E+02  0.33008873753E+02  0.23829368886E+04  0.23835235270E+04  0.00000000000E+00 0.  1.
         -4    1    3    3    0  502 -0.27047366593E+03  0.23732064419E+03 -0.67725274538E+03  0.76690832127E+03  0.00000000000E+00 0. -1.
</event>
<event>
 7    1  0.4894942E-006  0.1071791E+04  0.7818608E-02  0.8971670E-01
          2   -1    0    0  502    0  0.00000000000E+00  0.00000000000E+00  0.58197415311E+03  0.58197415311E+03  0.00000000000E+00 0. -1.
          4   -1    0    0  501    0 -0.00000000000E+00 -0.00000000000E+00 -0.19031948708E+04  0.19031948708E+04  0.00000000000E+00 0.  1.
    9000010    2    1    2  502    0 -0.15210632309E+03 -0.30236202689E+03 -0.13700014844E+04  0.17356384576E+04  0.10104343915E+04 0.  0.
        -13    1    3    3    0    0 -0.37775641529E+03 -0.55880062611E+02 -0.13476624550E+04  0.14007200272E+04  0.10566000000E+00 0.  1.
         13    1    1    2    0    0  0.40591952697E+03  0.14789783635E+03 -0.53444240646E+02  0.43531681612E+03  0.10566000000E+00 0. -1.
          2    1    1    2  501    0 -0.25381320388E+03  0.15446419054E+03  0.10222500738E+03  0.31421375011E+03  0.00000000000E+00 0. -1.
          4    1    3    3  502    0  0.22565009220E+03 -0.24648196428E+03 -0.22339029351E+02  0.33491843045E+03  0.00000000000E+00 0.  1.
</event>
<event>
 7    1  0.4894942E-006  0.1226389E+04  0.7818608E-02  0.8708869E-01
         -4   -1    0    0    0  501 -0.00000000000E+00  0.00000000000E+00  0.64323363791E+03  0.64323363791E+03  0.00000000000E+00 0. -1.
          1   -1    0    0  501    0  0.00000000000E+00 -0.00000000000E+00 -0.26374213119E+04  0.26374213119E+04  0.00000000000E+00 0. -1.
   -9000010    2    1    2    0  502  0.61118780222E+03 -0.35009352497E+03 -0.17522870138E+04  0.21340567118E+04  0.99376670542E+03 0.  0.
        -13    1    1    2    0    0 -0.62306038693E+03  0.36235086290E+03  0.16494251009E+03  0.73939734676E+03  0.10566000000E+00 0.  1.
         13    1    3    3    0    0  0.40131219675E+03 -0.66351022705E+03 -0.82113668288E+03  0.11294081476E+04  0.10566000000E+00 0. -1.
          1    1    1    2  502    0  0.11872584705E+02 -0.12257337936E+02 -0.40684317029E+03  0.40720089122E+03  0.00000000000E+00 0. -1.
         -4    1    3    3    0  502  0.20987560547E+03  0.31341670209E+03 -0.93115033090E+03  0.10046485643E+04  0.00000000000E+00 0. -1.
</event>
<event>
 7    1  0.4894942E-006  0.1025647E+04  0.7818608E-02  0.9132130E-01
         -4   -1    0    0    0  501 -0.00000000000E+00  0.00000000000E+00  0.25671424813E+04  0.25671424813E+04  0.00000000000E+00 0. -1.
          2   -1    0    0  501    0  0.00000000000E+00 -0.00000000000E+00 -0.16664110473E+04  0.16664110473E+04  0.00000000000E+00 0.  1.
   -9000010    2    1    2    0  502  0.51393926095E+02 -0.83668551289E+02  0.18548152147E+04  0.21108892721E+04  0.10029318403E+04 0.  0.
        -13    1    1    2    0    0 -0.20026239502E+02  0.23807362514E+03  0.55559499954E+03  0.60478584303E+03  0.10566000000E+00 0.  1.
         13    1    3    3    0    0  0.40920574648E+03  0.28065771210E+03  0.87018212556E+03  0.10017160462E+04  0.10566000000E+00 0. -1.
          2    1    1    2  502    0 -0.31367686593E+02 -0.15440507385E+03 -0.15096787803E+04  0.15178784135E+04  0.00000000000E+00 0.  1.
         -4    1    3    3    0  502 -0.35781182038E+03 -0.36432626339E+03  0.98463308911E+03  0.11091732259E+04  0.00000000000E+00 0. -1.
</event>
<event>
 7    1  0.4894942E-006  0.1082728E+04  0.7818608E-02  0.8922567E-01
          4   -1    0    0  501    0 -0.00000000000E+00  0.00000000000E+00  0.17097895096E+04  0.17097895096E+04  0.00000000000E+00 0.  1.
          2   -1    0    0  502    0  0.00000000000E+00 -0.00000000000E+00 -0.11359061299E+04  0.11359061299E+04  0.00000000000E+00 0. -1.
    9000010    2    1    2  502    0  0.64155633890E+02  0.41704036808E+03  0.97760472400E+03  0.14581915803E+04  0.99627961655E+03 0.  0.
        -13    1    3    3    0    0  0.35527739803E+03  0.44653152770E+03  0.10137912425E+04  0.11633508195E+04  0.10566000000E+00 0.  1.
         13    1    1    2    0    0 -0.93671314335E+02 -0.41453744369E+03  0.39977098313E+03  0.58346590086E+03  0.10566000000E+00 0. -1.
          2    1    1    2  501    0  0.29515680446E+02 -0.25029243823E+01 -0.80349232741E+03  0.80403815844E+03  0.00000000000E+00 0. -1.
          4    1    3    3  502    0 -0.29112176414E+03 -0.29491159624E+02 -0.36186518503E+02  0.29484076071E+03  0.00000000000E+00 0.  1.
</event>
<event>
 7    1  0.4894942E-006  0.1016850E+04  0.7818608E-02  0.9231443E-01
          4   -1    0    0  501    0 -0.00000000000E+00  0.00000000000E+00  0.15137600374E+04  0.15137600374E+04  0.00000000000E+00 0.  1.
          2   -1    0    0  502    0  0.00000000000E+00 -0.00000000000E+00 -0.59990417077E+03  0.59990417077E+03  0.00000000000E+00 0.  1.
    9000010    2    1    2  502    0  0.11985989148E+03 -0.21971602449E+02  0.21484307928E+03  0.10356544606E+04  0.10057700871E+04 0.  0.
        -13    1    3    3    0    0 -0.37058508381E+03  0.20680804680E+03  0.25136738195E+03  0.49324278448E+03  0.10566000000E+00 0.  1.
         13    1    1    2    0    0 -0.10572748342E+03  0.10707759103E+03  0.87190149632E+03  0.88479158094E+03  0.10566000000E+00 0. -1.
          2    1    1    2  501    0 -0.14132408059E+02 -0.85105988582E+02 -0.17288870895E+03  0.19321816667E+03  0.00000000000E+00 0.  1.
          4    1    3    3  502    0  0.49044497529E+03 -0.22877964925E+03 -0.36524302668E+02  0.54241167611E+03  0.00000000000E+00 0.  1.
</event>
<event>
 7    1  0.4894942E-006  0.1108833E+04  0.7818608E-02  0.8909717E-01
          2   -1    0    0  502    0  0.00000000000E+00  0.00000000000E+00  0.12440299409E+04  0.12440299409E+04  0.00000000000E+00 0.  1.
          4   -1    0    0  501    0 -0.00000000000E+00 -0.00000000000E+00 -0.10214242551E+04  0.10214242551E+04  0.00000000000E+00 0.  1.
    9000010    2    1    2  502    0  0.30873089502E+03 -0.32605451873E+03 -0.11021492779E+03  0.11269767023E+04  0.10277659474E+04 0.  0.
        -13    1    3    3    0    0  0.65273046918E+03 -0.30816056004E+03 -0.23729002442E+03  0.75982008595E+03  0.10566000000E+00 0.  1.
         13    1    1    2    0    0 -0.29313219437E+03  0.28595271574E+03 -0.29783185279E+03  0.50635882802E+03  0.10566000000E+00 0. -1.
          2    1    1    2  501    0 -0.15598700652E+02  0.40101802993E+02  0.63065246644E+03  0.63211866567E+03  0.00000000000E+00 0.  1.
          4    1    3    3  502    0 -0.34399957415E+03 -0.17893958691E+02  0.12707509663E+03  0.36715661639E+03  0.00000000000E+00 0.  1.
</event>
<event>
 7    1  0.4894942E-006  0.1102162E+04  0.7818608E-02  0.8905407E-01
         -4   -1    0    0    0  501 -0.00000000000E+00  0.00000000000E+00  0.19525514662E+04  0.19525514662E+04  0.00000000000E+00 0. -1.
          2   -1    0    0  501    0  0.00000000000E+00 -0.00000000000E+00 -0.13999945174E+04  0.13999945174E+04  0.00000000000E+00 0.  1.
   -9000010    2    1    2    0  502 -0.21758304514E+03  0.36802763510E+03  0.11114077170E+04  0.15641825746E+04  0.10142254639E+04 0.  0.
        -13    1    1    2    0    0  0.24552431453E+03 -0.35661455675E+03  0.53829114777E+03  0.69080641431E+03  0.10566000000E+00 0.  1.
         13    1    3    3    0    0 -0.11692248701E+03  0.67451156322E+03  0.42504803810E+03  0.80579312652E+03  0.10566000000E+00 0. -1.
          2    1    1    2  502    0 -0.27941269399E+02 -0.11413078348E+02 -0.10971419160E+04  0.10975569947E+04  0.00000000000E+00 0.  1.
         -4    1    3    3    0  502 -0.10066055812E+03 -0.30648392812E+03  0.68635967889E+03  0.75838944808E+03  0.00000000000E+00 0. -1.
</event>
<event>
 7    1  0.4894942E-006  0.1029278E+04  0.7818608E-02  0.9179971E-01
          4   -1    0    0  501    0 -0.00000000000E+00  0.00000000000E+00  0.82815873635E+03  0.82815873635E+03  0.00000000000E+00 0.  1.
          2   -1    0    0  502    0  0.00000000000E+00 -0.00000000000E+00 -0.17274083884E+04  0.17274083884E+04  0.00000000000E+00 0. -1.
    9000010    2    1    2  502    0  0.33469334987E+03 -0.64676666259E+02 -0.26429401922E+03  0.10984567986E+04  0.10102243811E+04 0.  0.
        -13    1    3    3    0    0  0.65531939894E+02  0.21599846293E+02  0.38456557799E+03  0.39070664628E+03  0.10566000000E+00 0.  1.
         13    1    1    2    0    0 -0.14378290269E+03  0.10176497208E+03  0.38256454126E+03  0.42117130961E+03  0.10566000000E+00 0. -1.
          2    1    1    2  501    0 -0.19091044718E+03 -0.37088305818E+02 -0.10175201741E+04  0.10359390166E+04  0.00000000000E+00 0. -1.
          4    1    3    3  502    0  0.26916140997E+03 -0.86276512552E+02 -0.64885959722E+03  0.70775015234E+03  0.00000000000E+00 0.  1.
</event>
<event>
 7    1  0.4894942E-006  0.1006508E+04  0.7818608E-02  0.9277741E-01
          4   -1    0    0  501    0  0.00000000000E+00  0.00000000000E+00  0.76969954331E+03  0.76969954331E+03  0.00000000000E+00 0. -1.
         -4   -1    0    0    0  501 -0.00000000000E+00 -0.00000000000E+00 -0.19753123622E+04  0.19753123622E+04  0.00000000000E+00 0. -1.
   -9000010    2    1    2    0  502 -0.10859156333E+03 -0.12714794325E+03 -0.12284652276E+04  0.15916744513E+04  0.99816933253E+03 0.  0.
        -13    1    1    2    0    0  0.10963432294E+03  0.66249015480E+02 -0.55636783523E+03  0.57092363418E+03  0.10566000000E+00 0.  1.
         13    1    3    3    0    0 -0.21319104255E+03  0.40981228143E+03 -0.50096349280E+03  0.68144035609E+03  0.10566000000E+00 0. -1.
          4    1    1    2  502    0 -0.10427596168E+01  0.60898927773E+02  0.57922024395E+03  0.58241382002E+03  0.00000000000E+00 0. -1.
         -4    1    3    3    0  502  0.10459947922E+03 -0.53696022468E+03 -0.72750173478E+03  0.91023409519E+03  0.00000000000E+00 0. -1.
</event>
<event>
 7    1  0.4894942E-006  0.1172723E+04  0.7818608E-02  0.8768128E-01
         -4   -1    0    0    0  501 -0.00000000000E+00  0.00000000000E+00  0.58213103199E+03  0.58213103199E+03  0.00000000000E+00 0. -1.
          1   -1    0    0  501    0  0.00000000000E+00 -0.00000000000E+00 -0.15918439745E+04  0.15918439745E+04  0.00000000000E+00 0. -1.
   -9000010    2    1    2    0  502 -0.54524135201E+03 -0.34659027901E+03 -0.96563896283E+03  0.15228083443E+04  0.98441540706E+03 0.  0.
        -13    1    1    2    0    0  0.53500306695E+03  0.34203517961E+03 -0.33685230828E+02  0.63588603670E+03  0.10566000000E+00 0.  1.
         13    1    3    3    0    0  0.24388456946E+03 -0.29939382071E+03 -0.29076804318E+03  0.48338639741E+03  0.10566000000E+00 0. -1.
          1    1    1    2  502    0  0.10238285058E+02  0.45550994056E+01 -0.10388748884E+02  0.15280625475E+02  0.00000000000E+00 0. -1.
         -4    1    3    3    0  502 -0.78912592146E+03 -0.47196458303E+02 -0.67487091965E+03  0.10394219469E+04  0.00000000000E+00 0. -1.
</event>
<event>
 7    1  0.4894942E-006  0.9958935E+03  0.7818608E-02  0.9192632E-01
          4   -1    0    0  501    0 -0.00000000000E+00  0.00000000000E+00  0.58212397844E+03  0.58212397844E+03  0.00000000000E+00 0.  1.
          2   -1    0    0  502    0  0.00000000000E+00 -0.00000000000E+00 -0.24159427193E+04  0.24159427193E+04  0.00000000000E+00 0.  1.
    9000010    2    1    2  502    0  0.13210054087E+03 -0.81722157322E+02 -0.32856152513E+03  0.10438446359E+04  0.97853455953E+03 0.  0.
        -13    1    3    3    0    0 -0.19616759275E+03 -0.45390570152E+03 -0.15936914682E+03  0.51952925466E+03  0.10566000000E+00 0.  1.
         13    1    1    2    0    0 -0.14501919106E+03  0.11789073372E+03  0.18532723115E+03  0.26320141459E+03  0.10566000000E+00 0. -1.
          2    1    1    2  501    0  0.12918650195E+02 -0.36168576395E+02 -0.16905844468E+04  0.16910206472E+04  0.00000000000E+00 0.  1.
          4    1    3    3  502    0  0.32826813362E+03  0.37218354420E+03 -0.16919237831E+03  0.52431538124E+03  0.00000000000E+00 0.  1.
</event>
<event>
 7    1  0.4894942E-006  0.1017741E+04  0.7818608E-02  0.9242671E-01
          4   -1    0    0  501    0 -0.00000000000E+00  0.00000000000E+00  0.92891577539E+03  0.92891577539E+03  0.00000000000E+00 0.  1.
          2   -1    0    0  502    0  0.00000000000E+00 -0.00000000000E+00 -0.11704753854E+04  0.11704753854E+04  0.00000000000E+00 0.  1.
    9000010    2    1    2  502    0  0.24933116444E+03  0.62269320948E+02  0.48424746538E+03  0.11433315695E+04  0.10033284468E+04 0.  0.
        -13    1    3    3    0    0 -0.16491493960E+03 -0.38424818126E+03  0.12603684625E+03  0.43672519951E+03  0.10566000000E+00 0.  1.
         13    1    1    2    0    0 -0.13018858996E+03  0.59164738289E+02  0.57768311407E+02  0.15422945302E+03  0.10566000000E+00 0. -1.
          2    1    1    2  501    0 -0.11914257448E+03 -0.12143405924E+03 -0.78357538684E+03  0.80183013829E+03  0.00000000000E+00 0.  1.
          4    1    3    3  502    0  0.41424610404E+03  0.44651750221E+03  0.35821061912E+03  0.70660637002E+03  0.00000000000E+00 0.  1.
</event>
<event>
 7    1  0.4894942E-006  0.1103847E+04  0.7818608E-02  0.8897914E-01
         -4   -1    0    0    0  501 -0.00000000000E+00  0.00000000000E+00  0.31981420461E+04  0.31981420461E+04  0.00000000000E+00 0. -1.
          1   -1    0    0  501    0  0.00000000000E+00 -0.00000000000E+00 -0.28321250922E+03  0.28321250922E+03  0.00000000000E+00 0.  1.
   -9000010    2    1    2    0  502 -0.38125015866E+03  0.21085540727E+03  0.22356625628E+04  0.24920414121E+04  0.10110744871E+04 0.  0.
        -13    1    1    2    0    0  0.39314744440E+03 -0.21134688855E+03  0.77419027336E+03  0.89364590911E+03  0.10566000000E+00 0.  1.
         13    1    3    3    0    0 -0.57547540818E+03  0.46218111804E+03  0.12005480535E+04  0.14092902367E+04  0.10566000000E+00 0. -1.
          1    1    1    2  502    0 -0.11897285732E+02  0.49148127642E+00 -0.94923299225E+02  0.95667234189E+02  0.00000000000E+00 0.  1.
         -4    1    3    3    0  502  0.19422524952E+03 -0.25132571076E+03  0.10351145093E+04  0.10827511754E+04  0.00000000000E+00 0. -1.
</event>
<event>
 7    1  0.4894942E-006  0.1030300E+04  0.7818608E-02  0.9245518E-01
          2   -1    0    0  501    0  0.00000000000E+00  0.00000000000E+00  0.12341825511E+04  0.12341825511E+04  0.00000000000E+00 0. -1.
         -4   -1    0    0    0  501 -0.00000000000E+00 -0.00000000000E+00 -0.15841501570E+04  0.15841501570E+04  0.00000000000E+00 0. -1.
   -9000010    2    1    2    0  502 -0.46223949546E+02 -0.16462846149E+03 -0.76002473724E+03  0.12844481582E+04  0.10212395830E+04 0.  0.
        -13    1    1    2    0    0  0.57431531946E+02  0.12253845990E+03 -0.55326638869E+03  0.56957682803E+03  0.10566000000E+00 0.  1.
         13    1    3    3    0    0  0.78204313664E+02  0.42422427290E+03 -0.35911579448E+03  0.56128986576E+03  0.10566000000E+00 0. -1.
          2    1    1    2  502    0 -0.11207582401E+02  0.42090001590E+02  0.96332352004E+03  0.96430772184E+03  0.00000000000E+00 0. -1.
         -4    1    3    3    0  502 -0.12442826321E+03 -0.58885273439E+03 -0.40090894276E+03  0.72315829240E+03  0.00000000000E+00 0. -1.
</event>
<event>
 7    1  0.4894942E-006  0.1328018E+04  0.7818608E-02  0.8610108E-01
          2   -1    0    0  502    0  0.00000000000E+00  0.00000000000E+00  0.17065123262E+04  0.17065123262E+04  0.00000000000E+00 0.  1.
          4   -1    0    0  501    0 -0.00000000000E+00 -0.00000000000E+00 -0.16608435862E+04  0.16608435862E+04  0.00000000000E+00 0.  1.
    9000010    2    1    2  502    0 -0.69380710876E+01 -0.86646627757E+03 -0.75818843971E+03  0.15263249709E+04  0.10020011275E+04 0.  0.
        -13    1    3    3    0    0 -0.43893680879E+03 -0.33904944977E+03 -0.72434147524E+02  0.55934494581E+03  0.10566000000E+00 0.  1.
         13    1    1    2    0    0 -0.97786620458E+01  0.87648060068E+03 -0.14802770572E+03  0.88894661169E+03  0.10566000000E+00 0. -1.
          2    1    1    2  501    0  0.16716733133E+02 -0.10014323110E+02  0.95188488547E+03  0.95208432978E+03  0.00000000000E+00 0.  1.
          4    1    3    3  502    0  0.43199873771E+03 -0.52741682780E+03 -0.68575429219E+03  0.96698002507E+03  0.00000000000E+00 0.  1.
</event>
<event>
 7    1  0.4894942E-006  0.1088735E+04  0.7818608E-02  0.8930922E-01
          4   -1    0    0  501    0 -0.00000000000E+00  0.00000000000E+00  0.23395148556E+04  0.23395148556E+04  0.00000000000E+00 0.  1.
          2   -1    0    0  502    0  0.00000000000E+00 -0.00000000000E+00 -0.30322565809E+03  0.30322565809E+03  0.00000000000E+00 0.  1.
    9000010    2    1    2  502    0 -0.16708837139E+03  0.31356823197E+03  0.14885918019E+04  0.18344439586E+04  0.10114521860E+04 0.  0.
        -13    1    3    3    0    0 -0.28339660707E+03  0.52937500110E+03  0.40695148608E+03  0.72536959674E+03  0.10566000000E+00 0.  1.
         13    1    1    2    0    0  0.26307193374E+03 -0.33250921387E+03  0.56758157165E+03  0.70846176416E+03  0.10566000000E+00 0. -1.
          2    1    1    2  501    0 -0.95983562352E+02  0.18940981904E+02 -0.19884175989E+02  0.99834790991E+02  0.00000000000E+00 0.  1.
          4    1    3    3  502    0  0.11630823569E+03 -0.21580676913E+03  0.10816403158E+04  0.11090743618E+04  0.00000000000E+00 0.  1.
</event>
<event>
 7    1  0.4894942E-006  0.1204404E+04  0.7818608E-02  0.8849830E-01
          2   -1    0    0  501    0  0.00000000000E+00  0.00000000000E+00  0.19807916689E+04  0.19807916689E+04  0.00000000000E+00 0.  1.
         -4   -1    0    0    0  501 -0.00000000000E+00 -0.00000000000E+00 -0.93366326150E+03  0.93366326150E+03  0.00000000000E+00 0. -1.
   -9000010    2    1    2    0  502 -0.32319039485E+03 -0.48714822871E+03 -0.47615254131E+02  0.11336811350E+04  0.97015476881E+03 0.  0.
        -13    1    1    2    0    0  0.31917038675E+03 -0.26775239123E+03 -0.39285393696E+02  0.41845481490E+03  0.10566000000E+00 0.  1.
         13    1    3    3    0    0 -0.54508612220E+03  0.82518805451E+01 -0.18153633198E+03  0.57458021645E+03  0.10566000000E+00 0. -1.
          2    1    1    2  502    0  0.40200081038E+01  0.75490061995E+03  0.11340290552E+04  0.13623189805E+04  0.00000000000E+00 0.  1.
         -4    1    3    3    0  502  0.22189572735E+03 -0.49540010926E+03  0.13392107785E+03  0.55910091858E+03  0.00000000000E+00 0. -1.
</event>
<event>
 7    1  0.4894942E-006  0.1136262E+04  0.7818608E-02  0.8852516E-01
          2   -1    0    0  501    0  0.00000000000E+00  0.00000000000E+00  0.45015134134E+03  0.45015134134E+03  0.00000000000E+00 0. -1.
         -4   -1    0    0    0  501 -0.00000000000E+00 -0.00000000000E+00 -0.18166847507E+04  0.18166847507E+04  0.00000000000E+00 0. -1.
   -9000010    2    1    2    0  502 -0.47227042537E+03  0.16000320831E+03 -0.78081925115E+03  0.13815659203E+04  0.10248928274E+04 0.  0.
        -13    1    1    2    0    0  0.46069162140E+03 -0.16226485082E+03 -0.65383840542E+03  0.81613192770E+03  0.10566000000E+00 0.  1.
         13    1    3    3    0    0 -0.27783216652E+03  0.59485609348E+03 -0.37696430926E+03  0.75706445322E+03  0.10566000000E+00 0. -1.
          2    1    1    2  502    0  0.11578803971E+02  0.22616425121E+01  0.68124247245E+02  0.69138244055E+02  0.00000000000E+00 0. -1.
         -4    1    3    3    0  502 -0.19443825885E+03 -0.43485288517E+03 -0.40385494190E+03  0.62450146704E+03  0.00000000000E+00 0. -1.
</event>
<event>
 7    1  0.4894942E-006  0.1026459E+04  0.7818608E-02  0.9143077E-01
         -4   -1    0    0    0  501 -0.00000000000E+00  0.00000000000E+00  0.35590943429E+04  0.35590943429E+04  0.00000000000E+00 0. -1.
          2   -1    0    0  501    0  0.00000000000E+00 -0.00000000000E+00 -0.49127047219E+03  0.49127047219E+03  0.00000000000E+00 0. -1.
   -9000010    2    1    2    0  502  0.49345470304E+01 -0.19974304614E+03  0.27848099436E+04  0.29675953266E+04  0.10057504495E+04 0.  0.
        -13    1    1    2    0    0  0.42758778038E+01  0.20603722186E+03  0.66726119439E+03  0.69836031718E+03  0.10566000000E+00 0.  1.
         13    1    3    3    0    0  0.10952853054E+03 -0.28410605362E+03  0.16882024712E+03  0.34815662525E+03  0.10566000000E+00 0. -1.
          2    1    1    2  502    0 -0.92104248342E+01 -0.62941757141E+01 -0.38424726724E+03  0.38440917127E+03  0.00000000000E+00 0. -1.
         -4    1    3    3    0  502 -0.10459398351E+03  0.84363007471E+02  0.26159896964E+04  0.26194387014E+04  0.00000000000E+00 0. -1.
</event>
<event>
 7    1  0.4894942E-006  0.1046164E+04  0.7818608E-02  0.9057836E-01
          4   -1    0    0  501    0 -0.00000000000E+00  0.00000000000E+00  0.33446365429E+04  0.33446365429E+04  0.00000000000E+00 0.  1.
          2   -1    0    0  502    0  0.00000000000E+00 -0.00000000000E+00 -0.14200211844E+04  0.14200211844E+04  0.00000000000E+00 0.  1.
    9000010    2    1    2  502    0  0.25481306402E+03  0.42320616465E+02  0.22411682853E+04  0.24718996024E+04  0.10103126393E+04 0.  0.
        -13    1    3    3    0    0 -0.58598308075E+02  0.43524044842E+03  0.15887612897E+04  0.16483417293E+04  0.10566000000E+00 0.  1.
         13    1    1    2    0    0 -0.27291377204E+03 -0.22364828492E+02  0.96898750453E+03  0.10069354039E+04  0.10566000000E+00 0. -1.
          2    1    1    2  501    0  0.18100708022E+02 -0.19955787973E+02 -0.12855404313E+04  0.12858227209E+04  0.00000000000E+00 0.  1.
          4    1    3    3  502    0  0.31341137209E+03 -0.39291983196E+03  0.65240699559E+03  0.82355787313E+03  0.00000000000E+00 0.  1.
</event>
<event>
 7    1  0.4894942E-006  0.1061356E+04  0.7818608E-02  0.8956944E-01
          4   -1    0    0  501    0 -0.00000000000E+00  0.00000000000E+00  0.28725648323E+04  0.28725648323E+04  0.00000000000E+00 0.  1.
          2   -1    0    0  502    0  0.00000000000E+00 -0.00000000000E+00 -0.61263645781E+03  0.61263645781E+03  0.00000000000E+00 0. -1.
    9000010    2    1    2  502    0  0.22420772220E+01 -0.39333703288E+03  0.24606250401E+04  0.26801289770E+04  0.98676070909E+03 0.  0.
        -13    1    3    3    0    0 -0.35965103809E+03 -0.38756572187E+03  0.67105501361E+03  0.85432482138E+03  0.10566000000E+00 0.  1.
         13    1    1    2    0    0  0.11294651316E+02  0.38802376812E+03  0.17732445315E+03  0.42677158601E+03  0.10566000000E+00 0. -1.
          2    1    1    2  501    0 -0.13536728538E+02  0.53132647616E+01 -0.37802111883E+03  0.37830072704E+03  0.00000000000E+00 0. -1.
          4    1    3    3  502    0  0.36189311531E+03 -0.57713110086E+01  0.17895700265E+04  0.18258041556E+04  0.00000000000E+00 0.  1.
</event>
<event>
 7    1  0.4894942E-006  0.1000408E+04  0.7818608E-02  0.9435810E-01
          4   -1    0    0  501    0 -0.00000000000E+00  0.00000000000E+00  0.90623265761E+03  0.90623265761E+03  0.00000000000E+00 0.  1.
          2   -1    0    0  502    0  0.00000000000E+00 -0.00000000000E+00 -0.65579533864E+03  0.65579533864E+03  0.00000000000E+00 0.  1.
    9000010    2    1    2  502    0  0.83428900741E+02  0.78884652020E+01  0.41405117875E+03  0.10834984069E+04  0.99775137678E+03 0.  0.
        -13    1    3    3    0    0  0.37263874687E+02  0.22076530260E+03  0.69375209176E+03  0.72898415016E+03  0.10566000000E+00 0.  1.
         13    1    1    2    0    0 -0.72078416940E+02 -0.85599261878E+01  0.14898394314E+03  0.16572506450E+03  0.10566000000E+00 0. -1.
          2    1    1    2  501    0 -0.11350483802E+02  0.67146098580E+00 -0.31259780293E+03  0.31280452480E+03  0.00000000000E+00 0.  1.
          4    1    3    3  502    0  0.46165026054E+02 -0.21287683740E+03 -0.27970091301E+03  0.35451425679E+03  0.00000000000E+00 0.  1.
</event>
<event>
 7    1  0.4894942E-006  0.1229509E+04  0.7818608E-02  0.8682527E-01
         -4   -1    0    0    0  501 -0.00000000000E+00  0.00000000000E+00  0.10504819923E+04  0.10504819923E+04  0.00000000000E+00 0. -1.
          1   -1    0    0  501    0  0.00000000000E+00 -0.00000000000E+00 -0.13593087811E+04  0.13593087811E+04  0.00000000000E+00 0.  1.
   -9000010    2    1    2    0  502 -0.56841872299E+03 -0.56253901385E+03 -0.31754549977E+02  0.12300914318E+04  0.93411272996E+03 0.  0.
        -13    1    1    2    0    0  0.56044940075E+03  0.56993463515E+03  0.97245254249E+02  0.80522398734E+03  0.10566000000E+00 0.  1.
         13    1    3    3    0    0 -0.60519332991E+03 -0.48591437691E+03  0.34102622946E+03  0.84774444769E+03  0.10566000000E+00 0. -1.
          1    1    1    2  502    0  0.79693222388E+01 -0.73956212960E+01 -0.37431749313E+03  0.37447535429E+03  0.00000000000E+00 0.  1.
         -4    1    3    3    0  502  0.36774606926E+02 -0.76624636949E+02 -0.37278077944E+03  0.38234698406E+03  0.00000000000E+00 0. -1.
</event>
<event>
 7    1  0.4894942E-006  0.1016532E+04  0.7818608E-02  0.9170320E-01
         -4   -1    0    0    0  501 -0.00000000000E+00  0.00000000000E+00  0.42631348770E+03  0.42631348770E+03  0.00000000000E+00 0. -1.
          4   -1    0    0  501    0  0.00000000000E+00 -0.00000000000E+00 -0.20003596019E+04  0.20003596019E+04  0.00000000000E+00 0. -1.
   -9000010    2    1    2    0  502 -0.17860059005E+03  0.48404115602E+02 -0.10803981723E+04  0.14828316912E+04  0.99864332193E+03 0.  0.
        -13    1    1    2    0    0  0.18568718282E+03 -0.40369902436E+02  0.18494252253E+03  0.26516637549E+03  0.10566000000E+00 0.  1.
         13    1    3    3    0    0 -0.18624194022E+03 -0.33050594965E+03 -0.47169204985E+02  0.38228940361E+03  0.10566000000E+00 0. -1.
          4    1    1    2  502    0 -0.70865927669E+01 -0.80342131668E+01 -0.67859046438E+03  0.67867502291E+03  0.00000000000E+00 0. -1.
         -4    1    3    3    0  502  0.76413501719E+01  0.37891006525E+03 -0.10332289673E+04  0.11005422876E+04  0.00000000000E+00 0. -1.
</event>
<event>
 7    1  0.4894942E-006  0.1102439E+04  0.7818608E-02  0.8881974E-01
         -4   -1    0    0    0  501 -0.00000000000E+00  0.00000000000E+00  0.56125444175E+03  0.56125444175E+03  0.00000000000E+00 0. -1.
          2   -1    0    0  501    0  0.00000000000E+00 -0.00000000000E+00 -0.13299456969E+04  0.13299456969E+04  0.00000000000E+00 0.  1.
   -9000010    2    1    2    0  502  0.45276949186E+03 -0.58507301861E+02 -0.81019102316E+03  0.13618097469E+04  0.99483313960E+03 0.  0.
        -13    1    1    2    0    0 -0.47400929818E+03  0.65521126396E+02  0.79714671038E+02  0.48511057782E+03  0.10566000000E+00 0.  1.
         13    1    3    3    0    0  0.74917013987E+03 -0.60133843200E+02 -0.38761931648E+03  0.84564810840E+03  0.10566000000E+00 0. -1.
          2    1    1    2  502    0  0.21239806325E+02 -0.70138245343E+01 -0.38214903056E+02  0.44279813944E+02  0.00000000000E+00 0.  1.
         -4    1    3    3    0  502 -0.29640064801E+03  0.16265413388E+01 -0.42257170669E+03  0.51616163851E+03  0.00000000000E+00 0. -1.
</event>
<event>
 7    1  0.4894942E-006  0.1444190E+04  0.7818608E-02  0.8507395E-01
          2   -1    0    0  501    0  0.00000000000E+00  0.00000000000E+00  0.12339322581E+04  0.12339322581E+04  0.00000000000E+00 0.  1.
         -4   -1    0    0    0  501 -0.00000000000E+00 -0.00000000000E+00 -0.22601579694E+04  0.22601579694E+04  0.00000000000E+00 0. -1.
   -9000010    2    1    2    0  502  0.10503056984E+04 -0.13683523525E+03 -0.12614875886E+04  0.19096918324E+04  0.96628464588E+03 0.  0.
        -13    1    1    2    0    0 -0.10810958533E+04  0.15871485612E+03 -0.23081251909E+03  0.11167958988E+04  0.10566000000E+00 0.  1.
         13    1    3    3    0    0  0.93572574979E+03  0.21062957230E+03 -0.12039920175E+04  0.15393324154E+04  0.10566000000E+00 0. -1.
          2    1    1    2  502    0  0.30790154887E+02 -0.21879620868E+02  0.46607439647E+03  0.46760249625E+03  0.00000000000E+00 0.  1.
         -4    1    3    3    0  502  0.11457994858E+03 -0.34746480755E+03 -0.57495571118E+02  0.37035941706E+03  0.00000000000E+00 0. -1.
</event>
<event>
 6    1  0.4894942E-006  0.1320099E+04  0.7818608E-02  0.8526632E-01
          2   -1    0    0  501    0  0.00000000000E+00  0.00000000000E+00  0.14655939873E+04  0.14655939873E+04  0.00000000000E+00 0.  1.
         -4   -1    0    0    0  501 -0.00000000000E+00 -0.00000000000E+00 -0.20423632640E+04  0.20423632640E+04  0.00000000000E+00 0. -1.
        -13    1    1    2    0    0 -0.79948035541E+03 -0.10086533266E+04 -0.25606855429E+03  0.13122962652E+04  0.10566000000E+00 0.  1.
         13    1    1    2    0    0  0.21801154545E+03  0.49883586402E+03 -0.31760158541E+03  0.63026742848E+03  0.10566000000E+00 0. -1.
          2    1    1    2  502    0  0.10243191462E+02 -0.10631086212E+02  0.59066976635E+03  0.59085422555E+03  0.00000000000E+00 0.  1.
         -4    1    1    2    0  502  0.57122561849E+03  0.52044854881E+03 -0.59376890337E+03  0.97453933209E+03  0.00000000000E+00 0. -1.
</event>
<event>
 7    1  0.4894942E-006  0.1024476E+04  0.7818608E-02  0.9204726E-01
         -4   -1    0    0    0  501 -0.00000000000E+00  0.00000000000E+00  0.37769832509E+03  0.37769832509E+03  0.00000000000E+00 0. -1.
          2   -1    0    0  501    0  0.00000000000E+00 -0.00000000000E+00 -0.12279031793E+04  0.12279031793E+04  0.00000000000E+00 0. -1.
   -9000010    2    1    2    0  502 -0.29168828470E+02  0.16593082315E+03 -0.49831988721E+03  0.11401416327E+04  0.10115415829E+04 0.  0.
        -13    1    1    2    0    0 -0.45603199792E+01 -0.16175551121E+03 -0.61530762127E+02  0.17312333111E+03  0.10566000000E+00 0.  1.
         13    1    3    3    0    0  0.28136066596E+02 -0.30006287290E+03 -0.58930899524E+03  0.66190215966E+03  0.10566000000E+00 0. -1.
          2    1    1    2  502    0  0.33729148449E+02 -0.41753119468E+01 -0.29035420484E+03  0.29233654058E+03  0.00000000000E+00 0. -1.
         -4    1    3    3    0  502 -0.57304895066E+02  0.46599369606E+03  0.90989108026E+02  0.47823947301E+03  0.00000000000E+00 0. -1.
</event>
<event>
 7    1  0.4894942E-006  0.1065558E+04  0.7818608E-02  0.8965438E-01
          2   -1    0    0  501    0  0.00000000000E+00  0.00000000000E+00  0.22000307297E+04  0.22000307297E+04  0.00000000000E+00 0. -1.
         -4   -1    0    0    0  501 -0.00000000000E+00 -0.00000000000E+00 -0.31430458237E+03  0.31430458237E+03  0.00000000000E+00 0. -1.
   -9000010    2    1    2    0  502  0.33535509137E+03  0.76541505502E+02  0.12203718435E+04  0.16136418798E+04  0.99810372221E+03 0.  0.
        -13    1    1    2    0    0 -0.36806557038E+03 -0.92198652477E+02  0.19071463224E+03  0.42467038716E+03  0.10566000000E+00 0.  1.
         13    1    3    3    0    0  0.84653427888E+02 -0.29413507137E+03  0.11118031399E+04  0.11531642884E+04  0.10566000000E+00 0. -1.
          2    1    1    2  502    0  0.32710479013E+02  0.15657146976E+02  0.47463967158E+03  0.47602304516E+03  0.00000000000E+00 0. -1.
         -4    1    3    3    0  502  0.25070166348E+03  0.37067657687E+03  0.10856870362E+03  0.46047759133E+03  0.00000000000E+00 0. -1.
</event>
<event>
 7    1  0.4894942E-006  0.1246007E+04  0.7818608E-02  0.8688231E-01
          4   -1    0    0  501    0 -0.00000000000E+00  0.00000000000E+00  0.17197442694E+04  0.17197442694E+04  0.00000000000E+00 0.  1.
          2   -1    0    0  502    0  0.00000000000E+00 -0.00000000000E+00 -0.19509114089E+04  0.19509114089E+04  0.00000000000E+00 0.  1.
    9000010    2    1    2  502    0 -0.30154586013E+03 -0.74301876678E+03  0.86164597181E+03  0.15415930730E+04  0.99552429824E+03 0.  0.
        -13    1    3    3    0    0 -0.34112061588E+03 -0.62767024855E+03  0.10780104139E+04  0.12932283940E+04  0.10566000000E+00 0.  1.
         13    1    1    2    0    0  0.11670376346E+03  0.70881243870E+03  0.25946750561E+03  0.76377892043E+03  0.10566000000E+00 0. -1.
          2    1    1    2  501    0  0.18484209667E+03  0.34206328079E+02 -0.13522806169E+04  0.13652836849E+04  0.00000000000E+00 0.  1.
          4    1    3    3  502    0  0.39574755746E+02 -0.11534851823E+03 -0.21636444209E+03  0.24836467895E+03  0.00000000000E+00 0.  1.
</event>
<event>
 7    1  0.4894942E-006  0.1008105E+04  0.7818608E-02  0.9314399E-01
         -4   -1    0    0    0  501 -0.00000000000E+00  0.00000000000E+00  0.68887396325E+03  0.68887396325E+03  0.00000000000E+00 0. -1.
          2   -1    0    0  501    0  0.00000000000E+00 -0.00000000000E+00 -0.14794578616E+04  0.14794578616E+04  0.00000000000E+00 0. -1.
   -9000010    2    1    2    0  502  0.22723462266E+02 -0.91588725150E+02  0.56704634117E+02  0.10078982366E+04  0.10018675509E+04 0.  0.
        -13    1    1    2    0    0 -0.18678895016E+02  0.11117781794E+03  0.13616446114E+03  0.17677720430E+03  0.10566000000E+00 0.  1.
         13    1    3    3    0    0 -0.54701958140E+02 -0.49719347225E+03  0.24157512530E+03  0.55547475676E+03  0.10566000000E+00 0. -1.
          2    1    1    2  502    0 -0.40445672504E+01 -0.19589092789E+02 -0.98345299360E+03  0.98365638395E+03  0.00000000000E+00 0. -1.
         -4    1    3    3    0  502  0.77425420406E+02  0.40560474710E+03 -0.18487049118E+03  0.45242347983E+03  0.00000000000E+00 0. -1.
</event>
<event>
 7    1  0.4894942E-006  0.1155820E+04  0.7818608E-02  0.8812062E-01
          2   -1    0    0  501    0  0.00000000000E+00  0.00000000000E+00  0.58147428940E+03  0.58147428940E+03  0.00000000000E+00 0. -1.
         -4   -1    0    0    0  501 -0.00000000000E+00 -0.00000000000E+00 -0.21500614224E+04  0.21500614224E+04  0.00000000000E+00 0. -1.
   -9000010    2    1    2    0  502 -0.69706778123E+02  0.52931676395E+03 -0.64261833554E+03  0.13147827497E+04  0.10152143036E+04 0.  0.
        -13    1    1    2    0    0  0.66481636367E+02 -0.55217980824E+03 -0.11045580322E+04  0.12366773250E+04  0.10566000000E+00 0.  1.
         13    1    3    3    0    0  0.22575243339E+03  0.42342609249E+03 -0.82307916639E+03  0.95273980829E+03  0.10566000000E+00 0. -1.
          2    1    1    2  502    0  0.32251417568E+01  0.22863044293E+02  0.17858923468E+03  0.18007563710E+03  0.00000000000E+00 0. -1.
         -4    1    3    3    0  502 -0.29545921152E+03  0.10589067145E+03  0.18046083084E+03  0.36204294143E+03  0.00000000000E+00 0. -1.
</event>
<event>
 7    1  0.4894942E-006  0.1052733E+04  0.7818608E-02  0.8997463E-01
         -4   -1    0    0    0  501 -0.00000000000E+00  0.00000000000E+00  0.14497622032E+04  0.14497622032E+04  0.00000000000E+00 0. -1.
          2   -1    0    0  501    0  0.00000000000E+00 -0.00000000000E+00 -0.13936114828E+04  0.13936114828E+04  0.00000000000E+00 0. -1.
   -9000010    2    1    2    0  502 -0.21017517514E+03 -0.17120147430E+03 -0.16540513731E+03  0.10457996147E+04  0.99642080752E+03 0.  0.
        -13    1    1    2    0    0  0.36827859135E+02  0.34499280480E+03  0.95927441209E+03  0.10200900624E+04  0.10566000000E+00 0.  1.
         13    1    3    3    0    0 -0.43767055893E+03  0.18008675830E+03  0.17676874682E+03  0.50520684841E+03  0.10566000000E+00 0. -1.
          2    1    1    2  502    0  0.17334731600E+03 -0.17379133050E+03 -0.73771855435E+03  0.77748400881E+03  0.00000000000E+00 0. -1.
         -4    1    3    3    0  502  0.22749538379E+03 -0.35128823259E+03 -0.34217388413E+03  0.54059276631E+03  0.00000000000E+00 0. -1.
</event>
<event>
 7    1  0.4894942E-006  0.1133194E+04  0.7818608E-02  0.8959009E-01
         -4   -1    0    0    0  501 -0.00000000000E+00  0.00000000000E+00  0.94534295947E+03  0.94534295947E+03  0.00000000000E+00 0. -1.
          2   -1    0    0  501    0  0.00000000000E+00 -0.00000000000E+00 -0.88381040458E+03  0.88381040458E+03  0.00000000000E+00 0. -1.
   -9000010    2    1    2    0  502 -0.33231858728E+03  0.11092285708E+03 -0.15249992450E+02  0.11426682970E+04  0.10875287357E+04 0.  0.
        -13    1    1    2    0    0  0.31643227152E+03 -0.37326340220E+01  0.30144837863E+03  0.43705200053E+03  0.10566000000E+00 0.  1.
         13    1    3    3    0    0 -0.17582117211E+02  0.13539316300E+03  0.51103760574E+03  0.52896113758E+03  0.10566000000E+00 0. -1.
          2    1    1    2  502    0  0.15886315760E+02 -0.10719022305E+03 -0.22466583130E+03  0.24943306657E+03  0.00000000000E+00 0. -1.
         -4    1    3    3    0  502 -0.31473647007E+03 -0.24470305921E+02 -0.52628759819E+03  0.61370715938E+03  0.00000000000E+00 0. -1.
</event>
<event>
 7    1  0.4894942E-006  0.1013127E+04  0.7818608E-02  0.9201160E-01
          4   -1    0    0  501    0 -0.00000000000E+00  0.00000000000E+00  0.24177151930E+04  0.24177151930E+04  0.00000000000E+00 0.  1.
          2   -1    0    0  502    0  0.00000000000E+00 -0.00000000000E+00 -0.24028102587E+03  0.24028102587E+03  0.00000000000E+00 0. -1.
    9000010    2    1    2  502    0  0.15709839053E+03  0.90970581716E+02  0.21722982402E+04  0.23977735967E+04  0.99874071986E+03 0.  0.
        -13    1    3    3    0    0  0.90657188651E+02 -0.45308979529E+03  0.87692491653E+03  0.99121461291E+03  0.10566000000E+00 0.  1.
         13    1    1    2    0    0 -0.15834268008E+03 -0.49875711125E+02  0.72620198127E+02  0.18120070429E+03  0.10566000000E+00 0. -1.
          2    1    1    2  501    0  0.12442895496E+01 -0.41094870591E+02 -0.67484271218E+02  0.79021917891E+02  0.00000000000E+00 0. -1.
          4    1    3    3  502    0  0.66441201875E+02  0.54406037701E+03  0.12953733237E+04  0.14065589838E+04  0.00000000000E+00 0.  1.
</event>
<event>
 7    1  0.4894942E-006  0.1003015E+04  0.7818608E-02  0.9128985E-01
          4   -1    0    0  501    0 -0.00000000000E+00  0.00000000000E+00  0.88788932365E+03  0.88788932365E+03  0.00000000000E+00 0.  1.
          2   -1    0    0  502    0  0.00000000000E+00 -0.00000000000E+00 -0.12771531571E+04  0.12771531571E+04  0.00000000000E+00 0.  1.
    9000010    2    1    2  502    0  0.21876658786E+03 -0.53992445064E+02  0.39745072146E+03  0.10773943488E+04  0.97572409150E+03 0.  0.
        -13    1    3    3    0    0  0.51547284527E+03 -0.29904292008E+03  0.34615031121E+03  0.68917267167E+03  0.10566000000E+00 0.  1.
         13    1    1    2    0    0 -0.22361117258E+03  0.70186269737E+02  0.59068302233E+02  0.24169638900E+03  0.10566000000E+00 0. -1.
          2    1    1    2  501    0  0.48445847236E+01 -0.16193824673E+02 -0.84578285711E+03  0.84595174291E+03  0.00000000000E+00 0.  1.
          4    1    3    3  502    0 -0.29670625741E+03  0.24505047502E+03  0.51300410251E+02  0.38822167712E+03  0.00000000000E+00 0.  1.
</event>
<event>
 7    1  0.4894942E-006  0.9978642E+03  0.7818608E-02  0.9276719E-01
         -4   -1    0    0    0  501 -0.00000000000E+00  0.00000000000E+00  0.33058289454E+04  0.33058289454E+04  0.00000000000E+00 0. -1.
          2   -1    0    0  501    0  0.00000000000E+00 -0.00000000000E+00 -0.62556482582E+03  0.62556482582E+03  0.00000000000E+00 0.  1.
   -9000010    2    1    2    0  502  0.11554812445E+03 -0.55935178254E+02  0.31319103341E+04  0.32868425496E+04  0.98893452373E+03 0.  0.
        -13    1    1    2    0    0 -0.12919448142E+03  0.44302195769E+02  0.47860851711E+02  0.14472239243E+03  0.10566000000E+00 0.  1.
         13    1    3    3    0    0 -0.38791865949E+03  0.14490083778E+03  0.18363349094E+04  0.18824460284E+04  0.10566000000E+00 0. -1.
          2    1    1    2  502    0  0.13646356966E+02  0.11632982485E+02 -0.49950706616E+03  0.49982882919E+03  0.00000000000E+00 0.  1.
         -4    1    3    3    0  502  0.50346678395E+03 -0.20083601603E+03  0.12955754247E+04  0.14043965212E+04  0.00000000000E+00 0. -1.
</event>
<event>
 7    1  0.4894942E-006  0.1096372E+04  0.7818608E-02  0.9188379E-01
          2   -1    0    0  502    0  0.00000000000E+00  0.00000000000E+00  0.17702354660E+04  0.17702354660E+04  0.00000000000E+00 0.  1.
          4   -1    0    0  501    0 -0.00000000000E+00 -0.00000000000E+00 -0.40747563598E+03  0.40747563598E+03  0.00000000000E+00 0.  1.
    9000010    2    1    2  502    0 -0.50796100470E+02 -0.11589006884E+03  0.53955736205E+03  0.12081598649E+04  0.10735536132E+04 0.  0.
        -13    1    3    3    0    0 -0.17163346579E+03  0.25851796747E+03 -0.20090734900E+03  0.36966655262E+03  0.10566000000E+00 0.  1.
         13    1    1    2    0    0 -0.14084595481E+03 -0.78475862590E+01  0.30028060183E+02  0.14422504345E+03  0.10566000000E+00 0. -1.
          2    1    1    2  501    0  0.19164205528E+03  0.12373765510E+03  0.79317440781E+03  0.82532619360E+03  0.00000000000E+00 0.  1.
          4    1    3    3  502    0  0.12083736532E+03 -0.37440803630E+03  0.74046471104E+03  0.83849331232E+03  0.00000000000E+00 0.  1.
</event>
<event>
 7    1  0.4894942E-006  0.1073076E+04  0.7818608E-02  0.8943658E-01
          2   -1    0    0  501    0  0.00000000000E+00  0.00000000000E+00  0.15953777634E+04  0.15953777634E+04  0.00000000000E+00 0.  1.
         -4   -1    0    0    0  501 -0.00000000000E+00 -0.00000000000E+00 -0.66518270961E+03  0.66518270961E+03  0.00000000000E+00 0. -1.
   -9000010    2    1    2    0  502  0.39928519797E+03  0.10305546958E+03  0.26878862257E+03  0.11109988157E+04  0.99600298482E+03 0.  0.
        -13    1    1    2    0    0 -0.39050604045E+03 -0.68836965643E+02 -0.82332563520E+02  0.40498414494E+03  0.10566000000E+00 0.  1.
         13    1    3    3    0    0 -0.56880626197E+02  0.46233210365E+03 -0.12083547513E+02  0.46597468062E+03  0.10566000000E+00 0. -1.
          2    1    1    2  502    0 -0.87791575129E+01 -0.34218503935E+02  0.74373899469E+03  0.74457751231E+03  0.00000000000E+00 0.  1.
         -4    1    3    3    0  502  0.45616582416E+03 -0.35927663407E+03  0.28087217008E+03  0.64502413509E+03  0.00000000000E+00 0. -1.
</event>
<event>
 7    1  0.4894942E-006  0.1020808E+04  0.7818608E-02  0.9205752E-01
          2   -1    0    0  501    0  0.00000000000E+00  0.00000000000E+00  0.12003225969E+04  0.12003225969E+04  0.00000000000E+00 0. -1.
         -4   -1    0    0    0  501 -0.00000000000E+00 -0.00000000000E+00 -0.78881852659E+03  0.78881852659E+03  0.00000000000E+00 0. -1.
   -9000010    2    1    2    0  502 -0.14347565779E+03 -0.69131268812E+02 -0.42930792010E+03  0.11068081330E+04  0.10076480319E+04 0.  0.
        -13    1    1    2    0    0  0.15397705903E+03  0.66154753074E+02  0.31843497610E+03  0.35984195313E+03  0.10566000000E+00 0.  1.
         13    1    3    3    0    0 -0.30822895210E+03 -0.44629602403E+03 -0.45920360587E+02  0.54432886994E+03  0.10566000000E+00 0. -1.
          2    1    1    2  502    0 -0.10501401236E+02  0.29765157373E+01  0.52237701434E+03  0.52249103742E+03  0.00000000000E+00 0. -1.
         -4    1    3    3    0  502  0.16475329430E+03  0.37716475521E+03 -0.38338755951E+03  0.56247926304E+03  0.00000000000E+00 0. -1.
</event>
<event>
 7    1  0.4894942E-006  0.1015833E+04  0.7818608E-02  0.9183912E-01
          4   -1    0    0  501    0 -0.00000000000E+00  0.00000000000E+00  0.23472114803E+04  0.23472114803E+04  0.00000000000E+00 0.  1.
          2   -1    0    0  502    0  0.00000000000E+00 -0.00000000000E+00 -0.43260746375E+03  0.43260746375E+03  0.00000000000E+00 0. -1.
    9000010    2    1    2  502    0 -0.13527277267E+03 -0.12359267610E+03  0.12299027813E+04  0.15954898217E+04  0.99967647121E+03 0.  0.
        -13    1    3    3    0    0  0.35129678376E+03 -0.29546498113E+03  0.80652004707E+03  0.92799977524E+03  0.10566000000E+00 0.  1.
         13    1    1    2    0    0  0.14820646049E+03  0.10284395029E+03  0.92518395505E+03  0.94260670213E+03  0.10566000000E+00 0. -1.
          2    1    1    2  501    0 -0.12933687821E+02  0.20748725811E+02 -0.24048271981E+03  0.24172242021E+03  0.00000000000E+00 0. -1.
          4    1    3    3  502    0 -0.48656955643E+03  0.17187230503E+03  0.42338273420E+03  0.66749004644E+03  0.00000000000E+00 0.  1.
</event>
<event>
 7    1  0.4894942E-006  0.9900077E+03  0.7818608E-02  0.9210071E-01
         -4   -1    0    0    0  501 -0.00000000000E+00  0.00000000000E+00  0.55373223360E+03  0.55373223360E+03  0.00000000000E+00 0. -1.
          4   -1    0    0  501    0  0.00000000000E+00 -0.00000000000E+00 -0.13303989127E+04  0.13303989127E+04  0.00000000000E+00 0. -1.
   -9000010    2    1    2    0  502 -0.10640345252E+03  0.12951413363E+03 -0.22402446657E+03  0.10135928535E+04  0.97421142758E+03 0.  0.
        -13    1    1    2    0    0  0.11966573212E+03 -0.13020625865E+03  0.10967251473E+03  0.20809043439E+03  0.10566000000E+00 0.  1.
         13    1    3    3    0    0  0.40980827105E+03  0.20641522379E+03 -0.41675039232E+02  0.46074600778E+03  0.10566000000E+00 0. -1.
          4    1    1    2  502    0 -0.13262279598E+02  0.69212501952E+00 -0.66231472728E+03  0.66244785837E+03  0.00000000000E+00 0. -1.
         -4    1    3    3    0  502 -0.51621172357E+03 -0.76901090157E+02 -0.18234942734E+03  0.55284684576E+03  0.00000000000E+00 0. -1.
</event>
<event>
 7    1  0.4894942E-006  0.1012450E+04  0.7818608E-02  0.9232344E-01
          4   -1    0    0  501    0  0.00000000000E+00  0.00000000000E+00  0.52122314761E+03  0.52122314761E+03  0.00000000000E+00 0.  1.
         -4   -1    0    0    0  501 -0.00000000000E+00 -0.00000000000E+00 -0.13839472133E+04  0.13839472133E+04  0.00000000000E+00 0.  1.
   -9000010    2    1    2    0  502  0.15057736281E+03 -0.19379521339E+02 -0.11757370106E+04  0.15516505825E+04  0.10011058407E+04 0.  0.
        -13    1    1    2    0    0 -0.15030687390E+03  0.55151210999E+01  0.28867159363E+03  0.32550556529E+03  0.10566000000E+00 0.  1.
         13    1    3    3    0    0  0.13114476017E+03 -0.17744775446E+02  0.16458203048E+03  0.21118968038E+03  0.10566000000E+00 0. -1.
          4    1    1    2  502    0 -0.27048891378E+00  0.13864400239E+02  0.24341351193E+02  0.28014213110E+02  0.00000000000E+00 0.  1.
         -4    1    3    3    0  502  0.19432602637E+02 -0.16347458930E+01 -0.13403190410E+04  0.13404609022E+04  0.00000000000E+00 0.  1.
</event>
<event>
 7    1  0.4894942E-006  0.1245386E+04  0.7818608E-02  0.8981563E-01
         -4   -1    0    0    0  501 -0.00000000000E+00  0.00000000000E+00  0.30621402272E+04  0.30621402272E+04  0.00000000000E+00 0. -1.
          4   -1    0    0  501    0  0.00000000000E+00 -0.00000000000E+00 -0.93339397852E+03  0.93339397852E+03  0.00000000000E+00 0.  1.
   -9000010    2    1    2    0  502 -0.46077344513E+03 -0.15232009139E+03  0.26499961571E+04  0.28982347964E+04  0.10685371890E+04 0.  0.
        -13    1    1    2    0    0 -0.18669426895E+03  0.11418607607E+03  0.59406311059E+02  0.22676492450E+03  0.10566000000E+00 0.  1.
         13    1    3    3    0    0  0.12707528640E+03  0.36728653780E+03  0.84456641766E+03  0.92969886215E+03  0.10566000000E+00 0. -1.
          4    1    1    2  502    0  0.64746771408E+03  0.38134015325E+02 -0.58065621955E+03  0.87053448478E+03  0.00000000000E+00 0.  1.
         -4    1    3    3    0  502 -0.58784873153E+03 -0.51960662920E+03  0.18054297395E+04  0.19685359343E+04  0.00000000000E+00 0. -1.
</event>
<event>
 7    1  0.4894942E-006  0.1021908E+04  0.7818608E-02  0.9151408E-01
         -4   -1    0    0    0  502 -0.00000000000E+00  0.00000000000E+00  0.80925570816E+03  0.80925570816E+03  0.00000000000E+00 0. -1.
         -2   -1    0    0    0  501  0.00000000000E+00 -0.00000000000E+00 -0.59882955771E+03  0.59882955771E+03  0.00000000000E+00 0. -1.
   -9000010    2    1    2    0  501 -0.20689207709E+03 -0.36656833353E+02  0.40510356402E+03  0.11009377481E+04  0.10019016781E+04 0.  0.
        -13    1    1    2    0    0  0.19491363738E+03  0.27198226517E+02 -0.11907872763E+03  0.23002352944E+03  0.10566000000E+00 0.  1.
         13    1    3    3    0    0 -0.20975871171E+03 -0.47111579967E+03  0.13264101021E+02  0.51587281512E+03  0.10566000000E+00 0. -1.
         -2    1    1    2    0  502  0.11978439717E+02  0.94586068367E+01 -0.75598685950E+02  0.77123988348E+02  0.00000000000E+00 0. -1.
         -4    1    3    3    0  501  0.28666346144E+01  0.43445896632E+03  0.39183946300E+03  0.58506493296E+03  0.00000000000E+00 0. -1.
</event>
<event>
 7    1  0.4894942E-006  0.1306734E+04  0.7818608E-02  0.8650212E-01
         -4   -1    0    0    0  501 -0.00000000000E+00  0.00000000000E+00  0.11972698017E+04  0.11972698017E+04  0.00000000000E+00 0. -1.
          4   -1    0    0  501    0  0.00000000000E+00 -0.00000000000E+00 -0.14619905416E+04  0.14619905416E+04  0.00000000000E+00 0.  1.
   -9000010    2    1    2    0  502 -0.81201045066E+03 -0.11368981724E+03  0.16164030974E+03  0.13483310830E+04  0.10581033849E+04 0.  0.
        -13    1    1    2    0    0  0.69895951785E+03  0.25486795220E+03  0.10341534134E+03  0.75113036462E+03  0.10566000000E+00 0.  1.
         13    1    3    3    0    0  0.21380458196E+03 -0.90477889130E+02  0.22101018720E+03  0.32053730157E+03  0.10566000000E+00 0. -1.
          4    1    1    2  502    0  0.11305093281E+03 -0.14117813496E+03 -0.52977639097E+03  0.55979889570E+03  0.00000000000E+00 0.  1.
         -4    1    3    3    0  502 -0.10258150326E+04 -0.23211928110E+02 -0.59369877464E+02  0.10277937814E+04  0.00000000000E+00 0. -1.
</event>
<event>
 7    1  0.4894942E-006  0.1123390E+04  0.7818608E-02  0.8851074E-01
         -4   -1    0    0    0  501 -0.00000000000E+00  0.00000000000E+00  0.88689324892E+03  0.88689324892E+03  0.00000000000E+00 0. -1.
          1   -1    0    0  501    0  0.00000000000E+00 -0.00000000000E+00 -0.13015154886E+04  0.13015154886E+04  0.00000000000E+00 0. -1.
   -9000010    2    1    2    0  502  0.25316322198E+03 -0.52518531580E+03  0.22746394704E+03  0.11801750096E+04  0.10005808179E+04 0.  0.
        -13    1    1    2    0    0 -0.26453353869E+03  0.38330965649E+03 -0.13993113540E+03  0.48629725443E+03  0.10566000000E+00 0.  1.
         13    1    3    3    0    0  0.56025299576E+03 -0.11568838721E+03  0.32670831106E+03  0.65879097889E+03  0.10566000000E+00 0. -1.
          1    1    1    2  502    0  0.11370316709E+02  0.14187565931E+03 -0.50215505130E+03  0.52193647349E+03  0.00000000000E+00 0. -1.
         -4    1    3    3    0  502 -0.30708977378E+03 -0.40949692858E+03 -0.99244364024E+02  0.52138403070E+03  0.00000000000E+00 0. -1.
</event>
<event>
 7    1  0.4894942E-006  0.1028573E+04  0.7818608E-02  0.9085214E-01
          2   -1    0    0  502    0  0.00000000000E+00  0.00000000000E+00  0.21734096308E+03  0.21734096308E+03  0.00000000000E+00 0.  1.
          4   -1    0    0  501    0 -0.00000000000E+00 -0.00000000000E+00 -0.26262973742E+04  0.26262973742E+04  0.00000000000E+00 0.  1.
    9000010    2    1    2  502    0  0.23936260901E+03  0.56772406439E+02 -0.20865828400E+04  0.23252260274E+04  0.99615790182E+03 0.  0.
        -13    1    3    3    0    0 -0.15008000530E+03 -0.38823049654E+03 -0.65186217356E+03  0.77341530300E+03  0.10566000000E+00 0.  1.
         13    1    1    2    0    0 -0.25265860719E+03 -0.59685711965E+02 -0.37943517542E+03  0.45974973574E+03  0.10566000000E+00 0. -1.
          2    1    1    2  501    0  0.13295998180E+02  0.29133055265E+01  0.57061604335E+02  0.58662574150E+02  0.00000000000E+00 0.  1.
          4    1    3    3  502    0  0.38944261430E+03  0.44500290298E+03 -0.14347206665E+04  0.15518107244E+04  0.00000000000E+00 0.  1.
</event>
<event>
 7    1  0.4894942E-006  0.2080321E+04  0.7818608E-02  0.8163805E-01
          2   -1    0    0  502    0  0.00000000000E+00  0.00000000000E+00  0.36910426390E+04  0.36910426390E+04  0.00000000000E+00 0. -1.
          4   -1    0    0  501    0 -0.00000000000E+00 -0.00000000000E+00 -0.12977412084E+04  0.12977412084E+04  0.00000000000E+00 0.  1.
    9000010    2    1    2  502    0  0.18430567160E+04  0.18898725454E+03  0.19382600275E+04  0.28658631259E+04  0.10118029853E+04 0.  0.
        -13    1    3    3    0    0  0.18348916769E+04 -0.82339013755E+02  0.17363865002E+04  0.25275769560E+04  0.10566000000E+00 0.  1.
         13    1    1    2    0    0 -0.17840310792E+04 -0.26700498782E+03  0.15872295726E+03  0.18108703828E+04  0.10566000000E+00 0. -1.
          2    1    1    2  501    0 -0.59025636837E+02  0.78017733279E+02  0.29631844587E+03  0.31205033868E+03  0.00000000000E+00 0. -1.
          4    1    3    3  502    0  0.81650391586E+01  0.27132626829E+03  0.20187352730E+03  0.33828616991E+03  0.00000000000E+00 0.  1.
</event>
<event>
 7    1  0.4894942E-006  0.9998823E+03  0.7818608E-02  0.9132697E-01
         -4   -1    0    0    0  501 -0.00000000000E+00  0.00000000000E+00  0.43060638895E+03  0.43060638895E+03  0.00000000000E+00 0. -1.
          1   -1    0    0  501    0  0.00000000000E+00 -0.00000000000E+00 -0.13223714058E+04  0.13223714058E+04  0.00000000000E+00 0. -1.
   -9000010    2    1    2    0  502 -0.27200108266E+03 -0.50242658005E+02 -0.97565558344E+03  0.14052531710E+04  0.97279172671E+03 0.  0.
        -13    1    1    2    0    0  0.22612492221E+03  0.14690934657E+02 -0.21283651447E+02  0.22759900920E+03  0.10566000000E+00 0.  1.
         13    1    3    3    0    0  0.21478590368E+03 -0.21757190384E+03 -0.40942796940E+01  0.30575691660E+03  0.10566000000E+00 0. -1.
          1    1    1    2  502    0  0.45876160446E+02  0.35551723348E+02  0.10517421802E+03  0.12012561453E+03  0.00000000000E+00 0. -1.
         -4    1    3    3    0  502 -0.48678698634E+03  0.16732924583E+03 -0.97156130374E+03  0.10994962544E+04  0.00000000000E+00 0. -1.
</event>
<event>
 7    1  0.4894942E-006  0.1094958E+04  0.7818608E-02  0.9110992E-01
          4   -1    0    0  501    0  0.00000000000E+00  0.00000000000E+00  0.36065883336E+04  0.36065883336E+04  0.00000000000E+00 0.  1.
          4   -1    0    0  502    0 -0.00000000000E+00 -0.00000000000E+00 -0.44596020961E+03  0.44596020961E+03  0.00000000000E+00 0.  1.
    9000010    2    1    2  501    0  0.76241584735E+02 -0.25540623286E+03  0.63863594026E+03  0.12165890866E+04  0.10005938329E+04 0.  0.
        -13    1    3    3    0    0 -0.34752351109E+03 -0.38562676544E+03  0.56486346090E+03  0.76717099372E+03  0.10566000000E+00 0.  1.
         13    1    1    2    0    0  0.26865486489E+02 -0.18985694394E+03 -0.69890305194E+02  0.20408841087E+03  0.10566000000E+00 0. -1.
          4    1    3    3  501    0  0.42376509582E+03  0.13022053257E+03  0.73772479365E+02  0.44941809293E+03  0.00000000000E+00 0.  1.
          4    1    1    2  502    0 -0.10310707122E+03  0.44526317681E+03  0.25918824889E+04  0.26318710457E+04  0.00000000000E+00 0.  1.
</event>
<event>
 7    1  0.4894942E-006  0.1067780E+04  0.7818608E-02  0.8956583E-01
         -4   -1    0    0    0  501 -0.00000000000E+00  0.00000000000E+00  0.38822802442E+03  0.38822802442E+03  0.00000000000E+00 0. -1.
          1   -1    0    0  501    0  0.00000000000E+00 -0.00000000000E+00 -0.29583342513E+04  0.29583342513E+04  0.00000000000E+00 0.  1.
   -9000010    2    1    2    0  502  0.40221851363E+03  0.17234255314E+02 -0.45964404395E+03  0.11686407728E+04  0.99617862675E+03 0.  0.
        -13    1    1    2    0    0 -0.35505369218E+03  0.10710772739E+03 -0.11505897397E+04  0.12088804531E+04  0.10566000000E+00 0.  1.
         13    1    3    3    0    0  0.12457298491E+02 -0.45100203996E+03 -0.10329414194E+03  0.46284739954E+03  0.10566000000E+00 0. -1.
          1    1    1    2  502    0 -0.47164821454E+02 -0.12434198270E+03 -0.95987244320E+03  0.96904104983E+03  0.00000000000E+00 0.  1.
         -4    1    3    3    0  502  0.38976121514E+03  0.46823629528E+03 -0.35634990201E+03  0.70579337323E+03  0.00000000000E+00 0. -1.
</event>
<event>
 7    1  0.4894942E-006  0.1226045E+04  0.7818608E-02  0.8946958E-01
         -4   -1    0    0    0  501 -0.00000000000E+00  0.00000000000E+00  0.90208208784E+03  0.90208208784E+03  0.00000000000E+00 0. -1.
          2   -1    0    0  501    0  0.00000000000E+00 -0.00000000000E+00 -0.17927716205E+04  0.17927716205E+04  0.00000000000E+00 0. -1.
   -9000010    2    1    2    0  502  0.78138347273E+03 -0.38395552863E+02 -0.36033521300E+03  0.13336771021E+04  0.10182429950E+04 0.  0.
        -13    1    1    2    0    0 -0.14173456513E+03  0.22289755251E+03  0.23022850274E+03  0.35039574841E+03  0.10566000000E+00 0.  1.
         13    1    3    3    0    0  0.59305763103E+03 -0.30133134463E+03  0.19308970302E+03  0.69267710916E+03  0.10566000000E+00 0. -1.
          2    1    1    2  502    0 -0.63964890761E+03 -0.18450199965E+03 -0.76058282239E+03  0.10107808579E+04  0.00000000000E+00 0. -1.
         -4    1    3    3    0  502  0.18832584170E+03  0.26293579176E+03 -0.55342491601E+03  0.64099999291E+03  0.00000000000E+00 0. -1.
</event>
<event>
 7    1  0.4894942E-006  0.1578459E+04  0.7818608E-02  0.8419535E-01
         -4   -1    0    0    0  501  0.00000000000E+00  0.00000000000E+00  0.34522498135E+04  0.34522498135E+04  0.00000000000E+00 0. -1.
         -4   -1    0    0    0  502 -0.00000000000E+00 -0.00000000000E+00 -0.16678851614E+04  0.16678851614E+04  0.00000000000E+00 0.  1.
   -9000010    2    1    2    0  501 -0.88020104890E+03 -0.38698376842E+03 -0.10930846137E+04  0.17609221449E+04  0.99070808229E+03 0.  0.
        -13    1    1    2    0    0  0.11576326114E+04  0.48238028318E+03  0.27804843961E+04  0.30502290879E+04  0.10566000000E+00 0.  1.
         13    1    3    3    0    0 -0.79845339330E+03  0.61344027450E+01 -0.11001004008E+04  0.13593330552E+04  0.10566000000E+00 0. -1.
         -4    1    3    3    0  501 -0.81747655607E+02 -0.39311817116E+03  0.70157870544E+01  0.40158908969E+03  0.00000000000E+00 0. -1.
         -4    1    1    2    0  502 -0.27743156253E+03 -0.95396514762E+02  0.96964869717E+02  0.30898374209E+03  0.00000000000E+00 0.  1.
</event>
<event>
 7    1  0.4894942E-006  0.1038647E+04  0.7818608E-02  0.9304573E-01
          2   -1    0    0  502    0  0.00000000000E+00  0.00000000000E+00  0.33691317281E+03  0.33691317281E+03  0.00000000000E+00 0.  1.
          4   -1    0    0  501    0 -0.00000000000E+00 -0.00000000000E+00 -0.27365703423E+04  0.27365703423E+04  0.00000000000E+00 0.  1.
    9000010    2    1    2  502    0 -0.26486468939E+03 -0.16749849596E+03 -0.21561629287E+04  0.24005234830E+04  0.10076037751E+04 0.  0.
        -13    1    3    3    0    0  0.72151726478E+02 -0.48724342869E+03 -0.59883244042E+03  0.77537883212E+03  0.10566000000E+00 0.  1.
         13    1    1    2    0    0  0.22625988154E+02  0.10382209016E+03 -0.37521282418E+03  0.38996876328E+03  0.10566000000E+00 0. -1.
          2    1    1    2  501    0  0.24223870124E+03  0.63676405799E+02  0.13171858337E+03  0.28299126884E+03  0.00000000000E+00 0.  1.
          4    1    3    3  502    0 -0.33701641587E+03  0.31974493274E+03 -0.15573304883E+04  0.16251446509E+04  0.00000000000E+00 0.  1.
</event>
<event>
 7    1  0.4894942E-006  0.1088085E+04  0.7818608E-02  0.9179657E-01
         -4   -1    0    0    0  501 -0.00000000000E+00  0.00000000000E+00  0.89087657196E+03  0.89087657196E+03  0.00000000000E+00 0. -1.
          2   -1    0    0  501    0  0.00000000000E+00 -0.00000000000E+00 -0.11250033648E+04  0.11250033648E+04  0.00000000000E+00 0. -1.
   -9000010    2    1    2    0  502 -0.32128034671E+03  0.90509408256E+02  0.77699620859E+01  0.10439909241E+04  0.98916311248E+03 0.  0.
        -13    1    1    2    0    0 -0.14843785460E+03 -0.15923065192E+02  0.24776833466E+03  0.28926890519E+03  0.10566000000E+00 0.  1.
         13    1    3    3    0    0 -0.10411628682E+03  0.49508226327E+03  0.20289256076E+03  0.54507985742E+03  0.10566000000E+00 0. -1.
          2    1    1    2  502    0  0.46971820131E+03 -0.74586343063E+02 -0.48966508960E+03  0.68262010752E+03  0.00000000000E+00 0. -1.
         -4    1    3    3    0  502 -0.21716405989E+03 -0.40457285502E+03 -0.19512259867E+03  0.49891106666E+03  0.00000000000E+00 0. -1.
</event>
<event>
 7    1  0.4894942E-006  0.1173015E+04  0.7818608E-02  0.8821959E-01
         -4   -1    0    0    0  502 -0.00000000000E+00  0.00000000000E+00  0.28780259327E+04  0.28780259327E+04  0.00000000000E+00 0. -1.
         -2   -1    0    0    0  501  0.00000000000E+00 -0.00000000000E+00 -0.62006302167E+03  0.62006302167E+03  0.00000000000E+00 0. -1.
   -9000010    2    1    2    0  501 -0.26797492659E+03 -0.38943788253E+03  0.10824818239E+04  0.15856236781E+04  0.10578105330E+04 0.  0.
        -13    1    1    2    0    0  0.46242184046E+03  0.24155929852E+03  0.14523607341E+04  0.15432227857E+04  0.10566000000E+00 0.  1.
         13    1    3    3    0    0 -0.14713417376E+03  0.21473423814E+03  0.90898703108E+03  0.94552455915E+03  0.10566000000E+00 0. -1.
         -2    1    1    2    0  502 -0.19444691387E+03  0.14787858402E+03 -0.27687964697E+03  0.36924249056E+03  0.00000000000E+00 0. -1.
         -4    1    3    3    0  501 -0.12084075282E+03 -0.60417212068E+03  0.17349479283E+03  0.64009911895E+03  0.00000000000E+00 0. -1.
</event>
<event>
 7    1  0.4894942E-006  0.1001648E+04  0.7818608E-02  0.9250187E-01
         -4   -1    0    0    0  501 -0.00000000000E+00  0.00000000000E+00  0.19513191534E+04  0.19513191534E+04  0.00000000000E+00 0. -1.
          1   -1    0    0  501    0  0.00000000000E+00 -0.00000000000E+00 -0.72268216236E+03  0.72268216236E+03  0.00000000000E+00 0. -1.
   -9000010    2    1    2    0  502 -0.11452109771E+03 -0.16418125465E+03  0.16412306124E+04  0.19276323372E+04  0.99098836429E+03 0.  0.
        -13    1    1    2    0    0  0.93473542006E+01  0.13872238567E+03  0.13164761140E+03  0.19147422299E+03  0.10566000000E+00 0.  1.
         13    1    3    3    0    0  0.35133195546E+03 -0.18370225989E+03  0.27096478556E+03  0.48021098425E+03  0.10566000000E+00 0. -1.
          1    1    1    2  502    0  0.10517374351E+03  0.25458868976E+02 -0.54424123275E+03  0.55489475557E+03  0.00000000000E+00 0. -1.
         -4    1    3    3    0  502 -0.46585305317E+03  0.19521005242E+02  0.13702658268E+04  0.14474213529E+04  0.00000000000E+00 0. -1.
</event>
<event>
 7    1  0.4894942E-006  0.1026463E+04  0.7818608E-02  0.9109249E-01
          2   -1    0    0  502    0  0.00000000000E+00  0.00000000000E+00  0.18527862528E+04  0.18527862528E+04  0.00000000000E+00 0.  1.
          4   -1    0    0  501    0 -0.00000000000E+00 -0.00000000000E+00 -0.41305822912E+03  0.41305822912E+03  0.00000000000E+00 0.  1.
    9000010    2    1    2  502    0 -0.23801954127E+03  0.38740339950E+02  0.40572839415E+03  0.11052016621E+04  0.99935032297E+03 0.  0.
        -13    1    3    3    0    0 -0.30475948020E+03  0.26085056060E+03 -0.20602433225E+03  0.45096273946E+03  0.10566000000E+00 0.  1.
         13    1    1    2    0    0  0.23321732595E+03  0.18238179803E+02  0.15688480097E+03  0.28166612197E+03  0.10566000000E+00 0. -1.
          2    1    1    2  501    0  0.48022153254E+01 -0.56978519753E+02  0.87711482856E+03  0.87897669790E+03  0.00000000000E+00 0.  1.
          4    1    3    3  502    0  0.66739938924E+02 -0.22211022065E+03  0.61175272641E+03  0.65423892259E+03  0.00000000000E+00 0.  1.
</event>
<event>
 7    1  0.4894942E-006  0.1092332E+04  0.7818608E-02  0.8943584E-01
         -4   -1    0    0    0  501 -0.00000000000E+00  0.00000000000E+00  0.15413276418E+04  0.15413276418E+04  0.00000000000E+00 0. -1.
          2   -1    0    0  501    0  0.00000000000E+00 -0.00000000000E+00 -0.10754472861E+04  0.10754472861E+04  0.00000000000E+00 0. -1.
   -9000010    2    1    2    0  502  0.42579183399E+03 -0.18682276524E+03  0.34540619744E+03  0.11649969889E+04  0.10107972653E+04 0.  0.
        -13    1    1    2    0    0 -0.46237137166E+02  0.37587027807E+03  0.66279985822E+03  0.76336099062E+03  0.10566000000E+00 0.  1.
         13    1    3    3    0    0  0.88750319482E+02  0.27123124169E+03  0.49996129737E+03  0.57567726698E+03  0.10566000000E+00 0. -1.
          2    1    1    2  502    0 -0.37955469682E+03 -0.18904751283E+03 -0.54232569992E+03  0.68841694835E+03  0.00000000000E+00 0. -1.
         -4    1    3    3    0  502  0.33704151451E+03 -0.45805400694E+03 -0.15455509993E+03  0.58931972196E+03  0.00000000000E+00 0. -1.
</event>
<event>
 7    1  0.4894942E-006  0.1023126E+04  0.7818608E-02  0.9263046E-01
         -2   -1    0    0    0  501  0.00000000000E+00  0.00000000000E+00  0.10861256586E+04  0.10861256586E+04  0.00000000000E+00 0. -1.
         -4   -1    0    0    0  502 -0.00000000000E+00 -0.00000000000E+00 -0.39128342353E+03  0.39128342353E+03  0.00000000000E+00 0. -1.
   -9000010    2    1    2    0  501 -0.84165166930E+02 -0.71659708726E+02  0.52250067072E+03  0.11467620622E+04  0.10148090398E+04 0.  0.
        -13    1    1    2    0    0  0.10886286037E+03  0.73819604586E+02 -0.23181520361E+02  0.13355841583E+03  0.10566000000E+00 0.  1.
         13    1    3    3    0    0  0.12693354497E+02 -0.50687972127E+03  0.70601061477E+02  0.51193036062E+03  0.10566000000E+00 0. -1.
         -2    1    1    2    0  502 -0.24697693436E+02 -0.21598958607E+01  0.19552308473E+03  0.19708860412E+03  0.00000000000E+00 0. -1.
         -4    1    3    3    0  501 -0.96858521428E+02  0.43522001254E+03  0.45189960924E+03  0.63483170157E+03  0.00000000000E+00 0. -1.
</event>
<event>
 7    1  0.4894942E-006  0.1454801E+04  0.7818608E-02  0.8499512E-01
         -4   -1    0    0    0  501 -0.00000000000E+00  0.00000000000E+00  0.23209937818E+04  0.23209937818E+04  0.00000000000E+00 0. -1.
          1   -1    0    0  501    0  0.00000000000E+00 -0.00000000000E+00 -0.10822161735E+04  0.10822161735E+04  0.00000000000E+00 0.  1.
   -9000010    2    1    2    0  502  0.10747939190E+04  0.19612538803E+03  0.29177814098E+03  0.14869644230E+04  0.96554729325E+03 0.  0.
        -13    1    1    2    0    0 -0.10731358408E+04 -0.17154288297E+03  0.12247557648E+04  0.16373986039E+04  0.10566000000E+00 0.  1.
         13    1    3    3    0    0  0.34975717057E+03 -0.18751437794E+03  0.50224905125E+03  0.64011392809E+03  0.10566000000E+00 0. -1.
          1    1    1    2  502    0 -0.16580782455E+01 -0.24582505060E+02 -0.27775629737E+03  0.27884692845E+03  0.00000000000E+00 0.  1.
         -4    1    3    3    0  502  0.72503674845E+03  0.38363976597E+03 -0.21047091027E+03  0.84685049489E+03  0.00000000000E+00 0. -1.
</event>
<event>
 7    1  0.4894942E-006  0.9913406E+03  0.7818608E-02  0.9282595E-01
         -4   -1    0    0    0  501  0.00000000000E+00  0.00000000000E+00  0.86358169795E+03  0.86358169795E+03  0.00000000000E+00 0. -1.
         -4   -1    0    0    0  502 -0.00000000000E+00 -0.00000000000E+00 -0.89850657357E+03  0.89850657357E+03  0.00000000000E+00 0. -1.
   -9000010    2    1    2    0  501 -0.12023383691E+03  0.30493347902E+02 -0.40114218881E+03  0.10683683560E+04  0.98240005532E+03 0.  0.
        -13    1    1    2    0    0  0.13081926078E+03 -0.26955738462E+02 -0.13644216213E+03  0.19093654861E+03  0.10566000000E+00 0.  1.
         13    1    3    3    0    0  0.41879118233E+03  0.56785576199E+02 -0.30258380411E+03  0.51977651518E+03  0.10566000000E+00 0. -1.
         -4    1    3    3    0  501 -0.53902501925E+03 -0.26292228297E+02 -0.98558384707E+02  0.54859184084E+03  0.00000000000E+00 0. -1.
         -4    1    1    2    0  502 -0.10585423867E+02 -0.35376094399E+01  0.50265947532E+03  0.50278336688E+03  0.00000000000E+00 0. -1.
</event>
<event>
 7    1  0.4894942E-006  0.1076317E+04  0.7818608E-02  0.9019392E-01
          4   -1    0    0  501    0 -0.00000000000E+00  0.00000000000E+00  0.18303645484E+04  0.18303645484E+04  0.00000000000E+00 0.  1.
          2   -1    0    0  502    0  0.00000000000E+00 -0.00000000000E+00 -0.14667682347E+04  0.14667682347E+04  0.00000000000E+00 0.  1.
    9000010    2    1    2  502    0 -0.31766043113E+03 -0.15579607844E+03  0.14836197086E+04  0.18439461153E+04  0.10362573373E+04 0.  0.
        -13    1    3    3    0    0  0.32243649025E+03 -0.20688498514E+03  0.26288178015E+03  0.46462192030E+03  0.10566000000E+00 0.  1.
         13    1    1    2    0    0  0.23133519455E+03  0.10993169901E+03  0.64913291145E+02  0.26422470970E+03  0.10566000000E+00 0. -1.
          2    1    1    2  501    0  0.86325236578E+02  0.45864379433E+02 -0.11849366861E+04  0.11889619581E+04  0.00000000000E+00 0.  1.
          4    1    3    3  502    0 -0.64009692138E+03  0.51088906695E+02  0.12207379284E+04  0.13793241950E+04  0.00000000000E+00 0.  1.
</event>
<event>
 7    1  0.4894942E-006  0.1193075E+04  0.7818608E-02  0.8748719E-01
         -4   -1    0    0    0  501 -0.00000000000E+00  0.00000000000E+00  0.47072471409E+03  0.47072471409E+03  0.00000000000E+00 0. -1.
          1   -1    0    0  501    0  0.00000000000E+00 -0.00000000000E+00 -0.23252941247E+04  0.23252941247E+04  0.00000000000E+00 0. -1.
   -9000010    2    1    2    0  502  0.63284152769E+03 -0.33741444117E+03 -0.97325042678E+03  0.15660553525E+04  0.99547780968E+03 0.  0.
        -13    1    1    2    0    0 -0.55436476862E+03  0.29984914729E+03 -0.41275423558E+03  0.75338959243E+03  0.10566000000E+00 0.  1.
         13    1    3    3    0    0  0.57554479732E+03 -0.24981095033E+03 -0.11788066529E+04  0.13353810171E+04  0.10566000000E+00 0. -1.
          1    1    1    2  502    0 -0.78476759068E+02  0.37565293874E+02 -0.46856474824E+03  0.47657389386E+03  0.00000000000E+00 0. -1.
         -4    1    3    3    0  502  0.57296730373E+02 -0.87603490842E+02  0.20555622614E+03  0.23067433542E+03  0.00000000000E+00 0. -1.
</event>
<event>
 7    1  0.4894942E-006  0.1095535E+04  0.7818608E-02  0.9107378E-01
         -4   -1    0    0    0  502 -0.00000000000E+00  0.00000000000E+00  0.25195358317E+04  0.25195358317E+04  0.00000000000E+00 0. -1.
         -2   -1    0    0    0  501  0.00000000000E+00 -0.00000000000E+00 -0.33533848560E+03  0.33533848560E+03  0.00000000000E+00 0.  1.
   -9000010    2    1    2    0  501  0.17271299544E+03 -0.10309591368E+03  0.22462707933E+04  0.24997348322E+04  0.10781851455E+04 0.  0.
        -13    1    1    2    0    0 -0.16338302775E+03  0.98527029316E+02  0.84165784200E+02  0.20853172338E+03  0.10566000000E+00 0.  1.
         13    1    3    3    0    0  0.14468135026E+03 -0.58248355453E+03  0.14581810580E+04  0.15768677159E+04  0.10566000000E+00 0. -1.
         -2    1    1    2    0  502 -0.93299676911E+01  0.45688843600E+01 -0.14623923142E+03  0.14660776176E+03  0.00000000000E+00 0.  1.
         -4    1    3    3    0  501  0.28031645182E+02  0.47938764086E+03  0.78808973536E+03  0.92286711628E+03  0.00000000000E+00 0. -1.
</event>
<event>
 7    1  0.4894942E-006  0.1009706E+04  0.7818608E-02  0.9129396E-01
          4   -1    0    0  501    0 -0.00000000000E+00  0.00000000000E+00  0.29861821908E+03  0.29861821908E+03  0.00000000000E+00 0.  1.
          2   -1    0    0  502    0  0.00000000000E+00 -0.00000000000E+00 -0.25580600242E+04  0.25580600242E+04  0.00000000000E+00 0.  1.
    9000010    2    1    2  502    0 -0.10166375531E+03 -0.26063415636E+03 -0.11856580599E+04  0.15658341001E+04  0.98376100323E+03 0.  0.
        -13    1    3    3    0    0  0.38979026037E+03 -0.79448390270E+02 -0.86395712076E+03  0.95114163587E+03  0.10566000000E+00 0.  1.
         13    1    1    2    0    0 -0.62065461831E+02  0.21870707670E+03 -0.25209861490E+02  0.22873665039E+03  0.10566000000E+00 0. -1.
          2    1    1    2  501    0  0.16372921714E+03  0.41927079665E+02 -0.10485738837E+04  0.10621074928E+04  0.00000000000E+00 0.  1.
          4    1    3    3  502    0 -0.49145401568E+03 -0.18118576609E+03 -0.32170093911E+03  0.61469246423E+03  0.00000000000E+00 0.  1.
</event>
<event>
 7    1  0.4894942E-006  0.1009581E+04  0.7818608E-02  0.9169040E-01
          2   -1    0    0  501    0  0.00000000000E+00  0.00000000000E+00  0.38074391754E+03  0.38074391754E+03  0.00000000000E+00 0. -1.
         -4   -1    0    0    0  501 -0.00000000000E+00 -0.00000000000E+00 -0.15453167670E+04  0.15453167670E+04  0.00000000000E+00 0. -1.
   -9000010    2    1    2    0  502  0.72340397860E+02 -0.14478686523E+03 -0.73972180571E+03  0.12468745605E+04  0.99061165464E+03 0.  0.
        -13    1    1    2    0    0 -0.14175446466E+03  0.13786989270E+03 -0.52279328941E+03  0.55894120458E+03  0.10566000000E+00 0.  1.
         13    1    3    3    0    0 -0.24098928251E+03 -0.45579034578E+03 -0.20846797820E+03  0.55612910613E+03  0.10566000000E+00 0. -1.
          2    1    1    2  502    0  0.69414066804E+02  0.69169725271E+01  0.97942245629E+02  0.12024491947E+03  0.00000000000E+00 0. -1.
         -4    1    3    3    0  502  0.31332968037E+03  0.31100348055E+03 -0.53125382751E+03  0.69074545438E+03  0.00000000000E+00 0. -1.
</event>
<event>
 7    1  0.4894942E-006  0.1053533E+04  0.7818608E-02  0.9173472E-01
         -4   -1    0    0    0  501 -0.00000000000E+00  0.00000000000E+00  0.36772128178E+03  0.36772128178E+03  0.00000000000E+00 0. -1.
          1   -1    0    0  501    0  0.00000000000E+00 -0.00000000000E+00 -0.20747876837E+04  0.20747876837E+04  0.00000000000E+00 0. -1.
   -9000010    2    1    2    0  502  0.14456100149E+03  0.43699979027E+03 -0.80816889437E+03  0.13669279789E+04  0.10017427005E+04 0.  0.
        -13    1    1    2    0    0 -0.11301751220E+03 -0.12494223949E+03 -0.58138650764E+02  0.17822355386E+03  0.10566000000E+00 0.  1.
         13    1    3    3    0    0  0.34152727910E+03  0.68929169824E+03 -0.47085310237E+03  0.90192382318E+03  0.10566000000E+00 0. -1.
          1    1    1    2  502    0 -0.31543489291E+02 -0.31205755078E+03 -0.84075885675E+03  0.89735743265E+03  0.00000000000E+00 0. -1.
         -4    1    3    3    0  502 -0.19696627761E+03 -0.25229190797E+03 -0.33731579200E+03  0.46500415576E+03  0.00000000000E+00 0. -1.
</event>
<event>
 7    1  0.4894942E-006  0.1158377E+04  0.7818608E-02  0.9183424E-01
         -4   -1    0    0    0  501 -0.00000000000E+00  0.00000000000E+00  0.20229390107E+04  0.20229390107E+04  0.00000000000E+00 0. -1.
          2   -1    0    0  501    0  0.00000000000E+00 -0.00000000000E+00 -0.72580332834E+03  0.72580332834E+03  0.00000000000E+00 0. -1.
   -9000010    2    1    2    0  502  0.67526965440E+03  0.12773418719E+03  0.15214237002E+04  0.19480774118E+04  0.10039772896E+04 0.  0.
        -13    1    1    2    0    0 -0.12189730965E+03 -0.27382336500E+01  0.90522577148E+02  0.15185782878E+03  0.10566000000E+00 0.  1.
         13    1    3    3    0    0  0.80800954030E+03 -0.83311530710E+02  0.14896713126E+04  0.16967441938E+04  0.10566000000E+00 0. -1.
          2    1    1    2  502    0 -0.55337234475E+03 -0.12499595354E+03 -0.31481059496E+03  0.64880709848E+03  0.00000000000E+00 0. -1.
         -4    1    3    3    0  502 -0.13273988590E+03  0.21104571790E+03  0.31752387571E+02  0.25133321800E+03  0.00000000000E+00 0. -1.
</event>
<event>
 7    1  0.4894942E-006  0.1158304E+04  0.7818608E-02  0.8877518E-01
         -4   -1    0    0    0  501 -0.00000000000E+00  0.00000000000E+00  0.96983455797E+03  0.96983455797E+03  0.00000000000E+00 0. -1.
          2   -1    0    0  501    0  0.00000000000E+00 -0.00000000000E+00 -0.70411427874E+03  0.70411427874E+03  0.00000000000E+00 0. -1.
   -9000010    2    1    2    0  502  0.23217243104E+03 -0.34691862751E+03  0.21130355224E+03  0.11774897722E+04  0.10805444926E+04 0.  0.
        -13    1    1    2    0    0 -0.26054205833E+03  0.32628469450E+03  0.10903409375E+03  0.43154641788E+03  0.10566000000E+00 0.  1.
         13    1    3    3    0    0 -0.18253423019E+03 -0.16225944492E+03 -0.36789936294E+03  0.44158444841E+03  0.10566000000E+00 0. -1.
          2    1    1    2  502    0  0.28369627291E+02  0.20633933008E+02 -0.54617366759E+02  0.64912646654E+02  0.00000000000E+00 0. -1.
         -4    1    3    3    0  502  0.41470666123E+03 -0.18465918259E+03  0.57920291518E+03  0.73590532376E+03  0.00000000000E+00 0. -1.
</event>
<event>
 7    1  0.4894942E-006  0.1097594E+04  0.7818608E-02  0.8900752E-01
          2   -1    0    0  502    0  0.00000000000E+00  0.00000000000E+00  0.22182887433E+04  0.22182887433E+04  0.00000000000E+00 0.  1.
          4   -1    0    0  501    0 -0.00000000000E+00 -0.00000000000E+00 -0.89527690146E+03  0.89527690146E+03  0.00000000000E+00 0.  1.
    9000010    2    1    2  502    0 -0.64683876637E+02 -0.34030496704E+03  0.15105513160E+04  0.18461237162E+04  0.10032028822E+04 0.  0.
        -13    1    3    3    0    0  0.22878935205E+03 -0.28374660406E+03  0.15036215864E+04  0.15471698643E+04  0.10566000000E+00 0.  1.
         13    1    1    2    0    0  0.66526352191E+02  0.44448742122E+03 -0.65174486044E+03  0.79168566833E+03  0.10566000000E+00 0. -1.
          2    1    1    2  501    0 -0.18424755542E+01 -0.10418245418E+03  0.46420538633E+03  0.47575626025E+03  0.00000000000E+00 0.  1.
          4    1    3    3  502    0 -0.29347322868E+03 -0.56558362981E+02  0.69297295837E+01  0.29895385184E+03  0.00000000000E+00 0.  1.
</event>
<event>
 7    1  0.4894942E-006  0.1104811E+04  0.7818608E-02  0.8867236E-01
          2   -1    0    0  501    0  0.00000000000E+00  0.00000000000E+00  0.70357015927E+03  0.70357015927E+03  0.00000000000E+00 0.  1.
         -4   -1    0    0    0  501 -0.00000000000E+00 -0.00000000000E+00 -0.10981311273E+04  0.10981311273E+04  0.00000000000E+00 0. -1.
   -9000010    2    1    2    0  502 -0.44304878099E+03  0.21711559591E+03  0.13388327141E+02  0.11010647488E+04  0.98424231232E+03 0.  0.
        -13    1    1    2    0    0  0.44910743830E+03 -0.22790452531E+03 -0.43843845574E+03  0.66773217268E+03  0.10566000000E+00 0.  1.
         13    1    3    3    0    0 -0.62503349832E+03  0.46882777839E+03  0.73218633267E+02  0.78474667202E+03  0.10566000000E+00 0. -1.
          2    1    1    2  502    0 -0.60586573137E+01  0.10788929398E+02  0.30489160610E+02  0.32904365070E+02  0.00000000000E+00 0.  1.
         -4    1    3    3    0  502  0.18198471734E+03 -0.25171218248E+03 -0.59830306126E+02  0.31631807676E+03  0.00000000000E+00 0. -1.
</event>
<event>
 7    1  0.4894942E-006  0.9821829E+03  0.7818608E-02  0.9314860E-01
          2   -1    0    0  502    0  0.00000000000E+00  0.00000000000E+00  0.63472701180E+03  0.63472701180E+03  0.00000000000E+00 0.  1.
          4   -1    0    0  501    0 -0.00000000000E+00 -0.00000000000E+00 -0.16604341834E+04  0.16604341834E+04  0.00000000000E+00 0.  1.
    9000010    2    1    2  502    0  0.11657823267E+03 -0.70710783487E+02 -0.13932920628E+04  0.17058512635E+04  0.97471804217E+03 0.  0.
        -13    1    3    3    0    0  0.33174642774E+02 -0.12712975987E+03  0.12670141379E+03  0.18252614111E+03  0.10566000000E+00 0.  1.
         13    1    1    2    0    0 -0.99548675292E+02  0.62914832435E+02 -0.79337481476E+02  0.14199528874E+03  0.10566000000E+00 0. -1.
          2    1    1    2  501    0 -0.17029557379E+02  0.77959510519E+01  0.44692237263E+03  0.44731464299E+03  0.00000000000E+00 0.  1.
          4    1    3    3  502    0  0.83403589898E+02  0.56418976381E+02 -0.15199934765E+04  0.15233251224E+04  0.00000000000E+00 0.  1.
</event>
<event>
 7    1  0.4894942E-006  0.1131802E+04  0.7818608E-02  0.8839260E-01
          2   -1    0    0  501    0  0.00000000000E+00  0.00000000000E+00  0.12934290428E+04  0.12934290428E+04  0.00000000000E+00 0. -1.
         -4   -1    0    0    0  501 -0.00000000000E+00 -0.00000000000E+00 -0.10405683798E+04  0.10405683798E+04  0.00000000000E+00 0. -1.
   -9000010    2    1    2    0  502 -0.12193253700E+03  0.50562086821E+03 -0.78037461060E+02  0.11323409294E+04  0.10027891748E+04 0.  0.
        -13    1    1    2    0    0  0.11377229196E+03 -0.51375623318E+03 -0.27631119163E+03  0.59433785621E+03  0.10566000000E+00 0.  1.
         13    1    3    3    0    0 -0.16590290954E+03 -0.28660333813E+03  0.25658783192E+02  0.33215001602E+03  0.10566000000E+00 0. -1.
          2    1    1    2  502    0  0.81602450417E+01  0.81353649651E+01  0.60720931567E+03  0.60731863696E+03  0.00000000000E+00 0. -1.
         -4    1    3    3    0  502  0.43970372536E+02  0.79222420634E+03 -0.10369624425E+03  0.80019091338E+03  0.00000000000E+00 0. -1.
</event>
<event>
 7    1  0.4894942E-006  0.1020545E+04  0.7818608E-02  0.9139461E-01
          4   -1    0    0  501    0 -0.00000000000E+00  0.00000000000E+00  0.77876798718E+03  0.77876798718E+03  0.00000000000E+00 0.  1.
          2   -1    0    0  502    0  0.00000000000E+00 -0.00000000000E+00 -0.17305536191E+04  0.17305536191E+04  0.00000000000E+00 0.  1.
    9000010    2    1    2  502    0 -0.18336565312E+03 -0.57871387087E+02  0.33682186595E+03  0.10710328178E+04  0.99834376207E+03 0.  0.
        -13    1    3    3    0    0 -0.41307641102E+03  0.31760942551E+03  0.35496996365E+03  0.63048517411E+03  0.10566000000E+00 0.  1.
         13    1    1    2    0    0  0.22243722676E+03  0.10386061152E+02 -0.93357065174E+02  0.24145753849E+03  0.10566000000E+00 0. -1.
          2    1    1    2  501    0 -0.39071573635E+02  0.47485325936E+02 -0.11952504327E+04  0.11968312500E+04  0.00000000000E+00 0.  1.
          4    1    3    3  502    0  0.22971075790E+03 -0.37548081260E+03 -0.18148097694E+02  0.44054764371E+03  0.00000000000E+00 0.  1.
</event>
<event>
 7    1  0.4894942E-006  0.1265922E+04  0.7818608E-02  0.8608774E-01
          2   -1    0    0  502    0  0.00000000000E+00  0.00000000000E+00  0.16205883640E+04  0.16205883640E+04  0.00000000000E+00 0. -1.
          4   -1    0    0  501    0 -0.00000000000E+00 -0.00000000000E+00 -0.36148825462E+04  0.36148825462E+04  0.00000000000E+00 0.  1.
    9000010    2    1    2  502    0 -0.98442656557E+03  0.16734149174E+03 -0.13597379912E+04  0.18504214496E+04  0.76031131685E+03 0.  0.
        -13    1    3    3    0    0 -0.12225947736E+03  0.35168436119E+03 -0.36921544560E+03  0.52435610624E+03  0.10566000000E+00 0.  1.
         13    1    1    2    0    0  0.10121662991E+04 -0.12394647490E+03 -0.18798898364E+04  0.21386512464E+04  0.10566000000E+00 0. -1.
          2    1    1    2  501    0 -0.27739733481E+02 -0.43395016834E+02  0.12453336453E+04  0.12463982142E+04  0.00000000000E+00 0. -1.
          4    1    3    3  502    0 -0.86216708821E+03 -0.18434286945E+03 -0.99052254557E+03  0.13260653433E+04  0.00000000000E+00 0.  1.
</event>
<event>
 7    1  0.4894942E-006  0.1006815E+04  0.7818608E-02  0.9202368E-01
          2   -1    0    0  501    0  0.00000000000E+00  0.00000000000E+00  0.84907333690E+03  0.84907333690E+03  0.00000000000E+00 0. -1.
         -4   -1    0    0    0  501 -0.00000000000E+00 -0.00000000000E+00 -0.46005996417E+03  0.46005996417E+03  0.00000000000E+00 0. -1.
   -9000010    2    1    2    0  502 -0.12051156803E+03 -0.15258973557E+03  0.37426956450E+03  0.10778645238E+04  0.99192114568E+03 0.  0.
        -13    1    1    2    0    0  0.89113476207E+02  0.14539776148E+03 -0.32978231616E+02  0.17369310755E+03  0.10566000000E+00 0.  1.
         13    1    3    3    0    0  0.12684709406E+03 -0.34338812531E+03 -0.20512278716E+03  0.41962001722E+03  0.10566000000E+00 0. -1.
          2    1    1    2  502    0  0.31398091825E+02  0.71919740942E+01  0.47722039844E+02  0.57575669761E+02  0.00000000000E+00 0. -1.
         -4    1    3    3    0  502 -0.24735866209E+03  0.19079838974E+03  0.57939235166E+03  0.65824450655E+03  0.00000000000E+00 0. -1.
</event>
<event>
 7    1  0.4894942E-006  0.1188999E+04  0.7818608E-02  0.8770214E-01
         -4   -1    0    0    0  502 -0.00000000000E+00  0.00000000000E+00  0.31441046967E+04  0.31441046967E+04  0.00000000000E+00 0. -1.
         -2   -1    0    0    0  501  0.00000000000E+00 -0.00000000000E+00 -0.51185163870E+03  0.51185163870E+03  0.00000000000E+00 0. -1.
   -9000010    2    1    2    0  501  0.18202342323E+03  0.58581587902E+03  0.19905636188E+04  0.23205606148E+04  0.10229101993E+04 0.  0.
        -13    1    1    2    0    0 -0.17726596144E+03 -0.57535163416E+03  0.89673771194E+03  0.10800885423E+04  0.10566000000E+00 0.  1.
         13    1    3    3    0    0 -0.30350315038E+03  0.67682869459E+02  0.12754077039E+04  0.13127680508E+04  0.10566000000E+00 0. -1.
         -2    1    1    2    0  502 -0.47574617967E+01 -0.10464244862E+02 -0.25504827274E+03  0.25530717830E+03  0.00000000000E+00 0. -1.
         -4    1    3    3    0  501  0.48552657361E+03  0.51813300956E+03  0.71515591489E+03  0.10077925639E+04  0.00000000000E+00 0. -1.
</event>
<event>
 7    1  0.4894942E-006  0.1124567E+04  0.7818608E-02  0.8844069E-01
          2   -1    0    0  501    0  0.00000000000E+00  0.00000000000E+00  0.15987357314E+04  0.15987357314E+04  0.00000000000E+00 0. -1.
         -4   -1    0    0    0  501 -0.00000000000E+00 -0.00000000000E+00 -0.94899719974E+03  0.94899719974E+03  0.00000000000E+00 0. -1.
   -9000010    2    1    2    0  502 -0.18369887158E+03  0.16384745985E+03  0.52062557240E+03  0.11495294737E+04  0.99487474522E+03 0.  0.
        -13    1    1    2    0    0  0.50983702916E+03 -0.25895772021E+03 -0.44941673340E+03  0.72730207520E+03  0.10566000000E+00 0.  1.
         13    1    3    3    0    0  0.61036084775E+02 -0.27888284582E+03 -0.13959548595E+03  0.31778602266E+03  0.10566000000E+00 0. -1.
          2    1    1    2  502    0 -0.32613815758E+03  0.95110260366E+02  0.57852969267E+03  0.67090138229E+03  0.00000000000E+00 0. -1.
         -4    1    3    3    0  502 -0.24473495635E+03  0.44273030566E+03  0.66022105835E+03  0.83174345101E+03  0.00000000000E+00 0. -1.
</event>
<event>
 7    1  0.4894942E-006  0.1336232E+04  0.7818608E-02  0.8603574E-01
         -4   -1    0    0    0  501 -0.00000000000E+00  0.00000000000E+00  0.15056698083E+04  0.15056698083E+04  0.00000000000E+00 0. -1.
          2   -1    0    0  501    0  0.00000000000E+00 -0.00000000000E+00 -0.10390834878E+04  0.10390834878E+04  0.00000000000E+00 0.  1.
   -9000010    2    1    2    0  502 -0.47021434210E+03 -0.75140036092E+03  0.14661369228E+03  0.13479949966E+04  0.10049332844E+04 0.  0.
        -13    1    1    2    0    0  0.45812862165E+03  0.74934714067E+03  0.50379493027E+03  0.10125276856E+04  0.10566000000E+00 0.  1.
         13    1    3    3    0    0  0.71464041358E+02 -0.36574554004E+02  0.40639713644E+03  0.41425046877E+03  0.10566000000E+00 0. -1.
          2    1    1    2  502    0  0.12085720451E+02  0.20532202545E+01 -0.18382230210E+03  0.18423061391E+03  0.00000000000E+00 0.  1.
         -4    1    3    3    0  502 -0.54167838346E+03 -0.71482580692E+03 -0.25978344415E+03  0.93374452780E+03  0.00000000000E+00 0. -1.
</event>
<event>
 7    1  0.4894942E-006  0.1120440E+04  0.7818608E-02  0.8841160E-01
         -4   -1    0    0    0  501 -0.00000000000E+00  0.00000000000E+00  0.30262019782E+04  0.30262019782E+04  0.00000000000E+00 0. -1.
          2   -1    0    0  501    0  0.00000000000E+00 -0.00000000000E+00 -0.12031681405E+04  0.12031681405E+04  0.00000000000E+00 0.  1.
   -9000010    2    1    2    0  502  0.50012101221E+03  0.14050490657E+03  0.26201936606E+04  0.28465269152E+04  0.98358426396E+03 0.  0.
        -13    1    1    2    0    0 -0.55941848249E+03 -0.15420860292E+03  0.30804011536E+01  0.58029202287E+03  0.10566000000E+00 0.  1.
         13    1    3    3    0    0 -0.25046499986E+03 -0.16561332521E+03  0.64496863047E+03  0.71143870790E+03  0.10566000000E+00 0. -1.
          2    1    1    2  502    0  0.59297470285E+02  0.13703696351E+02 -0.80024022410E+03  0.80255118064E+03  0.00000000000E+00 0.  1.
         -4    1    3    3    0  502  0.75058601207E+03  0.30611823178E+03  0.19752250301E+04  0.21350882073E+04  0.00000000000E+00 0. -1.
</event>
<event>
 7    1  0.4894942E-006  0.1064838E+04  0.7818608E-02  0.9011512E-01
         -4   -1    0    0    0  501 -0.00000000000E+00  0.00000000000E+00  0.85328961222E+03  0.85328961222E+03  0.00000000000E+00 0. -1.
          1   -1    0    0  501    0  0.00000000000E+00 -0.00000000000E+00 -0.15605190305E+04  0.15605190305E+04  0.00000000000E+00 0. -1.
   -9000010    2    1    2    0  502 -0.19632676048E+03  0.25812534954E+03 -0.14344353592E+03  0.10786362241E+04  0.10186791266E+04 0.  0.
        -13    1    1    2    0    0  0.19244222758E+03 -0.24136454145E+03  0.32383058665E+03  0.44738921852E+03  0.10566000000E+00 0.  1.
         13    1    3    3    0    0 -0.28571757303E+03  0.69955641416E+02  0.40006632153E+03  0.49656962864E+03  0.10566000000E+00 0. -1.
          1    1    1    2  502    0  0.38845328912E+01 -0.16760808084E+02 -0.88761646898E+03  0.88778320004E+03  0.00000000000E+00 0. -1.
         -4    1    3    3    0  502  0.89390812556E+02  0.18816970812E+03 -0.54350985745E+03  0.58206659548E+03  0.00000000000E+00 0. -1.
</event>
<event>
 7    1  0.4894942E-006  0.1037220E+04  0.7818608E-02  0.9196471E-01
          2   -1    0    0  501    0  0.00000000000E+00  0.00000000000E+00  0.10250513833E+04  0.10250513833E+04  0.00000000000E+00 0. -1.
         -4   -1    0    0    0  501 -0.00000000000E+00 -0.00000000000E+00 -0.16348648342E+04  0.16348648342E+04  0.00000000000E+00 0. -1.
   -9000010    2    1    2    0  502 -0.31168840195E+02 -0.14539284971E+03 -0.11362099930E+04  0.15371537489E+04  0.10245769478E+04 0.  0.
        -13    1    1    2    0    0  0.51587354441E+02  0.15458013045E+03 -0.27574998853E+03  0.32030351107E+03  0.10566000000E+00 0.  1.
         13    1    3    3    0    0  0.14356588225E+03 -0.55494041901E+03 -0.50019000887E+03  0.76076283251E+03  0.10566000000E+00 0. -1.
          2    1    1    2  502    0 -0.20418514246E+02 -0.91872807461E+01  0.80214653070E+03  0.80245895756E+03  0.00000000000E+00 0. -1.
         -4    1    3    3    0  502 -0.17473472244E+03  0.40954756930E+03 -0.63601998418E+03  0.77639091637E+03  0.00000000000E+00 0. -1.
</event>
<event>
 7    1  0.4894942E-006  0.1149282E+04  0.7818608E-02  0.9253756E-01
          4   -1    0    0  501    0 -0.00000000000E+00  0.00000000000E+00  0.25763723396E+03  0.25763723396E+03  0.00000000000E+00 0.  1.
          2   -1    0    0  502    0  0.00000000000E+00 -0.00000000000E+00 -0.27105664673E+04  0.27105664673E+04  0.00000000000E+00 0.  1.
    9000010    2    1    2  502    0 -0.22871101688E+03 -0.30693188607E+03 -0.16526754241E+04  0.20050123119E+04  0.10687480533E+04 0.  0.
        -13    1    3    3    0    0 -0.33407066346E+03 -0.57176621979E+03 -0.53427390991E+03  0.85086334993E+03  0.10566000000E+00 0.  1.
         13    1    1    2    0    0  0.36625263741E+02 -0.87844782491E+02 -0.11382065324E+03  0.14836868950E+03  0.10566000000E+00 0. -1.
          2    1    1    2  501    0  0.19208575314E+03  0.39477666856E+03 -0.68643315604E+03  0.81482269992E+03  0.00000000000E+00 0.  1.
          4    1    3    3  502    0  0.10535964658E+03  0.26483433372E+03 -0.11184015142E+04  0.11541489620E+04  0.00000000000E+00 0.  1.
</event>
<event>
 7    1  0.4894942E-006  0.1062329E+04  0.7818608E-02  0.8991330E-01
          4   -1    0    0  501    0 -0.00000000000E+00  0.00000000000E+00  0.18245662883E+04  0.18245662883E+04  0.00000000000E+00 0.  1.
          2   -1    0    0  502    0  0.00000000000E+00 -0.00000000000E+00 -0.72312414879E+03  0.72312414879E+03  0.00000000000E+00 0.  1.
    9000010    2    1    2  502    0 -0.30701468071E+03 -0.94807090102E+02  0.46431382262E+03  0.11543533043E+04  0.10068256188E+04 0.  0.
        -13    1    3    3    0    0  0.35130239862E+03 -0.17125057122E+02  0.32094253146E+03  0.47614153623E+03  0.10566000000E+00 0.  1.
         13    1    1    2    0    0  0.18243198657E+03  0.29525927953E+03  0.94424422424E+03  0.10060102574E+04  0.10566000000E+00 0. -1.
          2    1    1    2  501    0  0.12458269414E+03 -0.20045218942E+03 -0.30711590730E+03  0.38732687544E+03  0.00000000000E+00 0.  1.
          4    1    3    3  502    0 -0.65831707933E+03 -0.77682032979E+02  0.14337129116E+03  0.67821176804E+03  0.00000000000E+00 0.  1.
</event>
<event>
 7    1  0.4894942E-006  0.1029178E+04  0.7818608E-02  0.9137208E-01
         -4   -1    0    0    0  501 -0.00000000000E+00  0.00000000000E+00  0.69642358803E+03  0.69642358803E+03  0.00000000000E+00 0. -1.
          2   -1    0    0  501    0  0.00000000000E+00 -0.00000000000E+00 -0.15435158738E+04  0.15435158738E+04  0.00000000000E+00 0.  1.
   -9000010    2    1    2    0  502 -0.14859114990E+03  0.13121921807E+03  0.73282045313E+02  0.10298063375E+04  0.10078854209E+04 0.  0.
        -13    1    1    2    0    0  0.16475865623E+03 -0.13004851804E+03  0.68752749043E+02  0.22087322950E+03  0.10566000000E+00 0.  1.
         13    1    3    3    0    0  0.28124687667E+02 -0.40796745731E+03 -0.12681957940E+03  0.42814911090E+03  0.10566000000E+00 0. -1.
          2    1    1    2  502    0 -0.16167506332E+02 -0.11707000290E+01 -0.98912708011E+03  0.98925989477E+03  0.00000000000E+00 0.  1.
         -4    1    3    3    0  502 -0.17671583757E+03  0.53918667538E+03  0.20010162472E+03  0.60165722664E+03  0.00000000000E+00 0. -1.
</event>
<event>
 7    1  0.4894942E-006  0.1033631E+04  0.7818608E-02  0.9113680E-01
          2   -1    0    0  501    0  0.00000000000E+00  0.00000000000E+00  0.69658261535E+03  0.69658261535E+03  0.00000000000E+00 0.  1.
         -4   -1    0    0    0  501 -0.00000000000E+00 -0.00000000000E+00 -0.32955452951E+04  0.32955452951E+04  0.00000000000E+00 0. -1.
   -9000010    2    1    2    0  502 -0.11206171032E+03 -0.10359147990E+03 -0.17527158796E+04  0.20280107206E+04  0.10087246931E+04 0.  0.
        -13    1    1    2    0    0  0.21237745565E+03  0.91302657601E+02 -0.13909947583E+04  0.14100733271E+04  0.10566000000E+00 0.  1.
         13    1    3    3    0    0  0.78270788547E+02 -0.26283655289E+02  0.11911914268E+03  0.14493629011E+03  0.10566000000E+00 0. -1.
          2    1    1    2  502    0 -0.10031574533E+03  0.12288822296E+02  0.54474795821E+03  0.55404386279E+03  0.00000000000E+00 0.  1.
         -4    1    3    3    0  502 -0.19033249886E+03 -0.77307824608E+02 -0.18718350223E+04  0.18830744304E+04  0.00000000000E+00 0. -1.
</event>
<event>
 7    1  0.4894942E-006  0.1341331E+04  0.7818608E-02  0.8693577E-01
          2   -1    0    0  502    0  0.00000000000E+00  0.00000000000E+00  0.14475164290E+04  0.14475164290E+04  0.00000000000E+00 0. -1.
          4   -1    0    0  501    0 -0.00000000000E+00 -0.00000000000E+00 -0.15966269102E+04  0.15966269102E+04  0.00000000000E+00 0.  1.
    9000010    2    1    2  502    0  0.71099193993E+03  0.12015563579E+03 -0.39310808593E+03  0.14591896762E+04  0.12061316796E+04 0.  0.
        -13    1    3    3    0    0  0.48869560343E+03 -0.91935072342E+02 -0.80447068933E+03  0.94575290192E+03  0.10566000000E+00 0.  1.
         13    1    1    2    0    0 -0.53889034401E+03  0.18953376435E+03 -0.50111526389E+03  0.75989628869E+03  0.10566000000E+00 0. -1.
          2    1    1    2  501    0 -0.17210159592E+03 -0.30968940014E+03  0.74511286862E+03  0.82505737428E+03  0.00000000000E+00 0. -1.
          4    1    3    3  502    0  0.22229633650E+03  0.21209070813E+03  0.41136260340E+03  0.51343677427E+03  0.00000000000E+00 0.  1.
</event>
<event>
 7    1  0.4894942E-006  0.1246540E+04  0.7818608E-02  0.8685075E-01
         -4   -1    0    0    0  501 -0.00000000000E+00  0.00000000000E+00  0.19184983574E+04  0.19184983574E+04  0.00000000000E+00 0. -1.
          1   -1    0    0  501    0  0.00000000000E+00 -0.00000000000E+00 -0.12731001082E+04  0.12731001082E+04  0.00000000000E+00 0.  1.
   -9000010    2    1    2    0  502 -0.65367934679E+02  0.80295250403E+03 -0.23013125226E+03  0.12962366131E+04  0.98907192519E+03 0.  0.
        -13    1    1    2    0    0  0.10832485017E+03 -0.74473487341E+03  0.12797977187E+04  0.14846705078E+04  0.10566000000E+00 0.  1.
         13    1    3    3    0    0  0.19273149882E+03  0.13630970806E+03 -0.48329829912E+03  0.53786896568E+03  0.10566000000E+00 0. -1.
          1    1    1    2  502    0 -0.42956915495E+02 -0.58217630616E+02 -0.40426821728E+03  0.41069134470E+03  0.00000000000E+00 0.  1.
         -4    1    3    3    0  502 -0.25809943350E+03  0.66664279597E+03  0.25316704686E+03  0.75836764739E+03  0.00000000000E+00 0. -1.
</event>
<event>
 7    1  0.4894942E-006  0.1033708E+04  0.7818608E-02  0.9104080E-01
          1   -1    0    0  501    0  0.00000000000E+00  0.00000000000E+00  0.41496226634E+03  0.41496226634E+03  0.00000000000E+00 0.  1.
         -4   -1    0    0    0  501 -0.00000000000E+00 -0.00000000000E+00 -0.14404838799E+04  0.14404838799E+04  0.00000000000E+00 0. -1.
   -9000010    2    1    2    0  502 -0.56435260111E+02 -0.23137577551E+03 -0.63164883886E+03  0.12121883207E+04  0.10068269867E+04 0.  0.
        -13    1    1    2    0    0  0.67458373242E+02  0.22393217971E+03 -0.49172343025E+03  0.54450729679E+03  0.10566000000E+00 0.  1.
         13    1    3    3    0    0 -0.45543268539E+03  0.10761167609E+03 -0.12673589792E+03  0.48483110744E+03  0.10566000000E+00 0. -1.
          1    1    1    2  502    0 -0.11023113131E+02  0.74435957948E+01  0.97850655547E+02  0.98750528770E+02  0.00000000000E+00 0.  1.
         -4    1    3    3    0  502  0.39899742528E+03 -0.33898745160E+03 -0.50491294094E+03  0.72735721324E+03  0.00000000000E+00 0. -1.
</event>
<event>
 7    1  0.4894942E-006  0.9822128E+03  0.7818608E-02  0.9477218E-01
          4   -1    0    0  501    0  0.00000000000E+00  0.00000000000E+00  0.51851095993E+03  0.51851095993E+03  0.00000000000E+00 0. -1.
          4   -1    0    0  502    0 -0.00000000000E+00 -0.00000000000E+00 -0.16360034153E+04  0.16360034153E+04  0.00000000000E+00 0.  1.
    9000010    2    1    2  501    0 -0.37776981895E+02  0.69919254341E+02 -0.14656628431E+04  0.17648940532E+04  0.97998349308E+03 0.  0.
        -13    1    3    3    0    0 -0.39865406534E+03 -0.34773714678E+02 -0.12889867221E+04  0.13496744259E+04  0.10566000000E+00 0.  1.
         13    1    1    2    0    0  0.37462139711E+02 -0.49565562240E+02  0.26896537270E+02  0.67702228568E+02  0.10566000000E+00 0. -1.
          4    1    3    3  501    0  0.36087708345E+03  0.10469296902E+03 -0.17667612103E+03  0.41521962726E+03  0.00000000000E+00 0.  1.
          4    1    1    2  502    0  0.31484218331E+00 -0.20353692100E+02  0.32127385049E+03  0.32191809349E+03  0.00000000000E+00 0. -1.
</event>
<event>
 7    1  0.4894942E-006  0.1002894E+04  0.7818608E-02  0.9269309E-01
          1   -1    0    0  501    0  0.00000000000E+00  0.00000000000E+00  0.52816363971E+03  0.52816363971E+03  0.00000000000E+00 0. -1.
         -4   -1    0    0    0  501 -0.00000000000E+00 -0.00000000000E+00 -0.66838962045E+03  0.66838962045E+03  0.00000000000E+00 0. -1.
   -9000010    2    1    2    0  502  0.12342663022E+02 -0.12018792689E+03 -0.12579298581E+03  0.10089611539E+04  0.99377122907E+03 0.  0.
        -13    1    1    2    0    0 -0.34597916173E+02  0.13219624651E+03 -0.48644578159E+02  0.14504885226E+03  0.10566000000E+00 0.  1.
         13    1    3    3    0    0  0.44355206214E+03 -0.29054667643E+03 -0.67645893260E+01  0.53028442730E+03  0.10566000000E+00 0. -1.
          1    1    1    2  502    0  0.22255253151E+02 -0.12008319620E+02  0.34211583224E+02  0.42543253985E+02  0.00000000000E+00 0. -1.
         -4    1    3    3    0  502 -0.43120939911E+03  0.17035874954E+03 -0.11902839649E+03  0.47867672661E+03  0.00000000000E+00 0. -1.
</event>
<event>
 7    1  0.4894942E-006  0.1028502E+04  0.7818608E-02  0.9082370E-01
         -4   -1    0    0    0  501  0.00000000000E+00  0.00000000000E+00  0.17940919528E+04  0.17940919528E+04  0.00000000000E+00 0. -1.
         -4   -1    0    0    0  502 -0.00000000000E+00 -0.00000000000E+00 -0.28516991756E+03  0.28516991756E+03  0.00000000000E+00 0. -1.
   -9000010    2    1    2    0  501  0.17984918790E+03 -0.15127186280E+03  0.11530410032E+04  0.15412300751E+04  0.99531788013E+03 0.  0.
        -13    1    1    2    0    0 -0.25082503833E+03  0.86332177852E+02  0.13615505473E+03  0.29816883619E+03  0.10566000000E+00 0.  1.
         13    1    3    3    0    0 -0.41427005749E+02  0.41189128718E+03  0.40534308906E+03  0.57937350670E+03  0.10566000000E+00 0. -1.
         -4    1    3    3    0  501  0.22127619365E+03 -0.56316314998E+03  0.74769791416E+03  0.96185656842E+03  0.00000000000E+00 0. -1.
         -4    1    1    2    0  502  0.70975850423E+02  0.64939684947E+02  0.21972597734E+03  0.23986295909E+03  0.00000000000E+00 0. -1.
</event>
<event>
 6    1  0.4894942E-006  0.5443338E+03  0.7818608E-02  0.9470696E-01
          2   -1    0    0  502    0  0.00000000000E+00  0.00000000000E+00  0.30093898273E+04  0.30093898273E+04  0.00000000000E+00 0. -1.
          4   -1    0    0  501    0 -0.00000000000E+00 -0.00000000000E+00 -0.14954126087E+03  0.14954126087E+03  0.00000000000E+00 0.  1.
        -13    1    1    2    0    0 -0.37479590641E+02  0.12781215481E+03  0.21239435391E+03  0.25070309007E+03  0.10566000000E+00 0.  1.
         13    1    1    2    0    0 -0.39886093339E+03 -0.90279194565E+02  0.40967168581E+03  0.57885341709E+03  0.10566000000E+00 0. -1.
          2    1    1    2  501    0  0.43892829124E+02 -0.31988375210E+02  0.14325722234E+04  0.14336014132E+04  0.00000000000E+00 0. -1.
          4    1    1    2  502    0  0.39244769491E+03 -0.55445850368E+01  0.80521030336E+03  0.89577316788E+03  0.00000000000E+00 0.  1.
</event>
<event>
 7    1  0.4894942E-006  0.1031953E+04  0.7818608E-02  0.9103839E-01
         -2   -1    0    0    0  501  0.00000000000E+00  0.00000000000E+00  0.34752488580E+03  0.34752488580E+03  0.00000000000E+00 0.  1.
         -4   -1    0    0    0  502 -0.00000000000E+00 -0.00000000000E+00 -0.37733996162E+04  0.37733996162E+04  0.00000000000E+00 0. -1.
   -9000010    2    1    2    0  501 -0.17697242228E+03 -0.10746318210E+03 -0.24830514970E+04  0.26866000197E+04  0.10046926671E+04 0.  0.
        -13    1    1    2    0    0  0.23000782717E+03  0.67770959324E+02 -0.11717361706E+04  0.11960193009E+04  0.10566000000E+00 0.  1.
         13    1    3    3    0    0 -0.54321731228E+03 -0.63048300220E+01 -0.84129967254E+03  0.10014539178E+04  0.10566000000E+00 0. -1.
         -2    1    1    2    0  502 -0.53035404896E+02  0.39692222773E+02  0.22891293715E+03  0.23830518147E+03  0.00000000000E+00 0.  1.
         -4    1    3    3    0  501  0.36624489001E+03 -0.10115835208E+03 -0.16417518245E+04  0.16851461019E+04  0.00000000000E+00 0. -1.
</event>
<event>
 7    1  0.4894942E-006  0.1034742E+04  0.7818608E-02  0.9129448E-01
          1   -1    0    0  501    0  0.00000000000E+00  0.00000000000E+00  0.10388032240E+04  0.10388032240E+04  0.00000000000E+00 0. -1.
         -4   -1    0    0    0  501 -0.00000000000E+00 -0.00000000000E+00 -0.62338820564E+03  0.62338820564E+03  0.00000000000E+00 0. -1.
   -9000010    2    1    2    0  502 -0.10388524495E+03  0.30377202808E+02  0.14172982190E+03  0.10225843680E+04  0.10069143601E+04 0.  0.
        -13    1    1    2    0    0  0.18730598461E+02  0.21043680670E+03 -0.59774226207E+02  0.21956195985E+03  0.10566000000E+00 0.  1.
         13    1    3    3    0    0  0.22796973558E+03  0.28535961615E+03  0.39133664725E+03  0.53529869561E+03  0.10566000000E+00 0. -1.
          1    1    1    2  502    0  0.85154646490E+02 -0.24081400951E+03  0.33345942266E+03  0.42004510181E+03  0.00000000000E+00 0. -1.
         -4    1    3    3    0  502 -0.33185498053E+03 -0.25498241335E+03 -0.24960682535E+03  0.48728567235E+03  0.00000000000E+00 0. -1.
</event>
<event>
 7    1  0.4894942E-006  0.1035346E+04  0.7818608E-02  0.9030518E-01
         -4   -1    0    0    0  501 -0.00000000000E+00  0.00000000000E+00  0.16714315269E+04  0.16714315269E+04  0.00000000000E+00 0. -1.
          2   -1    0    0  501    0  0.00000000000E+00 -0.00000000000E+00 -0.54417611494E+03  0.54417611494E+03  0.00000000000E+00 0.  1.
   -9000010    2    1    2    0  502 -0.12486453619E+03  0.27124552924E+03  0.73296923564E+03  0.12651792877E+04  0.98705088014E+03 0.  0.
        -13    1    1    2    0    0  0.13864701219E+03 -0.28224469916E+03  0.63524941540E+03  0.70882077786E+03  0.10566000000E+00 0.  1.
         13    1    3    3    0    0 -0.45541318679E+03  0.24400520023E+03  0.77440007362E+03  0.93093243236E+03  0.10566000000E+00 0. -1.
          2    1    1    2  502    0 -0.13782475998E+02  0.10999169915E+02 -0.24096323905E+03  0.24160757636E+03  0.00000000000E+00 0.  1.
         -4    1    3    3    0  502  0.33054865060E+03  0.27240329015E+02 -0.41430837984E+02  0.33424685529E+03  0.00000000000E+00 0. -1.
</event>
<event>
 6    1  0.5493051E-006  0.4413004E+03  0.7818608E-02  0.9619964E-01
          2   -1    0    0  501    0  0.00000000000E+00  0.00000000000E+00  0.67790759817E+03  0.67790759817E+03  0.00000000000E+00 0.  1.
         -4   -1    0    0    0  501 -0.00000000000E+00 -0.00000000000E+00 -0.60922021520E+03  0.60922021520E+03  0.00000000000E+00 0. -1.
        -13    1    1    2    0    0 -0.43242605636E+03  0.50112013712E+00 -0.14226018884E+03  0.45522578775E+03  0.10566000000E+00 0.  1.
         13    1    1    2    0    0  0.42361429412E+03 -0.24627602235E+02 -0.15646599119E+03  0.45225789826E+03  0.10566000000E+00 0. -1.
          2    1    1    2  502    0 -0.76999211728E+01  0.26175462723E+02  0.36065484527E+03  0.36168544490E+03  0.00000000000E+00 0.  1.
         -4    1    1    2    0  502  0.16511683409E+02 -0.20489806250E+01  0.67587177256E+01  0.17958682466E+02  0.00000000000E+00 0. -1.
</event>
<event>
 7    1  0.4894942E-006  0.1123335E+04  0.7818608E-02  0.8871668E-01
         -4   -1    0    0    0  501 -0.00000000000E+00  0.00000000000E+00  0.73200566360E+03  0.73200566360E+03  0.00000000000E+00 0. -1.
          2   -1    0    0  501    0  0.00000000000E+00 -0.00000000000E+00 -0.24364705753E+04  0.24364705753E+04  0.00000000000E+00 0.  1.
   -9000010    2    1    2    0  502 -0.45559895953E+03  0.14168791104E+03 -0.11967725089E+03  0.11332084607E+04  0.10208784918E+04 0.  0.
        -13    1    1    2    0    0  0.42494869737E+03 -0.19238391452E+03 -0.17433330464E+02  0.46679427818E+03  0.10566000000E+00 0.  1.
         13    1    3    3    0    0  0.22949051305E+03  0.27661292866E+02 -0.33417100403E+03  0.40632660977E+03  0.10566000000E+00 0. -1.
          2    1    1    2  502    0  0.30650262158E+02  0.50696003477E+02 -0.15673543304E+04  0.15684735000E+04  0.00000000000E+00 0.  1.
         -4    1    3    3    0  502 -0.68508947258E+03  0.11402661817E+03  0.21449375315E+03  0.72688185095E+03  0.00000000000E+00 0. -1.
</event>
<event>
 6    1  0.1142757E-005  0.6910323E+03  0.7818608E-02  0.9275178E-01
         -4   -1    0    0    0  501 -0.00000000000E+00  0.00000000000E+00  0.15716544786E+04  0.15716544786E+04  0.00000000000E+00 0. -1.
          1   -1    0    0  501    0  0.00000000000E+00 -0.00000000000E+00 -0.68183813305E+03  0.68183813305E+03  0.00000000000E+00 0. -1.
        -13    1    1    2    0    0  0.23225575332E+03  0.30480119318E+03 -0.25227729015E+02  0.38403509187E+03  0.10566000000E+00 0.  1.
         13    1    1    2    0    0 -0.15680560686E+03 -0.28498389563E+03  0.13397639068E+04  0.13786845746E+04  0.10566000000E+00 0. -1.
          1    1    1    2  502    0 -0.43139394818E+02  0.63374397117E+02 -0.38591419766E+03  0.39345532091E+03  0.00000000000E+00 0. -1.
         -4    1    1    2    0  502 -0.32310751636E+02 -0.83191694670E+02 -0.38805634522E+02  0.97317624324E+02  0.00000000000E+00 0. -1.
</event>
<event>
 7    1  0.4894942E-006  0.1056157E+04  0.7818608E-02  0.9035444E-01
          2   -1    0    0  501    0  0.00000000000E+00  0.00000000000E+00  0.54710775427E+03  0.54710775427E+03  0.00000000000E+00 0. -1.
         -4   -1    0    0    0  501 -0.00000000000E+00 -0.00000000000E+00 -0.20328228237E+04  0.20328228237E+04  0.00000000000E+00 0. -1.
   -9000010    2    1    2    0  502  0.18586883623E+03 -0.23549601628E+03 -0.10755354509E+04  0.15096138456E+04  0.10159487481E+04 0.  0.
        -13    1    1    2    0    0 -0.17541360789E+03  0.22739111277E+03 -0.71224356246E+03  0.76796325135E+03  0.10566000000E+00 0.  1.
         13    1    3    3    0    0  0.78427791342E+02 -0.62323682642E+03 -0.82011573395E+03  0.10330367314E+04  0.10566000000E+00 0. -1.
          2    1    1    2  502    0 -0.10455228332E+02  0.81049035095E+01  0.30206394390E+03  0.30235348099E+03  0.00000000000E+00 0. -1.
         -4    1    3    3    0  502  0.10744104488E+03  0.38774081014E+03 -0.25541971693E+03  0.47657711419E+03  0.00000000000E+00 0. -1.
</event>
<event>
 7    1  0.4894942E-006  0.9928289E+03  0.7818608E-02  0.9082653E-01
          2   -1    0    0  501    0  0.00000000000E+00  0.00000000000E+00  0.13096133940E+04  0.13096133940E+04  0.00000000000E+00 0.  1.
         -4   -1    0    0    0  501 -0.00000000000E+00 -0.00000000000E+00 -0.14006309809E+04  0.14006309809E+04  0.00000000000E+00 0. -1.
   -9000010    2    1    2    0  502 -0.17104631381E+03  0.23169206144E+03 -0.93943685101E+03  0.13668847794E+04  0.95020753019E+03 0.  0.
        -13    1    1    2    0    0  0.14551896735E+03 -0.24870919639E+03 -0.16327787645E+03  0.33119738877E+03  0.10566000000E+00 0.  1.
         13    1    3    3    0    0  0.19003506227E+03 -0.17248173584E+03 -0.75010296908E+03  0.79279111339E+03  0.10566000000E+00 0. -1.
          2    1    1    2  502    0  0.25527346459E+02  0.17017134952E+02  0.10116971406E+04  0.10121622066E+04  0.00000000000E+00 0.  1.
         -4    1    3    3    0  502 -0.36108137608E+03  0.40417379727E+03 -0.18933388194E+03  0.57409366605E+03  0.00000000000E+00 0. -1.
</event>
<event>
 7    1  0.4894942E-006  0.1078179E+04  0.7818608E-02  0.9070948E-01
          2   -1    0    0  502    0  0.00000000000E+00  0.00000000000E+00  0.10322654501E+04  0.10322654501E+04  0.00000000000E+00 0.  1.
          4   -1    0    0  501    0 -0.00000000000E+00 -0.00000000000E+00 -0.17908332249E+04  0.17908332249E+04  0.00000000000E+00 0.  1.
    9000010    2    1    2  502    0 -0.51860214434E+02 -0.24972285356E+03 -0.25159681187E+03  0.11114874770E+04  0.10521656097E+04 0.  0.
        -13    1    3    3    0    0 -0.20522440788E+03 -0.58315489591E+03  0.71740558002E+02  0.62236115643E+03  0.10566000000E+00 0.  1.
         13    1    1    2    0    0 -0.15183342280E+03  0.18281001553E+03 -0.10768369794E+04  0.11027469254E+04  0.10566000000E+00 0. -1.
          2    1    1    2  501    0  0.20369363724E+03  0.66912838030E+02  0.56986601646E+03  0.60886427261E+03  0.00000000000E+00 0.  1.
          4    1    3    3  502    0  0.15336419345E+03  0.33343204235E+03 -0.32333736988E+03  0.48912632055E+03  0.00000000000E+00 0.  1.
</event>
<event>
 7    1  0.4894942E-006  0.1054606E+04  0.7818608E-02  0.9002321E-01
          2   -1    0    0  501    0  0.00000000000E+00  0.00000000000E+00  0.10741106145E+04  0.10741106145E+04  0.00000000000E+00 0. -1.
         -4   -1    0    0    0  501 -0.00000000000E+00 -0.00000000000E+00 -0.59025989551E+03  0.59025989551E+03  0.00000000000E+00 0. -1.
   -9000010    2    1    2    0  502 -0.32114480620E+03  0.64355140900E+02  0.18078037126E+03  0.10688241003E+04  0.10012131862E+04 0.  0.
        -13    1    1    2    0    0  0.32936145619E+03 -0.46205331071E+02  0.43738501082E+02  0.33545039735E+03  0.10566000000E+00 0.  1.
         13    1    3    3    0    0  0.14182574004E+03 -0.29185521819E+03  0.33322202852E+03  0.46511390043E+03  0.10566000000E+00 0. -1.
          2    1    1    2  502    0 -0.82166499936E+01 -0.18149809830E+02  0.25933184660E+03  0.26009601227E+03  0.00000000000E+00 0. -1.
         -4    1    3    3    0  502 -0.46297054624E+03  0.35621035909E+03 -0.15244165725E+03  0.60371019991E+03  0.00000000000E+00 0. -1.
</event>
<event>
 7    1  0.4894942E-006  0.1277641E+04  0.7818608E-02  0.8657810E-01
          4   -1    0    0  501    0 -0.00000000000E+00  0.00000000000E+00  0.29180942282E+04  0.29180942282E+04  0.00000000000E+00 0.  1.
          2   -1    0    0  502    0  0.00000000000E+00 -0.00000000000E+00 -0.15885109783E+04  0.15885109783E+04  0.00000000000E+00 0. -1.
    9000010    2    1    2  502    0  0.72060882523E+03  0.28226700131E+03  0.13697818468E+04  0.18649166271E+04  0.10013291064E+04 0.  0.
        -13    1    3    3    0    0  0.63738438705E+03 -0.14596654703E+03  0.12529278167E+04  0.14132916241E+04  0.10566000000E+00 0.  1.
         13    1    1    2    0    0 -0.77151531698E+03 -0.22760019841E+03  0.11751294480E+04  0.14240670508E+04  0.10566000000E+00 0. -1.
          2    1    1    2  501    0  0.50906491745E+02 -0.54666802901E+02 -0.12153280448E+04  0.12176215285E+04  0.00000000000E+00 0. -1.
          4    1    3    3  502    0  0.83224438180E+02  0.42823354834E+03  0.11685403015E+03  0.45162500306E+03  0.00000000000E+00 0.  1.
</event>
<event>
 7    1  0.4894942E-006  0.1025833E+04  0.7818608E-02  0.9397657E-01
         -4   -1    0    0    0  501 -0.00000000000E+00  0.00000000000E+00  0.18028244990E+04  0.18028244990E+04  0.00000000000E+00 0. -1.
          2   -1    0    0  501    0  0.00000000000E+00 -0.00000000000E+00 -0.74041970044E+03  0.74041970044E+03  0.00000000000E+00 0.  1.
   -9000010    2    1    2    0  502  0.66721416042E+00  0.67259568095E+02  0.15925223476E+04  0.18939192838E+04  0.10228775739E+04 0.  0.
        -13    1    1    2    0    0  0.18118630677E+02 -0.77910573381E+02  0.32465849574E+02  0.86327196032E+02  0.10566000000E+00 0.  1.
         13    1    3    3    0    0  0.22049276368E+02 -0.47425241949E+03  0.62387808681E+03  0.78398048850E+03  0.10566000000E+00 0. -1.
          2    1    1    2  502    0 -0.18785844837E+02  0.10651005286E+02 -0.56258339863E+03  0.56299771962E+03  0.00000000000E+00 0.  1.
         -4    1    3    3    0  502 -0.21382062208E+02  0.54151198759E+03  0.96864426076E+03  0.11099387952E+04  0.00000000000E+00 0. -1.
</event>
<event>
 7    1  0.4894942E-006  0.1172103E+04  0.7818608E-02  0.8774701E-01
          2   -1    0    0  502    0  0.00000000000E+00  0.00000000000E+00  0.13797881755E+04  0.13797881755E+04  0.00000000000E+00 0. -1.
          4   -1    0    0  501    0 -0.00000000000E+00 -0.00000000000E+00 -0.19298500893E+04  0.19298500893E+04  0.00000000000E+00 0.  1.
    9000010    2    1    2  502    0 -0.42484153353E+03  0.44894439710E+03 -0.13956292475E+04  0.18216325049E+04  0.99424473157E+03 0.  0.
        -13    1    3    3    0    0 -0.30610883045E+03  0.33964444358E+03 -0.15391720763E+04  0.16056499169E+04  0.10566000000E+00 0.  1.
         13    1    1    2    0    0  0.43947419571E+03 -0.44379579850E+03 -0.17480766679E+02  0.62481826784E+03  0.10566000000E+00 0. -1.
          2    1    1    2  501    0 -0.14632662184E+02 -0.51485986019E+01  0.86304810032E+03  0.86318749200E+03  0.00000000000E+00 0. -1.
          4    1    3    3  502    0 -0.11873270307E+03  0.10929995351E+03  0.14354282880E+03  0.21598258800E+03  0.00000000000E+00 0.  1.
</event>
<event>
 7    1  0.4894942E-006  0.1050996E+04  0.7818608E-02  0.9005437E-01
          2   -1    0    0  502    0  0.00000000000E+00  0.00000000000E+00  0.67296335638E+03  0.67296335638E+03  0.00000000000E+00 0.  1.
          4   -1    0    0  501    0 -0.00000000000E+00 -0.00000000000E+00 -0.14259245317E+04  0.14259245317E+04  0.00000000000E+00 0.  1.
    9000010    2    1    2  502    0  0.31402687277E+03  0.83360885180E+01 -0.40026018740E+03  0.11199215679E+04  0.99766413865E+03 0.  0.
        -13    1    3    3    0    0  0.13738060829E+03 -0.49109482117E+03 -0.13523413942E+03  0.52757543399E+03  0.10566000000E+00 0.  1.
         13    1    1    2    0    0 -0.33242333318E+03 -0.34162069637E+01 -0.62398335953E+03  0.70701639800E+03  0.10566000000E+00 0. -1.
          2    1    1    2  501    0  0.18396460410E+02 -0.49198815542E+01  0.27128237162E+03  0.27194992212E+03  0.00000000000E+00 0.  1.
          4    1    3    3  502    0  0.17664626448E+03  0.49943090969E+03 -0.26502604798E+03  0.59234613396E+03  0.00000000000E+00 0.  1.
</event>
<event>
 7    1  0.4894942E-006  0.1012559E+04  0.7818608E-02  0.9136314E-01
         -4   -1    0    0    0  502 -0.00000000000E+00  0.00000000000E+00  0.13356058953E+04  0.13356058953E+04  0.00000000000E+00 0. -1.
         -2   -1    0    0    0  501  0.00000000000E+00 -0.00000000000E+00 -0.63080691559E+03  0.63080691559E+03  0.00000000000E+00 0. -1.
   -9000010    2    1    2    0  501  0.11311544981E+03 -0.17728491334E+03  0.42424362760E+03  0.10960487868E+04  0.98849139708E+03 0.  0.
        -13    1    1    2    0    0 -0.12107533740E+03  0.18372437961E+03  0.55432779402E+03  0.59640020069E+03  0.10566000000E+00 0.  1.
         13    1    3    3    0    0 -0.29861758473E+02 -0.53322470817E+03  0.13760581119E+02  0.53423747414E+03  0.10566000000E+00 0. -1.
         -2    1    1    2    0  502  0.79598875968E+01 -0.64394662678E+01 -0.27377244193E+03  0.27396382334E+03  0.00000000000E+00 0. -1.
         -4    1    3    3    0  501  0.14297720828E+03  0.35593979483E+03  0.41048304648E+03  0.56181131270E+03  0.00000000000E+00 0. -1.
</event>
<event>
 7    1  0.4894942E-006  0.1065077E+04  0.7818608E-02  0.8961136E-01
         -4   -1    0    0    0  501 -0.00000000000E+00  0.00000000000E+00  0.18729835345E+04  0.18729835345E+04  0.00000000000E+00 0. -1.
          2   -1    0    0  501    0  0.00000000000E+00 -0.00000000000E+00 -0.90438101301E+03  0.90438101301E+03  0.00000000000E+00 0. -1.
   -9000010    2    1    2    0  502  0.11465006761E+03  0.37041460356E+03  0.82658270175E+03  0.13503368564E+04  0.99489650032E+03 0.  0.
        -13    1    1    2    0    0 -0.99418101023E+02 -0.36566845986E+03  0.73865148218E+03  0.83018275375E+03  0.10566000000E+00 0.  1.
         13    1    3    3    0    0 -0.33127359684E+03  0.23615679886E+03  0.60688295651E+01  0.40687721916E+03  0.10566000000E+00 0. -1.
          2    1    1    2  502    0 -0.15231966588E+02 -0.47461437059E+01 -0.59663166242E+03  0.59684493739E+03  0.00000000000E+00 0. -1.
         -4    1    3    3    0  502  0.44592366445E+03  0.13425780470E+03  0.82051387218E+03  0.94345963723E+03  0.00000000000E+00 0. -1.
</event>
<event>
 7    1  0.4894942E-006  0.1060862E+04  0.7818608E-02  0.8930108E-01
         -4   -1    0    0    0  501 -0.00000000000E+00  0.00000000000E+00  0.36143286376E+03  0.36143286376E+03  0.00000000000E+00 0. -1.
          2   -1    0    0  501    0  0.00000000000E+00 -0.00000000000E+00 -0.32425945514E+04  0.32425945514E+04  0.00000000000E+00 0. -1.
   -9000010    2    1    2    0  502  0.33955917362E+02  0.49214961282E+02 -0.16230024932E+04  0.18900347703E+04  0.96670534465E+03 0.  0.
        -13    1    1    2    0    0  0.16258658441E+03 -0.57614740676E+03 -0.58799918100E+03  0.83912053948E+03  0.10566000000E+00 0.  1.
         13    1    3    3    0    0 -0.28684926095E+02  0.16198176649E+03  0.79463071341E+02  0.18268910349E+03  0.10566000000E+00 0. -1.
          2    1    1    2  502    0 -0.19654250177E+03  0.52693244548E+03 -0.67016001340E+03  0.87487210532E+03  0.00000000000E+00 0. -1.
         -4    1    3    3    0  502  0.62640843457E+02 -0.11276680521E+03 -0.17024655646E+04  0.17073456669E+04  0.00000000000E+00 0. -1.
</event>
<event>
 7    1  0.4894942E-006  0.9939279E+03  0.7818608E-02  0.9403589E-01
          2   -1    0    0  502    0  0.00000000000E+00  0.00000000000E+00  0.17678337822E+04  0.17678337822E+04  0.00000000000E+00 0.  1.
          4   -1    0    0  501    0 -0.00000000000E+00 -0.00000000000E+00 -0.23194539014E+03  0.23194539014E+03  0.00000000000E+00 0.  1.
    9000010    2    1    2  502    0  0.44364341647E+02  0.46702108243E+02  0.11415886837E+04  0.15127008106E+04  0.99039877725E+03 0.  0.
        -13    1    3    3    0    0  0.35281868309E+03 -0.34146792217E+03  0.48718627791E+03  0.69168767920E+03  0.10566000000E+00 0.  1.
         13    1    1    2    0    0 -0.43132804433E+02 -0.72417524264E+02 -0.73452859928E+01  0.84609107247E+02  0.10566000000E+00 0. -1.
          2    1    1    2  501    0 -0.12315372136E+01  0.25715416021E+02  0.40164499443E+03  0.40246925455E+03  0.00000000000E+00 0.  1.
          4    1    3    3  502    0 -0.30845434144E+03  0.38817003041E+03  0.65440240575E+03  0.82101313139E+03  0.00000000000E+00 0.  1.
</event>
<event>
 7    1  0.4894942E-006  0.9837689E+03  0.7818608E-02  0.9675479E-01
          4   -1    0    0  501    0 -0.00000000000E+00  0.00000000000E+00  0.23884991537E+04  0.23884991537E+04  0.00000000000E+00 0.  1.
          2   -1    0    0  502    0  0.00000000000E+00 -0.00000000000E+00 -0.25656468591E+03  0.25656468591E+03  0.00000000000E+00 0.  1.
    9000010    2    1    2  502    0 -0.28284199541E+03  0.19587387916E+03  0.90534093697E+03  0.13330778800E+04  0.91601760411E+03 0.  0.
        -13    1    3    3    0    0 -0.44876206294E+03 -0.50136403432E+02  0.83369558656E+02  0.45918573863E+03  0.10566000000E+00 0.  1.
         13    1    1    2    0    0 -0.30708002756E+02  0.10332984412E+02  0.34700393614E+01  0.32585339301E+02  0.10566000000E+00 0. -1.
          2    1    1    2  501    0  0.31354999817E+03 -0.20620686357E+03  0.12231234915E+04  0.12794006203E+04  0.00000000000E+00 0.  1.
          4    1    3    3  502    0  0.16592006753E+03  0.24601028259E+03  0.82197137832E+03  0.87389214136E+03  0.00000000000E+00 0.  1.
</event>
<event>
 7    1  0.4894942E-006  0.1012872E+04  0.7818608E-02  0.9177616E-01
          2   -1    0    0  502    0  0.00000000000E+00  0.00000000000E+00  0.48975883164E+03  0.48975883164E+03  0.00000000000E+00 0.  1.
          4   -1    0    0  501    0 -0.00000000000E+00 -0.00000000000E+00 -0.11404768315E+04  0.11404768315E+04  0.00000000000E+00 0.  1.
    9000010    2    1    2  502    0  0.58659072716E+02  0.17347843873E+03 -0.67803600563E+03  0.12183492818E+04  0.99554331502E+03 0.  0.
        -13    1    3    3    0    0  0.33613105542E+03 -0.28374324959E+03 -0.14476826400E+03  0.46308981799E+03  0.10566000000E+00 0.  1.
         13    1    1    2    0    0 -0.43513325859E+02 -0.18211814277E+03 -0.14615914781E+03  0.23753512394E+03  0.10566000000E+00 0. -1.
          2    1    1    2  501    0 -0.15145746857E+02  0.86397040454E+01  0.17347715358E+03  0.17435125737E+03  0.00000000000E+00 0.  1.
          4    1    3    3  502    0 -0.27747198270E+03  0.45722168831E+03 -0.53326774163E+03  0.75525946383E+03  0.00000000000E+00 0.  1.
</event>
<event>
 7    1  0.4894942E-006  0.1149496E+04  0.7818608E-02  0.8807136E-01
          2   -1    0    0  502    0  0.00000000000E+00  0.00000000000E+00  0.17912177912E+04  0.17912177912E+04  0.00000000000E+00 0. -1.
          4   -1    0    0  501    0 -0.00000000000E+00 -0.00000000000E+00 -0.58297040790E+03  0.58297040790E+03  0.00000000000E+00 0.  1.
    9000010    2    1    2  502    0 -0.51457300296E+03  0.26874116740E+03  0.52444068151E+03  0.12666901368E+04  0.99622220607E+03 0.  0.
        -13    1    3    3    0    0 -0.24859092034E+02 -0.31077745482E+03 -0.49056815370E+02  0.31560605695E+03  0.10566000000E+00 0.  1.
         13    1    1    2    0    0  0.51693749713E+03 -0.24163725252E+03  0.17343222247E+03  0.59639893083E+03  0.10566000000E+00 0. -1.
          2    1    1    2  501    0 -0.23644941724E+01 -0.27103914883E+02  0.51037447928E+03  0.51109913142E+03  0.00000000000E+00 0. -1.
          4    1    3    3  502    0 -0.48971391092E+03  0.57951862222E+03  0.57349749688E+03  0.95108407987E+03  0.00000000000E+00 0.  1.
</event>
<event>
 7    1  0.4894942E-006  0.1124566E+04  0.7818608E-02  0.8827660E-01
          2   -1    0    0  501    0  0.00000000000E+00  0.00000000000E+00  0.10476047115E+04  0.10476047115E+04  0.00000000000E+00 0. -1.
         -4   -1    0    0    0  501 -0.00000000000E+00 -0.00000000000E+00 -0.26852557927E+04  0.26852557927E+04  0.00000000000E+00 0. -1.
   -9000010    2    1    2    0  502 -0.61560625508E+03  0.11574303935E+03 -0.80777754571E+02  0.11610512951E+04  0.97424203957E+03 0.  0.
        -13    1    1    2    0    0  0.55372112721E+03  0.78748117427E+02 -0.20038503931E+04  0.20804385984E+04  0.10566000000E+00 0.  1.
         13    1    3    3    0    0 -0.16633241643E+02  0.43729657216E+03 -0.18158365843E+03  0.47379066361E+03  0.10566000000E+00 0. -1.
          2    1    1    2  502    0  0.61885127868E+02 -0.19449115678E+03  0.44697706648E+03  0.49137061072E+03  0.00000000000E+00 0. -1.
         -4    1    3    3    0  502 -0.59897301344E+03 -0.32155353281E+03  0.10080590386E+03  0.68726063145E+03  0.00000000000E+00 0. -1.
</event>
<event>
 7    1  0.4894942E-006  0.1031423E+04  0.7818608E-02  0.9331099E-01
          4   -1    0    0  501    0 -0.00000000000E+00  0.00000000000E+00  0.13267520620E+04  0.13267520620E+04  0.00000000000E+00 0.  1.
          2   -1    0    0  502    0  0.00000000000E+00 -0.00000000000E+00 -0.12783568411E+04  0.12783568411E+04  0.00000000000E+00 0. -1.
    9000010    2    1    2  502    0 -0.64832850463E+02 -0.60333132988E+02  0.11043444212E+04  0.15105022220E+04  0.10267409491E+04 0.  0.
        -13    1    3    3    0    0  0.45565855289E+03 -0.16707811018E+03  0.65137986335E+03  0.81230262173E+03  0.10566000000E+00 0.  1.
         13    1    1    2    0    0  0.10632457702E+03  0.30769730896E+02 -0.14591333013E+03  0.18314585197E+03  0.10566000000E+00 0. -1.
          2    1    1    2  501    0 -0.41491726562E+02  0.29563402092E+02 -0.91003587013E+03  0.91146082913E+03  0.00000000000E+00 0. -1.
          4    1    3    3  502    0 -0.52049140336E+03  0.10674497719E+03  0.45296455787E+03  0.69819960026E+03  0.00000000000E+00 0.  1.
</event>
<event>
 7    1  0.4894942E-006  0.1007493E+04  0.7818608E-02  0.9225699E-01
         -4   -1    0    0    0  501 -0.00000000000E+00  0.00000000000E+00  0.16702990886E+04  0.16702990886E+04  0.00000000000E+00 0. -1.
          2   -1    0    0  501    0  0.00000000000E+00 -0.00000000000E+00 -0.93402695914E+03  0.93402695914E+03  0.00000000000E+00 0. -1.
   -9000010    2    1    2    0  502  0.28381888893E+03 -0.19792315447E+02  0.36197441634E+03  0.10829090740E+04  0.98016411224E+03 0.  0.
        -13    1    1    2    0    0 -0.99195517807E+02 -0.12214633165E+03  0.91724003223E+03  0.93063890149E+03  0.10566000000E+00 0.  1.
         13    1    3    3    0    0  0.13674368352E+03  0.46673533376E+03  0.55804569829E+02  0.48954557290E+03  0.10566000000E+00 0. -1.
          2    1    1    2  502    0 -0.18462337113E+03  0.14193864710E+03 -0.54294231915E+03  0.59077807223E+03  0.00000000000E+00 0. -1.
         -4    1    3    3    0  502  0.14707520541E+03 -0.48652764921E+03  0.30616984651E+03  0.59336350107E+03  0.00000000000E+00 0. -1.
</event>
<event>
 7    1  0.4894942E-006  0.1107405E+04  0.7818608E-02  0.8862903E-01
         -2   -1    0    0    0  501  0.00000000000E+00  0.00000000000E+00  0.67312972846E+03  0.67312972846E+03  0.00000000000E+00 0. -1.
         -4   -1    0    0    0  502 -0.00000000000E+00 -0.00000000000E+00 -0.11722640423E+04  0.11722640423E+04  0.00000000000E+00 0. -1.
   -9000010    2    1    2    0  501  0.45072866327E+03  0.22332175975E+03 -0.32579878206E+02  0.11058645825E+04  0.98429979684E+03 0.  0.
        -13    1    1    2    0    0 -0.46176696636E+03 -0.21261892470E+03 -0.49350112498E+03  0.70850469997E+03  0.10566000000E+00 0.  1.
         13    1    3    3    0    0  0.37918603245E+03  0.52039878862E+03 -0.29012535582E+03  0.70623627750E+03  0.10566000000E+00 0. -1.
         -2    1    1    2    0  502  0.11038303088E+02 -0.10702835048E+02  0.26946689297E+02  0.31024488347E+02  0.00000000000E+00 0. -1.
         -4    1    3    3    0  501  0.71542630825E+02 -0.29707702887E+03  0.25754547762E+03  0.39962830499E+03  0.00000000000E+00 0. -1.
</event>
<event>
 7    1  0.4894942E-006  0.9375810E+03  0.7818608E-02  0.9353205E-01
          2   -1    0    0  501    0  0.00000000000E+00  0.00000000000E+00  0.92649611659E+03  0.92649611659E+03  0.00000000000E+00 0. -1.
         -4   -1    0    0    0  501 -0.00000000000E+00 -0.00000000000E+00 -0.47965868197E+03  0.47965868197E+03  0.00000000000E+00 0. -1.
   -9000010    2    1    2    0  502  0.68036505961E+02 -0.92499905902E+02  0.14126397367E+03  0.94748654476E+03  0.92983334179E+03 0.  0.
        -13    1    1    2    0    0 -0.60053963091E+02  0.10484135775E+03 -0.28608040785E+02  0.12416368204E+03  0.10566000000E+00 0.  1.
         13    1    3    3    0    0 -0.32637083532E+03 -0.15498631579E+03 -0.20806414078E+03  0.41692850475E+03  0.10566000000E+00 0. -1.
          2    1    1    2  502    0 -0.79825428705E+01 -0.12341451846E+02  0.33418150174E+03  0.33450457176E+03  0.00000000000E+00 0. -1.
         -4    1    3    3    0  502  0.39440734128E+03  0.62486409890E+02  0.34932811445E+03  0.53055804001E+03  0.00000000000E+00 0. -1.
</event>
<event>
 7    1  0.4894942E-006  0.1017466E+04  0.7818608E-02  0.9102577E-01
         -4   -1    0    0    0  501 -0.00000000000E+00  0.00000000000E+00  0.26748015018E+04  0.26748015018E+04  0.00000000000E+00 0. -1.
          2   -1    0    0  501    0  0.00000000000E+00 -0.00000000000E+00 -0.25816624715E+03  0.25816624715E+03  0.00000000000E+00 0. -1.
   -9000010    2    1    2    0  502 -0.17532119791E+03 -0.17302631645E+03  0.17204969208E+04  0.19987447385E+04  0.98701329610E+03 0.  0.
        -13    1    1    2    0    0  0.16731972302E+03  0.18196544580E+03  0.79607322153E+03  0.83357057192E+03  0.10566000000E+00 0.  1.
         13    1    3    3    0    0 -0.39704382624E+03 -0.18720841790E+02  0.16790433795E+04  0.17254509414E+04  0.10566000000E+00 0. -1.
          2    1    1    2  502    0  0.80014748902E+01 -0.89391293587E+01 -0.99934887595E+02  0.10065243858E+03  0.00000000000E+00 0. -1.
         -4    1    3    3    0  502  0.22172262832E+03 -0.15430547466E+03  0.41453541235E+02  0.27329379704E+03  0.00000000000E+00 0. -1.
</event>
<event>
 7    1  0.4894942E-006  0.1049468E+04  0.7818608E-02  0.9058228E-01
          2   -1    0    0  502    0  0.00000000000E+00  0.00000000000E+00  0.12738816558E+04  0.12738816558E+04  0.00000000000E+00 0.  1.
          4   -1    0    0  501    0 -0.00000000000E+00 -0.00000000000E+00 -0.21602282814E+04  0.21602282814E+04  0.00000000000E+00 0.  1.
    9000010    2    1    2  502    0 -0.88243848444E+01 -0.24658842919E+03 -0.40382074374E+03  0.11194724733E+04  0.10145263438E+04 0.  0.
        -13    1    3    3    0    0  0.24767893220E+03 -0.11006856610E+03  0.27190705176E+03  0.38391847918E+03  0.10566000000E+00 0.  1.
         13    1    1    2    0    0 -0.15151815694E+02  0.26895149652E+03 -0.13853102434E+04  0.14112579377E+04  0.10566000000E+00 0. -1.
          2    1    1    2  501    0  0.23976200538E+02 -0.22363067334E+02  0.90278436151E+03  0.90337952620E+03  0.00000000000E+00 0.  1.
          4    1    3    3  502    0 -0.25650331705E+03 -0.13651986308E+03 -0.67572779550E+03  0.73555399413E+03  0.00000000000E+00 0.  1.
</event>
<event>
 7    1  0.4894942E-006  0.1114622E+04  0.7818608E-02  0.8985538E-01
          4   -1    0    0  501    0 -0.00000000000E+00  0.00000000000E+00  0.14167839408E+04  0.14167839408E+04  0.00000000000E+00 0.  1.
          2   -1    0    0  502    0  0.00000000000E+00 -0.00000000000E+00 -0.10913180888E+04  0.10913180888E+04  0.00000000000E+00 0. -1.
    9000010    2    1    2  502    0 -0.49430200243E+03  0.62281201040E+02  0.12915873173E+03  0.11550290599E+04  0.10340196969E+04 0.  0.
        -13    1    3    3    0    0 -0.54054069033E+03  0.93754389434E+02 -0.36420948843E+03  0.65850033111E+03  0.10566000000E+00 0.  1.
         13    1    1    2    0    0  0.13253538762E+03 -0.26954781616E+03  0.66263588934E+03  0.72753555733E+03  0.10566000000E+00 0. -1.
          2    1    1    2  501    0  0.36176661481E+03  0.20726661512E+03 -0.46632876915E+03  0.62553741237E+03  0.00000000000E+00 0. -1.
          4    1    3    3  502    0  0.46238687904E+02 -0.31473188394E+02  0.49336822016E+03  0.49652872879E+03  0.00000000000E+00 0.  1.
</event>
<event>
 7    1  0.4894942E-006  0.1162579E+04  0.7818608E-02  0.8795486E-01
         -4   -1    0    0    0  501 -0.00000000000E+00  0.00000000000E+00  0.17774997198E+04  0.17774997198E+04  0.00000000000E+00 0. -1.
          2   -1    0    0  501    0  0.00000000000E+00 -0.00000000000E+00 -0.10442638519E+04  0.10442638519E+04  0.00000000000E+00 0.  1.
   -9000010    2    1    2    0  502 -0.27205308973E+03 -0.52143886945E+03  0.55179010709E+03  0.12895095902E+04  0.10062063818E+04 0.  0.
        -13    1    1    2    0    0  0.25863507715E+03  0.52007533235E+03  0.75832863129E+03  0.95521347282E+03  0.10566000000E+00 0.  1.
         13    1    3    3    0    0 -0.46983459190E+03 -0.39231794312E+03  0.75917019111E+03  0.97519090566E+03  0.10566000000E+00 0. -1.
          2    1    1    2  502    0  0.13418012583E+02  0.13635371095E+01 -0.57688287052E+03  0.57704050863E+03  0.00000000000E+00 0.  1.
         -4    1    3    3    0  502  0.19778150217E+03 -0.12912092633E+03 -0.20738008402E+03  0.31431868457E+03  0.00000000000E+00 0. -1.
</event>
<event>
 7    1  0.4894942E-006  0.1016136E+04  0.7818608E-02  0.9159397E-01
          2   -1    0    0  501    0  0.00000000000E+00  0.00000000000E+00  0.84798835729E+03  0.84798835729E+03  0.00000000000E+00 0. -1.
         -4   -1    0    0    0  501 -0.00000000000E+00 -0.00000000000E+00 -0.14344757633E+04  0.14344757633E+04  0.00000000000E+00 0. -1.
   -9000010    2    1    2    0  502  0.41356195492E+02  0.17035174947E+03  0.11441422017E+02  0.10119497856E+04  0.99658487299E+03 0.  0.
        -13    1    1    2    0    0 -0.88052721227E+02 -0.17838653213E+03 -0.92188823130E+03  0.94310813735E+03  0.10566000000E+00 0.  1.
         13    1    3    3    0    0  0.48521949277E+03  0.17277338517E+03  0.16723735201E+03  0.54153203216E+03  0.10566000000E+00 0. -1.
          2    1    1    2  502    0  0.46696525735E+02  0.80347826576E+01  0.32395940328E+03  0.32740619759E+03  0.00000000000E+00 0. -1.
         -4    1    3    3    0  502 -0.44386329727E+03 -0.24216357039E+01 -0.15579592999E+03  0.47041775348E+03  0.00000000000E+00 0. -1.
</event>
<event>
 7    1  0.4894942E-006  0.1400684E+04  0.7818608E-02  0.8548600E-01
          2   -1    0    0  501    0  0.00000000000E+00  0.00000000000E+00  0.37411902320E+04  0.37411902320E+04  0.00000000000E+00 0.  1.
         -4   -1    0    0    0  501 -0.00000000000E+00 -0.00000000000E+00 -0.91509749388E+03  0.91509749388E+03  0.00000000000E+00 0. -1.
   -9000010    2    1    2    0  502  0.84828517033E+03 -0.48055149883E+03  0.92089656761E+03  0.16751010142E+04  0.10036909117E+04 0.  0.
        -13    1    1    2    0    0 -0.83594888302E+03  0.50724976978E+03 -0.93503445704E+02  0.98227072108E+03  0.10566000000E+00 0.  1.
         13    1    3    3    0    0  0.30404812780E+03  0.13715237914E+00 -0.18220398720E+03  0.35446239144E+03  0.10566000000E+00 0. -1.
          2    1    1    2  502    0 -0.12336287317E+02 -0.26698270951E+02  0.19986996162E+04  0.19989159906E+04  0.00000000000E+00 0.  1.
         -4    1    3    3    0  502  0.54423704254E+03 -0.48068865121E+03  0.11031005548E+04  0.13206386227E+04  0.00000000000E+00 0. -1.
</event>
<event>
 7    1  0.4894942E-006  0.1038201E+04  0.7818608E-02  0.9052144E-01
         -4   -1    0    0    0  501 -0.00000000000E+00  0.00000000000E+00  0.20477399599E+04  0.20477399599E+04  0.00000000000E+00 0. -1.
          5   -1    0    0  501    0  0.00000000000E+00 -0.00000000000E+00 -0.34088343058E+03  0.34088343058E+03  0.00000000000E+00 0. -1.
   -9000010    2    1    2    0  502 -0.24949178903E+03 -0.68664258975E+01  0.13510763308E+04  0.16984648915E+04  0.99854015221E+03 0.  0.
        -13    1    1    2    0    0  0.27517844113E+03  0.10940901405E+03  0.45650633274E+03  0.54414294980E+03  0.10566000000E+00 0.  1.
         13    1    3    3    0    0 -0.97682752205E+02  0.48770371472E+03  0.80476653672E+03  0.94606872013E+03  0.10566000000E+00 0. -1.
          5    1    1    2  502    0 -0.25686652102E+02 -0.10254258816E+03 -0.10072613421E+03  0.14601554915E+03  0.00000000000E+00 0. -1.
         -4    1    3    3    0  502 -0.15180903682E+03 -0.49457014061E+03  0.54630979407E+03  0.75239617141E+03  0.00000000000E+00 0. -1.
</event>
<event>
 7    1  0.4894942E-006  0.1016240E+04  0.7818608E-02  0.9170347E-01
          4   -1    0    0  501    0 -0.00000000000E+00  0.00000000000E+00  0.16081592335E+04  0.16081592335E+04  0.00000000000E+00 0.  1.
          2   -1    0    0  502    0  0.00000000000E+00 -0.00000000000E+00 -0.78936827359E+03  0.78936827359E+03  0.00000000000E+00 0. -1.
    9000010    2    1    2  502    0  0.93258823795E+02  0.18535000867E+03  0.44303538151E+03  0.11117430773E+04  0.99831883019E+03 0.  0.
        -13    1    3    3    0    0  0.47215986474E+03 -0.13994787396E+03  0.34897945482E+03  0.60357850885E+03  0.10566000000E+00 0.  1.
         13    1    1    2    0    0 -0.17974661571E+03 -0.65348877110E+02  0.80727212352E+03  0.82961895722E+03  0.10566000000E+00 0. -1.
          2    1    1    2  501    0  0.86487791914E+02 -0.12000113156E+03 -0.43151654508E+03  0.45616547262E+03  0.00000000000E+00 0. -1.
          4    1    3    3  502    0 -0.37890104094E+03  0.32529788264E+03  0.94055926684E+02  0.50816456844E+03  0.00000000000E+00 0.  1.
</event>
<event>
 7    1  0.4894942E-006  0.1115299E+04  0.7818608E-02  0.8837729E-01
          4   -1    0    0  501    0 -0.00000000000E+00  0.00000000000E+00  0.17621698597E+04  0.17621698597E+04  0.00000000000E+00 0.  1.
          2   -1    0    0  502    0  0.00000000000E+00 -0.00000000000E+00 -0.76825758100E+03  0.76825758100E+03  0.00000000000E+00 0. -1.
    9000010    2    1    2  502    0  0.54068734460E+03  0.48910093254E+02  0.83518132760E+03  0.13897858233E+04  0.96914487189E+03 0.  0.
        -13    1    3    3    0    0 -0.99804016610E+02 -0.29858738432E+03  0.50342072402E+02  0.31882534910E+03  0.10566000000E+00 0.  1.
         13    1    1    2    0    0 -0.55450758440E+03 -0.38889322934E+02  0.53055450249E+03  0.76842639978E+03  0.10566000000E+00 0. -1.
          2    1    1    2  501    0  0.13820239800E+02 -0.10020770320E+02 -0.37182355141E+03  0.37221521765E+03  0.00000000000E+00 0. -1.
          4    1    3    3  502    0  0.64049136121E+03  0.34749747758E+03  0.78483925519E+03  0.10709604742E+04  0.00000000000E+00 0.  1.
</event>
<event>
 7    1  0.4894942E-006  0.1045856E+04  0.7818608E-02  0.9051748E-01
          2   -1    0    0  501    0  0.00000000000E+00  0.00000000000E+00  0.12574784676E+04  0.12574784676E+04  0.00000000000E+00 0. -1.
         -4   -1    0    0    0  501 -0.00000000000E+00 -0.00000000000E+00 -0.51610427113E+03  0.51610427113E+03  0.00000000000E+00 0. -1.
   -9000010    2    1    2    0  502 -0.28029715562E+03  0.45705170263E+02  0.84354060347E+03  0.13448006928E+04  0.10081035143E+04 0.  0.
        -13    1    1    2    0    0  0.27619351300E+03 -0.32596282961E+02 -0.19197144433E+03  0.33793256855E+03  0.10566000000E+00 0.  1.
         13    1    3    3    0    0  0.10034605308E+02  0.40361033420E+03  0.23850676140E+02  0.40443894606E+03  0.10566000000E+00 0. -1.
          2    1    1    2  502    0  0.41036426120E+01 -0.13108887302E+02  0.89805037305E+02  0.90849477347E+02  0.00000000000E+00 0. -1.
         -4    1    3    3    0  502 -0.29033176092E+03 -0.35790516394E+03  0.81968992733E+03  0.94036174674E+03  0.00000000000E+00 0. -1.
</event>
<event>
 7    1  0.4894942E-006  0.1116637E+04  0.7818608E-02  0.8853476E-01
         -4   -1    0    0    0  501  0.00000000000E+00  0.00000000000E+00  0.19728388423E+04  0.19728388423E+04  0.00000000000E+00 0.  1.
         -4   -1    0    0    0  502 -0.00000000000E+00 -0.00000000000E+00 -0.49480571696E+03  0.49480571696E+03  0.00000000000E+00 0. -1.
   -9000010    2    1    2    0  501  0.41935098536E+03  0.30877510420E+03  0.61883256781E+03  0.12790468483E+04  0.99086314867E+03 0.  0.
        -13    1    1    2    0    0 -0.41877404114E+03 -0.29525792538E+03  0.23408129301E+03  0.56333205388E+03  0.10566000000E+00 0.  1.
         13    1    3    3    0    0  0.71007523825E+03  0.28594877311E+03  0.24256434995E+03  0.80300125769E+03  0.10566000000E+00 0. -1.
         -4    1    3    3    0  501 -0.29072425289E+03  0.22826331097E+02  0.37626821786E+03  0.47604559066E+03  0.00000000000E+00 0. -1.
         -4    1    1    2    0  502 -0.57694422112E+00 -0.13517178827E+02  0.62511926448E+03  0.62526565699E+03  0.00000000000E+00 0.  1.
</event>
<event>
 7    1  0.4894942E-006  0.1034820E+04  0.7818608E-02  0.9078997E-01
         -4   -1    0    0    0  501 -0.00000000000E+00  0.00000000000E+00  0.71781091018E+03  0.71781091018E+03  0.00000000000E+00 0. -1.
          2   -1    0    0  501    0  0.00000000000E+00 -0.00000000000E+00 -0.11805687373E+04  0.11805687373E+04  0.00000000000E+00 0. -1.
   -9000010    2    1    2    0  502 -0.93378022211E+02 -0.18134575021E+03 -0.31362640975E+03  0.10697314312E+04  0.10021766680E+04 0.  0.
        -13    1    1    2    0    0  0.14916160029E+03  0.21533200521E+03  0.28646906661E+03  0.38817726976E+03  0.10566000000E+00 0.  1.
         13    1    3    3    0    0  0.20092843773E+03 -0.52898618280E+03 -0.14616143292E+03  0.58443288265E+03  0.10566000000E+00 0. -1.
          2    1    1    2  502    0 -0.55783578079E+02 -0.33986254998E+02 -0.43560048398E+03  0.44047094655E+03  0.00000000000E+00 0. -1.
         -4    1    3    3    0  502 -0.29430645994E+03  0.34764043259E+03 -0.16746497683E+03  0.48529854853E+03  0.00000000000E+00 0. -1.
</event>
<event>
 7    1  0.4894942E-006  0.1085960E+04  0.7818608E-02  0.8936999E-01
          2   -1    0    0  501    0  0.00000000000E+00  0.00000000000E+00  0.11855738249E+04  0.11855738249E+04  0.00000000000E+00 0. -1.
         -4   -1    0    0    0  501 -0.00000000000E+00 -0.00000000000E+00 -0.57981641664E+03  0.57981641664E+03  0.00000000000E+00 0. -1.
   -9000010    2    1    2    0  502 -0.66455305002E+02 -0.38968794621E+03  0.34738953455E+03  0.11399454912E+04  0.10111989078E+04 0.  0.
        -13    1    1    2    0    0 -0.71621822717E+01  0.39879082177E+03  0.33346531418E+03  0.51988897210E+03  0.10566000000E+00 0.  1.
         13    1    3    3    0    0  0.42778441499E+03 -0.40034867762E+03  0.24520153163E+03  0.63513964737E+03  0.10566000000E+00 0. -1.
          2    1    1    2  502    0  0.73617487273E+02 -0.91028755578E+01 -0.75097440416E+02  0.10555577830E+03  0.00000000000E+00 0. -1.
         -4    1    3    3    0  502 -0.49423971999E+03  0.10660731403E+02  0.10218800291E+03  0.50480584382E+03  0.00000000000E+00 0. -1.
</event>
<event>
 7    1  0.4894942E-006  0.9823868E+03  0.7818608E-02  0.9213209E-01
          4   -1    0    0  501    0  0.00000000000E+00  0.00000000000E+00  0.15438689666E+04  0.15438689666E+04  0.00000000000E+00 0. -1.
         -4   -1    0    0    0  501 -0.00000000000E+00 -0.00000000000E+00 -0.21594075416E+04  0.21594075416E+04  0.00000000000E+00 0. -1.
   -9000010    2    1    2    0  502 -0.16891179896E+02 -0.19160455510E+03 -0.20178535389E+04  0.22454605755E+04  0.96610696823E+03 0.  0.
        -13    1    1    2    0    0  0.37737687674E+02  0.14800440287E+03  0.18660120544E+03  0.24114198592E+03  0.10566000000E+00 0.  1.
         13    1    3    3    0    0  0.14544800360E+03 -0.26728014322E+03 -0.10152825401E+03  0.32078309531E+03  0.10566000000E+00 0. -1.
          4    1    1    2  502    0 -0.20846507778E+02  0.43600152229E+02  0.12157137585E+04  0.12166739467E+04  0.00000000000E+00 0. -1.
         -4    1    3    3    0  502 -0.16233918350E+03  0.75675588119E+02 -0.19163252849E+04  0.19246774802E+04  0.00000000000E+00 0. -1.
</event>
<event>
 7    1  0.4894942E-006  0.1111638E+04  0.7818608E-02  0.8856677E-01
          4   -1    0    0  501    0 -0.00000000000E+00  0.00000000000E+00  0.79156824243E+03  0.79156824243E+03  0.00000000000E+00 0.  1.
          2   -1    0    0  502    0  0.00000000000E+00 -0.00000000000E+00 -0.11142494175E+04  0.11142494175E+04  0.00000000000E+00 0.  1.
    9000010    2    1    2  502    0  0.38127691497E+03  0.36452126638E+03  0.22068608724E+03  0.11391136085E+04  0.98520537170E+03 0.  0.
        -13    1    3    3    0    0 -0.19980154051E+03  0.44801954863E+03 -0.49173148258E+02  0.49301133985E+03  0.10566000000E+00 0.  1.
         13    1    1    2    0    0 -0.34776655437E+03 -0.35599636299E+03 -0.53587197169E+03  0.73132329924E+03  0.10566000000E+00 0. -1.
          2    1    1    2  501    0 -0.33510360608E+02 -0.85249033870E+01 -0.74952906495E+01  0.35380752221E+02  0.00000000000E+00 0.  1.
          4    1    3    3  502    0  0.58107845549E+03 -0.83498282250E+02  0.26985923550E+03  0.64610226865E+03  0.00000000000E+00 0.  1.
</event>
<event>
 7    1  0.4894942E-006  0.9963925E+03  0.7818608E-02  0.9469519E-01
          4   -1    0    0  502    0  0.00000000000E+00  0.00000000000E+00  0.27324133897E+04  0.27324133897E+04  0.00000000000E+00 0.  1.
          4   -1    0    0  501    0 -0.00000000000E+00 -0.00000000000E+00 -0.21571952652E+03  0.21571952652E+03  0.00000000000E+00 0.  1.
    9000010    2    1    2  502    0  0.57647706677E+02 -0.11516836168E+02  0.15510918432E+04  0.18433376366E+04  0.99425944348E+03 0.  0.
        -13    1    3    3    0    0  0.43497806694E+03 -0.62542578924E+02  0.29122707312E+03  0.52719134304E+03  0.10566000000E+00 0.  1.
         13    1    1    2    0    0 -0.64380114351E+02 -0.10645030972E+02 -0.54140431486E+02  0.84789818338E+02  0.10566000000E+00 0. -1.
          4    1    1    2  501    0  0.67324076738E+01  0.22161867141E+02  0.10197424515E+04  0.10200054613E+04  0.00000000000E+00 0.  1.
          4    1    3    3  502    0 -0.37733036027E+03  0.51025742755E+02  0.12598647701E+04  0.13161462936E+04  0.00000000000E+00 0.  1.
</event>
<event>
 7    1  0.4894942E-006  0.1191141E+04  0.7818608E-02  0.8753590E-01
         -4   -1    0    0    0  501 -0.00000000000E+00  0.00000000000E+00  0.28154297650E+04  0.28154297650E+04  0.00000000000E+00 0. -1.
          2   -1    0    0  501    0  0.00000000000E+00 -0.00000000000E+00 -0.10705693805E+04  0.10705693805E+04  0.00000000000E+00 0. -1.
   -9000010    2    1    2    0  502  0.25925557062E+03 -0.58077542578E+03  0.45350541197E+03  0.12689144311E+04  0.99998156412E+03 0.  0.
        -13    1    1    2    0    0 -0.30361159704E+03  0.57341468897E+03  0.18995112268E+04  0.20072686216E+04  0.10566000000E+00 0.  1.
         13    1    3    3    0    0  0.54406188153E+03 -0.40481717617E+03 -0.32317734495E+02  0.67891437176E+03  0.10566000000E+00 0. -1.
          2    1    1    2  502    0  0.44356026425E+02  0.73607368117E+01 -0.60815625429E+03  0.60981609289E+03  0.00000000000E+00 0. -1.
         -4    1    3    3    0  502 -0.28480631091E+03 -0.17595824961E+03  0.48582314646E+03  0.59000005930E+03  0.00000000000E+00 0. -1.
</event>
<event>
 7    1  0.4894942E-006  0.9925504E+03  0.7818608E-02  0.9323238E-01
          2   -1    0    0  501    0  0.00000000000E+00  0.00000000000E+00  0.20037674095E+04  0.20037674095E+04  0.00000000000E+00 0.  1.
         -4   -1    0    0    0  501 -0.00000000000E+00 -0.00000000000E+00 -0.11089779579E+04  0.11089779579E+04  0.00000000000E+00 0. -1.
   -9000010    2    1    2    0  502  0.13142691598E+03  0.68256476698E+01 -0.84651419587E+03  0.13062107606E+04  0.98604292180E+03 0.  0.
        -13    1    1    2    0    0 -0.10654887555E+03 -0.29610548588E+01  0.54816338977E+02  0.11985938808E+03  0.10566000000E+00 0.  1.
         13    1    3    3    0    0  0.12101300051E+03  0.42467252502E+03 -0.10325930855E+03  0.45349023778E+03  0.10566000000E+00 0. -1.
          2    1    1    2  502    0 -0.24878040433E+02 -0.38645928111E+01  0.16864873085E+04  0.16866752188E+04  0.00000000000E+00 0.  1.
         -4    1    3    3    0  502  0.10413915475E+02 -0.41784687735E+03 -0.74325488732E+03  0.85272052284E+03  0.00000000000E+00 0. -1.
</event>
<event>
 7    1  0.4894942E-006  0.1036301E+04  0.7818608E-02  0.9080978E-01
         -4   -1    0    0    0  501 -0.00000000000E+00  0.00000000000E+00  0.80257150305E+03  0.80257150305E+03  0.00000000000E+00 0. -1.
          1   -1    0    0  501    0  0.00000000000E+00 -0.00000000000E+00 -0.96633601570E+03  0.96633601570E+03  0.00000000000E+00 0. -1.
   -9000010    2    1    2    0  502 -0.12786766113E+03 -0.21088063574E+03 -0.12072520088E+03  0.10413545448E+04  0.10045018330E+04 0.  0.
        -13    1    1    2    0    0  0.16408156463E+03  0.19602646030E+03  0.29322877371E+03  0.38901447002E+03  0.10566000000E+00 0.  1.
         13    1    3    3    0    0 -0.90443817776E+02 -0.34061507817E+03 -0.51531722861E+03  0.62430006641E+03  0.10566000000E+00 0. -1.
          1    1    1    2  502    0 -0.36213903501E+02  0.14854175446E+02 -0.33626808548E+03  0.33853850393E+03  0.00000000000E+00 0. -1.
         -4    1    3    3    0  502 -0.37423843354E+02  0.12973444242E+03  0.39459202773E+03  0.41705447840E+03  0.00000000000E+00 0. -1.
</event>
<event>
 7    1  0.4894942E-006  0.1032028E+04  0.7818608E-02  0.9158299E-01
          4   -1    0    0  501    0  0.00000000000E+00  0.00000000000E+00  0.37967270930E+04  0.37967270930E+04  0.00000000000E+00 0. -1.
         -4   -1    0    0    0  501 -0.00000000000E+00 -0.00000000000E+00 -0.15679617229E+03  0.15679617229E+03  0.00000000000E+00 0. -1.
   -9000010    2    1    2    0  502  0.25496335074E+03  0.59529525076E+02  0.20944462326E+04  0.23418314981E+04  0.10143567762E+04 0.  0.
        -13    1    1    2    0    0 -0.18174268791E+03  0.21600808523E+02  0.24090672360E+03  0.30254431110E+03  0.10566000000E+00 0.  1.
         13    1    3    3    0    0 -0.12496364457E+03 -0.37144339906E+03  0.43379976009E+03  0.58460957415E+03  0.10566000000E+00 0. -1.
          4    1    1    2  502    0 -0.73220662838E+02 -0.81130333599E+02  0.13045779644E+04  0.13091474561E+04  0.00000000000E+00 0. -1.
         -4    1    3    3    0  502  0.37992699531E+03  0.43097292414E+03  0.16606464725E+04  0.17572219239E+04  0.00000000000E+00 0. -1.
</event>
<event>
 7    1  0.4894942E-006  0.1215713E+04  0.7818608E-02  0.9000994E-01
          2   -1    0    0  501    0  0.00000000000E+00  0.00000000000E+00  0.13328516191E+04  0.13328516191E+04  0.00000000000E+00 0. -1.
         -4   -1    0    0    0  501 -0.00000000000E+00 -0.00000000000E+00 -0.16143926294E+04  0.16143926294E+04  0.00000000000E+00 0. -1.
   -9000010    2    1    2    0  502 -0.15005813759E+03 -0.23178814395E+03 -0.82890078508E+03  0.14812150437E+04  0.11961096546E+04 0.  0.
        -13    1    1    2    0    0  0.29897598670E+01  0.21584439705E+03 -0.42808481118E+03  0.47943128718E+03  0.10566000000E+00 0.  1.
         13    1    3    3    0    0  0.18857005093E+03  0.39726937042E+03 -0.81398551006E+02  0.44722181527E+03  0.10566000000E+00 0. -1.
          2    1    1    2  502    0  0.14706837773E+03  0.15943746893E+02  0.97544458600E+03  0.98659791767E+03  0.00000000000E+00 0. -1.
         -4    1    3    3    0  502 -0.33862818852E+03 -0.62905751436E+03 -0.74750223408E+03  0.10339932284E+04  0.00000000000E+00 0. -1.
</event>
<event>
 7    1  0.4894942E-006  0.1089669E+04  0.7818608E-02  0.9056013E-01
         -4   -1    0    0    0  501 -0.00000000000E+00  0.00000000000E+00  0.11519226139E+04  0.11519226139E+04  0.00000000000E+00 0. -1.
          2   -1    0    0  501    0  0.00000000000E+00 -0.00000000000E+00 -0.57120276170E+03  0.57120276170E+03  0.00000000000E+00 0. -1.
   -9000010    2    1    2    0  502 -0.16658008424E+03 -0.17820985547E+03  0.66783285576E+03  0.12783985597E+04  0.10624473997E+04 0.  0.
        -13    1    1    2    0    0  0.13681507088E+03  0.19976017978E+03  0.94145787286E+02  0.25978054868E+03  0.10566000000E+00 0.  1.
         13    1    3    3    0    0  0.18786303444E+03  0.70404034896E+02 -0.21564865402E+03  0.29453964246E+03  0.10566000000E+00 0. -1.
          2    1    1    2  502    0  0.29765013355E+02 -0.21550324316E+02 -0.18125879086E+03  0.18494626723E+03  0.00000000000E+00 0. -1.
         -4    1    3    3    0  502 -0.35444311867E+03 -0.24861389036E+03  0.88348150978E+03  0.98385891721E+03  0.00000000000E+00 0. -1.
</event>
<event>
 7    1  0.4894942E-006  0.1234640E+04  0.7818608E-02  0.8701725E-01
          2   -1    0    0  502    0  0.00000000000E+00  0.00000000000E+00  0.65485527484E+03  0.65485527484E+03  0.00000000000E+00 0.  1.
          4   -1    0    0  501    0 -0.00000000000E+00 -0.00000000000E+00 -0.23117027109E+04  0.23117027109E+04  0.00000000000E+00 0.  1.
    9000010    2    1    2  502    0 -0.45185370023E+03  0.44505096525E+03 -0.12478338500E+04  0.17192890317E+04  0.99831023689E+03 0.  0.
        -13    1    3    3    0    0 -0.58376654214E+03  0.33820492055E+03 -0.26975900580E+03  0.72659196003E+03  0.10566000000E+00 0.  1.
         13    1    1    2    0    0  0.46378979392E+03 -0.67472030331E+03 -0.54172957507E+03  0.98174304394E+03  0.10566000000E+00 0. -1.
          2    1    1    2  501    0 -0.11936093693E+02  0.22966933806E+03  0.13271598908E+03  0.26552591010E+03  0.00000000000E+00 0.  1.
          4    1    3    3  502    0  0.13191284191E+03  0.10684604470E+03 -0.97807484424E+03  0.99269707166E+03  0.00000000000E+00 0.  1.
</event>
<event>
 7    1  0.4894942E-006  0.1169421E+04  0.7818608E-02  0.8840094E-01
         -4   -1    0    0    0  501 -0.00000000000E+00  0.00000000000E+00  0.93473522196E+03  0.93473522196E+03  0.00000000000E+00 0. -1.
          1   -1    0    0  501    0  0.00000000000E+00 -0.00000000000E+00 -0.17852618474E+04  0.17852618474E+04  0.00000000000E+00 0. -1.
   -9000010    2    1    2    0  502  0.12583267939E+03 -0.43295176094E+03 -0.35720389332E+03  0.11471914778E+04  0.99255860024E+03 0.  0.
        -13    1    1    2    0    0 -0.42343308848E+03 -0.21320551903E+03  0.25665688804E+03  0.53909641356E+03  0.10566000000E+00 0.  1.
         13    1    3    3    0    0  0.15529417037E+03 -0.63286306980E+03  0.88691162214E+02  0.65764586054E+03  0.10566000000E+00 0. -1.
          1    1    1    2  502    0  0.29760040910E+03  0.64615727997E+03 -0.74997962018E+03  0.10337091780E+04  0.00000000000E+00 0. -1.
         -4    1    3    3    0  502 -0.29461490981E+02  0.19991130886E+03 -0.44589505553E+03  0.48954561729E+03  0.00000000000E+00 0. -1.
</event>
<event>
 7    1  0.4894942E-006  0.1014848E+04  0.7818608E-02  0.9634497E-01
          4   -1    0    0  501    0 -0.00000000000E+00  0.00000000000E+00  0.36391746420E+03  0.36391746420E+03  0.00000000000E+00 0.  1.
          2   -1    0    0  502    0  0.00000000000E+00 -0.00000000000E+00 -0.19365640272E+04  0.19365640272E+04  0.00000000000E+00 0.  1.
    9000010    2    1    2  502    0  0.28401700755E+02  0.22775891149E+02 -0.35911730934E+03  0.10765898888E+04  0.10142756770E+04 0.  0.
        -13    1    3    3    0    0  0.44289397042E+03 -0.25448549557E+03 -0.23740630051E+03  0.56327586419E+03  0.10566000000E+00 0.  1.
         13    1    1    2    0    0 -0.34390330866E+02 -0.15727965149E+01 -0.53288410766E+02  0.63441582830E+02  0.10566000000E+00 0. -1.
          2    1    1    2  501    0  0.59886301110E+01 -0.21203094634E+02 -0.11602408429E+04  0.11604500198E+04  0.00000000000E+00 0.  1.
          4    1    3    3  502    0 -0.41449226967E+03  0.27726138672E+03 -0.12171100883E+03  0.51331402460E+03  0.00000000000E+00 0.  1.
</event>
<event>
 7    1  0.4894942E-006  0.1057150E+04  0.7818608E-02  0.9128655E-01
          2   -1    0    0  501    0  0.00000000000E+00  0.00000000000E+00  0.12606878501E+04  0.12606878501E+04  0.00000000000E+00 0. -1.
         -4   -1    0    0    0  501 -0.00000000000E+00 -0.00000000000E+00 -0.94607211409E+03  0.94607211409E+03  0.00000000000E+00 0. -1.
   -9000010    2    1    2    0  502 -0.17321937228E+03 -0.99243049322E+02 -0.47246509079E+03  0.11580795562E+04  0.10383019131E+04 0.  0.
        -13    1    1    2    0    0  0.19447465653E+03  0.46730213506E+02 -0.52823114698E+02  0.20686806785E+03  0.10566000000E+00 0.  1.
         13    1    3    3    0    0 -0.46785799398E+03  0.18415543745E+03  0.37836866015E+02  0.50421817427E+03  0.10566000000E+00 0. -1.
          2    1    1    2  502    0 -0.21255284244E+02  0.52512835817E+02  0.83990394151E+03  0.84181234013E+03  0.00000000000E+00 0. -1.
         -4    1    3    3    0  502  0.29463862169E+03 -0.28339848677E+03 -0.51030195680E+03  0.65386138196E+03  0.00000000000E+00 0. -1.
</event>
<event>
 7    1  0.4894942E-006  0.9580287E+03  0.7818608E-02  0.9444957E-01
          4   -1    0    0  501    0 -0.00000000000E+00  0.00000000000E+00  0.21654571662E+03  0.21654571662E+03  0.00000000000E+00 0.  1.
          2   -1    0    0  502    0  0.00000000000E+00 -0.00000000000E+00 -0.26698754842E+04  0.26698754842E+04  0.00000000000E+00 0. -1.
    9000010    2    1    2  502    0  0.68584695242E+02 -0.52435669502E+02 -0.13686004110E+04  0.16708994214E+04  0.95466456493E+03 0.  0.
        -13    1    3    3    0    0 -0.40046411015E+03 -0.22429239211E+03 -0.64975514990E+03  0.79552520177E+03  0.10566000000E+00 0.  1.
         13    1    1    2    0    0 -0.77172813736E+02 -0.23626862896E+02  0.38686219065E+02  0.89501433172E+02  0.10566000000E+00 0. -1.
          2    1    1    2  501    0  0.85881184939E+01  0.76062532398E+02 -0.11234155756E+04  0.11260203462E+04  0.00000000000E+00 0. -1.
          4    1    3    3  502    0  0.46904880539E+03  0.17185672261E+03 -0.71884526114E+03  0.87537421964E+03  0.00000000000E+00 0.  1.
</event>
<event>
 7    1  0.4894942E-006  0.1013295E+04  0.7818608E-02  0.9206082E-01
         -4   -1    0    0    0  501  0.00000000000E+00  0.00000000000E+00  0.24073048103E+03  0.24073048103E+03  0.00000000000E+00 0.  1.
         -4   -1    0    0    0  502 -0.00000000000E+00 -0.00000000000E+00 -0.32988372505E+04  0.32988372505E+04  0.00000000000E+00 0. -1.
   -9000010    2    1    2    0  501 -0.67938809893E+02  0.15998860105E+03 -0.23280701993E+04  0.25394991225E+04  0.99946631051E+03 0.  0.
        -13    1    1    2    0    0  0.58473968258E+02 -0.15569704843E+03 -0.85684409759E+03  0.87283594942E+03  0.10566000000E+00 0.  1.
         13    1    3    3    0    0  0.45525759425E+03  0.14711973980E+03 -0.91325159499E+03  0.10309860241E+04  0.10566000000E+00 0. -1.
         -4    1    1    2    0  502  0.94648416349E+01 -0.42915526212E+01  0.12680752745E+03  0.12723265960E+03  0.00000000000E+00 0.  1.
         -4    1    3    3    0  501 -0.52319640414E+03  0.12868861248E+02 -0.14148186043E+04  0.15085130984E+04  0.00000000000E+00 0. -1.
</event>
<event>
 7    1  0.4894942E-006  0.9851141E+03  0.7818608E-02  0.9563671E-01
         -4   -1    0    0    0  501  0.00000000000E+00  0.00000000000E+00  0.14592132455E+04  0.14592132455E+04  0.00000000000E+00 0. -1.
         -4   -1    0    0    0  502 -0.00000000000E+00 -0.00000000000E+00 -0.26187426811E+03  0.26187426811E+03  0.00000000000E+00 0. -1.
   -9000010    2    1    2    0  501 -0.53628618995E+02  0.12126130343E+02  0.89440105427E+03  0.13296086155E+04  0.98228445610E+03 0.  0.
        -13    1    1    2    0    0  0.75494317884E+01  0.47351399270E+02 -0.25655544342E+02  0.54381679384E+02  0.10566000000E+00 0.  1.
         13    1    3    3    0    0 -0.32062999257E+03  0.36401679710E+03  0.24296541245E+03  0.54253481319E+03  0.10566000000E+00 0. -1.
         -4    1    3    3    0  501  0.26700137357E+03 -0.35189066676E+03  0.65143564182E+03  0.78707380230E+03  0.00000000000E+00 0. -1.
         -4    1    1    2    0  502  0.46079187207E+02 -0.59477529613E+02  0.32859346747E+03  0.33709721875E+03  0.00000000000E+00 0. -1.
</event>
<event>
 7    1  0.4894942E-006  0.1027647E+04  0.7818608E-02  0.9102180E-01
          4   -1    0    0  501    0 -0.00000000000E+00  0.00000000000E+00  0.21171884432E+04  0.21171884432E+04  0.00000000000E+00 0.  1.
          2   -1    0    0  502    0  0.00000000000E+00 -0.00000000000E+00 -0.34602378184E+03  0.34602378184E+03  0.00000000000E+00 0.  1.
    9000010    2    1    2  502    0 -0.20969283533E+03 -0.31917087016E+02  0.76963876924E+03  0.12789485518E+04  0.99918755867E+03 0.  0.
        -13    1    3    3    0    0 -0.14849699472E+03  0.36963816318E+03  0.77647959380E+03  0.87269943272E+03  0.10566000000E+00 0.  1.
         13    1    1    2    0    0  0.23529177560E+03  0.55209158832E+02  0.10756451502E+04  0.11024621405E+04  0.10566000000E+00 0. -1.
          2    1    1    2  501    0 -0.25598940266E+02 -0.23292071816E+02 -0.74119258053E+02  0.81801532788E+02  0.00000000000E+00 0.  1.
          4    1    3    3  502    0 -0.61195840605E+02 -0.40155525020E+03 -0.68408245640E+01  0.40624911907E+03  0.00000000000E+00 0.  1.
</event>
<event>
 7    1  0.4894942E-006  0.1097436E+04  0.7818608E-02  0.8899586E-01
          4   -1    0    0  501    0  0.00000000000E+00  0.00000000000E+00  0.56336250225E+03  0.56336250225E+03  0.00000000000E+00 0.  1.
          4   -1    0    0  502    0 -0.00000000000E+00 -0.00000000000E+00 -0.16166176490E+04  0.16166176490E+04  0.00000000000E+00 0.  1.
    9000010    2    1    2  501    0  0.26885108210E+03  0.60830835888E+02 -0.57741438177E+03  0.11888482419E+04  0.10019837719E+04 0.  0.
        -13    1    3    3    0    0  0.97338007971E+01 -0.15630791612E+03  0.25001681219E+03  0.29501750636E+03  0.10566000000E+00 0.  1.
         13    1    1    2    0    0 -0.49695603186E+03 -0.72775073056E+02 -0.55580687004E+03  0.74912134986E+03  0.10566000000E+00 0. -1.
          4    1    3    3  501    0  0.25911728130E+03  0.21713875201E+03 -0.82743119396E+03  0.89383073556E+03  0.00000000000E+00 0.  1.
          4    1    1    2  502    0  0.22810494976E+03  0.11944237168E+02  0.79966105114E+02  0.24201055943E+03  0.00000000000E+00 0.  1.
</event>
<event>
 7    1  0.4894942E-006  0.1015213E+04  0.7818608E-02  0.9229527E-01
         -4   -1    0    0    0  501 -0.00000000000E+00  0.00000000000E+00  0.16257255443E+04  0.16257255443E+04  0.00000000000E+00 0. -1.
          2   -1    0    0  501    0  0.00000000000E+00 -0.00000000000E+00 -0.97412977182E+03  0.97412977182E+03  0.00000000000E+00 0.  1.
   -9000010    2    1    2    0  502  0.15746066814E+03  0.58505168406E+02  0.80524752575E+03  0.12978189995E+04  0.10038395594E+04 0.  0.
        -13    1    1    2    0    0 -0.14760511156E+03 -0.31572932508E+02  0.56398084223E+03  0.58383090068E+03  0.10566000000E+00 0.  1.
         13    1    3    3    0    0 -0.38487676361E+03  0.12034250312E+03  0.58206288570E+03  0.70810285644E+03  0.10566000000E+00 0. -1.
          2    1    1    2  502    0 -0.98555565815E+01 -0.26932235898E+02 -0.71763259550E+03  0.71820541592E+03  0.00000000000E+00 0.  1.
         -4    1    3    3    0  502  0.54233743175E+03 -0.61837334712E+02  0.22318464005E+03  0.58971614307E+03  0.00000000000E+00 0. -1.
</event>
<event>
 7    1  0.4894942E-006  0.1008472E+04  0.7818608E-02  0.9189131E-01
          2   -1    0    0  502    0  0.00000000000E+00  0.00000000000E+00  0.50124196216E+03  0.50124196216E+03  0.00000000000E+00 0.  1.
          4   -1    0    0  501    0 -0.00000000000E+00 -0.00000000000E+00 -0.85438025492E+03  0.85438025492E+03  0.00000000000E+00 0.  1.
    9000010    2    1    2  502    0 -0.11344738626E+03 -0.27886134067E+02 -0.16053625162E+03  0.10118163865E+04  0.99214543595E+03 0.  0.
        -13    1    3    3    0    0 -0.34023903297E+03 -0.26571998072E+03  0.23982717089E+03  0.49384895542E+03  0.10566000000E+00 0.  1.
         13    1    1    2    0    0  0.17155182662E+03  0.73063586244E+02 -0.19547859861E+03  0.27014849718E+03  0.10566000000E+00 0. -1.
          2    1    1    2  501    0 -0.58104440353E+02 -0.45177452177E+02  0.28765574679E+01  0.73657333354E+02  0.00000000000E+00 0.  1.
          4    1    3    3  502    0  0.22679164671E+03  0.23783384665E+03 -0.40036342250E+03  0.51796743113E+03  0.00000000000E+00 0.  1.
</event>
<event>
 6    1  0.4894942E-006  0.2345982E+04  0.7818608E-02  0.8488875E-01
         -4   -1    0    0    0  501 -0.00000000000E+00  0.00000000000E+00  0.21198452395E+04  0.21198452395E+04  0.00000000000E+00 0. -1.
          2   -1    0    0  501    0  0.00000000000E+00 -0.00000000000E+00 -0.18694774098E+04  0.18694774098E+04  0.00000000000E+00 0. -1.
        -13    1    1    2    0    0 -0.25074859908E+03 -0.61156544446E+02 -0.74011267080E+02  0.26850076664E+03  0.10566000000E+00 0.  1.
         13    1    1    2    0    0 -0.96832229445E+03 -0.43377064532E+02  0.92750998712E+03  0.13415678973E+04  0.10566000000E+00 0. -1.
          2    1    1    2  502    0 -0.81431634219E+02  0.37765308199E+02 -0.10107536861E+04  0.10147316608E+04  0.00000000000E+00 0. -1.
         -4    1    1    2    0  502  0.13005025277E+04  0.66768300779E+02  0.40762279573E+03  0.13645223246E+04  0.00000000000E+00 0. -1.
</event>
<event>
 7    1  0.4894942E-006  0.1081223E+04  0.7818608E-02  0.8940188E-01
         -4   -1    0    0    0  501 -0.00000000000E+00  0.00000000000E+00  0.19760111429E+04  0.19760111429E+04  0.00000000000E+00 0. -1.
          2   -1    0    0  501    0  0.00000000000E+00 -0.00000000000E+00 -0.15440190853E+04  0.15440190853E+04  0.00000000000E+00 0.  1.
   -9000010    2    1    2    0  502 -0.23167323843E+03  0.44735544151E+03  0.12574769312E+04  0.16873930101E+04  0.10061051425E+04 0.  0.
        -13    1    1    2    0    0  0.36687153646E+03 -0.13362388182E+03  0.40086614817E+03  0.55959248205E+03  0.10566000000E+00 0.  1.
         13    1    3    3    0    0  0.19896461203E+03 -0.13593672137E+03  0.78705196676E+03  0.82311391593E+03  0.10566000000E+00 0. -1.
          2    1    1    2  502    0 -0.13519829804E+03 -0.31373155969E+03 -0.12263510218E+04  0.12730447361E+04  0.00000000000E+00 0.  1.
         -4    1    3    3    0  502 -0.43063785046E+03  0.58329216288E+03  0.47042496440E+03  0.86427909419E+03  0.00000000000E+00 0. -1.
</event>
<event>
 7    1  0.4894942E-006  0.1052509E+04  0.7818608E-02  0.9067244E-01
          1   -1    0    0  501    0  0.00000000000E+00  0.00000000000E+00  0.26898104096E+04  0.26898104096E+04  0.00000000000E+00 0.  1.
         -4   -1    0    0    0  501 -0.00000000000E+00 -0.00000000000E+00 -0.24844461176E+03  0.24844461176E+03  0.00000000000E+00 0. -1.
   -9000010    2    1    2    0  502 -0.10336402430E+03  0.22571881670E+03  0.10663866296E+04  0.14968741474E+04  0.10206951864E+04 0.  0.
        -13    1    1    2    0    0  0.10472755167E+03 -0.23823894415E+03  0.47749216891E+03  0.54380551406E+03  0.10566000000E+00 0.  1.
         13    1    3    3    0    0  0.16186530926E+02  0.62886031257E+03  0.66916664311E+03  0.91842871467E+03  0.10566000000E+00 0. -1.
          1    1    1    2  502    0 -0.13635273708E+01  0.12520127455E+02  0.89748699934E+03  0.89757535995E+03  0.00000000000E+00 0.  1.
         -4    1    3    3    0  502 -0.11955055522E+03 -0.40314149587E+03  0.39721998648E+03  0.57844543269E+03  0.00000000000E+00 0. -1.
</event>
<event>
 7    1  0.4894942E-006  0.1110414E+04  0.7818608E-02  0.8889570E-01
          2   -1    0    0  502    0  0.00000000000E+00  0.00000000000E+00  0.13817058182E+04  0.13817058182E+04  0.00000000000E+00 0.  1.
          4   -1    0    0  501    0 -0.00000000000E+00 -0.00000000000E+00 -0.80924919270E+03  0.80924919270E+03  0.00000000000E+00 0.  1.
    9000010    2    1    2  502    0 -0.12527090662E+03 -0.29990377316E+03  0.20024941691E+03  0.10843628752E+04  0.10149423348E+04 0.  0.
        -13    1    3    3    0    0  0.38169837195E+03  0.32099851479E+02 -0.11676303840E+03  0.40044683282E+03  0.10566000000E+00 0.  1.
         13    1    1    2    0    0 -0.14474981497E+02  0.49151248372E+03 -0.16556395697E+03  0.51885015347E+03  0.10566000000E+00 0. -1.
          2    1    1    2  501    0  0.13974588811E+03 -0.19160871056E+03  0.53777116559E+03  0.58774198229E+03  0.00000000000E+00 0.  1.
          4    1    3    3  502    0 -0.50696927857E+03 -0.33200362464E+03  0.31701245531E+03  0.68391604237E+03  0.00000000000E+00 0.  1.
</event>
<event>
 7    1  0.4894942E-006  0.1035626E+04  0.7818608E-02  0.9123243E-01
          4   -1    0    0  501    0 -0.00000000000E+00  0.00000000000E+00  0.98816123093E+03  0.98816123093E+03  0.00000000000E+00 0.  1.
          2   -1    0    0  502    0  0.00000000000E+00 -0.00000000000E+00 -0.12015081361E+04  0.12015081361E+04  0.00000000000E+00 0.  1.
    9000010    2    1    2  502    0 -0.19507896127E+03  0.27546520866E+03  0.41267016581E+03  0.11033802411E+04  0.96603023159E+03 0.  0.
        -13    1    3    3    0    0  0.15629605297E+03  0.55284071775E+03  0.20614004478E+03  0.61037287341E+03  0.10566000000E+00 0.  1.
         13    1    1    2    0    0  0.18966188292E+03  0.10323632796E+03  0.12188071307E+03  0.24796025614E+03  0.10566000000E+00 0. -1.
          2    1    1    2  501    0  0.54170783572E+01 -0.37870153661E+03 -0.74789778408E+03  0.83832886984E+03  0.00000000000E+00 0.  1.
          4    1    3    3  502    0 -0.35137501424E+03 -0.27737550909E+03  0.20653012103E+03  0.49300736766E+03  0.00000000000E+00 0.  1.
</event>
<event>
 7    1  0.4894942E-006  0.1250949E+04  0.7818608E-02  0.8697519E-01
          2   -1    0    0  501    0  0.00000000000E+00  0.00000000000E+00  0.15532577618E+04  0.15532577618E+04  0.00000000000E+00 0. -1.
         -4   -1    0    0    0  501 -0.00000000000E+00 -0.00000000000E+00 -0.26882917745E+04  0.26882917745E+04  0.00000000000E+00 0. -1.
   -9000010    2    1    2    0  502  0.38795114415E+03  0.72994091830E+03 -0.12104091451E+04  0.17909306554E+04  0.10290881787E+04 0.  0.
        -13    1    1    2    0    0 -0.70405206888E+02 -0.68246874922E+03 -0.10644685000E+04  0.12664176584E+04  0.10566000000E+00 0.  1.
         13    1    3    3    0    0  0.21161208900E+03 -0.17226060002E+03 -0.23360768475E+01  0.27287150630E+03  0.10566000000E+00 0. -1.
          2    1    1    2  502    0 -0.31754593726E+03 -0.47472169081E+02  0.11398436324E+04  0.11842012225E+04  0.00000000000E+00 0. -1.
         -4    1    3    3    0  502  0.17633905515E+03  0.90220151832E+03 -0.12080730682E+04  0.15180591491E+04  0.00000000000E+00 0. -1.
</event>
<event>
 7    1  0.4894942E-006  0.1006857E+04  0.7818608E-02  0.9244859E-01
          2   -1    0    0  502    0  0.00000000000E+00  0.00000000000E+00  0.22222008259E+04  0.22222008259E+04  0.00000000000E+00 0.  1.
          4   -1    0    0  501    0 -0.00000000000E+00 -0.00000000000E+00 -0.50852252462E+03  0.50852252462E+03  0.00000000000E+00 0.  1.
    9000010    2    1    2  502    0  0.83930460342E+02 -0.14806037022E+03  0.23402327340E+02  0.10108536599E+04  0.99614821057E+03 0.  0.
        -13    1    3    3    0    0 -0.13131453214E+03  0.23259035905E+03 -0.34691507591E+03  0.43782629264E+03  0.10566000000E+00 0.  1.
         13    1    1    2    0    0 -0.10280480902E+03  0.87760013396E+02  0.31047529549E+03  0.33862304851E+03  0.10566000000E+00 0. -1.
          2    1    1    2  501    0  0.18874348677E+02  0.60300356828E+02  0.13798006785E+04  0.13812466421E+04  0.00000000000E+00 0.  1.
          4    1    3    3  502    0  0.21524499248E+03 -0.38065072927E+03  0.37031740325E+03  0.57302736726E+03  0.00000000000E+00 0.  1.
</event>
<event>
 6    1  0.4894942E-006  0.4760003E+03  0.7818608E-02  0.9781253E-01
          2   -1    0    0  501    0  0.00000000000E+00  0.00000000000E+00  0.31873848436E+04  0.31873848436E+04  0.00000000000E+00 0.  1.
         -4   -1    0    0    0  501 -0.00000000000E+00 -0.00000000000E+00 -0.77131918944E+02  0.77131918944E+02  0.00000000000E+00 0. -1.
        -13    1    1    2    0    0  0.20314100892E+03 -0.24034163953E+02  0.29144281510E+03  0.35606577508E+03  0.10566000000E+00 0.  1.
         13    1    1    2    0    0 -0.90310720191E+02 -0.58112580516E+02  0.29095616091E+02  0.11126393951E+03  0.10566000000E+00 0. -1.
          2    1    1    2  502    0 -0.32321146266E+02 -0.16853561711E+02  0.16413573356E+04  0.16417620419E+04  0.00000000000E+00 0.  1.
         -4    1    1    2    0  502 -0.80509142466E+02  0.99000306180E+02  0.11483571579E+04  0.11554250061E+04  0.00000000000E+00 0. -1.
</event>
<event>
 7    1  0.4894942E-006  0.1696944E+04  0.7818608E-02  0.8338273E-01
          2   -1    0    0  502    0  0.00000000000E+00  0.00000000000E+00  0.31826315151E+04  0.31826315151E+04  0.00000000000E+00 0. -1.
          4   -1    0    0  501    0 -0.00000000000E+00 -0.00000000000E+00 -0.14330155504E+04  0.14330155504E+04  0.00000000000E+00 0.  1.
    9000010    2    1    2  502    0  0.13272262127E+04 -0.53722483613E+03  0.11700029317E+04  0.20517688895E+04  0.88921806757E+03 0.  0.
        -13    1    3    3    0    0  0.38498679491E+03 -0.61725886978E+03  0.63286751468E+03  0.96423267259E+03  0.10566000000E+00 0.  1.
         13    1    1    2    0    0 -0.12860782720E+04  0.67286662749E+03 -0.45383032620E+03  0.15207592828E+04  0.10566000000E+00 0. -1.
          2    1    1    2  501    0 -0.41147940683E+02 -0.13564179136E+03  0.10334433592E+04  0.10431188932E+04  0.00000000000E+00 0. -1.
          4    1    3    3  502    0  0.94223941780E+03  0.80034033652E+02  0.53713541698E+03  0.10875362170E+04  0.00000000000E+00 0.  1.
</event>
<event>
 7    1  0.4894942E-006  0.1210151E+04  0.7818608E-02  0.8884900E-01
          2   -1    0    0  501    0  0.00000000000E+00  0.00000000000E+00  0.10300895303E+04  0.10300895303E+04  0.00000000000E+00 0. -1.
         -4   -1    0    0    0  501 -0.00000000000E+00 -0.00000000000E+00 -0.14989674911E+04  0.14989674911E+04  0.00000000000E+00 0. -1.
   -9000010    2    1    2    0  502  0.80141148993E+02  0.67413239095E+03 -0.83981112867E+02  0.11939189527E+04  0.97852570434E+03 0.  0.
        -13    1    1    2    0    0 -0.35315157076E+03  0.34371945228E+02 -0.45000893932E+03  0.57306676678E+03  0.10566000000E+00 0.  1.
         13    1    3    3    0    0  0.33903180589E+03 -0.27267653921E+02  0.19951048161E+03  0.39432288012E+03  0.10566000000E+00 0. -1.
          2    1    1    2  502    0  0.27301042177E+03 -0.70850433618E+03  0.65112091351E+02  0.76207130192E+03  0.00000000000E+00 0. -1.
         -4    1    3    3    0  502 -0.25889065690E+03  0.70140004487E+03 -0.28349159447E+03  0.79959607260E+03  0.00000000000E+00 0. -1.
</event>
<event>
 7    1  0.4894942E-006  0.1087232E+04  0.7818608E-02  0.8973379E-01
          2   -1    0    0  501    0  0.00000000000E+00  0.00000000000E+00  0.13637172160E+04  0.13637172160E+04  0.00000000000E+00 0.  1.
         -4   -1    0    0    0  501 -0.00000000000E+00 -0.00000000000E+00 -0.13628864482E+04  0.13628864482E+04  0.00000000000E+00 0. -1.
   -9000010    2    1    2    0  502  0.32592250621E+03 -0.31456316182E+03 -0.68972157949E+03  0.12779109119E+04  0.97578941312E+03 0.  0.
        -13    1    1    2    0    0  0.16185862905E+03  0.29905545086E+03 -0.22739853460E+03  0.40907515591E+03  0.10566000000E+00 0.  1.
         13    1    3    3    0    0  0.12610522976E+03  0.30344822894E+02  0.23640302391E+03  0.26964743301E+03  0.10566000000E+00 0. -1.
          2    1    1    2  502    0 -0.48778113525E+03  0.15507710957E+02  0.91795088190E+03  0.10396175963E+04  0.00000000000E+00 0.  1.
         -4    1    3    3    0  502  0.19981727645E+03 -0.34490798471E+03 -0.92612460340E+03  0.10082634789E+04  0.00000000000E+00 0. -1.
</event>
<event>
 7    1  0.4894942E-006  0.1034761E+04  0.7818608E-02  0.9052490E-01
         -4   -1    0    0    0  501 -0.00000000000E+00  0.00000000000E+00  0.35971255521E+03  0.35971255521E+03  0.00000000000E+00 0. -1.
          4   -1    0    0  501    0  0.00000000000E+00 -0.00000000000E+00 -0.25339005556E+04  0.25339005556E+04  0.00000000000E+00 0.  1.
   -9000010    2    1    2    0  502  0.27864545431E+03  0.30903746330E+02 -0.66781958219E+03  0.12300960272E+04  0.99426098734E+03 0.  0.
        -13    1    1    2    0    0 -0.28866101321E+03  0.22909536172E+02 -0.19072682787E+03  0.34673730897E+03  0.10566000000E+00 0.  1.
         13    1    3    3    0    0  0.59663951304E+03 -0.20520866647E+03 -0.34481739136E+03  0.71901901912E+03  0.10566000000E+00 0. -1.
          4    1    1    2  502    0  0.10015558900E+02 -0.53813282503E+02 -0.13156415903E+04  0.13167797746E+04  0.00000000000E+00 0.  1.
         -4    1    3    3    0  502 -0.31799405873E+03  0.23611241280E+03 -0.32300219084E+03  0.51107700804E+03  0.00000000000E+00 0. -1.
</event>
<event>
 7    1  0.4894942E-006  0.1064664E+04  0.7818608E-02  0.8900123E-01
          2   -1    0    0  501    0  0.00000000000E+00  0.00000000000E+00  0.64738992176E+03  0.64738992176E+03  0.00000000000E+00 0.  1.
         -4   -1    0    0    0  501 -0.00000000000E+00 -0.00000000000E+00 -0.32048623808E+04  0.32048623808E+04  0.00000000000E+00 0. -1.
   -9000010    2    1    2    0  502 -0.27182329502E+03 -0.44882952050E+03 -0.26614497304E+04  0.28727783794E+04  0.94562418925E+03 0.  0.
        -13    1    1    2    0    0  0.30951020066E+03  0.33238142974E+03 -0.30861794561E+03  0.54910748188E+03  0.10566000000E+00 0.  1.
         13    1    3    3    0    0 -0.46525131036E+03 -0.13802219624E+03 -0.23265343923E+04  0.23766091808E+04  0.10566000000E+00 0. -1.
          2    1    1    2  502    0 -0.37686905636E+02  0.11644809077E+03  0.41259521700E+03  0.43036644129E+03  0.00000000000E+00 0.  1.
         -4    1    3    3    0  502  0.19342801534E+03 -0.31080732427E+03 -0.33491533812E+03  0.49616919860E+03  0.00000000000E+00 0. -1.
</event>
<event>
 7    1  0.4894942E-006  0.1217338E+04  0.7818608E-02  0.8714697E-01
          2   -1    0    0  502    0  0.00000000000E+00  0.00000000000E+00  0.29515284329E+04  0.29515284329E+04  0.00000000000E+00 0. -1.
          4   -1    0    0  501    0 -0.00000000000E+00 -0.00000000000E+00 -0.16306190860E+04  0.16306190860E+04  0.00000000000E+00 0.  1.
    9000010    2    1    2  502    0 -0.64329459731E+03 -0.39498847985E+03  0.27063687710E+03  0.12694756732E+04  0.98411398092E+03 0.  0.
        -13    1    3    3    0    0 -0.13241379181E+03  0.31969582215E+03  0.16903909974E+03  0.38511434583E+03  0.10566000000E+00 0.  1.
         13    1    1    2    0    0  0.58714334609E+03  0.40113351167E+03 -0.10190263756E+04  0.12426021763E+04  0.10566000000E+00 0. -1.
          2    1    1    2  501    0  0.56151251214E+02 -0.61450318167E+01  0.20692988454E+04  0.20700696694E+04  0.00000000000E+00 0. -1.
          4    1    3    3  502    0 -0.51088080550E+03 -0.71468430200E+03  0.10159777736E+03  0.88436132736E+03  0.00000000000E+00 0.  1.
</event>
<event>
 7    1  0.4894942E-006  0.1020143E+04  0.7818608E-02  0.9079926E-01
          2   -1    0    0  502    0  0.00000000000E+00  0.00000000000E+00  0.90342003030E+03  0.90342003030E+03  0.00000000000E+00 0.  1.
          4   -1    0    0  501    0 -0.00000000000E+00 -0.00000000000E+00 -0.20199473020E+04  0.20199473020E+04  0.00000000000E+00 0.  1.
    9000010    2    1    2  502    0  0.25600992584E+03 -0.10731271487E+03 -0.14338421300E+04  0.17611758976E+04  0.98426631960E+03 0.  0.
        -13    1    3    3    0    0  0.60591875031E+03  0.61881232885E+01 -0.11373905368E+04  0.12887331257E+04  0.10566000000E+00 0.  1.
         13    1    1    2    0    0 -0.34837689405E+02  0.30372813859E+03 -0.33039248989E+03  0.45013737382E+03  0.10566000000E+00 0. -1.
          2    1    1    2  501    0 -0.22117223644E+03 -0.19641542372E+03  0.64770734809E+03  0.71205406088E+03  0.00000000000E+00 0.  1.
          4    1    3    3  502    0 -0.34990882447E+03 -0.11350083816E+03 -0.29645159318E+03  0.47244277199E+03  0.00000000000E+00 0.  1.
</event>
<event>
 7    1  0.4894942E-006  0.1043011E+04  0.7818608E-02  0.9085477E-01
          2   -1    0    0  501    0  0.00000000000E+00  0.00000000000E+00  0.11435270731E+04  0.11435270731E+04  0.00000000000E+00 0.  1.
         -4   -1    0    0    0  501 -0.00000000000E+00 -0.00000000000E+00 -0.11240818403E+04  0.11240818403E+04  0.00000000000E+00 0. -1.
   -9000010    2    1    2    0  502  0.15504424789E+03 -0.18872653056E+03 -0.77878094805E+03  0.13014560386E+04  0.10137216744E+04 0.  0.
        -13    1    1    2    0    0 -0.14850304608E+03  0.19654983582E+03  0.96842489045E+02  0.26469505380E+03  0.10566000000E+00 0.  1.
         13    1    3    3    0    0 -0.35265855094E+03  0.46501045623E+02 -0.62833502250E+03  0.72203553407E+03  0.10566000000E+00 0. -1.
          2    1    1    2  502    0 -0.65412018056E+01 -0.78233052615E+01  0.70138369185E+03  0.70145782099E+03  0.00000000000E+00 0.  1.
         -4    1    3    3    0  502  0.50770279883E+03 -0.23522757618E+03 -0.15044592555E+03  0.57942050452E+03  0.00000000000E+00 0. -1.
</event>
<event>
 7    1  0.4894942E-006  0.1012206E+04  0.7818608E-02  0.9255770E-01
          2   -1    0    0  502    0  0.00000000000E+00  0.00000000000E+00  0.12071362335E+04  0.12071362335E+04  0.00000000000E+00 0. -1.
          4   -1    0    0  501    0 -0.00000000000E+00 -0.00000000000E+00 -0.58608343400E+03  0.58608343400E+03  0.00000000000E+00 0.  1.
    9000010    2    1    2  502    0 -0.15183060706E+03  0.42145905165E+02  0.32088416222E+03  0.10645404177E+04  0.10027217185E+04 0.  0.
        -13    1    3    3    0    0 -0.34295101257E+03  0.30020923379E+03  0.51624292091E+03  0.68865647868E+03  0.10566000000E+00 0.  1.
         13    1    1    2    0    0  0.12063758193E+03  0.69291411716E+02 -0.18411240003E+03  0.23076419332E+03  0.10566000000E+00 0. -1.
          2    1    1    2  501    0  0.31193025130E+02 -0.11143731688E+03  0.48428103735E+03  0.49791505656E+03  0.00000000000E+00 0. -1.
          4    1    3    3  502    0  0.19112040551E+03 -0.25806332862E+03 -0.19535875870E+03  0.37588393898E+03  0.00000000000E+00 0.  1.
</event>
<event>
 7    1  0.4894942E-006  0.1005870E+04  0.7818608E-02  0.9770095E-01
          2   -1    0    0  502    0  0.00000000000E+00  0.00000000000E+00  0.14835351511E+04  0.14835351511E+04  0.00000000000E+00 0.  1.
          4   -1    0    0  501    0 -0.00000000000E+00 -0.00000000000E+00 -0.41047674764E+03  0.41047674764E+03  0.00000000000E+00 0.  1.
    9000010    2    1    2  502    0 -0.57117893494E+00 -0.21934059669E+02  0.33177240033E+03  0.10585000114E+04  0.10049218473E+04 0.  0.
        -13    1    3    3    0    0 -0.45080481043E+03  0.12767083711E+03 -0.18293241163E+02  0.46889175040E+03  0.10566000000E+00 0.  1.
         13    1    1    2    0    0  0.19230209739E+01 -0.21749018893E+02 -0.43942529555E+02  0.49068063954E+02  0.10566000000E+00 0. -1.
          2    1    1    2  501    0 -0.13518420390E+01  0.43683078562E+02  0.78522853266E+03  0.78644382338E+03  0.00000000000E+00 0.  1.
          4    1    3    3  502    0  0.45023363149E+03 -0.14960489678E+03  0.35006564149E+03  0.58960826098E+03  0.00000000000E+00 0.  1.
</event>
<event>
 7    1  0.4894942E-006  0.1012037E+04  0.7818608E-02  0.9191884E-01
          2   -1    0    0  501    0  0.00000000000E+00  0.00000000000E+00  0.17846006004E+04  0.17846006004E+04  0.00000000000E+00 0. -1.
         -4   -1    0    0    0  501 -0.00000000000E+00 -0.00000000000E+00 -0.98533637152E+03  0.98533637152E+03  0.00000000000E+00 0. -1.
   -9000010    2    1    2    0  502 -0.21378509416E+03 -0.87162504040E+02 -0.56199544062E+03  0.11670716876E+04  0.99645174495E+03 0.  0.
        -13    1    1    2    0    0  0.11590196965E+03  0.12366661615E+03 -0.58474315411E+02  0.17929293138E+03  0.10566000000E+00 0.  1.
         13    1    3    3    0    0 -0.50561011001E+03 -0.28762606278E+03 -0.10847958280E+03  0.59172473870E+03  0.10566000000E+00 0. -1.
          2    1    1    2  502    0  0.97883124514E+02 -0.36504112105E+02  0.14197339849E+04  0.14235723530E+04  0.00000000000E+00 0. -1.
         -4    1    3    3    0  502  0.29182501585E+03  0.20046355874E+03 -0.45351585782E+03  0.57534694885E+03  0.00000000000E+00 0. -1.
</event>
<event>
 7    1  0.4894942E-006  0.1025760E+04  0.7818608E-02  0.9084826E-01
          2   -1    0    0  501    0  0.00000000000E+00  0.00000000000E+00  0.93206341332E+03  0.93206341332E+03  0.00000000000E+00 0. -1.
         -4   -1    0    0    0  501 -0.00000000000E+00 -0.00000000000E+00 -0.15896913821E+04  0.15896913821E+04  0.00000000000E+00 0. -1.
   -9000010    2    1    2    0  502 -0.23329628271E+03 -0.75159777574E+02  0.60222522636E+02  0.10241891074E+04  0.99260285497E+03 0.  0.
        -13    1    1    2    0    0  0.25250559054E+03  0.58089590940E+02 -0.10921100104E+04  0.11224249461E+04  0.10566000000E+00 0.  1.
         13    1    3    3    0    0 -0.21960342708E+03  0.38666449088E+03  0.26626908496E+03  0.51829946022E+03  0.10566000000E+00 0. -1.
          2    1    1    2  502    0 -0.19209307830E+02  0.17070186634E+02  0.37425951891E+03  0.37514074195E+03  0.00000000000E+00 0. -1.
         -4    1    3    3    0  502 -0.13692855629E+02 -0.46182426845E+03 -0.20604656233E+03  0.50588964713E+03  0.00000000000E+00 0. -1.
</event>
<event>
 7    1  0.4894942E-006  0.1061652E+04  0.7818608E-02  0.8956237E-01
         -2   -1    0    0    0  501  0.00000000000E+00  0.00000000000E+00  0.46789863366E+03  0.46789863366E+03  0.00000000000E+00 0. -1.
         -4   -1    0    0    0  502 -0.00000000000E+00 -0.00000000000E+00 -0.13775285954E+04  0.13775285954E+04  0.00000000000E+00 0. -1.
   -9000010    2    1    2    0  501  0.37370306741E+03 -0.77523002600E+02 -0.65831340445E+03  0.12460877728E+04  0.98675954545E+03 0.  0.
        -13    1    1    2    0    0 -0.37924687906E+03  0.11087968610E+03 -0.32929074320E+03  0.51434901068E+03  0.10566000000E+00 0.  1.
         13    1    3    3    0    0  0.16077654350E+03  0.11046597236E+03  0.23691000193E+03  0.30688464961E+03  0.10566000000E+00 0. -1.
         -2    1    1    2    0  502  0.55438116456E+01 -0.33356683504E+02  0.77974185872E+02  0.84990445606E+02  0.00000000000E+00 0. -1.
         -4    1    3    3    0  501  0.21292652391E+03 -0.18798897496E+03 -0.89522340638E+03  0.93920312320E+03  0.00000000000E+00 0. -1.
</event>
<event>
 7    1  0.4894942E-006  0.1048762E+04  0.7818608E-02  0.9118079E-01
          2   -1    0    0  501    0  0.00000000000E+00  0.00000000000E+00  0.56356676337E+03  0.56356676337E+03  0.00000000000E+00 0. -1.
         -4   -1    0    0    0  501 -0.00000000000E+00 -0.00000000000E+00 -0.21809379278E+04  0.21809379278E+04  0.00000000000E+00 0. -1.
   -9000010    2    1    2    0  502 -0.27859554733E+03 -0.11830521163E+03 -0.17484065302E+04  0.20502218459E+04  0.10270699199E+04 0.  0.
        -13    1    1    2    0    0  0.19548646841E+03 -0.58214148024E+01 -0.23098148825E+03  0.30265707869E+03  0.10566000000E+00 0.  1.
         13    1    3    3    0    0 -0.65698640052E+03  0.17526212148E+01 -0.90784778807E+03  0.11206345611E+04  0.10566000000E+00 0. -1.
          2    1    1    2  502    0  0.83109078923E+02  0.12412662643E+03  0.36201685407E+03  0.39162576654E+03  0.00000000000E+00 0. -1.
         -4    1    3    3    0  502  0.37839085319E+03 -0.12005783284E+03 -0.84055874213E+03  0.92958728476E+03  0.00000000000E+00 0. -1.
</event>
<event>
 7    1  0.4894942E-006  0.1002588E+04  0.7818608E-02  0.9325152E-01
         -4   -1    0    0    0  501  0.00000000000E+00  0.00000000000E+00  0.15011079707E+04  0.15011079707E+04  0.00000000000E+00 0.  1.
         -4   -1    0    0    0  502 -0.00000000000E+00 -0.00000000000E+00 -0.60376347792E+03  0.60376347792E+03  0.00000000000E+00 0. -1.
   -9000010    2    1    2    0  501 -0.12428957496E+03  0.46202544825E+03 -0.27926131386E+02  0.10045526239E+04  0.88285372069E+03 0.  0.
        -13    1    1    2    0    0 -0.10114953468E+03 -0.41428622674E+02  0.10636632438E+03  0.15251677045E+03  0.10566000000E+00 0.  1.
         13    1    3    3    0    0  0.28188353788E+02 -0.11592765887E+03 -0.31837349722E+03  0.33999338270E+03  0.10566000000E+00 0. -1.
         -4    1    3    3    0  501 -0.15247792875E+03  0.57795310712E+03  0.29044736584E+03  0.66455924123E+03  0.00000000000E+00 0.  1.
         -4    1    1    2    0  502  0.22543910964E+03 -0.42059682557E+03  0.81890429978E+03  0.94780205425E+03  0.00000000000E+00 0. -1.
</event>
<event>
 7    1  0.4894942E-006  0.9960925E+03  0.7818608E-02  0.9172719E-01
         -4   -1    0    0    0  502 -0.00000000000E+00  0.00000000000E+00  0.20808599908E+04  0.20808599908E+04  0.00000000000E+00 0. -1.
         -2   -1    0    0    0  501  0.00000000000E+00 -0.00000000000E+00 -0.50098490791E+03  0.50098490791E+03  0.00000000000E+00 0. -1.
   -9000010    2    1    2    0  501 -0.37818020513E+02 -0.89936411109E+02  0.70063107358E+03  0.12052534352E+04  0.97582435969E+03 0.  0.
        -13    1    1    2    0    0  0.13883554748E+03  0.14936030964E+03  0.11042344002E+04  0.11229057989E+04  0.10566000000E+00 0.  1.
         13    1    3    3    0    0 -0.24749411099E+03  0.11769588320E+03 -0.14469260445E+03  0.30990581931E+03  0.10566000000E+00 0. -1.
         -2    1    1    2    0  502 -0.10101752697E+03 -0.59423898527E+02 -0.22499039090E+03  0.25368566469E+03  0.00000000000E+00 0. -1.
         -4    1    3    3    0  501  0.20967609048E+03 -0.20763229431E+03  0.84532367803E+03  0.89534761584E+03  0.00000000000E+00 0. -1.
</event>
<event>
 7    1  0.4894942E-006  0.1053854E+04  0.7818608E-02  0.9194520E-01
          2   -1    0    0  501    0  0.00000000000E+00  0.00000000000E+00  0.63115666638E+03  0.63115666638E+03  0.00000000000E+00 0. -1.
         -4   -1    0    0    0  501 -0.00000000000E+00 -0.00000000000E+00 -0.10542602884E+04  0.10542602884E+04  0.00000000000E+00 0. -1.
   -9000010    2    1    2    0  502  0.25527680042E+03  0.66962408203E+01 -0.53931048033E+03  0.11630632429E+04  0.99832320834E+03 0.  0.
        -13    1    1    2    0    0  0.67166531571E+02  0.13979629846E+03  0.34025538301E+02  0.15878317432E+03  0.10566000000E+00 0.  1.
         13    1    3    3    0    0 -0.30003644971E+03 -0.27529484918E+03 -0.23024403021E+03  0.46778355011E+03  0.10566000000E+00 0. -1.
          2    1    1    2  502    0 -0.32244333199E+03 -0.14649253928E+03  0.82181320027E+02  0.36357053755E+03  0.00000000000E+00 0. -1.
         -4    1    3    3    0  502  0.55531325013E+03  0.28199109000E+03 -0.30906645012E+03  0.69527969279E+03  0.00000000000E+00 0. -1.
</event>
<event>
 7    1  0.4894942E-006  0.1283873E+04  0.7818608E-02  0.8652785E-01
          2   -1    0    0  502    0  0.00000000000E+00  0.00000000000E+00  0.70772096204E+03  0.70772096204E+03  0.00000000000E+00 0. -1.
          4   -1    0    0  501    0 -0.00000000000E+00 -0.00000000000E+00 -0.25499087846E+04  0.25499087846E+04  0.00000000000E+00 0.  1.
    9000010    2    1    2  502    0 -0.52361807016E+03  0.61532175964E+03 -0.88227675019E+03  0.15621944268E+04  0.10046105772E+04 0.  0.
        -13    1    3    3    0    0  0.24172323071E+03  0.19116052753E+03  0.15459448024E+02  0.30856356436E+03  0.10566000000E+00 0.  1.
         13    1    1    2    0    0  0.51202344088E+03 -0.61003627388E+03 -0.12080544201E+04  0.14469650142E+04  0.10566000000E+00 0. -1.
          2    1    1    2  501    0  0.11594629279E+02 -0.52854857532E+01  0.24814334767E+03  0.24847030563E+03  0.00000000000E+00 0. -1.
          4    1    3    3  502    0 -0.76534130087E+03  0.42416123210E+03 -0.89773619821E+03  0.12536308624E+04  0.00000000000E+00 0.  1.
</event>
<event>
 7    1  0.4894942E-006  0.1116797E+04  0.7818608E-02  0.8900084E-01
          4   -1    0    0  501    0 -0.00000000000E+00  0.00000000000E+00  0.13413304141E+04  0.13413304141E+04  0.00000000000E+00 0.  1.
          2   -1    0    0  502    0  0.00000000000E+00 -0.00000000000E+00 -0.23504864307E+04  0.23504864307E+04  0.00000000000E+00 0.  1.
    9000010    2    1    2  502    0 -0.78181340974E+02 -0.49361930500E+03  0.69706655223E+02  0.11498605431E+04  0.10332221012E+04 0.  0.
        -13    1    3    3    0    0  0.28627736351E+03 -0.41939378960E+03  0.40467823669E+03  0.64931530556E+03  0.10566000000E+00 0.  1.
         13    1    1    2    0    0  0.12642924349E+02  0.41576831818E+03  0.67081940330E+03  0.78931731322E+03  0.10566000000E+00 0. -1.
          2    1    1    2  501    0  0.65538416625E+02  0.77850986822E+02 -0.17496820751E+04  0.17526389885E+04  0.00000000000E+00 0.  1.
          4    1    3    3  502    0 -0.36445870449E+03 -0.74225515397E+02 -0.33497158147E+03  0.50054523752E+03  0.00000000000E+00 0.  1.
</event>
<event>
 7    1  0.4894942E-006  0.1324970E+04  0.7818608E-02  0.8609981E-01
          2   -1    0    0  501    0  0.00000000000E+00  0.00000000000E+00  0.63078527149E+03  0.63078527149E+03  0.00000000000E+00 0. -1.
         -4   -1    0    0    0  501 -0.00000000000E+00 -0.00000000000E+00 -0.28520131640E+04  0.28520131640E+04  0.00000000000E+00 0. -1.
   -9000010    2    1    2    0  502  0.58374410179E+02  0.85764906218E+03 -0.12511930225E+04  0.18135493795E+04  0.99222370805E+03 0.  0.
        -13    1    1    2    0    0  0.27078704303E+03 -0.87209079352E+03 -0.98015403731E+03  0.13396155877E+04  0.10566000000E+00 0.  1.
         13    1    3    3    0    0  0.17638535079E+03  0.73410813411E+03 -0.24618706107E+03  0.79412506871E+03  0.10566000000E+00 0. -1.
          2    1    1    2  502    0 -0.32916145321E+03  0.14441731347E+02  0.10119167239E+02  0.32963346831E+03  0.00000000000E+00 0. -1.
         -4    1    3    3    0  502 -0.11801094061E+03  0.12354092806E+03 -0.10050059614E+04  0.10194243108E+04  0.00000000000E+00 0. -1.
</event>
<event>
 7    1  0.4894942E-006  0.1010913E+04  0.7818608E-02  0.9230279E-01
          4   -1    0    0  501    0 -0.00000000000E+00  0.00000000000E+00  0.46557475491E+03  0.46557475491E+03  0.00000000000E+00 0.  1.
          2   -1    0    0  502    0  0.00000000000E+00 -0.00000000000E+00 -0.12765165824E+04  0.12765165824E+04  0.00000000000E+00 0.  1.
    9000010    2    1    2  502    0  0.51402994047E+02  0.89198098869E+01 -0.42594570897E+03  0.10879158084E+04  0.99970457050E+03 0.  0.
        -13    1    3    3    0    0 -0.68188347208E+02 -0.48471268787E+03 -0.16255873536E+03  0.51577261858E+03  0.10566000000E+00 0.  1.
         13    1    1    2    0    0 -0.44528244055E+02  0.14641560008E+03  0.73688236871E+02  0.16985364253E+03  0.10566000000E+00 0. -1.
          2    1    1    2  501    0 -0.68747499923E+01 -0.15533540997E+03 -0.45868435541E+03  0.48432188643E+03  0.00000000000E+00 0.  1.
          4    1    3    3  502    0  0.11959134125E+03  0.49363249775E+03 -0.26338697361E+03  0.57214318978E+03  0.00000000000E+00 0.  1.
</event>
<event>
 7    1  0.4894942E-006  0.1012294E+04  0.7818608E-02  0.9233391E-01
         -4   -1    0    0    0  501 -0.00000000000E+00  0.00000000000E+00  0.10822520585E+04  0.10822520585E+04  0.00000000000E+00 0. -1.
          5   -1    0    0  501    0  0.00000000000E+00 -0.00000000000E+00 -0.88429698261E+03  0.88429698261E+03  0.00000000000E+00 0. -1.
   -9000010    2    1    2    0  502 -0.24344636678E+02 -0.14188262387E+03  0.72714515381E+03  0.12456016707E+04  0.10010295235E+04 0.  0.
        -13    1    1    2    0    0  0.12150048513E+02  0.15177358978E+03  0.35252124315E+02  0.15628681859E+03  0.10566000000E+00 0.  1.
         13    1    3    3    0    0 -0.12465115456E+03 -0.34475537018E+03  0.89280134476E+03  0.96513648152E+03  0.10566000000E+00 0. -1.
          5    1    1    2  502    0  0.12194588165E+02 -0.98909659034E+01 -0.56444220222E+03  0.56466055187E+03  0.00000000000E+00 0. -1.
         -4    1    3    3    0  502  0.10030651788E+03  0.20287274630E+03 -0.16565619095E+03  0.28046518914E+03  0.00000000000E+00 0. -1.
</event>
<event>
 7    1  0.4894942E-006  0.1089268E+04  0.7818608E-02  0.8928242E-01
          4   -1    0    0  501    0 -0.00000000000E+00  0.00000000000E+00  0.20054872930E+04  0.20054872930E+04  0.00000000000E+00 0.  1.
          2   -1    0    0  502    0  0.00000000000E+00 -0.00000000000E+00 -0.61150501771E+03  0.61150501771E+03  0.00000000000E+00 0.  1.
    9000010    2    1    2  502    0  0.16957827245E+03 -0.31201155694E+03  0.19955999342E+03  0.11023346845E+04  0.10243093104E+04 0.  0.
        -13    1    3    3    0    0 -0.72191292288E+02 -0.59498018689E+03  0.35767079654E+03  0.69795516714E+03  0.10566000000E+00 0.  1.
         13    1    1    2    0    0 -0.39592745051E+03 -0.93168472972E+02  0.83092958313E+03  0.92513939150E+03  0.10566000000E+00 0. -1.
          2    1    1    2  501    0  0.22634917806E+03  0.40518002991E+03  0.36349269870E+03  0.58951823471E+03  0.00000000000E+00 0.  1.
          4    1    3    3  502    0  0.24176956474E+03  0.28296862994E+03 -0.15811080312E+03  0.40437951732E+03  0.00000000000E+00 0.  1.
</event>
<event>
 7    1  0.4894942E-006  0.1020727E+04  0.7818608E-02  0.9203253E-01
         -4   -1    0    0    0  501 -0.00000000000E+00  0.00000000000E+00  0.17918659953E+04  0.17918659953E+04  0.00000000000E+00 0. -1.
          1   -1    0    0  501    0  0.00000000000E+00 -0.00000000000E+00 -0.79345207987E+03  0.79345207987E+03  0.00000000000E+00 0. -1.
   -9000010    2    1    2    0  502 -0.19816866827E+03 -0.20763995970E+02  0.13500763181E+04  0.16961905950E+04  0.10073006031E+04 0.  0.
        -13    1    1    2    0    0  0.15619034112E+03 -0.42111196099E+02  0.24177058935E+03  0.29089827179E+03  0.10566000000E+00 0.  1.
         13    1    3    3    0    0  0.44473122899E+02 -0.35624633965E+02 -0.15835555554E+03  0.16829577042E+03  0.10566000000E+00 0. -1.
          1    1    1    2  502    0  0.41978327157E+02  0.62875192069E+02 -0.59343299205E+03  0.59822920840E+03  0.00000000000E+00 0. -1.
         -4    1    3    3    0  502 -0.24264179117E+03  0.14860637995E+02  0.15084318737E+04  0.15278948246E+04  0.00000000000E+00 0. -1.
</event>
<event>
 7    1  0.4894942E-006  0.1003235E+04  0.7818608E-02  0.9435355E-01
          2   -1    0    0  502    0  0.00000000000E+00  0.00000000000E+00  0.48606677385E+03  0.48606677385E+03  0.00000000000E+00 0.  1.
          4   -1    0    0  501    0 -0.00000000000E+00 -0.00000000000E+00 -0.10021457349E+04  0.10021457349E+04  0.00000000000E+00 0.  1.
    9000010    2    1    2  502    0  0.45101681311E+02 -0.39939840013E+02 -0.43545725887E+03  0.10929303148E+04  0.10006219547E+04 0.  0.
        -13    1    3    3    0    0  0.38065910911E+03  0.21224046823E+03 -0.50542528467E+03  0.66738452428E+03  0.10566000000E+00 0.  1.
         13    1    1    2    0    0 -0.67718600647E+02  0.26262748222E+02 -0.23123154118E+03  0.24237074414E+03  0.10566000000E+00 0. -1.
          2    1    1    2  501    0  0.22616919336E+02  0.13677091791E+02  0.15060983898E+03  0.15291144979E+03  0.00000000000E+00 0.  1.
          4    1    3    3  502    0 -0.33555742780E+03 -0.25218030825E+03  0.69968025807E+02  0.42554579055E+03  0.00000000000E+00 0.  1.
</event>
<event>
 7    1  0.4894942E-006  0.1103905E+04  0.7818608E-02  0.8884738E-01
          2   -1    0    0  502    0  0.00000000000E+00  0.00000000000E+00  0.17058445117E+04  0.17058445117E+04  0.00000000000E+00 0. -1.
          4   -1    0    0  501    0 -0.00000000000E+00 -0.00000000000E+00 -0.81732710104E+03  0.81732710104E+03  0.00000000000E+00 0.  1.
    9000010    2    1    2  502    0  0.41857784176E+03  0.18229740049E+03 -0.22863004961E+03  0.11227267375E+04  0.99990193306E+03 0.  0.
        -13    1    3    3    0    0  0.67806794099E+03  0.35601384298E+03 -0.60909388411E+02  0.76826554898E+03  0.10566000000E+00 0.  1.
         13    1    1    2    0    0 -0.43435924645E+03 -0.19935887365E+03  0.26209004351E+03  0.54507166276E+03  0.10566000000E+00 0. -1.
          2    1    1    2  501    0  0.15781404689E+02  0.17061473158E+02  0.85505741678E+03  0.85537321246E+03  0.00000000000E+00 0. -1.
          4    1    3    3  502    0 -0.25949009924E+03 -0.17371644249E+03 -0.16772066120E+03  0.35446118855E+03  0.00000000000E+00 0.  1.
</event>
<event>
 7    1  0.4894942E-006  0.1049473E+04  0.7818608E-02  0.9007858E-01
         -4   -1    0    0    0  501 -0.00000000000E+00  0.00000000000E+00  0.17955490053E+04  0.17955490053E+04  0.00000000000E+00 0. -1.
          2   -1    0    0  501    0  0.00000000000E+00 -0.00000000000E+00 -0.71816579568E+03  0.71816579568E+03  0.00000000000E+00 0. -1.
   -9000010    2    1    2    0  502 -0.12465529444E+03 -0.31198854344E+03  0.12649925992E+04  0.16451130181E+04  0.99665178095E+03 0.  0.
        -13    1    1    2    0    0  0.11235630078E+03  0.30584605025E+03  0.26241789631E+03  0.41836456380E+03  0.10566000000E+00 0.  1.
         13    1    3    3    0    0 -0.69015443118E+02 -0.99311620981E+02 -0.16151001491E+03  0.20177072516E+03  0.10566000000E+00 0. -1.
          2    1    1    2  502    0  0.12298993661E+02  0.61424931918E+01 -0.45002728587E+03  0.45023721914E+03  0.00000000000E+00 0. -1.
         -4    1    3    3    0  502 -0.55639851326E+02 -0.21267692246E+03  0.14265026141E+04  0.14433422929E+04  0.00000000000E+00 0. -1.
</event>
<event>
 7    1  0.4894942E-006  0.1314804E+04  0.7818608E-02  0.8950010E-01
         -4   -1    0    0    0  501 -0.00000000000E+00  0.00000000000E+00  0.25167325965E+04  0.25167325965E+04  0.00000000000E+00 0. -1.
          2   -1    0    0  501    0  0.00000000000E+00 -0.00000000000E+00 -0.12075763828E+04  0.12075763828E+04  0.00000000000E+00 0.  1.
   -9000010    2    1    2    0  502  0.15462448038E+03 -0.67129637609E+03  0.14165250387E+04  0.18846133331E+04  0.10347350751E+04 0.  0.
        -13    1    1    2    0    0 -0.14436703813E+03 -0.15459149287E+03  0.67174511930E+03  0.70425981558E+03  0.10566000000E+00 0.  1.
         13    1    3    3    0    0  0.46657996372E+03 -0.57287877958E+03  0.45201618053E+03  0.86614409729E+03  0.10566000000E+00 0. -1.
          2    1    1    2  502    0 -0.10257442254E+02  0.82588786896E+03 -0.77911394433E+03  0.11354358306E+04  0.00000000000E+00 0.  1.
         -4    1    3    3    0  502 -0.31195548334E+03 -0.98417596513E+02  0.96450885817E+03  0.10184692359E+04  0.00000000000E+00 0. -1.
</event>
<event>
 6    1  0.7244752E-006  0.4941332E+03  0.7818608E-02  0.9794476E-01
          2   -1    0    0  502    0  0.00000000000E+00  0.00000000000E+00  0.67680642101E+02  0.67680642101E+02  0.00000000000E+00 0.  1.
          4   -1    0    0  501    0 -0.00000000000E+00 -0.00000000000E+00 -0.19508066591E+04  0.19508066591E+04  0.00000000000E+00 0.  1.
        -13    1    1    2    0    0 -0.27824488150E+03  0.17419351758E+03 -0.11661529583E+04  0.12114769205E+04  0.10566000000E+00 0.  1.
         13    1    1    2    0    0  0.13820673556E+03 -0.89662602084E+02 -0.48533618069E+03  0.51253458754E+03  0.10566000000E+00 0. -1.
          2    1    1    2  501    0  0.22232171092E+02 -0.14957246378E+01 -0.74883316048E+00  0.22295007844E+02  0.00000000000E+00 0.  1.
          4    1    1    2  502    0  0.11780597485E+03 -0.83035190860E+02 -0.23088804484E+03  0.27218078529E+03  0.00000000000E+00 0.  1.
</event>
<event>
 7    1  0.4894942E-006  0.1234826E+04  0.7818608E-02  0.8697142E-01
         -4   -1    0    0    0  502 -0.00000000000E+00  0.00000000000E+00  0.32241019532E+04  0.32241019532E+04  0.00000000000E+00 0. -1.
         -2   -1    0    0    0  501  0.00000000000E+00 -0.00000000000E+00 -0.94110818916E+03  0.94110818916E+03  0.00000000000E+00 0.  1.
   -9000010    2    1    2    0  501 -0.38925120398E+03 -0.62504726242E+03  0.18918751545E+04  0.22577871318E+04  0.98803367974E+03 0.  0.
        -13    1    1    2    0    0  0.38662635543E+03  0.63509328377E+03  0.10289688778E+04  0.12694882356E+04  0.10566000000E+00 0.  1.
         13    1    3    3    0    0 -0.45900136051E+03 -0.33408973915E+03  0.18739417025E+04  0.19580489571E+04  0.10566000000E+00 0. -1.
         -2    1    1    2    0  502  0.26248485510E+01 -0.10046021348E+02 -0.63785026823E+03  0.63793477493E+03  0.00000000000E+00 0.  1.
         -4    1    3    3    0  501  0.69750156532E+02 -0.29095752328E+03  0.17933451984E+02  0.29973817472E+03  0.00000000000E+00 0. -1.
</event>
<event>
 7    1  0.4894942E-006  0.9750861E+03  0.7818608E-02  0.9229413E-01
          2   -1    0    0  501    0  0.00000000000E+00  0.00000000000E+00  0.37601153893E+03  0.37601153893E+03  0.00000000000E+00 0. -1.
         -4   -1    0    0    0  501 -0.00000000000E+00 -0.00000000000E+00 -0.12578479476E+04  0.12578479476E+04  0.00000000000E+00 0. -1.
   -9000010    2    1    2    0  502 -0.46080095482E+02  0.16315528802E+03 -0.32185941246E+03  0.10265735853E+04  0.95995667687E+03 0.  0.
        -13    1    1    2    0    0  0.27231723201E+02 -0.16901891553E+03 -0.56194884384E+03  0.58744827416E+03  0.10566000000E+00 0.  1.
         13    1    3    3    0    0  0.33927821033E+02 -0.38138993091E+03 -0.28046796163E+03  0.47462792280E+03  0.10566000000E+00 0. -1.
          2    1    1    2  502    0  0.18848372280E+02  0.58636275040E+01  0.19718476075E+01  0.19837627079E+02  0.00000000000E+00 0. -1.
         -4    1    3    3    0  502 -0.80007916515E+02  0.54454521893E+03 -0.41391450832E+02  0.55194566251E+03  0.00000000000E+00 0. -1.
</event>
<event>
 7    1  0.4894942E-006  0.1092355E+04  0.7818608E-02  0.8982952E-01
          4   -1    0    0  501    0  0.00000000000E+00  0.00000000000E+00  0.14602602362E+03  0.14602602362E+03  0.00000000000E+00 0.  1.
         -4   -1    0    0    0  501 -0.00000000000E+00 -0.00000000000E+00 -0.37534021304E+04  0.37534021304E+04  0.00000000000E+00 0. -1.
   -9000010    2    1    2    0  502 -0.24460269678E+02  0.32229472114E+03 -0.26771476546E+04  0.28915108162E+04  0.10436680715E+04 0.  0.
        -13    1    1    2    0    0  0.75187385220E+01 -0.32229871280E+03 -0.93604376062E+03  0.99000551749E+03  0.10566000000E+00 0.  1.
         13    1    3    3    0    0 -0.77249908695E+02  0.36693149658E+03 -0.22276396923E+03  0.43615372144E+03  0.10566000000E+00 0. -1.
          4    1    1    2  502    0  0.16941531156E+02  0.39916655470E-02  0.58153084780E+01  0.17911820302E+02  0.00000000000E+00 0.  1.
         -4    1    3    3    0  502  0.52789639017E+02 -0.44636775440E+02 -0.24543836854E+04  0.24553570948E+04  0.00000000000E+00 0. -1.
</event>
<event>
 7    1  0.4894942E-006  0.1193668E+04  0.7818608E-02  0.8744760E-01
          4   -1    0    0  501    0 -0.00000000000E+00  0.00000000000E+00  0.17892611723E+04  0.17892611723E+04  0.00000000000E+00 0.  1.
          2   -1    0    0  502    0  0.00000000000E+00 -0.00000000000E+00 -0.17925222165E+04  0.17925222165E+04  0.00000000000E+00 0.  1.
    9000010    2    1    2  502    0 -0.80151283509E+03  0.26254347308E+03  0.13903046839E+03  0.13074726494E+04  0.98934491346E+03 0.  0.
        -13    1    3    3    0    0 -0.20363448111E+03  0.43997928193E+03 -0.27644767659E+03  0.55809685493E+03  0.10566000000E+00 0.  1.
         13    1    1    2    0    0  0.58226962006E+03  0.35431624324E+03  0.84751432189E+03  0.10875929605E+04  0.10566000000E+00 0. -1.
          2    1    1    2  501    0  0.21924321503E+03 -0.61685971633E+03 -0.98980583441E+03  0.11867177789E+04  0.00000000000E+00 0.  1.
          4    1    3    3  502    0 -0.59787835399E+03 -0.17743580885E+03  0.41547814498E+03  0.74937579450E+03  0.00000000000E+00 0.  1.
</event>
<event>
 7    1  0.4894942E-006  0.1140707E+04  0.7818608E-02  0.8840168E-01
          2   -1    0    0  502    0  0.00000000000E+00  0.00000000000E+00  0.85351307072E+03  0.85351307072E+03  0.00000000000E+00 0. -1.
          4   -1    0    0  501    0 -0.00000000000E+00 -0.00000000000E+00 -0.12279483892E+04  0.12279483892E+04  0.00000000000E+00 0.  1.
    9000010    2    1    2  502    0  0.28291507768E+03 -0.43409770020E+03 -0.29914710625E+03  0.11825549394E+04  0.10200320774E+04 0.  0.
        -13    1    3    3    0    0  0.10371378967E+03  0.16701308762E+03 -0.48913076343E+03  0.52716111057E+03  0.10566000000E+00 0.  1.
         13    1    1    2    0    0 -0.28516789663E+03  0.42088358503E+03 -0.35423750692E+03  0.61963533137E+03  0.10566000000E+00 0. -1.
          2    1    1    2  501    0  0.22528189542E+01  0.13214115177E+02  0.27894929474E+03  0.27927118911E+03  0.00000000000E+00 0. -1.
          4    1    3    3  502    0  0.17920128801E+03 -0.60111078782E+03  0.18998365717E+03  0.65539382882E+03  0.00000000000E+00 0.  1.
</event>
<event>
 7    1  0.4894942E-006  0.1007055E+04  0.7818608E-02  0.9304612E-01
          2   -1    0    0  502    0  0.00000000000E+00  0.00000000000E+00  0.10312886281E+04  0.10312886281E+04  0.00000000000E+00 0.  1.
          4   -1    0    0  501    0 -0.00000000000E+00 -0.00000000000E+00 -0.11450708040E+04  0.11450708040E+04  0.00000000000E+00 0.  1.
    9000010    2    1    2  502    0  0.10609292557E+03  0.23736590203E+02 -0.69091777431E+03  0.12205571945E+04  0.10002866387E+04 0.  0.
        -13    1    3    3    0    0  0.49745784869E+02 -0.35714379626E+03 -0.74889958198E+03  0.83119006814E+03  0.10566000000E+00 0.  1.
         13    1    1    2    0    0 -0.11027409744E+03 -0.39544135480E+02 -0.17111380151E+03  0.20737420150E+03  0.10566000000E+00 0. -1.
          2    1    1    2  501    0  0.41811718743E+01  0.15807545277E+02  0.74824939991E+03  0.74842803606E+03  0.00000000000E+00 0.  1.
          4    1    3    3  502    0  0.56347140697E+02  0.38088038646E+03  0.57981807662E+02  0.38936712634E+03  0.00000000000E+00 0.  1.
</event>
<event>
 7    1  0.4894942E-006  0.1344113E+04  0.7818608E-02  0.8611177E-01
          2   -1    0    0  502    0  0.00000000000E+00  0.00000000000E+00  0.16413130835E+04  0.16413130835E+04  0.00000000000E+00 0.  1.
          4   -1    0    0  501    0 -0.00000000000E+00 -0.00000000000E+00 -0.19721101866E+04  0.19721101866E+04  0.00000000000E+00 0.  1.
    9000010    2    1    2  502    0 -0.11884237393E+03 -0.24143656023E+03 -0.38528928716E+03  0.11215304238E+04  0.10183160287E+04 0.  0.
        -13    1    3    3    0    0 -0.14436013322E+03  0.17134444565E+02 -0.69913444345E+03  0.71408852282E+03  0.10566000000E+00 0.  1.
         13    1    1    2    0    0 -0.27223993523E+03 -0.79113261970E+03 -0.75169837638E+03  0.11247470224E+04  0.10566000000E+00 0. -1.
          2    1    1    2  501    0  0.39108230916E+03  0.10325691799E+04  0.80619056048E+03  0.13671458238E+04  0.00000000000E+00 0.  1.
          4    1    3    3  502    0  0.25517759285E+02 -0.25857100479E+03  0.31384515628E+03  0.40744190099E+03  0.00000000000E+00 0.  1.
</event>
<event>
 7    1  0.4894942E-006  0.1099309E+04  0.7818608E-02  0.8899967E-01
          4   -1    0    0  501    0  0.00000000000E+00  0.00000000000E+00  0.47724153349E+03  0.47724153349E+03  0.00000000000E+00 0. -1.
         -4   -1    0    0    0  501 -0.00000000000E+00 -0.00000000000E+00 -0.20966050194E+04  0.20966050194E+04  0.00000000000E+00 0. -1.
   -9000010    2    1    2    0  502  0.43052477443E+03  0.14142184254E+03 -0.84402411988E+03  0.13886979312E+04  0.10053623775E+04 0.  0.
        -13    1    1    2    0    0 -0.40703684363E+03 -0.17581537198E+03 -0.92715752873E+03  0.10277213296E+04  0.10566000000E+00 0.  1.
         13    1    3    3    0    0  0.49190934314E+03  0.23802258210E+02 -0.10407632942E+04  0.11514033155E+04  0.10566000000E+00 0. -1.
          4    1    1    2  502    0 -0.23487930798E+02  0.34393529436E+02  0.15181816273E+03  0.15742729209E+03  0.00000000000E+00 0. -1.
         -4    1    3    3    0  502 -0.61384568707E+02  0.11761958433E+03  0.19673917430E+03  0.23729461561E+03  0.00000000000E+00 0. -1.
</event>
<event>
 7    1  0.4894942E-006  0.1706857E+04  0.7818608E-02  0.8345513E-01
          4   -1    0    0  501    0 -0.00000000000E+00  0.00000000000E+00  0.29449425468E+04  0.29449425468E+04  0.00000000000E+00 0.  1.
          2   -1    0    0  502    0  0.00000000000E+00 -0.00000000000E+00 -0.10165975007E+04  0.10165975007E+04  0.00000000000E+00 0. -1.
    9000010    2    1    2  502    0 -0.11062878931E+04 -0.90228174315E+03  0.34004368096E+03  0.17840496105E+04  0.10145038498E+04 0.  0.
        -13    1    3    3    0    0 -0.22748656805E+03 -0.75290037117E+03 -0.94845955686E+02  0.79221516902E+03  0.10566000000E+00 0.  1.
         13    1    1    2    0    0  0.10101534201E+04  0.90153693752E+03  0.15803426791E+04  0.20810242133E+04  0.10566000000E+00 0. -1.
          2    1    1    2  501    0  0.96134473002E+02  0.74480562884E+00  0.79586860407E+01  0.96466223718E+02  0.00000000000E+00 0. -1.
          4    1    3    3  502    0 -0.87880132510E+03 -0.14938137198E+03  0.43488963664E+03  0.99183444151E+03  0.00000000000E+00 0.  1.
</event>
<event>
 7    1  0.4894942E-006  0.1104691E+04  0.7818608E-02  0.8910242E-01
          4   -1    0    0  501    0 -0.00000000000E+00  0.00000000000E+00  0.21758974553E+04  0.21758974553E+04  0.00000000000E+00 0.  1.
          2   -1    0    0  502    0  0.00000000000E+00 -0.00000000000E+00 -0.15645255832E+04  0.15645255832E+04  0.00000000000E+00 0.  1.
    9000010    2    1    2  502    0 -0.90713657019E+02 -0.35392398587E+03  0.83050237228E+03  0.13664519554E+04  0.10217463485E+04 0.  0.
        -13    1    3    3    0    0  0.32630476952E+03 -0.12974864891E+03 -0.61583044140E+02  0.35651367014E+03  0.10566000000E+00 0.  1.
         13    1    1    2    0    0  0.14111113397E+03  0.40497788635E+03  0.10336775909E+04  0.11191107245E+04  0.10566000000E+00 0. -1.
          2    1    1    2  501    0 -0.50397476950E+02 -0.51053900476E+02 -0.12528080911E+04  0.12548603586E+04  0.00000000000E+00 0.  1.
          4    1    3    3  502    0 -0.41701842654E+03 -0.22417533697E+03  0.89208541642E+03  0.10099382852E+04  0.00000000000E+00 0.  1.
</event>
<event>
 6    1  0.4894942E-006  0.5458095E+03  0.7818608E-02  0.9759289E-01
          2   -1    0    0  502    0  0.00000000000E+00  0.00000000000E+00  0.68421784372E+03  0.68421784372E+03  0.00000000000E+00 0. -1.
          4   -1    0    0  501    0 -0.00000000000E+00 -0.00000000000E+00 -0.68224221183E+03  0.68224221183E+03  0.00000000000E+00 0.  1.
        -13    1    1    2    0    0  0.22718851018E+03 -0.11704997183E+03 -0.26575278947E+03  0.36870024592E+03  0.10566000000E+00 0.  1.
         13    1    1    2    0    0 -0.91754802822E+02 -0.11268153588E+03 -0.11678254522E+03  0.18642490821E+03  0.10566000000E+00 0. -1.
          2    1    1    2  501    0  0.20402801334E+02  0.58953674541E+01  0.51047100222E+03  0.51091258916E+03  0.00000000000E+00 0. -1.
          4    1    1    2  502    0 -0.15583650869E+03  0.22383614025E+03 -0.12596003564E+03  0.30042231226E+03  0.00000000000E+00 0.  1.
</event>
<event>
 7    1  0.4894942E-006  0.9974623E+03  0.7818608E-02  0.9031523E-01
          2   -1    0    0  501    0  0.00000000000E+00  0.00000000000E+00  0.10703606929E+04  0.10703606929E+04  0.00000000000E+00 0. -1.
         -4   -1    0    0    0  501 -0.00000000000E+00 -0.00000000000E+00 -0.91964718788E+03  0.91964718788E+03  0.00000000000E+00 0. -1.
   -9000010    2    1    2    0  502  0.30680878868E+03 -0.13250552987E+03 -0.25972085381E+03  0.96534180778E+03  0.86760621003E+03 0.  0.
        -13    1    1    2    0    0  0.21585905418E+03  0.27308273621E+03  0.45197679239E+01  0.34812318446E+03  0.10566000000E+00 0.  1.
         13    1    3    3    0    0  0.59732145871E+03 -0.66687872071E+02 -0.54252826134E+02  0.60347624446E+03  0.10566000000E+00 0. -1.
          2    1    1    2  502    0 -0.52266784286E+03 -0.14057720634E+03  0.40591459086E+03  0.67654288850E+03  0.00000000000E+00 0. -1.
         -4    1    3    3    0  502 -0.29051267003E+03 -0.65817657799E+02 -0.20546802767E+03  0.36186556333E+03  0.00000000000E+00 0. -1.
</event>
<event>
 7    1  0.4894942E-006  0.1041905E+04  0.7818608E-02  0.9137049E-01
          2   -1    0    0  502    0  0.00000000000E+00  0.00000000000E+00  0.33543037237E+03  0.33543037237E+03  0.00000000000E+00 0.  1.
          4   -1    0    0  501    0 -0.00000000000E+00 -0.00000000000E+00 -0.27872070378E+04  0.27872070378E+04  0.00000000000E+00 0.  1.
    9000010    2    1    2  502    0  0.31784980812E+03  0.76477987411E+02 -0.14492186431E+04  0.18034239356E+04  0.10223628676E+04 0.  0.
        -13    1    3    3    0    0  0.11113054606E+03  0.54189181896E+03 -0.62568273010E+03  0.83515006533E+03  0.10566000000E+00 0.  1.
         13    1    1    2    0    0 -0.15594919963E+03 -0.11866759754E+03 -0.11055256857E+04  0.11227596379E+04  0.10566000000E+00 0. -1.
          2    1    1    2  501    0 -0.16190060849E+03  0.42189610133E+02  0.10296766337E+03  0.19645383664E+03  0.00000000000E+00 0.  1.
          4    1    3    3  502    0  0.20671926206E+03 -0.46541383154E+03 -0.82353591295E+03  0.96827387026E+03  0.00000000000E+00 0.  1.
</event>
<event>
 7    1  0.4894942E-006  0.1099090E+04  0.7818608E-02  0.8898194E-01
          4   -1    0    0  501    0  0.00000000000E+00  0.00000000000E+00  0.90349377565E+03  0.90349377565E+03  0.00000000000E+00 0.  1.
         -4   -1    0    0    0  501 -0.00000000000E+00 -0.00000000000E+00 -0.31984061237E+04  0.31984061237E+04  0.00000000000E+00 0. -1.
   -9000010    2    1    2    0  502 -0.47574425843E+03  0.15717303742E+03 -0.18844038479E+04  0.21929710759E+04  0.10035478636E+04 0.  0.
        -13    1    1    2    0    0  0.31342965834E+03 -0.31602700714E+03 -0.10980586132E+04  0.11848392081E+04  0.10566000000E+00 0.  1.
         13    1    3    3    0    0  0.30528268847E+02  0.33363568833E+03 -0.14904774311E+04  0.15276674152E+04  0.10566000000E+00 0. -1.
          4    1    1    2  502    0  0.16231460009E+03  0.15885396972E+03  0.68755011304E+03  0.72408961534E+03  0.00000000000E+00 0.  1.
         -4    1    3    3    0  502 -0.50627252728E+03 -0.17646265091E+03 -0.39392641683E+03  0.66530366068E+03  0.00000000000E+00 0. -1.
</event>
<event>
 7    1  0.4894942E-006  0.1268158E+04  0.7818608E-02  0.8679994E-01
         -2   -1    0    0    0  501  0.00000000000E+00  0.00000000000E+00  0.71002125828E+03  0.71002125828E+03  0.00000000000E+00 0. -1.
         -4   -1    0    0    0  502 -0.00000000000E+00 -0.00000000000E+00 -0.25117115752E+04  0.25117115752E+04  0.00000000000E+00 0. -1.
   -9000010    2    1    2    0  501 -0.12677063825E+03 -0.79244406667E+03 -0.60773407379E+03  0.14418659332E+04  0.10322781947E+04 0.  0.
        -13    1    1    2    0    0 -0.33860952898E+02  0.72446868014E+03 -0.13585667333E+04  0.15400340946E+04  0.10566000000E+00 0.  1.
         13    1    3    3    0    0  0.16959693827E+03 -0.76989508558E+03 -0.26212982894E+02  0.78878938628E+03  0.10566000000E+00 0. -1.
         -2    1    1    2    0  502  0.16063159115E+03  0.67975386530E+02  0.16461049010E+03  0.23983280572E+03  0.00000000000E+00 0. -1.
         -4    1    3    3    0  501 -0.29636757653E+03 -0.22548981089E+02 -0.58152109089E+03  0.65307654691E+03  0.00000000000E+00 0. -1.
</event>
<event>
 7    1  0.4894942E-006  0.1121494E+04  0.7818608E-02  0.8931495E-01
         -4   -1    0    0    0  501 -0.00000000000E+00  0.00000000000E+00  0.11879449603E+04  0.11879449603E+04  0.00000000000E+00 0. -1.
          2   -1    0    0  501    0  0.00000000000E+00 -0.00000000000E+00 -0.11289259335E+04  0.11289259335E+04  0.00000000000E+00 0. -1.
   -9000010    2    1    2    0  502  0.33228258435E+03 -0.40626861587E+03  0.57556177032E+03  0.13150148554E+04  0.10594936594E+04 0.  0.
        -13    1    1    2    0    0 -0.31062266309E+03  0.11020078688E+03  0.76776388409E+02  0.33841583479E+03  0.10566000000E+00 0.  1.
         13    1    3    3    0    0  0.62525377789E+03 -0.29173466715E+03  0.69426193746E+03  0.97880082333E+03  0.10566000000E+00 0. -1.
          2    1    1    2  502    0 -0.21659921259E+02  0.29606782899E+03 -0.59331913188E+03  0.66344020364E+03  0.00000000000E+00 0. -1.
         -4    1    3    3    0  502 -0.29297119354E+03 -0.11453394872E+03 -0.11870016714E+03  0.33621403203E+03  0.00000000000E+00 0. -1.
</event>
<event>
 7    1  0.4894942E-006  0.1082964E+04  0.7818608E-02  0.8900392E-01
         -4   -1    0    0    0  501 -0.00000000000E+00  0.00000000000E+00  0.15124397590E+04  0.15124397590E+04  0.00000000000E+00 0. -1.
          2   -1    0    0  501    0  0.00000000000E+00 -0.00000000000E+00 -0.19186731967E+04  0.19186731967E+04  0.00000000000E+00 0. -1.
   -9000010    2    1    2    0  502  0.39417980080E+03 -0.20022103809E+03  0.80725824355E+03  0.13432729523E+04  0.97839162564E+03 0.  0.
        -13    1    1    2    0    0 -0.43154133649E+03  0.19867389583E+03  0.30780942039E+03  0.56607940470E+03  0.10566000000E+00 0.  1.
         13    1    3    3    0    0  0.43768010332E+03 -0.55784597701E+03  0.47721812904E+03  0.85468892632E+03  0.10566000000E+00 0. -1.
          2    1    1    2  502    0  0.37361535681E+02  0.15471422566E+01 -0.15213011016E+04  0.15217605987E+04  0.00000000000E+00 0. -1.
         -4    1    3    3    0  502 -0.43500302518E+02  0.35762493892E+03  0.33004011451E+03  0.48858402598E+03  0.00000000000E+00 0. -1.
</event>
<event>
 7    1  0.4894942E-006  0.1127199E+04  0.7818608E-02  0.8845768E-01
          2   -1    0    0  502    0  0.00000000000E+00  0.00000000000E+00  0.11250967362E+04  0.11250967362E+04  0.00000000000E+00 0. -1.
          4   -1    0    0  501    0 -0.00000000000E+00 -0.00000000000E+00 -0.30999391465E+04  0.30999391465E+04  0.00000000000E+00 0.  1.
    9000010    2    1    2  502    0  0.37732237489E+03 -0.16910858942E+03 -0.11945600423E+04  0.16128566554E+04  0.10016800918E+04 0.  0.
        -13    1    3    3    0    0  0.28910931328E+03  0.40774124181E+03 -0.56921486245E+03  0.75752404984E+03  0.10566000000E+00 0.  1.
         13    1    1    2    0    0 -0.42654804144E+03  0.33186366512E+03 -0.16446891081E+04  0.17312073814E+04  0.10566000000E+00 0. -1.
          2    1    1    2  501    0  0.49225666553E+02 -0.16275507569E+03  0.86440674012E+03  0.88097184591E+03  0.00000000000E+00 0. -1.
          4    1    3    3  502    0  0.88213061611E+02 -0.57684983123E+03 -0.62534517990E+03  0.85533260551E+03  0.00000000000E+00 0.  1.
</event>
<event>
 7    1  0.4894942E-006  0.1003903E+04  0.7818608E-02  0.9832113E-01
          2   -1    0    0  502    0  0.00000000000E+00  0.00000000000E+00  0.12919718793E+04  0.12919718793E+04  0.00000000000E+00 0. -1.
          4   -1    0    0  501    0 -0.00000000000E+00 -0.00000000000E+00 -0.16678143759E+04  0.16678143759E+04  0.00000000000E+00 0.  1.
    9000010    2    1    2  502    0 -0.11193109930E+02 -0.59570629212E+01 -0.14608328518E+04  0.17723723947E+04  0.10035489585E+04 0.  0.
        -13    1    3    3    0    0 -0.31117564646E+03 -0.25195608892E+03 -0.12859246430E+04  0.13468163766E+04  0.10566000000E+00 0.  1.
         13    1    1    2    0    0 -0.15274766076E+02  0.90853132503E+01 -0.49508524348E+02  0.52601963297E+02  0.10566000000E+00 0. -1.
          2    1    1    2  501    0  0.26467876006E+02 -0.31282503291E+01  0.11344988796E+04  0.11348118973E+04  0.00000000000E+00 0. -1.
          4    1    3    3  502    0  0.29998253653E+03  0.24599902600E+03 -0.17490820883E+03  0.42555601808E+03  0.00000000000E+00 0.  1.
</event>
<event>
 7    1  0.4894942E-006  0.1002250E+04  0.7818608E-02  0.9161795E-01
          4   -1    0    0  501    0 -0.00000000000E+00  0.00000000000E+00  0.29026391906E+04  0.29026391906E+04  0.00000000000E+00 0.  1.
          2   -1    0    0  502    0  0.00000000000E+00 -0.00000000000E+00 -0.15734708333E+04  0.15734708333E+04  0.00000000000E+00 0. -1.
    9000010    2    1    2  502    0 -0.69509210661E+02  0.58152136131E+02  0.20429299354E+04  0.22681131059E+04  0.98110200251E+03 0.  0.
        -13    1    3    3    0    0  0.16064198754E+03  0.47632096738E+03  0.93042767578E+03  0.10575363744E+04  0.10566000000E+00 0.  1.
         13    1    1    2    0    0  0.17377425262E+03 -0.13738850574E+03  0.72766305550E+03  0.76063567224E+03  0.10566000000E+00 0. -1.
          2    1    1    2  501    0 -0.10426504195E+03  0.79236369606E+02 -0.14414246335E+04  0.14473612457E+04  0.00000000000E+00 0. -1.
          4    1    3    3  502    0 -0.23015119820E+03 -0.41816883124E+03  0.11125022596E+04  0.12105767316E+04  0.00000000000E+00 0.  1.
</event>
<event>
 7    1  0.4894942E-006  0.1042093E+04  0.7818608E-02  0.9049575E-01
          2   -1    0    0  502    0  0.00000000000E+00  0.00000000000E+00  0.11040294090E+04  0.11040294090E+04  0.00000000000E+00 0.  1.
          4   -1    0    0  501    0 -0.00000000000E+00 -0.00000000000E+00 -0.90297794208E+03  0.90297794208E+03  0.00000000000E+00 0.  1.
    9000010    2    1    2  502    0  0.25541417176E+03 -0.75333211576E+02 -0.20700440624E+03  0.10578723815E+04  0.10026622858E+04 0.  0.
        -13    1    3    3    0    0  0.39153134898E+03 -0.45296400674E+02  0.32316153230E+03  0.50968808920E+03  0.10566000000E+00 0.  1.
         13    1    1    2    0    0 -0.26294713125E+03  0.11617249803E+03 -0.19325733122E+03  0.34638944899E+03  0.10566000000E+00 0. -1.
          2    1    1    2  501    0  0.75329594954E+01 -0.40839286458E+02  0.60131320434E+03  0.60274552053E+03  0.00000000000E+00 0.  1.
          4    1    3    3  502    0 -0.13611717722E+03 -0.30036810903E+02 -0.53016593855E+03  0.54818429231E+03  0.00000000000E+00 0.  1.
</event>
<event>
 7    1  0.4894942E-006  0.9784484E+03  0.7818608E-02  0.9044393E-01
          2   -1    0    0  502    0  0.00000000000E+00  0.00000000000E+00  0.50515251450E+03  0.50515251450E+03  0.00000000000E+00 0.  1.
          4   -1    0    0  501    0 -0.00000000000E+00 -0.00000000000E+00 -0.15739391017E+04  0.15739391017E+04  0.00000000000E+00 0.  1.
    9000010    2    1    2  502    0  0.29426424008E+03 -0.15956192915E+03 -0.92715587891E+03  0.13440125996E+04  0.91361939113E+03 0.  0.
        -13    1    3    3    0    0  0.27883279815E+03  0.35214914405E+03 -0.32950106676E+03  0.55707065363E+03  0.10566000000E+00 0.  1.
         13    1    1    2    0    0 -0.30428387213E+03  0.18421231380E+03 -0.36527833809E+03  0.50985402503E+03  0.10566000000E+00 0. -1.
          2    1    1    2  501    0  0.10019632047E+02 -0.24650384651E+02  0.22364762982E+03  0.22522499154E+03  0.00000000000E+00 0.  1.
          4    1    3    3  502    0  0.15431441934E+02 -0.51171107320E+03 -0.59765481214E+03  0.78694194596E+03  0.00000000000E+00 0.  1.
</event>
<event>
 7    1  0.4894942E-006  0.1071378E+04  0.7818608E-02  0.8934562E-01
          1   -1    0    0  501    0  0.00000000000E+00  0.00000000000E+00  0.13836552145E+04  0.13836552145E+04  0.00000000000E+00 0.  1.
         -4   -1    0    0    0  501 -0.00000000000E+00 -0.00000000000E+00 -0.12303556000E+04  0.12303556000E+04  0.00000000000E+00 0. -1.
   -9000010    2    1    2    0  502  0.41255541098E+03 -0.64773017696E+02 -0.44172069916E+03  0.11592646260E+04  0.98710677543E+03 0.  0.
        -13    1    1    2    0    0 -0.40857811304E+03  0.79528722333E+02 -0.32901973938E+03  0.53057976987E+03  0.10566000000E+00 0.  1.
         13    1    3    3    0    0  0.44320603243E+03  0.25031396761E+03 -0.61504049413E+03  0.79835048077E+03  0.10566000000E+00 0. -1.
          1    1    1    2  502    0 -0.39772979417E+01 -0.14755704638E+02  0.92404005306E+03  0.92416641866E+03  0.00000000000E+00 0.  1.
         -4    1    3    3    0  502 -0.30650621450E+02 -0.31508698531E+03  0.17331979497E+03  0.36091414524E+03  0.00000000000E+00 0. -1.
</event>
<event>
 7    1  0.4894942E-006  0.1040728E+04  0.7818608E-02  0.9064217E-01
          1   -1    0    0  501    0  0.00000000000E+00  0.00000000000E+00  0.53237827791E+03  0.53237827791E+03  0.00000000000E+00 0.  1.
         -4   -1    0    0    0  501 -0.00000000000E+00 -0.00000000000E+00 -0.21636522112E+04  0.21636522112E+04  0.00000000000E+00 0. -1.
   -9000010    2    1    2    0  502  0.73330633555E+02  0.21181009010E+03 -0.45496020944E+03  0.11260790513E+04  0.10053976036E+04 0.  0.
        -13    1    1    2    0    0 -0.11430982840E+03 -0.24537802060E+03 -0.13559298210E+04  0.13826868049E+04  0.10566000000E+00 0.  1.
         13    1    3    3    0    0 -0.94168173911E+02 -0.32790373252E+03  0.77266622501E+02  0.34979800584E+03  0.10566000000E+00 0. -1.
          1    1    1    2  502    0  0.40979194850E+02  0.33567930496E+02  0.17961609718E+03  0.18726463290E+03  0.00000000000E+00 0.  1.
         -4    1    3    3    0  502  0.16749880747E+03  0.53971382262E+03 -0.53222683194E+03  0.77628104541E+03  0.00000000000E+00 0. -1.
</event>
<event>
 7    1  0.4894942E-006  0.1196197E+04  0.7818608E-02  0.9042099E-01
         -4   -1    0    0    0  501 -0.00000000000E+00  0.00000000000E+00  0.11949837459E+04  0.11949837459E+04  0.00000000000E+00 0. -1.
          2   -1    0    0  501    0  0.00000000000E+00 -0.00000000000E+00 -0.12050599020E+04  0.12050599020E+04  0.00000000000E+00 0.  1.
   -9000010    2    1    2    0  502  0.67344240718E+03  0.39587778686E+03  0.42772885472E+03  0.13173216425E+04  0.97063919086E+03 0.  0.
        -13    1    1    2    0    0 -0.17669739466E+02 -0.19263268505E+03  0.93260675734E+02  0.21474900662E+03  0.10566000000E+00 0.  1.
         13    1    3    3    0    0 -0.13899873662E+03  0.28062355284E+03 -0.11488146648E+03  0.33356856821E+03  0.10566000000E+00 0. -1.
          2    1    1    2  502    0 -0.65577266772E+03 -0.20324510180E+03 -0.53106568653E+03  0.86797299874E+03  0.00000000000E+00 0.  1.
         -4    1    3    3    0  502  0.81244114380E+03  0.11525423401E+03  0.54261032120E+03  0.98375307434E+03  0.00000000000E+00 0. -1.
</event>
<event>
 7    1  0.4894942E-006  0.1052292E+04  0.7818608E-02  0.8897133E-01
         -4   -1    0    0    0  501 -0.00000000000E+00  0.00000000000E+00  0.83878599879E+03  0.83878599879E+03  0.00000000000E+00 0. -1.
          1   -1    0    0  501    0  0.00000000000E+00 -0.00000000000E+00 -0.11303334593E+04  0.11303334593E+04  0.00000000000E+00 0. -1.
   -9000010    2    1    2    0  502 -0.16741227040E+03 -0.55910636659E+03 -0.43445433557E+03  0.11719938165E+04  0.91879929192E+03 0.  0.
        -13    1    1    2    0    0  0.10552207520E+03  0.48993583030E+03  0.32179819847E+03  0.59558888327E+03  0.10566000000E+00 0.  1.
         13    1    3    3    0    0 -0.18373974930E+03 -0.67662756137E+03  0.20892425327E+02  0.70144255422E+03  0.10566000000E+00 0. -1.
          1    1    1    2  502    0  0.61890195207E+02  0.69170536284E+02 -0.17889132339E+03  0.20153675828E+03  0.00000000000E+00 0. -1.
         -4    1    3    3    0  502  0.16327478894E+02  0.11752119478E+03 -0.45534676090E+03  0.47055126230E+03  0.00000000000E+00 0. -1.
</event>
<event>
 7    1  0.4894942E-006  0.1069864E+04  0.7818608E-02  0.9008391E-01
          4   -1    0    0  501    0 -0.00000000000E+00  0.00000000000E+00  0.21739651573E+04  0.21739651573E+04  0.00000000000E+00 0.  1.
          2   -1    0    0  502    0  0.00000000000E+00 -0.00000000000E+00 -0.16267976102E+04  0.16267976102E+04  0.00000000000E+00 0.  1.
    9000010    2    1    2  502    0 -0.28798134507E+03  0.23418986497E+02 -0.63726835373E+02  0.10659601883E+04  0.10240743671E+04 0.  0.
        -13    1    3    3    0    0 -0.46012076766E+03  0.42276121972E+03  0.97847633173E+01  0.62492713374E+03  0.10566000000E+00 0.  1.
         13    1    1    2    0    0  0.30660934222E+03 -0.47001030480E+02  0.16582516774E+04  0.16870142330E+04  0.10566000000E+00 0. -1.
          2    1    1    2  501    0 -0.18627997142E+02  0.23582043983E+02 -0.10473572949E+04  0.10477883462E+04  0.00000000000E+00 0.  1.
          4    1    3    3  502    0  0.17213942259E+03 -0.39934223322E+03 -0.73511598691E+02  0.44103305453E+03  0.00000000000E+00 0.  1.
</event>
<event>
 7    1  0.4894942E-006  0.1027058E+04  0.7818608E-02  0.9288513E-01
          2   -1    0    0  502    0  0.00000000000E+00  0.00000000000E+00  0.24938401947E+03  0.24938401947E+03  0.00000000000E+00 0.  1.
          4   -1    0    0  501    0 -0.00000000000E+00 -0.00000000000E+00 -0.28477185109E+04  0.28477185109E+04  0.00000000000E+00 0.  1.
    9000010    2    1    2  502    0 -0.13675842909E+03 -0.23007956119E+03 -0.21399231984E+04  0.23808916521E+04  0.10088281774E+04 0.  0.
        -13    1    3    3    0    0  0.44639837415E+02 -0.47957795420E+03 -0.19714048975E+04  0.20293903051E+04  0.10566000000E+00 0.  1.
         13    1    1    2    0    0 -0.15981571207E+02  0.11570019403E+03 -0.50619834268E+03  0.51949852629E+03  0.10566000000E+00 0. -1.
          2    1    1    2  501    0  0.15274000030E+03  0.11437936717E+03  0.47787049641E+02  0.19671235202E+03  0.00000000000E+00 0.  1.
          4    1    3    3  502    0 -0.18139826650E+03  0.24949839301E+03 -0.16851830088E+03  0.35150134699E+03  0.00000000000E+00 0.  1.
</event>
<event>
 7    1  0.4894942E-006  0.1086045E+04  0.7818608E-02  0.8927281E-01
          2   -1    0    0  501    0  0.00000000000E+00  0.00000000000E+00  0.54317958644E+03  0.54317958644E+03  0.00000000000E+00 0.  1.
         -4   -1    0    0    0  501 -0.00000000000E+00 -0.00000000000E+00 -0.16348349982E+04  0.16348349982E+04  0.00000000000E+00 0. -1.
   -9000010    2    1    2    0  502  0.40276163304E+03 -0.87669359618E+02 -0.79016833260E+03  0.13431380584E+04  0.10048636726E+04 0.  0.
        -13    1    1    2    0    0 -0.39914427958E+03  0.10213074763E+03 -0.49316572975E+03  0.64261908911E+03  0.10566000000E+00 0.  1.
         13    1    3    3    0    0  0.68197779818E+03 -0.26734796660E+03 -0.66167818406E+03  0.98711026886E+03  0.10566000000E+00 0. -1.
          2    1    1    2  502    0 -0.36173534625E+01 -0.14461388009E+02  0.19167865063E+03  0.19225743704E+03  0.00000000000E+00 0.  1.
         -4    1    3    3    0  502 -0.27921616514E+03  0.17967860698E+03 -0.12849014854E+03  0.35602778958E+03  0.00000000000E+00 0. -1.
</event>
<event>
 6    1  0.4894942E-006  0.1857898E+04  0.7818608E-02  0.8305200E-01
          2   -1    0    0  502    0  0.00000000000E+00  0.00000000000E+00  0.31698916102E+04  0.31698916102E+04  0.00000000000E+00 0. -1.
          4   -1    0    0  501    0 -0.00000000000E+00 -0.00000000000E+00 -0.10321238415E+04  0.10321238415E+04  0.00000000000E+00 0.  1.
        -13    1    1    2    0    0 -0.10777031155E+04  0.42696533393E+03 -0.77867581542E+02  0.11618118492E+04  0.10566000000E+00 0.  1.
         13    1    1    2    0    0  0.12841288715E+04 -0.14656925676E+03  0.72737127491E+03  0.14830841137E+04  0.10566000000E+00 0. -1.
          2    1    1    2  501    0 -0.12232248937E+02 -0.19476618498E+02  0.75035925600E+03  0.75071164880E+03  0.00000000000E+00 0. -1.
          4    1    1    2  502    0 -0.19419350703E+03 -0.26091945867E+03  0.73790481927E+03  0.80640783998E+03  0.00000000000E+00 0.  1.
</event>
<event>
 7    1  0.4894942E-006  0.1056986E+04  0.7818608E-02  0.9370063E-01
          2   -1    0    0  501    0  0.00000000000E+00  0.00000000000E+00  0.87564235276E+03  0.87564235276E+03  0.00000000000E+00 0. -1.
         -4   -1    0    0    0  501 -0.00000000000E+00 -0.00000000000E+00 -0.11110034847E+04  0.11110034847E+04  0.00000000000E+00 0. -1.
   -9000010    2    1    2    0  502  0.22575948802E+03 -0.17659501336E+03 -0.42101860729E+03  0.11223261483E+04  0.10001030798E+04 0.  0.
        -13    1    1    2    0    0  0.78160426500E+02  0.10198742864E+02 -0.27603687306E+03  0.28707043227E+03  0.10566000000E+00 0.  1.
         13    1    3    3    0    0  0.41597089449E+03 -0.49182939200E+03 -0.38961656381E+03  0.75281406327E+03  0.10566000000E+00 0. -1.
          2    1    1    2  502    0 -0.30391991452E+03  0.16639627049E+03  0.46169434840E+03  0.57724925693E+03  0.00000000000E+00 0. -1.
         -4    1    3    3    0  502 -0.19021140647E+03  0.31523437864E+03 -0.31402043483E+02  0.36951208500E+03  0.00000000000E+00 0. -1.
</event>
<event>
 7    1  0.4894942E-006  0.1092012E+04  0.7818608E-02  0.8955961E-01
          2   -1    0    0  502    0  0.00000000000E+00  0.00000000000E+00  0.15622430605E+04  0.15622430605E+04  0.00000000000E+00 0.  1.
          4   -1    0    0  501    0 -0.00000000000E+00 -0.00000000000E+00 -0.86470263933E+03  0.86470263933E+03  0.00000000000E+00 0.  1.
    9000010    2    1    2  502    0 -0.14864265240E+03  0.41628836564E+03 -0.35179462302E+03  0.11755060828E+04  0.10308561745E+04 0.  0.
        -13    1    3    3    0    0 -0.18282058671E+03  0.75352204733E+03 -0.30550848569E+03  0.83339923730E+03  0.10566000000E+00 0.  1.
         13    1    1    2    0    0  0.17363139918E+03 -0.26049082277E+03  0.16642892312E+03  0.35454467863E+03  0.10566000000E+00 0. -1.
          2    1    1    2  501    0 -0.24988746780E+02 -0.15579754287E+03  0.88290612103E+03  0.89689493832E+03  0.00000000000E+00 0.  1.
          4    1    3    3  502    0  0.34177934314E+02 -0.33723368169E+03 -0.46286137324E+02  0.34210684554E+03  0.00000000000E+00 0.  1.
</event>
<event>
 7    1  0.4894942E-006  0.9948855E+03  0.7818608E-02  0.9442252E-01
          4   -1    0    0  501    0 -0.00000000000E+00  0.00000000000E+00  0.10205079248E+04  0.10205079248E+04  0.00000000000E+00 0.  1.
          2   -1    0    0  502    0  0.00000000000E+00 -0.00000000000E+00 -0.74465264662E+03  0.74465264662E+03  0.00000000000E+00 0.  1.
    9000010    2    1    2  502    0  0.29999303579E+02 -0.93936735307E+02  0.70670077512E+03  0.12221758008E+04  0.99225179972E+03 0.  0.
        -13    1    3    3    0    0  0.58186027983E+02  0.50445790635E+02 -0.24621224717E+03  0.25797455973E+03  0.10566000000E+00 0.  1.
         13    1    1    2    0    0 -0.62529271792E-01  0.70418636550E+02  0.32867645920E+02  0.77711528075E+02  0.10566000000E+00 0. -1.
          2    1    1    2  501    0 -0.29936774307E+02  0.23518098757E+02 -0.46371314283E+03  0.46527324258E+03  0.00000000000E+00 0.  1.
          4    1    3    3  502    0 -0.28186724404E+02 -0.14438252594E+03  0.95291302229E+03  0.96420124107E+03  0.00000000000E+00 0.  1.
</event>
<event>
 7    1  0.4894942E-006  0.1348139E+04  0.7818608E-02  0.8596463E-01
         -4   -1    0    0    0  501 -0.00000000000E+00  0.00000000000E+00  0.23044380569E+04  0.23044380569E+04  0.00000000000E+00 0. -1.
          2   -1    0    0  501    0  0.00000000000E+00 -0.00000000000E+00 -0.14328255175E+04  0.14328255175E+04  0.00000000000E+00 0.  1.
   -9000010    2    1    2    0  502 -0.64024782862E+02  0.88132393947E+03  0.10708701138E+04  0.17209840707E+04  0.10169524630E+04 0.  0.
        -13    1    1    2    0    0  0.15126285575E+03 -0.87470734896E+03  0.68901124598E+03  0.11237125549E+04  0.10566000000E+00 0.  1.
         13    1    3    3    0    0 -0.27698763596E+03 -0.20013427165E+02 -0.33436536227E+02  0.27971539260E+03  0.10566000000E+00 0. -1.
          2    1    1    2  502    0 -0.87238072888E+02 -0.66165905093E+01 -0.88826882043E+03  0.89256694873E+03  0.00000000000E+00 0.  1.
         -4    1    3    3    0  502  0.21296285310E+03  0.90133736664E+03  0.11043066500E+04  0.14412686781E+04  0.00000000000E+00 0. -1.
</event>
<event>
 7    1  0.4894942E-006  0.1185148E+04  0.7818608E-02  0.8897900E-01
         -4   -1    0    0    0  501 -0.00000000000E+00  0.00000000000E+00  0.24305189394E+04  0.24305189394E+04  0.00000000000E+00 0. -1.
          2   -1    0    0  501    0  0.00000000000E+00 -0.00000000000E+00 -0.80331850612E+03  0.80331850612E+03  0.00000000000E+00 0. -1.
   -9000010    2    1    2    0  502  0.26715840164E+03 -0.29669395215E+03  0.80340189859E+03  0.13253223068E+04  0.97551201606E+03 0.  0.
        -13    1    1    2    0    0  0.12450212808E+03 -0.33557350909E+03  0.10674619298E+04  0.11258709263E+04  0.10566000000E+00 0.  1.
         13    1    3    3    0    0  0.44781902132E+03 -0.37142869437E+03  0.92668663273E+03  0.10941888673E+04  0.10566000000E+00 0. -1.
          2    1    1    2  502    0 -0.39166052973E+03  0.63226746124E+03 -0.24366339513E+03  0.78264421241E+03  0.00000000000E+00 0. -1.
         -4    1    3    3    0  502 -0.18066061968E+03  0.74734742214E+02 -0.12328473414E+03  0.23113343953E+03  0.00000000000E+00 0. -1.
</event>
<event>
 7    1  0.4894942E-006  0.1126835E+04  0.7818608E-02  0.8819684E-01
          1   -1    0    0  501    0  0.00000000000E+00  0.00000000000E+00  0.11111402434E+04  0.11111402434E+04  0.00000000000E+00 0.  1.
         -4   -1    0    0    0  501 -0.00000000000E+00 -0.00000000000E+00 -0.20478492580E+04  0.20478492580E+04  0.00000000000E+00 0. -1.
   -9000010    2    1    2    0  502 -0.67212294168E+03  0.24353863491E+03 -0.11988835863E+04  0.16984619450E+04  0.96767288372E+03 0.  0.
        -13    1    1    2    0    0  0.42633213235E+03 -0.29766625538E+03 -0.46094393353E+03  0.69486229405E+03  0.10566000000E+00 0.  1.
         13    1    3    3    0    0 -0.21789329793E+03  0.55863205077E+03 -0.37812756462E+03  0.70889189847E+03  0.10566000000E+00 0. -1.
          1    1    1    2  502    0  0.24579080933E+03  0.54127620474E+02  0.72311850524E+03  0.76566526229E+03  0.00000000000E+00 0.  1.
         -4    1    3    3    0  502 -0.45422964375E+03 -0.31509341586E+03 -0.82075602167E+03  0.98957004658E+03  0.00000000000E+00 0. -1.
</event>
<event>
 7    1  0.4894942E-006  0.1003653E+04  0.7818608E-02  0.8976105E-01
         -4   -1    0    0    0  502 -0.00000000000E+00  0.00000000000E+00  0.21023522820E+04  0.21023522820E+04  0.00000000000E+00 0. -1.
         -2   -1    0    0    0  501  0.00000000000E+00 -0.00000000000E+00 -0.81255085442E+03  0.81255085442E+03  0.00000000000E+00 0. -1.
   -9000010    2    1    2    0  501  0.42894726605E+03 -0.30592488814E+03  0.16040186474E+04  0.19170354446E+04  0.90805466812E+03 0.  0.
        -13    1    1    2    0    0 -0.15088346332E+03  0.34954660206E+03  0.18613146275E+03  0.42378482642E+03  0.10566000000E+00 0.  1.
         13    1    3    3    0    0 -0.25587843822E+03  0.61481754645E+02  0.52517050270E+03  0.58741624881E+03  0.10566000000E+00 0. -1.
         -2    1    1    2    0  502 -0.27806380273E+03 -0.43621713924E+02 -0.50034868252E+03  0.57408286546E+03  0.00000000000E+00 0. -1.
         -4    1    3    3    0  501  0.68482570427E+03 -0.36740664279E+03  0.10788481447E+04  0.13296191957E+04  0.00000000000E+00 0. -1.
</event>
<event>
 7    1  0.4894942E-006  0.1026373E+04  0.7818608E-02  0.9018733E-01
          4   -1    0    0  501    0 -0.00000000000E+00  0.00000000000E+00  0.18012136782E+04  0.18012136782E+04  0.00000000000E+00 0.  1.
          2   -1    0    0  502    0  0.00000000000E+00 -0.00000000000E+00 -0.99948307485E+03  0.99948307485E+03  0.00000000000E+00 0. -1.
    9000010    2    1    2  502    0 -0.18640663830E+02  0.50576441789E+03  0.12944240377E+04  0.16797861313E+04  0.94339956364E+03 0.  0.
        -13    1    3    3    0    0  0.83031994577E+02 -0.27291304688E+03  0.33926126484E+03  0.44325394557E+03  0.10566000000E+00 0.  1.
         13    1    1    2    0    0 -0.26075958905E+03 -0.21248336936E+03  0.14431494709E+03  0.36602125711E+03  0.10566000000E+00 0. -1.
          2    1    1    2  501    0  0.27940025288E+03 -0.29328104854E+03 -0.63700838150E+03  0.75488936463E+03  0.00000000000E+00 0. -1.
          4    1    3    3  502    0 -0.10167265841E+03  0.77867746477E+03  0.95516277289E+03  0.12365321857E+04  0.00000000000E+00 0.  1.
</event>
<event>
 7    1  0.4894942E-006  0.1163087E+04  0.7818608E-02  0.8693053E-01
         -4   -1    0    0    0  501 -0.00000000000E+00  0.00000000000E+00  0.36438935483E+04  0.36438935483E+04  0.00000000000E+00 0. -1.
          5   -1    0    0  501    0  0.00000000000E+00 -0.00000000000E+00 -0.33382960584E+03  0.33382960584E+03  0.00000000000E+00 0.  1.
   -9000010    2    1    2    0  502 -0.91989271560E+03 -0.73856528050E+02  0.23480463060E+04  0.26275077214E+04  0.73404221678E+03 0.  0.
        -13    1    1    2    0    0  0.86911483390E+03  0.11731740161E+03  0.92119220990E+03  0.12718958550E+04  0.10566000000E+00 0.  1.
         13    1    3    3    0    0 -0.36450427979E+03 -0.27081805968E+03  0.16629943225E+04  0.17238781625E+04  0.10566000000E+00 0. -1.
          5    1    1    2  502    0  0.50777881699E+02 -0.43460873561E+02  0.40825426548E+02  0.78319577714E+02  0.00000000000E+00 0.  1.
         -4    1    3    3    0  502 -0.55538843581E+03  0.19696153163E+03  0.68505198350E+03  0.90362955887E+03  0.00000000000E+00 0. -1.
</event>
<event>
 7    1  0.4894942E-006  0.1014943E+04  0.7818608E-02  0.9329770E-01
          4   -1    0    0  501    0 -0.00000000000E+00  0.00000000000E+00  0.47490048049E+03  0.47490048049E+03  0.00000000000E+00 0.  1.
          2   -1    0    0  502    0  0.00000000000E+00 -0.00000000000E+00 -0.11075196695E+04  0.11075196695E+04  0.00000000000E+00 0.  1.
    9000010    2    1    2  502    0 -0.99098517819E+02 -0.34196546124E+02 -0.26181791582E+03  0.10482971084E+04  0.10096476050E+04 0.  0.
        -13    1    3    3    0    0 -0.35504673080E+03  0.38500832019E+03 -0.12511460189E+03  0.53846379863E+03  0.10566000000E+00 0.  1.
         13    1    1    2    0    0  0.10253678073E+03  0.14598760874E+02  0.48489963116E+02  0.11435997074E+03  0.10566000000E+00 0. -1.
          2    1    1    2  501    0 -0.34382629117E+01  0.19597785249E+02 -0.41929123630E+03  0.41976307089E+03  0.00000000000E+00 0.  1.
          4    1    3    3  502    0  0.25594821298E+03 -0.41920486631E+03 -0.13670331393E+03  0.50983330972E+03  0.00000000000E+00 0.  1.
</event>
<event>
 7    1  0.4894942E-006  0.1019582E+04  0.7818608E-02  0.9068252E-01
          2   -1    0    0  502    0  0.00000000000E+00  0.00000000000E+00  0.17416235258E+04  0.17416235258E+04  0.00000000000E+00 0.  1.
          4   -1    0    0  501    0 -0.00000000000E+00 -0.00000000000E+00 -0.35445933594E+03  0.35445933594E+03  0.00000000000E+00 0.  1.
    9000010    2    1    2  502    0 -0.22056256321E+03 -0.18993355423E+03  0.13273192925E+04  0.16753716200E+04  0.97998518438E+03 0.  0.
        -13    1    3    3    0    0  0.36927032358E+03 -0.19561673050E+03  0.41476216043E+03  0.58877341824E+03  0.10566000000E+00 0.  1.
         13    1    1    2    0    0  0.22143592055E+03  0.17250834050E+03 -0.70325858567E+02  0.28937645378E+03  0.10566000000E+00 0. -1.
          2    1    1    2  501    0 -0.87335734055E+00  0.17425213729E+02  0.13017075593E+03  0.13133478795E+03  0.00000000000E+00 0.  1.
          4    1    3    3  502    0 -0.58983288679E+03  0.56831762647E+01  0.91255713203E+03  0.10865982018E+04  0.00000000000E+00 0.  1.
</event>
<event>
 7    1  0.4894942E-006  0.1381429E+04  0.7818608E-02  0.8562658E-01
          2   -1    0    0  502    0  0.00000000000E+00  0.00000000000E+00  0.14775120006E+04  0.14775120006E+04  0.00000000000E+00 0.  1.
          4   -1    0    0  501    0 -0.00000000000E+00 -0.00000000000E+00 -0.44008923939E+04  0.44008923939E+04  0.00000000000E+00 0.  1.
    9000010    2    1    2  502    0  0.59633979008E+03  0.76504854299E+03 -0.25919147072E+04  0.29415722416E+04  0.99694783451E+03 0.  0.
        -13    1    3    3    0    0  0.10244693027E+03 -0.20616271001E+03 -0.90151595302E+03  0.93044584003E+03  0.10566000000E+00 0.  1.
         13    1    1    2    0    0 -0.57497573215E+03 -0.75061259036E+03 -0.14972234878E+04  0.17707892413E+04  0.10566000000E+00 0. -1.
          2    1    1    2  501    0 -0.21364057927E+02 -0.14435952628E+02  0.11657578017E+04  0.11660429117E+04  0.00000000000E+00 0.  1.
          4    1    3    3  502    0  0.49389285981E+03  0.97121125299E+03 -0.16903987542E+04  0.20111264016E+04  0.00000000000E+00 0.  1.
</event>
<event>
 7    1  0.4894942E-006  0.1026739E+04  0.7818608E-02  0.9088544E-01
          2   -1    0    0  501    0  0.00000000000E+00  0.00000000000E+00  0.82149177267E+03  0.82149177267E+03  0.00000000000E+00 0. -1.
         -4   -1    0    0    0  501 -0.00000000000E+00 -0.00000000000E+00 -0.11084708965E+04  0.11084708965E+04  0.00000000000E+00 0. -1.
   -9000010    2    1    2    0  502 -0.20174350746E+03 -0.25020304407E+01 -0.61418531929E+03  0.11863884099E+04  0.99477995038E+03 0.  0.
        -13    1    1    2    0    0  0.25603395836E+03  0.99792242332E+02 -0.10730846544E+03  0.29500338538E+03  0.10566000000E+00 0.  1.
         13    1    3    3    0    0 -0.52475690183E+03 -0.21019694674E+03 -0.15178041434E+03  0.58531176973E+03  0.10566000000E+00 0. -1.
          2    1    1    2  502    0 -0.54290450903E+02 -0.97290211892E+02  0.43451466090E+03  0.44857087392E+03  0.00000000000E+00 0. -1.
         -4    1    3    3    0  502  0.32301339437E+03  0.20769491630E+03 -0.46240490495E+03  0.60107664014E+03  0.00000000000E+00 0. -1.
</event>
<event>
 7    1  0.4894942E-006  0.9859606E+03  0.7818608E-02  0.9481099E-01
          4   -1    0    0  501    0 -0.00000000000E+00  0.00000000000E+00  0.44989668261E+03  0.44989668261E+03  0.00000000000E+00 0.  1.
          2   -1    0    0  502    0  0.00000000000E+00 -0.00000000000E+00 -0.21175815566E+04  0.21175815566E+04  0.00000000000E+00 0. -1.
    9000010    2    1    2  502    0  0.83454758759E+02  0.76220040024E+02 -0.17074140695E+03  0.99951693104E+03  0.97831859643E+03 0.  0.
        -13    1    3    3    0    0  0.41395425309E+03  0.26708347354E+03  0.13466358790E+03  0.51071126731E+03  0.10566000000E+00 0.  1.
         13    1    1    2    0    0  0.36968539799E+02 -0.52815501994E+02  0.15183879529E+01  0.64486175664E+02  0.10566000000E+00 0. -1.
          2    1    1    2  501    0 -0.12042329856E+03 -0.23404538029E+02 -0.14984618550E+04  0.15034751325E+04  0.00000000000E+00 0. -1.
          4    1    3    3  502    0 -0.33049949433E+03 -0.19086343351E+03 -0.30540499486E+03  0.48880566372E+03  0.00000000000E+00 0.  1.
</event>
<event>
 7    1  0.4894942E-006  0.1023509E+04  0.7818608E-02  0.9134683E-01
         -4   -1    0    0    0  501 -0.00000000000E+00  0.00000000000E+00  0.28154388372E+03  0.28154388372E+03  0.00000000000E+00 0. -1.
          1   -1    0    0  501    0  0.00000000000E+00 -0.00000000000E+00 -0.18183580040E+04  0.18183580040E+04  0.00000000000E+00 0. -1.
   -9000010    2    1    2    0  502  0.95449053071E+02 -0.20027155753E+03 -0.84785052023E+03  0.13303785999E+04  0.10009183263E+04 0.  0.
        -13    1    1    2    0    0 -0.54363874091E+02  0.20546674142E+03 -0.24797285519E+03  0.32659234638E+03  0.10566000000E+00 0.  1.
         13    1    3    3    0    0 -0.26814186578E+03  0.16546548125E+03  0.25513675527E+02  0.31611682093E+03  0.10566000000E+00 0. -1.
          1    1    1    2  502    0 -0.41085178980E+02 -0.51951838931E+01 -0.44099074489E+03  0.44293094151E+03  0.00000000000E+00 0. -1.
         -4    1    3    3    0  502  0.36359091885E+03 -0.36573703878E+03 -0.87336419576E+03  0.10142617790E+04  0.00000000000E+00 0. -1.
</event>
<event>
 7    1  0.4894942E-006  0.1144671E+04  0.7818608E-02  0.8888068E-01
          4   -1    0    0  501    0  0.00000000000E+00  0.00000000000E+00  0.46754205055E+03  0.46754205055E+03  0.00000000000E+00 0.  1.
         -4   -1    0    0    0  501 -0.00000000000E+00 -0.00000000000E+00 -0.26885881567E+04  0.26885881567E+04  0.00000000000E+00 0. -1.
   -9000010    2    1    2    0  502 -0.40359427372E+03 -0.22533186935E+03 -0.14912072081E+04  0.18697701705E+04  0.10289211651E+04 0.  0.
        -13    1    1    2    0    0  0.28695015354E+03 -0.29811960186E+03 -0.60957928781E+03  0.73675138746E+03  0.10566000000E+00 0.  1.
         13    1    3    3    0    0 -0.50097432663E+02 -0.44094605772E+03 -0.15371472033E+03  0.46965030074E+03  0.10566000000E+00 0. -1.
          4    1    1    2  502    0  0.11664412018E+03  0.52345147121E+03 -0.12025961019E+03  0.54960864924E+03  0.00000000000E+00 0.  1.
         -4    1    3    3    0  502 -0.35349684106E+03  0.21561418837E+03 -0.13374924878E+04  0.14001198698E+04  0.00000000000E+00 0. -1.
</event>
<event>
 7    1  0.4894942E-006  0.1123759E+04  0.7818608E-02  0.8845581E-01
         -4   -1    0    0    0  501 -0.00000000000E+00  0.00000000000E+00  0.91830154806E+03  0.91830154806E+03  0.00000000000E+00 0. -1.
          1   -1    0    0  501    0  0.00000000000E+00 -0.00000000000E+00 -0.97582768618E+03  0.97582768618E+03  0.00000000000E+00 0.  1.
   -9000010    2    1    2    0  502 -0.29728813624E+03  0.42646776045E+03  0.27086755086E+03  0.11549336288E+04  0.99511178778E+03 0.  0.
        -13    1    1    2    0    0  0.30897324523E+03 -0.42302637154E+03 -0.12908777817E+03  0.53951778740E+03  0.10566000000E+00 0.  1.
         13    1    3    3    0    0 -0.38228836049E+03  0.19187381456E+03  0.60313221531E+03  0.73941086792E+03  0.10566000000E+00 0. -1.
          1    1    1    2  502    0 -0.11685108983E+02 -0.34413889137E+01 -0.19930591080E+03  0.19967781802E+03  0.00000000000E+00 0.  1.
         -4    1    3    3    0  502  0.85000224248E+02  0.23459394589E+03 -0.33226466446E+03  0.41552276089E+03  0.00000000000E+00 0. -1.
</event>
<event>
 7    1  0.4894942E-006  0.9935955E+03  0.7818608E-02  0.9438267E-01
         -4   -1    0    0    0  501 -0.00000000000E+00  0.00000000000E+00  0.13059469185E+04  0.13059469185E+04  0.00000000000E+00 0. -1.
          2   -1    0    0  501    0  0.00000000000E+00 -0.00000000000E+00 -0.31166529599E+03  0.31166529599E+03  0.00000000000E+00 0. -1.
   -9000010    2    1    2    0  502  0.28513041232E-01  0.64162333818E+02  0.96945205405E+03  0.13877156694E+04  0.99085856104E+03 0.  0.
        -13    1    1    2    0    0 -0.24353792420E+01 -0.74152508661E+02  0.11624589251E+03  0.13790447528E+03  0.10566000000E+00 0.  1.
         13    1    3    3    0    0  0.33203484661E+03  0.70678161119E+02  0.99825536800E+03  0.10543985645E+04  0.10566000000E+00 0. -1.
          2    1    1    2  502    0  0.24068662008E+01  0.99901748428E+01 -0.91416324086E+02  0.91992069808E+02  0.00000000000E+00 0. -1.
         -4    1    3    3    0  502 -0.33200633356E+03 -0.65158273009E+01 -0.28803313943E+02  0.33331710491E+03  0.00000000000E+00 0. -1.
</event>
<event>
 7    1  0.4894942E-006  0.1006921E+04  0.7818608E-02  0.9281454E-01
          2   -1    0    0  501    0  0.00000000000E+00  0.00000000000E+00  0.49060937567E+03  0.49060937567E+03  0.00000000000E+00 0.  1.
         -4   -1    0    0    0  501 -0.00000000000E+00 -0.00000000000E+00 -0.20585413724E+04  0.20585413724E+04  0.00000000000E+00 0. -1.
   -9000010    2    1    2    0  502  0.27990820168E+02  0.18068118239E+03 -0.14034771467E+04  0.17320086084E+04  0.99833688839E+03 0.  0.
        -13    1    1    2    0    0 -0.10385818393E+03 -0.73645653576E+02 -0.46876911548E+03  0.48575168497E+03  0.10566000000E+00 0.  1.
         13    1    3    3    0    0  0.45734094747E+03  0.98307127172E+02 -0.11124981781E+04  0.12068459889E+04  0.10566000000E+00 0. -1.
          2    1    1    2  502    0  0.75867363764E+02 -0.10703552881E+03  0.30431426543E+03  0.33139045468E+03  0.00000000000E+00 0.  1.
         -4    1    3    3    0  502 -0.42935012730E+03  0.82374055215E+02 -0.29097896857E+03  0.52516261951E+03  0.00000000000E+00 0. -1.
</event>
<event>
 7    1  0.4894942E-006  0.1099034E+04  0.7818608E-02  0.8894856E-01
         -4   -1    0    0    0  501 -0.00000000000E+00  0.00000000000E+00  0.66688625011E+03  0.66688625011E+03  0.00000000000E+00 0. -1.
          1   -1    0    0  501    0  0.00000000000E+00 -0.00000000000E+00 -0.17181458100E+04  0.17181458100E+04  0.00000000000E+00 0. -1.
   -9000010    2    1    2    0  502 -0.28706573384E+03 -0.34171021257E+03 -0.15247986651E+03  0.11062136322E+04  0.10006427362E+04 0.  0.
        -13    1    1    2    0    0  0.29667017443E+03  0.34910763228E+03 -0.86233612116E+02  0.46618191550E+03  0.10566000000E+00 0.  1.
         13    1    3    3    0    0 -0.24683676824E+03 -0.63235973821E+03 -0.33875627515E+03  0.75865872023E+03  0.10566000000E+00 0. -1.
          1    1    1    2  502    0 -0.96044405969E+01 -0.73974197121E+01 -0.81254608125E+03  0.81263651238E+03  0.00000000000E+00 0. -1.
         -4    1    3    3    0  502 -0.40228965601E+02  0.29064952564E+03  0.18627640864E+03  0.34755491199E+03  0.00000000000E+00 0. -1.
</event>
<event>
 7    1  0.4894942E-006  0.1030423E+04  0.7818608E-02  0.9078590E-01
         -4   -1    0    0    0  501 -0.00000000000E+00  0.00000000000E+00  0.26587301338E+04  0.26587301338E+04  0.00000000000E+00 0. -1.
          2   -1    0    0  501    0  0.00000000000E+00 -0.00000000000E+00 -0.57373105023E+03  0.57373105023E+03  0.00000000000E+00 0. -1.
   -9000010    2    1    2    0  502 -0.24372605513E+02  0.26345275745E+03  0.10812512076E+04  0.14941354411E+04  0.99666201039E+03 0.  0.
        -13    1    1    2    0    0  0.16492166497E+01 -0.26147531745E+03  0.13581996851E+04  0.13831407945E+04  0.10566000000E+00 0.  1.
         13    1    3    3    0    0 -0.15480946377E+03  0.51331657093E+03  0.20557303626E+03  0.57421264046E+03  0.10566000000E+00 0. -1.
          2    1    1    2  502    0  0.22723388863E+02 -0.19774399982E+01 -0.35445180913E+03  0.35518494853E+03  0.00000000000E+00 0. -1.
         -4    1    3    3    0  502  0.13043685826E+03 -0.24986381348E+03  0.87567817134E+03  0.91992280059E+03  0.00000000000E+00 0. -1.
</event>
<event>
 7    1  0.4894942E-006  0.1032618E+04  0.7818608E-02  0.9068098E-01
          4   -1    0    0  501    0 -0.00000000000E+00  0.00000000000E+00  0.14726085726E+04  0.14726085726E+04  0.00000000000E+00 0.  1.
          2   -1    0    0  502    0  0.00000000000E+00 -0.00000000000E+00 -0.92694138800E+03  0.92694138800E+03  0.00000000000E+00 0.  1.
    9000010    2    1    2  502    0 -0.10686837429E+03  0.23464197325E+03  0.10112986956E+04  0.14429301215E+04  0.99641586638E+03 0.  0.
        -13    1    3    3    0    0 -0.20077217328E+03 -0.29173084821E+03  0.70920080015E+02  0.36117311954E+03  0.10566000000E+00 0.  1.
         13    1    1    2    0    0  0.10991795641E+03 -0.25292299931E+03  0.16786797750E+03  0.32284929883E+03  0.10566000000E+00 0. -1.
          2    1    1    2  501    0 -0.30495821287E+01  0.18281026061E+02 -0.63349948847E+03  0.63377054031E+03  0.00000000000E+00 0.  1.
          4    1    3    3  502    0  0.93903798991E+02  0.52637282146E+03  0.94037861559E+03  0.10817570020E+04  0.00000000000E+00 0.  1.
</event>
<event>
 7    1  0.4894942E-006  0.1246577E+04  0.7818608E-02  0.8740829E-01
          2   -1    0    0  501    0  0.00000000000E+00  0.00000000000E+00  0.29452577881E+04  0.29452577881E+04  0.00000000000E+00 0. -1.
         -4   -1    0    0    0  501 -0.00000000000E+00 -0.00000000000E+00 -0.93576662847E+03  0.93576662847E+03  0.00000000000E+00 0. -1.
   -9000010    2    1    2    0  502 -0.38326617653E+03  0.56743793463E+03  0.53426552423E+03  0.13973689686E+04  0.10946787713E+04 0.  0.
        -13    1    1    2    0    0  0.22004685719E+03 -0.53981656249E+03 -0.33066367044E+03  0.67019475872E+03  0.10566000000E+00 0.  1.
         13    1    3    3    0    0 -0.48201431722E+03 -0.88941777648E+02  0.54569251981E+03  0.73350445067E+03  0.10566000000E+00 0. -1.
          2    1    1    2  502    0  0.16321931933E+03 -0.27621372141E+02  0.18058893059E+04  0.18134606893E+04  0.00000000000E+00 0. -1.
         -4    1    3    3    0  502  0.98748140692E+02  0.65637971228E+03 -0.11426995582E+02  0.66386451796E+03  0.00000000000E+00 0. -1.
</event>
<event>
 7    1  0.4894942E-006  0.1090013E+04  0.7818608E-02  0.8905224E-01
          2   -1    0    0  501    0  0.00000000000E+00  0.00000000000E+00  0.11281225170E+04  0.11281225170E+04  0.00000000000E+00 0. -1.
         -4   -1    0    0    0  501 -0.00000000000E+00 -0.00000000000E+00 -0.20981345583E+04  0.20981345583E+04  0.00000000000E+00 0. -1.
   -9000010    2    1    2    0  502  0.43482646343E+03 -0.14505371752E+03 -0.77940442504E+03  0.13440631730E+04  0.99444452893E+03 0.  0.
        -13    1    1    2    0    0 -0.41643662781E+03  0.15495510068E+03 -0.98863375944E+03  0.10838944919E+04  0.10566000000E+00 0.  1.
         13    1    3    3    0    0  0.35807023129E+03 -0.94722043071E+02 -0.10207400896E+04  0.10858622830E+04  0.10566000000E+00 0. -1.
          2    1    1    2  502    0 -0.18389835628E+02 -0.99013831625E+01  0.79802614314E+03  0.79829941035E+03  0.00000000000E+00 0. -1.
         -4    1    3    3    0  502  0.76756232143E+02 -0.50331674450E+02  0.24133566457E+03  0.25820089004E+03  0.00000000000E+00 0. -1.
</event>
<event>
 7    1  0.4894942E-006  0.1107523E+04  0.7818608E-02  0.8891913E-01
          4   -1    0    0  501    0 -0.00000000000E+00  0.00000000000E+00  0.75915984554E+03  0.75915984554E+03  0.00000000000E+00 0.  1.
          2   -1    0    0  502    0  0.00000000000E+00 -0.00000000000E+00 -0.13276413399E+04  0.13276413399E+04  0.00000000000E+00 0.  1.
    9000010    2    1    2  502    0 -0.19133675026E+03  0.42398019689E+03 -0.69847233698E+03  0.13148002070E+04  0.10121595821E+04 0.  0.
        -13    1    3    3    0    0 -0.85075445688E+02 -0.33268610535E+03 -0.28348926558E+03  0.44529097343E+03  0.10566000000E+00 0.  1.
         13    1    1    2    0    0  0.21491733408E+03 -0.39309492876E+03  0.33748455120E+03  0.56090009535E+03  0.10566000000E+00 0. -1.
          2    1    1    2  501    0 -0.23580583819E+02 -0.30885268125E+02 -0.20749370855E+03  0.21110088302E+03  0.00000000000E+00 0.  1.
          4    1    3    3  502    0 -0.10626130457E+03  0.75666630224E+03 -0.41498307139E+03  0.86950923361E+03  0.00000000000E+00 0.  1.
</event>
<event>
 7    1  0.4894942E-006  0.1558151E+04  0.7818608E-02  0.8437191E-01
          4   -1    0    0  501    0 -0.00000000000E+00  0.00000000000E+00  0.13972344796E+04  0.13972344796E+04  0.00000000000E+00 0.  1.
          2   -1    0    0  502    0  0.00000000000E+00 -0.00000000000E+00 -0.36277830877E+04  0.36277830877E+04  0.00000000000E+00 0. -1.
    9000010    2    1    2  502    0 -0.80256436697E+03 -0.86356672514E+03 -0.81162141942E+03  0.17577482496E+04  0.10203394183E+04 0.  0.
        -13    1    3    3    0    0 -0.77261378910E+03 -0.22747103420E+03 -0.77840115085E+03  0.11200819172E+04  0.10566000000E+00 0.  1.
         13    1    1    2    0    0  0.82642142806E+03  0.83852776917E+03  0.54899950546E+03  0.12990387464E+04  0.10566000000E+00 0. -1.
          2    1    1    2  501    0 -0.23857061091E+02  0.25038955972E+02 -0.19679266941E+04  0.19682305714E+04  0.00000000000E+00 0. -1.
          4    1    3    3  502    0 -0.29950577870E+02 -0.63609569094E+03 -0.33220268568E+02  0.63766633234E+03  0.00000000000E+00 0.  1.
</event>
<event>
 7    1  0.4894942E-006  0.9505219E+03  0.7818608E-02  0.9119524E-01
         -4   -1    0    0    0  501 -0.00000000000E+00  0.00000000000E+00  0.19372140314E+04  0.19372140314E+04  0.00000000000E+00 0. -1.
          2   -1    0    0  501    0  0.00000000000E+00 -0.00000000000E+00 -0.96263220944E+03  0.96263220944E+03  0.00000000000E+00 0. -1.
   -9000010    2    1    2    0  502  0.21656908206E+02 -0.19209626161E+03  0.10568199502E+04  0.14062036114E+04  0.90728727212E+03 0.  0.
        -13    1    1    2    0    0 -0.18917558313E+03  0.24019568719E+03  0.66203952415E+03  0.72923090451E+03  0.10566000000E+00 0.  1.
         13    1    3    3    0    0 -0.19853651365E+03  0.12353686753E+02 -0.91692660844E+02  0.21903633499E+03  0.10566000000E+00 0. -1.
          2    1    1    2  502    0  0.16751867493E+03 -0.48099425579E+02 -0.74427765245E+03  0.76441172488E+03  0.00000000000E+00 0. -1.
         -4    1    3    3    0  502  0.22019342186E+03 -0.20444994836E+03  0.11485126111E+04  0.11871672764E+04  0.00000000000E+00 0. -1.
</event>
<event>
 7    1  0.4894942E-006  0.1135928E+04  0.7818608E-02  0.8782235E-01
          1   -1    0    0  501    0  0.00000000000E+00  0.00000000000E+00  0.22369841034E+04  0.22369841034E+04  0.00000000000E+00 0. -1.
         -4   -1    0    0    0  501 -0.00000000000E+00 -0.00000000000E+00 -0.10228401935E+04  0.10228401935E+04  0.00000000000E+00 0. -1.
   -9000010    2    1    2    0  502  0.23530110971E+03  0.31965434511E+03  0.53835041189E+03  0.11231557526E+04  0.90228164449E+03 0.  0.
        -13    1    1    2    0    0 -0.30999413732E+03  0.58315750520E+03 -0.36683009810E+03  0.75546897559E+03  0.10566000000E+00 0.  1.
         13    1    3    3    0    0  0.47732917452E+03  0.35645432015E+03  0.76757328809E+02  0.60066173667E+03  0.10566000000E+00 0. -1.
          1    1    1    2  502    0  0.74693027604E+02 -0.90281185031E+03  0.10426235961E+04  0.13811995687E+04  0.00000000000E+00 0. -1.
         -4    1    3    3    0  502 -0.24202806481E+03 -0.36799975037E+02  0.46159308308E+03  0.52249401592E+03  0.00000000000E+00 0. -1.
</event>
<event>
 7    1  0.4894942E-006  0.1095436E+04  0.7818608E-02  0.8897238E-01
          4   -1    0    0  501    0 -0.00000000000E+00  0.00000000000E+00  0.51085276766E+03  0.51085276766E+03  0.00000000000E+00 0.  1.
          2   -1    0    0  502    0  0.00000000000E+00 -0.00000000000E+00 -0.12715818604E+04  0.12715818604E+04  0.00000000000E+00 0. -1.
    9000010    2    1    2  502    0 -0.37224225515E+03 -0.27369484206E+03 -0.34300713868E+03  0.11508820152E+04  0.99669571719E+03 0.  0.
        -13    1    3    3    0    0 -0.68343454067E+03 -0.22966073238E+03 -0.52508960331E+02  0.72289973403E+03  0.10566000000E+00 0.  1.
         13    1    1    2    0    0  0.36162561519E+03  0.26732937921E+03 -0.37031397141E+03  0.58255517433E+03  0.10566000000E+00 0. -1.
          2    1    1    2  501    0  0.10616639960E+02  0.63654628548E+01 -0.47407982686E+02  0.48997438543E+02  0.00000000000E+00 0. -1.
          4    1    3    3  502    0  0.31119228552E+03 -0.44034109686E+02 -0.29049817835E+03  0.42798228119E+03  0.00000000000E+00 0.  1.
</event>
<event>
 7    1  0.4894942E-006  0.1054598E+04  0.7818608E-02  0.8994700E-01
         -4   -1    0    0    0  501 -0.00000000000E+00  0.00000000000E+00  0.14330405740E+04  0.14330405740E+04  0.00000000000E+00 0. -1.
          1   -1    0    0  501    0  0.00000000000E+00 -0.00000000000E+00 -0.14994520057E+04  0.14994520057E+04  0.00000000000E+00 0.  1.
   -9000010    2    1    2    0  502  0.32944841028E+03 -0.36047773616E+02  0.10908300565E+04  0.15149813607E+04  0.99770868186E+03 0.  0.
        -13    1    1    2    0    0 -0.35343703822E+03 -0.14970111535E+03 -0.18262998456E+03  0.42506691984E+03  0.10566000000E+00 0.  1.
         13    1    3    3    0    0  0.14901343033E+03  0.35556228037E+03  0.50477058452E+02  0.38881548610E+03  0.10566000000E+00 0. -1.
          1    1    1    2  502    0  0.23988627933E+02  0.18574888896E+03 -0.97461150370E+03  0.99244429928E+03  0.00000000000E+00 0.  1.
         -4    1    3    3    0  502  0.18043497995E+03 -0.39161005398E+03  0.10403529981E+04  0.11261658746E+04  0.00000000000E+00 0. -1.
</event>
<event>
 7    1  0.1141360E-005  0.1379997E+04  0.7818608E-02  0.8697618E-01
          4   -1    0    0  501    0 -0.00000000000E+00  0.00000000000E+00  0.11523490571E+04  0.11523490571E+04  0.00000000000E+00 0.  1.
          2   -1    0    0  502    0  0.00000000000E+00 -0.00000000000E+00 -0.23886831789E+04  0.23886831789E+04  0.00000000000E+00 0. -1.
    9000010    2    1    2  502    0  0.30800701997E+03  0.45129925650E+03 -0.14530663661E+03  0.13941373800E+04  0.12743491171E+04 0.  0.
        -13    1    3    3    0    0  0.25879639629E+03  0.50881969803E+03  0.49123113982E+03  0.75311427003E+03  0.10566000000E+00 0.  1.
         13    1    1    2    0    0 -0.24648802950E+03 -0.46599675392E+03  0.39549093177E+03  0.65903141930E+03  0.10566000000E+00 0. -1.
          2    1    1    2  501    0 -0.61518990475E+02  0.14697497421E+02 -0.14865184169E+04  0.14878634368E+04  0.00000000000E+00 0. -1.
          4    1    3    3  502    0  0.49210623678E+02 -0.57520441527E+02 -0.63653777643E+03  0.64102310996E+03  0.00000000000E+00 0.  1.
</event>
<event>
 7    1  0.4894942E-006  0.1023108E+04  0.7818608E-02  0.9229115E-01
          1   -1    0    0  501    0  0.00000000000E+00  0.00000000000E+00  0.14167215892E+04  0.14167215892E+04  0.00000000000E+00 0. -1.
         -4   -1    0    0    0  501 -0.00000000000E+00 -0.00000000000E+00 -0.38190555969E+03  0.38190555969E+03  0.00000000000E+00 0. -1.
   -9000010    2    1    2    0  502 -0.20832406162E+03 -0.85512133915E+02  0.89602694037E+03  0.13698203497E+04  0.10113517058E+04 0.  0.
        -13    1    1    2    0    0  0.63835733807E+02  0.13384936269E+03 -0.75081075951E+02  0.16621622043E+03  0.10566000000E+00 0.  1.
         13    1    3    3    0    0  0.89467576000E+02 -0.50664509189E+03  0.37476458987E+03  0.63650782028E+03  0.10566000000E+00 0. -1.
          1    1    1    2  502    0  0.14448832781E+03 -0.48337228772E+02  0.21387016514E+03  0.26259057884E+03  0.00000000000E+00 0. -1.
         -4    1    3    3    0  502 -0.29779163762E+03  0.42113295798E+03  0.52126235050E+03  0.73331252940E+03  0.00000000000E+00 0. -1.
</event>
<event>
 7    1  0.4894942E-006  0.1054105E+04  0.7818608E-02  0.9007158E-01
          4   -1    0    0  501    0 -0.00000000000E+00  0.00000000000E+00  0.16630699710E+04  0.16630699710E+04  0.00000000000E+00 0.  1.
          2   -1    0    0  502    0  0.00000000000E+00 -0.00000000000E+00 -0.14849434416E+04  0.14849434416E+04  0.00000000000E+00 0.  1.
    9000010    2    1    2  502    0  0.19231703623E+03  0.31904567305E+03  0.29386551474E+03  0.11092401669E+04  0.10026369348E+04 0.  0.
        -13    1    3    3    0    0 -0.40045360145E+02 -0.60623579298E+02 -0.33276282465E+03  0.34060234566E+03  0.10566000000E+00 0.  1.
         13    1    1    2    0    0 -0.21733056630E+03 -0.23849314198E+03  0.93270607862E+03  0.98694082603E+03  0.10566000000E+00 0. -1.
          2    1    1    2  501    0  0.25013530066E+02 -0.80552531073E+02 -0.10484450640E+04  0.10518324197E+04  0.00000000000E+00 0.  1.
          4    1    3    3  502    0  0.23236239638E+03  0.37966925235E+03  0.62662833939E+03  0.76863782119E+03  0.00000000000E+00 0.  1.
</event>
<event>
 7    1  0.4894942E-006  0.1040449E+04  0.7818608E-02  0.9099592E-01
         -4   -1    0    0    0  501 -0.00000000000E+00  0.00000000000E+00  0.19149511364E+04  0.19149511364E+04  0.00000000000E+00 0. -1.
          2   -1    0    0  501    0  0.00000000000E+00 -0.00000000000E+00 -0.69183783042E+03  0.69183783042E+03  0.00000000000E+00 0.  1.
   -9000010    2    1    2    0  502 -0.20871277166E+03 -0.14568689210E+03  0.88565211783E+03  0.13700508774E+04  0.10138412308E+04 0.  0.
        -13    1    1    2    0    0  0.19824126624E+03  0.12120616254E+03  0.76953231099E+03  0.80384732524E+03  0.10566000000E+00 0.  1.
         13    1    3    3    0    0 -0.16034552145E+03  0.23197857313E+03 -0.11106562260E+03  0.30308468837E+03  0.10566000000E+00 0. -1.
          2    1    1    2  502    0  0.10471505423E+02  0.24480729561E+02 -0.43207112281E+03  0.43289076418E+03  0.00000000000E+00 0.  1.
         -4    1    3    3    0  502 -0.48367250214E+02 -0.37766546522E+03  0.99671774044E+03  0.10669661891E+04  0.00000000000E+00 0. -1.
</event>
<event>
 7    1  0.4894942E-006  0.1024580E+04  0.7818608E-02  0.9132689E-01
          4   -1    0    0  501    0 -0.00000000000E+00  0.00000000000E+00  0.35037385747E+03  0.35037385747E+03  0.00000000000E+00 0.  1.
          2   -1    0    0  502    0  0.00000000000E+00 -0.00000000000E+00 -0.29927032031E+04  0.29927032031E+04  0.00000000000E+00 0.  1.
    9000010    2    1    2  502    0 -0.12767343604E+03  0.22950905149E+03 -0.21207553981E+04  0.23601223773E+04  0.10017980167E+04 0.  0.
        -13    1    3    3    0    0  0.52486445332E+00 -0.38653659354E+03 -0.10402942084E+04  0.11097850535E+04  0.10566000000E+00 0.  1.
         13    1    1    2    0    0  0.97534628541E+02 -0.19026124851E+03  0.18009249528E+03  0.27954546047E+03  0.10566000000E+00 0. -1.
          2    1    1    2  501    0  0.30138807498E+02 -0.39247802980E+02 -0.70166644284E+03  0.70340922283E+03  0.00000000000E+00 0.  1.
          4    1    3    3  502    0 -0.12819830049E+03  0.61604564503E+03 -0.10804611896E+04  0.12503373238E+04  0.00000000000E+00 0.  1.
</event>
<event>
 7    1  0.4894942E-006  0.1068962E+04  0.7818608E-02  0.8953651E-01
          2   -1    0    0  501    0  0.00000000000E+00  0.00000000000E+00  0.43574783578E+03  0.43574783578E+03  0.00000000000E+00 0. -1.
         -4   -1    0    0    0  501 -0.00000000000E+00 -0.00000000000E+00 -0.15813994089E+04  0.15813994089E+04  0.00000000000E+00 0. -1.
   -9000010    2    1    2    0  502 -0.15374597981E+03 -0.34623392443E+03 -0.90748491662E+03  0.13997697817E+04  0.99614798663E+03 0.  0.
        -13    1    1    2    0    0  0.16498857873E+03  0.35452698503E+03 -0.33781835645E+03  0.51675126255E+03  0.10566000000E+00 0.  1.
         13    1    3    3    0    0  0.25922468178E+03 -0.31016227862E+03 -0.23610727680E+01  0.40423218644E+03  0.10566000000E+00 0. -1.
          2    1    1    2  502    0 -0.11242598920E+02 -0.82930606048E+01  0.99651699991E+02  0.10062620034E+03  0.00000000000E+00 0. -1.
         -4    1    3    3    0  502 -0.41297066159E+03 -0.36071645802E+02 -0.90512384385E+03  0.99553759531E+03  0.00000000000E+00 0. -1.
</event>
<event>
 7    1  0.4894942E-006  0.1131016E+04  0.7818608E-02  0.8837820E-01
          2   -1    0    0  501    0  0.00000000000E+00  0.00000000000E+00  0.56761499711E+03  0.56761499711E+03  0.00000000000E+00 0.  1.
         -4   -1    0    0    0  501 -0.00000000000E+00 -0.00000000000E+00 -0.35500198531E+04  0.35500198531E+04  0.00000000000E+00 0. -1.
   -9000010    2    1    2    0  502  0.45264502010E+03  0.19085188315E+03 -0.19920791062E+04  0.22823201448E+04  0.99964699895E+03 0.  0.
        -13    1    1    2    0    0 -0.51771783276E+03 -0.16460916225E+03 -0.13571487113E+04  0.14618414984E+04  0.10566000000E+00 0.  1.
         13    1    3    3    0    0  0.14067123280E+03  0.57889977377E+03 -0.12973256157E+04  0.14275738538E+04  0.10566000000E+00 0. -1.
          2    1    1    2  502    0  0.65072812665E+02 -0.26242720896E+02  0.36682296145E+03  0.37347320707E+03  0.00000000000E+00 0.  1.
         -4    1    3    3    0  502  0.31197378729E+03 -0.38804789062E+03 -0.69475349045E+03  0.85474629094E+03  0.00000000000E+00 0. -1.
</event>
<event>
 7    1  0.4894942E-006  0.1160705E+04  0.7818608E-02  0.8798020E-01
          2   -1    0    0  502    0  0.00000000000E+00  0.00000000000E+00  0.14977457038E+04  0.14977457038E+04  0.00000000000E+00 0.  1.
          4   -1    0    0  501    0 -0.00000000000E+00 -0.00000000000E+00 -0.18245568454E+04  0.18245568454E+04  0.00000000000E+00 0.  1.
    9000010    2    1    2  502    0 -0.36970223419E+03 -0.44688192210E+03 -0.73296072451E+03  0.13732034385E+04  0.10060184220E+04 0.  0.
        -13    1    3    3    0    0  0.32687405070E+03 -0.28517148396E+03 -0.18176631666E+03  0.47032799760E+03  0.10566000000E+00 0.  1.
         13    1    1    2    0    0  0.27109102812E+03  0.51470331893E+03 -0.65797793382E+03  0.87826238939E+03  0.10566000000E+00 0. -1.
          2    1    1    2  501    0  0.98611206068E+02 -0.67821396833E+02  0.10641275168E+04  0.10708367213E+04  0.00000000000E+00 0.  1.
          4    1    3    3  502    0 -0.69657628489E+03 -0.16171043814E+03 -0.55119440785E+03  0.90287544087E+03  0.00000000000E+00 0.  1.
</event>
<event>
 7    1  0.1556537E-005  0.1316976E+04  0.7818608E-02  0.8617331E-01
         -4   -1    0    0    0  501 -0.00000000000E+00  0.00000000000E+00  0.11058485027E+04  0.11058485027E+04  0.00000000000E+00 0. -1.
          4   -1    0    0  501    0  0.00000000000E+00 -0.00000000000E+00 -0.17513682778E+04  0.17513682778E+04  0.00000000000E+00 0.  1.
   -9000010    2    1    2    0  502  0.92143570082E+03 -0.55996380135E+02  0.44805106204E+01  0.13554947953E+04  0.99255565077E+03 0.  0.
        -13    1    1    2    0    0 -0.78872901416E+03  0.29868015487E+03 -0.54532937796E+02  0.84514918515E+03  0.10566000000E+00 0.  1.
         13    1    3    3    0    0  0.82789870964E+02 -0.42465682318E+03 -0.61602720195E+02  0.43701543052E+03  0.10566000000E+00 0. -1.
          4    1    1    2  502    0 -0.13270668666E+03 -0.24268377473E+03 -0.59546734797E+03  0.65657280000E+03  0.00000000000E+00 0.  1.
         -4    1    3    3    0  502  0.83864582986E+03  0.36866044305E+03  0.66083230816E+02  0.91847936482E+03  0.00000000000E+00 0. -1.
</event>
<event>
 7    1  0.4894942E-006  0.9817136E+03  0.7818608E-02  0.8917455E-01
         -4   -1    0    0    0  501 -0.00000000000E+00  0.00000000000E+00  0.14358948336E+04  0.14358948336E+04  0.00000000000E+00 0. -1.
          4   -1    0    0  501    0  0.00000000000E+00 -0.00000000000E+00 -0.60297724317E+03  0.60297724317E+03  0.00000000000E+00 0.  1.
   -9000010    2    1    2    0  502 -0.38496788691E+03 -0.41473000958E+03  0.18525813838E+03  0.99040489308E+03  0.79144173481E+03 0.  0.
        -13    1    1    2    0    0  0.37360243219E+03  0.44988534021E+03  0.74340107549E+03  0.94584394425E+03  0.10566000000E+00 0.  1.
         13    1    3    3    0    0 -0.48405207716E+03 -0.49091959000E+03  0.35827618648E+03  0.77696222187E+03  0.10566000000E+00 0. -1.
          4    1    1    2  502    0  0.11365454719E+02 -0.35155330629E+02 -0.95741623390E+02  0.10262323948E+03  0.00000000000E+00 0.  1.
         -4    1    3    3    0  502  0.99084190253E+02  0.76189580420E+02 -0.17301804810E+03  0.21344267121E+03  0.00000000000E+00 0. -1.
</event>
<event>
 7    1  0.4894942E-006  0.1038418E+04  0.7818608E-02  0.9006238E-01
          2   -1    0    0  501    0  0.00000000000E+00  0.00000000000E+00  0.38100247097E+03  0.38100247097E+03  0.00000000000E+00 0. -1.
         -4   -1    0    0    0  501 -0.00000000000E+00 -0.00000000000E+00 -0.23339106961E+04  0.23339106961E+04  0.00000000000E+00 0. -1.
   -9000010    2    1    2    0  502 -0.16580168239E+02  0.33895331791E+03 -0.97025867237E+03  0.14206310066E+04  0.98062546975E+03 0.  0.
        -13    1    1    2    0    0 -0.12178891808E+03 -0.32266960507E+03 -0.10737751967E+04  0.11278037945E+04  0.10566000000E+00 0.  1.
         13    1    3    3    0    0  0.14777731609E+03  0.18854983104E+03  0.14720614374E+03  0.28117402770E+03  0.10566000000E+00 0. -1.
          2    1    1    2  502    0  0.13836908632E+03 -0.16283712830E+02  0.91125643956E+02  0.16647836598E+03  0.00000000000E+00 0. -1.
         -4    1    3    3    0  502 -0.16435748433E+03  0.15040348687E+03 -0.11174648161E+04  0.11394569789E+04  0.00000000000E+00 0. -1.
</event>
<event>
 7    1  0.4894942E-006  0.1038967E+04  0.7818608E-02  0.9103346E-01
          2   -1    0    0  502    0  0.00000000000E+00  0.00000000000E+00  0.27930550174E+04  0.27930550174E+04  0.00000000000E+00 0. -1.
          4   -1    0    0  501    0 -0.00000000000E+00 -0.00000000000E+00 -0.94689778336E+03  0.94689778336E+03  0.00000000000E+00 0.  1.
    9000010    2    1    2  502    0 -0.17667773188E+02 -0.33991540072E+03 -0.17934306381E+03  0.10834920575E+04  0.10128852227E+04 0.  0.
        -13    1    3    3    0    0  0.57995909377E+02 -0.20398805631E+03  0.41665726878E+03  0.46752320093E+03  0.10566000000E+00 0.  1.
         13    1    1    2    0    0  0.23262578352E+02  0.22069121659E+03 -0.27471617308E+03  0.35314975230E+03  0.10566000000E+00 0. -1.
          2    1    1    2  501    0 -0.55948051642E+01  0.11922418413E+03  0.23002164709E+04  0.23033109910E+04  0.00000000000E+00 0. -1.
          4    1    3    3  502    0 -0.75663682564E+02 -0.13592734441E+03 -0.59600033259E+03  0.61596885657E+03  0.00000000000E+00 0.  1.
</event>
<event>
 7    1  0.4894942E-006  0.1051643E+04  0.7818608E-02  0.8987869E-01
          2   -1    0    0  501    0  0.00000000000E+00  0.00000000000E+00  0.11603083175E+04  0.11603083175E+04  0.00000000000E+00 0. -1.
         -4   -1    0    0    0  501 -0.00000000000E+00 -0.00000000000E+00 -0.18336592852E+04  0.18336592852E+04  0.00000000000E+00 0. -1.
   -9000010    2    1    2    0  502  0.11934065949E+03 -0.13287241126E+03 -0.37631669571E+03  0.10742272049E+04  0.99017804545E+03 0.  0.
        -13    1    1    2    0    0 -0.10668443740E+03  0.35601808407E+03 -0.10607585235E+04  0.11239835860E+04  0.10566000000E+00 0.  1.
         13    1    3    3    0    0  0.28957194761E+03  0.17449399197E+03 -0.57762076322E+03  0.66928754908E+03  0.10566000000E+00 0. -1.
          2    1    1    2  502    0 -0.12656222093E+02 -0.22314567281E+03  0.76372425142E+03  0.79575681176E+03  0.00000000000E+00 0. -1.
         -4    1    3    3    0  502 -0.17023128813E+03 -0.30736640323E+03  0.20130406752E+03  0.40493965586E+03  0.00000000000E+00 0. -1.
</event>
<event>
 7    1  0.4894942E-006  0.1090517E+04  0.7818608E-02  0.8906023E-01
          1   -1    0    0  501    0  0.00000000000E+00  0.00000000000E+00  0.55180491579E+03  0.55180491579E+03  0.00000000000E+00 0. -1.
         -4   -1    0    0    0  501 -0.00000000000E+00 -0.00000000000E+00 -0.22975619262E+04  0.22975619262E+04  0.00000000000E+00 0. -1.
   -9000010    2    1    2    0  502 -0.39330381466E+03  0.19872613981E+03 -0.38466268898E+03  0.11549997505E+04  0.99593125767E+03 0.  0.
        -13    1    1    2    0    0  0.39137561400E+03 -0.21083373602E+03 -0.14951052015E+04  0.15597965605E+04  0.10566000000E+00 0.  1.
         13    1    3    3    0    0  0.21746229186E+03 -0.21263521644E+03 -0.27588744356E+03  0.41063058378E+03  0.10566000000E+00 0. -1.
          1    1    1    2  502    0  0.19282006605E+01  0.12107596208E+02  0.13401088006E+03  0.13457053102E+03  0.00000000000E+00 0. -1.
         -4    1    3    3    0  502 -0.61076610652E+03  0.41136135625E+03 -0.10877524542E+03  0.74436916669E+03  0.00000000000E+00 0. -1.
</event>
<event>
 7    1  0.4894942E-006  0.1039245E+04  0.7818608E-02  0.9018005E-01
          2   -1    0    0  501    0  0.00000000000E+00  0.00000000000E+00  0.78996010591E+03  0.78996010591E+03  0.00000000000E+00 0. -1.
         -4   -1    0    0    0  501 -0.00000000000E+00 -0.00000000000E+00 -0.85036322068E+03  0.85036322068E+03  0.00000000000E+00 0. -1.
   -9000010    2    1    2    0  502 -0.14618414069E+03 -0.32537192543E+03 -0.26207020461E+03  0.10818217503E+04  0.98712755728E+03 0.  0.
        -13    1    1    2    0    0  0.15318960980E+03  0.27457535200E+03 -0.34984495534E+02  0.31635835151E+03  0.10566000000E+00 0.  1.
         13    1    3    3    0    0 -0.38787138095E+03 -0.50788911652E+03  0.57374140878E+02  0.64162868237E+03  0.10566000000E+00 0. -1.
          2    1    1    2  502    0 -0.70054691103E+01  0.50796573431E+02  0.23665158538E+03  0.24214322483E+03  0.00000000000E+00 0. -1.
         -4    1    3    3    0  502  0.24168724026E+03  0.18251719109E+03 -0.31944434549E+03  0.44019306788E+03  0.00000000000E+00 0. -1.
</event>
<event>
 7    1  0.4894942E-006  0.1008307E+04  0.7818608E-02  0.9683062E-01
          2   -1    0    0  502    0  0.00000000000E+00  0.00000000000E+00  0.28351493420E+04  0.28351493420E+04  0.00000000000E+00 0.  1.
          4   -1    0    0  501    0 -0.00000000000E+00 -0.00000000000E+00 -0.36142540959E+03  0.36142540959E+03  0.00000000000E+00 0.  1.
    9000010    2    1    2  502    0 -0.28549681743E+02  0.54195143325E+02  0.39408511458E+03  0.10821766315E+04  0.10060074484E+04 0.  0.
        -13    1    3    3    0    0  0.93558619274E+02  0.20605549704E+03  0.69095257806E+03  0.72706778184E+03  0.10566000000E+00 0.  1.
         13    1    1    2    0    0  0.25833740350E+02  0.13832421634E+02 -0.40629631164E+01  0.29584402344E+02  0.10566000000E+00 0. -1.
          2    1    1    2  501    0  0.27159413922E+01 -0.68027564959E+02  0.20837017810E+04  0.20848137178E+04  0.00000000000E+00 0.  1.
          4    1    3    3  502    0 -0.12210830102E+03 -0.15186035371E+03 -0.29686746348E+03  0.35510884962E+03  0.00000000000E+00 0.  1.
</event>
<event>
 7    1  0.4894942E-006  0.1095579E+04  0.7818608E-02  0.8926973E-01
          2   -1    0    0  501    0  0.00000000000E+00  0.00000000000E+00  0.10398478120E+04  0.10398478120E+04  0.00000000000E+00 0.  1.
         -4   -1    0    0    0  501 -0.00000000000E+00 -0.00000000000E+00 -0.21636179672E+04  0.21636179672E+04  0.00000000000E+00 0. -1.
   -9000010    2    1    2    0  502 -0.40380495135E+03  0.34959289030E+02 -0.16565169371E+04  0.19867419713E+04  0.10192225993E+04 0.  0.
        -13    1    1    2    0    0  0.39658867358E+03 -0.48047318573E+02 -0.22522560787E+03  0.45860408463E+03  0.10566000000E+00 0.  1.
         13    1    3    3    0    0 -0.59945595521E+02 -0.47659060166E+03 -0.71022130904E+03  0.85740678501E+03  0.10566000000E+00 0. -1.
          2    1    1    2  502    0  0.72162777720E+01  0.13088029543E+02  0.75797238975E+03  0.75811972327E+03  0.00000000000E+00 0.  1.
         -4    1    3    3    0  502 -0.34385935583E+03  0.51154989069E+03 -0.94629562806E+03  0.11293351863E+04  0.00000000000E+00 0. -1.
</event>
<event>
 7    1  0.4894942E-006  0.1164675E+04  0.7818608E-02  0.8837082E-01
         -4   -1    0    0    0  501 -0.00000000000E+00  0.00000000000E+00  0.17406858833E+04  0.17406858833E+04  0.00000000000E+00 0. -1.
          1   -1    0    0  501    0  0.00000000000E+00 -0.00000000000E+00 -0.12519753018E+04  0.12519753018E+04  0.00000000000E+00 0. -1.
   -9000010    2    1    2    0  502  0.14889807055E+03  0.89786838388E+03  0.46323178383E+03  0.14226665811E+04  0.99048384402E+03 0.  0.
        -13    1    1    2    0    0 -0.34222136298E+03 -0.34508847311E+03  0.58466475015E+03  0.76028573364E+03  0.10566000000E+00 0.  1.
         13    1    3    3    0    0 -0.23771925180E+03  0.85508659549E+03  0.52143645564E+03  0.10293587892E+04  0.10566000000E+00 0. -1.
          1    1    1    2  502    0  0.19332329243E+03 -0.55277991077E+03 -0.55918595247E+03  0.80970887026E+03  0.00000000000E+00 0. -1.
         -4    1    3    3    0  502  0.38661732234E+03  0.42781788394E+02 -0.58204671813E+02  0.39330779191E+03  0.00000000000E+00 0. -1.
</event>
<event>
 7    1  0.4894942E-006  0.1024407E+04  0.7818608E-02  0.9196632E-01
          4   -1    0    0  501    0  0.00000000000E+00  0.00000000000E+00  0.23725510635E+04  0.23725510635E+04  0.00000000000E+00 0. -1.
         -4   -1    0    0    0  501 -0.00000000000E+00 -0.00000000000E+00 -0.48375877079E+03  0.48375877079E+03  0.00000000000E+00 0. -1.
   -9000010    2    1    2    0  502  0.20672299421E+03  0.48751783034E+02  0.10683105694E+03  0.10382122698E+04  0.10106239210E+04 0.  0.
        -13    1    1    2    0    0 -0.14536077858E+03  0.13896080807E+02  0.30108079686E+03  0.33462294365E+03  0.10566000000E+00 0.  1.
         13    1    3    3    0    0  0.49120873579E+03  0.95705345559E+02 -0.26611800949E+03  0.56680185376E+03  0.10566000000E+00 0. -1.
          4    1    1    2  502    0 -0.61362215633E+02 -0.62647863841E+02  0.14808804389E+04  0.14834746209E+04  0.00000000000E+00 0. -1.
         -4    1    3    3    0  502 -0.28448574158E+03 -0.46953562525E+02  0.37294906643E+03  0.47141041603E+03  0.00000000000E+00 0. -1.
</event>
<event>
 7    1  0.4894942E-006  0.1029430E+04  0.7818608E-02  0.9019950E-01
         -4   -1    0    0    0  501 -0.00000000000E+00  0.00000000000E+00  0.11980965552E+04  0.11980965552E+04  0.00000000000E+00 0. -1.
          2   -1    0    0  501    0  0.00000000000E+00 -0.00000000000E+00 -0.63837956353E+03  0.63837956353E+03  0.00000000000E+00 0. -1.
   -9000010    2    1    2    0  502 -0.22008536237E+03  0.37726020798E+03  0.45733398189E+03  0.11617164182E+04  0.97450902205E+03 0.  0.
        -13    1    1    2    0    0  0.12566313575E+03 -0.28606917993E+03  0.30285036090E+03  0.43513808343E+03  0.10566000000E+00 0.  1.
         13    1    3    3    0    0 -0.15234237660E+02  0.59921244350E+03 -0.16696324062E+02  0.59963856851E+03  0.10566000000E+00 0. -1.
          2    1    1    2  502    0  0.94422226618E+02 -0.91191028054E+02 -0.20046735117E+03  0.23962161706E+03  0.00000000000E+00 0. -1.
         -4    1    3    3    0  502 -0.20485112470E+03 -0.22195223551E+03  0.47403030596E+03  0.56207784969E+03  0.00000000000E+00 0. -1.
</event>
<event>
 7    1  0.4894942E-006  0.1044620E+04  0.7818608E-02  0.9093231E-01
         -4   -1    0    0    0  501 -0.00000000000E+00  0.00000000000E+00  0.15159462674E+04  0.15159462674E+04  0.00000000000E+00 0. -1.
          1   -1    0    0  501    0  0.00000000000E+00 -0.00000000000E+00 -0.75783570330E+03  0.75783570330E+03  0.00000000000E+00 0. -1.
   -9000010    2    1    2    0  502 -0.55074558162E+01 -0.22546907756E+03 -0.89393533116E+02  0.10459285931E+04  0.10174029590E+04 0.  0.
        -13    1    1    2    0    0  0.19970110414E+02  0.23634150842E+03  0.10236559183E+04  0.10507747447E+04  0.10566000000E+00 0.  1.
         13    1    3    3    0    0  0.11327647910E+03  0.22801600388E+03  0.33008313408E+03  0.41686657975E+03  0.10566000000E+00 0. -1.
          1    1    1    2  502    0 -0.14462654598E+02 -0.10872430857E+02 -0.17615182113E+03  0.17707863287E+03  0.00000000000E+00 0. -1.
         -4    1    3    3    0  502 -0.11878393492E+03 -0.45348508144E+03 -0.41947666720E+03  0.62906201332E+03  0.00000000000E+00 0. -1.
</event>
<event>
 7    1  0.4894942E-006  0.1025274E+04  0.7818608E-02  0.9146016E-01
          4   -1    0    0  501    0 -0.00000000000E+00  0.00000000000E+00  0.21288753284E+04  0.21288753284E+04  0.00000000000E+00 0.  1.
          2   -1    0    0  502    0  0.00000000000E+00 -0.00000000000E+00 -0.62033422653E+03  0.62033422653E+03  0.00000000000E+00 0. -1.
    9000010    2    1    2  502    0 -0.38877217629E+02  0.22981540870E+03  0.15905691018E+04  0.18942712868E+04  0.10020115171E+04 0.  0.
        -13    1    3    3    0    0 -0.28137595672E+03  0.42892257390E+03  0.36604510040E+03  0.63018729764E+03  0.10566000000E+00 0.  1.
         13    1    1    2    0    0 -0.15580167812E+03 -0.13090680346E+03  0.33053240097E+03  0.38815259029E+03  0.10566000000E+00 0. -1.
          2    1    1    2  501    0  0.19467889575E+03 -0.98908605241E+02 -0.41256040089E+03  0.46678567782E+03  0.00000000000E+00 0. -1.
          4    1    3    3  502    0  0.24249873909E+03 -0.19910716520E+03  0.12245240014E+04  0.12640839892E+04  0.00000000000E+00 0.  1.
</event>
<event>
 7    1  0.4894942E-006  0.1365553E+04  0.7818608E-02  0.8561863E-01
          2   -1    0    0  502    0  0.00000000000E+00  0.00000000000E+00  0.25906145956E+04  0.25906145956E+04  0.00000000000E+00 0. -1.
          4   -1    0    0  501    0 -0.00000000000E+00 -0.00000000000E+00 -0.11012019180E+04  0.11012019180E+04  0.00000000000E+00 0.  1.
    9000010    2    1    2  502    0 -0.45789414779E+03  0.89946148139E+03 -0.24306378352E+03  0.13983560300E+04  0.93681459039E+03 0.  0.
        -13    1    3    3    0    0 -0.33533012049E+02  0.91673757135E+03 -0.17625375098E+02  0.91751997397E+03  0.10566000000E+00 0.  1.
         13    1    1    2    0    0  0.68460458105E+03 -0.72012828724E+03  0.68505602031E+03  0.12068843957E+04  0.10566000000E+00 0. -1.
          2    1    1    2  501    0 -0.22671043326E+03 -0.17933319415E+03  0.10474204408E+04  0.10865760879E+04  0.00000000000E+00 0. -1.
          4    1    3    3  502    0 -0.42436113574E+03 -0.17276089960E+02 -0.22543840842E+03  0.48083605606E+03  0.00000000000E+00 0.  1.
</event>
<event>
 7    1  0.4894942E-006  0.1189192E+04  0.7818608E-02  0.8758978E-01
         -4   -1    0    0    0  501 -0.00000000000E+00  0.00000000000E+00  0.90137498908E+03  0.90137498908E+03  0.00000000000E+00 0. -1.
          2   -1    0    0  501    0  0.00000000000E+00 -0.00000000000E+00 -0.14527104888E+04  0.14527104888E+04  0.00000000000E+00 0.  1.
   -9000010    2    1    2    0  502  0.59315559397E+03  0.21585473928E+03 -0.63406455892E+03  0.13456211921E+04  0.10051028308E+04 0.  0.
        -13    1    1    2    0    0 -0.59371370209E+03 -0.22915745435E+03  0.35980160171E+03  0.73107202291E+03  0.10566000000E+00 0.  1.
         13    1    3    3    0    0  0.68533689330E+03  0.51536141097E+03 -0.36253055735E+03  0.93097392950E+03  0.10566000000E+00 0. -1.
          2    1    1    2  502    0  0.55810811339E+00  0.13302715073E+02 -0.27707254247E+03  0.27739226288E+03  0.00000000000E+00 0.  1.
         -4    1    3    3    0  502 -0.92181299325E+02 -0.29950667170E+03 -0.27153400157E+03  0.41464726256E+03  0.00000000000E+00 0. -1.
</event>
<event>
 7    1  0.4894942E-006  0.1126337E+04  0.7818608E-02  0.8851100E-01
          2   -1    0    0  502    0  0.00000000000E+00  0.00000000000E+00  0.19677099913E+04  0.19677099913E+04  0.00000000000E+00 0.  1.
          4   -1    0    0  501    0 -0.00000000000E+00 -0.00000000000E+00 -0.15505541653E+04  0.15505541653E+04  0.00000000000E+00 0.  1.
    9000010    2    1    2  502    0 -0.17639375897E+03  0.49668994243E+03 -0.11537301239E+04  0.16188968158E+04  0.10059413721E+04 0.  0.
        -13    1    3    3    0    0  0.14185018357E+03  0.53340508824E+03 -0.11746478645E+04  0.12978598074E+04  0.10566000000E+00 0.  1.
         13    1    1    2    0    0  0.31739447848E+03 -0.37729080988E+03  0.22690589251E+03  0.54274663095E+03  0.10566000000E+00 0. -1.
          2    1    1    2  501    0 -0.14100071951E+03 -0.11939913255E+03  0.13439800574E+04  0.13566207098E+04  0.00000000000E+00 0.  1.
          4    1    3    3  502    0 -0.31824394255E+03 -0.36715145809E+02  0.20917740601E+02  0.32103700841E+03  0.00000000000E+00 0.  1.
</event>
<event>
 7    1  0.4894942E-006  0.1272955E+04  0.7818608E-02  0.8710139E-01
         -4   -1    0    0    0  501 -0.00000000000E+00  0.00000000000E+00  0.25918627272E+04  0.25918627272E+04  0.00000000000E+00 0. -1.
          2   -1    0    0  501    0  0.00000000000E+00 -0.00000000000E+00 -0.13375548052E+04  0.13375548052E+04  0.00000000000E+00 0. -1.
   -9000010    2    1    2    0  502 -0.29081556655E+03  0.55106385385E+03  0.16157758289E+04  0.20520530533E+04  0.11008837992E+04 0.  0.
        -13    1    1    2    0    0  0.34393066504E+03 -0.55155765128E+03  0.61773815579E+03  0.89671878832E+03  0.10566000000E+00 0.  1.
         13    1    3    3    0    0 -0.63308429743E+03  0.64473177878E+02  0.59846894625E+03  0.87356603020E+03  0.10566000000E+00 0. -1.
          2    1    1    2  502    0 -0.53115098484E+02  0.49379743676E+00 -0.97920606270E+03  0.98064569073E+03  0.00000000000E+00 0. -1.
         -4    1    3    3    0  502  0.34226873088E+03  0.48659067597E+03  0.10173068827E+04  0.11784870231E+04  0.00000000000E+00 0. -1.
</event>
<event>
 7    1  0.4894942E-006  0.8812131E+03  0.7818608E-02  0.9221304E-01
          1   -1    0    0  501    0  0.00000000000E+00  0.00000000000E+00  0.37389150939E+04  0.37389150939E+04  0.00000000000E+00 0. -1.
         -4   -1    0    0    0  501 -0.00000000000E+00 -0.00000000000E+00 -0.96881023373E+02  0.96881023373E+02  0.00000000000E+00 0. -1.
   -9000010    2    1    2    0  502  0.14267529274E+03  0.18028818284E+03  0.26784229327E+04  0.28188903741E+04  0.84813528821E+03 0.  0.
        -13    1    1    2    0    0 -0.15880695349E+03 -0.18136452373E+03  0.52174514224E+03  0.57474406788E+03  0.10566000000E+00 0.  1.
         13    1    3    3    0    0  0.11507754406E+03  0.22022329827E+03  0.15050121402E+03  0.29050261416E+03  0.10566000000E+00 0. -1.
          1    1    1    2  502    0  0.16131660748E+02  0.10763408833E+01  0.44186599559E+03  0.44216167524E+03  0.00000000000E+00 0. -1.
         -4    1    3    3    0  502  0.27597748684E+02 -0.39935115430E+02  0.25279217186E+04  0.25283877600E+04  0.00000000000E+00 0. -1.
</event>
<event>
 7    1  0.4894942E-006  0.1152332E+04  0.7818608E-02  0.8804318E-01
          2   -1    0    0  502    0  0.00000000000E+00  0.00000000000E+00  0.18345802344E+04  0.18345802344E+04  0.00000000000E+00 0.  1.
          4   -1    0    0  501    0 -0.00000000000E+00 -0.00000000000E+00 -0.13082555986E+04  0.13082555986E+04  0.00000000000E+00 0.  1.
    9000010    2    1    2  502    0  0.54192079264E+03 -0.45261078967E+03 -0.65898926763E+03  0.13888123628E+04  0.99799712017E+03 0.  0.
        -13    1    3    3    0    0  0.45516710106E+03  0.10880640315E+02  0.12659893884E+03  0.47257039761E+03  0.10566000000E+00 0.  1.
         13    1    1    2    0    0 -0.42523619190E+03  0.25928548087E+03 -0.47860454478E+02  0.50034529453E+03  0.10566000000E+00 0. -1.
          2    1    1    2  501    0 -0.11668460075E+03  0.19332530880E+03  0.12331743579E+04  0.12536781756E+04  0.00000000000E+00 0.  1.
          4    1    3    3  502    0  0.86753691584E+02 -0.46349142998E+03 -0.78558820648E+03  0.91624196522E+03  0.00000000000E+00 0.  1.
</event>
<event>
 7    1  0.4894942E-006  0.1338162E+04  0.7818608E-02  0.8713286E-01
         -4   -1    0    0    0  501 -0.00000000000E+00  0.00000000000E+00  0.16399749827E+04  0.16399749827E+04  0.00000000000E+00 0. -1.
          2   -1    0    0  501    0  0.00000000000E+00 -0.00000000000E+00 -0.99936920755E+03  0.99936920755E+03  0.00000000000E+00 0. -1.
   -9000010    2    1    2    0  502 -0.40024854521E+03  0.49985126978E+03  0.93590361179E+03  0.16679560009E+04  0.12231563517E+04 0.  0.
        -13    1    1    2    0    0  0.11463297377E+03 -0.49228427352E+03  0.67118500457E+02  0.50989158543E+03  0.10566000000E+00 0.  1.
         13    1    3    3    0    0  0.32989667588E+02  0.37610672958E+03 -0.21326160425E+03  0.43361862646E+03  0.10566000000E+00 0. -1.
          2    1    1    2  502    0  0.28561557144E+03 -0.75669962619E+01 -0.36241633705E+03  0.46149660393E+03  0.00000000000E+00 0. -1.
         -4    1    3    3    0  502 -0.43323821280E+03  0.12374454020E+03  0.11491652160E+04  0.12343373745E+04  0.00000000000E+00 0. -1.
</event>
<event>
 7    1  0.4894942E-006  0.1024403E+04  0.7818608E-02  0.9091250E-01
          4   -1    0    0  501    0 -0.00000000000E+00  0.00000000000E+00  0.60202669786E+03  0.60202669786E+03  0.00000000000E+00 0.  1.
          2   -1    0    0  502    0  0.00000000000E+00 -0.00000000000E+00 -0.21229098686E+04  0.21229098686E+04  0.00000000000E+00 0. -1.
    9000010    2    1    2  502    0  0.19627491656E+03 -0.11996542039E+03 -0.27691338178E+03  0.10558849536E+04  0.99262100990E+03 0.  0.
        -13    1    3    3    0    0  0.34601441113E+03 -0.64287844434E+02  0.29677805190E+03  0.46036520601E+03  0.10566000000E+00 0.  1.
         13    1    1    2    0    0 -0.23803887416E+03  0.94807335087E+02  0.13473157422E+03  0.28948841886E+03  0.10566000000E+00 0. -1.
          2    1    1    2  501    0  0.41763957597E+02  0.25158085308E+02 -0.13787013632E+04  0.13795631940E+04  0.00000000000E+00 0. -1.
          4    1    3    3  502    0 -0.14973949456E+03 -0.55677575961E+02 -0.57369143369E+03  0.59551974760E+03  0.00000000000E+00 0.  1.
</event>
<event>
 7    1  0.4894942E-006  0.1199552E+04  0.7818608E-02  0.9169700E-01
          1   -1    0    0  501    0  0.00000000000E+00  0.00000000000E+00  0.15473329628E+04  0.15473329628E+04  0.00000000000E+00 0.  1.
         -4   -1    0    0    0  501 -0.00000000000E+00 -0.00000000000E+00 -0.17360082470E+04  0.17360082470E+04  0.00000000000E+00 0. -1.
   -9000010    2    1    2    0  502 -0.48300045778E+03 -0.55141207590E+03 -0.10672381172E+04  0.16367925616E+04  0.10013730429E+04 0.  0.
        -13    1    1    2    0    0 -0.75037202197E+01  0.11558231973E+03 -0.28671831519E+03  0.30922965880E+03  0.10566000000E+00 0.  1.
         13    1    3    3    0    0 -0.52888336069E+03 -0.49033279107E+03 -0.12475220869E+04  0.14409910561E+04  0.10566000000E+00 0. -1.
          1    1    1    2  502    0  0.49050417800E+03  0.43582975617E+03  0.11652811483E+04  0.13373189894E+04  0.00000000000E+00 0.  1.
         -4    1    3    3    0  502  0.45882902908E+02 -0.61079284829E+02  0.18028396971E+03  0.19580150548E+03  0.00000000000E+00 0. -1.
</event>
<event>
 7    1  0.4894942E-006  0.1025493E+04  0.7818608E-02  0.9189861E-01
         -4   -1    0    0    0  501 -0.00000000000E+00  0.00000000000E+00  0.63741592832E+03  0.63741592832E+03  0.00000000000E+00 0. -1.
          1   -1    0    0  501    0  0.00000000000E+00 -0.00000000000E+00 -0.86797752179E+03  0.86797752179E+03  0.00000000000E+00 0. -1.
   -9000010    2    1    2    0  502 -0.13018241415E+03 -0.33431031066E+02 -0.20086026553E+03  0.10196219039E+04  0.99056493269E+03 0.  0.
        -13    1    1    2    0    0 -0.16930415796E+03 -0.26678947773E+02  0.31440226144E+02  0.17425315820E+03  0.10566000000E+00 0.  1.
         13    1    3    3    0    0  0.12622100417E+03 -0.33956652479E+03  0.23240168887E+03  0.43040413893E+03  0.10566000000E+00 0. -1.
          1    1    1    2  502    0  0.29948657211E+03  0.60109978839E+02 -0.61141554089E+02  0.31151838801E+03  0.00000000000E+00 0. -1.
         -4    1    3    3    0  502 -0.25640341832E+03  0.30613549373E+03 -0.43326195439E+03  0.58921776498E+03  0.00000000000E+00 0. -1.
</event>
<event>
 7    1  0.4894942E-006  0.1003972E+04  0.7818608E-02  0.9221814E-01
          2   -1    0    0  502    0  0.00000000000E+00  0.00000000000E+00  0.57651578712E+03  0.57651578712E+03  0.00000000000E+00 0.  1.
          4   -1    0    0  501    0 -0.00000000000E+00 -0.00000000000E+00 -0.95323055490E+03  0.95323055490E+03  0.00000000000E+00 0.  1.
    9000010    2    1    2  502    0  0.11824632575E+03 -0.20542357503E+03 -0.39056811005E+03  0.10856642964E+04  0.98485657698E+03 0.  0.
        -13    1    3    3    0    0 -0.30433463326E+03 -0.10617679324E+03  0.17966216444E+03  0.36901434243E+03  0.10566000000E+00 0.  1.
         13    1    1    2    0    0  0.68632965255E+02  0.14609338772E+03 -0.12472226109E+03  0.20398386071E+03  0.10566000000E+00 0. -1.
          2    1    1    2  501    0 -0.18687929101E+03  0.59330187316E+02  0.13857560336E+03  0.24009818488E+03  0.00000000000E+00 0.  1.
          4    1    3    3  502    0  0.42258095901E+03 -0.99246781797E+02 -0.57023027450E+03  0.71664995400E+03  0.00000000000E+00 0.  1.
</event>
<event>
 7    1  0.4894942E-006  0.1139518E+04  0.7818608E-02  0.8821919E-01
          2   -1    0    0  502    0  0.00000000000E+00  0.00000000000E+00  0.15787589412E+04  0.15787589412E+04  0.00000000000E+00 0.  1.
          4   -1    0    0  501    0 -0.00000000000E+00 -0.00000000000E+00 -0.13604644154E+04  0.13604644154E+04  0.00000000000E+00 0.  1.
    9000010    2    1    2  502    0  0.21375659426E+03  0.52108270468E+03  0.82524471436E+03  0.14109757643E+04  0.99629548938E+03 0.  0.
        -13    1    3    3    0    0 -0.27306384065E+03 -0.26517338584E+02  0.57433787636E+03  0.63649904768E+03  0.10566000000E+00 0.  1.
         13    1    1    2    0    0 -0.19628627245E+03 -0.51639637082E+03 -0.99590736986E+03  0.11388700598E+04  0.10566000000E+00 0. -1.
          2    1    1    2  501    0 -0.17470321807E+02 -0.46863338592E+01  0.38895718136E+03  0.38937753248E+03  0.00000000000E+00 0.  1.
          4    1    3    3  502    0  0.48682043491E+03  0.54760004326E+03  0.25090683801E+03  0.77447671662E+03  0.00000000000E+00 0.  1.
</event>
<event>
 7    1  0.4894942E-006  0.1219662E+04  0.7818608E-02  0.8722145E-01
          4   -1    0    0  501    0 -0.00000000000E+00  0.00000000000E+00  0.35354696668E+04  0.35354696668E+04  0.00000000000E+00 0.  1.
          2   -1    0    0  502    0  0.00000000000E+00 -0.00000000000E+00 -0.20765060619E+04  0.20765060619E+04  0.00000000000E+00 0.  1.
    9000010    2    1    2  502    0  0.33730173597E+03  0.48824236899E+03  0.41398993872E+03  0.12389892519E+04  0.10057602224E+04 0.  0.
        -13    1    3    3    0    0 -0.27357789576E+03  0.47792723737E+03  0.13310090346E+03  0.56654670675E+03  0.10566000000E+00 0.  1.
         13    1    1    2    0    0 -0.25441297859E+03 -0.65454167715E+03  0.26580462166E+04  0.27492472554E+04  0.10566000000E+00 0. -1.
          2    1    1    2  501    0 -0.82888757382E+02  0.16629930815E+03 -0.16130725504E+04  0.16237392213E+04  0.00000000000E+00 0.  1.
          4    1    3    3  502    0  0.61087963173E+03  0.10315131626E+02  0.28088903526E+03  0.67244254515E+03  0.00000000000E+00 0.  1.
</event>
<event>
 7    1  0.4894942E-006  0.1287874E+04  0.7818608E-02  0.8642354E-01
          2   -1    0    0  502    0  0.00000000000E+00  0.00000000000E+00  0.83042458869E+03  0.83042458869E+03  0.00000000000E+00 0. -1.
          4   -1    0    0  501    0 -0.00000000000E+00 -0.00000000000E+00 -0.21479020757E+04  0.21479020757E+04  0.00000000000E+00 0.  1.
    9000010    2    1    2  502    0  0.56664018177E+03  0.59991448041E+03 -0.87225936128E+03  0.15534141889E+04  0.98553577797E+03 0.  0.
        -13    1    3    3    0    0  0.24683677446E+03  0.45984301541E+03  0.90150915617E+02  0.52963307185E+03  0.10566000000E+00 0.  1.
         13    1    1    2    0    0 -0.56376781849E+03 -0.61073640143E+03 -0.75024045607E+03  0.11196847138E+04  0.10566000000E+00 0. -1.
          2    1    1    2  501    0 -0.28723632809E+01  0.10821921024E+02  0.30502233037E+03  0.30522776163E+03  0.00000000000E+00 0. -1.
          4    1    3    3  502    0  0.31980340731E+03  0.14007146500E+03 -0.96241027689E+03  0.10237811171E+04  0.00000000000E+00 0.  1.
</event>
<event>
 7    1  0.4894942E-006  0.1019405E+04  0.7818608E-02  0.9223772E-01
          2   -1    0    0  502    0  0.00000000000E+00  0.00000000000E+00  0.55501783603E+03  0.55501783603E+03  0.00000000000E+00 0.  1.
          4   -1    0    0  501    0 -0.00000000000E+00 -0.00000000000E+00 -0.16442082565E+04  0.16442082565E+04  0.00000000000E+00 0.  1.
    9000010    2    1    2  502    0  0.50853795278E+02  0.12516767199E+03 -0.61229492870E+03  0.11869818339E+04  0.10078530348E+04 0.  0.
        -13    1    3    3    0    0  0.10649619888E+03 -0.31298099926E+03 -0.66454039810E+03  0.74223479987E+03  0.10566000000E+00 0.  1.
         13    1    1    2    0    0 -0.41206713170E+02 -0.14791694430E+03 -0.73605949078E+03  0.75190491470E+03  0.10566000000E+00 0. -1.
          2    1    1    2  501    0 -0.96470821074E+01  0.22749272308E+02  0.25916399904E+03  0.26033934390E+03  0.00000000000E+00 0.  1.
          4    1    3    3  502    0 -0.55642403601E+02  0.43814867125E+03  0.52245469399E+02  0.44474703402E+03  0.00000000000E+00 0.  1.
</event>
<event>
 7    1  0.4894942E-006  0.1063863E+04  0.7818608E-02  0.8967941E-01
          2   -1    0    0  501    0  0.00000000000E+00  0.00000000000E+00  0.19090316903E+04  0.19090316903E+04  0.00000000000E+00 0.  1.
         -4   -1    0    0    0  501 -0.00000000000E+00 -0.00000000000E+00 -0.37349808946E+03  0.37349808946E+03  0.00000000000E+00 0. -1.
   -9000010    2    1    2    0  502  0.27534119454E+03 -0.56801761731E+02  0.88657441770E+03  0.13635092018E+04  0.99704760762E+03 0.  0.
        -13    1    1    2    0    0 -0.39856798874E+03 -0.45103483134E+02  0.21193275079E+03  0.45365875707E+03  0.10566000000E+00 0.  1.
         13    1    3    3    0    0 -0.10510662260E+03 -0.39385680364E+03  0.88205642480E+02  0.41707413060E+03  0.10566000000E+00 0. -1.
          2    1    1    2  502    0  0.12322679421E+03  0.10190524487E+03  0.43702643238E+03  0.46536182089E+03  0.00000000000E+00 0.  1.
         -4    1    3    3    0  502  0.38044781714E+03  0.33705504191E+03  0.79836877522E+03  0.94643507125E+03  0.00000000000E+00 0. -1.
</event>
<event>
 7    1  0.4894942E-006  0.1025890E+04  0.7818608E-02  0.9201989E-01
          2   -1    0    0  501    0  0.00000000000E+00  0.00000000000E+00  0.17429347127E+04  0.17429347127E+04  0.00000000000E+00 0. -1.
         -4   -1    0    0    0  501 -0.00000000000E+00 -0.00000000000E+00 -0.26175117195E+03  0.26175117195E+03  0.00000000000E+00 0. -1.
   -9000010    2    1    2    0  502 -0.11501366909E+03  0.10040102331E+03  0.84448849132E+03  0.13274949568E+04  0.10128047881E+04 0.  0.
        -13    1    1    2    0    0  0.12672264357E+03 -0.10834816988E+03  0.32588357616E+03  0.36605746910E+03  0.10566000000E+00 0.  1.
         13    1    3    3    0    0  0.14227616352E+03 -0.36264537595E+03  0.80440456910E+02  0.39777487814E+03  0.10566000000E+00 0. -1.
          2    1    1    2  502    0 -0.11708974476E+02  0.79471465717E+01  0.31081147327E+03  0.31113345872E+03  0.00000000000E+00 0. -1.
         -4    1    3    3    0  502 -0.25728983261E+03  0.46304639926E+03  0.76404803441E+03  0.92972007869E+03  0.00000000000E+00 0. -1.
</event>
<event>
 7    1  0.4894942E-006  0.7372337E+03  0.7818608E-02  0.9388877E-01
          1   -1    0    0  501    0  0.00000000000E+00  0.00000000000E+00  0.86310237925E+03  0.86310237925E+03  0.00000000000E+00 0.  1.
         -4   -1    0    0    0  501 -0.00000000000E+00 -0.00000000000E+00 -0.10547614117E+04  0.10547614117E+04  0.00000000000E+00 0. -1.
   -9000010    2    1    2    0  502 -0.22313303308E+03  0.68255720736E+02 -0.51937453910E+03  0.90598336136E+03  0.70470472208E+03 0.  0.
        -13    1    1    2    0    0  0.19541473983E+03 -0.87044635003E+02 -0.30815384145E+03  0.37512996439E+03  0.10566000000E+00 0.  1.
         13    1    3    3    0    0 -0.14273018895E+03  0.10247049643E+03 -0.69121789678E+03  0.71320004309E+03  0.10566000000E+00 0. -1.
          1    1    1    2  502    0  0.27718293247E+02  0.18788914267E+02  0.63586934809E+03  0.63675046519E+03  0.00000000000E+00 0.  1.
         -4    1    3    3    0  502 -0.80402844130E+02 -0.34214775699E+02  0.17184335768E+03  0.19278331826E+03  0.00000000000E+00 0. -1.
</event>
<event>
 7    1  0.4894942E-006  0.1033051E+04  0.7818608E-02  0.9079571E-01
          2   -1    0    0  502    0  0.00000000000E+00  0.00000000000E+00  0.17672208273E+04  0.17672208273E+04  0.00000000000E+00 0.  1.
          4   -1    0    0  501    0 -0.00000000000E+00 -0.00000000000E+00 -0.33530054278E+03  0.33530054278E+03  0.00000000000E+00 0.  1.
    9000010    2    1    2  502    0 -0.18021093394E+02  0.29943657593E+03  0.80430769043E+03  0.13180356505E+04  0.10001600334E+04 0.  0.
        -13    1    3    3    0    0  0.79046738444E+02 -0.34187115045E+03  0.47518381435E+03  0.59069784065E+03  0.10566000000E+00 0.  1.
         13    1    1    2    0    0 -0.33105279452E+02 -0.24917207772E+03  0.13237986081E+03  0.28408999024E+03  0.10566000000E+00 0. -1.
          2    1    1    2  501    0  0.51126372845E+02 -0.50264498217E+02  0.49523273324E+03  0.50039572925E+03  0.00000000000E+00 0.  1.
          4    1    3    3  502    0 -0.97067831838E+02  0.64130772638E+03  0.32912387608E+03  0.72733780989E+03  0.00000000000E+00 0.  1.
</event>
<event>
 7    1  0.4894942E-006  0.1461587E+04  0.7818608E-02  0.8591012E-01
          1   -1    0    0  501    0  0.00000000000E+00  0.00000000000E+00  0.11930938494E+04  0.11930938494E+04  0.00000000000E+00 0.  1.
         -4   -1    0    0    0  501 -0.00000000000E+00 -0.00000000000E+00 -0.24295817786E+04  0.24295817786E+04  0.00000000000E+00 0. -1.
   -9000010    2    1    2    0  502 -0.64746226554E+03  0.34200379322E+03 -0.12008601405E+04  0.18995226215E+04  0.12766938289E+04 0.  0.
        -13    1    1    2    0    0  0.53674754040E+03 -0.46223433705E+03 -0.72563454361E+03  0.10140532563E+04  0.10566000000E+00 0.  1.
         13    1    3    3    0    0 -0.47735467191E+03  0.29042103783E+03 -0.14724666764E+04  0.15749190412E+04  0.10566000000E+00 0. -1.
          1    1    1    2  502    0  0.11071472514E+03  0.12023054383E+03  0.69000675492E+03  0.70909975029E+03  0.00000000000E+00 0.  1.
         -4    1    3    3    0  502 -0.17010759364E+03  0.51582755392E+02  0.27160653586E+03  0.32460358037E+03  0.00000000000E+00 0. -1.
</event>
<event>
 7    1  0.4894942E-006  0.1064161E+04  0.7818608E-02  0.8998506E-01
          4   -1    0    0  501    0 -0.00000000000E+00  0.00000000000E+00  0.23452298946E+04  0.23452298946E+04  0.00000000000E+00 0.  1.
          2   -1    0    0  502    0  0.00000000000E+00 -0.00000000000E+00 -0.71385328882E+03  0.71385328882E+03  0.00000000000E+00 0. -1.
    9000010    2    1    2  502    0  0.31008514751E+03  0.88808409090E+02  0.10724628473E+04  0.15097724955E+04  0.10125199736E+04 0.  0.
        -13    1    3    3    0    0  0.60978048981E+03 -0.20130912057E+03  0.59055154671E+03  0.87241546769E+03  0.10566000000E+00 0.  1.
         13    1    1    2    0    0 -0.32113168964E+03  0.89374146062E+02  0.10103175706E+04  0.10638866973E+04  0.10566000000E+00 0. -1.
          2    1    1    2  501    0  0.11046542122E+02 -0.17818255515E+03 -0.45140381215E+03  0.48542399063E+03  0.00000000000E+00 0. -1.
          4    1    3    3  502    0 -0.29969534230E+03  0.29011752966E+03  0.48191130061E+03  0.63735702778E+03  0.00000000000E+00 0.  1.
</event>
<event>
 7    1  0.4894942E-006  0.1070551E+04  0.7818608E-02  0.8931344E-01
         -4   -1    0    0    0  501  0.00000000000E+00  0.00000000000E+00  0.75322605627E+03  0.75322605627E+03  0.00000000000E+00 0. -1.
         -4   -1    0    0    0  502 -0.00000000000E+00 -0.00000000000E+00 -0.15130027456E+04  0.15130027456E+04  0.00000000000E+00 0. -1.
   -9000010    2    1    2    0  501  0.68227378844E+02  0.41121248303E+03 -0.10379786726E+04  0.14893905280E+04  0.98342957996E+03 0.  0.
        -13    1    1    2    0    0 -0.72181113820E+02 -0.42193046736E+03 -0.65416668887E+02  0.43302977289E+03  0.10566000000E+00 0.  1.
         13    1    3    3    0    0  0.47145932255E+03  0.41369596782E+01 -0.31558155896E+03  0.56734710608E+03  0.10566000000E+00 0. -1.
         -4    1    3    3    0  501 -0.40323194371E+03  0.40707552336E+03 -0.72239711366E+03  0.92204342196E+03  0.00000000000E+00 0. -1.
         -4    1    1    2    0  502  0.39537349760E+01  0.10717984323E+02  0.34361865218E+03  0.34380850096E+03  0.00000000000E+00 0. -1.
</event>
<event>
 7    1  0.4894942E-006  0.1415031E+04  0.7818608E-02  0.8533147E-01
          2   -1    0    0  501    0  0.00000000000E+00  0.00000000000E+00  0.21095847022E+04  0.21095847022E+04  0.00000000000E+00 0. -1.
         -4   -1    0    0    0  501 -0.00000000000E+00 -0.00000000000E+00 -0.11296092733E+04  0.11296092733E+04  0.00000000000E+00 0. -1.
   -9000010    2    1    2    0  502 -0.74470270310E+03  0.68821727054E+03 -0.20059725192E+03  0.14279534933E+04  0.98518363466E+03 0.  0.
        -13    1    1    2    0    0  0.67310435087E+03 -0.76817678355E+03  0.52773506732E+03  0.11496387913E+04  0.10566000000E+00 0.  1.
         13    1    3    3    0    0 -0.21699363965E+03  0.28613854174E+03  0.39681059162E+03  0.53518236285E+03  0.10566000000E+00 0. -1.
          2    1    1    2  502    0  0.71598352234E+02  0.79959513003E+02  0.65283761357E+03  0.66160169094E+03  0.00000000000E+00 0. -1.
         -4    1    3    3    0  502 -0.52770906345E+03  0.40207872880E+03 -0.59740784354E+03  0.89277113043E+03  0.00000000000E+00 0. -1.
</event>
<event>
 7    1  0.4894942E-006  0.9641331E+03  0.7818608E-02  0.9772656E-01
          4   -1    0    0  501    0 -0.00000000000E+00  0.00000000000E+00  0.66751305418E+03  0.66751305418E+03  0.00000000000E+00 0.  1.
          2   -1    0    0  502    0  0.00000000000E+00 -0.00000000000E+00 -0.99835332403E+03  0.99835332403E+03  0.00000000000E+00 0.  1.
    9000010    2    1    2  502    0 -0.55258526622E+01 -0.42418562180E+02  0.27255502436E+03  0.10019612740E+04  0.96322909207E+03 0.  0.
        -13    1    3    3    0    0 -0.11782321854E+03 -0.74556485118E+02  0.61995986862E+03  0.63544569411E+03  0.10566000000E+00 0.  1.
         13    1    1    2    0    0  0.24061036940E+02  0.50092760180E+01  0.24453340913E+02  0.34669920546E+02  0.10566000000E+00 0. -1.
          2    1    1    2  501    0 -0.18535184278E+02  0.37409286163E+02 -0.62784863512E+03  0.62923518367E+03  0.00000000000E+00 0.  1.
          4    1    3    3  502    0  0.11229736588E+03  0.32137922938E+02 -0.34740484426E+03  0.36651557988E+03  0.00000000000E+00 0.  1.
</event>
<event>
 7    1  0.4894942E-006  0.1090749E+04  0.7818608E-02  0.8903080E-01
         -4   -1    0    0    0  501 -0.00000000000E+00  0.00000000000E+00  0.31510292779E+04  0.31510292779E+04  0.00000000000E+00 0. -1.
          2   -1    0    0  501    0  0.00000000000E+00 -0.00000000000E+00 -0.64742460711E+03  0.64742460711E+03  0.00000000000E+00 0. -1.
   -9000010    2    1    2    0  502  0.11552883803E+03 -0.43473060952E+03  0.31336328253E+03  0.11350394716E+04  0.99387144041E+03 0.  0.
        -13    1    1    2    0    0 -0.88080692040E+02  0.44069572409E+03  0.24050998597E+04  0.24467276669E+04  0.10566000000E+00 0.  1.
         13    1    3    3    0    0  0.13761905284E+03  0.67920310781E+01 -0.32818043050E+03  0.35593193383E+03  0.10566000000E+00 0. -1.
          2    1    1    2  502    0 -0.27448145987E+02 -0.59651145628E+01 -0.21485847149E+03  0.21668674644E+03  0.00000000000E+00 0. -1.
         -4    1    3    3    0  502 -0.22090214814E+02 -0.44152264060E+03  0.64154371302E+03  0.77910753781E+03  0.00000000000E+00 0. -1.
</event>
<event>
 7    1  0.4894942E-006  0.1008109E+04  0.7818608E-02  0.9124512E-01
          4   -1    0    0  501    0 -0.00000000000E+00  0.00000000000E+00  0.17287196978E+04  0.17287196978E+04  0.00000000000E+00 0.  1.
          2   -1    0    0  502    0  0.00000000000E+00 -0.00000000000E+00 -0.56335373503E+03  0.56335373503E+03  0.00000000000E+00 0.  1.
    9000010    2    1    2  502    0 -0.21957797517E+03 -0.98322944002E+02  0.10801315911E+04  0.14787113415E+04  0.98082673747E+03 0.  0.
        -13    1    3    3    0    0 -0.50313145141E+03  0.20504169475E+03  0.37419712850E+03  0.65970209650E+03  0.10566000000E+00 0.  1.
         13    1    1    2    0    0  0.16359577292E+03  0.16732135387E+03  0.41249769811E+03  0.47425138322E+03  0.10566000000E+00 0. -1.
          2    1    1    2  501    0  0.55982202258E+02 -0.68998409869E+02 -0.32726332643E+03  0.33911070811E+03  0.00000000000E+00 0.  1.
          4    1    3    3  502    0  0.28355347624E+03 -0.30336463875E+03  0.70593446263E+03  0.81900924504E+03  0.00000000000E+00 0.  1.
</event>
<event>
 7    1  0.4894942E-006  0.1050545E+04  0.7818608E-02  0.9184080E-01
         -4   -1    0    0    0  501 -0.00000000000E+00  0.00000000000E+00  0.74359370213E+03  0.74359370213E+03  0.00000000000E+00 0. -1.
          2   -1    0    0  501    0  0.00000000000E+00 -0.00000000000E+00 -0.14547727876E+04  0.14547727876E+04  0.00000000000E+00 0.  1.
   -9000010    2    1    2    0  502  0.11478371278E+03 -0.12813191947E+03  0.22539363808E+03  0.10758522632E+04  0.10378163184E+04 0.  0.
        -13    1    1    2    0    0 -0.12863871957E+03  0.98424495392E+02  0.21930120257E+02  0.16345104100E+03  0.10566000000E+00 0.  1.
         13    1    3    3    0    0 -0.10074555679E+03 -0.55510913451E+03  0.19373657414E+03  0.59651461822E+03  0.10566000000E+00 0. -1.
          2    1    1    2  502    0  0.13855006793E+02  0.29707424075E+02 -0.95850284378E+03  0.95906318550E+03  0.00000000000E+00 0.  1.
         -4    1    3    3    0  502  0.21552926956E+03  0.42697721504E+03  0.31657063939E+02  0.47933764499E+03  0.00000000000E+00 0. -1.
</event>
<event>
 7    1  0.4894942E-006  0.1189700E+04  0.7818608E-02  0.9056664E-01
          2   -1    0    0  501    0  0.00000000000E+00  0.00000000000E+00  0.17743134110E+04  0.17743134110E+04  0.00000000000E+00 0. -1.
         -4   -1    0    0    0  501 -0.00000000000E+00 -0.00000000000E+00 -0.71720349291E+03  0.71720349291E+03  0.00000000000E+00 0. -1.
   -9000010    2    1    2    0  502  0.29152707156E+03 -0.57667930012E+03  0.15274929979E+03  0.11822250991E+04  0.97814967551E+03 0.  0.
        -13    1    1    2    0    0 -0.15696593052E+03 -0.98846109843E+02  0.17434248106E+02  0.18631377015E+03  0.10566000000E+00 0.  1.
         13    1    3    3    0    0  0.53252359890E+03 -0.71666139155E+03  0.98204598595E+02  0.89823665471E+03  0.10566000000E+00 0. -1.
          2    1    1    2  502    0 -0.13456114104E+03  0.67552540996E+03  0.88692637015E+03  0.11229780346E+04  0.00000000000E+00 0. -1.
         -4    1    3    3    0  502 -0.24099652734E+03  0.13998209142E+03  0.54544701197E+02  0.28398844438E+03  0.00000000000E+00 0. -1.
</event>
<event>
 7    1  0.4894942E-006  0.1130296E+04  0.7818608E-02  0.8828975E-01
         -4   -1    0    0    0  501 -0.00000000000E+00  0.00000000000E+00  0.27333337515E+04  0.27333337515E+04  0.00000000000E+00 0. -1.
          1   -1    0    0  501    0  0.00000000000E+00 -0.00000000000E+00 -0.62251702453E+03  0.62251702453E+03  0.00000000000E+00 0. -1.
   -9000010    2    1    2    0  502  0.40072592692E+03 -0.35216872899E+03  0.12661013241E+04  0.16919007894E+04  0.98737613701E+03 0.  0.
        -13    1    1    2    0    0 -0.44335542213E+03  0.33434866166E+03  0.11912666171E+04  0.13143322343E+04  0.10566000000E+00 0.  1.
         13    1    3    3    0    0  0.12670778605E+03  0.34305867542E+03  0.52175647860E+03  0.63716085249E+03  0.10566000000E+00 0. -1.
          1    1    1    2  502    0  0.42629495203E+02  0.17820067333E+02 -0.34655121426E+03  0.34961775237E+03  0.00000000000E+00 0. -1.
         -4    1    3    3    0  502  0.27401814087E+03 -0.69522740442E+03  0.74434484554E+03  0.10547399369E+04  0.00000000000E+00 0. -1.
</event>
<event>
 7    1  0.4894942E-006  0.1000202E+04  0.7818608E-02  0.9162926E-01
          3   -1    0    0  501    0  0.00000000000E+00  0.00000000000E+00  0.33363703530E+03  0.33363703530E+03  0.00000000000E+00 0. -1.
         -4   -1    0    0    0  501 -0.00000000000E+00 -0.00000000000E+00 -0.18139699678E+04  0.18139699678E+04  0.00000000000E+00 0. -1.
   -9000010    2    1    2    0  502  0.11485236510E+03 -0.15651648019E+03 -0.14353053844E+04  0.17481724404E+04  0.97893659676E+03 0.  0.
        -13    1    1    2    0    0 -0.10411438556E+03  0.18113882660E+03 -0.17139991443E+03  0.27023882329E+03  0.10566000000E+00 0.  1.
         13    1    3    3    0    0  0.12403991805E+03 -0.43189261719E+02  0.12642817205E+03  0.18230553324E+03  0.10566000000E+00 0. -1.
          3    1    1    2  502    0 -0.10737979544E+02 -0.24622346405E+02  0.12637236627E+03  0.12919573949E+03  0.00000000000E+00 0. -1.
         -4    1    3    3    0  502 -0.91875529452E+01 -0.11332721847E+03 -0.15617335564E+04  0.15658669071E+04  0.00000000000E+00 0. -1.
</event>
<event>
 7    1  0.4894942E-006  0.1042077E+04  0.7818608E-02  0.9433384E-01
          2   -1    0    0  502    0  0.00000000000E+00  0.00000000000E+00  0.22201032648E+04  0.22201032648E+04  0.00000000000E+00 0.  1.
          4   -1    0    0  501    0 -0.00000000000E+00 -0.00000000000E+00 -0.50419185232E+03  0.50419185232E+03  0.00000000000E+00 0.  1.
    9000010    2    1    2  502    0 -0.11280288038E+03 -0.44311266010E+02  0.28159736634E+03  0.10778377928E+04  0.10333195308E+04 0.  0.
        -13    1    3    3    0    0 -0.27427506227E+02 -0.50650677653E+03  0.33029588960E+03  0.60530716882E+03  0.10566000000E+00 0.  1.
         13    1    1    2    0    0  0.26387880172E+02 -0.59447787297E+02 -0.92833885710E+02  0.11335122908E+03  0.10566000000E+00 0. -1.
          2    1    1    2  501    0  0.86415000210E+02  0.10375905331E+03  0.15271479319E+04  0.15331060952E+04  0.00000000000E+00 0.  1.
          4    1    3    3  502    0 -0.85375374155E+02  0.46219551052E+03 -0.48698523262E+02  0.47253062401E+03  0.00000000000E+00 0.  1.
</event>
<event>
 7    1  0.4894942E-006  0.1013629E+04  0.7818608E-02  0.9283004E-01
          2   -1    0    0  502    0  0.00000000000E+00  0.00000000000E+00  0.28584155300E+04  0.28584155300E+04  0.00000000000E+00 0.  1.
          4   -1    0    0  501    0 -0.00000000000E+00 -0.00000000000E+00 -0.15512641951E+03  0.15512641951E+03  0.00000000000E+00 0.  1.
    9000010    2    1    2  502    0 -0.34867931838E+02 -0.10054481099E+03  0.17313339363E+04  0.20052158064E+04  0.10060060634E+04 0.  0.
        -13    1    3    3    0    0 -0.33326915130E+03  0.32974178613E+03  0.62572571542E+03  0.78187636799E+03  0.10566000000E+00 0.  1.
         13    1    1    2    0    0  0.13843002211E+03  0.26867196327E+02  0.48879968813E+03  0.50873358798E+03  0.10566000000E+00 0. -1.
          2    1    1    2  501    0 -0.10356209027E+03  0.73677614661E+02  0.48315548610E+03  0.49959255518E+03  0.00000000000E+00 0.  1.
          4    1    3    3  502    0  0.29840121946E+03 -0.43028659712E+03  0.11056082209E+04  0.12233394384E+04  0.00000000000E+00 0.  1.
</event>
<event>
 7    1  0.4894942E-006  0.1239109E+04  0.7818608E-02  0.8912565E-01
         -4   -1    0    0    0  501 -0.00000000000E+00  0.00000000000E+00  0.32246390473E+04  0.32246390473E+04  0.00000000000E+00 0. -1.
          1   -1    0    0  501    0  0.00000000000E+00 -0.00000000000E+00 -0.42670916309E+03  0.42670916309E+03  0.00000000000E+00 0. -1.
   -9000010    2    1    2    0  502  0.40472016625E+03  0.29569919941E+03  0.17874824041E+04  0.21133259393E+04  0.10098597680E+04 0.  0.
        -13    1    1    2    0    0  0.23785439496E+03  0.17407082971E+03  0.53510224736E+03  0.61090898933E+03  0.10566000000E+00 0.  1.
         13    1    3    3    0    0  0.67109717776E+03  0.13435793478E+03  0.68744244111E+03  0.97005185307E+03  0.10566000000E+00 0. -1.
          1    1    1    2  502    0 -0.64257456120E+03 -0.46977002912E+03  0.47534523268E+03  0.92711328175E+03  0.00000000000E+00 0. -1.
         -4    1    3    3    0  502 -0.26637701151E+03  0.16134126463E+03  0.11000399630E+04  0.11432740862E+04  0.00000000000E+00 0. -1.
</event>
<event>
 7    1  0.4894942E-006  0.1037548E+04  0.7818608E-02  0.9094387E-01
          2   -1    0    0  502    0  0.00000000000E+00  0.00000000000E+00  0.25684768922E+04  0.25684768922E+04  0.00000000000E+00 0. -1.
          4   -1    0    0  501    0 -0.00000000000E+00 -0.00000000000E+00 -0.18222887408E+04  0.18222887408E+04  0.00000000000E+00 0.  1.
    9000010    2    1    2  502    0  0.37082926062E+02 -0.55506577832E+02 -0.44067105587E+03  0.11032810024E+04  0.10092481693E+04 0.  0.
        -13    1    3    3    0    0  0.18802676943E+03 -0.20172017206E+03 -0.70999641134E+03  0.76166922553E+03  0.10566000000E+00 0.  1.
         13    1    1    2    0    0  0.66046443196E+02  0.24061737612E+03 -0.10303706668E+04  0.10601521478E+04  0.10566000000E+00 0. -1.
          2    1    1    2  501    0 -0.10312936926E+03 -0.18511079829E+03  0.22172298741E+04  0.22273324828E+04  0.00000000000E+00 0. -1.
          4    1    3    3  502    0 -0.15094384337E+03  0.14621359423E+03  0.26932535547E+03  0.34161177686E+03  0.00000000000E+00 0.  1.
</event>
<event>
 7    1  0.4894942E-006  0.1025784E+04  0.7818608E-02  0.9114644E-01
          4   -1    0    0  501    0 -0.00000000000E+00  0.00000000000E+00  0.82749084448E+03  0.82749084448E+03  0.00000000000E+00 0.  1.
          2   -1    0    0  502    0  0.00000000000E+00 -0.00000000000E+00 -0.18875011129E+04  0.18875011129E+04  0.00000000000E+00 0.  1.
    9000010    2    1    2  502    0 -0.21892644638E+03  0.83309431753E+02  0.38768537089E+03  0.10975243658E+04  0.99969522175E+03 0.  0.
        -13    1    3    3    0    0  0.30242070108E+03  0.12623158450E+03  0.46485122025E+03  0.56875246066E+03  0.10566000000E+00 0.  1.
         13    1    1    2    0    0  0.19708756615E+03 -0.11660591299E+03 -0.70370897778E+02  0.23956736442E+03  0.10566000000E+00 0. -1.
          2    1    1    2  501    0  0.21838880225E+02  0.33296481239E+02 -0.13773247415E+04  0.13779002271E+04  0.00000000000E+00 0.  1.
          4    1    3    3  502    0 -0.52134714746E+03 -0.42922152747E+02 -0.77165849365E+02  0.52877190515E+03  0.00000000000E+00 0.  1.
</event>
<event>
 7    1  0.4894942E-006  0.9997767E+03  0.7818608E-02  0.9578218E-01
         -4   -1    0    0    0  501 -0.00000000000E+00  0.00000000000E+00  0.34703490852E+03  0.34703490852E+03  0.00000000000E+00 0. -1.
          1   -1    0    0  501    0  0.00000000000E+00 -0.00000000000E+00 -0.12598268720E+04  0.12598268720E+04  0.00000000000E+00 0. -1.
   -9000010    2    1    2    0  502 -0.48899798756E+02 -0.92139799507E+00 -0.95859292430E+03  0.13852616634E+04  0.99882803442E+03 0.  0.
        -13    1    1    2    0    0  0.40643530192E+02  0.15603626978E+02  0.12929291251E+03  0.13642594369E+03  0.10566000000E+00 0.  1.
         13    1    3    3    0    0  0.29225063979E+03 -0.30049107179E+03 -0.12731163850E+03  0.43807942790E+03  0.10566000000E+00 0. -1.
          1    1    1    2  502    0  0.82562685634E+01 -0.14682228983E+02 -0.83491951674E+02  0.85174173391E+02  0.00000000000E+00 0. -1.
         -4    1    3    3    0  502 -0.34115043855E+03  0.29956967379E+03 -0.83128128580E+03  0.94718223553E+03  0.00000000000E+00 0. -1.
</event>
<event>
 7    1  0.4894942E-006  0.1026267E+04  0.7818608E-02  0.9306309E-01
         -4   -1    0    0    0  501 -0.00000000000E+00  0.00000000000E+00  0.87116484855E+03  0.87116484855E+03  0.00000000000E+00 0. -1.
          2   -1    0    0  501    0  0.00000000000E+00 -0.00000000000E+00 -0.58031150130E+03  0.58031150130E+03  0.00000000000E+00 0. -1.
   -9000010    2    1    2    0  502  0.79188571328E+01  0.12363020768E+03 -0.19157575122E+02  0.10280871095E+04  0.10204160698E+04 0.  0.
        -13    1    1    2    0    0  0.45434542122E+02 -0.99551341544E+02  0.34031415914E+03  0.35747518137E+03  0.10566000000E+00 0.  1.
         13    1    3    3    0    0 -0.37617300279E+03  0.53056930277E+02  0.33077607870E+03  0.50372015176E+03  0.10566000000E+00 0. -1.
          2    1    1    2  502    0 -0.53353399255E+02 -0.24078866136E+02 -0.30303236772E+02  0.65914058935E+02  0.00000000000E+00 0. -1.
         -4    1    3    3    0  502  0.38409185992E+03  0.70573277403E+02 -0.34993365383E+03  0.52436695779E+03  0.00000000000E+00 0. -1.
</event>
<event>
 7    1  0.4894942E-006  0.1206537E+04  0.7818608E-02  0.8920280E-01
         -4   -1    0    0    0  501 -0.00000000000E+00  0.00000000000E+00  0.11373108702E+04  0.11373108702E+04  0.00000000000E+00 0. -1.
          2   -1    0    0  501    0  0.00000000000E+00 -0.00000000000E+00 -0.16793871222E+04  0.16793871222E+04  0.00000000000E+00 0. -1.
   -9000010    2    1    2    0  502 -0.39382706413E+03 -0.45618441094E+03 -0.48322598308E+03  0.12700694966E+04  0.10081493948E+04 0.  0.
        -13    1    1    2    0    0  0.10935854826E+03 -0.28928800412E+03 -0.53463251874E+03  0.61763968676E+03  0.10566000000E+00 0.  1.
         13    1    3    3    0    0 -0.25500092891E+03  0.22814929571E+03  0.10408240120E+03  0.35764609921E+03  0.10566000000E+00 0. -1.
          2    1    1    2  502    0  0.28446851587E+03  0.74547241505E+03  0.47578224984E+03  0.92898880908E+03  0.00000000000E+00 0. -1.
         -4    1    3    3    0  502 -0.13882613521E+03 -0.68433370665E+03 -0.58730838428E+03  0.91242339740E+03  0.00000000000E+00 0. -1.
</event>
<event>
 7    1  0.4894942E-006  0.1064066E+04  0.7818608E-02  0.8976168E-01
         -4   -1    0    0    0  501 -0.00000000000E+00  0.00000000000E+00  0.75479002729E+03  0.75479002729E+03  0.00000000000E+00 0. -1.
          4   -1    0    0  501    0  0.00000000000E+00 -0.00000000000E+00 -0.17613343570E+04  0.17613343570E+04  0.00000000000E+00 0.  1.
   -9000010    2    1    2    0  502  0.83015418825E+02 -0.33895700220E+03  0.16014403317E+03  0.10728643658E+04  0.10018025888E+04 0.  0.
        -13    1    1    2    0    0 -0.41394191870E+03  0.22803101848E+03 -0.84715047077E+03  0.97005669357E+03  0.10566000000E+00 0.  1.
         13    1    3    3    0    0  0.27731631398E+03 -0.49928514736E+02  0.50782068185E+03  0.58075730789E+03  0.10566000000E+00 0. -1.
          4    1    1    2  502    0  0.33092649988E+03  0.11092598372E+03 -0.31953789207E+03  0.47320332486E+03  0.00000000000E+00 0.  1.
         -4    1    3    3    0  502 -0.19430089515E+03 -0.28902848747E+03 -0.34767664868E+03  0.49210705793E+03  0.00000000000E+00 0. -1.
</event>
<event>
 7    1  0.4894942E-006  0.1443159E+04  0.7818608E-02  0.8513799E-01
          2   -1    0    0  502    0  0.00000000000E+00  0.00000000000E+00  0.10539325277E+04  0.10539325277E+04  0.00000000000E+00 0. -1.
          4   -1    0    0  501    0 -0.00000000000E+00 -0.00000000000E+00 -0.27702842752E+04  0.27702842752E+04  0.00000000000E+00 0.  1.
    9000010    2    1    2  502    0  0.86772679901E+03 -0.62050307643E+03 -0.12642642597E+04  0.19306178734E+04  0.99546340416E+03 0.  0.
        -13    1    3    3    0    0  0.48350800706E+03 -0.65263865054E+03 -0.25674131700E+03  0.85184113313E+03  0.10566000000E+00 0.  1.
         13    1    1    2    0    0 -0.86365170721E+03  0.56197859861E+03 -0.94445325213E+03  0.13977503973E+04  0.10566000000E+00 0. -1.
          2    1    1    2  501    0 -0.40750918035E+01  0.58524477819E+02  0.49236576441E+03  0.49584853216E+03  0.00000000000E+00 0. -1.
          4    1    3    3  502    0  0.38421879195E+03  0.32135574112E+02 -0.10075229427E+04  0.10787767402E+04  0.00000000000E+00 0.  1.
</event>
<event>
 7    1  0.4894942E-006  0.1005474E+04  0.7818608E-02  0.9292730E-01
          4   -1    0    0  501    0  0.00000000000E+00  0.00000000000E+00  0.18610990374E+04  0.18610990374E+04  0.00000000000E+00 0. -1.
         -4   -1    0    0    0  501 -0.00000000000E+00 -0.00000000000E+00 -0.24056282787E+03  0.24056282787E+03  0.00000000000E+00 0. -1.
   -9000010    2    1    2    0  502 -0.39851540413E+02  0.11133411981E+03  0.93264890049E+03  0.13710537091E+04  0.99798340179E+03 0.  0.
        -13    1    1    2    0    0  0.55451972128E+02 -0.11011168794E+03  0.15761488157E+03  0.20010489022E+03  0.10566000000E+00 0.  1.
         13    1    3    3    0    0 -0.33088723042E+03  0.17138886689E+03  0.99928747250E+03  0.10665064307E+04  0.10566000000E+00 0. -1.
          4    1    1    2  502    0 -0.15600431715E+02 -0.12224318713E+01  0.53027242745E+03  0.53050326589E+03  0.00000000000E+00 0. -1.
         -4    1    3    3    0  502  0.29103569000E+03 -0.60054747073E+02 -0.66638572011E+02  0.30454727840E+03  0.00000000000E+00 0. -1.
</event>
<event>
 7    1  0.4894942E-006  0.9940345E+03  0.7818608E-02  0.9178866E-01
         -4   -1    0    0    0  501 -0.00000000000E+00  0.00000000000E+00  0.10205949885E+04  0.10205949885E+04  0.00000000000E+00 0. -1.
          2   -1    0    0  501    0  0.00000000000E+00 -0.00000000000E+00 -0.52392400111E+03  0.52392400111E+03  0.00000000000E+00 0. -1.
   -9000010    2    1    2    0  502  0.67931661521E+02  0.14352490775E+03  0.45151809833E+03  0.10856392952E+04  0.97443828760E+03 0.  0.
        -13    1    1    2    0    0  0.10504955632E+03 -0.18673827489E+03  0.14096291638E+03  0.25647055884E+03  0.10566000000E+00 0.  1.
         13    1    3    3    0    0  0.16250745325E+03  0.52953154126E+03  0.40357145941E+03  0.68533368483E+03  0.10566000000E+00 0. -1.
          2    1    1    2  502    0 -0.17298121784E+03  0.43213367141E+02 -0.95810027325E+02  0.20240913557E+03  0.00000000000E+00 0. -1.
         -4    1    3    3    0  502 -0.94575791730E+02 -0.38600663351E+03  0.47946638914E+02  0.40030561035E+03  0.00000000000E+00 0. -1.
</event>
<event>
 7    1  0.4894942E-006  0.1025107E+04  0.7818608E-02  0.9098857E-01
          4   -1    0    0  501    0 -0.00000000000E+00  0.00000000000E+00  0.17214630770E+04  0.17214630770E+04  0.00000000000E+00 0.  1.
          2   -1    0    0  502    0  0.00000000000E+00 -0.00000000000E+00 -0.83164843896E+03  0.83164843896E+03  0.00000000000E+00 0.  1.
    9000010    2    1    2  502    0 -0.79744598476E+02 -0.48842447612E+01  0.84784938204E+03  0.13099502339E+04  0.99535821887E+03 0.  0.
        -13    1    3    3    0    0  0.41373288451E+03  0.95117097111E+02  0.15174007325E+03  0.45082948316E+03  0.10566000000E+00 0.  1.
         13    1    1    2    0    0  0.26438036350E+03  0.20937581818E+02  0.59954707164E+03  0.65558528142E+03  0.10566000000E+00 0. -1.
          2    1    1    2  501    0 -0.18463576502E+03 -0.16053337057E+02 -0.55758181565E+03  0.58757600062E+03  0.00000000000E+00 0.  1.
          4    1    3    3  502    0 -0.49347748299E+03 -0.10000134187E+03  0.69610930879E+03  0.85912075076E+03  0.00000000000E+00 0.  1.
</event>
<event>
 7    1  0.4894942E-006  0.1070748E+04  0.7818608E-02  0.8961418E-01
         -2   -1    0    0    0  501  0.00000000000E+00  0.00000000000E+00  0.94948148839E+03  0.94948148839E+03  0.00000000000E+00 0. -1.
         -4   -1    0    0    0  502 -0.00000000000E+00 -0.00000000000E+00 -0.11045501602E+04  0.11045501602E+04  0.00000000000E+00 0. -1.
   -9000010    2    1    2    0  501  0.43195475409E+03 -0.52207001574E+01  0.15640075869E+03  0.11035668995E+04  0.10033875319E+04 0.  0.
        -13    1    1    2    0    0 -0.36868284670E+03 -0.91686138120E+01 -0.57276802771E+03  0.68123001230E+03  0.10566000000E+00 0.  1.
         13    1    3    3    0    0 -0.23574671542E+03 -0.19661765046E+03  0.25874270685E+03  0.40147579480E+03  0.10566000000E+00 0. -1.
         -2    1    1    2    0  502 -0.63271907392E+02  0.14389313969E+02  0.26129859717E+03  0.26923473681E+03  0.00000000000E+00 0. -1.
         -4    1    3    3    0  501  0.66770146951E+03  0.19139695030E+03 -0.10234194815E+03  0.70209110472E+03  0.00000000000E+00 0. -1.
</event>
<event>
 7    1  0.4894942E-006  0.9998744E+03  0.7818608E-02  0.9286207E-01
         -4   -1    0    0    0  501 -0.00000000000E+00  0.00000000000E+00  0.28297511983E+03  0.28297511983E+03  0.00000000000E+00 0. -1.
          1   -1    0    0  501    0  0.00000000000E+00 -0.00000000000E+00 -0.29214870004E+04  0.29214870004E+04  0.00000000000E+00 0. -1.
   -9000010    2    1    2    0  502  0.26426784984E+02  0.61610131226E+02 -0.16485575812E+04  0.19250136316E+04  0.99168603903E+03 0.  0.
        -13    1    1    2    0    0 -0.11567317597E+03 -0.56986199038E+02  0.11385986219E+03  0.17202264358E+03  0.10566000000E+00 0.  1.
         13    1    3    3    0    0 -0.17145334602E+03 -0.18272662679E+03 -0.39294793209E+01  0.25060072221E+03  0.10566000000E+00 0. -1.
          1    1    1    2  502    0  0.89246390988E+02 -0.46239321885E+01 -0.11038141616E+04  0.11074258451E+04  0.00000000000E+00 0. -1.
         -4    1    3    3    0  502  0.19788013100E+03  0.24433675802E+03 -0.16446281019E+04  0.16744129094E+04  0.00000000000E+00 0. -1.
</event>
<event>
 7    1  0.4894942E-006  0.1138994E+04  0.7818608E-02  0.9073212E-01
         -4   -1    0    0    0  501 -0.00000000000E+00  0.00000000000E+00  0.43294652447E+03  0.43294652447E+03  0.00000000000E+00 0. -1.
          4   -1    0    0  501    0  0.00000000000E+00 -0.00000000000E+00 -0.22816524269E+04  0.22816524269E+04  0.00000000000E+00 0.  1.
   -9000010    2    1    2    0  502  0.69949348247E+02 -0.49429893302E+03 -0.11095041171E+04  0.15762356098E+04  0.10021451818E+04 0.  0.
        -13    1    1    2    0    0  0.19778866490E+03 -0.62829607661E+01  0.10281470216E+02  0.19815537175E+03  0.10566000000E+00 0.  1.
         13    1    3    3    0    0  0.84918865493E+02 -0.80375495598E+03 -0.76411813710E+03  0.11122543691E+04  0.10566000000E+00 0. -1.
          4    1    1    2  502    0 -0.26773801314E+03  0.50058189379E+03 -0.74948325555E+03  0.94020796977E+03  0.00000000000E+00 0.  1.
         -4    1    3    3    0  502 -0.14969517246E+02  0.30945602296E+03 -0.34538597999E+03  0.46398124074E+03  0.00000000000E+00 0. -1.
</event>
<event>
 7    1  0.4894942E-006  0.9968310E+03  0.7818608E-02  0.9114452E-01
         -4   -1    0    0    0  501 -0.00000000000E+00  0.00000000000E+00  0.15211110206E+03  0.15211110206E+03  0.00000000000E+00 0. -1.
          2   -1    0    0  501    0  0.00000000000E+00 -0.00000000000E+00 -0.29311812604E+04  0.29311812604E+04  0.00000000000E+00 0. -1.
   -9000010    2    1    2    0  502 -0.51697807964E+02 -0.17859958819E+03 -0.21130459172E+04  0.23303139187E+04  0.96479502248E+03 0.  0.
        -13    1    1    2    0    0  0.99668771006E+02  0.24590997632E+03 -0.46081037079E+03  0.53174410138E+03  0.10566000000E+00 0.  1.
         13    1    3    3    0    0 -0.36954281350E+03  0.18366286875E+03 -0.50807912985E+03  0.65455202522E+03  0.10566000000E+00 0. -1.
          2    1    1    2  502    0 -0.47970963041E+02 -0.67310388132E+02 -0.20521387035E+03  0.22123434233E+03  0.00000000000E+00 0. -1.
         -4    1    3    3    0  502  0.31784500554E+03 -0.36226245694E+03 -0.16049667873E+04  0.16757618935E+04  0.00000000000E+00 0. -1.
</event>
<event>
 7    1  0.4894942E-006  0.9881676E+03  0.7818608E-02  0.9245852E-01
          2   -1    0    0  501    0  0.00000000000E+00  0.00000000000E+00  0.13432865937E+04  0.13432865937E+04  0.00000000000E+00 0. -1.
         -4   -1    0    0    0  501 -0.00000000000E+00 -0.00000000000E+00 -0.85856549071E+03  0.85856549071E+03  0.00000000000E+00 0. -1.
   -9000010    2    1    2    0  502 -0.11509001246E+03  0.66471782902E+02 -0.24869473451E+03  0.10159574301E+04  0.97604109544E+03 0.  0.
        -13    1    1    2    0    0  0.14294291407E+03 -0.62205216756E+02 -0.19914683136E+03  0.25290638046E+03  0.10566000000E+00 0.  1.
         13    1    3    3    0    0 -0.60571037893E+02 -0.44545145153E+03 -0.12968141222E+02  0.44973773486E+03  0.10566000000E+00 0. -1.
          2    1    1    2  502    0 -0.27852901606E+02 -0.42665661454E+01  0.93256266889E+03  0.93298827384E+03  0.00000000000E+00 0. -1.
         -4    1    3    3    0  502 -0.54518974567E+02  0.51192323443E+03 -0.23572659328E+03  0.56621969528E+03  0.00000000000E+00 0. -1.
</event>
<event>
 7    1  0.4894942E-006  0.1910573E+04  0.7818608E-02  0.8242011E-01
          4   -1    0    0  501    0 -0.00000000000E+00  0.00000000000E+00  0.15656449673E+04  0.15656449673E+04  0.00000000000E+00 0.  1.
          2   -1    0    0  502    0  0.00000000000E+00 -0.00000000000E+00 -0.22085192636E+04  0.22085192636E+04  0.00000000000E+00 0. -1.
    9000010    2    1    2  502    0  0.89301258349E+03 -0.13295341652E+04 -0.36950396421E+03  0.19448169712E+04  0.10395418708E+04 0.  0.
        -13    1    3    3    0    0  0.71639799680E+03 -0.10549155975E+04  0.19763999590E+03  0.12904009403E+04  0.10566000000E+00 0.  1.
         13    1    1    2    0    0 -0.90312634795E+03  0.13256223062E+04 -0.49065118990E+02  0.16047800772E+04  0.10566000000E+00 0. -1.
          2    1    1    2  501    0  0.10113764460E+02  0.39118589460E+01 -0.22430521310E+03  0.22456718259E+03  0.00000000000E+00 0. -1.
          4    1    3    3  502    0  0.17661458669E+03 -0.27461856767E+03 -0.56714396011E+03  0.65441603085E+03  0.00000000000E+00 0.  1.
</event>
<event>
 7    1  0.4894942E-006  0.9982637E+03  0.7818608E-02  0.9166321E-01
         -4   -1    0    0    0  501 -0.00000000000E+00  0.00000000000E+00  0.52980525284E+03  0.52980525284E+03  0.00000000000E+00 0. -1.
          1   -1    0    0  501    0  0.00000000000E+00 -0.00000000000E+00 -0.10449761207E+04  0.10449761207E+04  0.00000000000E+00 0. -1.
   -9000010    2    1    2    0  502 -0.10016363234E+03  0.16260042299E+03 -0.34615947744E+03  0.10542111956E+04  0.97727335497E+03 0.  0.
        -13    1    1    2    0    0  0.79682016919E+02 -0.18876826855E+03  0.11476940354E+03  0.23485039959E+03  0.10566000000E+00 0.  1.
         13    1    3    3    0    0  0.15957779742E+03  0.44514983621E+03  0.81201628964E+02  0.47980950993E+03  0.10566000000E+00 0. -1.
          1    1    1    2  502    0  0.20481615424E+02  0.26167845563E+02 -0.28378079396E+03  0.28571977833E+03  0.00000000000E+00 0. -1.
         -4    1    3    3    0  502 -0.25974142976E+03 -0.28254941323E+03 -0.42736110641E+03  0.57440168569E+03  0.00000000000E+00 0. -1.
</event>
<event>
 7    1  0.4894942E-006  0.1028637E+04  0.7818608E-02  0.9205181E-01
         -4   -1    0    0    0  501 -0.00000000000E+00  0.00000000000E+00  0.31056818958E+03  0.31056818958E+03  0.00000000000E+00 0. -1.
          2   -1    0    0  501    0  0.00000000000E+00 -0.00000000000E+00 -0.22201801098E+04  0.22201801098E+04  0.00000000000E+00 0. -1.
   -9000010    2    1    2    0  502  0.10364228490E+03 -0.13808317206E+03 -0.78355174108E+03  0.12946985788E+04  0.10161114080E+04 0.  0.
        -13    1    1    2    0    0 -0.10647892004E+03  0.11769550393E+03 -0.59822681231E+02  0.16961355021E+03  0.10566000000E+00 0.  1.
         13    1    3    3    0    0 -0.43761338061E+03 -0.19333856873E+03 -0.28575540157E+03  0.55726244602E+03  0.10566000000E+00 0. -1.
          2    1    1    2  502    0  0.28366351427E+01  0.20387668129E+02 -0.10662374980E+04  0.10664361704E+04  0.00000000000E+00 0. -1.
         -4    1    3    3    0  502  0.54125566551E+03  0.55255396664E+02 -0.49779633951E+03  0.73743613278E+03  0.00000000000E+00 0. -1.
</event>
<event>
 7    1  0.4894942E-006  0.1073049E+04  0.7818608E-02  0.8952657E-01
         -4   -1    0    0    0  501 -0.00000000000E+00  0.00000000000E+00  0.20623272862E+04  0.20623272862E+04  0.00000000000E+00 0. -1.
          1   -1    0    0  501    0  0.00000000000E+00 -0.00000000000E+00 -0.47896619637E+03  0.47896619637E+03  0.00000000000E+00 0. -1.
   -9000010    2    1    2    0  502 -0.56525643293E+02 -0.30032606322E+03  0.56881922016E+03  0.11917282249E+04  0.10016336477E+04 0.  0.
        -13    1    1    2    0    0  0.94467119849E+02  0.38190326393E+03  0.11338353436E+04  0.12001486314E+04  0.10566000000E+00 0.  1.
         13    1    3    3    0    0 -0.43840639972E+03  0.14333498611E+03  0.23078621410E+03  0.51575903031E+03  0.10566000000E+00 0. -1.
          1    1    1    2  502    0 -0.37941476556E+02 -0.81577200705E+02 -0.11929347392E+03  0.14941662637E+03  0.00000000000E+00 0. -1.
         -4    1    3    3    0  502  0.38188075643E+03 -0.44366104934E+03  0.33803300606E+03  0.67596919458E+03  0.00000000000E+00 0. -1.
</event>
<event>
 7    1  0.4894942E-006  0.1013653E+04  0.7818608E-02  0.9289459E-01
         -4   -1    0    0    0  501 -0.00000000000E+00  0.00000000000E+00  0.14776890021E+04  0.14776890021E+04  0.00000000000E+00 0. -1.
          2   -1    0    0  501    0  0.00000000000E+00 -0.00000000000E+00 -0.10694347940E+04  0.10694347940E+04  0.00000000000E+00 0. -1.
   -9000010    2    1    2    0  502 -0.28820890871E+02  0.10702448306E+03  0.99305010932E+03  0.14181926462E+04  0.10063980219E+04 0.  0.
        -13    1    1    2    0    0  0.41681068305E+02 -0.11438046944E+03  0.25838115677E+03  0.28562394260E+03  0.10566000000E+00 0.  1.
         13    1    3    3    0    0 -0.15313472826E+03 -0.24489400819E+03 -0.65162166527E+02  0.29609025542E+03  0.10566000000E+00 0. -1.
          2    1    1    2  502    0 -0.12860177434E+02  0.73559863780E+01 -0.84317705797E+03  0.84330720724E+03  0.00000000000E+00 0. -1.
         -4    1    3    3    0  502  0.12431383739E+03  0.35191849125E+03  0.10582122758E+04  0.11221023908E+04  0.00000000000E+00 0. -1.
</event>
<event>
 7    1  0.4894942E-006  0.1132014E+04  0.7818608E-02  0.9205375E-01
         -4   -1    0    0    0  502 -0.00000000000E+00  0.00000000000E+00  0.25798390211E+04  0.25798390211E+04  0.00000000000E+00 0. -1.
         -2   -1    0    0    0  501  0.00000000000E+00 -0.00000000000E+00 -0.65486826694E+03  0.65486826694E+03  0.00000000000E+00 0. -1.
   -9000010    2    1    2    0  501  0.62808750420E+03  0.12539068512E+03  0.18497962920E+04  0.21954521913E+04  0.99400566684E+03 0.  0.
        -13    1    1    2    0    0 -0.96304845608E+02 -0.71563765367E+02  0.39741520345E+03  0.41513232939E+03  0.10566000000E+00 0.  1.
         13    1    3    3    0    0  0.32884814453E+03 -0.33748518225E+03  0.14210967132E+04  0.14971817625E+04  0.10566000000E+00 0. -1.
         -2    1    1    2    0  502 -0.53178265859E+03 -0.53826919754E+02 -0.32224074132E+03  0.62412276728E+03  0.00000000000E+00 0. -1.
         -4    1    3    3    0  501  0.29923935967E+03  0.46287586737E+03  0.42869957875E+03  0.69827042884E+03  0.00000000000E+00 0. -1.
</event>
<event>
 7    1  0.4894942E-006  0.1080002E+04  0.7818608E-02  0.8907518E-01
          4   -1    0    0  501    0 -0.00000000000E+00  0.00000000000E+00  0.60941045322E+03  0.60941045322E+03  0.00000000000E+00 0.  1.
          2   -1    0    0  502    0  0.00000000000E+00 -0.00000000000E+00 -0.13599769292E+04  0.13599769292E+04  0.00000000000E+00 0. -1.
    9000010    2    1    2  502    0  0.35497817200E+03 -0.27905115014E+03 -0.89453389200E+03  0.14013856909E+04  0.97969991509E+03 0.  0.
        -13    1    3    3    0    0 -0.33832213138E+03 -0.12596427101E+03 -0.22435924464E+03  0.42504816665E+03  0.10566000000E+00 0.  1.
         13    1    1    2    0    0 -0.37736783445E+03  0.25428345121E+03  0.20448935347E+03  0.49888121119E+03  0.10566000000E+00 0. -1.
          2    1    1    2  501    0  0.22389662444E+02  0.24767698925E+02 -0.60521937452E+02  0.69120480376E+02  0.00000000000E+00 0. -1.
          4    1    3    3  502    0  0.69330030338E+03 -0.15308687913E+03 -0.67017464736E+03  0.97633752421E+03  0.00000000000E+00 0.  1.
</event>
<event>
 7    1  0.4894942E-006  0.1119279E+04  0.7818608E-02  0.8859746E-01
          4   -1    0    0  501    0 -0.00000000000E+00  0.00000000000E+00  0.78720793553E+03  0.78720793553E+03  0.00000000000E+00 0.  1.
          2   -1    0    0  502    0  0.00000000000E+00 -0.00000000000E+00 -0.17625165865E+04  0.17625165865E+04  0.00000000000E+00 0. -1.
    9000010    2    1    2  502    0 -0.47858369577E+03  0.86734733838E+02  0.14066873438E+03  0.11230080075E+04  0.10023941461E+04 0.  0.
        -13    1    3    3    0    0 -0.43505154724E+02  0.47886662841E+03  0.22566391352E+03  0.53115925985E+03  0.10566000000E+00 0.  1.
         13    1    1    2    0    0  0.49110300013E+03 -0.13256951422E+03 -0.26342919074E+03  0.57284533910E+03  0.10566000000E+00 0. -1.
          2    1    1    2  501    0 -0.12519304354E+02  0.45834780381E+02 -0.85254819463E+03  0.85387117543E+03  0.00000000000E+00 0. -1.
          4    1    3    3  502    0 -0.43507854105E+03 -0.39213189458E+03 -0.84995179137E+02  0.59184874766E+03  0.00000000000E+00 0.  1.
</event>
<event>
 7    1  0.4894942E-006  0.1174665E+04  0.7818608E-02  0.8783165E-01
          4   -1    0    0  501    0 -0.00000000000E+00  0.00000000000E+00  0.17981775942E+04  0.17981775942E+04  0.00000000000E+00 0.  1.
          2   -1    0    0  502    0  0.00000000000E+00 -0.00000000000E+00 -0.10792654039E+04  0.10792654039E+04  0.00000000000E+00 0.  1.
    9000010    2    1    2  502    0 -0.75508839436E+03  0.37384622470E+02 -0.56998031949E+02  0.12652179965E+04  0.10129026161E+04 0.  0.
        -13    1    3    3    0    0 -0.54937443774E+03  0.37450386664E+03  0.30315336294E+03  0.73073072441E+03  0.10566000000E+00 0.  1.
         13    1    1    2    0    0  0.57754531611E+03  0.11047133080E+02  0.10983359284E+04  0.12409764116E+04  0.10566000000E+00 0. -1.
          2    1    1    2  501    0  0.17754307825E+03 -0.48431755549E+02 -0.32242570618E+03  0.37124859001E+03  0.00000000000E+00 0.  1.
          4    1    3    3  502    0 -0.20571395662E+03 -0.33711924417E+03 -0.36015139489E+03  0.53448727205E+03  0.00000000000E+00 0.  1.
</event>
<event>
 7    1  0.4894942E-006  0.1023919E+04  0.7818608E-02  0.8992117E-01
          2   -1    0    0  501    0  0.00000000000E+00  0.00000000000E+00  0.24128267448E+04  0.24128267448E+04  0.00000000000E+00 0.  1.
         -4   -1    0    0    0  501 -0.00000000000E+00 -0.00000000000E+00 -0.27967188012E+03  0.27967188012E+03  0.00000000000E+00 0. -1.
   -9000010    2    1    2    0  502 -0.20513058289E+03 -0.30750202153E+03  0.94580039668E+03  0.13918528727E+04  0.95188233495E+03 0.  0.
        -13    1    1    2    0    0  0.24844923657E+03  0.29081889583E+03  0.60058418794E+03  0.71204215556E+03  0.10566000000E+00 0.  1.
         13    1    3    3    0    0 -0.26975288405E+03 -0.34949370861E+03 -0.14312834495E+01  0.44149125761E+03  0.10566000000E+00 0. -1.
          2    1    1    2  502    0 -0.43318653681E+02  0.16683125705E+02  0.58677028001E+03  0.58860359662E+03  0.00000000000E+00 0.  1.
         -4    1    3    3    0  502  0.64622301159E+02  0.41991687080E+02  0.94723168013E+03  0.95036161509E+03  0.00000000000E+00 0. -1.
</event>
<event>
 7    1  0.4894942E-006  0.1162468E+04  0.7818608E-02  0.8777870E-01
         -4   -1    0    0    0  501 -0.00000000000E+00  0.00000000000E+00  0.19788857643E+04  0.19788857643E+04  0.00000000000E+00 0. -1.
          2   -1    0    0  501    0  0.00000000000E+00 -0.00000000000E+00 -0.44789609325E+04  0.44789609325E+04  0.00000000000E+00 0.  1.
   -9000010    2    1    2    0  502 -0.25873464208E+03  0.96010498054E+02 -0.16910963070E+04  0.19818278508E+04  0.99582793691E+03 0.  0.
        -13    1    1    2    0    0  0.24613447314E+02  0.62728390504E+03  0.17222461346E+04  0.18330910175E+04  0.10566000000E+00 0.  1.
         13    1    3    3    0    0  0.37382429492E+03  0.13095098158E+03 -0.73396329430E+03  0.83402331598E+03  0.10566000000E+00 0. -1.
          2    1    1    2  502    0  0.23412119476E+03 -0.72329440310E+03 -0.25312249958E+04  0.26429278285E+04  0.00000000000E+00 0.  1.
         -4    1    3    3    0  502 -0.63255893700E+03 -0.34940483522E+02 -0.95713301265E+03  0.11478045348E+04  0.00000000000E+00 0. -1.
</event>
<event>
 7    1  0.4894942E-006  0.1144191E+04  0.7818608E-02  0.8945441E-01
         -4   -1    0    0    0  501 -0.00000000000E+00  0.00000000000E+00  0.45546529741E+04  0.45546529741E+04  0.00000000000E+00 0. -1.
          4   -1    0    0  501    0  0.00000000000E+00 -0.00000000000E+00 -0.23976246506E+03  0.23976246506E+03  0.00000000000E+00 0.  1.
   -9000010    2    1    2    0  502  0.12412437533E+03  0.59979619459E+03  0.27526689739E+04  0.29898003622E+04  0.99325595416E+03 0.  0.
        -13    1    1    2    0    0  0.27209202935E+03 -0.18139208817E+03  0.58049919842E+03  0.66627058513E+03  0.10566000000E+00 0.  1.
         13    1    3    3    0    0 -0.10228468766E+03  0.63415735086E+03  0.26702393182E+04  0.27464150689E+04  0.10566000000E+00 0. -1.
          4    1    1    2  502    0 -0.39621640469E+03 -0.41840410642E+03  0.98172233679E+03  0.11383444919E+04  0.00000000000E+00 0.  1.
         -4    1    3    3    0  502  0.22640906299E+03 -0.34361156262E+02  0.82429655666E+02  0.24338529330E+03  0.00000000000E+00 0. -1.
</event>
<event>
 7    1  0.4894942E-006  0.1292976E+04  0.7818608E-02  0.8814988E-01
         -4   -1    0    0    0  501 -0.00000000000E+00  0.00000000000E+00  0.88779240645E+03  0.88779240645E+03  0.00000000000E+00 0. -1.
          2   -1    0    0  501    0  0.00000000000E+00 -0.00000000000E+00 -0.22309108385E+04  0.22309108385E+04  0.00000000000E+00 0.  1.
   -9000010    2    1    2    0  502 -0.89701907837E+03 -0.47178866504E+03 -0.44228165680E+03  0.15064456322E+04  0.10230042069E+04 0.  0.
        -13    1    1    2    0    0  0.38338098881E+03 -0.70594952980E+02  0.60838481171E+02  0.39454525967E+03  0.10566000000E+00 0.  1.
         13    1    3    3    0    0 -0.71912297464E+03 -0.32927847010E+03  0.20762773924E+03  0.81772333512E+03  0.10566000000E+00 0. -1.
          2    1    1    2  502    0  0.51363808956E+03  0.54238361802E+03 -0.96167525647E+03  0.12177123532E+04  0.00000000000E+00 0.  1.
         -4    1    3    3    0  502 -0.17789610373E+03 -0.14251019493E+03 -0.64990939604E+03  0.68872229705E+03  0.00000000000E+00 0. -1.
</event>
<event>
 7    1  0.4894942E-006  0.1047006E+04  0.7818608E-02  0.9233159E-01
         -4   -1    0    0    0  501 -0.00000000000E+00  0.00000000000E+00  0.21764341849E+04  0.21764341849E+04  0.00000000000E+00 0. -1.
          2   -1    0    0  501    0  0.00000000000E+00 -0.00000000000E+00 -0.63945143599E+03  0.63945143599E+03  0.00000000000E+00 0.  1.
   -9000010    2    1    2    0  502  0.41622344126E+03  0.69447807769E+02  0.16369095164E+04  0.19672893702E+04  0.10063248731E+04 0.  0.
        -13    1    1    2    0    0 -0.13429825925E+03 -0.22870177340E+02  0.31591756625E+03  0.34403922347E+03  0.10566000000E+00 0.  1.
         13    1    3    3    0    0 -0.14916177197E+02 -0.23449151957E+03  0.13430662450E+04  0.13634645997E+04  0.10566000000E+00 0. -1.
          2    1    1    2  502    0 -0.28192518200E+03 -0.46577630429E+02 -0.41584433368E+03  0.50455702726E+03  0.00000000000E+00 0.  1.
         -4    1    3    3    0  502  0.43113961846E+03  0.30393932734E+03  0.29384327139E+03  0.60382477048E+03  0.00000000000E+00 0. -1.
</event>
<event>
 7    1  0.4894942E-006  0.1029298E+04  0.7818608E-02  0.9063597E-01
          2   -1    0    0  502    0  0.00000000000E+00  0.00000000000E+00  0.80592786973E+03  0.80592786973E+03  0.00000000000E+00 0.  1.
          4   -1    0    0  501    0 -0.00000000000E+00 -0.00000000000E+00 -0.13954254580E+04  0.13954254580E+04  0.00000000000E+00 0.  1.
    9000010    2    1    2  502    0  0.21529163402E+03 -0.12781824775E+03 -0.72312077571E+03  0.12519662758E+04  0.99087229622E+03 0.  0.
        -13    1    3    3    0    0  0.93445343251E+02 -0.48910487138E+03 -0.80027700817E+02  0.50434120538E+03  0.10566000000E+00 0.  1.
         13    1    1    2    0    0 -0.76721660498E+02  0.28821203564E+03 -0.32684843411E+03  0.44247293784E+03  0.10566000000E+00 0. -1.
          2    1    1    2  501    0 -0.13856997352E+03 -0.16039378789E+03  0.46047162156E+03  0.50691411404E+03  0.00000000000E+00 0.  1.
          4    1    3    3  502    0  0.12184629077E+03  0.36128662363E+03 -0.64309307490E+03  0.74762507045E+03  0.00000000000E+00 0.  1.
</event>
<event>
 7    1  0.4894942E-006  0.1144773E+04  0.7818608E-02  0.8835854E-01
          2   -1    0    0  502    0  0.00000000000E+00  0.00000000000E+00  0.13194435285E+04  0.13194435285E+04  0.00000000000E+00 0.  1.
          4   -1    0    0  501    0 -0.00000000000E+00 -0.00000000000E+00 -0.14643175329E+04  0.14643175329E+04  0.00000000000E+00 0.  1.
    9000010    2    1    2  502    0 -0.40923471461E+02  0.38121566332E+03  0.48370819334E+03  0.11944986419E+04  0.10226696811E+04 0.  0.
        -13    1    3    3    0    0  0.33873520119E+03  0.52181056217E+03  0.87876070148E+02  0.62829134498E+03  0.10566000000E+00 0.  1.
         13    1    1    2    0    0 -0.19399028682E+03 -0.49092449046E+03 -0.10032444098E+04  0.11336394681E+04  0.10566000000E+00 0. -1.
          2    1    1    2  501    0  0.23491375828E+03  0.10970882715E+03  0.37466221213E+03  0.45562295134E+03  0.00000000000E+00 0.  1.
          4    1    3    3  502    0 -0.37965867265E+03 -0.14059489885E+03  0.39583212320E+03  0.56620729689E+03  0.00000000000E+00 0.  1.
</event>
<event>
 7    1  0.4894942E-006  0.1094839E+04  0.7818608E-02  0.8895909E-01
          2   -1    0    0  501    0  0.00000000000E+00  0.00000000000E+00  0.67522445115E+03  0.67522445115E+03  0.00000000000E+00 0. -1.
         -4   -1    0    0    0  501 -0.00000000000E+00 -0.00000000000E+00 -0.23565745485E+04  0.23565745485E+04  0.00000000000E+00 0. -1.
   -9000010    2    1    2    0  502  0.31404824493E+03  0.20754299860E+03  0.40702730188E+02  0.10641817895E+04  0.99454802417E+03 0.  0.
        -13    1    1    2    0    0 -0.34121349937E+03 -0.31197647439E+03 -0.17841744499E+04  0.18431045688E+04  0.10566000000E+00 0.  1.
         13    1    3    3    0    0 -0.34267271967E+02  0.31318167856E+03 -0.38930071067E+03  0.50081140583E+03  0.10566000000E+00 0. -1.
          2    1    1    2  502    0  0.27165254437E+02  0.10443347579E+03  0.62121622312E+02  0.12451264142E+03  0.00000000000E+00 0. -1.
         -4    1    3    3    0  502  0.34831551690E+03 -0.10563867996E+03  0.43000344086E+03  0.56337038365E+03  0.00000000000E+00 0. -1.
</event>
<event>
 7    1  0.4894942E-006  0.1103201E+04  0.7818608E-02  0.8950048E-01
         -4   -1    0    0    0  501  0.00000000000E+00  0.00000000000E+00  0.51946043111E+03  0.51946043111E+03  0.00000000000E+00 0. -1.
         -4   -1    0    0    0  502 -0.00000000000E+00 -0.00000000000E+00 -0.23466488070E+04  0.23466488070E+04  0.00000000000E+00 0. -1.
   -9000010    2    1    2    0  501 -0.30331397793E+03 -0.15357591654E+03 -0.30541225267E+03  0.11391830415E+04  0.10434924181E+04 0.  0.
        -13    1    1    2    0    0  0.33551208062E+03  0.12761615109E+03 -0.15992837276E+04  0.16390737295E+04  0.10566000000E+00 0.  1.
         13    1    3    3    0    0 -0.67457683753E+03 -0.48785834998E+02 -0.53507328589E+02  0.67845192372E+03  0.10566000000E+00 0. -1.
         -4    1    1    2    0  502 -0.32198102692E+02  0.25959765446E+02  0.77507604381E+02  0.87852467102E+02  0.00000000000E+00 0. -1.
         -4    1    3    3    0  501  0.37126285960E+03 -0.10479008154E+03 -0.25190492408E+03  0.46073111777E+03  0.00000000000E+00 0. -1.
</event>
<event>
 7    1  0.4894942E-006  0.1006699E+04  0.7818608E-02  0.9402493E-01
          2   -1    0    0  502    0  0.00000000000E+00  0.00000000000E+00  0.20192176458E+04  0.20192176458E+04  0.00000000000E+00 0.  1.
          4   -1    0    0  501    0 -0.00000000000E+00 -0.00000000000E+00 -0.87669620476E+03  0.87669620476E+03  0.00000000000E+00 0.  1.
    9000010    2    1    2  502    0 -0.63502222723E+02  0.85944798567E+02 -0.54757273466E+03  0.11481106356E+04  0.10034456095E+04 0.  0.
        -13    1    3    3    0    0 -0.11955345339E+03  0.36370681176E+02  0.28551745221E+03  0.31166661892E+03  0.10566000000E+00 0.  1.
         13    1    1    2    0    0  0.39601596536E+02 -0.65470072283E+02  0.22281656717E+02  0.79693790242E+02  0.10566000000E+00 0. -1.
          2    1    1    2  501    0  0.23900626187E+02 -0.20474726284E+02  0.16678125190E+04  0.16681094247E+04  0.00000000000E+00 0.  1.
          4    1    3    3  502    0  0.56051230666E+02  0.49574117390E+02 -0.83309018688E+03  0.83644401668E+03  0.00000000000E+00 0.  1.
</event>
<event>
 7    1  0.4894942E-006  0.9301066E+03  0.7818608E-02  0.9336540E-01
         -2   -1    0    0    0  501  0.00000000000E+00  0.00000000000E+00  0.50231926029E+03  0.50231926029E+03  0.00000000000E+00 0. -1.
         -4   -1    0    0    0  502 -0.00000000000E+00 -0.00000000000E+00 -0.10778878314E+04  0.10778878314E+04  0.00000000000E+00 0. -1.
   -9000010    2    1    2    0  501 -0.56225477013E+02  0.10860079278E+03 -0.82217523950E+03  0.12404932818E+04  0.92081269606E+03 0.  0.
        -13    1    1    2    0    0  0.56071724553E+02 -0.12325246903E+03  0.52774297425E+02  0.14532841102E+03  0.10566000000E+00 0.  1.
         13    1    3    3    0    0  0.22059297571E+03 -0.16889230746E+03 -0.80116941676E+03  0.84797306442E+03  0.10566000000E+00 0. -1.
         -2    1    1    2    0  502  0.15375246033E+00  0.14651676252E+02  0.19383237098E+03  0.19438539888E+03  0.00000000000E+00 0. -1.
         -4    1    3    3    0  501 -0.27681845273E+03  0.27749310024E+03 -0.21005822734E+02  0.39252021736E+03  0.00000000000E+00 0. -1.
</event>
<event>
 7    1  0.4894942E-006  0.1310985E+04  0.7818608E-02  0.8623374E-01
          2   -1    0    0  502    0  0.00000000000E+00  0.00000000000E+00  0.52219410198E+03  0.52219410198E+03  0.00000000000E+00 0. -1.
          4   -1    0    0  501    0 -0.00000000000E+00 -0.00000000000E+00 -0.37388069565E+04  0.37388069565E+04  0.00000000000E+00 0.  1.
    9000010    2    1    2  502    0 -0.88339783938E+02  0.74401038001E+03 -0.12079202147E+04  0.17346641532E+04  0.99430031500E+03 0.  0.
        -13    1    3    3    0    0 -0.37291953789E+03  0.37603443054E+02 -0.95948903189E+02  0.38689689047E+03  0.10566000000E+00 0.  1.
         13    1    1    2    0    0 -0.11399689376E+03 -0.89029464704E+03 -0.20810709513E+04  0.22663795282E+04  0.10566000000E+00 0. -1.
          2    1    1    2  501    0  0.20233667770E+03  0.14628426703E+03  0.72378311456E+02  0.25995737707E+03  0.00000000000E+00 0. -1.
          4    1    3    3  502    0  0.28457975395E+03  0.70640693696E+03 -0.11119713115E+04  0.13477672627E+04  0.00000000000E+00 0.  1.
</event>
<event>
 7    1  0.4894942E-006  0.1111082E+04  0.7818608E-02  0.9253420E-01
         -4   -1    0    0    0  501 -0.00000000000E+00  0.00000000000E+00  0.25115493062E+04  0.25115493062E+04  0.00000000000E+00 0. -1.
          2   -1    0    0  501    0  0.00000000000E+00 -0.00000000000E+00 -0.25369461970E+03  0.25369461970E+03  0.00000000000E+00 0. -1.
   -9000010    2    1    2    0  502  0.23112911128E+03  0.11469451838E+03  0.16577050130E+04  0.19992553837E+04  0.10874100792E+04 0.  0.
        -13    1    1    2    0    0 -0.40585385288E+01 -0.10538937484E+03  0.51115723726E+03  0.52192444322E+03  0.10566000000E+00 0.  1.
         13    1    3    3    0    0  0.45774202444E+03  0.43331244416E+03  0.59450742578E+03  0.86644476204E+03  0.10566000000E+00 0. -1.
          2    1    1    2  502    0 -0.22707057275E+03 -0.93051435361E+01  0.88992436224E+02  0.24406409898E+03  0.00000000000E+00 0. -1.
         -4    1    3    3    0  502 -0.22661291315E+03 -0.31861792578E+03  0.10631975873E+04  0.11328106217E+04  0.00000000000E+00 0. -1.
</event>
<event>
 7    1  0.4894942E-006  0.1276222E+04  0.7818608E-02  0.8660707E-01
          4   -1    0    0  501    0 -0.00000000000E+00  0.00000000000E+00  0.10206448041E+04  0.10206448041E+04  0.00000000000E+00 0.  1.
          2   -1    0    0  502    0  0.00000000000E+00 -0.00000000000E+00 -0.22937596751E+04  0.22937596751E+04  0.00000000000E+00 0. -1.
    9000010    2    1    2  502    0  0.13619379090E+02  0.84560550550E+03 -0.12125544925E+04  0.17877923666E+04  0.10053253157E+04 0.  0.
        -13    1    3    3    0    0 -0.21702576398E+03  0.92702227699E+03 -0.12144832051E+04  0.15431914822E+04  0.10566000000E+00 0.  1.
         13    1    1    2    0    0  0.12537404773E+02 -0.77790364919E+03  0.52371039013E+03  0.93785065860E+03  0.10566000000E+00 0. -1.
          2    1    1    2  501    0 -0.26156783863E+02 -0.67701856308E+02 -0.58427076860E+03  0.58876145401E+03  0.00000000000E+00 0. -1.
          4    1    3    3  502    0  0.23064514307E+03 -0.81416771492E+02  0.19287125339E+01  0.24460088437E+03  0.00000000000E+00 0.  1.
</event>
<event>
 7    1  0.4894942E-006  0.1063270E+04  0.7818608E-02  0.9015565E-01
          1   -1    0    0  501    0  0.00000000000E+00  0.00000000000E+00  0.81837473987E+03  0.81837473987E+03  0.00000000000E+00 0. -1.
         -4   -1    0    0    0  501 -0.00000000000E+00 -0.00000000000E+00 -0.74789412893E+03  0.74789412893E+03  0.00000000000E+00 0. -1.
   -9000010    2    1    2    0  502 -0.30923749354E+03  0.13678034719E+03  0.16741109337E+03  0.10858174819E+04  0.10181534457E+04 0.  0.
        -13    1    1    2    0    0  0.30470855453E+03 -0.99077763034E+01 -0.15365456312E+03  0.34140182069E+03  0.10566000000E+00 0.  1.
         13    1    3    3    0    0 -0.28054460373E+03 -0.41155493980E+03 -0.38096942854E+02  0.49953391414E+03  0.10566000000E+00 0. -1.
          1    1    1    2  502    0  0.45289390080E+01 -0.12687257088E+03  0.56724080693E+02  0.13904956620E+03  0.00000000000E+00 0. -1.
         -4    1    3    3    0  502 -0.28692889813E+02  0.54833528699E+03  0.20550803623E+03  0.58628356777E+03  0.00000000000E+00 0. -1.
</event>
<event>
 7    1  0.4894942E-006  0.1222552E+04  0.7818608E-02  0.8716574E-01
          1   -1    0    0  501    0  0.00000000000E+00  0.00000000000E+00  0.14566456944E+04  0.14566456944E+04  0.00000000000E+00 0. -1.
         -4   -1    0    0    0  501 -0.00000000000E+00 -0.00000000000E+00 -0.25447338841E+04  0.25447338841E+04  0.00000000000E+00 0. -1.
   -9000010    2    1    2    0  502 -0.28106868511E+03 -0.69916231455E+03 -0.13463850733E+04  0.18392452707E+04  0.10011207982E+04 0.  0.
        -13    1    1    2    0    0  0.88668816525E+03  0.87806325615E+02 -0.49427629635E+03  0.10189381343E+04  0.10566000000E+00 0.  1.
         13    1    3    3    0    0 -0.22541147883E+03 -0.90128968322E+03 -0.13386492232E+04  0.16294524178E+04  0.10566000000E+00 0. -1.
          1    1    1    2  502    0 -0.60561948014E+03  0.61135598894E+03  0.75257317995E+03  0.11431961735E+04  0.00000000000E+00 0. -1.
         -4    1    3    3    0  502 -0.55657206284E+02  0.20212736867E+03 -0.77358500657E+01  0.20979285295E+03  0.00000000000E+00 0. -1.
</event>
<event>
 7    1  0.4894942E-006  0.1299847E+04  0.7818608E-02  0.8634931E-01
          2   -1    0    0  501    0  0.00000000000E+00  0.00000000000E+00  0.81067586755E+03  0.81067586755E+03  0.00000000000E+00 0.  1.
         -4   -1    0    0    0  501 -0.00000000000E+00 -0.00000000000E+00 -0.21056321808E+04  0.21056321808E+04  0.00000000000E+00 0. -1.
   -9000010    2    1    2    0  502 -0.72986462595E+03  0.43377239671E+03 -0.33160893188E+03  0.13514395956E+04  0.99777935055E+03 0.  0.
        -13    1    1    2    0    0  0.69106801429E+03 -0.45797085300E+03 -0.11246594195E+04  0.13972011751E+04  0.10566000000E+00 0.  1.
         13    1    3    3    0    0 -0.32391078942E+03  0.19931218519E+03 -0.67195932266E+03  0.77212232784E+03  0.10566000000E+00 0. -1.
          2    1    1    2  502    0  0.38796611656E+02  0.24198456283E+02  0.16131203814E+03  0.16766727770E+03  0.00000000000E+00 0.  1.
         -4    1    3    3    0  502 -0.40595383653E+03  0.23446021153E+03  0.34035039078E+03  0.57931726772E+03  0.00000000000E+00 0. -1.
</event>
<event>
 7    1  0.4894942E-006  0.1112341E+04  0.7818608E-02  0.8863793E-01
         -4   -1    0    0    0  501 -0.00000000000E+00  0.00000000000E+00  0.20243675642E+04  0.20243675642E+04  0.00000000000E+00 0. -1.
          2   -1    0    0  501    0  0.00000000000E+00 -0.00000000000E+00 -0.14716968640E+04  0.14716968640E+04  0.00000000000E+00 0. -1.
   -9000010    2    1    2    0  502  0.56660453753E+03  0.23018277811E+03  0.25800003245E+03  0.11954205270E+04  0.99420390584E+03 0.  0.
        -13    1    1    2    0    0 -0.41071800542E+03 -0.26479023124E+03  0.12447504669E+04  0.13372385287E+04  0.10566000000E+00 0.  1.
         13    1    3    3    0    0 -0.81379931282E+01 -0.34749655538E+03  0.12702016374E+03  0.37007325774E+03  0.10566000000E+00 0. -1.
          2    1    1    2  502    0 -0.15588653211E+03  0.34607453133E+02 -0.95007979924E+03  0.96340537243E+03  0.00000000000E+00 0. -1.
         -4    1    3    3    0  502  0.57474253066E+03  0.57767933349E+03  0.13097986871E+03  0.82534726928E+03  0.00000000000E+00 0. -1.
</event>
<event>
 7    1  0.4894942E-006  0.1034404E+04  0.7818608E-02  0.9484237E-01
         -4   -1    0    0    0  501 -0.00000000000E+00  0.00000000000E+00  0.26856180941E+04  0.26856180941E+04  0.00000000000E+00 0. -1.
          4   -1    0    0  501    0  0.00000000000E+00 -0.00000000000E+00 -0.14742827859E+03  0.14742827859E+03  0.00000000000E+00 0. -1.
   -9000010    2    1    2    0  502  0.13161552847E+03 -0.64720838019E+02  0.23369284662E+04  0.25566168284E+04  0.10264226794E+04 0.  0.
        -13    1    1    2    0    0 -0.41987844287E+01  0.55033031131E+02  0.96593723946E+02  0.11125027180E+03  0.10566000000E+00 0.  1.
         13    1    3    3    0    0 -0.40800772391E+03  0.13026077834E+03  0.68495061731E+03  0.80783385201E+03  0.10566000000E+00 0. -1.
          4    1    1    2  502    0 -0.12741674404E+03  0.96878068880E+01  0.10466762537E+03  0.16517927250E+03  0.00000000000E+00 0. -1.
         -4    1    3    3    0  502  0.53962325238E+03 -0.19498161636E+03  0.16519778489E+04  0.17487829763E+04  0.00000000000E+00 0. -1.
</event>
<event>
 7    1  0.4894942E-006  0.1074051E+04  0.7818608E-02  0.9112077E-01
         -4   -1    0    0    0  502 -0.00000000000E+00  0.00000000000E+00  0.44160868837E+03  0.44160868837E+03  0.00000000000E+00 0. -1.
         -2   -1    0    0    0  501  0.00000000000E+00 -0.00000000000E+00 -0.33601617779E+04  0.33601617779E+04  0.00000000000E+00 0. -1.
   -9000010    2    1    2    0  501 -0.49201524719E+03 -0.60701096276E+02 -0.44486297850E+03  0.12058484525E+04  0.10051884372E+04 0.  0.
        -13    1    1    2    0    0  0.12919715131E+03  0.15566565629E+03 -0.17695914026E+03  0.26877174134E+03  0.10566000000E+00 0.  1.
         13    1    3    3    0    0 -0.17173380241E+03  0.46316660625E+03 -0.10857176315E+03  0.50577034606E+03  0.10566000000E+00 0. -1.
         -2    1    1    2    0  502  0.36281809587E+03 -0.94964560016E+02 -0.22967309707E+04  0.23271502724E+04  0.00000000000E+00 0. -1.
         -4    1    3    3    0  501 -0.32028144477E+03 -0.52386770253E+03 -0.33629121535E+03  0.70007810645E+03  0.00000000000E+00 0. -1.
</event>
<event>
 7    1  0.4894942E-006  0.1024515E+04  0.7818608E-02  0.9165431E-01
          4   -1    0    0  501    0 -0.00000000000E+00  0.00000000000E+00  0.31358907856E+03  0.31358907856E+03  0.00000000000E+00 0.  1.
          2   -1    0    0  502    0  0.00000000000E+00 -0.00000000000E+00 -0.17723015488E+04  0.17723015488E+04  0.00000000000E+00 0.  1.
    9000010    2    1    2  502    0 -0.18323831693E+03  0.25659443944E+02 -0.93272539406E+03  0.13849580782E+04  0.10069247885E+04 0.  0.
        -13    1    3    3    0    0 -0.48844164851E+03 -0.17402995034E+03 -0.87299620269E+03  0.10153738468E+04  0.10566000000E+00 0.  1.
         13    1    1    2    0    0  0.18876449900E+03 -0.15659282606E+02 -0.15204498968E+02  0.19002220178E+03  0.10566000000E+00 0. -1.
          2    1    1    2  501    0 -0.55261820755E+01 -0.10000161338E+02 -0.51078257719E+03  0.51091034739E+03  0.00000000000E+00 0.  1.
          4    1    3    3  502    0  0.30520333158E+03  0.19968939428E+03 -0.59729191368E+02  0.36958423140E+03  0.00000000000E+00 0.  1.
</event>
<event>
 7    1  0.4894942E-006  0.1120895E+04  0.7818608E-02  0.8952752E-01
          4   -1    0    0  501    0 -0.00000000000E+00  0.00000000000E+00  0.85253208484E+03  0.85253208484E+03  0.00000000000E+00 0.  1.
          2   -1    0    0  502    0  0.00000000000E+00 -0.00000000000E+00 -0.19294411748E+04  0.19294411748E+04  0.00000000000E+00 0.  1.
    9000010    2    1    2  502    0  0.31059878152E+03 -0.15966228606E+03 -0.91634450692E+01  0.11244995625E+04  0.10688552983E+04 0.  0.
        -13    1    3    3    0    0  0.34239362562E+03  0.40301647554E+03  0.12879605745E+03  0.54428311566E+03  0.10566000000E+00 0.  1.
         13    1    1    2    0    0 -0.26423361208E+03  0.20840255009E+03  0.19765907631E+03  0.39028213673E+03  0.10566000000E+00 0. -1.
          2    1    1    2  501    0 -0.46365169439E+02 -0.48740264034E+02 -0.12654047212E+04  0.12671915604E+04  0.00000000000E+00 0.  1.
          4    1    3    3  502    0 -0.31794844094E+02 -0.56267876160E+03 -0.13795950252E+03  0.58021644685E+03  0.00000000000E+00 0.  1.
</event>
<event>
 7    1  0.4894942E-006  0.1001361E+04  0.7818608E-02  0.9146560E-01
          4   -1    0    0  501    0 -0.00000000000E+00  0.00000000000E+00  0.14580095305E+04  0.14580095305E+04  0.00000000000E+00 0.  1.
          2   -1    0    0  502    0  0.00000000000E+00 -0.00000000000E+00 -0.93814287128E+03  0.93814287128E+03  0.00000000000E+00 0.  1.
    9000010    2    1    2  502    0  0.28799629361E+03  0.33120784140E+02  0.81637757645E+03  0.12984027421E+04  0.96712898933E+03 0.  0.
        -13    1    3    3    0    0  0.33513095156E+03  0.15243816319E+03  0.10049839642E+04  0.10703003914E+04  0.10566000000E+00 0.  1.
         13    1    1    2    0    0 -0.87166050162E+02 -0.19977239979E+03  0.34336508841E+03  0.40670201269E+03  0.10566000000E+00 0. -1.
          2    1    1    2  501    0 -0.20083024345E+03  0.16665161565E+03 -0.63987600568E+03  0.69104764693E+03  0.00000000000E+00 0.  1.
          4    1    3    3  502    0 -0.47134657942E+02 -0.11931737905E+03 -0.18860638776E+03  0.22810235077E+03  0.00000000000E+00 0.  1.
</event>
<event>
 7    1  0.4894942E-006  0.1017069E+04  0.7818608E-02  0.9045723E-01
         -4   -1    0    0    0  501 -0.00000000000E+00  0.00000000000E+00  0.28020473883E+03  0.28020473883E+03  0.00000000000E+00 0. -1.
          1   -1    0    0  501    0  0.00000000000E+00 -0.00000000000E+00 -0.20886771887E+04  0.20886771887E+04  0.00000000000E+00 0. -1.
   -9000010    2    1    2    0  502  0.33737825191E+03  0.12456804673E+03 -0.90704286091E+03  0.13748790511E+04  0.96861982763E+03 0.  0.
        -13    1    1    2    0    0 -0.26323146554E+03 -0.12045764355E+03 -0.44034719335E+03  0.52697866199E+03  0.10566000000E+00 0.  1.
         13    1    3    3    0    0 -0.26476007116E+03 -0.20314070210E+03 -0.19521788231E+03  0.38661876942E+03  0.10566000000E+00 0. -1.
          1    1    1    2  502    0 -0.74146786372E+02 -0.41104031863E+01 -0.46108239565E+03  0.46702421449E+03  0.00000000000E+00 0. -1.
         -4    1    3    3    0  502  0.60213832307E+03  0.32770874883E+03 -0.71182497860E+03  0.98826028168E+03  0.00000000000E+00 0. -1.
</event>
<event>
 7    1  0.4894942E-006  0.1078986E+04  0.7818608E-02  0.8973312E-01
          2   -1    0    0  501    0  0.00000000000E+00  0.00000000000E+00  0.13470873665E+04  0.13470873665E+04  0.00000000000E+00 0. -1.
         -4   -1    0    0    0  501 -0.00000000000E+00 -0.00000000000E+00 -0.15533376576E+04  0.15533376576E+04  0.00000000000E+00 0. -1.
   -9000010    2    1    2    0  502 -0.35068969823E+03 -0.68083203557E+02 -0.32564880915E+03  0.11299440004E+04  0.10213264464E+04 0.  0.
        -13    1    1    2    0    0  0.34319661289E+03  0.52462773488E+02 -0.78895280654E+03  0.86196450033E+03  0.10566000000E+00 0.  1.
         13    1    3    3    0    0 -0.48184154480E+03 -0.62395157482E+02  0.24517489442E+03  0.54421978096E+03  0.10566000000E+00 0. -1.
          2    1    1    2  502    0  0.74930853408E+01  0.15620430069E+02  0.90835132467E+03  0.90851652334E+03  0.00000000000E+00 0. -1.
         -4    1    3    3    0  502  0.13115184656E+03 -0.56880460750E+01 -0.57082370357E+03  0.58572421947E+03  0.00000000000E+00 0. -1.
</event>
<event>
 7    1  0.4894942E-006  0.9674771E+03  0.7818608E-02  0.9463642E-01
         -4   -1    0    0    0  501 -0.00000000000E+00  0.00000000000E+00  0.34014502225E+03  0.34014502225E+03  0.00000000000E+00 0. -1.
          2   -1    0    0  501    0  0.00000000000E+00 -0.00000000000E+00 -0.27041394405E+04  0.27041394405E+04  0.00000000000E+00 0. -1.
   -9000010    2    1    2    0  502 -0.75963186874E+02 -0.66453623990E+02 -0.95347136131E+03  0.13601531771E+04  0.96473962210E+03 0.  0.
        -13    1    1    2    0    0  0.66920401655E+02  0.27986796651E+02  0.12691714301E+03  0.14618335506E+03  0.10566000000E+00 0.  1.
         13    1    3    3    0    0  0.20805798625E+03 -0.35279952173E+03 -0.85037432292E+03  0.94387082189E+03  0.10566000000E+00 0. -1.
          2    1    1    2  502    0  0.90427852184E+01  0.38466827338E+02 -0.15374401999E+04  0.15379479306E+04  0.00000000000E+00 0. -1.
         -4    1    3    3    0  502 -0.28402117313E+03  0.28634589774E+03 -0.10309703839E+03  0.41628235521E+03  0.00000000000E+00 0. -1.
</event>
<event>
 7    1  0.4894942E-006  0.1299548E+04  0.7818608E-02  0.8659333E-01
         -4   -1    0    0    0  501 -0.00000000000E+00  0.00000000000E+00  0.16776819232E+04  0.16776819232E+04  0.00000000000E+00 0. -1.
          1   -1    0    0  501    0  0.00000000000E+00 -0.00000000000E+00 -0.12166115785E+04  0.12166115785E+04  0.00000000000E+00 0. -1.
   -9000010    2    1    2    0  502  0.57506825680E+03 -0.46701455950E+03  0.47360905304E+03  0.13787003497E+04  0.10619336234E+04 0.  0.
        -13    1    1    2    0    0 -0.64256735055E+03  0.39532412006E+03  0.55689218647E+03  0.93771151129E+03  0.10566000000E+00 0.  1.
         13    1    3    3    0    0 -0.30610063657E+03 -0.19926563549E+03  0.20751396524E+03  0.42007909985E+03  0.10566000000E+00 0. -1.
          1    1    1    2  502    0  0.67499093757E+02  0.71690439444E+02 -0.56943089476E+03  0.57788164072E+03  0.00000000000E+00 0. -1.
         -4    1    3    3    0  502  0.88116889337E+03 -0.26774892401E+03  0.26609508780E+03  0.95862124987E+03  0.00000000000E+00 0. -1.
</event>
<event>
 7    1  0.4894942E-006  0.1107322E+04  0.7818608E-02  0.8876976E-01
          2   -1    0    0  501    0  0.00000000000E+00  0.00000000000E+00  0.10133324256E+04  0.10133324256E+04  0.00000000000E+00 0.  1.
         -4   -1    0    0    0  501 -0.00000000000E+00 -0.00000000000E+00 -0.22494111078E+04  0.22494111078E+04  0.00000000000E+00 0. -1.
   -9000010    2    1    2    0  502 -0.14259819175E+03 -0.45562203098E+03 -0.18808355291E+04  0.21823221740E+04  0.99852997177E+03 0.  0.
        -13    1    1    2    0    0  0.11509602687E+03  0.46744160003E+03  0.48974695595E+02  0.48388766962E+03  0.10566000000E+00 0.  1.
         13    1    3    3    0    0 -0.20322571445E+01 -0.48114408615E+03 -0.19605473080E+04  0.20187247261E+04  0.10566000000E+00 0. -1.
          2    1    1    2  502    0  0.27502164878E+02 -0.11819569051E+02  0.59578215128E+03  0.59653368980E+03  0.00000000000E+00 0.  1.
         -4    1    3    3    0  502 -0.14056593460E+03  0.25522055179E+02  0.79711778935E+02  0.16359744794E+03  0.00000000000E+00 0. -1.
</event>
<event>
 7    1  0.4894942E-006  0.1032967E+04  0.7818608E-02  0.9045782E-01
          2   -1    0    0  502    0  0.00000000000E+00  0.00000000000E+00  0.93981999633E+03  0.93981999633E+03  0.00000000000E+00 0.  1.
          4   -1    0    0  501    0 -0.00000000000E+00 -0.00000000000E+00 -0.16681104802E+04  0.16681104802E+04  0.00000000000E+00 0.  1.
    9000010    2    1    2  502    0 -0.16904346569E+03  0.25515207269E+03 -0.10385345928E+04  0.14668457629E+04  0.98964848207E+03 0.  0.
        -13    1    3    3    0    0 -0.25713706307E+03  0.60160450442E+03 -0.81545746359E+03  0.10454751719E+04  0.10566000000E+00 0.  1.
         13    1    1    2    0    0  0.17327830993E+03 -0.23704204662E+03 -0.36339213073E+03  0.46719177690E+03  0.10566000000E+00 0. -1.
          2    1    1    2  501    0 -0.42348442373E+01 -0.18110026069E+02  0.67363623964E+03  0.67389293682E+03  0.00000000000E+00 0.  1.
          4    1    3    3  502    0  0.88093597378E+02 -0.34645243174E+03 -0.22307712922E+03  0.42137059097E+03  0.00000000000E+00 0.  1.
</event>
<event>
 7    1  0.4894942E-006  0.1542867E+04  0.7818608E-02  0.8442257E-01
          2   -1    0    0  501    0  0.00000000000E+00  0.00000000000E+00  0.11603781857E+04  0.11603781857E+04  0.00000000000E+00 0.  1.
         -4   -1    0    0    0  501 -0.00000000000E+00 -0.00000000000E+00 -0.25114820695E+04  0.25114820695E+04  0.00000000000E+00 0. -1.
   -9000010    2    1    2    0  502  0.83614241730E+03  0.83610348602E+03 -0.15972193885E+04  0.22193526004E+04  0.98803492259E+03 0.  0.
        -13    1    1    2    0    0 -0.82335099983E+03 -0.85915524262E+03 -0.14989304599E+02  0.11900753297E+04  0.10566000000E+00 0.  1.
         13    1    3    3    0    0  0.56130697321E+03  0.16445439887E+03 -0.15539153607E+03  0.60519195974E+03  0.10566000000E+00 0. -1.
          2    1    1    2  502    0 -0.12791417467E+02  0.23051756601E+02  0.26110480931E+03  0.26243232516E+03  0.00000000000E+00 0.  1.
         -4    1    3    3    0  502  0.27483544409E+03  0.67164908716E+03 -0.14418278525E+04  0.16141606406E+04  0.00000000000E+00 0. -1.
</event>
<event>
 7    1  0.4894942E-006  0.1106256E+04  0.7818608E-02  0.8956474E-01
          2   -1    0    0  502    0  0.00000000000E+00  0.00000000000E+00  0.13187614471E+04  0.13187614471E+04  0.00000000000E+00 0.  1.
          4   -1    0    0  501    0 -0.00000000000E+00 -0.00000000000E+00 -0.60080750432E+03  0.60080750432E+03  0.00000000000E+00 0.  1.
    9000010    2    1    2  502    0 -0.38528491234E+02  0.31335354754E+03  0.70336969067E+03  0.13033013184E+04  0.10508046985E+04 0.  0.
        -13    1    3    3    0    0 -0.36921680409E+03  0.45183847251E+02 -0.10772238700E+03  0.38725540965E+03  0.10566000000E+00 0.  1.
         13    1    1    2    0    0  0.85127682674E+02 -0.33861456691E+03 -0.19511667892E+03  0.39997134502E+03  0.10566000000E+00 0. -1.
          2    1    1    2  501    0 -0.46599191440E+02  0.25261019364E+02  0.20970093099E+03  0.21629628800E+03  0.00000000000E+00 0.  1.
          4    1    3    3  502    0  0.33068831286E+03  0.26816970029E+03  0.81109207768E+03  0.91604590872E+03  0.00000000000E+00 0.  1.
</event>
<event>
 7    1  0.4894942E-006  0.1141770E+04  0.7818608E-02  0.8848648E-01
         -4   -1    0    0    0  501 -0.00000000000E+00  0.00000000000E+00  0.69865455010E+03  0.69865455010E+03  0.00000000000E+00 0. -1.
          2   -1    0    0  501    0  0.00000000000E+00 -0.00000000000E+00 -0.25081487845E+04  0.25081487845E+04  0.00000000000E+00 0. -1.
   -9000010    2    1    2    0  502 -0.37784022390E+03 -0.28026838164E+03 -0.18164974465E+03  0.11473674906E+04  0.10306027015E+04 0.  0.
        -13    1    1    2    0    0  0.43101343227E+03  0.25619022418E+03 -0.76750787669E+02  0.50724422553E+03  0.10566000000E+00 0.  1.
         13    1    3    3    0    0 -0.63844088997E+03 -0.85589004143E+02  0.17214713960E+03  0.66675849935E+03  0.10566000000E+00 0. -1.
          2    1    1    2  502    0 -0.53173208378E+02  0.24078157464E+02 -0.15510937021E+04  0.15521916184E+04  0.00000000000E+00 0. -1.
         -4    1    3    3    0  502  0.26060066607E+03 -0.19467937750E+03 -0.35379688426E+03  0.48060899127E+03  0.00000000000E+00 0. -1.
</event>
<event>
 7    1  0.4894942E-006  0.1086853E+04  0.7818608E-02  0.8922770E-01
          2   -1    0    0  502    0  0.00000000000E+00  0.00000000000E+00  0.57259889223E+03  0.57259889223E+03  0.00000000000E+00 0.  1.
          4   -1    0    0  501    0 -0.00000000000E+00 -0.00000000000E+00 -0.13785588172E+04  0.13785588172E+04  0.00000000000E+00 0.  1.
    9000010    2    1    2  502    0 -0.32729765830E+03 -0.25851159271E+03 -0.59810458862E+03  0.12399798258E+04  0.10029301415E+04 0.  0.
        -13    1    3    3    0    0 -0.20502067236E+03  0.37315763160E+03 -0.13293547023E+03  0.44604029473E+03  0.10566000000E+00 0.  1.
         13    1    1    2    0    0  0.32111514292E+03  0.26968328088E+03 -0.36353286184E+03  0.55497762099E+03  0.10566000000E+00 0. -1.
          2    1    1    2  501    0  0.61825153851E+01 -0.11171688167E+02  0.15567752550E+03  0.15620026267E+03  0.00000000000E+00 0.  1.
          4    1    3    3  502    0 -0.12227698594E+03 -0.63166922431E+03 -0.46516911839E+03  0.79393953103E+03  0.00000000000E+00 0.  1.
</event>
<event>
 7    1  0.4894942E-006  0.1080537E+04  0.7818608E-02  0.8933814E-01
         -4   -1    0    0    0  501 -0.00000000000E+00  0.00000000000E+00  0.27987647712E+04  0.27987647712E+04  0.00000000000E+00 0. -1.
          1   -1    0    0  501    0  0.00000000000E+00 -0.00000000000E+00 -0.92529139838E+03  0.92529139838E+03  0.00000000000E+00 0. -1.
   -9000010    2    1    2    0  502  0.16726430986E+03 -0.37420861123E+03  0.25317520745E+04  0.27530873967E+04  0.10008557403E+04 0.  0.
        -13    1    1    2    0    0 -0.17113377156E+03  0.36281791499E+03 -0.10114809043E+03  0.41370829647E+03  0.10566000000E+00 0.  1.
         13    1    3    3    0    0  0.30000022286E+03  0.18338388556E+03  0.34550569941E+03  0.49295434138E+03  0.10566000000E+00 0. -1.
          1    1    1    2  502    0  0.38694617048E+01  0.11390696238E+02 -0.55713061121E+03  0.55726047648E+03  0.00000000000E+00 0. -1.
         -4    1    3    3    0  502 -0.13273591300E+03 -0.55759249678E+03  0.21862463751E+04  0.22601330553E+04  0.00000000000E+00 0. -1.
</event>
<event>
 7    1  0.4894942E-006  0.1027087E+04  0.7818608E-02  0.9188261E-01
         -4   -1    0    0    0  501 -0.00000000000E+00  0.00000000000E+00  0.11425618992E+04  0.11425618992E+04  0.00000000000E+00 0. -1.
          1   -1    0    0  501    0  0.00000000000E+00 -0.00000000000E+00 -0.48282783524E+03  0.48282783524E+03  0.00000000000E+00 0. -1.
   -9000010    2    1    2    0  502  0.17060503229E+03  0.59338506025E+02  0.74440256469E+03  0.12697253463E+04  0.10126401835E+04 0.  0.
        -13    1    1    2    0    0 -0.16333918894E+03 -0.46703481908E+02  0.81804364703E+02  0.18855468998E+03  0.10566000000E+00 0.  1.
         13    1    3    3    0    0 -0.14504842409E+03  0.46265118058E+03  0.20648829861E+03  0.52699391728E+03  0.10566000000E+00 0. -1.
          1    1    1    2  502    0 -0.72658433561E+01 -0.12635024117E+02 -0.16647286541E+03  0.16710969820E+03  0.00000000000E+00 0. -1.
         -4    1    3    3    0  502  0.31565345638E+03 -0.40331267455E+03  0.53791426608E+03  0.74273142901E+03  0.00000000000E+00 0. -1.
</event>
<event>
 7    1  0.4894942E-006  0.9913327E+03  0.7818608E-02  0.9263992E-01
         -4   -1    0    0    0  501 -0.00000000000E+00  0.00000000000E+00  0.21457143588E+04  0.21457143588E+04  0.00000000000E+00 0. -1.
          1   -1    0    0  501    0  0.00000000000E+00 -0.00000000000E+00 -0.38048914291E+03  0.38048914291E+03  0.00000000000E+00 0.  1.
   -9000010    2    1    2    0  502 -0.99748134552E+02  0.59146198966E+02  0.16182004491E+04  0.18880333210E+04  0.96573762718E+03 0.  0.
        -13    1    1    2    0    0 -0.63363439626E+01  0.14246509465E+03  0.32117656863E+03  0.35141265180E+03  0.10566000000E+00 0.  1.
         13    1    3    3    0    0  0.38227124710E+03 -0.19330380622E+03  0.73097734711E+03  0.84724586810E+03  0.10566000000E+00 0. -1.
          1    1    1    2  502    0  0.10608447851E+03 -0.20161129361E+03 -0.17415180184E+03  0.28675752890E+03  0.00000000000E+00 0.  1.
         -4    1    3    3    0  502 -0.48201938166E+03  0.25245000519E+03  0.88722310201E+03  0.10407874529E+04  0.00000000000E+00 0. -1.
</event>
<event>
 7    1  0.4894942E-006  0.1514321E+04  0.7818608E-02  0.8462778E-01
         -4   -1    0    0    0  501 -0.00000000000E+00  0.00000000000E+00  0.36813598574E+04  0.36813598574E+04  0.00000000000E+00 0. -1.
          2   -1    0    0  501    0  0.00000000000E+00 -0.00000000000E+00 -0.23248927435E+04  0.23248927435E+04  0.00000000000E+00 0. -1.
   -9000010    2    1    2    0  502  0.10867356968E+04 -0.36975853926E+03  0.23837412942E+04  0.28270002307E+04  0.99598789866E+03 0.  0.
        -13    1    1    2    0    0 -0.10786203908E+04  0.34071438709E+03  0.77854188605E+03  0.13731845180E+04  0.10566000000E+00 0.  1.
         13    1    3    3    0    0  0.90908283925E+03 -0.16722920644E+03  0.80589939174E+03  0.12263242055E+04  0.10566000000E+00 0. -1.
          2    1    1    2  502    0 -0.81153059762E+01  0.29044152169E+02 -0.18058160664E+04  0.18060678522E+04  0.00000000000E+00 0. -1.
         -4    1    3    3    0  502  0.17765285756E+03 -0.20252933282E+03  0.15778419025E+04  0.16006760252E+04  0.00000000000E+00 0. -1.
</event>
<event>
 7    1  0.4894942E-006  0.1517033E+04  0.7818608E-02  0.8713880E-01
          4   -1    0    0  501    0 -0.00000000000E+00  0.00000000000E+00  0.15205246465E+04  0.15205246465E+04  0.00000000000E+00 0.  1.
          2   -1    0    0  502    0  0.00000000000E+00 -0.00000000000E+00 -0.35718518055E+04  0.35718518055E+04  0.00000000000E+00 0.  1.
    9000010    2    1    2  502    0  0.13184151885E+03 -0.83268919827E+03  0.61956988567E+03  0.14782023821E+04  0.10442518625E+04 0.  0.
        -13    1    3    3    0    0  0.55770152541E+03 -0.62896441143E+03  0.24504270127E+03  0.87559874309E+03  0.10566000000E+00 0.  1.
         13    1    1    2    0    0  0.30930390229E+03 -0.20587059777E+03  0.27324456253E+03  0.46120950675E+03  0.10566000000E+00 0. -1.
          2    1    1    2  501    0 -0.44114542115E+03  0.10385597960E+04 -0.29441416072E+04  0.31529645631E+04  0.00000000000E+00 0.  1.
          4    1    3    3  502    0 -0.42586000655E+03 -0.20372478685E+03  0.37452718440E+03  0.60260363906E+03  0.00000000000E+00 0.  1.
</event>
<event>
 7    1  0.4894942E-006  0.9626146E+03  0.7818608E-02  0.9243250E-01
         -4   -1    0    0    0  501 -0.00000000000E+00  0.00000000000E+00  0.42617534409E+03  0.42617534409E+03  0.00000000000E+00 0. -1.
          5   -1    0    0  501    0  0.00000000000E+00 -0.00000000000E+00 -0.12798159409E+04  0.12798159409E+04  0.00000000000E+00 0. -1.
   -9000010    2    1    2    0  502  0.12025161997E+02  0.16851708909E+03 -0.38261942324E+03  0.10359206009E+04  0.94772952599E+03 0.  0.
        -13    1    1    2    0    0  0.36092774242E+01 -0.16862450455E+03  0.27856494111E+02  0.17094807939E+03  0.10566000000E+00 0.  1.
         13    1    3    3    0    0  0.19688388965E+02  0.52817311429E+03 -0.25701232137E+02  0.52916446954E+03  0.10566000000E+00 0. -1.
          5    1    1    2  502    0 -0.15634439421E+02  0.10741545818E+00 -0.49887766769E+03  0.49912260473E+03  0.00000000000E+00 0. -1.
         -4    1    3    3    0  502 -0.76632269685E+01 -0.35965602520E+03 -0.35691819111E+03  0.50675613134E+03  0.00000000000E+00 0. -1.
</event>
<event>
 7    1  0.4894942E-006  0.1562544E+04  0.7818608E-02  0.8664843E-01
         -4   -1    0    0    0  501 -0.00000000000E+00  0.00000000000E+00  0.31349531159E+04  0.31349531159E+04  0.00000000000E+00 0. -1.
          4   -1    0    0  501    0  0.00000000000E+00 -0.00000000000E+00 -0.17821216371E+04  0.17821216371E+04  0.00000000000E+00 0. -1.
   -9000010    2    1    2    0  502 -0.25182964098E+03  0.12119415711E+04  0.16771463149E+04  0.23113408070E+04  0.99862706987E+03 0.  0.
        -13    1    1    2    0    0  0.42028163794E+03 -0.18301007826E+02  0.83391326262E+03  0.93401441253E+03  0.10566000000E+00 0.  1.
         13    1    3    3    0    0 -0.33133586158E+03 -0.37484119281E+02  0.43079459063E+03  0.54476830198E+03  0.10566000000E+00 0. -1.
          4    1    1    2  502    0 -0.16845199696E+03 -0.11936405633E+04 -0.11582280988E+04  0.16717195334E+04  0.00000000000E+00 0. -1.
         -4    1    3    3    0  502  0.79506220598E+02  0.12494256904E+04  0.12463517243E+04  0.17665725050E+04  0.00000000000E+00 0. -1.
</event>
<event>
 7    1  0.4894942E-006  0.1422605E+04  0.7818608E-02  0.8532453E-01
         -4   -1    0    0    0  501 -0.00000000000E+00  0.00000000000E+00  0.20387508672E+04  0.20387508672E+04  0.00000000000E+00 0. -1.
          2   -1    0    0  501    0  0.00000000000E+00 -0.00000000000E+00 -0.21899470599E+04  0.21899470599E+04  0.00000000000E+00 0.  1.
   -9000010    2    1    2    0  502  0.62884984556E+03 -0.78151594948E+03  0.14485947501E+04  0.20305099101E+04  0.10091206258E+04 0.  0.
        -13    1    1    2    0    0 -0.64185329861E+03  0.76916189541E+03 -0.53965165119E+03  0.11378970050E+04  0.10566000000E+00 0.  1.
         13    1    3    3    0    0  0.75673700412E+03 -0.94661375883E+03  0.12734152306E+04  0.17579291403E+04  0.10566000000E+00 0. -1.
          2    1    1    2  502    0  0.13003453053E+02  0.12354054063E+02 -0.10601392916E+04  0.10602910119E+04  0.00000000000E+00 0.  1.
         -4    1    3    3    0  502 -0.12788715856E+03  0.16509780935E+03  0.17517951946E+03  0.27258076971E+03  0.00000000000E+00 0. -1.
</event>
<event>
 7    1  0.4894942E-006  0.1046833E+04  0.7818608E-02  0.9032673E-01
         -4   -1    0    0    0  501 -0.00000000000E+00  0.00000000000E+00  0.97682530176E+03  0.97682530176E+03  0.00000000000E+00 0. -1.
          1   -1    0    0  501    0  0.00000000000E+00 -0.00000000000E+00 -0.83731474900E+03  0.83731474900E+03  0.00000000000E+00 0. -1.
   -9000010    2    1    2    0  502 -0.44763017359E+02  0.28844814447E+03  0.23627403934E+03  0.10710017125E+04  0.10030020871E+04 0.  0.
        -13    1    1    2    0    0  0.87031138600E+02 -0.28864184886E+03  0.25132333900E+03  0.39249454505E+03  0.10566000000E+00 0.  1.
         13    1    3    3    0    0  0.40983689929E+03 -0.12408725902E+03  0.13381524783E+03  0.44863176837E+03  0.10566000000E+00 0. -1.
          1    1    1    2  502    0 -0.42268121241E+02  0.19370439293E+00 -0.34808682559E+03  0.35064379325E+03  0.00000000000E+00 0. -1.
         -4    1    3    3    0  502 -0.45459991665E+03  0.41253540349E+03  0.10245879151E+03  0.62236994409E+03  0.00000000000E+00 0. -1.
</event>
<event>
 7    1  0.4894942E-006  0.1043358E+04  0.7818608E-02  0.9041309E-01
          2   -1    0    0  502    0  0.00000000000E+00  0.00000000000E+00  0.20724046625E+04  0.20724046625E+04  0.00000000000E+00 0. -1.
          4   -1    0    0  501    0 -0.00000000000E+00 -0.00000000000E+00 -0.59737742422E+03  0.59737742422E+03  0.00000000000E+00 0.  1.
    9000010    2    1    2  502    0  0.97910324620E+02  0.28167204084E+03  0.83021933323E+03  0.13346407579E+04  0.10015369395E+04 0.  0.
        -13    1    3    3    0    0  0.29347918680E+03  0.38821154645E+03  0.12163544584E+02  0.48681228504E+03  0.10566000000E+00 0.  1.
         13    1    1    2    0    0 -0.17004887640E+03 -0.23831275269E+03 -0.28083367145E+03  0.40568109476E+03  0.10566000000E+00 0. -1.
          2    1    1    2  501    0  0.72138551778E+02 -0.43359288148E+02  0.92564157654E+03  0.92946023408E+03  0.00000000000E+00 0. -1.
          4    1    3    3  502    0 -0.19556886218E+03 -0.10653950561E+03  0.81805578864E+03  0.84782847289E+03  0.00000000000E+00 0.  1.
</event>
<event>
 7    1  0.4894942E-006  0.1090527E+04  0.7818608E-02  0.8910800E-01
         -2   -1    0    0    0  501  0.00000000000E+00  0.00000000000E+00  0.98323191186E+03  0.98323191186E+03  0.00000000000E+00 0.  1.
         -4   -1    0    0    0  502 -0.00000000000E+00 -0.00000000000E+00 -0.32811808039E+04  0.32811808039E+04  0.00000000000E+00 0. -1.
   -9000010    2    1    2    0  501  0.37731679645E+03  0.20160001645E+03 -0.24729020026E+04  0.27014449921E+04  0.99977507453E+03 0.  0.
        -13    1    1    2    0    0 -0.38928614093E+03 -0.20567574435E+03 -0.62412366193E+03  0.76379091895E+03  0.10566000000E+00 0.  1.
         13    1    3    3    0    0  0.40738246291E+03 -0.48852166416E+02 -0.28623721963E+03  0.50027868465E+03  0.10566000000E+00 0. -1.
         -2    1    1    2    0  502  0.11969344484E+02  0.40757278958E+01  0.79907677249E+03  0.79917680465E+03  0.00000000000E+00 0.  1.
         -4    1    3    3    0  501 -0.30065666466E+02  0.25045218287E+03 -0.21866647830E+04  0.22011663075E+04  0.00000000000E+00 0. -1.
</event>
<event>
 7    1  0.4894942E-006  0.1020291E+04  0.7818608E-02  0.9584090E-01
         -4   -1    0    0    0  501 -0.00000000000E+00  0.00000000000E+00  0.79269547389E+03  0.79269547389E+03  0.00000000000E+00 0. -1.
          2   -1    0    0  501    0  0.00000000000E+00 -0.00000000000E+00 -0.83091248899E+03  0.83091248899E+03  0.00000000000E+00 0.  1.
   -9000010    2    1    2    0  502  0.18993262262E+02  0.52032179370E+02  0.38619756203E+03  0.10916044903E+04  0.10195016992E+04 0.  0.
        -13    1    1    2    0    0 -0.10355094473E+02 -0.38432991065E+02  0.46274810267E+02  0.61038447007E+02  0.10566000000E+00 0.  1.
         13    1    3    3    0    0 -0.25081944106E+03 -0.36833977556E+03 -0.22507915926E+02  0.44619636901E+03  0.10566000000E+00 0. -1.
          2    1    1    2  502    0 -0.86381677886E+01 -0.13599188305E+02 -0.47068938740E+03  0.47096502553E+03  0.00000000000E+00 0.  1.
         -4    1    3    3    0  502  0.26981270332E+03  0.42037195492E+03  0.40870547796E+03  0.64540812133E+03  0.00000000000E+00 0. -1.
</event>
<event>
 7    1  0.4894942E-006  0.1032418E+04  0.7818608E-02  0.9185385E-01
         -4   -1    0    0    0  501 -0.00000000000E+00  0.00000000000E+00  0.18481969015E+04  0.18481969015E+04  0.00000000000E+00 0. -1.
          2   -1    0    0  501    0  0.00000000000E+00 -0.00000000000E+00 -0.40294733242E+03  0.40294733242E+03  0.00000000000E+00 0. -1.
   -9000010    2    1    2    0  502  0.87797453992E+02  0.38345370219E+02  0.11454751960E+04  0.15355675850E+04  0.10181726882E+04 0.  0.
        -13    1    1    2    0    0 -0.86591106783E+02 -0.15641947455E+03  0.47315433432E+03  0.50580639284E+03  0.10566000000E+00 0.  1.
         13    1    3    3    0    0 -0.21525056480E+03  0.45393383972E+03  0.64871053222E+03  0.82049625366E+03  0.10566000000E+00 0. -1.
          2    1    1    2  502    0 -0.12063472087E+01  0.11807410433E+03 -0.17337996125E+03  0.20977025612E+03  0.00000000000E+00 0. -1.
         -4    1    3    3    0  502  0.30304801879E+03 -0.41558846950E+03  0.49676466383E+03  0.71507133134E+03  0.00000000000E+00 0. -1.
</event>
<event>
 7    1  0.4894942E-006  0.1252328E+04  0.7818608E-02  0.8687225E-01
          2   -1    0    0  502    0  0.00000000000E+00  0.00000000000E+00  0.68810492466E+03  0.68810492466E+03  0.00000000000E+00 0.  1.
          4   -1    0    0  501    0 -0.00000000000E+00 -0.00000000000E+00 -0.37910830267E+04  0.37910830267E+04  0.00000000000E+00 0.  1.
    9000010    2    1    2  502    0 -0.31625837990E+03  0.67588938112E+03 -0.11134567510E+04  0.16779449836E+04  0.10093897232E+04 0.  0.
        -13    1    3    3    0    0 -0.23147612207E+03  0.74418855406E+03 -0.12683246317E+04  0.14886387008E+04  0.10566000000E+00 0.  1.
         13    1    1    2    0    0  0.33007198860E+03 -0.66262714710E+03 -0.23379172395E+04  0.24523212032E+04  0.10566000000E+00 0. -1.
          2    1    1    2  501    0 -0.13813608706E+02 -0.13262234025E+02  0.34839588849E+03  0.34892176452E+03  0.00000000000E+00 0.  1.
          4    1    3    3  502    0 -0.84782257830E+02 -0.68299172939E+02  0.15486788064E+03  0.18930628284E+03  0.00000000000E+00 0.  1.
</event>
<event>
 7    1  0.4894942E-006  0.1018066E+04  0.7818608E-02  0.9506657E-01
          4   -1    0    0  501    0 -0.00000000000E+00  0.00000000000E+00  0.16344511741E+04  0.16344511741E+04  0.00000000000E+00 0.  1.
          2   -1    0    0  502    0  0.00000000000E+00 -0.00000000000E+00 -0.17497945667E+04  0.17497945667E+04  0.00000000000E+00 0.  1.
    9000010    2    1    2  502    0 -0.16966434551E+03 -0.13113105093E+02  0.11114995617E+04  0.15121963564E+04  0.10111125560E+04 0.  0.
        -13    1    3    3    0    0  0.25436517774E+03 -0.29695415973E+03  0.14085049391E+03  0.41559871201E+03  0.10566000000E+00 0.  1.
         13    1    1    2    0    0  0.52803291582E+02 -0.76878394977E+01  0.31810450281E+03  0.32254887436E+03  0.10566000000E+00 0. -1.
          2    1    1    2  501    0  0.11686105393E+03  0.20800944590E+02 -0.15449474572E+04  0.15495005101E+04  0.00000000000E+00 0.  1.
          4    1    3    3  502    0 -0.42402952325E+03  0.28384105463E+03  0.97064906777E+03  0.10965976444E+04  0.00000000000E+00 0.  1.
</event>
<event>
 7    1  0.4894942E-006  0.1115196E+04  0.7818608E-02  0.8892701E-01
         -4   -1    0    0    0  501 -0.00000000000E+00  0.00000000000E+00  0.11232170660E+04  0.11232170660E+04  0.00000000000E+00 0. -1.
          2   -1    0    0  501    0  0.00000000000E+00 -0.00000000000E+00 -0.12649626892E+04  0.12649626892E+04  0.00000000000E+00 0. -1.
   -9000010    2    1    2    0  502  0.62769515686E+03 -0.21416467310E+03 -0.32879545193E+03  0.12489047333E+04  0.10058771627E+04 0.  0.
        -13    1    1    2    0    0 -0.39729587148E+03 -0.18663239064E+03  0.43218530117E+03  0.61600308802E+03  0.10566000000E+00 0.  1.
         13    1    3    3    0    0 -0.23796622096E+03 -0.20692567016E+03 -0.20066681308E+03  0.37378247193E+03  0.10566000000E+00 0. -1.
          2    1    1    2  502    0 -0.23039928538E+03  0.40079706374E+03 -0.24513547244E+03  0.52327193395E+03  0.00000000000E+00 0. -1.
         -4    1    3    3    0  502  0.86566137782E+03 -0.72390029358E+01 -0.12812863886E+03  0.87512226135E+03  0.00000000000E+00 0. -1.
</event>
<event>
 7    1  0.4894942E-006  0.1197617E+04  0.7818608E-02  0.8752252E-01
          2   -1    0    0  501    0  0.00000000000E+00  0.00000000000E+00  0.15807338146E+04  0.15807338146E+04  0.00000000000E+00 0. -1.
         -4   -1    0    0    0  501 -0.00000000000E+00 -0.00000000000E+00 -0.14401233165E+04  0.14401233165E+04  0.00000000000E+00 0. -1.
   -9000010    2    1    2    0  502  0.55741080780E+03 -0.34862877905E+03 -0.52070233169E+03  0.13143645697E+04  0.10120150541E+04 0.  0.
        -13    1    1    2    0    0 -0.52820885978E+03  0.34743890529E+03 -0.33107604429E+03  0.71367342022E+03  0.10566000000E+00 0.  1.
         13    1    3    3    0    0  0.51482798781E+03 -0.68246686995E+03 -0.46527408352E+03  0.97328766024E+03  0.10566000000E+00 0. -1.
          2    1    1    2  502    0 -0.29201948013E+02  0.11898737583E+01  0.99238887413E+03  0.99281914116E+03  0.00000000000E+00 0. -1.
         -4    1    3    3    0  502  0.42582819986E+02  0.33383809090E+03 -0.55428248168E+02  0.34107690950E+03  0.00000000000E+00 0. -1.
</event>
<event>
 7    1  0.4894942E-006  0.1230835E+04  0.7818608E-02  0.8719507E-01
         -2   -1    0    0    0  501  0.00000000000E+00  0.00000000000E+00  0.85554537136E+03  0.85554537136E+03  0.00000000000E+00 0. -1.
         -4   -1    0    0    0  502 -0.00000000000E+00 -0.00000000000E+00 -0.19135527469E+04  0.19135527469E+04  0.00000000000E+00 0. -1.
   -9000010    2    1    2    0  501 -0.56551749852E+03 -0.35761500891E+03 -0.27678030171E+03  0.12562743456E+04  0.10266057472E+04 0.  0.
        -13    1    1    2    0    0  0.57311762352E+03  0.36790370687E+03 -0.10457660099E+04  0.12479757636E+04  0.10566000000E+00 0.  1.
         13    1    3    3    0    0  0.49767891061E+02 -0.57152796457E+03 -0.14359032999E+03  0.59138756438E+03  0.10566000000E+00 0. -1.
         -2    1    1    2    0  502 -0.76001249959E+01 -0.10288697956E+02  0.26453893608E+03  0.26484800907E+03  0.00000000000E+00 0. -1.
         -4    1    3    3    0  501 -0.61528538958E+03  0.21391295566E+03 -0.13318997172E+03  0.66488678119E+03  0.00000000000E+00 0. -1.
</event>
<event>
 7    1  0.4894942E-006  0.1037190E+04  0.7818608E-02  0.9374903E-01
         -4   -1    0    0    0  501 -0.00000000000E+00  0.00000000000E+00  0.27351497653E+04  0.27351497653E+04  0.00000000000E+00 0. -1.
          1   -1    0    0  501    0  0.00000000000E+00 -0.00000000000E+00 -0.65095542439E+03  0.65095542439E+03  0.00000000000E+00 0.  1.
   -9000010    2    1    2    0  502  0.44381463470E+02 -0.63821199483E+02  0.24067205679E+04  0.26188180959E+04  0.10294957347E+04 0.  0.
        -13    1    1    2    0    0  0.76846379208E+02  0.28411565086E+02  0.20714935578E+03  0.22276321463E+03  0.10566000000E+00 0.  1.
         13    1    3    3    0    0  0.39295093868E+02  0.47207150862E+03  0.14056475978E+04  0.14833208668E+04  0.10566000000E+00 0. -1.
          1    1    1    2  502    0 -0.12122784268E+03  0.35409634397E+02 -0.52967558274E+03  0.54452387918E+03  0.00000000000E+00 0.  1.
         -4    1    3    3    0  502  0.50863696018E+01 -0.53589270810E+03  0.10010729701E+04  0.11354972291E+04  0.00000000000E+00 0. -1.
</event>
<event>
 7    1  0.4894942E-006  0.1149596E+04  0.7818608E-02  0.9061974E-01
         -4   -1    0    0    0  501 -0.00000000000E+00  0.00000000000E+00  0.49404580840E+03  0.49404580840E+03  0.00000000000E+00 0. -1.
          1   -1    0    0  501    0  0.00000000000E+00 -0.00000000000E+00 -0.10899677461E+04  0.10899677461E+04  0.00000000000E+00 0. -1.
   -9000010    2    1    2    0  502  0.14101461216E+03  0.10942662436E+03 -0.64330957558E+03  0.13140635223E+04  0.11318376313E+04 0.  0.
        -13    1    1    2    0    0 -0.16019892023E+03 -0.12439122618E+03  0.89202616166E+02  0.22157163421E+03  0.10566000000E+00 0.  1.
         13    1    3    3    0    0 -0.21904279907E+03  0.21957570299E+03 -0.83558037532E+03  0.89128436088E+03  0.10566000000E+00 0. -1.
          1    1    1    2  502    0  0.19184308075E+02  0.14964601819E+02 -0.41814978305E+02  0.48378398016E+02  0.00000000000E+00 0. -1.
         -4    1    3    3    0  502  0.36005741122E+03 -0.11014907862E+03  0.19227079974E+03  0.42277916142E+03  0.00000000000E+00 0. -1.
</event>
<event>
 7    1  0.4894942E-006  0.1017022E+04  0.7818608E-02  0.9119659E-01
          2   -1    0    0  501    0  0.00000000000E+00  0.00000000000E+00  0.95495280753E+03  0.95495280753E+03  0.00000000000E+00 0. -1.
         -4   -1    0    0    0  501 -0.00000000000E+00 -0.00000000000E+00 -0.66309774455E+03  0.66309774455E+03  0.00000000000E+00 0. -1.
   -9000010    2    1    2    0  502  0.29566450216E+03 -0.12238545240E+02  0.20308061084E+03  0.10534065215E+04  0.99038188855E+03 0.  0.
        -13    1    1    2    0    0 -0.22343491281E+03 -0.33912988103E+02 -0.17593521018E+03  0.28640261935E+03  0.10566000000E+00 0.  1.
         13    1    3    3    0    0  0.28047811844E+03 -0.48337642843E+03  0.15267787614E+03  0.57933694126E+03  0.10566000000E+00 0. -1.
          2    1    1    2  502    0 -0.72229589352E+02  0.46151533344E+02  0.26470966233E+03  0.27824141125E+03  0.00000000000E+00 0. -1.
         -4    1    3    3    0  502  0.15186383725E+02  0.47113788318E+03  0.50402734706E+02  0.47406958022E+03  0.00000000000E+00 0. -1.
</event>
<event>
 7    1  0.4894942E-006  0.1331980E+04  0.7818608E-02  0.8781306E-01
          4   -1    0    0  501    0 -0.00000000000E+00  0.00000000000E+00  0.92260703735E+03  0.92260703735E+03  0.00000000000E+00 0.  1.
          2   -1    0    0  502    0  0.00000000000E+00 -0.00000000000E+00 -0.25561740062E+04  0.25561740062E+04  0.00000000000E+00 0. -1.
    9000010    2    1    2  502    0 -0.17181319006E+03 -0.33592837767E+03 -0.27613178548E+02  0.13221870341E+04  0.12669050550E+04 0.  0.
        -13    1    3    3    0    0  0.16206127856E+03 -0.21859981010E+02  0.55630665483E+03  0.57984379116E+03  0.10566000000E+00 0.  1.
         13    1    1    2    0    0  0.22968977446E+03  0.35129440898E+03  0.11453205797E+03  0.43506638314E+03  0.10566000000E+00 0. -1.
          2    1    1    2  501    0 -0.57876584397E+02 -0.15366031311E+02 -0.17204858482E+04  0.17215276262E+04  0.00000000000E+00 0. -1.
          4    1    3    3  502    0 -0.33387446862E+03 -0.31406839666E+03 -0.58391983338E+03  0.74234324298E+03  0.00000000000E+00 0.  1.
</event>
<event>
 7    1  0.4894942E-006  0.1119128E+04  0.7818608E-02  0.8856756E-01
          2   -1    0    0  502    0  0.00000000000E+00  0.00000000000E+00  0.14802667079E+04  0.14802667079E+04  0.00000000000E+00 0. -1.
          4   -1    0    0  501    0 -0.00000000000E+00 -0.00000000000E+00 -0.57283409621E+03  0.57283409621E+03  0.00000000000E+00 0.  1.
    9000010    2    1    2  502    0 -0.19483587064E+03  0.46111165618E+03  0.27656989135E+03  0.11511077847E+04  0.99898611160E+03 0.  0.
        -13    1    3    3    0    0  0.29947656611E+03  0.83288823612E+02  0.41027691638E+03  0.51473333005E+03  0.10566000000E+00 0.  1.
         13    1    1    2    0    0  0.21105675230E+03 -0.46110858427E+03  0.33969979196E+03  0.61037860300E+03  0.10566000000E+00 0. -1.
          2    1    1    2  501    0 -0.16220881664E+02 -0.30719104318E-02  0.29116292834E+03  0.29161441639E+03  0.00000000000E+00 0. -1.
          4    1    3    3  502    0 -0.49431243675E+03  0.37782283257E+03 -0.13370702503E+03  0.63637445461E+03  0.00000000000E+00 0.  1.
</event>
<event>
 7    1  0.4894942E-006  0.1019902E+04  0.7818608E-02  0.9104670E-01
          2   -1    0    0  502    0  0.00000000000E+00  0.00000000000E+00  0.18908055452E+04  0.18908055452E+04  0.00000000000E+00 0.  1.
          4   -1    0    0  501    0 -0.00000000000E+00 -0.00000000000E+00 -0.43242113122E+03  0.43242113122E+03  0.00000000000E+00 0.  1.
    9000010    2    1    2  502    0 -0.63128425022E+02  0.22639257328E+03  0.24519566267E+03  0.10470804983E+04  0.99046345799E+03 0.  0.
        -13    1    3    3    0    0  0.39405790856E+03 -0.27427700846E+01 -0.12762164270E+03  0.41421788099E+03  0.10566000000E+00 0.  1.
         13    1    1    2    0    0  0.66847471578E+02 -0.24048671553E+03  0.46450817774E+03  0.52732371761E+03  0.10566000000E+00 0. -1.
          2    1    1    2  501    0 -0.37190465564E+01  0.14094142242E+02  0.74868057353E+03  0.74882246049E+03  0.00000000000E+00 0.  1.
          4    1    3    3  502    0 -0.45718633358E+03  0.22913534337E+03  0.37281730536E+03  0.63286261730E+03  0.00000000000E+00 0.  1.
</event>
<event>
 7    1  0.4894942E-006  0.1128679E+04  0.7818608E-02  0.8825459E-01
          4   -1    0    0  501    0 -0.00000000000E+00  0.00000000000E+00  0.30629975711E+04  0.30629975711E+04  0.00000000000E+00 0.  1.
          2   -1    0    0  502    0  0.00000000000E+00 -0.00000000000E+00 -0.20888421263E+04  0.20888421263E+04  0.00000000000E+00 0.  1.
    9000010    2    1    2  502    0  0.21338459989E+03  0.63688343720E+03  0.11106296326E+03  0.11928831278E+04  0.97953135464E+03 0.  0.
        -13    1    3    3    0    0 -0.72706375422E+02 -0.21434114339E+03 -0.13270300163E+03  0.26237080741E+03  0.10566000000E+00 0.  1.
         13    1    1    2    0    0 -0.93678534521E+02 -0.54666108156E+03  0.23753733760E+04  0.24392647852E+04  0.10566000000E+00 0. -1.
          2    1    1    2  501    0 -0.11970606537E+03 -0.90222355642E+02 -0.15122808945E+04  0.15196917844E+04  0.00000000000E+00 0.  1.
          4    1    3    3  502    0  0.28609097531E+03  0.85122458059E+03  0.24376596489E+03  0.93051232038E+03  0.00000000000E+00 0.  1.
</event>
<event>
 7    1  0.4894942E-006  0.1094996E+04  0.7818608E-02  0.8902801E-01
          4   -1    0    0  501    0 -0.00000000000E+00  0.00000000000E+00  0.19920527122E+04  0.19920527122E+04  0.00000000000E+00 0.  1.
          2   -1    0    0  502    0  0.00000000000E+00 -0.00000000000E+00 -0.93978656845E+03  0.93978656845E+03  0.00000000000E+00 0. -1.
    9000010    2    1    2  502    0 -0.52164292189E+03  0.90108903590E+01  0.15607153041E+04  0.19259507292E+04  0.10006305095E+04 0.  0.
        -13    1    3    3    0    0  0.11481196444E+03 -0.34716902734E+03  0.31595018474E+03  0.48325216102E+03  0.10566000000E+00 0.  1.
         13    1    1    2    0    0  0.37724013531E+03  0.68610267965E+02  0.82854605119E+02  0.39227845379E+03  0.10566000000E+00 0. -1.
          2    1    1    2  501    0  0.14440278658E+03 -0.77621158324E+02 -0.59130376546E+03  0.61361009773E+03  0.00000000000E+00 0. -1.
          4    1    3    3  502    0 -0.63645488633E+03  0.35617991770E+03  0.12447651194E+04  0.14426985681E+04  0.00000000000E+00 0.  1.
</event>
<event>
 7    1  0.4894942E-006  0.1165139E+04  0.7818608E-02  0.8997860E-01
          1   -1    0    0  501    0  0.00000000000E+00  0.00000000000E+00  0.85788283974E+03  0.85788283974E+03  0.00000000000E+00 0. -1.
         -4   -1    0    0    0  501 -0.00000000000E+00 -0.00000000000E+00 -0.19526581922E+04  0.19526581922E+04  0.00000000000E+00 0. -1.
   -9000010    2    1    2    0  502  0.20561273721E+03 -0.12956552515E+03 -0.14713536111E+04  0.18678021450E+04  0.11246064116E+04 0.  0.
        -13    1    1    2    0    0 -0.17637730558E+03 -0.17739341731E+03 -0.17881318784E+03  0.30749235070E+03  0.10566000000E+00 0.  1.
         13    1    3    3    0    0  0.43711456353E+02  0.37777207093E+03 -0.12219317225E+04  0.12797419953E+04  0.10566000000E+00 0. -1.
          1    1    1    2  502    0 -0.29235431632E+02  0.30695894246E+03  0.55539144656E+03  0.63524653619E+03  0.00000000000E+00 0. -1.
         -4    1    3    3    0  502  0.16190128086E+03 -0.50733759608E+03 -0.24942188868E+03  0.58806014972E+03  0.00000000000E+00 0. -1.
</event>
<event>
 7    1  0.4894942E-006  0.1037813E+04  0.7818608E-02  0.9058460E-01
          4   -1    0    0  502    0  0.00000000000E+00  0.00000000000E+00  0.45972586221E+03  0.45972586221E+03  0.00000000000E+00 0.  1.
          4   -1    0    0  501    0 -0.00000000000E+00 -0.00000000000E+00 -0.15894388466E+04  0.15894388466E+04  0.00000000000E+00 0.  1.
    9000010    2    1    2  502    0 -0.17698843961E+03 -0.23099780302E+03 -0.48571699686E+03  0.11492108925E+04  0.10000398900E+04 0.  0.
        -13    1    3    3    0    0 -0.42967831974E+03 -0.49506684765E+01  0.12774534033E+03  0.44829326418E+03  0.10566000000E+00 0.  1.
         13    1    1    2    0    0  0.14576253376E+03  0.23498956181E+03 -0.74473213555E+03  0.79441347880E+03  0.10566000000E+00 0. -1.
          4    1    1    2  501    0  0.31225905859E+02 -0.39917587935E+01  0.10073614799E+03  0.10554033753E+03  0.00000000000E+00 0.  1.
          4    1    3    3  502    0  0.25268988012E+03 -0.22604713454E+03 -0.61346233719E+03  0.70091762833E+03  0.00000000000E+00 0.  1.
</event>
<event>
 7    1  0.4894942E-006  0.1023047E+04  0.7818608E-02  0.9177825E-01
          2   -1    0    0  501    0  0.00000000000E+00  0.00000000000E+00  0.10662463601E+04  0.10662463601E+04  0.00000000000E+00 0. -1.
         -4   -1    0    0    0  501 -0.00000000000E+00 -0.00000000000E+00 -0.17348037748E+04  0.17348037748E+04  0.00000000000E+00 0. -1.
   -9000010    2    1    2    0  502 -0.12087226994E+03  0.34082749830E+02 -0.12729234620E+04  0.16278847415E+04  0.10069274314E+04 0.  0.
        -13    1    1    2    0    0  0.53318441688E+02 -0.19758105476E+03 -0.23715730731E+03  0.31324866959E+03  0.10566000000E+00 0.  1.
         13    1    3    3    0    0 -0.48910025584E+03  0.13244072429E+03 -0.31430822456E+03  0.59627952917E+03  0.10566000000E+00 0. -1.
          2    1    1    2  502    0  0.67553828250E+02  0.16349830493E+03  0.84152335465E+03  0.85991672379E+03  0.00000000000E+00 0. -1.
         -4    1    3    3    0  502  0.36822798590E+03 -0.98357974464E+02 -0.95861523740E+03  0.10316052123E+04  0.00000000000E+00 0. -1.
</event>
<event>
 7    1  0.4894942E-006  0.1026087E+04  0.7818608E-02  0.9157796E-01
         -4   -1    0    0    0  501 -0.00000000000E+00  0.00000000000E+00  0.56836462550E+03  0.56836462550E+03  0.00000000000E+00 0. -1.
          2   -1    0    0  501    0  0.00000000000E+00 -0.00000000000E+00 -0.18925563285E+04  0.18925563285E+04  0.00000000000E+00 0.  1.
   -9000010    2    1    2    0  502  0.13905875140E+03 -0.14604700424E+03 -0.43360340439E+02  0.10285027790E+04  0.10076064626E+04 0.  0.
        -13    1    1    2    0    0 -0.18968635517E+03  0.54765531291E+02 -0.58894223613E+02  0.20603086539E+03  0.10566000000E+00 0.  1.
         13    1    3    3    0    0 -0.53897329377E+02 -0.53750140221E+03 -0.18288496908E+03  0.57031535362E+03  0.10566000000E+00 0. -1.
          2    1    1    2  502    0  0.50627603770E+02  0.91281472951E+02 -0.12219371390E+04  0.12263873096E+04  0.00000000000E+00 0.  1.
         -4    1    3    3    0  502  0.19295608078E+03  0.39145439797E+03  0.13952462864E+03  0.45818742540E+03  0.00000000000E+00 0. -1.
</event>
<event>
 7    1  0.4894942E-006  0.1110955E+04  0.7818608E-02  0.9020270E-01
          2   -1    0    0  501    0  0.00000000000E+00  0.00000000000E+00  0.14463147132E+04  0.14463147132E+04  0.00000000000E+00 0. -1.
         -4   -1    0    0    0  501 -0.00000000000E+00 -0.00000000000E+00 -0.15193727004E+04  0.15193727004E+04  0.00000000000E+00 0. -1.
   -9000010    2    1    2    0  502 -0.85747904826E+03  0.33337617892E+03 -0.10144684709E+04  0.16241623921E+04  0.87312496400E+03 0.  0.
        -13    1    1    2    0    0  0.25358173929E+03 -0.71998310367E+02  0.44512103611E+03  0.51732021336E+03  0.10566000000E+00 0.  1.
         13    1    3    3    0    0 -0.55122442841E+03 -0.11309912205E+03 -0.91425917724E+03  0.10735500157E+04  0.10566000000E+00 0. -1.
          2    1    1    2  502    0  0.60389730897E+03 -0.26137786855E+03  0.49628944756E+03  0.82420480811E+03  0.00000000000E+00 0. -1.
         -4    1    3    3    0  502 -0.30625461985E+03  0.44647530096E+03 -0.10020929363E+03  0.55061237643E+03  0.00000000000E+00 0. -1.
</event>
<event>
 7    1  0.4894942E-006  0.1383041E+04  0.7818608E-02  0.8625285E-01
         -4   -1    0    0    0  501 -0.00000000000E+00  0.00000000000E+00  0.29121758193E+04  0.29121758193E+04  0.00000000000E+00 0. -1.
          2   -1    0    0  501    0  0.00000000000E+00 -0.00000000000E+00 -0.88518673054E+03  0.88518673054E+03  0.00000000000E+00 0. -1.
   -9000010    2    1    2    0  502  0.31859755352E+03 -0.61288451218E+03  0.79564027892E+03  0.14772249133E+04  0.10353831005E+04 0.  0.
        -13    1    1    2    0    0 -0.38194579113E+03 -0.61224713526E+03  0.30745508749E+03  0.78438369691E+03  0.10566000000E+00 0.  1.
         13    1    3    3    0    0 -0.37891441437E+02 -0.23410325285E+02 -0.23410156926E+03  0.23830098732E+03  0.10566000000E+00 0. -1.
          2    1    1    2  502    0  0.63348237600E+02  0.12251316474E+04  0.92389372232E+03  0.15357539396E+04  0.00000000000E+00 0. -1.
         -4    1    3    3    0  502  0.35648899496E+03 -0.58947418689E+03  0.10297418482E+04  0.12389239260E+04  0.00000000000E+00 0. -1.
</event>
<event>
 7    1  0.4894942E-006  0.1292042E+04  0.7818608E-02  0.8670337E-01
          4   -1    0    0  501    0 -0.00000000000E+00  0.00000000000E+00  0.28135260324E+04  0.28135260324E+04  0.00000000000E+00 0.  1.
          2   -1    0    0  502    0  0.00000000000E+00 -0.00000000000E+00 -0.22432728220E+04  0.22432728220E+04  0.00000000000E+00 0.  1.
    9000010    2    1    2  502    0 -0.31192924902E+03 -0.16853697706E+03  0.86247757325E+02  0.10526252917E+04  0.98735847595E+03 0.  0.
        -13    1    3    3    0    0 -0.27579770644E+03 -0.49854633478E+03 -0.21045922907E+03  0.60737625988E+03  0.10566000000E+00 0.  1.
         13    1    1    2    0    0 -0.59754446026E+02 -0.72399286617E+03  0.20437842174E+04  0.21690528354E+04  0.10566000000E+00 0. -1.
          2    1    1    2  501    0  0.37168369505E+03  0.89252984322E+03 -0.15597787643E+04  0.18351207273E+04  0.00000000000E+00 0.  1.
          4    1    3    3  502    0 -0.36131542582E+02  0.33000935772E+03  0.29670698639E+03  0.44524903181E+03  0.00000000000E+00 0.  1.
</event>
<event>
 7    1  0.4894942E-006  0.1144908E+04  0.7818608E-02  0.8802619E-01
          4   -1    0    0  501    0 -0.00000000000E+00  0.00000000000E+00  0.11219653162E+04  0.11219653162E+04  0.00000000000E+00 0.  1.
          2   -1    0    0  502    0  0.00000000000E+00 -0.00000000000E+00 -0.97651865934E+03  0.97651865934E+03  0.00000000000E+00 0. -1.
    9000010    2    1    2  502    0 -0.38761381026E+03  0.38981322245E+03  0.18985024339E+03  0.11397654933E+04  0.98021602236E+03 0.  0.
        -13    1    3    3    0    0 -0.29359992819E+03  0.45393000749E+03 -0.31267620730E+03  0.62451564537E+03  0.10566000000E+00 0.  1.
         13    1    1    2    0    0  0.40381426810E+03 -0.45720124246E+03  0.24779829736E+03  0.65840940650E+03  0.10566000000E+00 0. -1.
          2    1    1    2  501    0 -0.16200457839E+02  0.67388020009E+02 -0.29220188385E+03  0.30030907579E+03  0.00000000000E+00 0. -1.
          4    1    3    3  502    0 -0.94013882073E+02 -0.64116785043E+02  0.50252645069E+03  0.51524984793E+03  0.00000000000E+00 0.  1.
</event>
<event>
 7    1  0.4894942E-006  0.1017513E+04  0.7818608E-02  0.9144427E-01
          5   -1    0    0  501    0  0.00000000000E+00  0.00000000000E+00  0.36920135989E+03  0.36920135989E+03  0.00000000000E+00 0.  1.
         -4   -1    0    0    0  501 -0.00000000000E+00 -0.00000000000E+00 -0.21712046390E+04  0.21712046390E+04  0.00000000000E+00 0. -1.
   -9000010    2    1    2    0  502 -0.44375068651E+02 -0.18396840045E+03 -0.13160833809E+04  0.16611250130E+04  0.99571447930E+03 0.  0.
        -13    1    1    2    0    0 -0.41276184192E+02  0.20900518063E+03 -0.65463055270E+03  0.68842433180E+03  0.10566000000E+00 0.  1.
         13    1    3    3    0    0  0.11559334194E+03  0.30843689870E+03 -0.10038856673E+04  0.10565422780E+04  0.10566000000E+00 0. -1.
          5    1    1    2  502    0  0.85651252843E+02 -0.25036780183E+02  0.16871065448E+03  0.19085665409E+03  0.00000000000E+00 0.  1.
         -4    1    3    3    0  502 -0.15996841059E+03 -0.49240529915E+03 -0.31219771360E+03  0.60458273494E+03  0.00000000000E+00 0. -1.
</event>
<event>
 7    1  0.4894942E-006  0.1009127E+04  0.7818608E-02  0.9230044E-01
          4   -1    0    0  501    0 -0.00000000000E+00  0.00000000000E+00  0.26853723180E+03  0.26853723180E+03  0.00000000000E+00 0.  1.
          2   -1    0    0  502    0  0.00000000000E+00 -0.00000000000E+00 -0.19767002335E+04  0.19767002335E+04  0.00000000000E+00 0. -1.
    9000010    2    1    2  502    0  0.12193845569E+03 -0.69358133100E+02 -0.10342602483E+04  0.14436063029E+04  0.99730905884E+03 0.  0.
        -13    1    3    3    0    0 -0.15733381778E+03  0.33557201678E+03 -0.93856716532E+02  0.38232395042E+03  0.10566000000E+00 0.  1.
         13    1    1    2    0    0 -0.12766924012E+03  0.88019761101E+02 -0.30635667292E+02  0.15806792367E+03  0.10566000000E+00 0. -1.
          2    1    1    2  501    0  0.57307844353E+01 -0.18661628001E+02 -0.64326708605E+03  0.64356323874E+03  0.00000000000E+00 0. -1.
          4    1    3    3  502    0  0.27927227347E+03 -0.40493014988E+03 -0.94040353181E+03  0.10612823525E+04  0.00000000000E+00 0.  1.
</event>
<event>
 7    1  0.4894942E-006  0.1145543E+04  0.7818608E-02  0.8809216E-01
          2   -1    0    0  501    0  0.00000000000E+00  0.00000000000E+00  0.18109407547E+04  0.18109407547E+04  0.00000000000E+00 0. -1.
         -4   -1    0    0    0  501 -0.00000000000E+00 -0.00000000000E+00 -0.55686111431E+03  0.55686111431E+03  0.00000000000E+00 0. -1.
   -9000010    2    1    2    0  502  0.26143642906E+03  0.52149309002E+03  0.94626780324E+03  0.14893272632E+04  0.99114524270E+03 0.  0.
        -13    1    1    2    0    0 -0.25842663808E+03 -0.51057709450E+03  0.18023332486E+01  0.57225567386E+03  0.10566000000E+00 0.  1.
         13    1    3    3    0    0  0.55285669789E+03  0.36192475459E+03  0.94981664154E+03  0.11570616751E+04  0.10566000000E+00 0. -1.
          2    1    1    2  502    0 -0.30097909750E+01 -0.10915995513E+02  0.30600950387E+03  0.30621893191E+03  0.00000000000E+00 0. -1.
         -4    1    3    3    0  502 -0.29142026884E+03  0.15956833543E+03 -0.35488382963E+01  0.33226558807E+03  0.00000000000E+00 0. -1.
</event>
<event>
 7    1  0.4894942E-006  0.1242473E+04  0.7818608E-02  0.8694770E-01
          2   -1    0    0  501    0  0.00000000000E+00  0.00000000000E+00  0.67131131362E+03  0.67131131362E+03  0.00000000000E+00 0.  1.
         -4   -1    0    0    0  501 -0.00000000000E+00 -0.00000000000E+00 -0.27134558384E+04  0.27134558384E+04  0.00000000000E+00 0. -1.
   -9000010    2    1    2    0  502  0.73536777425E+03  0.46121917800E+02 -0.21787271592E+04  0.25087581272E+04  0.10020590361E+04 0.  0.
        -13    1    1    2    0    0 -0.72875721438E+03 -0.38067629028E+02 -0.92452429498E+01  0.72980936386E+03  0.10566000000E+00 0.  1.
         13    1    3    3    0    0  0.18314462732E+03  0.17522622655E+03  0.40616422724E+01  0.25350087394E+03  0.10566000000E+00 0. -1.
          2    1    1    2  502    0 -0.66105598675E+01 -0.80542887715E+01  0.14582787733E+03  0.14619966100E+03  0.00000000000E+00 0.  1.
         -4    1    3    3    0  502  0.55222314693E+03 -0.12910430875E+03 -0.21827888015E+04  0.22552572533E+04  0.00000000000E+00 0. -1.
</event>
<event>
 7    1  0.4894942E-006  0.1073271E+04  0.7818608E-02  0.8949354E-01
          2   -1    0    0  502    0  0.00000000000E+00  0.00000000000E+00  0.19305836493E+04  0.19305836493E+04  0.00000000000E+00 0. -1.
          4   -1    0    0  501    0 -0.00000000000E+00 -0.00000000000E+00 -0.10686625648E+04  0.10686625648E+04  0.00000000000E+00 0.  1.
    9000010    2    1    2  502    0 -0.21157571225E+03 -0.33346983541E+03 -0.51684047998E+03  0.11928817337E+04  0.99993816597E+03 0.  0.
        -13    1    3    3    0    0 -0.41107479366E+03  0.19012466197E+03 -0.35664656026E+02  0.45431470582E+03  0.10566000000E+00 0.  1.
         13    1    1    2    0    0  0.14233609645E+03  0.36284027848E+03 -0.34333761104E+02  0.39126902555E+03  0.10566000000E+00 0. -1.
          2    1    1    2  501    0  0.69239615806E+02 -0.29370443077E+02  0.14130953256E+04  0.14150954549E+04  0.00000000000E+00 0. -1.
          4    1    3    3  502    0  0.19949908140E+03 -0.52359449737E+03 -0.48117582395E+03  0.73856702791E+03  0.00000000000E+00 0.  1.
</event>
<event>
 7    1  0.4894942E-006  0.1286747E+04  0.7818608E-02  0.8647284E-01
          4   -1    0    0  501    0 -0.00000000000E+00  0.00000000000E+00  0.30281359726E+04  0.30281359726E+04  0.00000000000E+00 0.  1.
          2   -1    0    0  502    0  0.00000000000E+00 -0.00000000000E+00 -0.13516979633E+04  0.13516979633E+04  0.00000000000E+00 0.  1.
    9000010    2    1    2  502    0 -0.75975591937E+03  0.29141925211E+03  0.15074708694E+04  0.19820764462E+04  0.99699768241E+03 0.  0.
        -13    1    3    3    0    0 -0.13949152730E+03  0.20505287440E+03  0.12983675004E+04  0.13218406654E+04  0.10566000000E+00 0.  1.
         13    1    1    2    0    0  0.76636021863E+03 -0.27259126086E+03  0.11543682482E+04  0.14121543980E+04  0.10566000000E+00 0. -1.
          2    1    1    2  501    0 -0.66042992565E+01 -0.18827991244E+02 -0.98540110836E+03  0.98560309171E+03  0.00000000000E+00 0.  1.
          4    1    3    3  502    0 -0.62026439207E+03  0.86366377708E+02  0.20910336906E+03  0.66023578078E+03  0.00000000000E+00 0.  1.
</event>
<event>
 7    1  0.4894942E-006  0.1068390E+04  0.7818608E-02  0.8976297E-01
          4   -1    0    0  501    0 -0.00000000000E+00  0.00000000000E+00  0.22899444172E+04  0.22899444172E+04  0.00000000000E+00 0.  1.
          2   -1    0    0  502    0  0.00000000000E+00 -0.00000000000E+00 -0.12055032518E+04  0.12055032518E+04  0.00000000000E+00 0.  1.
    9000010    2    1    2  502    0  0.10969725348E+03 -0.28336765656E+03  0.63215897184E+03  0.12280098321E+04  0.10079942786E+04 0.  0.
        -13    1    3    3    0    0 -0.35061359943E+03 -0.25301616489E+03  0.63315028516E+03  0.76669835696E+03  0.10566000000E+00 0.  1.
         13    1    1    2    0    0 -0.13978915265E+03  0.32970769194E+03  0.13354041790E+04  0.13825890575E+04  0.10566000000E+00 0. -1.
          2    1    1    2  501    0  0.30091899168E+02 -0.46340035376E+02 -0.88312198546E+03  0.88484877945E+03  0.00000000000E+00 0.  1.
          4    1    3    3  502    0  0.46031085292E+03 -0.30351491668E+02 -0.99131332354E+00  0.46131147511E+03  0.00000000000E+00 0.  1.
</event>
<event>
 7    1  0.4894942E-006  0.1088340E+04  0.7818608E-02  0.8921956E-01
          2   -1    0    0  501    0  0.00000000000E+00  0.00000000000E+00  0.32111393289E+04  0.32111393289E+04  0.00000000000E+00 0. -1.
         -4   -1    0    0    0  501 -0.00000000000E+00 -0.00000000000E+00 -0.26165100473E+03  0.26165100473E+03  0.00000000000E+00 0. -1.
   -9000010    2    1    2    0  502 -0.35485449673E+03 -0.23409172644E+03  0.11582301469E+04  0.15910955449E+04  0.10046727376E+04 0.  0.
        -13    1    1    2    0    0  0.34933798459E+03  0.22200640319E+03  0.90307727587E+03  0.99341453980E+03  0.10566000000E+00 0.  1.
         13    1    3    3    0    0 -0.52235854550E+03 -0.37291519542E+03  0.12080070577E+04  0.13679200473E+04  0.10566000000E+00 0. -1.
          2    1    1    2  502    0  0.55165121433E+01  0.12085323250E+02  0.88818090141E+03  0.88828024889E+03  0.00000000000E+00 0. -1.
         -4    1    3    3    0  502  0.16750404877E+03  0.13882346899E+03 -0.49776910855E+02  0.22317549765E+03  0.00000000000E+00 0. -1.
</event>
<event>
 7    1  0.4894942E-006  0.1013198E+04  0.7818608E-02  0.9145306E-01
          1   -1    0    0  501    0  0.00000000000E+00  0.00000000000E+00  0.21422508149E+04  0.21422508149E+04  0.00000000000E+00 0. -1.
         -4   -1    0    0    0  501 -0.00000000000E+00 -0.00000000000E+00 -0.19338929401E+03  0.19338929401E+03  0.00000000000E+00 0. -1.
   -9000010    2    1    2    0  502  0.65145248216E+02  0.19834003221E+03  0.14166068916E+04  0.17413265495E+04  0.99088868949E+03 0.  0.
        -13    1    1    2    0    0 -0.43364088816E+02 -0.20785362999E+03  0.34179920725E+03  0.40238077109E+03  0.10566000000E+00 0.  1.
         13    1    3    3    0    0  0.45981143820E+03 -0.14792203542E+03  0.76178521492E+03  0.90201120397E+03  0.10566000000E+00 0. -1.
          1    1    1    2  502    0 -0.21781159400E+02  0.95135977880E+01  0.19045542210E+03  0.19193278838E+03  0.00000000000E+00 0. -1.
         -4    1    3    3    0  502 -0.39466618998E+03  0.34626206763E+03  0.65482167666E+03  0.83931534552E+03  0.00000000000E+00 0. -1.
</event>
<event>
 7    1  0.4894942E-006  0.1028646E+04  0.7818608E-02  0.9159864E-01
          4   -1    0    0  501    0  0.00000000000E+00  0.00000000000E+00  0.17747239513E+04  0.17747239513E+04  0.00000000000E+00 0.  1.
          4   -1    0    0  502    0 -0.00000000000E+00 -0.00000000000E+00 -0.22271866071E+03  0.22271866071E+03  0.00000000000E+00 0.  1.
    9000010    2    1    2  501    0  0.12162505079E+03 -0.15122580652E+03  0.13106400707E+04  0.16664695578E+04  0.10107826149E+04 0.  0.
        -13    1    3    3    0    0  0.23743324357E+03  0.48302865741E+02 -0.81275419306E+02  0.25556489770E+03  0.10566000000E+00 0.  1.
         13    1    1    2    0    0 -0.12871362022E+03  0.14041180006E+03  0.16051045196E+03  0.24909091910E+03  0.10566000000E+00 0. -1.
          4    1    3    3  501    0 -0.11580819278E+03 -0.19952867226E+03  0.13919154900E+04  0.14109046601E+04  0.00000000000E+00 0.  1.
          4    1    1    2  502    0  0.70885694337E+01  0.10814006461E+02  0.80854767904E+02  0.81882135080E+02  0.00000000000E+00 0.  1.
</event>
<event>
 7    1  0.4894942E-006  0.1131968E+04  0.7818608E-02  0.8852967E-01
          2   -1    0    0  501    0  0.00000000000E+00  0.00000000000E+00  0.83872535477E+03  0.83872535477E+03  0.00000000000E+00 0. -1.
         -4   -1    0    0    0  501 -0.00000000000E+00 -0.00000000000E+00 -0.19590034187E+04  0.19590034187E+04  0.00000000000E+00 0. -1.
   -9000010    2    1    2    0  502 -0.62894441983E+03 -0.18825992877E+03 -0.52425525236E+03  0.13198183501E+04  0.10178723022E+04 0.  0.
        -13    1    1    2    0    0  0.44910887056E+03  0.14830131140E+03 -0.95987980451E+03  0.10700753744E+04  0.10566000000E+00 0.  1.
         13    1    3    3    0    0 -0.20719664332E+02  0.36855102765E+03 -0.61441525181E+02  0.37421148653E+03  0.10566000000E+00 0. -1.
          2    1    1    2  502    0  0.17983554927E+03  0.39958617362E+02  0.36385699293E+03  0.40783504899E+03  0.00000000000E+00 0. -1.
         -4    1    3    3    0  502 -0.60822475550E+03 -0.55681095641E+03 -0.46281372718E+03  0.94560686358E+03  0.00000000000E+00 0. -1.
</event>
<event>
 7    1  0.4894942E-006  0.1133567E+04  0.7818608E-02  0.8796536E-01
         -4   -1    0    0    0  501 -0.00000000000E+00  0.00000000000E+00  0.11663236723E+04  0.11663236723E+04  0.00000000000E+00 0. -1.
          2   -1    0    0  501    0  0.00000000000E+00 -0.00000000000E+00 -0.10522280124E+04  0.10522280124E+04  0.00000000000E+00 0. -1.
   -9000010    2    1    2    0  502  0.61835248401E+03  0.16943234629E+02  0.28418334339E+03  0.11649944856E+04  0.94541266716E+03 0.  0.
        -13    1    1    2    0    0 -0.56653793086E+03 -0.35844511737E+03 -0.43055556635E+01  0.67042276083E+03  0.10566000000E+00 0.  1.
         13    1    3    3    0    0 -0.21649177048E+03 -0.25126176836E+02 -0.10617978402E+03  0.24243384488E+03  0.10566000000E+00 0. -1.
          2    1    1    2  502    0 -0.51814553156E+02  0.34150188274E+03 -0.16578212791E+03  0.38313443824E+03  0.00000000000E+00 0. -1.
         -4    1    3    3    0  502  0.83484425449E+03  0.42069411465E+02  0.39036312741E+03  0.92256064076E+03  0.00000000000E+00 0. -1.
</event>
<event>
 7    1  0.4894942E-006  0.1057552E+04  0.7818608E-02  0.8980101E-01
          2   -1    0    0  502    0  0.00000000000E+00  0.00000000000E+00  0.97645804909E+03  0.97645804909E+03  0.00000000000E+00 0.  1.
          4   -1    0    0  501    0 -0.00000000000E+00 -0.00000000000E+00 -0.12975041529E+04  0.12975041529E+04  0.00000000000E+00 0.  1.
    9000010    2    1    2  502    0  0.27740539518E+03 -0.23793696130E+03 -0.68909216637E+02  0.10618270392E+04  0.99456544796E+03 0.  0.
        -13    1    3    3    0    0  0.70012778783E+02  0.82228323406E+02  0.42457385200E+03  0.43809388643E+03  0.10566000000E+00 0.  1.
         13    1    1    2    0    0 -0.28068591362E+03  0.22384201044E+03 -0.68799713829E+03  0.77603472938E+03  0.10566000000E+00 0. -1.
          2    1    1    2  501    0  0.32805184421E+01  0.14094950860E+02  0.43586025115E+03  0.43610043336E+03  0.00000000000E+00 0.  1.
          4    1    3    3  502    0  0.20739261640E+03 -0.32016528471E+03 -0.49348306864E+03  0.62373315280E+03  0.00000000000E+00 0.  1.
</event>
<event>
 7    1  0.4894942E-006  0.9413830E+03  0.7818608E-02  0.9518225E-01
         -4   -1    0    0    0  502 -0.00000000000E+00  0.00000000000E+00  0.35111406746E+04  0.35111406746E+04  0.00000000000E+00 0. -1.
         -2   -1    0    0    0  501  0.00000000000E+00 -0.00000000000E+00 -0.36438006890E+03  0.36438006890E+03  0.00000000000E+00 0.  1.
   -9000010    2    1    2    0  501 -0.36172150899E+02  0.69849519860E+02  0.34156785628E+04  0.35433121029E+04  0.93915559642E+03 0.  0.
        -13    1    1    2    0    0  0.36114262236E+02 -0.46628701401E+02  0.32345149404E+01  0.59067325842E+02  0.10566000000E+00 0.  1.
         13    1    3    3    0    0  0.10132011958E+03  0.44758984019E+03  0.10825173102E+04  0.11757747104E+04  0.10566000000E+00 0. -1.
         -2    1    1    2    0  502  0.57888663428E-01 -0.23220818459E+02 -0.27215247207E+03  0.27314131473E+03  0.00000000000E+00 0.  1.
         -4    1    3    3    0  501 -0.13749227048E+03 -0.37774032033E+03  0.23331612526E+04  0.23675373925E+04  0.00000000000E+00 0. -1.
</event>
<event>
 7    1  0.4894942E-006  0.1018247E+04  0.7818608E-02  0.9194354E-01
         -2   -1    0    0    0  501  0.00000000000E+00  0.00000000000E+00  0.77072365034E+03  0.77072365034E+03  0.00000000000E+00 0. -1.
         -4   -1    0    0    0  502 -0.00000000000E+00 -0.00000000000E+00 -0.13940949781E+04  0.13940949781E+04  0.00000000000E+00 0. -1.
   -9000010    2    1    2    0  501  0.13563318000E+03 -0.95742591400E+02 -0.98605198218E+03  0.14167167420E+04  0.10036059048E+04 0.  0.
        -13    1    1    2    0    0 -0.13608165242E+03  0.10710751546E+03 -0.15372954597E+03  0.23156644935E+03  0.10566000000E+00 0.  1.
         13    1    3    3    0    0  0.16913363644E+03 -0.43993013005E+03 -0.96056203878E+03  0.10699645545E+04  0.10566000000E+00 0. -1.
         -2    1    1    2    0  502  0.44847242420E+00 -0.11364924063E+02  0.51641020043E+03  0.51653543706E+03  0.00000000000E+00 0. -1.
         -4    1    3    3    0  501 -0.33500456445E+02  0.34418753865E+03 -0.25489943407E+02  0.34675218753E+03  0.00000000000E+00 0. -1.
</event>
<event>
 7    1  0.4894942E-006  0.1156521E+04  0.7818608E-02  0.8878500E-01
          2   -1    0    0  501    0  0.00000000000E+00  0.00000000000E+00  0.97230136333E+03  0.97230136333E+03  0.00000000000E+00 0. -1.
         -4   -1    0    0    0  501 -0.00000000000E+00 -0.00000000000E+00 -0.19991735563E+04  0.19991735563E+04  0.00000000000E+00 0. -1.
   -9000010    2    1    2    0  502  0.32607264423E+03  0.52585576380E+03 -0.11466798538E+04  0.16513130605E+04  0.10144518141E+04 0.  0.
        -13    1    1    2    0    0 -0.41645142931E+03  0.29074038060E+02 -0.38251426976E+03  0.56621044709E+03  0.10566000000E+00 0.  1.
         13    1    3    3    0    0 -0.32270203107E+03  0.30810602075E+03 -0.21489761948E+03  0.49522410978E+03  0.10566000000E+00 0. -1.
          2    1    1    2  502    0  0.90378785079E+02 -0.55492980186E+03  0.50232193055E+03  0.75395141202E+03  0.00000000000E+00 0. -1.
         -4    1    3    3    0  502  0.64877467530E+03  0.21774974304E+03 -0.93178223430E+03  0.11560889508E+04  0.00000000000E+00 0. -1.
</event>
<event>
 7    1  0.4894942E-006  0.1051433E+04  0.7818608E-02  0.9009637E-01
          2   -1    0    0  501    0  0.00000000000E+00  0.00000000000E+00  0.21909293976E+04  0.21909293976E+04  0.00000000000E+00 0. -1.
         -4   -1    0    0    0  501 -0.00000000000E+00 -0.00000000000E+00 -0.35226788837E+03  0.35226788837E+03  0.00000000000E+00 0. -1.
   -9000010    2    1    2    0  502 -0.76997124864E+02 -0.36251990638E+03  0.98543907711E+03  0.14521012869E+04  0.10000793633E+04 0.  0.
        -13    1    1    2    0    0 -0.50413414918E+02  0.31582478310E+03  0.11401755643E+03  0.33953912936E+03  0.10566000000E+00 0.  1.
         13    1    3    3    0    0  0.15631412550E+03 -0.53890435427E+02 -0.16787224270E+03  0.23562552047E+03  0.10566000000E+00 0. -1.
          2    1    1    2  502    0  0.12741053978E+03  0.46695123278E+02  0.73920487566E+03  0.75155686969E+03  0.00000000000E+00 0. -1.
         -4    1    3    3    0  502 -0.23331125037E+03 -0.30862947095E+03  0.11533113198E+04  0.12164757664E+04  0.00000000000E+00 0. -1.
</event>
<event>
 7    1  0.4894942E-006  0.1032926E+04  0.7818608E-02  0.9072039E-01
         -4   -1    0    0    0  501 -0.00000000000E+00  0.00000000000E+00  0.10571450149E+04  0.10571450149E+04  0.00000000000E+00 0. -1.
          1   -1    0    0  501    0  0.00000000000E+00 -0.00000000000E+00 -0.10005895134E+04  0.10005895134E+04  0.00000000000E+00 0.  1.
   -9000010    2    1    2    0  502  0.92789407826E+02  0.26075339921E+03  0.45646274024E+03  0.11317411778E+04  0.99793669682E+03 0.  0.
        -13    1    1    2    0    0 -0.81166817242E+02 -0.25181837514E+03  0.19640060935E+03  0.32950532135E+03  0.10566000000E+00 0.  1.
         13    1    3    3    0    0  0.17136563458E+03  0.13069320526E+03 -0.29484951264E+03  0.36521656710E+03  0.10566000000E+00 0. -1.
          1    1    1    2  502    0 -0.11622590584E+02 -0.89350240705E+01 -0.59630784812E+03  0.59648802922E+03  0.00000000000E+00 0.  1.
         -4    1    3    3    0  502 -0.78576226754E+02  0.13006019395E+03  0.75131225288E+03  0.76652461069E+03  0.00000000000E+00 0. -1.
</event>
<event>
 7    1  0.4894942E-006  0.1037306E+04  0.7818608E-02  0.9067295E-01
          4   -1    0    0  501    0  0.00000000000E+00  0.00000000000E+00  0.82367847293E+03  0.82367847293E+03  0.00000000000E+00 0. -1.
         -4   -1    0    0    0  501 -0.00000000000E+00 -0.00000000000E+00 -0.10013112235E+04  0.10013112235E+04  0.00000000000E+00 0. -1.
   -9000010    2    1    2    0  502 -0.15930502607E+03  0.18901641886E+03  0.36205497404E+03  0.10937305816E+04  0.10020266877E+04 0.  0.
        -13    1    1    2    0    0  0.14981868415E+03 -0.22355348892E+03 -0.60198518857E+03  0.65939971106E+03  0.10566000000E+00 0.  1.
         13    1    3    3    0    0 -0.41369873730E+03  0.41831965678E+03 -0.94973833648E+01  0.58841158379E+03  0.10566000000E+00 0. -1.
          4    1    1    2  502    0  0.94863419167E+01  0.34537070054E+02  0.62297463980E+02  0.71859403763E+02  0.00000000000E+00 0. -1.
         -4    1    3    3    0  502  0.25439371123E+03 -0.22930323791E+03  0.37155235741E+03  0.50531899778E+03  0.00000000000E+00 0. -1.
</event>
<event>
 7    1  0.4894942E-006  0.1323284E+04  0.7818608E-02  0.8614026E-01
         -4   -1    0    0    0  501 -0.00000000000E+00  0.00000000000E+00  0.16469843561E+04  0.16469843561E+04  0.00000000000E+00 0. -1.
          2   -1    0    0  501    0  0.00000000000E+00 -0.00000000000E+00 -0.92247650841E+03  0.92247650841E+03  0.00000000000E+00 0.  1.
   -9000010    2    1    2    0  502  0.19672486597E+03  0.86610445989E+03  0.55194886575E+02  0.13391449040E+04  0.10007122414E+04 0.  0.
        -13    1    1    2    0    0 -0.19127733323E+03 -0.83748388843E+03  0.75259295492E+03  0.11420868831E+04  0.10566000000E+00 0.  1.
         13    1    3    3    0    0 -0.22002325708E+03  0.66410615190E+03 -0.29426116844E+03  0.75897092241E+03  0.10566000000E+00 0. -1.
          2    1    1    2  502    0 -0.54475327396E+01 -0.28620571458E+02 -0.83279993842E+02  0.88229077395E+02  0.00000000000E+00 0.  1.
         -4    1    3    3    0  502  0.41674812305E+03  0.20199830799E+03  0.34945605502E+03  0.58017398156E+03  0.00000000000E+00 0. -1.
</event>
<event>
 7    1  0.4894942E-006  0.1069643E+04  0.7818608E-02  0.8955153E-01
         -4   -1    0    0    0  501 -0.00000000000E+00  0.00000000000E+00  0.46703127743E+03  0.46703127743E+03  0.00000000000E+00 0. -1.
          2   -1    0    0  501    0  0.00000000000E+00 -0.00000000000E+00 -0.18317597625E+04  0.18317597625E+04  0.00000000000E+00 0. -1.
   -9000010    2    1    2    0  502 -0.31774099770E+03 -0.16011225532E+03 -0.12602827312E+04  0.16465353791E+04  0.99808362181E+03 0.  0.
        -13    1    1    2    0    0  0.36540281159E+03  0.12949242728E+03  0.13168499685E+03  0.40942453883E+03  0.10566000000E+00 0.  1.
         13    1    3    3    0    0 -0.19613018266E+03  0.36322189355E+03 -0.20175286230E+03  0.45945774682E+03  0.10566000000E+00 0. -1.
          2    1    1    2  502    0 -0.47661813883E+02  0.30619828040E+02 -0.23613075071E+03  0.24283112198E+03  0.00000000000E+00 0. -1.
         -4    1    3    3    0  502 -0.12161081504E+03 -0.52333414887E+03 -0.10585298689E+04  0.11870776323E+04  0.00000000000E+00 0. -1.
</event>
<event>
 7    1  0.4894942E-006  0.1077967E+04  0.7818608E-02  0.9051323E-01
          2   -1    0    0  501    0  0.00000000000E+00  0.00000000000E+00  0.86433122415E+03  0.86433122415E+03  0.00000000000E+00 0. -1.
         -4   -1    0    0    0  501 -0.00000000000E+00 -0.00000000000E+00 -0.24075561198E+04  0.24075561198E+04  0.00000000000E+00 0. -1.
   -9000010    2    1    2    0  502  0.57374910595E+03  0.24636485325E+03 -0.18789518269E+04  0.22049349928E+04  0.97025495475E+03 0.  0.
        -13    1    1    2    0    0 -0.24202525446E+03  0.79487246816E+02 -0.22403811285E+03  0.33924553553E+03  0.10566000000E+00 0.  1.
         13    1    3    3    0    0  0.41431797796E+03 -0.37626821366E+02 -0.14485595365E+03  0.44052062723E+03  0.10566000000E+00 0. -1.
          2    1    1    2  502    0 -0.33172385149E+03 -0.32585210007E+03  0.55976504415E+03  0.72770681557E+03  0.00000000000E+00 0. -1.
         -4    1    3    3    0  502  0.15943112800E+03  0.28399167462E+03 -0.17340958733E+04  0.17644143656E+04  0.00000000000E+00 0. -1.
</event>
<event>
 6    1  0.4894942E-006  0.2979995E+04  0.7818608E-02  0.8170806E-01
          4   -1    0    0  501    0 -0.00000000000E+00  0.00000000000E+00  0.28683433683E+04  0.28683433683E+04  0.00000000000E+00 0.  1.
          2   -1    0    0  502    0  0.00000000000E+00 -0.00000000000E+00 -0.28353503454E+04  0.28353503454E+04  0.00000000000E+00 0.  1.
        -13    1    1    2    0    0 -0.11690819281E+04  0.29955106493E+03  0.96068655699E+03  0.15425310587E+04  0.10566000000E+00 0.  1.
         13    1    1    2    0    0  0.21884096747E+03 -0.55898894596E+03  0.13189136505E+04  0.14491008383E+04  0.10566000000E+00 0. -1.
          2    1    1    2  501    0 -0.78027812113E+02  0.41661120411E+02 -0.12832400549E+04  0.12862849712E+04  0.00000000000E+00 0.  1.
          4    1    1    2  502    0  0.10282687728E+04  0.21777676062E+03 -0.96336712975E+03  0.14257768455E+04  0.00000000000E+00 0.  1.
</event>
<event>
 7    1  0.4894942E-006  0.1051039E+04  0.7818608E-02  0.9011878E-01
         -4   -1    0    0    0  501 -0.00000000000E+00  0.00000000000E+00  0.84840840901E+03  0.84840840901E+03  0.00000000000E+00 0. -1.
          2   -1    0    0  501    0  0.00000000000E+00 -0.00000000000E+00 -0.13163169597E+04  0.13163169597E+04  0.00000000000E+00 0.  1.
   -9000010    2    1    2    0  502  0.11957201371E+03  0.28327864013E+03  0.38597852771E+03  0.11155770063E+04  0.10004940674E+04 0.  0.
        -13    1    1    2    0    0 -0.10731625331E+03 -0.31608555102E+03 -0.18951242846E+03  0.38385130649E+03  0.10566000000E+00 0.  1.
         13    1    3    3    0    0  0.44418802386E+03  0.35755250743E+03  0.50525112382E+03  0.76185661735E+03  0.10566000000E+00 0. -1.
          2    1    1    2  502    0 -0.12255760405E+02  0.32806910889E+02 -0.66437464996E+03  0.66529705589E+03  0.00000000000E+00 0.  1.
         -4    1    3    3    0  502 -0.32461601015E+03 -0.74273867302E+02 -0.11927259610E+03  0.35372038899E+03  0.00000000000E+00 0. -1.
</event>
<event>
 7    1  0.4894942E-006  0.1089726E+04  0.7818608E-02  0.9012037E-01
         -4   -1    0    0    0  501 -0.00000000000E+00  0.00000000000E+00  0.78360023827E+03  0.78360023827E+03  0.00000000000E+00 0. -1.
          1   -1    0    0  501    0  0.00000000000E+00 -0.00000000000E+00 -0.65451020302E+03  0.65451020302E+03  0.00000000000E+00 0. -1.
   -9000010    2    1    2    0  502 -0.20976029474E+03  0.20086705211E+03  0.61061171247E+02  0.10918829702E+04  0.10507773314E+04 0.  0.
        -13    1    1    2    0    0  0.21962797331E+03 -0.18705461012E+03  0.10383074731E+03  0.30660513544E+03  0.10566000000E+00 0.  1.
         13    1    3    3    0    0  0.62661660917E+02 -0.23399949814E+03  0.40656260377E+03  0.47326040488E+03  0.10566000000E+00 0. -1.
          1    1    1    2  502    0 -0.98676785679E+01 -0.13812441991E+02 -0.35801883303E+02  0.39622335647E+02  0.00000000000E+00 0. -1.
         -4    1    3    3    0  502 -0.27242195566E+03  0.43486655025E+03 -0.34550143252E+03  0.61862256532E+03  0.00000000000E+00 0. -1.
</event>
<event>
 7    1  0.4894942E-006  0.1267935E+04  0.7818608E-02  0.9060950E-01
         -4   -1    0    0    0  501 -0.00000000000E+00  0.00000000000E+00  0.17620618773E+04  0.17620618773E+04  0.00000000000E+00 0. -1.
          2   -1    0    0  501    0  0.00000000000E+00 -0.00000000000E+00 -0.83038438569E+03  0.83038438569E+03  0.00000000000E+00 0.  1.
   -9000010    2    1    2    0  502 -0.72018176901E+03 -0.28918824276E+03  0.10090574235E+04  0.16409112339E+04  0.10354231857E+04 0.  0.
        -13    1    1    2    0    0  0.11020173943E+03 -0.10269444969E+03  0.12834543789E+03  0.19789678108E+03  0.10566000000E+00 0.  1.
         13    1    3    3    0    0 -0.69016127527E+03  0.24117959334E+03  0.40228586776E+03  0.83446037215E+03  0.10566000000E+00 0. -1.
          2    1    1    2  502    0  0.60998002959E+03  0.39188269244E+03 -0.20572536973E+03  0.75363824802E+03  0.00000000000E+00 0.  1.
         -4    1    3    3    0  502 -0.30020493744E+02 -0.53036783610E+03  0.60677155571E+03  0.80645086175E+03  0.00000000000E+00 0. -1.
</event>
<event>
 7    1  0.4894942E-006  0.1015947E+04  0.7818608E-02  0.9386931E-01
          2   -1    0    0  502    0  0.00000000000E+00  0.00000000000E+00  0.29112205891E+03  0.29112205891E+03  0.00000000000E+00 0. -1.
          4   -1    0    0  501    0 -0.00000000000E+00 -0.00000000000E+00 -0.18139755881E+04  0.18139755881E+04  0.00000000000E+00 0.  1.
    9000010    2    1    2  502    0  0.34209991196E+02 -0.66726511313E+02 -0.16232091195E+04  0.19145835813E+04  0.10125214533E+04 0.  0.
        -13    1    3    3    0    0  0.37593979584E+03 -0.25224964824E+03 -0.31947546996E+03  0.55409854918E+03  0.10566000000E+00 0.  1.
         13    1    1    2    0    0 -0.62050371635E+02  0.60693061520E+02  0.63076888991E+00  0.86800376555E+02  0.10566000000E+00 0. -1.
          2    1    1    2  501    0  0.27840380439E+02  0.60334497930E+01  0.99724821445E+02  0.10371368912E+03  0.00000000000E+00 0. -1.
          4    1    3    3  502    0 -0.34172980464E+03  0.18552313692E+03 -0.13037336495E+04  0.13604850321E+04  0.00000000000E+00 0.  1.
</event>
<event>
 7    1  0.4894942E-006  0.1029715E+04  0.7818608E-02  0.9125797E-01
         -4   -1    0    0    0  501 -0.00000000000E+00  0.00000000000E+00  0.16405744208E+04  0.16405744208E+04  0.00000000000E+00 0. -1.
          1   -1    0    0  501    0  0.00000000000E+00 -0.00000000000E+00 -0.35158255576E+03  0.35158255576E+03  0.00000000000E+00 0. -1.
   -9000010    2    1    2    0  502 -0.25143136141E+03  0.80211746544E+01  0.87279077750E+03  0.13557508550E+04  0.10064862496E+04 0.  0.
        -13    1    1    2    0    0  0.21383952806E+03 -0.15372710190E+02  0.50013259675E+03  0.54414730494E+03  0.10566000000E+00 0.  1.
         13    1    3    3    0    0 -0.48512628665E+03  0.21130095881E+03  0.90083505166E+03  0.10447484916E+04  0.10566000000E+00 0. -1.
          1    1    1    2  502    0  0.37591833354E+02  0.73515355357E+01 -0.83931509214E+02  0.92258816644E+02  0.00000000000E+00 0. -1.
         -4    1    3    3    0  502  0.23369492523E+03 -0.20327978415E+03 -0.28044274160E+02  0.31100236340E+03  0.00000000000E+00 0. -1.
</event>
<event>
 7    1  0.4894942E-006  0.1005230E+04  0.7818608E-02  0.9229721E-01
          1   -1    0    0  501    0  0.00000000000E+00  0.00000000000E+00  0.17016483572E+04  0.17016483572E+04  0.00000000000E+00 0. -1.
         -4   -1    0    0    0  501 -0.00000000000E+00 -0.00000000000E+00 -0.59245958967E+03  0.59245958967E+03  0.00000000000E+00 0. -1.
   -9000010    2    1    2    0  502 -0.67122555419E+02 -0.12962950362E+03  0.37602164631E+03  0.10718480147E+04  0.99305419921E+03 0.  0.
        -13    1    1    2    0    0  0.82125164405E+02  0.13303367970E+03 -0.21949035253E+03  0.26947825252E+03  0.10566000000E+00 0.  1.
         13    1    3    3    0    0  0.44171804207E+03  0.87585849988E+02  0.15970015931E+03  0.47779730206E+03  0.10566000000E+00 0. -1.
          1    1    1    2  502    0 -0.15002608987E+02 -0.34041760796E+01  0.95265747378E+03  0.95278167963E+03  0.00000000000E+00 0. -1.
         -4    1    3    3    0  502 -0.50884059749E+03 -0.21721535361E+03  0.21632148699E+03  0.59405071268E+03  0.00000000000E+00 0. -1.
</event>
<event>
 7    1  0.4894942E-006  0.1026858E+04  0.7818608E-02  0.9434080E-01
         -4   -1    0    0    0  501 -0.00000000000E+00  0.00000000000E+00  0.43589209739E+03  0.43589209739E+03  0.00000000000E+00 0. -1.
          2   -1    0    0  501    0  0.00000000000E+00 -0.00000000000E+00 -0.13065961455E+04  0.13065961455E+04  0.00000000000E+00 0. -1.
   -9000010    2    1    2    0  502 -0.19968053295E+02 -0.79550206548E+02 -0.26908150844E+03  0.10625309372E+04  0.10246170874E+04 0.  0.
        -13    1    1    2    0    0  0.10650008024E+02  0.66348541570E+02  0.10159768208E+02  0.67961633982E+02  0.10566000000E+00 0.  1.
         13    1    3    3    0    0  0.42001078445E+03  0.21205043752E+03 -0.25353080320E+03  0.53446452310E+03  0.10566000000E+00 0. -1.
          2    1    1    2  502    0  0.93180452711E+01  0.13201664977E+02 -0.61178230791E+03  0.61199567171E+03  0.00000000000E+00 0. -1.
         -4    1    3    3    0  502 -0.43997883775E+03 -0.29160064407E+03 -0.15550705236E+02  0.52806641412E+03  0.00000000000E+00 0. -1.
</event>
<event>
 7    1  0.4894942E-006  0.1023308E+04  0.7818608E-02  0.9070298E-01
          2   -1    0    0  501    0  0.00000000000E+00  0.00000000000E+00  0.22013544923E+04  0.22013544923E+04  0.00000000000E+00 0. -1.
         -4   -1    0    0    0  501 -0.00000000000E+00 -0.00000000000E+00 -0.59681491074E+03  0.59681491074E+03  0.00000000000E+00 0. -1.
   -9000010    2    1    2    0  502 -0.21245275214E+03 -0.23650262602E+03  0.28903684894E+03  0.10749704159E+04  0.98536766289E+03 0.  0.
        -13    1    1    2    0    0  0.20569044645E+03  0.17618893677E+03 -0.11296046159E+03  0.29344706208E+03  0.10566000000E+00 0.  1.
         13    1    3    3    0    0  0.34678381254E+03  0.10009960211E+03 -0.42811195838E+00  0.36094201394E+03  0.10566000000E+00 0. -1.
          2    1    1    2  502    0  0.67623056905E+01  0.60313689255E+02  0.14284631942E+04  0.14297519250E+04  0.00000000000E+00 0. -1.
         -4    1    3    3    0  502 -0.55923656468E+03 -0.33660222813E+03  0.28946496090E+03  0.71402840199E+03  0.00000000000E+00 0. -1.
</event>
<event>
 7    1  0.4894942E-006  0.1014711E+04  0.7818608E-02  0.9094012E-01
         -4   -1    0    0    0  501 -0.00000000000E+00  0.00000000000E+00  0.11241097866E+04  0.11241097866E+04  0.00000000000E+00 0. -1.
          2   -1    0    0  501    0  0.00000000000E+00 -0.00000000000E+00 -0.67858408583E+03  0.67858408583E+03  0.00000000000E+00 0.  1.
   -9000010    2    1    2    0  502  0.17796284942E+02  0.26174460815E+03  0.55690967122E+02  0.10174328807E+04  0.98144853932E+03 0.  0.
        -13    1    1    2    0    0 -0.39334490525E+01 -0.25739116859E+03  0.55902564133E+03  0.61544728817E+03  0.10566000000E+00 0.  1.
         13    1    3    3    0    0 -0.19963205634E+03  0.52094267727E+03  0.26706448988E+03  0.61851247670E+03  0.10566000000E+00 0. -1.
          2    1    1    2  502    0 -0.13862835889E+02 -0.43534395580E+01 -0.16919090769E+03  0.16981370351E+03  0.00000000000E+00 0.  1.
         -4    1    3    3    0  502  0.21742834129E+03 -0.25919806912E+03 -0.21137352276E+03  0.39892040403E+03  0.00000000000E+00 0. -1.
</event>
<event>
 7    1  0.4894942E-006  0.1010235E+04  0.7818608E-02  0.9310548E-01
         -4   -1    0    0    0  501  0.00000000000E+00  0.00000000000E+00  0.92807341373E+03  0.92807341373E+03  0.00000000000E+00 0. -1.
         -4   -1    0    0    0  502 -0.00000000000E+00 -0.00000000000E+00 -0.62218715587E+03  0.62218715587E+03  0.00000000000E+00 0. -1.
   -9000010    2    1    2    0  501 -0.27175607448E+02  0.13033047248E+03  0.13794842903E+03  0.10220489165E+04  0.10039072034E+04 0.  0.
        -13    1    1    2    0    0  0.41116289214E+02 -0.10454464515E+03 -0.16190886238E+03  0.19706502213E+03  0.10566000000E+00 0.  1.
         13    1    3    3    0    0 -0.64471004818E+02 -0.58462594342E+02 -0.42151863904E+03  0.43040952548E+03  0.10566000000E+00 0. -1.
         -4    1    3    3    0  501  0.37295397370E+02  0.18879306682E+03  0.55946706808E+03  0.59163939102E+03  0.00000000000E+00 0. -1.
         -4    1    1    2    0  502 -0.13940681766E+02 -0.25785827331E+02  0.32984669121E+03  0.33114663096E+03  0.00000000000E+00 0. -1.
</event>
<event>
 7    1  0.4894942E-006  0.1036116E+04  0.7818608E-02  0.9112863E-01
          4   -1    0    0  501    0 -0.00000000000E+00  0.00000000000E+00  0.16586502736E+04  0.16586502736E+04  0.00000000000E+00 0.  1.
          2   -1    0    0  502    0  0.00000000000E+00 -0.00000000000E+00 -0.15691941002E+04  0.15691941002E+04  0.00000000000E+00 0.  1.
    9000010    2    1    2  502    0 -0.19916564028E+02  0.72622700822E+01  0.63915408621E+03  0.11966783012E+04  0.10114700195E+04 0.  0.
        -13    1    3    3    0    0  0.12249508532E+03 -0.46494198346E+03  0.15405744549E+03  0.50488592928E+03  0.10566000000E+00 0.  1.
         13    1    1    2    0    0  0.12149916922E+03 -0.20612634562E+03  0.71134310906E+03  0.75050592832E+03  0.10566000000E+00 0. -1.
          2    1    1    2  501    0 -0.10158260519E+03  0.19886407554E+03 -0.12610410219E+04  0.12806601443E+04  0.00000000000E+00 0.  1.
          4    1    3    3  502    0 -0.14241164935E+03  0.47220425355E+03  0.48509664072E+03  0.69179237187E+03  0.00000000000E+00 0.  1.
</event>
<event>
 7    1  0.4894942E-006  0.1233052E+04  0.7818608E-02  0.8682654E-01
         -4   -1    0    0    0  501 -0.00000000000E+00  0.00000000000E+00  0.12058886381E+04  0.12058886381E+04  0.00000000000E+00 0. -1.
          1   -1    0    0  501    0  0.00000000000E+00 -0.00000000000E+00 -0.11190912875E+04  0.11190912875E+04  0.00000000000E+00 0.  1.
   -9000010    2    1    2    0  502 -0.78598361654E+03  0.14281097572E+03 -0.16970326526E+03  0.12489568510E+04  0.94494909762E+03 0.  0.
        -13    1    1    2    0    0  0.78011895272E+03 -0.12437564555E+03  0.43137805334E+03  0.90007883969E+03  0.10566000000E+00 0.  1.
         13    1    3    3    0    0 -0.20012377114E+03  0.20373488068E+03  0.35811867625E+03  0.45804631078E+03  0.10566000000E+00 0. -1.
          1    1    1    2  502    0  0.58646638198E+01 -0.18435330175E+02 -0.17487743743E+03  0.17594423493E+03  0.00000000000E+00 0.  1.
         -4    1    3    3    0  502 -0.58585984540E+03 -0.60923904960E+02 -0.52782194151E+03  0.79091054019E+03  0.00000000000E+00 0. -1.
</event>
<event>
 7    1  0.4894942E-006  0.1323114E+04  0.7818608E-02  0.8643134E-01
          4   -1    0    0  501    0 -0.00000000000E+00  0.00000000000E+00  0.81213133651E+03  0.81213133651E+03  0.00000000000E+00 0.  1.
          2   -1    0    0  502    0  0.00000000000E+00 -0.00000000000E+00 -0.19573290239E+04  0.19573290239E+04  0.00000000000E+00 0. -1.
    9000010    2    1    2  502    0  0.20017772301E+03 -0.75538533506E+03 -0.35127286683E+03  0.13799018688E+04  0.10816923848E+04 0.  0.
        -13    1    3    3    0    0  0.14297313318E+03 -0.63069036145E+03  0.30103332306E+03  0.71332511633E+03  0.10566000000E+00 0.  1.
         13    1    1    2    0    0 -0.20334425773E+03  0.72324890419E+03 -0.17709132757E+03  0.77188031069E+03  0.10566000000E+00 0. -1.
          2    1    1    2  501    0  0.31665347211E+01  0.32136430865E+02 -0.61683349301E+03  0.61767818095E+03  0.00000000000E+00 0. -1.
          4    1    3    3  502    0  0.57204589828E+02 -0.12469497361E+03 -0.65230618989E+03  0.66657675245E+03  0.00000000000E+00 0.  1.
</event>
<event>
 7    1  0.4894942E-006  0.1100450E+04  0.7818608E-02  0.8932665E-01
          4   -1    0    0  501    0 -0.00000000000E+00  0.00000000000E+00  0.35034968242E+04  0.35034968242E+04  0.00000000000E+00 0.  1.
          2   -1    0    0  502    0  0.00000000000E+00 -0.00000000000E+00 -0.10171275665E+04  0.10171275665E+04  0.00000000000E+00 0.  1.
    9000010    2    1    2  502    0  0.24738915065E+03  0.29125794825E+03  0.22861748053E+04  0.25364483282E+04  0.10300205323E+04 0.  0.
        -13    1    3    3    0    0  0.58308647768E+03 -0.65704179359E+02  0.99116626241E+03  0.11518322146E+04  0.10566000000E+00 0.  1.
         13    1    1    2    0    0 -0.26247426512E+03 -0.28691227439E+03  0.10574989961E+04  0.11267277981E+04  0.10566000000E+00 0. -1.
          2    1    1    2  501    0  0.15085114467E+02 -0.43456738614E+01 -0.85730454372E+03  0.85744826447E+03  0.00000000000E+00 0.  1.
          4    1    3    3  502    0 -0.33569732703E+03  0.35696212761E+03  0.12950085429E+04  0.13846161136E+04  0.00000000000E+00 0.  1.
</event>
<event>
 6    1  0.1945745E-005  0.2398492E+04  0.7818608E-02  0.8140702E-01
         -4   -1    0    0    0  501 -0.00000000000E+00  0.00000000000E+00  0.21468486181E+04  0.21468486181E+04  0.00000000000E+00 0. -1.
          1   -1    0    0  501    0  0.00000000000E+00 -0.00000000000E+00 -0.27434823038E+04  0.27434823038E+04  0.00000000000E+00 0.  1.
        -13    1    1    2    0    0 -0.37489009353E+03 -0.12153058624E+04  0.77009394579E+02  0.12741433904E+04  0.10566000000E+00 0.  1.
         13    1    1    2    0    0  0.16092946993E+03  0.13535268605E+04  0.11337324060E+04  0.17729304657E+04  0.10566000000E+00 0. -1.
          1    1    1    2  502    0  0.15724454349E+03 -0.20627680412E+03 -0.10901778576E+04  0.11206086416E+04  0.00000000000E+00 0.  1.
         -4    1    1    2    0  502  0.56716080110E+02  0.68055806018E+02 -0.71719762867E+03  0.72264842423E+03  0.00000000000E+00 0. -1.
</event>
<event>
 7    1  0.4894942E-006  0.1066363E+04  0.7818608E-02  0.8973900E-01
         -4   -1    0    0    0  501 -0.00000000000E+00  0.00000000000E+00  0.25656450151E+04  0.25656450151E+04  0.00000000000E+00 0. -1.
          2   -1    0    0  501    0  0.00000000000E+00 -0.00000000000E+00 -0.24881112369E+04  0.24881112369E+04  0.00000000000E+00 0. -1.
   -9000010    2    1    2    0  502  0.77240794365E+02  0.34375804838E+03  0.28617998521E+03  0.11017358482E+04  0.10038860289E+04 0.  0.
        -13    1    1    2    0    0 -0.14752376772E+03 -0.32865012547E+03  0.18537211782E+04  0.18884004831E+04  0.10566000000E+00 0.  1.
         13    1    3    3    0    0  0.32777709314E+03  0.60456560408E+03  0.99869599563E+02  0.69491822577E+03  0.10566000000E+00 0. -1.
          2    1    1    2  502    0  0.70282973359E+02 -0.15107922910E+02 -0.20623673852E+04  0.20636199207E+04  0.00000000000E+00 0. -1.
         -4    1    3    3    0  502 -0.25053629877E+03 -0.26080755570E+03  0.18631038564E+03  0.40681762242E+03  0.00000000000E+00 0. -1.
</event>
<event>
 7    1  0.4894942E-006  0.9338133E+03  0.7818608E-02  0.9453342E-01
         -4   -1    0    0    0  502 -0.00000000000E+00  0.00000000000E+00  0.11304531355E+04  0.11304531355E+04  0.00000000000E+00 0. -1.
         -2   -1    0    0    0  501  0.00000000000E+00 -0.00000000000E+00 -0.47574807223E+03  0.47574807223E+03  0.00000000000E+00 0. -1.
   -9000010    2    1    2    0  501  0.57843615405E+02  0.29406367422E+03  0.33296575805E+03  0.98246884187E+03  0.87439093137E+03 0.  0.
        -13    1    1    2    0    0 -0.71634360061E+02  0.43855636417E+02  0.26854517302E+03  0.28137398512E+03  0.10566000000E+00 0.  1.
         13    1    3    3    0    0  0.17016503385E+03  0.52377764470E+03  0.44035222936E+03  0.70513066654E+03  0.10566000000E+00 0. -1.
         -2    1    1    2    0  502  0.13790744656E+02 -0.33791931064E+03  0.53194132159E+02  0.34235838070E+03  0.00000000000E+00 0. -1.
         -4    1    3    3    0  501 -0.11232141844E+03 -0.22971397047E+03 -0.10738647131E+03  0.27733817533E+03  0.00000000000E+00 0. -1.
</event>
<event>
 7    1  0.4894942E-006  0.1036330E+04  0.7818608E-02  0.9084689E-01
          2   -1    0    0  501    0  0.00000000000E+00  0.00000000000E+00  0.35708281744E+03  0.35708281744E+03  0.00000000000E+00 0. -1.
         -4   -1    0    0    0  501 -0.00000000000E+00 -0.00000000000E+00 -0.15947523813E+04  0.15947523813E+04  0.00000000000E+00 0. -1.
   -9000010    2    1    2    0  502  0.12137632005E+03 -0.11007525201E+03 -0.72136582805E+03  0.12482780534E+04  0.10054753445E+04 0.  0.
        -13    1    1    2    0    0 -0.20033391822E+03  0.16703451269E+03 -0.54317745769E+03  0.60255785525E+03  0.10566000000E+00 0.  1.
         13    1    3    3    0    0 -0.29667910367E+03 -0.25224340315E+03  0.14954757288E+02  0.38970358083E+03  0.10566000000E+00 0. -1.
          2    1    1    2  502    0  0.78957598168E+02 -0.56959260680E+02  0.26873721849E+02  0.10099929015E+03  0.00000000000E+00 0. -1.
         -4    1    3    3    0  502  0.41805542372E+03  0.14216815114E+03 -0.73632058533E+03  0.85857447253E+03  0.00000000000E+00 0. -1.
</event>
<event>
 7    1  0.4894942E-006  0.1216570E+04  0.7818608E-02  0.8733206E-01
         -4   -1    0    0    0  501 -0.00000000000E+00  0.00000000000E+00  0.29687938621E+04  0.29687938621E+04  0.00000000000E+00 0. -1.
          2   -1    0    0  501    0  0.00000000000E+00 -0.00000000000E+00 -0.58431706719E+03  0.58431706719E+03  0.00000000000E+00 0. -1.
   -9000010    2    1    2    0  502  0.10578205589E+03 -0.64429680347E+03  0.11324073433E+04  0.16580853754E+04  0.10200943616E+04 0.  0.
        -13    1    1    2    0    0 -0.10306402840E+03  0.65756146517E+03  0.15029729471E+04  0.16437569667E+04  0.10566000000E+00 0.  1.
         13    1    3    3    0    0 -0.29636676070E+03 -0.73896426757E+03  0.78829199091E+03  0.11204042662E+04  0.10566000000E+00 0. -1.
          2    1    1    2  502    0 -0.27180274875E+01 -0.13264661704E+02 -0.25090349547E+03  0.25126858729E+03  0.00000000000E+00 0. -1.
         -4    1    3    3    0  502  0.40214881658E+03  0.94667464104E+02  0.34411535236E+03  0.53768110918E+03  0.00000000000E+00 0. -1.
</event>
<event>
 7    1  0.4894942E-006  0.1169884E+04  0.7818608E-02  0.8764329E-01
          1   -1    0    0  501    0  0.00000000000E+00  0.00000000000E+00  0.10000855553E+04  0.10000855553E+04  0.00000000000E+00 0. -1.
         -4   -1    0    0    0  501 -0.00000000000E+00 -0.00000000000E+00 -0.29674880340E+04  0.29674880340E+04  0.00000000000E+00 0. -1.
   -9000010    2    1    2    0  502 -0.47253753238E+03  0.43449418478E+03 -0.14846043682E+04  0.18865371675E+04  0.97102803163E+03 0.  0.
        -13    1    1    2    0    0  0.44978461947E+03 -0.47948876061E+03 -0.11966787194E+04  0.13653774731E+04  0.10566000000E+00 0.  1.
         13    1    3    3    0    0  0.90155013687E+02 -0.13095038611E+03  0.41682730186E+02  0.16435751055E+03  0.10566000000E+00 0. -1.
          1    1    1    2  502    0  0.22752912917E+02  0.44994575828E+02  0.71388060894E+03  0.71565894861E+03  0.00000000000E+00 0. -1.
         -4    1    3    3    0  502 -0.56269254607E+03  0.56544457089E+03 -0.15262870984E+04  0.17221796570E+04  0.00000000000E+00 0. -1.
</event>
<event>
 7    1  0.4894942E-006  0.1024179E+04  0.7818608E-02  0.9084567E-01
         -4   -1    0    0    0  501 -0.00000000000E+00  0.00000000000E+00  0.11038649076E+04  0.11038649076E+04  0.00000000000E+00 0. -1.
          4   -1    0    0  501    0  0.00000000000E+00 -0.00000000000E+00 -0.24258132466E+04  0.24258132466E+04  0.00000000000E+00 0.  1.
   -9000010    2    1    2    0  502 -0.23492217177E+03 -0.16175787603E+02 -0.79158629811E+03  0.12896959178E+04  0.99058397433E+03 0.  0.
        -13    1    1    2    0    0  0.22796637058E+03 -0.12785326277E+03  0.83093316510E+03  0.87107121348E+03  0.10566000000E+00 0.  1.
         13    1    3    3    0    0 -0.23680710995E+03 -0.21647249514E+03 -0.96985754828E+03  0.10215486399E+04  0.10566000000E+00 0. -1.
          4    1    1    2  502    0  0.69558011976E+01  0.14402905038E+03 -0.13612952061E+04  0.13689110229E+04  0.00000000000E+00 0.  1.
         -4    1    3    3    0  502  0.18849381805E+01  0.20029670754E+03  0.17827125017E+03  0.26814727796E+03  0.00000000000E+00 0. -1.
</event>
<event>
 7    1  0.4894942E-006  0.1362942E+04  0.7818608E-02  0.8586880E-01
         -4   -1    0    0    0  501 -0.00000000000E+00  0.00000000000E+00  0.67975658101E+03  0.67975658101E+03  0.00000000000E+00 0. -1.
          2   -1    0    0  501    0  0.00000000000E+00 -0.00000000000E+00 -0.22573587220E+04  0.22573587220E+04  0.00000000000E+00 0.  1.
   -9000010    2    1    2    0  502  0.85468703748E+03 -0.83500871740E+01 -0.70435002618E+03  0.15117816858E+04  0.10289874878E+04 0.  0.
        -13    1    1    2    0    0 -0.92013896665E+03  0.53900521713E+02 -0.50994435940E+03  0.10533775415E+04  0.10566000000E+00 0.  1.
         13    1    3    3    0    0  0.20508311889E+02 -0.40188822464E+03 -0.31315827452E+03  0.50990474799E+03  0.10566000000E+00 0. -1.
          2    1    1    2  502    0  0.65451929170E+02 -0.45550434539E+02 -0.36330775538E+03  0.37195607568E+03  0.00000000000E+00 0.  1.
         -4    1    3    3    0  502  0.83417872559E+03  0.39353813746E+03 -0.39119175166E+03  0.10018769378E+04  0.00000000000E+00 0. -1.
</event>
<event>
 7    1  0.4894942E-006  0.1176580E+04  0.7818608E-02  0.8759529E-01
         -2   -1    0    0    0  501  0.00000000000E+00  0.00000000000E+00  0.11965746471E+04  0.11965746471E+04  0.00000000000E+00 0. -1.
         -4   -1    0    0    0  502 -0.00000000000E+00 -0.00000000000E+00 -0.30492482847E+04  0.30492482847E+04  0.00000000000E+00 0. -1.
   -9000010    2    1    2    0  501 -0.15662086345E+03  0.60899223295E+03 -0.20609950998E+04  0.23661853809E+04  0.97761486335E+03 0.  0.
        -13    1    1    2    0    0  0.28856618234E+02 -0.68501727982E+03 -0.68786355512E+03  0.97120423171E+03  0.10566000000E+00 0.  1.
         13    1    3    3    0    0 -0.44573511525E+03  0.62551193165E+03 -0.18637263584E+04  0.20157928762E+04  0.10566000000E+00 0. -1.
         -2    1    1    2    0  502  0.12776424522E+03  0.76025046871E+02  0.89618501728E+03  0.90843331913E+03  0.00000000000E+00 0. -1.
         -4    1    3    3    0  501  0.28911425180E+03 -0.16519698699E+02 -0.19726874132E+03  0.35039250468E+03  0.00000000000E+00 0. -1.
</event>
<event>
 7    1  0.4894942E-006  0.1011701E+04  0.7818608E-02  0.9257026E-01
          4   -1    0    0  501    0 -0.00000000000E+00  0.00000000000E+00  0.27409297438E+04  0.27409297438E+04  0.00000000000E+00 0.  1.
          2   -1    0    0  502    0  0.00000000000E+00 -0.00000000000E+00 -0.42759608381E+03  0.42759608381E+03  0.00000000000E+00 0. -1.
    9000010    2    1    2  502    0 -0.14888382765E+02  0.13021586931E+03  0.25456133831E+04  0.27389559684E+04  0.10022746450E+04 0.  0.
        -13    1    3    3    0    0 -0.94976594946E+02  0.46136235942E+03  0.59533790063E+03  0.75914623582E+03  0.10566000000E+00 0.  1.
         13    1    1    2    0    0  0.25850776868E+02 -0.13904825572E+03  0.47683561067E+02  0.14925285004E+03  0.10566000000E+00 0. -1.
          2    1    1    2  501    0 -0.10962394103E+02  0.88323864095E+01 -0.27996328419E+03  0.28031700917E+03  0.00000000000E+00 0. -1.
          4    1    3    3  502    0  0.80088212181E+02 -0.33114649010E+03  0.19502754825E+04  0.19798097326E+04  0.00000000000E+00 0.  1.
</event>
<event>
 7    1  0.4894942E-006  0.1055851E+04  0.7818608E-02  0.9105037E-01
          4   -1    0    0  501    0 -0.00000000000E+00  0.00000000000E+00  0.20363087545E+04  0.20363087545E+04  0.00000000000E+00 0.  1.
          2   -1    0    0  502    0  0.00000000000E+00 -0.00000000000E+00 -0.49273699668E+03  0.49273699668E+03  0.00000000000E+00 0.  1.
    9000010    2    1    2  502    0  0.11304201167E+03 -0.11223792005E+03  0.12225596116E+04  0.16083880417E+04  0.10329008867E+04 0.  0.
        -13    1    3    3    0    0  0.55298133763E+03 -0.42937036887E+01  0.45060167312E+03  0.71333629842E+03  0.10566000000E+00 0.  1.
         13    1    1    2    0    0 -0.18007491553E+03  0.13567918329E+03  0.59569873858E+03  0.63694019679E+03  0.10566000000E+00 0. -1.
          2    1    1    2  501    0  0.67032903860E+02 -0.23441263236E+02 -0.27468659232E+03  0.28371751272E+03  0.00000000000E+00 0.  1.
          4    1    3    3  502    0 -0.43993932597E+03 -0.10794421636E+03  0.77195793844E+03  0.89505174325E+03  0.00000000000E+00 0.  1.
</event>
<event>
 7    1  0.4894942E-006  0.9933138E+03  0.7818608E-02  0.9335349E-01
          1   -1    0    0  501    0  0.00000000000E+00  0.00000000000E+00  0.94680290835E+03  0.94680290835E+03  0.00000000000E+00 0. -1.
         -4   -1    0    0    0  501 -0.00000000000E+00 -0.00000000000E+00 -0.66786799382E+03  0.66786799382E+03  0.00000000000E+00 0. -1.
   -9000010    2    1    2    0  502  0.90542586180E+02 -0.36888509399E+02  0.10240880718E+03  0.99750658871E+03  0.98740726587E+03 0.  0.
        -13    1    1    2    0    0 -0.10855468226E+03  0.20149230468E+01 -0.20587701976E+03  0.23275209427E+03  0.10566000000E+00 0.  1.
         13    1    3    3    0    0  0.40939350713E+03 -0.32350459486E+03  0.19827072012E+03  0.55818415975E+03  0.10566000000E+00 0. -1.
          1    1    1    2  502    0  0.18012096083E+02  0.34873586352E+02  0.38240312711E+03  0.38441221918E+03  0.00000000000E+00 0. -1.
         -4    1    3    3    0  502 -0.31885092095E+03  0.28661608546E+03 -0.95861912932E+02  0.43932242896E+03  0.00000000000E+00 0. -1.
</event>
<event>
 7    1  0.4894942E-006  0.1102525E+04  0.7818608E-02  0.9092172E-01
         -4   -1    0    0    0  501 -0.00000000000E+00  0.00000000000E+00  0.31220668577E+03  0.31220668577E+03  0.00000000000E+00 0. -1.
          2   -1    0    0  501    0  0.00000000000E+00 -0.00000000000E+00 -0.28781879875E+04  0.28781879875E+04  0.00000000000E+00 0. -1.
   -9000010    2    1    2    0  502  0.11329732910E+03  0.41615120788E+02 -0.13976424791E+04  0.17597409251E+04  0.10624102414E+04 0.  0.
        -13    1    1    2    0    0  0.20111300974E+03 -0.22337937473E+02  0.18055242426E+02  0.20315370801E+03  0.10566000000E+00 0.  1.
         13    1    3    3    0    0  0.11088947008E+03 -0.36212070284E+03 -0.12863474120E+04  0.13409390566E+04  0.10566000000E+00 0. -1.
          2    1    1    2  502    0 -0.31441033883E+03 -0.19277183314E+02 -0.11863940651E+04  0.12275000402E+04  0.00000000000E+00 0. -1.
         -4    1    3    3    0  502  0.24078590116E+01  0.40373582362E+03 -0.11129506701E+03  0.41880186843E+03  0.00000000000E+00 0. -1.
</event>
<event>
 7    1  0.4894942E-006  0.1090036E+04  0.7818608E-02  0.9105526E-01
         -2   -1    0    0    0  501  0.00000000000E+00  0.00000000000E+00  0.10942022201E+04  0.10942022201E+04  0.00000000000E+00 0. -1.
         -4   -1    0    0    0  502 -0.00000000000E+00 -0.00000000000E+00 -0.10906690954E+04  0.10906690954E+04  0.00000000000E+00 0. -1.
   -9000010    2    1    2    0  501  0.43001724142E+03  0.14720225905E+02  0.91612666130E+02  0.11113406645E+04  0.10205653722E+04 0.  0.
        -13    1    1    2    0    0 -0.97307423534E+02  0.17312896417E+03 -0.48409369110E+03  0.52324858895E+03  0.10566000000E+00 0.  1.
         13    1    3    3    0    0  0.63642983096E+03 -0.92456705371E+01 -0.27228514684E+03  0.69229157478E+03  0.10566000000E+00 0. -1.
         -2    1    1    2    0  502 -0.33270981789E+03 -0.18784919008E+03  0.39601414963E+03  0.55028206207E+03  0.00000000000E+00 0. -1.
         -4    1    3    3    0  501 -0.20641258954E+03  0.23965896442E+02  0.36389781297E+03  0.41904908972E+03  0.00000000000E+00 0. -1.
</event>
<event>
 7    1  0.4894942E-006  0.1199138E+04  0.7818608E-02  0.8752060E-01
         -4   -1    0    0    0  501 -0.00000000000E+00  0.00000000000E+00  0.18604031201E+04  0.18604031201E+04  0.00000000000E+00 0. -1.
          2   -1    0    0  501    0  0.00000000000E+00 -0.00000000000E+00 -0.98079645531E+03  0.98079645531E+03  0.00000000000E+00 0. -1.
   -9000010    2    1    2    0  502  0.31952902124E+03 -0.55946681390E+03  0.57613845925E+03  0.13331528534E+04  0.10150167954E+04 0.  0.
        -13    1    1    2    0    0 -0.32229111040E+03  0.54920748795E+03  0.79376978267E+03  0.10176300427E+04  0.10566000000E+00 0.  1.
         13    1    3    3    0    0  0.41880703164E+03 -0.49274999765E+03  0.83019734564E+03  0.10523447790E+04  0.10566000000E+00 0. -1.
          2    1    1    2  502    0  0.27620891648E+01  0.10259325957E+02 -0.49030157711E+03  0.49041667939E+03  0.00000000000E+00 0. -1.
         -4    1    3    3    0  502 -0.99278010404E+02 -0.66716816255E+02 -0.25405888639E+03  0.28080807445E+03  0.00000000000E+00 0. -1.
</event>
<event>
 7    1  0.4894942E-006  0.9258039E+03  0.7818608E-02  0.9293143E-01
         -4   -1    0    0    0  501 -0.00000000000E+00  0.00000000000E+00  0.10103867492E+04  0.10103867492E+04  0.00000000000E+00 0. -1.
          2   -1    0    0  501    0  0.00000000000E+00 -0.00000000000E+00 -0.15018499578E+04  0.15018499578E+04  0.00000000000E+00 0. -1.
   -9000010    2    1    2    0  502 -0.11505660913E+02  0.17014121985E+03  0.58904074191E+03  0.10993688014E+04  0.91244854706E+03 0.  0.
        -13    1    1    2    0    0  0.42833354679E+01 -0.15468823946E+03  0.13008388544E+03  0.20215990404E+03  0.10566000000E+00 0.  1.
         13    1    3    3    0    0 -0.41782377183E+03  0.27938031148E+03  0.37641895350E+03  0.62795007960E+03  0.10566000000E+00 0. -1.
          2    1    1    2  502    0  0.72223254454E+01 -0.15452980398E+02 -0.12105878359E+04  0.12107080015E+04  0.00000000000E+00 0. -1.
         -4    1    3    3    0  502  0.40631811092E+03 -0.10923909163E+03  0.21262178842E+03  0.47141872185E+03  0.00000000000E+00 0. -1.
</event>
<event>
 7    1  0.4894942E-006  0.1085147E+04  0.7818608E-02  0.9199924E-01
          4   -1    0    0  501    0 -0.00000000000E+00  0.00000000000E+00  0.69138656258E+03  0.69138656258E+03  0.00000000000E+00 0.  1.
          2   -1    0    0  502    0  0.00000000000E+00 -0.00000000000E+00 -0.11186440216E+04  0.11186440216E+04  0.00000000000E+00 0. -1.
    9000010    2    1    2  502    0 -0.45422631333E+03 -0.13145754289E+03  0.17986420401E+01  0.11051480450E+04  0.99887253294E+03 0.  0.
        -13    1    3    3    0    0 -0.29241802995E+03 -0.55786897544E+03 -0.10025262770E+03  0.63779048168E+03  0.10566000000E+00 0.  1.
         13    1    1    2    0    0  0.10219303281E+03 -0.94390820947E+02 -0.82720308050E+02  0.16185086828E+03  0.10566000000E+00 0. -1.
          2    1    1    2  501    0  0.35203328052E+03  0.22584836384E+03 -0.34633579300E+03  0.54303167086E+03  0.00000000000E+00 0. -1.
          4    1    3    3  502    0 -0.16180828338E+03  0.42641143255E+03  0.10205126974E+03  0.46735756337E+03  0.00000000000E+00 0.  1.
</event>
<event>
 7    1  0.4894942E-006  0.1187367E+04  0.7818608E-02  0.8727997E-01
          2   -1    0    0  502    0  0.00000000000E+00  0.00000000000E+00  0.13352111988E+04  0.13352111988E+04  0.00000000000E+00 0. -1.
          4   -1    0    0  501    0 -0.00000000000E+00 -0.00000000000E+00 -0.10706485772E+04  0.10706485772E+04  0.00000000000E+00 0.  1.
    9000010    2    1    2  502    0  0.53174305436E+03  0.49073305646E+03  0.34718125186E+03  0.12337885353E+04  0.93708575897E+03 0.  0.
        -13    1    3    3    0    0  0.30920786728E+03  0.52946135254E+03  0.62513081445E+03  0.87562970219E+03  0.10566000000E+00 0.  1.
         13    1    1    2    0    0 -0.52288770264E+03 -0.51048058698E+03 -0.41406986928E+03  0.83991419030E+03  0.10566000000E+00 0. -1.
          2    1    1    2  501    0 -0.88553517217E+01  0.19747530525E+02  0.33145123906E+03  0.33215705034E+03  0.00000000000E+00 0. -1.
          4    1    3    3  502    0  0.22253518708E+03 -0.38728296077E+02 -0.27794956258E+03  0.35815883312E+03  0.00000000000E+00 0.  1.
</event>
<event>
 7    1  0.4894942E-006  0.1018791E+04  0.7818608E-02  0.9122487E-01
          2   -1    0    0  501    0  0.00000000000E+00  0.00000000000E+00  0.10525450776E+04  0.10525450776E+04  0.00000000000E+00 0. -1.
         -4   -1    0    0    0  501 -0.00000000000E+00 -0.00000000000E+00 -0.15546766893E+04  0.15546766893E+04  0.00000000000E+00 0. -1.
   -9000010    2    1    2    0  502  0.21724584740E+03 -0.58444630250E+02 -0.12109687565E+04  0.15821619809E+04  0.99306579421E+03 0.  0.
        -13    1    1    2    0    0 -0.21788039332E+03  0.69504816822E+02 -0.75352404389E+02  0.24079198775E+03  0.10566000000E+00 0.  1.
         13    1    3    3    0    0 -0.16223478525E+03  0.33210465739E+03 -0.85531160861E+03  0.93175725808E+03  0.10566000000E+00 0. -1.
          2    1    1    2  502    0  0.63454592150E+00 -0.11060186572E+02  0.78418954912E+03  0.78426779822E+03  0.00000000000E+00 0. -1.
         -4    1    3    3    0  502  0.37948063265E+03 -0.39054928764E+03 -0.35565714786E+03  0.65040472281E+03  0.00000000000E+00 0. -1.
</event>
<event>
 7    1  0.4894942E-006  0.1118470E+04  0.7818608E-02  0.8855145E-01
         -4   -1    0    0    0  501 -0.00000000000E+00  0.00000000000E+00  0.13146607254E+04  0.13146607254E+04  0.00000000000E+00 0. -1.
          2   -1    0    0  501    0  0.00000000000E+00 -0.00000000000E+00 -0.62893100506E+03  0.62893100506E+03  0.00000000000E+00 0.  1.
   -9000010    2    1    2    0  502  0.38272339793E+03  0.31242693698E+03  0.71716808094E+03  0.13230858988E+04  0.99606146844E+03 0.  0.
        -13    1    1    2    0    0 -0.39120640533E+03 -0.34278809337E+03  0.60185128735E+02  0.52361091414E+03  0.10566000000E+00 0.  1.
         13    1    3    3    0    0  0.68804238988E+03  0.39767837720E+03  0.50255514725E+03  0.94027235903E+03  0.10566000000E+00 0. -1.
          2    1    1    2  502    0  0.84830074019E+01  0.30361156383E+02 -0.91623489384E+02  0.96894917505E+02  0.00000000000E+00 0.  1.
         -4    1    3    3    0  502 -0.30531899195E+03 -0.85251440213E+02  0.21461293369E+03  0.38281353974E+03  0.00000000000E+00 0. -1.
</event>
<event>
 7    1  0.4894942E-006  0.1088613E+04  0.7818608E-02  0.9051834E-01
          2   -1    0    0  501    0  0.00000000000E+00  0.00000000000E+00  0.14261519957E+04  0.14261519957E+04  0.00000000000E+00 0. -1.
         -4   -1    0    0    0  501 -0.00000000000E+00 -0.00000000000E+00 -0.18253783079E+04  0.18253783079E+04  0.00000000000E+00 0. -1.
   -9000010    2    1    2    0  502  0.66400309324E+02 -0.19543708578E+03 -0.12424974506E+03  0.10735851855E+04  0.10462038500E+04 0.  0.
        -13    1    1    2    0    0  0.22627607381E+03  0.98631760597E+02 -0.11884731217E+04  0.12138358447E+04  0.10566000000E+00 0.  1.
         13    1    3    3    0    0  0.22056331923E+03 -0.61528525629E+02  0.42766309524E+03  0.48510789671E+03  0.10566000000E+00 0. -1.
          2    1    1    2  502    0 -0.29267638314E+03  0.96805325179E+02  0.91349655449E+03  0.96410927353E+03  0.00000000000E+00 0. -1.
         -4    1    3    3    0  502 -0.15416300991E+03 -0.13390856015E+03 -0.55191284030E+03  0.58847728876E+03  0.00000000000E+00 0. -1.
</event>
<event>
 6    1  0.6810046E-006  0.6959983E+03  0.7818608E-02  0.9574653E-01
         -4   -1    0    0    0  501 -0.00000000000E+00  0.00000000000E+00  0.58750523656E+03  0.58750523656E+03  0.00000000000E+00 0. -1.
          1   -1    0    0  501    0  0.00000000000E+00 -0.00000000000E+00 -0.10513762174E+04  0.10513762174E+04  0.00000000000E+00 0.  1.
        -13    1    1    2    0    0 -0.96919802821E+01  0.13036011507E+03 -0.67385126863E+02  0.14706617752E+03  0.10566000000E+00 0.  1.
         13    1    1    2    0    0 -0.87475297204E+02 -0.18451916827E+03  0.48738228011E+03  0.52843235064E+03  0.10566000000E+00 0. -1.
          1    1    1    2  502    0  0.14144180859E+03 -0.93846914098E+02 -0.71344997147E+03  0.73336477301E+03  0.00000000000E+00 0.  1.
         -4    1    1    2    0  502 -0.44274531102E+02  0.14800596729E+03 -0.17041816259E+03  0.23001815276E+03  0.00000000000E+00 0. -1.
</event>
<event>
 7    1  0.4894942E-006  0.1058912E+04  0.7818608E-02  0.8979661E-01
          2   -1    0    0  502    0  0.00000000000E+00  0.00000000000E+00  0.15595773462E+04  0.15595773462E+04  0.00000000000E+00 0. -1.
          4   -1    0    0  501    0 -0.00000000000E+00 -0.00000000000E+00 -0.26002408343E+04  0.26002408343E+04  0.00000000000E+00 0.  1.
    9000010    2    1    2  502    0 -0.32888991418E+03 -0.15219729375E+02 -0.13453276749E+04  0.17061297595E+04  0.99627907100E+03 0.  0.
        -13    1    3    3    0    0 -0.38997878988E+03 -0.13068663993E+03 -0.61727888446E+02  0.41589998532E+03  0.10566000000E+00 0.  1.
         13    1    1    2    0    0  0.35501583829E+03  0.83404469654E+02 -0.10425524039E+04  0.11044944894E+04  0.10566000000E+00 0. -1.
          2    1    1    2  501    0 -0.26125924104E+02 -0.68184740279E+02  0.13472165908E+04  0.13491939317E+04  0.00000000000E+00 0. -1.
          4    1    3    3  502    0  0.61088875696E+02  0.11546691055E+03 -0.12835997865E+04  0.12902297741E+04  0.00000000000E+00 0.  1.
</event>
<event>
 7    1  0.4894942E-006  0.1125973E+04  0.7818608E-02  0.9165491E-01
         -4   -1    0    0    0  501 -0.00000000000E+00  0.00000000000E+00  0.10948642862E+04  0.10948642862E+04  0.00000000000E+00 0. -1.
          2   -1    0    0  501    0  0.00000000000E+00 -0.00000000000E+00 -0.18693658261E+04  0.18693658261E+04  0.00000000000E+00 0.  1.
   -9000010    2    1    2    0  502  0.37182465618E+03 -0.23919670008E+03  0.20908757035E+03  0.11046121851E+04  0.99044526916E+03 0.  0.
        -13    1    1    2    0    0  0.13551219310E+03  0.43644810092E+02  0.37239735774E+03  0.39868311620E+03  0.10566000000E+00 0.  1.
         13    1    3    3    0    0  0.57206457501E+03 -0.25452786504E+03  0.46456160492E+03  0.77965364617E+03  0.10566000000E+00 0. -1.
          2    1    1    2  502    0 -0.50733684928E+03  0.19555188999E+03 -0.13559864680E+04  0.14609348109E+04  0.00000000000E+00 0.  1.
         -4    1    3    3    0  502 -0.20023991883E+03  0.15331164959E+02 -0.25547403456E+03  0.32495853897E+03  0.00000000000E+00 0. -1.
</event>
<event>
 6    1  0.4894942E-006  0.1467661E+04  0.7818608E-02  0.8703153E-01
          2   -1    0    0  502    0  0.00000000000E+00  0.00000000000E+00  0.13574113329E+04  0.13574113329E+04  0.00000000000E+00 0.  1.
          4   -1    0    0  501    0 -0.00000000000E+00 -0.00000000000E+00 -0.21844507905E+04  0.21844507905E+04  0.00000000000E+00 0.  1.
        -13    1    1    2    0    0  0.52722442569E+03  0.47994106319E+03 -0.41310658130E+02  0.71415376553E+03  0.10566000000E+00 0.  1.
         13    1    1    2    0    0  0.24983589899E+03 -0.35653874713E+03 -0.15079395261E+04  0.15695284261E+04  0.10566000000E+00 0. -1.
          2    1    1    2  501    0 -0.11882632944E+03  0.10217731259E+03  0.50574852946E+03  0.52947282728E+03  0.00000000000E+00 0.  1.
          4    1    1    2  502    0 -0.65823399524E+03 -0.22557962865E+03  0.21646219717E+03  0.72870710451E+03  0.00000000000E+00 0.  1.
</event>
<event>
 7    1  0.4894942E-006  0.1051058E+04  0.7818608E-02  0.8992200E-01
          4   -1    0    0  501    0 -0.00000000000E+00  0.00000000000E+00  0.11890047395E+04  0.11890047395E+04  0.00000000000E+00 0.  1.
          2   -1    0    0  502    0  0.00000000000E+00 -0.00000000000E+00 -0.20856329542E+04  0.20856329542E+04  0.00000000000E+00 0. -1.
    9000010    2    1    2  502    0 -0.19349775002E+03  0.31147779429E+03  0.51438071753E+03  0.11756682269E+04  0.99153843176E+03 0.  0.
        -13    1    3    3    0    0 -0.37981338302E+03 -0.20110994888E+03  0.45687464004E+03  0.62724625573E+03  0.10566000000E+00 0.  1.
         13    1    1    2    0    0  0.36241543483E+02 -0.34981123462E+03  0.24911392468E+03  0.43097460247E+03  0.10566000000E+00 0. -1.
          2    1    1    2  501    0  0.15725620654E+03  0.38333440327E+02 -0.16601228569E+04  0.16679948642E+04  0.00000000000E+00 0. -1.
          4    1    3    3  502    0  0.18631563300E+03  0.51258774317E+03  0.57506077490E+02  0.54842197120E+03  0.00000000000E+00 0.  1.
</event>
<event>
 7    1  0.4894942E-006  0.1018389E+04  0.7818608E-02  0.9033257E-01
         -4   -1    0    0    0  501 -0.00000000000E+00  0.00000000000E+00  0.50377876213E+03  0.50377876213E+03  0.00000000000E+00 0. -1.
          2   -1    0    0  501    0  0.00000000000E+00 -0.00000000000E+00 -0.27149577128E+04  0.27149577128E+04  0.00000000000E+00 0. -1.
   -9000010    2    1    2    0  502  0.24625006934E+03 -0.21699908168E+03 -0.75734159619E+03  0.12700044293E+04  0.96520322167E+03 0.  0.
        -13    1    1    2    0    0 -0.27353501492E+03  0.17515548936E+03  0.14029811104E+03  0.35381410510E+03  0.10566000000E+00 0.  1.
         13    1    3    3    0    0  0.11573634890E+03 -0.59933865643E+03 -0.51689670716E+03  0.79986495396E+03  0.10566000000E+00 0. -1.
          2    1    1    2  502    0  0.27284945576E+02  0.41843592316E+02 -0.15941354655E+04  0.15949179405E+04  0.00000000000E+00 0. -1.
         -4    1    3    3    0  502  0.13051372044E+03  0.38233957475E+03 -0.24044488903E+03  0.47013947537E+03  0.00000000000E+00 0. -1.
</event>
<event>
 7    1  0.4894942E-006  0.1022633E+04  0.7818608E-02  0.9174564E-01
          2   -1    0    0  501    0  0.00000000000E+00  0.00000000000E+00  0.55061960520E+03  0.55061960520E+03  0.00000000000E+00 0.  1.
         -4   -1    0    0    0  501 -0.00000000000E+00 -0.00000000000E+00 -0.24196712506E+04  0.24196712506E+04  0.00000000000E+00 0. -1.
   -9000010    2    1    2    0  502  0.58607855266E+02 -0.23263598655E+03 -0.15452555661E+04  0.18579452597E+04  0.10032903073E+04 0.  0.
        -13    1    1    2    0    0 -0.17018460362E+03  0.68437365999E+02 -0.68013649347E+03  0.70443745874E+03  0.10566000000E+00 0.  1.
         13    1    3    3    0    0  0.39185917421E+03 -0.44011175875E+03 -0.11926040189E+04  0.13302467176E+04  0.10566000000E+00 0. -1.
          2    1    1    2  502    0  0.11157674836E+03  0.16419862055E+03  0.35634041414E+03  0.40790813735E+03  0.00000000000E+00 0.  1.
         -4    1    3    3    0  502 -0.33325131894E+03  0.20747577220E+03 -0.35265154719E+03  0.52769854212E+03  0.00000000000E+00 0. -1.
</event>
<event>
 7    1  0.4894942E-006  0.1392121E+04  0.7818608E-02  0.8562705E-01
         -4   -1    0    0    0  501 -0.00000000000E+00  0.00000000000E+00  0.83491740272E+03  0.83491740272E+03  0.00000000000E+00 0. -1.
          2   -1    0    0  501    0  0.00000000000E+00 -0.00000000000E+00 -0.27714991034E+04  0.27714991034E+04  0.00000000000E+00 0.  1.
   -9000010    2    1    2    0  502  0.50107930558E+03  0.77800597087E+03 -0.35478314685E+03  0.14309096899E+04  0.10321132196E+04 0.  0.
        -13    1    1    2    0    0 -0.50153871594E+03 -0.79690366984E+03 -0.45008349345E+03  0.10436338941E+04  0.10566000000E+00 0.  1.
         13    1    3    3    0    0 -0.25076157341E+03  0.38689358606E+02 -0.27390755744E+03  0.37336790751E+03  0.10566000000E+00 0. -1.
          2    1    1    2  502    0  0.45941035368E+00  0.18897698974E+02 -0.11317150603E+04  0.11318729221E+04  0.00000000000E+00 0.  1.
         -4    1    3    3    0  502  0.75184087899E+03  0.73931661226E+03 -0.80875589408E+02  0.10575417824E+04  0.00000000000E+00 0. -1.
</event>
<event>
 7    1  0.4894942E-006  0.1065151E+04  0.7818608E-02  0.8975851E-01
          1   -1    0    0  501    0  0.00000000000E+00  0.00000000000E+00  0.50140141448E+03  0.50140141448E+03  0.00000000000E+00 0. -1.
         -4   -1    0    0    0  501 -0.00000000000E+00 -0.00000000000E+00 -0.24602707605E+04  0.24602707605E+04  0.00000000000E+00 0. -1.
   -9000010    2    1    2    0  502 -0.29850556914E+03  0.27590161913E+03 -0.13509313343E+04  0.17310734914E+04  0.10031812818E+04 0.  0.
        -13    1    1    2    0    0  0.14131268908E+03 -0.32494819998E+03 -0.85964605718E+03  0.92981286481E+03  0.10566000000E+00 0.  1.
         13    1    3    3    0    0  0.10619454043E+03 -0.18246017814E+03 -0.10083002135E+04  0.10301642242E+04  0.10566000000E+00 0. -1.
          1    1    1    2  502    0  0.15719288006E+03  0.49046580850E+02  0.25170804549E+03  0.30078581881E+03  0.00000000000E+00 0. -1.
         -4    1    3    3    0  502 -0.40470010956E+03  0.45836179727E+03 -0.34263112080E+03  0.70090926718E+03  0.00000000000E+00 0. -1.
</event>
<event>
 7    1  0.4894942E-006  0.1063936E+04  0.7818608E-02  0.8960922E-01
          2   -1    0    0  501    0  0.00000000000E+00  0.00000000000E+00  0.80331225264E+03  0.80331225264E+03  0.00000000000E+00 0.  1.
         -4   -1    0    0    0  501 -0.00000000000E+00 -0.00000000000E+00 -0.14258396638E+04  0.14258396638E+04  0.00000000000E+00 0. -1.
   -9000010    2    1    2    0  502 -0.26611904213E+03  0.27018235286E+03 -0.99699947784E+03  0.14574047936E+04  0.99307750213E+03 0.  0.
        -13    1    1    2    0    0  0.26246388614E+03 -0.28014699100E+03 -0.13021407391E+02  0.38410831325E+03  0.10566000000E+00 0.  1.
         13    1    3    3    0    0  0.22993996311E+03  0.13634005137E+03  0.67222778853E+02  0.27564453451E+03  0.10566000000E+00 0. -1.
          2    1    1    2  502    0  0.36551559921E+01  0.99646381409E+01  0.38749347412E+03  0.38763880954E+03  0.00000000000E+00 0.  1.
         -4    1    3    3    0  502 -0.49605900525E+03  0.13384230149E+03 -0.10642222567E+04  0.11817602591E+04  0.00000000000E+00 0. -1.
</event>
<event>
 7    1  0.4894942E-006  0.1285447E+04  0.7818608E-02  0.8778585E-01
          2   -1    0    0  502    0  0.00000000000E+00  0.00000000000E+00  0.17850425274E+04  0.17850425274E+04  0.00000000000E+00 0.  1.
          4   -1    0    0  501    0 -0.00000000000E+00 -0.00000000000E+00 -0.22182658413E+04  0.22182658413E+04  0.00000000000E+00 0.  1.
    9000010    2    1    2  502    0 -0.51256502096E+03  0.45855357291E+03  0.13051916494E+03  0.12182600353E+04  0.99705966786E+03 0.  0.
        -13    1    3    3    0    0  0.28041258116E+03  0.27405546174E+03  0.94419681694E+02  0.40330224303E+03  0.10566000000E+00 0.  1.
         13    1    1    2    0    0  0.25953461567E+03  0.38326080464E+03 -0.14588377837E+04  0.15305080044E+04  0.10566000000E+00 0. -1.
          2    1    1    2  501    0  0.25303040530E+03 -0.84181437755E+03  0.89509530492E+03  0.12545403290E+04  0.00000000000E+00 0.  1.
          4    1    3    3  502    0 -0.79297760212E+03  0.18449811117E+03  0.36099483243E+02  0.81495779227E+03  0.00000000000E+00 0.  1.
</event>
<event>
 7    1  0.4894942E-006  0.1000357E+04  0.7818608E-02  0.9289934E-01
          4   -1    0    0  501    0  0.00000000000E+00  0.00000000000E+00  0.50616286519E+03  0.50616286519E+03  0.00000000000E+00 0. -1.
         -4   -1    0    0    0  501 -0.00000000000E+00 -0.00000000000E+00 -0.29107092452E+04  0.29107092452E+04  0.00000000000E+00 0. -1.
   -9000010    2    1    2    0  502 -0.23261621112E+02  0.96826700627E+02 -0.24070855295E+04  0.26055487734E+04  0.99242488447E+03 0.  0.
        -13    1    1    2    0    0  0.12773777946E+02 -0.12786837050E+03 -0.39348958273E+03  0.41394148434E+03  0.10566000000E+00 0.  1.
         13    1    3    3    0    0 -0.28100278400E+03  0.45853066298E+03 -0.15424363563E+04  0.16335001860E+04  0.10566000000E+00 0. -1.
          4    1    1    2  502    0  0.10487843165E+02  0.31041669874E+02  0.39602873218E+03  0.39738185267E+03  0.00000000000E+00 0. -1.
         -4    1    3    3    0  502  0.25774116289E+03 -0.36170396235E+03 -0.86464917320E+03  0.97204858733E+03  0.00000000000E+00 0. -1.
</event>
<event>
 7    1  0.4894942E-006  0.1088732E+04  0.7818608E-02  0.8941495E-01
         -4   -1    0    0    0  501 -0.00000000000E+00  0.00000000000E+00  0.21198760868E+04  0.21198760868E+04  0.00000000000E+00 0. -1.
          1   -1    0    0  501    0  0.00000000000E+00 -0.00000000000E+00 -0.10718024102E+04  0.10718024102E+04  0.00000000000E+00 0.  1.
   -9000010    2    1    2    0  502 -0.95718595274E+02  0.38511713571E+03  0.12593292650E+04  0.16673064674E+04  0.10180979329E+04 0.  0.
        -13    1    1    2    0    0  0.11082471835E+03 -0.36644744862E+03  0.60055714633E+03  0.71220414768E+03  0.10566000000E+00 0.  1.
         13    1    3    3    0    0  0.22064849659E+03  0.60147358534E+03  0.48578549130E+03  0.80401728067E+03  0.10566000000E+00 0. -1.
          1    1    1    2  502    0 -0.15106123071E+02 -0.18669687091E+02 -0.81181273476E+03  0.81216788196E+03  0.00000000000E+00 0.  1.
         -4    1    3    3    0  502 -0.31636709186E+03 -0.21635644962E+03  0.77354377369E+03  0.86328918673E+03  0.00000000000E+00 0. -1.
</event>
<event>
 7    1  0.4894942E-006  0.1072068E+04  0.7818608E-02  0.8948533E-01
          2   -1    0    0  501    0  0.00000000000E+00  0.00000000000E+00  0.22074689361E+04  0.22074689361E+04  0.00000000000E+00 0. -1.
         -4   -1    0    0    0  501 -0.00000000000E+00 -0.00000000000E+00 -0.18281564015E+04  0.18281564015E+04  0.00000000000E+00 0. -1.
   -9000010    2    1    2    0  502  0.53716299690E+02 -0.38583313099E+03 -0.22816475728E+03  0.10950103967E+04  0.99761513957E+03 0.  0.
        -13    1    1    2    0    0  0.13419041154E+03  0.37260331048E+03 -0.11277124271E+04  0.11952303640E+04  0.10566000000E+00 0.  1.
         13    1    3    3    0    0  0.40180705324E+03  0.93615722208E+02  0.90336678975E+02  0.42234291542E+03  0.10566000000E+00 0. -1.
          2    1    1    2  502    0 -0.18790671123E+03  0.13229820502E+02  0.17351897190E+04  0.17453845769E+04  0.00000000000E+00 0. -1.
         -4    1    3    3    0  502 -0.34809075355E+03 -0.47944885319E+03 -0.31850143625E+03  0.67266748132E+03  0.00000000000E+00 0. -1.
</event>
<event>
 7    1  0.4894942E-006  0.1252894E+04  0.7818608E-02  0.8682602E-01
          4   -1    0    0  501    0 -0.00000000000E+00  0.00000000000E+00  0.30184529004E+04  0.30184529004E+04  0.00000000000E+00 0.  1.
          2   -1    0    0  502    0  0.00000000000E+00 -0.00000000000E+00 -0.27009103806E+04  0.27009103806E+04  0.00000000000E+00 0. -1.
    9000010    2    1    2  502    0  0.73498648322E+03  0.18633053241E+03  0.82732033587E+03  0.15028934891E+04  0.99965279149E+03 0.  0.
        -13    1    3    3    0    0  0.25973667138E+03 -0.32736060973E+03  0.66354771659E+03  0.78417070247E+03  0.10566000000E+00 0.  1.
         13    1    1    2    0    0 -0.74210356281E+03 -0.13832588000E+03  0.17762098084E+04  0.19299671090E+04  0.10566000000E+00 0. -1.
          2    1    1    2  501    0  0.71170795878E+01 -0.48004652411E+02 -0.22859876246E+04  0.22865026829E+04  0.00000000000E+00 0. -1.
          4    1    3    3  502    0  0.47524981184E+03  0.51369114213E+03  0.16377261928E+03  0.71872278660E+03  0.00000000000E+00 0.  1.
</event>
<event>
 7    1  0.4894942E-006  0.1139594E+04  0.7818608E-02  0.9294409E-01
          4   -1    0    0  502    0  0.00000000000E+00  0.00000000000E+00  0.28734038083E+04  0.28734038083E+04  0.00000000000E+00 0.  1.
          4   -1    0    0  501    0 -0.00000000000E+00 -0.00000000000E+00 -0.82267476955E+03  0.82267476955E+03  0.00000000000E+00 0.  1.
    9000010    2    1    2  502    0  0.22634937252E+02 -0.44868328306E+02 -0.39378462072E+03  0.12038586752E+04  0.11365227120E+04 0.  0.
        -13    1    3    3    0    0 -0.45933622507E+03 -0.13611420581E+03 -0.51002217858E+03  0.69974243725E+03  0.10566000000E+00 0.  1.
         13    1    1    2    0    0 -0.99512369486E+02 -0.35349498247E+01  0.84893355771E+02  0.13085144466E+03  0.10566000000E+00 0. -1.
          4    1    1    2  501    0  0.76877432234E+02  0.48403278130E+02  0.23596203037E+04  0.23613684580E+04  0.00000000000E+00 0.  1.
          4    1    3    3  502    0  0.48197116232E+03  0.91245877501E+02  0.11623755786E+03  0.50411623791E+03  0.00000000000E+00 0.  1.
</event>
<event>
 7    1  0.4894942E-006  0.1017477E+04  0.7818608E-02  0.9244913E-01
         -4   -1    0    0    0  501 -0.00000000000E+00  0.00000000000E+00  0.19938055875E+04  0.19938055875E+04  0.00000000000E+00 0. -1.
          2   -1    0    0  501    0  0.00000000000E+00 -0.00000000000E+00 -0.17311940461E+04  0.17311940461E+04  0.00000000000E+00 0.  1.
   -9000010    2    1    2    0  502  0.15366151029E+03 -0.38551375767E+02  0.92532802517E+03  0.13771195375E+04  0.10075357056E+04 0.  0.
        -13    1    1    2    0    0 -0.12974005626E+03  0.56494864596E+02  0.83649034520E+03  0.84837507077E+03  0.10566000000E+00 0.  1.
         13    1    3    3    0    0 -0.58973646265E+02 -0.50073709031E+03  0.38028466881E+03  0.63153144424E+03  0.10566000000E+00 0. -1.
          2    1    1    2  502    0 -0.23921454027E+02 -0.17943488830E+02 -0.14992068290E+04  0.14995050253E+04  0.00000000000E+00 0.  1.
         -4    1    3    3    0  502  0.21263515655E+03  0.46218571455E+03  0.54504335636E+03  0.74558809328E+03  0.00000000000E+00 0. -1.
</event>
<event>
 7    1  0.4894942E-006  0.1264073E+04  0.7818608E-02  0.8668880E-01
         -4   -1    0    0    0  501 -0.00000000000E+00  0.00000000000E+00  0.29261614420E+04  0.29261614420E+04  0.00000000000E+00 0. -1.
          2   -1    0    0  501    0  0.00000000000E+00 -0.00000000000E+00 -0.14584796894E+04  0.14584796894E+04  0.00000000000E+00 0. -1.
   -9000010    2    1    2    0  502  0.59976735965E+03  0.49608633173E+03  0.11779532570E+04  0.17267866991E+04  0.99418101673E+03 0.  0.
        -13    1    1    2    0    0 -0.58916815946E+03 -0.51367778907E+03  0.13700454689E+04  0.15773422549E+04  0.10566000000E+00 0.  1.
         13    1    3    3    0    0  0.55733502550E+03  0.53045342676E+03  0.13458339574E+04  0.15502490834E+04  0.10566000000E+00 0. -1.
          2    1    1    2  502    0 -0.10599200192E+02  0.17591457338E+02 -0.10803169734E+04  0.10805121774E+04  0.00000000000E+00 0. -1.
         -4    1    3    3    0  502  0.42432334150E+02 -0.34367095031E+02 -0.16788070032E+03  0.17653761566E+03  0.00000000000E+00 0. -1.
</event>
<event>
 7    1  0.4894942E-006  0.1038540E+04  0.7818608E-02  0.9055015E-01
         -2   -1    0    0    0  501  0.00000000000E+00  0.00000000000E+00  0.98970551035E+03  0.98970551035E+03  0.00000000000E+00 0.  1.
         -4   -1    0    0    0  502 -0.00000000000E+00 -0.00000000000E+00 -0.10750988827E+04  0.10750988827E+04  0.00000000000E+00 0. -1.
   -9000010    2    1    2    0  501  0.11291819656E+03  0.34001220889E+03 -0.50688062690E+03  0.11711210912E+04  0.99309507046E+03 0.  0.
        -13    1    1    2    0    0 -0.27014618194E+03 -0.76237035311E+02 -0.91991518719E+02  0.29538702722E+03  0.10566000000E+00 0.  1.
         13    1    3    3    0    0  0.39099981287E+03 -0.16938244941E+03 -0.43229593561E+02  0.42829905061E+03  0.10566000000E+00 0. -1.
         -2    1    1    2    0  502  0.15722798538E+03 -0.26377517358E+03  0.51347877330E+03  0.59829627462E+03  0.00000000000E+00 0.  1.
         -4    1    3    3    0  501 -0.27808161631E+03  0.50939465830E+03 -0.46365103334E+03  0.74282204057E+03  0.00000000000E+00 0. -1.
</event>
<event>
 7    1  0.4894942E-006  0.1092772E+04  0.7818608E-02  0.8866212E-01
          2   -1    0    0  502    0  0.00000000000E+00  0.00000000000E+00  0.48261208694E+03  0.48261208694E+03  0.00000000000E+00 0. -1.
          4   -1    0    0  501    0 -0.00000000000E+00 -0.00000000000E+00 -0.19743802798E+04  0.19743802798E+04  0.00000000000E+00 0.  1.
    9000010    2    1    2  502    0  0.43016456997E+03 -0.30169089850E+03 -0.94963645497E+03  0.14493867812E+04  0.96065274140E+03 0.  0.
        -13    1    3    3    0    0  0.68502472193E+03 -0.28477304460E+03 -0.39890165199E+03  0.84230463356E+03  0.10566000000E+00 0.  1.
         13    1    1    2    0    0 -0.44013744808E+03  0.27588392932E+03 -0.68634810533E+03  0.86075934414E+03  0.10566000000E+00 0. -1.
          2    1    1    2  501    0  0.99728781052E+01  0.25806969175E+02  0.14421636745E+03  0.14684624134E+03  0.00000000000E+00 0. -1.
          4    1    3    3  502    0 -0.25486015196E+03 -0.16917853897E+02 -0.55073480297E+03  0.60708214769E+03  0.00000000000E+00 0.  1.
</event>
<event>
 7    1  0.4894942E-006  0.1096672E+04  0.7818608E-02  0.9232072E-01
          2   -1    0    0  502    0  0.00000000000E+00  0.00000000000E+00  0.81918321655E+03  0.81918321655E+03  0.00000000000E+00 0.  1.
          4   -1    0    0  501    0 -0.00000000000E+00 -0.00000000000E+00 -0.91285332276E+03  0.91285332276E+03  0.00000000000E+00 0.  1.
    9000010    2    1    2  502    0 -0.36360350757E+03 -0.56820659891E+02 -0.15922436753E+01  0.10648914253E+04  0.99927729603E+03 0.  0.
        -13    1    3    3    0    0 -0.68919858822E+02 -0.43906144206E+03 -0.26257056030E+03  0.51620558612E+03  0.10566000000E+00 0.  1.
         13    1    1    2    0    0 -0.11818477341E+03 -0.14283858389E+02 -0.13291100438E+03  0.17842930120E+03  0.10566000000E+00 0. -1.
          2    1    1    2  501    0  0.48178828098E+03  0.71104518280E+02  0.40833141842E+02  0.48871581280E+03  0.00000000000E+00 0.  1.
          4    1    3    3  502    0 -0.29468364874E+03  0.38224078217E+03  0.26097831662E+03  0.54868583920E+03  0.00000000000E+00 0.  1.
</event>
<event>
 7    1  0.4894942E-006  0.9986897E+03  0.7818608E-02  0.9170778E-01
          4   -1    0    0  501    0 -0.00000000000E+00  0.00000000000E+00  0.10250765005E+04  0.10250765005E+04  0.00000000000E+00 0.  1.
          2   -1    0    0  502    0  0.00000000000E+00 -0.00000000000E+00 -0.46480082364E+03  0.46480082364E+03  0.00000000000E+00 0.  1.
    9000010    2    1    2  502    0  0.15770491489E+03  0.17747243920E+03  0.27480594863E+03  0.10437046396E+04  0.97848544109E+03 0.  0.
        -13    1    3    3    0    0 -0.26431434972E+03 -0.37977085080E+02  0.46249912481E+03  0.53405035912E+03  0.10566000000E+00 0.  1.
         13    1    1    2    0    0 -0.10307613088E+03 -0.16835828291E+03  0.32351027236E+03  0.37898299127E+03  0.10566000000E+00 0. -1.
          2    1    1    2  501    0 -0.54628784012E+02 -0.91141562864E+01 -0.38040544131E+02  0.67189693296E+02  0.00000000000E+00 0.  1.
          4    1    3    3  502    0  0.42201926461E+03  0.21544952428E+03 -0.18769317618E+03  0.50965428046E+03  0.00000000000E+00 0.  1.
</event>
<event>
 7    1  0.4894942E-006  0.1047636E+04  0.7818608E-02  0.9177859E-01
          1   -1    0    0  501    0  0.00000000000E+00  0.00000000000E+00  0.95856504982E+03  0.95856504982E+03  0.00000000000E+00 0.  1.
         -4   -1    0    0    0  501 -0.00000000000E+00 -0.00000000000E+00 -0.12817603507E+04  0.12817603507E+04  0.00000000000E+00 0. -1.
   -9000010    2    1    2    0  502  0.35398929917E+02 -0.26259362076E+03 -0.32257014008E+03  0.11150923726E+04  0.10340072584E+04 0.  0.
        -13    1    1    2    0    0 -0.97373490466E+02  0.13485223967E+03 -0.54127260630E+03  0.56625327256E+03  0.10566000000E+00 0.  1.
         13    1    3    3    0    0 -0.26060997813E+03 -0.46897782970E+03  0.11419488698E+03  0.54854192987E+03  0.10566000000E+00 0. -1.
          1    1    1    2  502    0  0.61974560549E+02  0.12774138109E+03  0.54064744547E+03  0.55897975535E+03  0.00000000000E+00 0.  1.
         -4    1    3    3    0  502  0.29600890805E+03  0.20638420894E+03 -0.43676502705E+03  0.56655044277E+03  0.00000000000E+00 0. -1.
</event>
<event>
 7    1  0.4894942E-006  0.1142424E+04  0.7818608E-02  0.8818353E-01
          1   -1    0    0  501    0  0.00000000000E+00  0.00000000000E+00  0.27497227300E+04  0.27497227300E+04  0.00000000000E+00 0. -1.
         -4   -1    0    0    0  501 -0.00000000000E+00 -0.00000000000E+00 -0.11455836127E+04  0.11455836127E+04  0.00000000000E+00 0. -1.
   -9000010    2    1    2    0  502  0.34005148836E+03  0.42446016913E+03 -0.11433421585E+03  0.11417337418E+04  0.99733754285E+03 0.  0.
        -13    1    1    2    0    0 -0.41725861386E+03 -0.37761204209E+03 -0.36330239074E+03  0.66983896830E+03  0.10566000000E+00 0.  1.
         13    1    3    3    0    0  0.45209502887E+03  0.64111657706E+03 -0.29508229250E+03  0.83814912218E+03  0.10566000000E+00 0. -1.
          1    1    1    2  502    0  0.77207125500E+02 -0.46848127035E+02  0.20817757239E+04  0.20837336327E+04  0.00000000000E+00 0. -1.
         -4    1    3    3    0  502 -0.11204354051E+03 -0.21665640793E+03  0.18074807664E+03  0.30358461963E+03  0.00000000000E+00 0. -1.
</event>
<event>
 7    1  0.4894942E-006  0.1043546E+04  0.7818608E-02  0.9024745E-01
         -4   -1    0    0    0  501 -0.00000000000E+00  0.00000000000E+00  0.66264473900E+03  0.66264473900E+03  0.00000000000E+00 0. -1.
          2   -1    0    0  501    0  0.00000000000E+00 -0.00000000000E+00 -0.16152059751E+04  0.16152059751E+04  0.00000000000E+00 0. -1.
   -9000010    2    1    2    0  502  0.22864280286E+03  0.10530747694E+03 -0.35126251199E+02  0.10276227403E+04  0.99569445462E+03 0.  0.
        -13    1    1    2    0    0 -0.32099889886E+03 -0.86794365099E+02 -0.46120229393E+01  0.33255802020E+03  0.10566000000E+00 0.  1.
         13    1    3    3    0    0  0.94119516342E+00 -0.32672890160E+03  0.29332331133E+03  0.43907998943E+03  0.10566000000E+00 0. -1.
          2    1    1    2  502    0  0.92356095995E+02 -0.18513111841E+02 -0.91282296195E+03  0.91766995355E+03  0.00000000000E+00 0. -1.
         -4    1    3    3    0  502  0.22770160770E+03  0.43203637854E+03 -0.32844956253E+03  0.58854275091E+03  0.00000000000E+00 0. -1.
</event>
<event>
 7    1  0.4894942E-006  0.1007393E+04  0.7818608E-02  0.9318799E-01
          4   -1    0    0  501    0 -0.00000000000E+00  0.00000000000E+00  0.13926314237E+04  0.13926314237E+04  0.00000000000E+00 0.  1.
          2   -1    0    0  502    0  0.00000000000E+00 -0.00000000000E+00 -0.50965930774E+03  0.50965930774E+03  0.00000000000E+00 0.  1.
    9000010    2    1    2  502    0 -0.36432939668E+02 -0.59324239541E+02  0.87865221496E+03  0.13339927865E+04  0.10013292740E+04 0.  0.
        -13    1    3    3    0    0  0.27420923366E+03 -0.42936398283E+03  0.35161618186E+03  0.61901379960E+03  0.10566000000E+00 0.  1.
         13    1    1    2    0    0  0.11201869376E+03 -0.25922797962E+02  0.26223788849E+03  0.28633704009E+03  0.10566000000E+00 0. -1.
          2    1    1    2  501    0 -0.75585754088E+02  0.85247037503E+02 -0.25791798748E+03  0.28196090490E+03  0.00000000000E+00 0.  1.
          4    1    3    3  502    0 -0.31064217333E+03  0.37003974329E+03  0.52703603310E+03  0.71497898686E+03  0.00000000000E+00 0.  1.
</event>
<event>
 7    1  0.4894942E-006  0.1788598E+04  0.7818608E-02  0.8303001E-01
          4   -1    0    0  502    0  0.00000000000E+00  0.00000000000E+00  0.29097972227E+04  0.29097972227E+04  0.00000000000E+00 0. -1.
          4   -1    0    0  501    0 -0.00000000000E+00 -0.00000000000E+00 -0.18382990103E+04  0.18382990103E+04  0.00000000000E+00 0.  1.
    9000010    2    1    2  502    0 -0.11911151700E+04  0.73590247087E+03  0.13661848189E+04  0.22131443561E+04  0.10350068535E+04 0.  0.
        -13    1    3    3    0    0 -0.63179234489E+02  0.39218380394E+03  0.82517093561E+03  0.91580938841E+03  0.10566000000E+00 0.  1.
         13    1    1    2    0    0  0.12337767502E+04 -0.80161276669E+03 -0.10296533704E+04  0.17958213083E+04  0.10566000000E+00 0. -1.
          4    1    1    2  501    0 -0.42661580251E+02  0.65710295821E+02  0.73496676384E+03  0.73913056855E+03  0.00000000000E+00 0. -1.
          4    1    3    3  502    0 -0.11279359355E+04  0.34371866693E+03  0.54101388326E+03  0.12973349677E+04  0.00000000000E+00 0.  1.
</event>
<event>
 7    1  0.4894942E-006  0.1141965E+04  0.7818608E-02  0.8818250E-01
          4   -1    0    0  501    0 -0.00000000000E+00  0.00000000000E+00  0.23224800452E+04  0.23224800452E+04  0.00000000000E+00 0.  1.
          2   -1    0    0  502    0  0.00000000000E+00 -0.00000000000E+00 -0.54989743345E+03  0.54989743345E+03  0.00000000000E+00 0.  1.
    9000010    2    1    2  502    0 -0.54462352224E+03 -0.28369882956E+03  0.93771803794E+03  0.14996764779E+04  0.99630046310E+03 0.  0.
        -13    1    3    3    0    0 -0.60509979887E+03 -0.41992523616E+03  0.22295702185E+03  0.76954065215E+03  0.10566000000E+00 0.  1.
         13    1    1    2    0    0  0.51400557416E+03  0.18299347087E+03  0.10216996432E+04  0.11582566696E+04  0.10566000000E+00 0. -1.
          2    1    1    2  501    0  0.30617948080E+02  0.10070535868E+03 -0.18683506939E+03  0.21444433116E+03  0.00000000000E+00 0.  1.
          4    1    3    3  502    0  0.60476276632E+02  0.13622640660E+03  0.71476101609E+03  0.73013582573E+03  0.00000000000E+00 0.  1.
</event>
<event>
 7    1  0.4894942E-006  0.1016268E+04  0.7818608E-02  0.9085609E-01
         -4   -1    0    0    0  501 -0.00000000000E+00  0.00000000000E+00  0.52952053339E+03  0.52952053339E+03  0.00000000000E+00 0. -1.
          2   -1    0    0  501    0  0.00000000000E+00 -0.00000000000E+00 -0.21239964337E+04  0.21239964337E+04  0.00000000000E+00 0. -1.
   -9000010    2    1    2    0  502 -0.18552758002E+03 -0.10805562749E+03 -0.22536591822E+03  0.10292534150E+04  0.98105876154E+03 0.  0.
        -13    1    1    2    0    0  0.40233510944E+02  0.30036839017E+03 -0.80850939439E+02  0.31365074651E+03  0.10566000000E+00 0.  1.
         13    1    3    3    0    0 -0.43683056764E+03 -0.13485449423E+03  0.22749347914E+03  0.51064662307E+03  0.10566000000E+00 0. -1.
          2    1    1    2  502    0  0.14529406907E+03 -0.19231276268E+03 -0.12882590426E+04  0.13106128055E+04  0.00000000000E+00 0. -1.
         -4    1    3    3    0  502  0.25130298763E+03  0.26798866747E+02 -0.45285939736E+03  0.51860679192E+03  0.00000000000E+00 0. -1.
</event>
<event>
 7    1  0.4894942E-006  0.1344161E+04  0.7818608E-02  0.8849985E-01
          4   -1    0    0  501    0 -0.00000000000E+00  0.00000000000E+00  0.14879415859E+04  0.14879415859E+04  0.00000000000E+00 0.  1.
          2   -1    0    0  502    0  0.00000000000E+00 -0.00000000000E+00 -0.13703074102E+04  0.13703074102E+04  0.00000000000E+00 0. -1.
    9000010    2    1    2  502    0 -0.59770339229E+03  0.32315690658E+03  0.48084362799E+03  0.12989137160E+04  0.99713916564E+03 0.  0.
        -13    1    3    3    0    0 -0.18047656559E+03 -0.35804409666E+03  0.22686856949E+03  0.46069157238E+03  0.10566000000E+00 0.  1.
         13    1    1    2    0    0 -0.29558003601E+03  0.48342903699E+02  0.26986804998E+03  0.40315427517E+03  0.10566000000E+00 0. -1.
          2    1    1    2  501    0  0.89328342830E+03 -0.37149981028E+03 -0.63307750219E+03  0.11561810049E+04  0.00000000000E+00 0. -1.
          4    1    3    3  502    0 -0.41722682670E+03  0.68120100324E+03  0.25397505849E+03  0.83822214363E+03  0.00000000000E+00 0.  1.
</event>
<event>
 7    1  0.4894942E-006  0.1323716E+04  0.7818608E-02  0.8599799E-01
          1   -1    0    0  501    0  0.00000000000E+00  0.00000000000E+00  0.16222670861E+04  0.16222670861E+04  0.00000000000E+00 0.  1.
         -4   -1    0    0    0  501 -0.00000000000E+00 -0.00000000000E+00 -0.15619615004E+04  0.15619615004E+04  0.00000000000E+00 0. -1.
   -9000010    2    1    2    0  502 -0.14570713856E+03 -0.89644278435E+03 -0.86198681688E+03  0.15720954406E+04  0.95059064067E+03 0.  0.
        -13    1    1    2    0    0 -0.13813608859E+03  0.97128111862E+03  0.50909738040E+03  0.11052822012E+04  0.10566000000E+00 0.  1.
         13    1    3    3    0    0 -0.23904419215E+03 -0.28488446653E+03  0.13762409775E+03  0.39653712123E+03  0.10566000000E+00 0. -1.
          1    1    1    2  502    0  0.28384322715E+03 -0.74838334267E+02  0.41319502216E+03  0.50685094477E+03  0.00000000000E+00 0.  1.
         -4    1    3    3    0  502  0.93337053593E+02 -0.61155831782E+03 -0.99961091462E+03  0.11755583194E+04  0.00000000000E+00 0. -1.
</event>
<event>
 7    1  0.4894942E-006  0.1038706E+04  0.7818608E-02  0.9056113E-01
         -4   -1    0    0    0  501 -0.00000000000E+00  0.00000000000E+00  0.16429526945E+04  0.16429526945E+04  0.00000000000E+00 0. -1.
          2   -1    0    0  501    0  0.00000000000E+00 -0.00000000000E+00 -0.30264881544E+04  0.30264881544E+04  0.00000000000E+00 0. -1.
   -9000010    2    1    2    0  502  0.17601953951E+03 -0.16799598763E+03  0.91249723458E+03  0.13757687347E+04  0.10004413416E+04 0.  0.
        -13    1    1    2    0    0 -0.29664820482E+03  0.86338039404E+01  0.45072338932E+03  0.53965385650E+03  0.10566000000E+00 0.  1.
         13    1    3    3    0    0  0.42953119236E+03  0.21158706169E+03  0.17768101898E+03  0.51072173006E+03  0.10566000000E+00 0. -1.
          2    1    1    2  502    0  0.12062866532E+03  0.15936218369E+03 -0.27467560838E+04  0.27540182578E+04  0.00000000000E+00 0. -1.
         -4    1    3    3    0  502 -0.25351165285E+03 -0.37958304932E+03  0.73481621560E+03  0.86504700460E+03  0.00000000000E+00 0. -1.
</event>
<event>
 7    1  0.4894942E-006  0.1141334E+04  0.7818608E-02  0.8815152E-01
          2   -1    0    0  502    0  0.00000000000E+00  0.00000000000E+00  0.13519949742E+04  0.13519949742E+04  0.00000000000E+00 0.  1.
          4   -1    0    0  501    0 -0.00000000000E+00 -0.00000000000E+00 -0.18323526810E+04  0.18323526810E+04  0.00000000000E+00 0.  1.
    9000010    2    1    2  502    0 -0.24779301675E+03  0.56308764231E+03 -0.91710489617E+03  0.14837168806E+04  0.99089117424E+03 0.  0.
        -13    1    3    3    0    0 -0.51336351018E+03  0.65338541898E+03 -0.46647941490E+03  0.95292059218E+03  0.10566000000E+00 0.  1.
         13    1    1    2    0    0  0.54145424388E+03 -0.24795290435E+03 -0.42878723354E+03  0.73383366221E+03  0.10566000000E+00 0. -1.
          2    1    1    2  501    0 -0.29366122713E+03 -0.31513473797E+03  0.86553442291E+03  0.96679711245E+03  0.00000000000E+00 0.  1.
          4    1    3    3  502    0  0.26557049343E+03 -0.90297776661E+02 -0.45062548127E+03  0.53079628844E+03  0.00000000000E+00 0.  1.
</event>
<event>
 7    1  0.4894942E-006  0.1145380E+04  0.7818608E-02  0.8833517E-01
          2   -1    0    0  502    0  0.00000000000E+00  0.00000000000E+00  0.17264804791E+04  0.17264804791E+04  0.00000000000E+00 0.  1.
          4   -1    0    0  501    0 -0.00000000000E+00 -0.00000000000E+00 -0.20611248313E+04  0.20611248313E+04  0.00000000000E+00 0.  1.
    9000010    2    1    2  502    0 -0.32666424540E+03  0.42496466216E+03 -0.10487239429E+03  0.11580823099E+04  0.10212012163E+04 0.  0.
        -13    1    3    3    0    0 -0.89127781151E+02  0.14486414625E+03 -0.55307043359E+03  0.57863312895E+03  0.10566000000E+00 0.  1.
         13    1    1    2    0    0  0.33157123320E+03 -0.39692154127E+03 -0.13826911544E+04  0.14762523606E+04  0.10566000000E+00 0. -1.
          2    1    1    2  501    0 -0.49069878066E+01 -0.28043120895E+02  0.11529191965E+04  0.11532706398E+04  0.00000000000E+00 0.  1.
          4    1    3    3  502    0 -0.23753646425E+03  0.28010051591E+03  0.44819803930E+03  0.57944918094E+03  0.00000000000E+00 0.  1.
</event>
<event>
 7    1  0.4894942E-006  0.1003290E+04  0.7818608E-02  0.9380398E-01
          2   -1    0    0  501    0  0.00000000000E+00  0.00000000000E+00  0.12608231196E+04  0.12608231196E+04  0.00000000000E+00 0.  1.
         -4   -1    0    0    0  501 -0.00000000000E+00 -0.00000000000E+00 -0.12614392538E+04  0.12614392538E+04  0.00000000000E+00 0. -1.
   -9000010    2    1    2    0  502  0.80198396471E+02  0.38880750246E+02 -0.10564924066E+04  0.14569986865E+04  0.99936253267E+03 0.  0.
        -13    1    1    2    0    0 -0.83485803918E+02 -0.28481825743E+02  0.41392662480E+03  0.42322140274E+03  0.10566000000E+00 0.  1.
         13    1    3    3    0    0  0.43711544876E+02  0.36242412589E+03 -0.10705725522E+04  0.11311001489E+04  0.10566000000E+00 0. -1.
          2    1    1    2  502    0  0.32874074479E+01 -0.10398924503E+02  0.64194964752E+03  0.64204228414E+03  0.00000000000E+00 0.  1.
         -4    1    3    3    0  502  0.36486851595E+02 -0.32354337564E+03  0.14080145667E+02  0.32589853753E+03  0.00000000000E+00 0. -1.
</event>
<event>
 7    1  0.4894942E-006  0.1035774E+04  0.7818608E-02  0.9060000E-01
          2   -1    0    0  502    0  0.00000000000E+00  0.00000000000E+00  0.23591069377E+04  0.23591069377E+04  0.00000000000E+00 0. -1.
          4   -1    0    0  501    0 -0.00000000000E+00 -0.00000000000E+00 -0.72049679280E+03  0.72049679280E+03  0.00000000000E+00 0.  1.
    9000010    2    1    2  502    0  0.23453493044E+03  0.14903736480E+03  0.18403448294E+03  0.10521300443E+04  0.99794296908E+03 0.  0.
        -13    1    3    3    0    0  0.59959218840E+03  0.25996316376E+03  0.95608863589E+02  0.66047914794E+03  0.10566000000E+00 0.  1.
         13    1    1    2    0    0 -0.15800850150E+03 -0.23062935693E+03 -0.21591838150E+03  0.35323836918E+03  0.10566000000E+00 0. -1.
          2    1    1    2  501    0 -0.76526428933E+02  0.81591992123E+02  0.16704940435E+04  0.16742353171E+04  0.00000000000E+00 0. -1.
          4    1    3    3  502    0 -0.36505725797E+03 -0.11092579896E+03  0.88425619354E+02  0.39165089637E+03  0.00000000000E+00 0.  1.
</event>
<event>
 7    1  0.4894942E-006  0.1010291E+04  0.7818608E-02  0.9138194E-01
          2   -1    0    0  502    0  0.00000000000E+00  0.00000000000E+00  0.24881895203E+04  0.24881895203E+04  0.00000000000E+00 0. -1.
          4   -1    0    0  501    0 -0.00000000000E+00 -0.00000000000E+00 -0.10768190383E+04  0.10768190383E+04  0.00000000000E+00 0.  1.
    9000010    2    1    2  502    0  0.20977404811E+03  0.39309293404E+02 -0.43644527638E+03  0.10993742171E+04  0.98619917775E+03 0.  0.
        -13    1    3    3    0    0  0.23511515544E+03 -0.21051905530E+03  0.22782055932E+03  0.38922953045E+03  0.10566000000E+00 0.  1.
         13    1    1    2    0    0 -0.20531485634E+03 -0.80159635744E+02 -0.26936896126E+03  0.34805086682E+03  0.10566000000E+00 0. -1.
          2    1    1    2  501    0 -0.44591917708E+01  0.40850342341E+02  0.21171847196E+04  0.21175834746E+04  0.00000000000E+00 0. -1.
          4    1    3    3  502    0 -0.25341107323E+02  0.24982834870E+03 -0.66426583570E+03  0.71014468668E+03  0.00000000000E+00 0.  1.
</event>
<event>
 7    1  0.4894942E-006  0.1311212E+04  0.7818608E-02  0.8612837E-01
          4   -1    0    0  501    0  0.00000000000E+00  0.00000000000E+00  0.20890473101E+04  0.20890473101E+04  0.00000000000E+00 0. -1.
         -4   -1    0    0    0  501 -0.00000000000E+00 -0.00000000000E+00 -0.89578545075E+03  0.89578545075E+03  0.00000000000E+00 0. -1.
   -9000010    2    1    2    0  502 -0.15282090828E+03  0.88564527779E+03  0.77532788421E+03  0.15256930821E+04  0.95858451101E+03 0.  0.
        -13    1    1    2    0    0  0.12854314343E+03 -0.88406748475E+03 -0.13688295706E+03  0.90378958415E+03  0.10566000000E+00 0.  1.
         13    1    3    3    0    0  0.38619380647E+03  0.18538963474E+03  0.29235650378E+03  0.51863986473E+03  0.10566000000E+00 0. -1.
          4    1    1    2  502    0  0.24277764854E+02 -0.15777930425E+01  0.55481693223E+03  0.55535009462E+03  0.00000000000E+00 0. -1.
         -4    1    3    3    0  502 -0.53901471476E+03  0.70025564306E+03  0.48297138043E+03  0.10070532174E+04  0.00000000000E+00 0. -1.
</event>
<event>
 7    1  0.4894942E-006  0.1143455E+04  0.7818608E-02  0.8807309E-01
         -4   -1    0    0    0  501 -0.00000000000E+00  0.00000000000E+00  0.78528161357E+03  0.78528161357E+03  0.00000000000E+00 0. -1.
          2   -1    0    0  501    0  0.00000000000E+00 -0.00000000000E+00 -0.24369452711E+04  0.24369452711E+04  0.00000000000E+00 0. -1.
   -9000010    2    1    2    0  502  0.54917953995E+03  0.16720392426E+03 -0.60156171936E+03  0.12883976777E+04  0.98414264940E+03 0.  0.
        -13    1    1    2    0    0 -0.58541772889E+03 -0.36676511105E+02  0.24208700858E+03  0.63455907105E+03  0.10566000000E+00 0.  1.
         13    1    3    3    0    0  0.41983439620E+03  0.56268705072E+03 -0.25516574253E+03  0.74698541124E+03  0.10566000000E+00 0. -1.
          2    1    1    2  502    0  0.36238188936E+02 -0.13052741315E+03 -0.12921889467E+04  0.12992701359E+04  0.00000000000E+00 0. -1.
         -4    1    3    3    0  502  0.12934514375E+03 -0.39548312647E+03 -0.34639597683E+03  0.54141226648E+03  0.00000000000E+00 0. -1.
</event>
<event>
 7    1  0.4894942E-006  0.1187045E+04  0.7818608E-02  0.8838546E-01
          2   -1    0    0  501    0  0.00000000000E+00  0.00000000000E+00  0.32802226717E+04  0.32802226717E+04  0.00000000000E+00 0. -1.
         -4   -1    0    0    0  501 -0.00000000000E+00 -0.00000000000E+00 -0.15603570206E+04  0.15603570206E+04  0.00000000000E+00 0. -1.
   -9000010    2    1    2    0  502  0.56297972077E+03  0.57633756403E+03  0.67581989531E+03  0.14448597726E+04  0.99084614244E+03 0.  0.
        -13    1    1    2    0    0  0.74731430921E+02 -0.45006802661E+03 -0.10810684115E+04  0.11733946211E+04  0.10566000000E+00 0.  1.
         13    1    3    3    0    0 -0.16853568648E+03 -0.11322323228E+02 -0.12590071644E+03  0.21067385738E+03  0.10566000000E+00 0. -1.
          2    1    1    2  502    0 -0.63771115169E+03 -0.12626953742E+03  0.21251141672E+04  0.22223252986E+04  0.00000000000E+00 0. -1.
         -4    1    3    3    0  502  0.73151540725E+03  0.58765988726E+03  0.80172061175E+03  0.12341859153E+04  0.00000000000E+00 0. -1.
</event>
<event>
 7    1  0.4894942E-006  0.1141727E+04  0.7818608E-02  0.9044799E-01
          2   -1    0    0  501    0  0.00000000000E+00  0.00000000000E+00  0.27624587920E+04  0.27624587920E+04  0.00000000000E+00 0. -1.
         -4   -1    0    0    0  501 -0.00000000000E+00 -0.00000000000E+00 -0.22705582750E+04  0.22705582750E+04  0.00000000000E+00 0. -1.
   -9000010    2    1    2    0  502 -0.28078899441E+02 -0.16982860273E+03 -0.15153237861E+04  0.18923382138E+04  0.11203158304E+04 0.  0.
        -13    1    1    2    0    0  0.16803697917E+03  0.15722268278E+03 -0.54135142544E+03  0.58823190609E+03  0.10566000000E+00 0.  1.
         13    1    3    3    0    0 -0.42212575374E+03  0.30158463338E+03 -0.71392385094E+03  0.88251386344E+03  0.10566000000E+00 0. -1.
          2    1    1    2  502    0 -0.13995807973E+03  0.12605919945E+02  0.25485757285E+04  0.25524469470E+04  0.00000000000E+00 0. -1.
         -4    1    3    3    0  502  0.39404685429E+03 -0.47141323611E+03 -0.80139993519E+03  0.10098243504E+04  0.00000000000E+00 0. -1.
</event>
<event>
 7    1  0.4894942E-006  0.9835982E+03  0.7818608E-02  0.9308962E-01
          2   -1    0    0  502    0  0.00000000000E+00  0.00000000000E+00  0.22018565695E+04  0.22018565695E+04  0.00000000000E+00 0. -1.
          4   -1    0    0  501    0 -0.00000000000E+00 -0.00000000000E+00 -0.29095413376E+03  0.29095413376E+03  0.00000000000E+00 0.  1.
    9000010    2    1    2  502    0  0.14067260894E+03  0.82430583997E+01  0.10496291288E+04  0.14401043889E+04  0.97587018195E+03 0.  0.
        -13    1    3    3    0    0  0.86211262631E+02 -0.36033186026E+03  0.99726583515E+03  0.10638658696E+04  0.10566000000E+00 0.  1.
         13    1    1    2    0    0 -0.12002630743E+03 -0.24676488422E+02 -0.56230890443E+02  0.13482272716E+03  0.10566000000E+00 0. -1.
          2    1    1    2  501    0 -0.20646301512E+02  0.16433430022E+02  0.91750419738E+03  0.91788358717E+03  0.00000000000E+00 0. -1.
          4    1    3    3  502    0  0.54461346307E+02  0.36857491866E+03  0.52363293638E+02  0.37623851933E+03  0.00000000000E+00 0.  1.
</event>
<event>
 7    1  0.9444153E-006  0.1267199E+04  0.7818608E-02  0.8836133E-01
         -4   -1    0    0    0  501 -0.00000000000E+00  0.00000000000E+00  0.16237847061E+04  0.16237847061E+04  0.00000000000E+00 0. -1.
          4   -1    0    0  501    0  0.00000000000E+00 -0.00000000000E+00 -0.15395513551E+04  0.15395513551E+04  0.00000000000E+00 0.  1.
   -9000010    2    1    2    0  502 -0.46451188272E+03  0.60397682796E+03  0.10368168642E+04  0.16315829643E+04  0.10032519433E+04 0.  0.
        -13    1    1    2    0    0  0.33796466388E+03  0.17116173700E+03 -0.14612591587E+03  0.40604094461E+03  0.10566000000E+00 0.  1.
         13    1    3    3    0    0 -0.25439752290E+03  0.42241367267E+03  0.12084138481E+04  0.13051495891E+04  0.10566000000E+00 0. -1.
          4    1    1    2  502    0  0.12654721884E+03 -0.77513856496E+03 -0.80645759734E+03  0.11257121523E+04  0.00000000000E+00 0.  1.
         -4    1    3    3    0  502 -0.21011435983E+03  0.18156315529E+03 -0.17159698392E+03  0.32643337522E+03  0.00000000000E+00 0. -1.
</event>
<event>
 7    1  0.4894942E-006  0.1635059E+04  0.7818608E-02  0.8684520E-01
          4   -1    0    0  501    0 -0.00000000000E+00  0.00000000000E+00  0.24121977252E+04  0.24121977252E+04  0.00000000000E+00 0.  1.
          2   -1    0    0  502    0  0.00000000000E+00 -0.00000000000E+00 -0.16679721185E+04  0.16679721185E+04  0.00000000000E+00 0.  1.
    9000010    2    1    2  502    0  0.46728947189E+03  0.92602456486E+03  0.96165902596E+03  0.17274452736E+04  0.99166433119E+03 0.  0.
        -13    1    3    3    0    0  0.51023474863E+03  0.71626269563E+03  0.15514764894E+03  0.89299638969E+03  0.10566000000E+00 0.  1.
         13    1    1    2    0    0  0.14550009455E+03  0.30396623610E+03  0.64682951682E+03  0.72935189394E+03  0.10566000000E+00 0. -1.
          2    1    1    2  501    0 -0.61278956644E+03 -0.12299908010E+04 -0.86426293611E+03  0.16233726762E+04  0.00000000000E+00 0.  1.
          4    1    3    3  502    0 -0.42945276733E+02  0.20976186923E+03  0.80651137702E+03  0.83444888390E+03  0.00000000000E+00 0.  1.
</event>
<event>
 7    1  0.4894942E-006  0.9097877E+03  0.7818608E-02  0.9271275E-01
          4   -1    0    0  501    0 -0.00000000000E+00  0.00000000000E+00  0.42910313416E+03  0.42910313416E+03  0.00000000000E+00 0.  1.
          2   -1    0    0  502    0  0.00000000000E+00 -0.00000000000E+00 -0.13139575983E+04  0.13139575983E+04  0.00000000000E+00 0.  1.
    9000010    2    1    2  502    0  0.13626728108E+03  0.18444588185E+03 -0.45577681040E+03  0.10275403199E+04  0.89191790706E+03 0.  0.
        -13    1    3    3    0    0  0.49232381731E+03 -0.42355038398E+02 -0.29690619214E+03  0.57648069219E+03  0.10566000000E+00 0.  1.
         13    1    1    2    0    0 -0.15878538407E+03 -0.79015049372E+02  0.80421332636E+02  0.19474028378E+03  0.10566000000E+00 0. -1.
          2    1    1    2  501    0  0.22518102984E+02 -0.10543083248E+03 -0.50949898637E+03  0.52078012876E+03  0.00000000000E+00 0.  1.
          4    1    3    3  502    0 -0.35605653623E+03  0.22680092025E+03 -0.15887061826E+03  0.45105962773E+03  0.00000000000E+00 0.  1.
</event>
<event>
 7    1  0.4894942E-006  0.1040272E+04  0.7818608E-02  0.9043335E-01
          4   -1    0    0  501    0 -0.00000000000E+00  0.00000000000E+00  0.42583711980E+03  0.42583711980E+03  0.00000000000E+00 0.  1.
          2   -1    0    0  502    0  0.00000000000E+00 -0.00000000000E+00 -0.23094251880E+04  0.23094251880E+04  0.00000000000E+00 0.  1.
    9000010    2    1    2  502    0 -0.34479738856E+02  0.13212087796E+03 -0.12801270990E+04  0.16290748408E+04  0.99825581321E+03 0.  0.
        -13    1    3    3    0    0 -0.39733464007E+03 -0.36390746643E+02 -0.14337606667E+03  0.42397619072E+03  0.10566000000E+00 0.  1.
         13    1    1    2    0    0  0.29291586638E+03 -0.95767397314E+02  0.12486917693E+03  0.33251078430E+03  0.10566000000E+00 0. -1.
          2    1    1    2  501    0 -0.25843612753E+03 -0.36353480646E+02 -0.72833014612E+03  0.77367668268E+03  0.00000000000E+00 0.  1.
          4    1    3    3  502    0  0.36285490121E+03  0.16851162460E+03 -0.11367510324E+04  0.12050986501E+04  0.00000000000E+00 0.  1.
</event>
<event>
 7    1  0.4894942E-006  0.9953059E+03  0.7818608E-02  0.9296871E-01
         -4   -1    0    0    0  502 -0.00000000000E+00  0.00000000000E+00  0.18803102175E+04  0.18803102175E+04  0.00000000000E+00 0. -1.
         -2   -1    0    0    0  501  0.00000000000E+00 -0.00000000000E+00 -0.20895345544E+03  0.20895345544E+03  0.00000000000E+00 0. -1.
   -9000010    2    1    2    0  501 -0.58983533853E+02 -0.11485515804E+03  0.14407694475E+04  0.17514745973E+04  0.98750994907E+03 0.  0.
        -13    1    1    2    0    0  0.77156929335E+02  0.97208912682E+02  0.26641889951E+03  0.29390781825E+03  0.10566000000E+00 0.  1.
         13    1    3    3    0    0  0.46210657564E+03 -0.82951169447E+02  0.60081541915E+03  0.76249758217E+03  0.10566000000E+00 0. -1.
         -2    1    1    2    0  502 -0.18173395482E+02  0.17646245356E+02 -0.35831584903E+02  0.43881257448E+02  0.00000000000E+00 0. -1.
         -4    1    3    3    0  501 -0.52109010949E+03 -0.31903988591E+02  0.83995402831E+03  0.98897701509E+03  0.00000000000E+00 0. -1.
</event>
<event>
 7    1  0.4894942E-006  0.1148262E+04  0.7818608E-02  0.8815292E-01
          4   -1    0    0  501    0  0.00000000000E+00  0.00000000000E+00  0.15821529588E+04  0.15821529588E+04  0.00000000000E+00 0.  1.
          4   -1    0    0  502    0 -0.00000000000E+00 -0.00000000000E+00 -0.16456299302E+04  0.16456299302E+04  0.00000000000E+00 0.  1.
    9000010    2    1    2  501    0  0.21889876841E+03  0.51393210041E+03  0.97509508324E+03  0.15074421522E+04  0.10047529777E+04 0.  0.
        -13    1    3    3    0    0  0.27366294513E+03  0.26754234271E+03 -0.10612194470E+03  0.39715512208E+03  0.10566000000E+00 0.  1.
         13    1    1    2    0    0 -0.23430228487E+03 -0.50393939085E+03 -0.13231749775E+04  0.14351461607E+04  0.10566000000E+00 0. -1.
          4    1    3    3  501    0 -0.54764176719E+02  0.24638975770E+03  0.10812170279E+04  0.11102870301E+04  0.00000000000E+00 0.  1.
          4    1    1    2  502    0  0.15403516458E+02 -0.99927095629E+01  0.28460292289E+03  0.28519457617E+03  0.00000000000E+00 0.  1.
</event>
<event>
 7    1  0.4894942E-006  0.1042457E+04  0.7818608E-02  0.9048376E-01
          2   -1    0    0  501    0  0.00000000000E+00  0.00000000000E+00  0.17775210505E+04  0.17775210505E+04  0.00000000000E+00 0. -1.
         -4   -1    0    0    0  501 -0.00000000000E+00 -0.00000000000E+00 -0.45746195030E+03  0.45746195030E+03  0.00000000000E+00 0. -1.
   -9000010    2    1    2    0  502 -0.13625572423E+03 -0.29498046496E+03  0.47758153708E+03  0.11572154619E+04  0.10027384522E+04 0.  0.
        -13    1    1    2    0    0  0.14243785773E+03  0.23788328084E+03  0.48210895319E+02  0.28142725562E+03  0.10566000000E+00 0.  1.
         13    1    3    3    0    0 -0.24570351029E+03  0.31397983504E+03  0.33862128774E+03  0.52308502125E+03  0.10566000000E+00 0. -1.
          2    1    1    2  502    0 -0.61821334966E+01  0.57097184123E+02  0.79426666783E+03  0.79634028332E+03  0.00000000000E+00 0. -1.
         -4    1    3    3    0  502  0.10944778606E+03 -0.60896030000E+03  0.13896024934E+03  0.63413044064E+03  0.00000000000E+00 0. -1.
</event>
<event>
 7    1  0.4894942E-006  0.1064651E+04  0.7818608E-02  0.8943092E-01
          2   -1    0    0  502    0  0.00000000000E+00  0.00000000000E+00  0.17033959707E+04  0.17033959707E+04  0.00000000000E+00 0. -1.
          4   -1    0    0  501    0 -0.00000000000E+00 -0.00000000000E+00 -0.11602349986E+04  0.11602349986E+04  0.00000000000E+00 0.  1.
    9000010    2    1    2  502    0  0.10800518959E+03  0.59925382347E+03 -0.14406534586E+03  0.11649190248E+04  0.98260431741E+03 0.  0.
        -13    1    3    3    0    0 -0.14716628756E+03  0.43273220621E+03  0.35598783759E+03  0.57934655446E+03  0.10566000000E+00 0.  1.
         13    1    1    2    0    0  0.15784515247E+03 -0.35860016569E+03 -0.39636415332E+03  0.55732730436E+03  0.10566000000E+00 0. -1.
          2    1    1    2  501    0 -0.26585034206E+03 -0.24065365778E+03  0.10835904713E+04  0.11413846402E+04  0.00000000000E+00 0. -1.
          4    1    3    3  502    0  0.25517147716E+03  0.16652161726E+03 -0.50005318345E+03  0.58557247036E+03  0.00000000000E+00 0.  1.
</event>
<event>
 7    1  0.4894942E-006  0.1022503E+04  0.7818608E-02  0.9414873E-01
          2   -1    0    0  501    0  0.00000000000E+00  0.00000000000E+00  0.13165466506E+04  0.13165466506E+04  0.00000000000E+00 0. -1.
         -4   -1    0    0    0  501 -0.00000000000E+00 -0.00000000000E+00 -0.87763053332E+03  0.87763053332E+03  0.00000000000E+00 0. -1.
   -9000010    2    1    2    0  502 -0.37186181624E+02  0.11596758250E+03 -0.38599542949E+03  0.10831774396E+04  0.10047136914E+04 0.  0.
        -13    1    1    2    0    0 -0.50973217687E+02  0.53253311209E+02 -0.12336767580E+03  0.14371422571E+03  0.10566000000E+00 0.  1.
         13    1    3    3    0    0 -0.10944938829E+03  0.19604719568E+03  0.30783103676E+03  0.38101657430E+03  0.10566000000E+00 0. -1.
          2    1    1    2  502    0  0.88159399311E+02 -0.16922089371E+03  0.94827922257E+03  0.96728551861E+03  0.00000000000E+00 0. -1.
         -4    1    3    3    0  502  0.72263206668E+02 -0.80079613183E+02 -0.69382646625E+03  0.70216086530E+03  0.00000000000E+00 0. -1.
</event>
<event>
 7    1  0.4894942E-006  0.1010101E+04  0.7818608E-02  0.9197080E-01
          4   -1    0    0  501    0 -0.00000000000E+00  0.00000000000E+00  0.58437602264E+03  0.58437602264E+03  0.00000000000E+00 0.  1.
          2   -1    0    0  502    0  0.00000000000E+00 -0.00000000000E+00 -0.14444321483E+04  0.14444321483E+04  0.00000000000E+00 0. -1.
    9000010    2    1    2  502    0  0.15575700098E+03 -0.68625351839E+02  0.11497098230E+03  0.10159129013E+04  0.99493266808E+03 0.  0.
        -13    1    3    3    0    0 -0.13231296466E+03  0.38105228000E+03 -0.13622058114E+03  0.42575065309E+03  0.10566000000E+00 0.  1.
         13    1    1    2    0    0 -0.15967330471E+03  0.79592157589E+02 -0.40272437819E+03  0.44047407613E+03  0.10566000000E+00 0. -1.
          2    1    1    2  501    0  0.39163037255E+01 -0.10966805750E+02 -0.57230272974E+03  0.57242119346E+03  0.00000000000E+00 0. -1.
          4    1    3    3  502    0  0.28806996564E+03 -0.44967763184E+03  0.25119156344E+03  0.59016224822E+03  0.00000000000E+00 0.  1.
</event>
<event>
 7    1  0.4894942E-006  0.1603823E+04  0.7818608E-02  0.8403503E-01
         -4   -1    0    0    0  501 -0.00000000000E+00  0.00000000000E+00  0.97290251196E+03  0.97290251196E+03  0.00000000000E+00 0. -1.
          2   -1    0    0  501    0  0.00000000000E+00 -0.00000000000E+00 -0.32067324628E+04  0.32067324628E+04  0.00000000000E+00 0.  1.
   -9000010    2    1    2    0  502  0.97609812423E+03  0.79234487066E+03 -0.97420783271E+03  0.18734739238E+04  0.99007358299E+03 0.  0.
        -13    1    1    2    0    0 -0.10380220423E+04 -0.72365141949E+03 -0.24690979547E+03  0.12892344998E+04  0.10566000000E+00 0.  1.
         13    1    3    3    0    0 -0.70471022046E+02  0.43113481697E+03 -0.66700219699E+02  0.44191891318E+03  0.10566000000E+00 0. -1.
          2    1    1    2  502    0  0.61923918111E+02 -0.68693451170E+02 -0.10127123227E+04  0.10169265511E+04  0.00000000000E+00 0.  1.
         -4    1    3    3    0  502  0.10465691463E+04  0.36121005369E+03 -0.90750761301E+03  0.14315550106E+04  0.00000000000E+00 0. -1.
</event>
<event>
 7    1  0.4894942E-006  0.1040912E+04  0.7818608E-02  0.9035984E-01
          1   -1    0    0  501    0  0.00000000000E+00  0.00000000000E+00  0.17621062823E+04  0.17621062823E+04  0.00000000000E+00 0.  1.
         -4   -1    0    0    0  501 -0.00000000000E+00 -0.00000000000E+00 -0.47775235321E+03  0.47775235321E+03  0.00000000000E+00 0. -1.
   -9000010    2    1    2    0  502  0.15546879692E+03 -0.29485177515E+03  0.59833726746E+03  0.12091718814E+04  0.99648433853E+03 0.  0.
        -13    1    1    2    0    0 -0.29556138103E+03  0.92695945938E+02  0.84615345569E+01  0.30987203340E+03  0.10566000000E+00 0.  1.
         13    1    3    3    0    0  0.32520798651E+03 -0.60399405111E+03  0.47973650283E+03  0.83708791150E+03  0.10566000000E+00 0. -1.
          1    1    1    2  502    0  0.14009258411E+03  0.20215582922E+03  0.67755512709E+03  0.72081472075E+03  0.00000000000E+00 0.  1.
         -4    1    3    3    0  502 -0.16973918959E+03  0.30914227595E+03  0.11860076463E+03  0.37208396987E+03  0.00000000000E+00 0. -1.
</event>
<event>
 7    1  0.4894942E-006  0.9994945E+03  0.7818608E-02  0.9263071E-01
          4   -1    0    0  501    0 -0.00000000000E+00  0.00000000000E+00  0.96854180755E+03  0.96854180755E+03  0.00000000000E+00 0.  1.
          2   -1    0    0  502    0  0.00000000000E+00 -0.00000000000E+00 -0.12096260527E+04  0.12096260527E+04  0.00000000000E+00 0.  1.
    9000010    2    1    2  502    0  0.31114853388E+02 -0.12628822628E+03 -0.41946898489E+03  0.10827573206E+04  0.98969305131E+03 0.  0.
        -13    1    3    3    0    0 -0.56845991563E+01  0.32734207301E+03 -0.52205391183E+03  0.61621866691E+03  0.10566000000E+00 0.  1.
         13    1    1    2    0    0 -0.22773629255E+02  0.13786481102E+03  0.62911914215E+03  0.64445034758E+03  0.10566000000E+00 0. -1.
          2    1    1    2  501    0 -0.83412241327E+01 -0.11576584744E+02 -0.45073440245E+03  0.45096019213E+03  0.00000000000E+00 0.  1.
          4    1    3    3  502    0  0.36799452544E+02 -0.45363029929E+03  0.10258492694E+03  0.46653865368E+03  0.00000000000E+00 0.  1.
</event>
<event>
 7    1  0.4894942E-006  0.9993278E+03  0.7818608E-02  0.9512206E-01
         -2   -1    0    0    0  501  0.00000000000E+00  0.00000000000E+00  0.42989926335E+03  0.42989926335E+03  0.00000000000E+00 0. -1.
         -4   -1    0    0    0  502 -0.00000000000E+00 -0.00000000000E+00 -0.11825858807E+04  0.11825858807E+04  0.00000000000E+00 0. -1.
   -9000010    2    1    2    0  501 -0.16772325118E+02  0.93829378700E+02 -0.56732651064E+03  0.11500344501E+04  0.99580851749E+03 0.  0.
        -13    1    1    2    0    0  0.52330767474E+02 -0.17859936320E+02 -0.30852236951E+03  0.31343827176E+03  0.10566000000E+00 0.  1.
         13    1    3    3    0    0 -0.11059945995E+03 -0.21431904872E+03  0.20289527497E+03  0.31516884198E+03  0.10566000000E+00 0. -1.
         -2    1    1    2    0  502 -0.35558442356E+02 -0.75969442379E+02  0.12316226279E+03  0.14901242221E+03  0.00000000000E+00 0. -1.
         -4    1    3    3    0  501  0.93827134833E+02  0.30814842742E+03 -0.77022178561E+03  0.83486560810E+03  0.00000000000E+00 0. -1.
</event>
<event>
 7    1  0.4894942E-006  0.9789670E+03  0.7818608E-02  0.9269379E-01
         -2   -1    0    0    0  501  0.00000000000E+00  0.00000000000E+00  0.17544671850E+03  0.17544671850E+03  0.00000000000E+00 0. -1.
         -4   -1    0    0    0  502 -0.00000000000E+00 -0.00000000000E+00 -0.23337296224E+04  0.23337296224E+04  0.00000000000E+00 0. -1.
   -9000010    2    1    2    0  501 -0.92822079425E+02  0.11029743524E+03 -0.18369707217E+04  0.20814839958E+04  0.96815945473E+03 0.  0.
        -13    1    1    2    0    0  0.83831161260E+02 -0.11858195665E+03 -0.35943168484E+03  0.38766027817E+03  0.10566000000E+00 0.  1.
         13    1    3    3    0    0 -0.44624572249E+03 -0.21154188272E+03 -0.10573014926E+04  0.11669497292E+04  0.10566000000E+00 0. -1.
         -2    1    1    2    0  502  0.89909181651E+01  0.82845214086E+01  0.38119502614E+02  0.40032066946E+02  0.00000000000E+00 0. -1.
         -4    1    3    3    0  501  0.35342364306E+03  0.32183931796E+03 -0.77966922906E+03  0.91453426661E+03  0.00000000000E+00 0. -1.
</event>
<event>
 7    1  0.4894942E-006  0.1086240E+04  0.7818608E-02  0.8868219E-01
         -4   -1    0    0    0  501 -0.00000000000E+00  0.00000000000E+00  0.14236204303E+04  0.14236204303E+04  0.00000000000E+00 0. -1.
          1   -1    0    0  501    0  0.00000000000E+00 -0.00000000000E+00 -0.17637330238E+04  0.17637330238E+04  0.00000000000E+00 0. -1.
   -9000010    2    1    2    0  502  0.54458232421E+03 -0.23248054758E+03  0.67656651201E+03  0.13083236169E+04  0.95044796198E+03 0.  0.
        -13    1    1    2    0    0 -0.49704386220E+03  0.66296121855E+02  0.27766926493E+03  0.57319107510E+03  0.10566000000E+00 0.  1.
         13    1    3    3    0    0  0.50878859719E+02 -0.19274908744E+03  0.77766628291E+03  0.80281114081E+03  0.10566000000E+00 0. -1.
          1    1    1    2  502    0 -0.47538462007E+02  0.16618442573E+03 -0.12943483704E+04  0.13058387622E+04  0.00000000000E+00 0. -1.
         -4    1    3    3    0  502  0.49370346449E+03 -0.39731460141E+02 -0.10109977089E+03  0.50551247606E+03  0.00000000000E+00 0. -1.
</event>
<event>
 7    1  0.4894942E-006  0.1017268E+04  0.7818608E-02  0.9261711E-01
          4   -1    0    0  501    0  0.00000000000E+00  0.00000000000E+00  0.43887017335E+03  0.43887017335E+03  0.00000000000E+00 0. -1.
         -4   -1    0    0    0  501 -0.00000000000E+00 -0.00000000000E+00 -0.90305543140E+03  0.90305543140E+03  0.00000000000E+00 0. -1.
   -9000010    2    1    2    0  502  0.13005385475E+03 -0.43978092512E+01 -0.22908349803E+03  0.10423637155E+04  0.10085184780E+04 0.  0.
        -13    1    1    2    0    0 -0.13291458073E+03 -0.99293854822E+01 -0.24703507643E+03  0.28069773532E+03  0.10566000000E+00 0.  1.
         13    1    3    3    0    0 -0.90017212332E+02 -0.46074502675E+03 -0.25654363324E+03  0.53498011655E+03  0.10566000000E+00 0. -1.
          4    1    1    2  502    0  0.28607259709E+01  0.14327194733E+02  0.11933316398E+02  0.18864153897E+02  0.00000000000E+00 0. -1.
         -4    1    3    3    0  502  0.22007106709E+03  0.45634721749E+03  0.27460135214E+02  0.50738359898E+03  0.00000000000E+00 0. -1.
</event>
<event>
 7    1  0.4894942E-006  0.1368741E+04  0.7818608E-02  0.8580525E-01
          2   -1    0    0  502    0  0.00000000000E+00  0.00000000000E+00  0.92211264384E+03  0.92211264384E+03  0.00000000000E+00 0. -1.
          4   -1    0    0  501    0 -0.00000000000E+00 -0.00000000000E+00 -0.18564868887E+04  0.18564868887E+04  0.00000000000E+00 0.  1.
    9000010    2    1    2  502    0 -0.87945066650E+03 -0.45797500764E+03 -0.26273099622E+03  0.14496983702E+04  0.10244135911E+04 0.  0.
        -13    1    3    3    0    0  0.10280620156E+03 -0.42074236734E+03 -0.35268565576E+01  0.43313474189E+03  0.10566000000E+00 0.  1.
         13    1    1    2    0    0  0.78001471272E+03  0.40692164219E+03 -0.77813124820E+03  0.11745196574E+04  0.10566000000E+00 0. -1.
          2    1    1    2  501    0  0.99435953775E+02  0.51053365448E+02  0.10648799957E+03  0.15438150497E+03  0.00000000000E+00 0. -1.
          4    1    3    3  502    0 -0.98225686806E+03 -0.37232640302E+02 -0.25920413966E+03  0.10165636283E+04  0.00000000000E+00 0.  1.
</event>
<event>
 7    1  0.4894942E-006  0.9894810E+03  0.7818608E-02  0.9378250E-01
          1   -1    0    0  501    0  0.00000000000E+00  0.00000000000E+00  0.36145309950E+03  0.36145309950E+03  0.00000000000E+00 0. -1.
         -4   -1    0    0    0  501 -0.00000000000E+00 -0.00000000000E+00 -0.18145766567E+04  0.18145766567E+04  0.00000000000E+00 0. -1.
   -9000010    2    1    2    0  502 -0.40082668591E+01 -0.11458851633E+03 -0.12678986072E+04  0.16096898235E+04  0.98508266422E+03 0.  0.
        -13    1    1    2    0    0 -0.32889988204E+01  0.92426633507E+02 -0.36934455472E+03  0.38074783172E+03  0.10566000000E+00 0.  1.
         13    1    3    3    0    0  0.37017343150E+03 -0.22644363864E+03 -0.11038681157E+04  0.11860986126E+04  0.10566000000E+00 0. -1.
          1    1    1    2  502    0  0.72972656795E+01  0.22161882824E+02  0.18411960470E+03  0.18559210105E+03  0.00000000000E+00 0. -1.
         -4    1    3    3    0  502 -0.37418169836E+03  0.11185512231E+03 -0.16403049155E+03  0.42359121088E+03  0.00000000000E+00 0. -1.
</event>
<event>
 7    1  0.4894942E-006  0.1003735E+04  0.7818608E-02  0.9310456E-01
          4   -1    0    0  501    0 -0.00000000000E+00  0.00000000000E+00  0.16487768276E+04  0.16487768276E+04  0.00000000000E+00 0.  1.
          2   -1    0    0  502    0  0.00000000000E+00 -0.00000000000E+00 -0.92260414264E+03  0.92260414264E+03  0.00000000000E+00 0.  1.
    9000010    2    1    2  502    0  0.12022616909E+03  0.19887004191E+02  0.12697939657E+04  0.16190896948E+04  0.99710826894E+03 0.  0.
        -13    1    3    3    0    0 -0.31522950311E+03  0.34013106095E+03  0.56844055681E+03  0.73360988001E+03  0.10566000000E+00 0.  1.
         13    1    1    2    0    0 -0.11452762000E+03 -0.43051829979E+01  0.18816299898E+03  0.22031894084E+03  0.10566000000E+00 0. -1.
          2    1    1    2  501    0 -0.56985490906E+01 -0.15581821193E+02 -0.73178427967E+03  0.73197233458E+03  0.00000000000E+00 0.  1.
          4    1    3    3  502    0  0.43545567220E+03 -0.32024405676E+03  0.70135340885E+03  0.88547981482E+03  0.00000000000E+00 0.  1.
</event>
<event>
 7    1  0.4894942E-006  0.1002401E+04  0.7818608E-02  0.9396186E-01
          2   -1    0    0  502    0  0.00000000000E+00  0.00000000000E+00  0.25065317566E+04  0.25065317566E+04  0.00000000000E+00 0.  1.
          4   -1    0    0  501    0 -0.00000000000E+00 -0.00000000000E+00 -0.27555551979E+03  0.27555551979E+03  0.00000000000E+00 0.  1.
    9000010    2    1    2  502    0  0.81721345608E+02  0.55489272186E+02  0.86268011558E+03  0.13235375632E+04  0.99888801265E+03 0.  0.
        -13    1    3    3    0    0  0.49706326723E+03  0.11178139664E+03  0.21704528646E+03  0.55378302593E+03  0.10566000000E+00 0.  1.
         13    1    1    2    0    0 -0.83925240649E+02  0.13633256960E+01 -0.49908822730E+01  0.84084628469E+02  0.10566000000E+00 0. -1.
          2    1    1    2  501    0  0.22038950411E+01 -0.56852597882E+02  0.13732870035E+04  0.13744650847E+04  0.00000000000E+00 0.  1.
          4    1    3    3  502    0 -0.41534192162E+03 -0.56292124457E+02  0.64563482911E+03  0.76975453730E+03  0.00000000000E+00 0.  1.
</event>
<event>
 7    1  0.4894942E-006  0.1109524E+04  0.7818608E-02  0.8872537E-01
          2   -1    0    0  501    0  0.00000000000E+00  0.00000000000E+00  0.96275143451E+03  0.96275143451E+03  0.00000000000E+00 0. -1.
         -4   -1    0    0    0  501 -0.00000000000E+00 -0.00000000000E+00 -0.17617811429E+04  0.17617811429E+04  0.00000000000E+00 0. -1.
   -9000010    2    1    2    0  502 -0.46326759797E+03  0.11113096931E+03 -0.11909779862E+04  0.16252778692E+04  0.99806444123E+03 0.  0.
        -13    1    1    2    0    0  0.47130225814E+03 -0.13934231968E+03 -0.18235012913E+03  0.52420767005E+03  0.10566000000E+00 0.  1.
         13    1    3    3    0    0 -0.23840864889E+03 -0.40882312734E+03 -0.82421296129E+03  0.95042203786E+03  0.10566000000E+00 0. -1.
          2    1    1    2  502    0 -0.80346601674E+01  0.28211350377E+02  0.57429840686E+03  0.57504703823E+03  0.00000000000E+00 0. -1.
         -4    1    3    3    0  502 -0.22485894908E+03  0.51995409665E+03 -0.36676502487E+03  0.67485583132E+03  0.00000000000E+00 0. -1.
</event>
<event>
 7    1  0.4894942E-006  0.1090403E+04  0.7818608E-02  0.8979150E-01
          2   -1    0    0  502    0  0.00000000000E+00  0.00000000000E+00  0.68782742284E+03  0.68782742284E+03  0.00000000000E+00 0.  1.
          4   -1    0    0  501    0 -0.00000000000E+00 -0.00000000000E+00 -0.12180784876E+04  0.12180784876E+04  0.00000000000E+00 0.  1.
    9000010    2    1    2  502    0 -0.15747478143E+03  0.26529932609E+03 -0.50384027291E+03  0.11956589805E+04  0.10395014852E+04 0.  0.
        -13    1    3    3    0    0 -0.48243770523E+03 -0.12942376155E+03 -0.32965162761E+02  0.50058302269E+03  0.10566000000E+00 0.  1.
         13    1    1    2    0    0  0.23582668492E+03 -0.23882191664E+03 -0.28402520294E+03  0.43968222645E+03  0.10566000000E+00 0. -1.
          2    1    1    2  501    0 -0.78351903490E+02 -0.26477409454E+02  0.25761441107E+03  0.27056470350E+03  0.00000000000E+00 0.  1.
          4    1    3    3  502    0  0.32496292380E+03  0.39472308764E+03 -0.47087511015E+03  0.69507595781E+03  0.00000000000E+00 0.  1.
</event>
<event>
 7    1  0.4894942E-006  0.1058577E+04  0.7818608E-02  0.8964429E-01
          2   -1    0    0  501    0  0.00000000000E+00  0.00000000000E+00  0.13285322103E+04  0.13285322103E+04  0.00000000000E+00 0. -1.
         -4   -1    0    0    0  501 -0.00000000000E+00 -0.00000000000E+00 -0.46029676138E+03  0.46029676138E+03  0.00000000000E+00 0. -1.
   -9000010    2    1    2    0  502 -0.32677774205E+03 -0.24033438288E+03  0.58617554872E+03  0.12176734880E+04  0.98720952249E+03 0.  0.
        -13    1    1    2    0    0  0.23754196734E+03  0.29381067644E+03  0.15874134199E+03  0.40981669641E+03  0.10566000000E+00 0.  1.
         13    1    3    3    0    0 -0.29040769019E+03 -0.52598627874E+03  0.68691153697E+03  0.91260378190E+03  0.10566000000E+00 0. -1.
          2    1    1    2  502    0  0.89235774718E+02 -0.53476293561E+02  0.12331855825E+03  0.16133878725E+03  0.00000000000E+00 0. -1.
         -4    1    3    3    0  502 -0.36370051861E+02  0.28565189586E+03 -0.10073598825E+03  0.30506970615E+03  0.00000000000E+00 0. -1.
</event>
<event>
 7    1  0.4894942E-006  0.1278193E+04  0.7818608E-02  0.8724942E-01
          4   -1    0    0  501    0 -0.00000000000E+00  0.00000000000E+00  0.20406564901E+04  0.20406564901E+04  0.00000000000E+00 0.  1.
          2   -1    0    0  502    0  0.00000000000E+00 -0.00000000000E+00 -0.16595431611E+04  0.16595431611E+04  0.00000000000E+00 0. -1.
    9000010    2    1    2  502    0  0.56556064615E+03  0.16501676614E+03  0.12782634282E+04  0.18066690409E+04  0.11326986598E+04 0.  0.
        -13    1    3    3    0    0  0.37846530587E+03  0.50851207371E+03  0.12654224014E+04  0.14153142343E+04  0.10566000000E+00 0.  1.
         13    1    1    2    0    0 -0.57542822793E+03 -0.14920953749E+03  0.32076118482E+03  0.67547678008E+03  0.10566000000E+00 0. -1.
          2    1    1    2  501    0  0.98675817807E+01 -0.15807228656E+02 -0.12179112839E+04  0.12180538302E+04  0.00000000000E+00 0. -1.
          4    1    3    3  502    0  0.18709534029E+03 -0.34349530757E+03  0.12841026837E+02  0.39135480660E+03  0.00000000000E+00 0.  1.
</event>
<event>
 7    1  0.4894942E-006  0.1019922E+04  0.7818608E-02  0.9120083E-01
          2   -1    0    0  502    0  0.00000000000E+00  0.00000000000E+00  0.59724277471E+03  0.59724277471E+03  0.00000000000E+00 0. -1.
          4   -1    0    0  501    0 -0.00000000000E+00 -0.00000000000E+00 -0.16168394248E+04  0.16168394248E+04  0.00000000000E+00 0.  1.
    9000010    2    1    2  502    0 -0.20657925806E+03  0.96159433048E+02 -0.12132196606E+04  0.15848246079E+04  0.99390415350E+03 0.  0.
        -13    1    3    3    0    0 -0.27478803869E+03  0.24247604195E+02 -0.13710104454E+04  0.13984870629E+04  0.10566000000E+00 0.  1.
         13    1    1    2    0    0  0.21831594213E+03 -0.71235867251E+02 -0.15659741901E+03  0.27795532407E+03  0.10566000000E+00 0. -1.
          2    1    1    2  501    0 -0.11736684072E+02 -0.24923565798E+02  0.35022042958E+03  0.35130226755E+03  0.00000000000E+00 0. -1.
          4    1    3    3  502    0  0.68208780629E+02  0.71911828853E+02  0.15779078481E+03  0.18633754494E+03  0.00000000000E+00 0.  1.
</event>
<event>
 7    1  0.4894942E-006  0.1046493E+04  0.7818608E-02  0.9011848E-01
          2   -1    0    0  501    0  0.00000000000E+00  0.00000000000E+00  0.99503751735E+03  0.99503751735E+03  0.00000000000E+00 0.  1.
         -4   -1    0    0    0  501 -0.00000000000E+00 -0.00000000000E+00 -0.35346503622E+04  0.35346503622E+04  0.00000000000E+00 0. -1.
   -9000010    2    1    2    0  502 -0.67307327469E+02 -0.30503966560E+03 -0.24056594432E+04  0.26217302693E+04  0.99433031452E+03 0.  0.
        -13    1    1    2    0    0  0.70397629838E+02  0.32209346079E+03 -0.99424871751E+03  0.10474877313E+04  0.10566000000E+00 0.  1.
         13    1    3    3    0    0 -0.12410702396E+03  0.30305921813E+03 -0.14579033623E+04  0.14942321332E+04  0.10566000000E+00 0. -1.
          2    1    1    2  502    0 -0.30903023696E+01 -0.17053795195E+02  0.86029531592E+03  0.86046987890E+03  0.00000000000E+00 0.  1.
         -4    1    3    3    0  502  0.56799696493E+02 -0.60809888373E+03 -0.94775608099E+03  0.11274981361E+04  0.00000000000E+00 0. -1.
</event>
<event>
 7    1  0.4894942E-006  0.1036957E+04  0.7818608E-02  0.9043184E-01
         -4   -1    0    0    0  501 -0.00000000000E+00  0.00000000000E+00  0.36467052817E+03  0.36467052817E+03  0.00000000000E+00 0. -1.
          1   -1    0    0  501    0  0.00000000000E+00 -0.00000000000E+00 -0.18953134521E+04  0.18953134521E+04  0.00000000000E+00 0. -1.
   -9000010    2    1    2    0  502  0.13274232449E+03  0.23976826693E+03 -0.59421376596E+03  0.11899854956E+04  0.99391455042E+03 0.  0.
        -13    1    1    2    0    0  0.36161241717E+01 -0.31992267436E+03 -0.40847517836E+03  0.51885988130E+03  0.10566000000E+00 0.  1.
         13    1    3    3    0    0  0.50303904781E+03  0.12756128831E+03 -0.61229858356E+03  0.80263922935E+03  0.10566000000E+00 0. -1.
          1    1    1    2  502    0 -0.13635844866E+03  0.80154407437E+02 -0.52795397964E+03  0.55113860341E+03  0.00000000000E+00 0. -1.
         -4    1    3    3    0  502 -0.37029672331E+03  0.11220697862E+03  0.18084817599E+02  0.38734626625E+03  0.00000000000E+00 0. -1.
</event>
<event>
 7    1  0.4894942E-006  0.1072043E+04  0.7818608E-02  0.8949065E-01
          2   -1    0    0  501    0  0.00000000000E+00  0.00000000000E+00  0.14205803688E+04  0.14205803688E+04  0.00000000000E+00 0.  1.
         -4   -1    0    0    0  501 -0.00000000000E+00 -0.00000000000E+00 -0.65129013588E+03  0.65129013588E+03  0.00000000000E+00 0. -1.
   -9000010    2    1    2    0  502  0.27462256187E+03  0.27869383970E+03  0.39958885477E+03  0.11439364977E+04  0.99791364861E+03 0.  0.
        -13    1    1    2    0    0 -0.28207080235E+03 -0.27195570252E+03 -0.14153383380E+03  0.41660014276E+03  0.10566000000E+00 0.  1.
         13    1    3    3    0    0 -0.14840794713E+03  0.50947797072E+03  0.39584864424E+03  0.66203389772E+03  0.10566000000E+00 0. -1.
          2    1    1    2  502    0  0.74482404862E+01 -0.67381371760E+01  0.51123521194E+03  0.51133386422E+03  0.00000000000E+00 0.  1.
         -4    1    3    3    0  502  0.42303050899E+03 -0.23078413102E+03  0.37402105333E+01  0.48190259996E+03  0.00000000000E+00 0. -1.
</event>
<event>
 7    1  0.4894942E-006  0.1038296E+04  0.7818608E-02  0.9059595E-01
         -4   -1    0    0    0  501 -0.00000000000E+00  0.00000000000E+00  0.44535669688E+03  0.44535669688E+03  0.00000000000E+00 0. -1.
          2   -1    0    0  501    0  0.00000000000E+00 -0.00000000000E+00 -0.25138196416E+04  0.25138196416E+04  0.00000000000E+00 0. -1.
   -9000010    2    1    2    0  502 -0.87642219966E+02  0.19858849767E+02 -0.46214897986E+03  0.11061864932E+04  0.10009951776E+04 0.  0.
        -13    1    1    2    0    0  0.24853221714E+03  0.28857342377E+03 -0.25674010637E+03  0.45930205447E+03  0.10566000000E+00 0.  1.
         13    1    3    3    0    0  0.21930752670E+03  0.11765610326E+03 -0.67543510943E+03  0.71982730436E+03  0.10566000000E+00 0. -1.
          2    1    1    2  502    0 -0.16088999717E+03 -0.30843227354E+03 -0.13495738585E+04  0.13936877908E+04  0.00000000000E+00 0. -1.
         -4    1    3    3    0  502 -0.30694974666E+03 -0.97797253495E+02  0.21328612957E+03  0.38635918888E+03  0.00000000000E+00 0. -1.
</event>
<event>
 7    1  0.4894942E-006  0.9964404E+03  0.7818608E-02  0.9420990E-01
         -2   -1    0    0    0  501  0.00000000000E+00  0.00000000000E+00  0.37123800613E+03  0.37123800613E+03  0.00000000000E+00 0. -1.
         -4   -1    0    0    0  502 -0.00000000000E+00 -0.00000000000E+00 -0.13685999642E+04  0.13685999642E+04  0.00000000000E+00 0. -1.
   -9000010    2    1    2    0  501  0.86443589821E+02 -0.59761442075E+02 -0.11587033520E+04  0.15298583635E+04  0.99339278751E+03 0.  0.
        -13    1    1    2    0    0 -0.34387578215E+02  0.61672689476E+02  0.48408809074E+02  0.85612207790E+02  0.10566000000E+00 0.  1.
         13    1    3    3    0    0  0.15593047292E+03 -0.49481140645E+03 -0.83544015211E+03  0.98341898459E+03  0.10566000000E+00 0. -1.
         -2    1    1    2    0  502 -0.52056011606E+02 -0.19112474012E+01  0.11293258487E+03  0.12436739901E+03  0.00000000000E+00 0. -1.
         -4    1    3    3    0  501 -0.69486883097E+02  0.43504996438E+03 -0.32326319989E+03  0.54643937892E+03  0.00000000000E+00 0. -1.
</event>
<event>
 7    1  0.4894942E-006  0.1070759E+04  0.7818608E-02  0.8960214E-01
          4   -1    0    0  501    0 -0.00000000000E+00  0.00000000000E+00  0.92305054819E+03  0.92305054819E+03  0.00000000000E+00 0.  1.
          2   -1    0    0  502    0  0.00000000000E+00 -0.00000000000E+00 -0.11734686186E+04  0.11734686186E+04  0.00000000000E+00 0.  1.
    9000010    2    1    2  502    0 -0.18518580750E+03 -0.29727535630E+03  0.41049149460E+03  0.11386878697E+04  0.10027164986E+04 0.  0.
        -13    1    3    3    0    0 -0.44732837655E+03 -0.45518868376E+03  0.14683997396E+02  0.63836905097E+03  0.10566000000E+00 0.  1.
         13    1    1    2    0    0  0.30005598389E+03  0.26768929473E+03 -0.14341831166E+03  0.42691916713E+03  0.10566000000E+00 0. -1.
          2    1    1    2  501    0 -0.11487017640E+03  0.29586061571E+02 -0.51749125338E+03  0.53091213000E+03  0.00000000000E+00 0.  1.
          4    1    3    3  502    0  0.26214256906E+03  0.15791332746E+03  0.39580749721E+03  0.50031881870E+03  0.00000000000E+00 0.  1.
</event>
<event>
 7    1  0.4894942E-006  0.1001132E+04  0.7818608E-02  0.9196487E-01
          2   -1    0    0  502    0  0.00000000000E+00  0.00000000000E+00  0.80172037974E+03  0.80172037974E+03  0.00000000000E+00 0. -1.
          4   -1    0    0  501    0 -0.00000000000E+00 -0.00000000000E+00 -0.78254605652E+03  0.78254605652E+03  0.00000000000E+00 0.  1.
    9000010    2    1    2  502    0  0.31523313461E+02  0.19719044201E+03 -0.25104185602E+03  0.10358238840E+04  0.98490167804E+03 0.  0.
        -13    1    3    3    0    0 -0.46621166696E+03  0.11380320833E+03 -0.22620737819E+03  0.53054149484E+03  0.10566000000E+00 0.  1.
         13    1    1    2    0    0 -0.53069659141E+01 -0.17675808413E+03 -0.81814201944E+02  0.19484650111E+03  0.10566000000E+00 0. -1.
          2    1    1    2  501    0 -0.26216347547E+02 -0.20432357880E+02  0.35203038118E+03  0.35359605117E+03  0.00000000000E+00 0. -1.
          4    1    3    3  502    0  0.49773498042E+03  0.83387233682E+02 -0.24834477833E+02  0.50528238913E+03  0.00000000000E+00 0.  1.
</event>
<event>
 7    1  0.4894942E-006  0.1022184E+04  0.7818608E-02  0.9612152E-01
          2   -1    0    0  501    0  0.00000000000E+00  0.00000000000E+00  0.73372289871E+03  0.73372289871E+03  0.00000000000E+00 0.  1.
         -4   -1    0    0    0  501 -0.00000000000E+00 -0.00000000000E+00 -0.29393239178E+04  0.29393239178E+04  0.00000000000E+00 0. -1.
   -9000010    2    1    2    0  502  0.14094532326E+02 -0.20643134849E+02 -0.27878789157E+04  0.29692508328E+04  0.10215463108E+04 0.  0.
        -13    1    1    2    0    0  0.41204583404E+01  0.36941081139E+02 -0.54817806738E+02  0.66231599348E+02  0.10566000000E+00 0.  1.
         13    1    3    3    0    0 -0.18237158789E+03  0.11122231480E+02 -0.86602976959E+01  0.18291558715E+03  0.10566000000E+00 0. -1.
          2    1    1    2  502    0 -0.18214990667E+02 -0.16297946291E+02  0.63709570333E+03  0.63756438431E+03  0.00000000000E+00 0.  1.
         -4    1    3    3    0  502  0.19646612022E+03 -0.31765366329E+02 -0.27792186180E+04  0.27863352457E+04  0.00000000000E+00 0. -1.
</event>
<event>
 7    1  0.4894942E-006  0.9280278E+03  0.7818608E-02  0.9371771E-01
          1   -1    0    0  501    0  0.00000000000E+00  0.00000000000E+00  0.16758636350E+04  0.16758636350E+04  0.00000000000E+00 0.  1.
         -4   -1    0    0    0  501 -0.00000000000E+00 -0.00000000000E+00 -0.13556592158E+04  0.13556592158E+04  0.00000000000E+00 0. -1.
   -9000010    2    1    2    0  502 -0.31118738405E+02  0.76846272282E+02 -0.72977796593E+03  0.11778344237E+04  0.92078462444E+03 0.  0.
        -13    1    1    2    0    0  0.70817314040E+02 -0.93231204282E+02 -0.39299928128E+03  0.41006779399E+03  0.10566000000E+00 0.  1.
         13    1    3    3    0    0  0.15942458123E+03 -0.72420265415E+02  0.17121277234E+03  0.24489735915E+03  0.10566000000E+00 0. -1.
          1    1    1    2  502    0 -0.39698575635E+02  0.16384932000E+02  0.14429816663E+04  0.14436206331E+04  0.00000000000E+00 0.  1.
         -4    1    3    3    0  502 -0.19054331964E+03  0.14926653770E+03 -0.90099073826E+03  0.93293706453E+03  0.00000000000E+00 0. -1.
</event>
<event>
 7    1  0.4894942E-006  0.1087039E+04  0.7818608E-02  0.8947143E-01
         -4   -1    0    0    0  501 -0.00000000000E+00  0.00000000000E+00  0.20215611127E+04  0.20215611127E+04  0.00000000000E+00 0. -1.
          2   -1    0    0  501    0  0.00000000000E+00 -0.00000000000E+00 -0.49463017115E+03  0.49463017115E+03  0.00000000000E+00 0. -1.
   -9000010    2    1    2    0  502  0.55161137792E+01  0.38636964792E+03  0.77784524215E+03  0.13388781077E+04  0.10189403487E+04 0.  0.
        -13    1    1    2    0    0  0.51800076539E+01 -0.37766470795E+03  0.92589362644E+03  0.99996824087E+03  0.10566000000E+00 0.  1.
         13    1    3    3    0    0  0.46785452496E+03  0.15062767615E+03  0.12925581508E+03  0.50821612552E+03  0.10566000000E+00 0. -1.
          2    1    1    2  502    0 -0.10696121433E+02 -0.87049399780E+01 -0.17680792707E+03  0.17734493527E+03  0.00000000000E+00 0. -1.
         -4    1    3    3    0  502 -0.46233841118E+03  0.23574197177E+03  0.64858942706E+03  0.83066198216E+03  0.00000000000E+00 0. -1.
</event>
<event>
 7    1  0.4894942E-006  0.1168795E+04  0.7818608E-02  0.8782585E-01
          4   -1    0    0  501    0 -0.00000000000E+00  0.00000000000E+00  0.78663769540E+03  0.78663769540E+03  0.00000000000E+00 0.  1.
          2   -1    0    0  502    0  0.00000000000E+00 -0.00000000000E+00 -0.20387919890E+04  0.20387919890E+04  0.00000000000E+00 0.  1.
    9000010    2    1    2  502    0 -0.13174195845E+03  0.68569933577E+03 -0.38750426455E+03  0.12795748899E+04  0.99980639183E+03 0.  0.
        -13    1    3    3    0    0  0.39972728909E+03  0.17967837197E+03  0.22753953176E+02  0.43884390909E+03  0.10566000000E+00 0.  1.
         13    1    1    2    0    0  0.42795563043E+03 -0.42506732947E+03 -0.85860031314E+01  0.60324289205E+03  0.10566000000E+00 0. -1.
          2    1    1    2  501    0 -0.29621367197E+03 -0.26063200630E+03 -0.85606402594E+03  0.94261190247E+03  0.00000000000E+00 0.  1.
          4    1    3    3  502    0 -0.53146924754E+03  0.50602096379E+03 -0.41025821773E+03  0.84073098081E+03  0.00000000000E+00 0.  1.
</event>
<event>
 6    1  0.4894942E-006  0.7085354E+03  0.7818608E-02  0.9396729E-01
          2   -1    0    0  501    0  0.00000000000E+00  0.00000000000E+00  0.21868153820E+04  0.21868153820E+04  0.00000000000E+00 0.  1.
         -4   -1    0    0    0  501 -0.00000000000E+00 -0.00000000000E+00 -0.84413267777E+03  0.84413267777E+03  0.00000000000E+00 0. -1.
        -13    1    1    2    0    0 -0.23022265272E+03  0.96148439459E+02 -0.30942779387E+03  0.39748278330E+03  0.10566000000E+00 0.  1.
         13    1    1    2    0    0  0.23987862462E+03  0.30652027973E+03  0.51936212985E+02  0.39267520652E+03  0.10566000000E+00 0. -1.
          2    1    1    2  502    0  0.21238993362E+02 -0.19542414120E+03  0.18805344105E+04  0.18907806216E+04  0.00000000000E+00 0.  1.
         -4    1    1    2    0  502 -0.30894965266E+02 -0.20724457799E+03 -0.28036012545E+03  0.35000944834E+03  0.00000000000E+00 0. -1.
</event>
<event>
 7    1  0.4894942E-006  0.1078552E+04  0.7818608E-02  0.8924687E-01
          4   -1    0    0  501    0 -0.00000000000E+00  0.00000000000E+00  0.41701544609E+03  0.41701544609E+03  0.00000000000E+00 0.  1.
          2   -1    0    0  502    0  0.00000000000E+00 -0.00000000000E+00 -0.29115189474E+04  0.29115189474E+04  0.00000000000E+00 0. -1.
    9000010    2    1    2  502    0  0.43299065188E+03  0.94805805467E+02 -0.70514198265E+03  0.12946846869E+04  0.99121853166E+03 0.  0.
        -13    1    3    3    0    0  0.25145152152E+03  0.51062526672E+03 -0.60380154887E+03  0.82978452159E+03  0.10566000000E+00 0.  1.
         13    1    1    2    0    0 -0.41242581243E+03 -0.72572068404E+02 -0.23696779403E+03  0.48116057864E+03  0.10566000000E+00 0. -1.
          2    1    1    2  501    0 -0.20564839448E+02 -0.22233737063E+02 -0.15523937247E+04  0.15526891280E+04  0.00000000000E+00 0. -1.
          4    1    3    3  502    0  0.18153913036E+03 -0.41581946125E+03 -0.10134043378E+03  0.46490016533E+03  0.00000000000E+00 0.  1.
</event>
<event>
 7    1  0.4894942E-006  0.1096503E+04  0.7818608E-02  0.8897453E-01
          4   -1    0    0  501    0  0.00000000000E+00  0.00000000000E+00  0.30549064023E+04  0.30549064023E+04  0.00000000000E+00 0. -1.
         -4   -1    0    0    0  501 -0.00000000000E+00 -0.00000000000E+00 -0.46661336100E+03  0.46661336100E+03  0.00000000000E+00 0.  1.
   -9000010    2    1    2    0  502  0.90873938022E+01  0.41553232987E+03  0.50329583629E+03  0.11930491901E+04  0.99865408091E+03 0.  0.
        -13    1    1    2    0    0  0.24877222117E+03 -0.43773112222E+03  0.45678000364E+03  0.67981183887E+03  0.10566000000E+00 0.  1.
         13    1    3    3    0    0  0.25779098786E+03  0.43145116873E+03  0.70957396949E+03  0.86954099027E+03  0.10566000000E+00 0. -1.
          4    1    1    2  502    0 -0.25785961497E+03  0.22198792347E+02  0.16282172014E+04  0.16486587343E+04  0.00000000000E+00 0.  1.
         -4    1    3    3    0  502 -0.24870359406E+03 -0.15918838859E+02 -0.20627813320E+03  0.32350819984E+03  0.00000000000E+00 0. -1.
</event>
<event>
 7    1  0.4894942E-006  0.1005722E+04  0.7818608E-02  0.9309170E-01
         -4   -1    0    0    0  501 -0.00000000000E+00  0.00000000000E+00  0.44395287025E+03  0.44395287025E+03  0.00000000000E+00 0. -1.
          1   -1    0    0  501    0  0.00000000000E+00 -0.00000000000E+00 -0.99648902062E+03  0.99648902062E+03  0.00000000000E+00 0. -1.
   -9000010    2    1    2    0  502 -0.12674984920E+03 -0.59709323275E+02 -0.51097689701E+03  0.11309176006E+04  0.99912286653E+03 0.  0.
        -13    1    1    2    0    0  0.56514566707E+02  0.10017398704E+03  0.96028991738E+02  0.14983424958E+03  0.10566000000E+00 0.  1.
         13    1    3    3    0    0 -0.47048651251E+03 -0.16442358063E+03 -0.58031487258E+03  0.76495623066E+03  0.10566000000E+00 0. -1.
          1    1    1    2  502    0  0.70235282489E+02 -0.40464663761E+02 -0.13758824510E+03  0.15969004074E+03  0.00000000000E+00 0. -1.
         -4    1    3    3    0  502  0.34373666331E+03  0.10471425736E+03  0.69337975576E+02  0.36596136990E+03  0.00000000000E+00 0. -1.
</event>
<event>
 7    1  0.4894942E-006  0.9918736E+03  0.7818608E-02  0.9605008E-01
         -4   -1    0    0    0  501 -0.00000000000E+00  0.00000000000E+00  0.23361198684E+03  0.23361198684E+03  0.00000000000E+00 0. -1.
          2   -1    0    0  501    0  0.00000000000E+00 -0.00000000000E+00 -0.23559845424E+04  0.23559845424E+04  0.00000000000E+00 0. -1.
   -9000010    2    1    2    0  502  0.25822393511E+01 -0.81920595897E+02 -0.99716273326E+03  0.14074852856E+04  0.98993113933E+03 0.  0.
        -13    1    1    2    0    0  0.28847080637E+02  0.28472618775E+02  0.12729407520E+02  0.42484033013E+02  0.10566000000E+00 0.  1.
         13    1    3    3    0    0  0.15363840893E+02  0.72130590987E+02  0.19337150029E+03  0.20695752717E+03  0.10566000000E+00 0. -1.
          2    1    1    2  502    0 -0.31429319988E+02  0.53447977122E+02 -0.11379392299E+04  0.11396272106E+04  0.00000000000E+00 0. -1.
         -4    1    3    3    0  502 -0.12781601541E+02 -0.15405118688E+03 -0.11905342336E+04  0.12005277584E+04  0.00000000000E+00 0. -1.
</event>
<event>
 7    1  0.4894942E-006  0.9816765E+03  0.7818608E-02  0.9225483E-01
          4   -1    0    0  501    0 -0.00000000000E+00  0.00000000000E+00  0.39944910940E+03  0.39944910940E+03  0.00000000000E+00 0.  1.
          2   -1    0    0  502    0  0.00000000000E+00 -0.00000000000E+00 -0.11659544945E+04  0.11659544945E+04  0.00000000000E+00 0.  1.
    9000010    2    1    2  502    0 -0.16589444028E+03 -0.11210626783E+03 -0.68806647198E+03  0.12034253267E+04  0.96680311672E+03 0.  0.
        -13    1    3    3    0    0  0.90326833650E+02  0.26351718108E+03 -0.69493013108E+03  0.74868427248E+03  0.10566000000E+00 0.  1.
         13    1    1    2    0    0  0.12714121832E+03  0.11087645357E+03  0.88565749963E+02  0.19053183614E+03  0.10566000000E+00 0. -1.
          2    1    1    2  501    0  0.38753221968E+02  0.12298142554E+01 -0.16700466308E+03  0.17144644105E+03  0.00000000000E+00 0.  1.
          4    1    3    3  502    0 -0.25622127393E+03 -0.37562344891E+03  0.68636591003E+01  0.45474105423E+03  0.00000000000E+00 0.  1.
</event>
<event>
 7    1  0.4894942E-006  0.1046537E+04  0.7818608E-02  0.9000801E-01
          2   -1    0    0  502    0  0.00000000000E+00  0.00000000000E+00  0.16511623754E+04  0.16511623754E+04  0.00000000000E+00 0.  1.
          4   -1    0    0  501    0 -0.00000000000E+00 -0.00000000000E+00 -0.43695472745E+03  0.43695472745E+03  0.00000000000E+00 0.  1.
    9000010    2    1    2  502    0 -0.18638671793E+03 -0.21662329614E+03  0.48031668310E+03  0.11363291693E+04  0.98938071732E+03 0.  0.
        -13    1    3    3    0    0 -0.12699942401E+02 -0.59463663495E+03  0.17395972278E+03  0.61969025527E+03  0.10566000000E+00 0.  1.
         13    1    1    2    0    0  0.20555981055E+03  0.29917330146E+03  0.20646570929E+03  0.41759741414E+03  0.10566000000E+00 0. -1.
          2    1    1    2  501    0 -0.19173092620E+02 -0.82550005319E+02  0.52742525560E+03  0.53419051948E+03  0.00000000000E+00 0.  1.
          4    1    3    3  502    0 -0.17368677553E+03  0.37801333882E+03  0.30635696031E+03  0.51663891399E+03  0.00000000000E+00 0.  1.
</event>
<event>
 7    1  0.4894942E-006  0.1064395E+04  0.7818608E-02  0.8977371E-01
          2   -1    0    0  502    0  0.00000000000E+00  0.00000000000E+00  0.79115577637E+03  0.79115577637E+03  0.00000000000E+00 0. -1.
          4   -1    0    0  501    0 -0.00000000000E+00 -0.00000000000E+00 -0.16369620952E+04  0.16369620952E+04  0.00000000000E+00 0.  1.
    9000010    2    1    2  502    0  0.18808165225E+02 -0.23121966926E+03 -0.80145813856E+02  0.10324904185E+04  0.10028942269E+04 0.  0.
        -13    1    3    3    0    0  0.24341241008E+02 -0.47712660124E+03 -0.40410527455E+03  0.62573426764E+03  0.10566000000E+00 0.  1.
         13    1    1    2    0    0  0.22212935577E+03  0.29490141947E+03 -0.99230885083E+03  0.10587658686E+04  0.10566000000E+00 0. -1.
          2    1    1    2  501    0 -0.24093752100E+03 -0.63681750217E+02  0.22664834590E+03  0.33686158438E+03  0.00000000000E+00 0. -1.
          4    1    3    3  502    0 -0.55330757833E+01  0.24590693198E+03  0.32395946069E+03  0.40675615090E+03  0.00000000000E+00 0.  1.
</event>
<event>
 7    1  0.4894942E-006  0.1071387E+04  0.7818608E-02  0.8973770E-01
          2   -1    0    0  501    0  0.00000000000E+00  0.00000000000E+00  0.90201896471E+03  0.90201896471E+03  0.00000000000E+00 0.  1.
         -4   -1    0    0    0  501 -0.00000000000E+00 -0.00000000000E+00 -0.15501718735E+04  0.15501718735E+04  0.00000000000E+00 0. -1.
   -9000010    2    1    2    0  502 -0.30251564692E+03 -0.16680383938E+03 -0.91721973394E+03  0.14080564477E+04  0.10109360425E+04 0.  0.
        -13    1    1    2    0    0  0.31812691986E+03  0.16413388401E+03 -0.30473441928E+03  0.47011460994E+03  0.10566000000E+00 0.  1.
         13    1    3    3    0    0 -0.39773942877E+03 -0.44140690004E+03 -0.94480418161E+03  0.11161055763E+04  0.10566000000E+00 0. -1.
          2    1    1    2  502    0 -0.15611272935E+02  0.26699553687E+01  0.57380124440E+03  0.57401978065E+03  0.00000000000E+00 0.  1.
         -4    1    3    3    0  502  0.95223781842E+02  0.27460306066E+03  0.27584447674E+02  0.29195087139E+03  0.00000000000E+00 0. -1.
</event>
<event>
 7    1  0.4894942E-006  0.1257243E+04  0.7818608E-02  0.8675534E-01
          2   -1    0    0  502    0  0.00000000000E+00  0.00000000000E+00  0.25447110123E+04  0.25447110123E+04  0.00000000000E+00 0.  1.
          4   -1    0    0  501    0 -0.00000000000E+00 -0.00000000000E+00 -0.99888609027E+03  0.99888609027E+03  0.00000000000E+00 0.  1.
    9000010    2    1    2  502    0 -0.65408523281E+03 -0.41820695730E+03  0.19176511929E+04  0.22949133424E+04  0.99323542058E+03 0.  0.
        -13    1    3    3    0    0 -0.49004779284E+03 -0.15101325860E+03  0.19138544716E+04  0.19813608437E+04  0.10566000000E+00 0.  1.
         13    1    1    2    0    0  0.65479104403E+03  0.40577978903E+03 -0.62697586436E+03  0.99323073562E+03  0.10566000000E+00 0. -1.
          2    1    1    2  501    0 -0.70581122215E+00  0.12427168271E+02  0.25514959351E+03  0.25545302455E+03  0.00000000000E+00 0.  1.
          4    1    3    3  502    0 -0.16403743997E+03 -0.26719369870E+03  0.37967213079E+01  0.31355249868E+03  0.00000000000E+00 0.  1.
</event>
<event>
 7    1  0.4894942E-006  0.1039757E+04  0.7818608E-02  0.9060989E-01
          4   -1    0    0  501    0 -0.00000000000E+00  0.00000000000E+00  0.10634083455E+04  0.10634083455E+04  0.00000000000E+00 0.  1.
          2   -1    0    0  502    0  0.00000000000E+00 -0.00000000000E+00 -0.13229651656E+04  0.13229651656E+04  0.00000000000E+00 0.  1.
    9000010    2    1    2  502    0 -0.91453431342E+02 -0.24592047025E+03 -0.59544118693E+03  0.11957807167E+04  0.10032450885E+04 0.  0.
        -13    1    3    3    0    0 -0.43121098327E+03  0.25330985015E+02  0.31215496861E+02  0.43308081152E+03  0.10566000000E+00 0.  1.
         13    1    1    2    0    0  0.10121298187E+03  0.25399048283E+03  0.73864966835E+03  0.78762845098E+03  0.10566000000E+00 0. -1.
          2    1    1    2  501    0 -0.97595505282E+01 -0.80700125779E+01 -0.40276530151E+03  0.40296434337E+03  0.00000000000E+00 0.  1.
          4    1    3    3  502    0  0.33975755193E+03 -0.27125145527E+03 -0.62665668380E+03  0.76269990522E+03  0.00000000000E+00 0.  1.
</event>
<event>
 7    1  0.4894942E-006  0.1143228E+04  0.7818608E-02  0.9390896E-01
          2   -1    0    0  501    0  0.00000000000E+00  0.00000000000E+00  0.18415523988E+04  0.18415523988E+04  0.00000000000E+00 0. -1.
         -4   -1    0    0    0  501 -0.00000000000E+00 -0.00000000000E+00 -0.12865263953E+04  0.12865263953E+04  0.00000000000E+00 0. -1.
   -9000010    2    1    2    0  502 -0.16432188429E+03 -0.20605311062E+03 -0.90040142654E+03  0.14443617144E+04  0.10981796151E+04 0.  0.
        -13    1    1    2    0    0 -0.48833822933E+02 -0.30631031785E+02 -0.89411403881E+02  0.10638332895E+03  0.10566000000E+00 0.  1.
         13    1    3    3    0    0  0.39210083675E+02 -0.46786519340E+02  0.25407830877E+03  0.26130864357E+03  0.10566000000E+00 0. -1.
          2    1    1    2  502    0  0.21315570722E+03  0.23668414241E+03  0.15448388339E+04  0.15773337509E+04  0.00000000000E+00 0. -1.
         -4    1    3    3    0  502 -0.20353196797E+03 -0.15926659128E+03 -0.11544797353E+04  0.11830530708E+04  0.00000000000E+00 0. -1.
</event>
<event>
 7    1  0.4894942E-006  0.1319311E+04  0.7818608E-02  0.8608953E-01
          1   -1    0    0  501    0  0.00000000000E+00  0.00000000000E+00  0.84392887129E+03  0.84392887129E+03  0.00000000000E+00 0.  1.
         -4   -1    0    0    0  501 -0.00000000000E+00 -0.00000000000E+00 -0.20727418828E+04  0.20727418828E+04  0.00000000000E+00 0. -1.
   -9000010    2    1    2    0  502 -0.68174534054E+03  0.59401119595E+03 -0.31088499174E+02  0.13269717249E+04  0.97070152649E+03 0.  0.
        -13    1    1    2    0    0  0.68071545567E+03 -0.57511855757E+03 -0.12494134628E+04  0.15346559546E+04  0.10566000000E+00 0.  1.
         13    1    3    3    0    0 -0.72150692800E+03  0.47708787787E+00 -0.98903190200E+02  0.72825430103E+03  0.10566000000E+00 0. -1.
          1    1    1    2  502    0  0.10298848721E+01 -0.18892638378E+02  0.51688950534E+02  0.55043074542E+02  0.00000000000E+00 0.  1.
         -4    1    3    3    0  502  0.39761587462E+02  0.59353410808E+03  0.67814691026E+02  0.59871742384E+03  0.00000000000E+00 0. -1.
</event>
<event>
 7    1  0.4894942E-006  0.9955380E+03  0.7818608E-02  0.9295160E-01
          4   -1    0    0  501    0 -0.00000000000E+00  0.00000000000E+00  0.13492778039E+04  0.13492778039E+04  0.00000000000E+00 0.  1.
          2   -1    0    0  502    0  0.00000000000E+00 -0.00000000000E+00 -0.66652460388E+03  0.66652460388E+03  0.00000000000E+00 0. -1.
    9000010    2    1    2  502    0 -0.21083144476E+02 -0.10681376508E+03  0.97964981341E+03  0.13953585155E+04  0.98765274789E+03 0.  0.
        -13    1    3    3    0    0 -0.17648265884E+02 -0.40773639543E+03  0.10134357207E+04  0.10925256979E+04  0.10566000000E+00 0.  1.
         13    1    1    2    0    0  0.31753390101E+02  0.12298116041E+03  0.13659305546E+03  0.18652162760E+03  0.10566000000E+00 0. -1.
          2    1    1    2  501    0 -0.10670245625E+02 -0.16167395328E+02 -0.43348966884E+03  0.43392226471E+03  0.00000000000E+00 0. -1.
          4    1    3    3  502    0 -0.34348785924E+01  0.30092263034E+03 -0.33785907319E+02  0.30283281754E+03  0.00000000000E+00 0.  1.
</event>
<event>
 7    1  0.4894942E-006  0.1041863E+04  0.7818608E-02  0.9351341E-01
          2   -1    0    0  502    0  0.00000000000E+00  0.00000000000E+00  0.16054073258E+04  0.16054073258E+04  0.00000000000E+00 0. -1.
          4   -1    0    0  501    0 -0.00000000000E+00 -0.00000000000E+00 -0.20604533503E+04  0.20604533503E+04  0.00000000000E+00 0.  1.
    9000010    2    1    2  502    0 -0.25285556395E+03 -0.44892312590E+01 -0.17812021591E+04  0.20620240050E+04  0.10076238269E+04 0.  0.
        -13    1    3    3    0    0 -0.40208183687E+03  0.23352433942E+03 -0.29760009961E+03  0.55205910109E+03  0.10566000000E+00 0.  1.
         13    1    1    2    0    0  0.45080363003E+01 -0.88159026786E+02 -0.11135053613E+03  0.14209605714E+03  0.10566000000E+00 0. -1.
          2    1    1    2  501    0  0.24834752765E+03  0.92648258045E+02  0.14375066706E+04  0.14617406139E+04  0.00000000000E+00 0. -1.
          4    1    3    3  502    0  0.14922627291E+03 -0.23801357068E+03 -0.14836020595E+04  0.15099649040E+04  0.00000000000E+00 0.  1.
</event>
<event>
 7    1  0.4894942E-006  0.1050475E+04  0.7818608E-02  0.9014072E-01
         -4   -1    0    0    0  501 -0.00000000000E+00  0.00000000000E+00  0.41699109837E+03  0.41699109837E+03  0.00000000000E+00 0. -1.
          4   -1    0    0  501    0  0.00000000000E+00 -0.00000000000E+00 -0.30820888383E+04  0.30820888383E+04  0.00000000000E+00 0.  1.
   -9000010    2    1    2    0  502 -0.38468291786E+03  0.77419336116E+02 -0.43840336074E+03  0.11608035224E+04  0.10006460963E+04 0.  0.
        -13    1    1    2    0    0  0.22682451261E+03 -0.18972625160E+03 -0.38027004827E+03  0.48171644236E+03  0.10566000000E+00 0.  1.
         13    1    3    3    0    0 -0.69293079503E+03  0.85036712298E+02 -0.48346048611E+03  0.84918689459E+03  0.10566000000E+00 0. -1.
          4    1    1    2  502    0  0.15785840525E+03  0.11230691548E+03 -0.18464243309E+04  0.18565599719E+04  0.00000000000E+00 0.  1.
         -4    1    3    3    0  502  0.30824787717E+03 -0.76173761827E+01  0.45057125373E+02  0.31161662784E+03  0.00000000000E+00 0. -1.
</event>
<event>
 7    1  0.4894942E-006  0.1013529E+04  0.7818608E-02  0.9174328E-01
         -4   -1    0    0    0  501 -0.00000000000E+00  0.00000000000E+00  0.24928223150E+03  0.24928223150E+03  0.00000000000E+00 0. -1.
          2   -1    0    0  501    0  0.00000000000E+00 -0.00000000000E+00 -0.24466688411E+04  0.24466688411E+04  0.00000000000E+00 0. -1.
   -9000010    2    1    2    0  502 -0.21908582522E+02 -0.18191133615E+03 -0.18591715638E+04  0.21170181433E+04  0.99582889842E+03 0.  0.
        -13    1    1    2    0    0 -0.71279135287E+02  0.17577126717E+03  0.36155875551E+02  0.19308938861E+03  0.10566000000E+00 0.  1.
         13    1    3    3    0    0  0.17134839593E+03 -0.54780340368E+03 -0.84325690785E+03  0.10200642459E+04  0.10566000000E+00 0. -1.
          2    1    1    2  502    0  0.93187717809E+02  0.61400689741E+01 -0.37437092134E+03  0.38584354075E+03  0.00000000000E+00 0. -1.
         -4    1    3    3    0  502 -0.19325697845E+03  0.36589206753E+03 -0.10159146560E+04  0.10969538974E+04  0.00000000000E+00 0. -1.
</event>
<event>
 7    1  0.4894942E-006  0.1028082E+04  0.7818608E-02  0.9104802E-01
         -4   -1    0    0    0  502 -0.00000000000E+00  0.00000000000E+00  0.21215767559E+04  0.21215767559E+04  0.00000000000E+00 0. -1.
         -2   -1    0    0    0  501  0.00000000000E+00 -0.00000000000E+00 -0.47677662165E+03  0.47677662165E+03  0.00000000000E+00 0. -1.
   -9000010    2    1    2    0  501 -0.21749769058E+03 -0.64449148660E+02  0.11373047305E+04  0.15315088518E+04  0.10002991427E+04 0.  0.
        -13    1    1    2    0    0  0.20731937132E+03  0.11866827981E+03  0.76607008675E+03  0.80245054137E+03  0.10566000000E+00 0.  1.
         13    1    3    3    0    0 -0.29423940770E+03 -0.70131453623E+02 -0.79115368047E+02  0.31265716441E+03  0.10566000000E+00 0. -1.
         -2    1    1    2    0  502  0.10178319254E+02 -0.54219131146E+02 -0.25857468292E+03  0.26439398445E+03  0.00000000000E+00 0. -1.
         -4    1    3    3    0  501  0.76741717122E+02  0.56823049633E+01  0.12164200985E+04  0.12188516874E+04  0.00000000000E+00 0. -1.
</event>
<event>
 7    1  0.4894942E-006  0.1107298E+04  0.7818608E-02  0.8935736E-01
          2   -1    0    0  502    0  0.00000000000E+00  0.00000000000E+00  0.27204420583E+04  0.27204420583E+04  0.00000000000E+00 0. -1.
          4   -1    0    0  501    0 -0.00000000000E+00 -0.00000000000E+00 -0.52652246787E+03  0.52652246787E+03  0.00000000000E+00 0.  1.
    9000010    2    1    2  502    0  0.24413508797E+03 -0.32399404458E+03  0.51776509416E+03  0.12319905710E+04  0.10417034090E+04 0.  0.
        -13    1    3    3    0    0  0.33012534459E+02  0.34191396822E+03  0.39369294317E+03  0.52248362056E+03  0.10566000000E+00 0.  1.
         13    1    1    2    0    0 -0.22665189550E+03  0.29058850871E+03  0.31482836239E+02  0.36987017083E+03  0.10566000000E+00 0. -1.
          2    1    1    2  501    0 -0.17483192471E+02  0.33405535871E+02  0.16446716600E+04  0.16451037843E+04  0.00000000000E+00 0. -1.
          4    1    3    3  502    0  0.21112255351E+03 -0.66590801280E+03  0.12407215099E+03  0.70950695047E+03  0.00000000000E+00 0.  1.
</event>
<event>
 7    1  0.4894942E-006  0.1077742E+04  0.7818608E-02  0.8944629E-01
          2   -1    0    0  501    0  0.00000000000E+00  0.00000000000E+00  0.17265598024E+04  0.17265598024E+04  0.00000000000E+00 0. -1.
         -4   -1    0    0    0  501 -0.00000000000E+00 -0.00000000000E+00 -0.46411754228E+03  0.46411754228E+03  0.00000000000E+00 0. -1.
   -9000010    2    1    2    0  502 -0.30328979551E+03 -0.10458282915E+03  0.11724675887E+04  0.15763846090E+04  0.10036861664E+04 0.  0.
        -13    1    1    2    0    0  0.40449934378E+03 -0.23318839417E+02 -0.38039675695E+02  0.40695271897E+03  0.10566000000E+00 0.  1.
         13    1    3    3    0    0 -0.46543091461E+03 -0.40617524819E+03  0.41240730726E+03  0.74275437848E+03  0.10566000000E+00 0. -1.
          2    1    1    2  502    0 -0.10120954827E+03  0.12790166856E+03  0.12801434712E+03  0.20734001676E+03  0.00000000000E+00 0. -1.
         -4    1    3    3    0  502  0.16214111910E+03  0.30159241904E+03  0.76006028148E+03  0.83363023051E+03  0.00000000000E+00 0. -1.
</event>
<event>
 7    1  0.4894942E-006  0.1296036E+04  0.7818608E-02  0.8639837E-01
          4   -1    0    0  501    0 -0.00000000000E+00  0.00000000000E+00  0.17454606198E+04  0.17454606198E+04  0.00000000000E+00 0.  1.
          2   -1    0    0  502    0  0.00000000000E+00 -0.00000000000E+00 -0.14164856212E+04  0.14164856212E+04  0.00000000000E+00 0. -1.
    9000010    2    1    2  502    0 -0.49094917874E+03 -0.65766065585E+03  0.94785929538E+03  0.16047201424E+04  0.10015691975E+04 0.  0.
        -13    1    3    3    0    0  0.46523426538E+02 -0.59812766013E+03  0.87232232270E+03  0.10587102403E+04  0.10566000000E+00 0.  1.
         13    1    1    2    0    0  0.50786753493E+03  0.64973275963E+03  0.10657263643E+03  0.83152861043E+03  0.10566000000E+00 0. -1.
          2    1    1    2  501    0 -0.16918356189E+02  0.79278962232E+01 -0.72545693320E+03  0.72569748810E+03  0.00000000000E+00 0. -1.
          4    1    3    3  502    0 -0.53747260528E+03 -0.59532995716E+02  0.75536972680E+02  0.54600990215E+03  0.00000000000E+00 0.  1.
</event>
<event>
 7    1  0.4894942E-006  0.1082077E+04  0.7818608E-02  0.8910157E-01
         -4   -1    0    0    0  501 -0.00000000000E+00  0.00000000000E+00  0.67509430980E+03  0.67509430980E+03  0.00000000000E+00 0. -1.
          2   -1    0    0  501    0  0.00000000000E+00 -0.00000000000E+00 -0.12135494882E+04  0.12135494882E+04  0.00000000000E+00 0.  1.
   -9000010    2    1    2    0  502 -0.32380013470E+03 -0.29219520457E+03 -0.28853520406E+03  0.11155928249E+04  0.98542895336E+03 0.  0.
        -13    1    1    2    0    0  0.33306135558E+03  0.30262263140E+03  0.67743171872E+02  0.45508183013E+03  0.10566000000E+00 0.  1.
         13    1    3    3    0    0 -0.31313047883E+03 -0.63070909711E+03 -0.59361729036E+02  0.70666009367E+03  0.10566000000E+00 0. -1.
          2    1    1    2  502    0 -0.92612208792E+01 -0.10427426833E+02 -0.31766314618E+03  0.31796914297E+03  0.00000000000E+00 0.  1.
         -4    1    3    3    0  502 -0.10669655865E+02  0.33851389254E+03 -0.22917347503E+03  0.40893273121E+03  0.00000000000E+00 0. -1.
</event>
<event>
 7    1  0.4894942E-006  0.1044188E+04  0.7818608E-02  0.8874366E-01
         -4   -1    0    0    0  501 -0.00000000000E+00  0.00000000000E+00  0.85046215160E+03  0.85046215160E+03  0.00000000000E+00 0. -1.
          2   -1    0    0  501    0  0.00000000000E+00 -0.00000000000E+00 -0.15892263586E+04  0.15892263586E+04  0.00000000000E+00 0.  1.
   -9000010    2    1    2    0  502 -0.22865891056E+03 -0.50817179470E+03  0.28600789700E+03  0.10722230166E+04  0.87025180825E+03 0.  0.
        -13    1    1    2    0    0  0.25620527938E+03  0.54702656396E+03 -0.36455983310E+03  0.70553744758E+03  0.10566000000E+00 0.  1.
         13    1    3    3    0    0 -0.51174999464E+03 -0.35992547530E+03  0.38871034290E+03  0.73656645771E+03  0.10566000000E+00 0. -1.
          2    1    1    2  502    0 -0.27546368818E+02 -0.38854769261E+02 -0.66021227090E+03  0.66192804608E+03  0.00000000000E+00 0.  1.
         -4    1    3    3    0  502  0.28309108408E+03 -0.14824631940E+03 -0.10270244590E+03  0.33565655884E+03  0.00000000000E+00 0. -1.
</event>
<event>
 7    1  0.4894942E-006  0.1129902E+04  0.7818608E-02  0.8837764E-01
          1   -1    0    0  501    0  0.00000000000E+00  0.00000000000E+00  0.84770373242E+03  0.84770373242E+03  0.00000000000E+00 0. -1.
         -4   -1    0    0    0  501 -0.00000000000E+00 -0.00000000000E+00 -0.12594939832E+04  0.12594939832E+04  0.00000000000E+00 0. -1.
   -9000010    2    1    2    0  502  0.32100563689E+03 -0.55853113155E+03 -0.33351685492E+03  0.12333763853E+04  0.99748793050E+03 0.  0.
        -13    1    1    2    0    0 -0.73635833496E+02  0.49714832262E+03 -0.25510723334E+03  0.56361192529E+03  0.10566000000E+00 0.  1.
         13    1    3    3    0    0  0.23472727937E+03 -0.51916209474E+03  0.26430499498E+03  0.62807906973E+03  0.10566000000E+00 0. -1.
          1    1    1    2  502    0 -0.24736980339E+03  0.61382808935E+02  0.17683383751E+03  0.31020940500E+03  0.00000000000E+00 0. -1.
         -4    1    3    3    0  502  0.86278357517E+02 -0.39369036810E+02 -0.59782184989E+03  0.60529731558E+03  0.00000000000E+00 0. -1.
</event>
<event>
 7    1  0.4894942E-006  0.1248380E+04  0.7818608E-02  0.8664926E-01
         -4   -1    0    0    0  501 -0.00000000000E+00  0.00000000000E+00  0.43814385647E+04  0.43814385647E+04  0.00000000000E+00 0. -1.
          2   -1    0    0  501    0  0.00000000000E+00 -0.00000000000E+00 -0.74445698829E+03  0.74445698829E+03  0.00000000000E+00 0. -1.
   -9000010    2    1    2    0  502  0.80712737945E+03 -0.80677101189E+02  0.19079050302E+04  0.22751986851E+04  0.93726413089E+03 0.  0.
        -13    1    1    2    0    0 -0.82508415252E+03  0.91525059986E+02  0.22144152333E+04  0.23649049731E+04  0.10566000000E+00 0.  1.
         13    1    3    3    0    0  0.82648405105E+03 -0.58961992400E+02  0.20073231854E+04  0.21716120245E+04  0.10566000000E+00 0. -1.
          2    1    1    2  502    0  0.17956773073E+02 -0.10847958797E+02 -0.48533868705E+03  0.48579189480E+03  0.00000000000E+00 0. -1.
         -4    1    3    3    0  502 -0.19356671601E+02 -0.21715108789E+02 -0.99418155152E+02  0.10358666062E+03  0.00000000000E+00 0. -1.
</event>
<event>
 7    1  0.4894942E-006  0.1253102E+04  0.7818608E-02  0.8673681E-01
          2   -1    0    0  501    0  0.00000000000E+00  0.00000000000E+00  0.67315576370E+03  0.67315576370E+03  0.00000000000E+00 0. -1.
         -4   -1    0    0    0  501 -0.00000000000E+00 -0.00000000000E+00 -0.29582691609E+04  0.29582691609E+04  0.00000000000E+00 0. -1.
   -9000010    2    1    2    0  502  0.60943381502E+03 -0.51715539867E+03 -0.14322238229E+04  0.19090597433E+04  0.97692617096E+03 0.  0.
        -13    1    1    2    0    0 -0.57017658375E+03  0.52915163351E+03 -0.11686936469E+04  0.14039044267E+04  0.10566000000E+00 0.  1.
         13    1    3    3    0    0  0.78768626206E+03 -0.10773512874E+03 -0.10759543582E+04  0.13378095147E+04  0.10566000000E+00 0. -1.
          2    1    1    2  502    0 -0.39257231276E+02 -0.11996234839E+02  0.31580407264E+03  0.31846075449E+03  0.00000000000E+00 0. -1.
         -4    1    3    3    0  502 -0.17825244704E+03 -0.40942026993E+03 -0.35626946468E+03  0.57125022867E+03  0.00000000000E+00 0. -1.
</event>
<event>
 7    1  0.4894942E-006  0.1023160E+04  0.7818608E-02  0.9162631E-01
          2   -1    0    0  502    0  0.00000000000E+00  0.00000000000E+00  0.27185514794E+04  0.27185514794E+04  0.00000000000E+00 0.  1.
          4   -1    0    0  501    0 -0.00000000000E+00 -0.00000000000E+00 -0.21052792302E+03  0.21052792302E+03  0.00000000000E+00 0.  1.
    9000010    2    1    2  502    0 -0.71442741679E+02 -0.15850138625E+03  0.15889207768E+04  0.18881044161E+04  0.10050086051E+04 0.  0.
        -13    1    3    3    0    0  0.17836060111E+03 -0.33918251334E+03  0.14196654204E+03  0.40867076187E+03  0.10566000000E+00 0.  1.
         13    1    1    2    0    0  0.84926229210E+02  0.17383776241E+03  0.93079648333E+02  0.21469947402E+03  0.10566000000E+00 0. -1.
          2    1    1    2  501    0 -0.13483487531E+02 -0.15336376160E+02  0.82602313125E+03  0.82627551230E+03  0.00000000000E+00 0.  1.
          4    1    3    3  502    0 -0.24980334279E+03  0.18068112709E+03  0.14469542348E+04  0.14794336543E+04  0.00000000000E+00 0.  1.
</event>
<event>
 7    1  0.4894942E-006  0.1637063E+04  0.7818608E-02  0.8385589E-01
         -4   -1    0    0    0  501 -0.00000000000E+00  0.00000000000E+00  0.22345201006E+04  0.22345201006E+04  0.00000000000E+00 0. -1.
          2   -1    0    0  501    0  0.00000000000E+00 -0.00000000000E+00 -0.18540035104E+04  0.18540035104E+04  0.00000000000E+00 0.  1.
   -9000010    2    1    2    0  502  0.79980063761E+03 -0.11182965471E+04  0.48552480542E+03  0.17728868297E+04  0.10085262252E+04 0.  0.
        -13    1    1    2    0    0 -0.57553564661E+03  0.11061867179E+04  0.73409817846E+03  0.14469936013E+04  0.10566000000E+00 0.  1.
         13    1    3    3    0    0 -0.23748821698E+03 -0.28551065620E+03  0.59516153865E+02  0.37611058446E+03  0.10566000000E+00 0. -1.
          2    1    1    2  502    0 -0.22426499100E+03  0.12109829258E+02 -0.83910639377E+03  0.86864318003E+03  0.00000000000E+00 0.  1.
         -4    1    3    3    0  502  0.10372888546E+04 -0.83278589095E+03  0.42600865156E+03  0.13967762452E+04  0.00000000000E+00 0. -1.
</event>
<event>
 7    1  0.4894942E-006  0.1047054E+04  0.7818608E-02  0.9038994E-01
          2   -1    0    0  501    0  0.00000000000E+00  0.00000000000E+00  0.10203425236E+04  0.10203425236E+04  0.00000000000E+00 0. -1.
         -4   -1    0    0    0  501 -0.00000000000E+00 -0.00000000000E+00 -0.10516442513E+04  0.10516442513E+04  0.00000000000E+00 0. -1.
   -9000010    2    1    2    0  502 -0.30194618062E+03 -0.58213046029E+02 -0.60420251216E+03  0.12127035829E+04  0.10054994031E+04 0.  0.
        -13    1    1    2    0    0  0.28559783957E+03  0.11545786931E+02  0.15890611646E+01  0.28583556014E+03  0.10566000000E+00 0.  1.
         13    1    3    3    0    0  0.26231166771E+02  0.44732006024E+03 -0.27907261748E+03  0.52788715403E+03  0.10566000000E+00 0. -1.
          2    1    1    2  502    0  0.16348341051E+02  0.46667259098E+02  0.57131172325E+03  0.57344763183E+03  0.00000000000E+00 0. -1.
         -4    1    3    3    0  502 -0.32817734739E+03 -0.50553310627E+03 -0.32512989469E+03  0.68481642890E+03  0.00000000000E+00 0. -1.
</event>
<event>
 7    1  0.4894942E-006  0.1005473E+04  0.7818608E-02  0.9215017E-01
          1   -1    0    0  501    0  0.00000000000E+00  0.00000000000E+00  0.26271540378E+04  0.26271540378E+04  0.00000000000E+00 0. -1.
         -4   -1    0    0    0  501 -0.00000000000E+00 -0.00000000000E+00 -0.23348221149E+03  0.23348221149E+03  0.00000000000E+00 0. -1.
   -9000010    2    1    2    0  502 -0.18037402695E+03  0.50519192285E+02  0.14999868488E+04  0.18079855578E+04  0.99184890588E+03 0.  0.
        -13    1    1    2    0    0  0.15348540573E+03 -0.57343260115E+02  0.54040342703E+01  0.16393667681E+03  0.10566000000E+00 0.  1.
         13    1    3    3    0    0 -0.13133489421E+03  0.48242558516E+03  0.45430943997E+03  0.67555930758E+03  0.10566000000E+00 0. -1.
          1    1    1    2  502    0  0.26888621219E+02  0.68240678301E+01  0.88828094320E+03  0.88871401469E+03  0.00000000000E+00 0. -1.
         -4    1    3    3    0  502 -0.49039132741E+02 -0.43190639287E+03  0.10456774088E+04  0.11324262502E+04  0.00000000000E+00 0. -1.
</event>
<event>
 7    1  0.4894942E-006  0.1283885E+04  0.7818608E-02  0.8652952E-01
          4   -1    0    0  501    0 -0.00000000000E+00  0.00000000000E+00  0.18603667245E+04  0.18603667245E+04  0.00000000000E+00 0.  1.
          2   -1    0    0  502    0  0.00000000000E+00 -0.00000000000E+00 -0.13772111546E+04  0.13772111546E+04  0.00000000000E+00 0. -1.
    9000010    2    1    2  502    0  0.66594924668E+03  0.43898509764E+03  0.92097126921E+03  0.15794402277E+04  0.10051104612E+04 0.  0.
        -13    1    3    3    0    0 -0.36819510554E+02  0.30847203522E+02 -0.19392372060E+03  0.19978400061E+03  0.10566000000E+00 0.  1.
         13    1    1    2    0    0 -0.67588570966E+03 -0.42769313652E+03  0.34793752614E+03  0.87224047419E+03  0.10566000000E+00 0. -1.
          2    1    1    2  501    0  0.99364629864E+01 -0.11291961124E+02 -0.78575322545E+03  0.78589717711E+03  0.00000000000E+00 0. -1.
          4    1    3    3  502    0  0.70276875723E+03  0.40813789412E+03  0.11148949898E+04  0.13796562271E+04  0.00000000000E+00 0.  1.
</event>
<event>
 7    1  0.4894942E-006  0.1312955E+04  0.7818608E-02  0.9033519E-01
         -4   -1    0    0    0  501 -0.00000000000E+00  0.00000000000E+00  0.10751073441E+04  0.10751073441E+04  0.00000000000E+00 0. -1.
          2   -1    0    0  501    0  0.00000000000E+00 -0.00000000000E+00 -0.36155349591E+04  0.36155349591E+04  0.00000000000E+00 0. -1.
   -9000010    2    1    2    0  502  0.78392690434E+03 -0.18209935024E+03  0.40205002959E+03  0.13412768331E+04  0.99482548817E+03 0.  0.
        -13    1    1    2    0    0  0.75703633253E+02  0.13112630904E+03  0.10388910817E+03  0.18362490836E+03  0.10566000000E+00 0.  1.
         13    1    3    3    0    0  0.47475669294E+03  0.16319436859E+03  0.64550785524E+03  0.81774490018E+03  0.10566000000E+00 0. -1.
          2    1    1    2  502    0 -0.85963053759E+03  0.50973041194E+02 -0.30463667528E+04  0.31657405618E+04  0.00000000000E+00 0. -1.
         -4    1    3    3    0  502  0.30917021140E+03 -0.34529371882E+03 -0.24345782565E+03  0.52353193288E+03  0.00000000000E+00 0. -1.
</event>
<event>
 7    1  0.4894942E-006  0.1015685E+04  0.7818608E-02  0.9346596E-01
          5   -1    0    0  501    0  0.00000000000E+00  0.00000000000E+00  0.84136617616E+03  0.84136617616E+03  0.00000000000E+00 0. -1.
         -4   -1    0    0    0  501 -0.00000000000E+00 -0.00000000000E+00 -0.19264377878E+04  0.19264377878E+04  0.00000000000E+00 0. -1.
   -9000010    2    1    2    0  502  0.55799715823E+02  0.88645250737E+02 -0.17810580479E+04  0.20506946507E+04  0.10110436151E+04 0.  0.
        -13    1    1    2    0    0 -0.52559522736E+02 -0.69027429415E+02  0.17103861141E+03  0.19178505468E+03  0.10566000000E+00 0.  1.
         13    1    3    3    0    0  0.42821556611E+03 -0.13541278886E+03 -0.39504368672E+03  0.59813436620E+03  0.10566000000E+00 0. -1.
          5    1    1    2  502    0 -0.32401930872E+01 -0.19617821322E+02  0.52494782490E+03  0.52532425856E+03  0.00000000000E+00 0. -1.
         -4    1    3    3    0  502 -0.37241585028E+03  0.22405803960E+03 -0.13860143612E+04  0.14525602845E+04  0.00000000000E+00 0. -1.
</event>
<event>
 7    1  0.4894942E-006  0.1049055E+04  0.7818608E-02  0.9229661E-01
         -4   -1    0    0    0  501 -0.00000000000E+00  0.00000000000E+00  0.45999080032E+03  0.45999080032E+03  0.00000000000E+00 0. -1.
          2   -1    0    0  501    0  0.00000000000E+00 -0.00000000000E+00 -0.15411910969E+04  0.15411910969E+04  0.00000000000E+00 0. -1.
   -9000010    2    1    2    0  502 -0.92162405728E+02 -0.58701380519E+02 -0.68159386306E+03  0.12370301655E+04  0.10265153068E+04 0.  0.
        -13    1    1    2    0    0 -0.13272884666E+03  0.35014798615E+02  0.12952002781E+03  0.18872846003E+03  0.10566000000E+00 0.  1.
         13    1    3    3    0    0  0.10340570774E+03 -0.29378798048E+03 -0.83767521736E+03  0.89370235471E+03  0.10566000000E+00 0. -1.
          2    1    1    2  502    0  0.22489125239E+03  0.23686581904E+02 -0.52912646133E+03  0.57542327172E+03  0.00000000000E+00 0. -1.
         -4    1    3    3    0  502 -0.19556811347E+03  0.23508659996E+03  0.15608135430E+03  0.34332781077E+03  0.00000000000E+00 0. -1.
</event>
<event>
 7    1  0.4894942E-006  0.8912235E+03  0.7818608E-02  0.9272887E-01
          4   -1    0    0  501    0 -0.00000000000E+00  0.00000000000E+00  0.21948476863E+04  0.21948476863E+04  0.00000000000E+00 0.  1.
          2   -1    0    0  502    0  0.00000000000E+00 -0.00000000000E+00 -0.17637368920E+03  0.17637368920E+03  0.00000000000E+00 0.  1.
    9000010    2    1    2  502    0 -0.76593771381E+02 -0.15439481297E+03  0.18955452527E+04  0.20931042255E+04  0.87079798443E+03 0.  0.
        -13    1    3    3    0    0  0.10727260764E+03  0.33972015490E+03  0.86612316621E+03  0.93652898845E+03  0.10566000000E+00 0.  1.
         13    1    1    2    0    0  0.93991580888E+02  0.17506428648E+03  0.14270491082E+03  0.24463569735E+03  0.10566000000E+00 0. -1.
          2    1    1    2  501    0 -0.17397809506E+02 -0.20669473515E+02 -0.19776166441E+02  0.33481452629E+02  0.00000000000E+00 0.  1.
          4    1    3    3  502    0 -0.18386637902E+03 -0.49411496787E+03  0.10294220865E+04  0.11565752371E+04  0.00000000000E+00 0.  1.
</event>
<event>
 7    1  0.4894942E-006  0.9304866E+03  0.7818608E-02  0.9458296E-01
         -4   -1    0    0    0  501 -0.00000000000E+00  0.00000000000E+00  0.68845326467E+03  0.68845326467E+03  0.00000000000E+00 0. -1.
          2   -1    0    0  501    0  0.00000000000E+00 -0.00000000000E+00 -0.24787517621E+04  0.24787517621E+04  0.00000000000E+00 0.  1.
   -9000010    2    1    2    0  502  0.14097696846E+00  0.42796203896E+02  0.29026978564E+03  0.97208180086E+03  0.92674427118E+03 0.  0.
        -13    1    1    2    0    0  0.85089790255E+01 -0.86955883588E+02  0.23577269704E+02  0.90496559191E+02  0.10566000000E+00 0.  1.
         13    1    3    3    0    0  0.20698447174E+03  0.10416099927E+02 -0.28929050876E+03  0.35586525020E+03  0.10566000000E+00 0. -1.
          2    1    1    2  502    0 -0.86499559940E+01  0.44159679693E+02 -0.21041455528E+04  0.21046266668E+04  0.00000000000E+00 0.  1.
         -4    1    3    3    0  502 -0.20684349478E+03  0.32380103969E+02  0.57956029439E+03  0.61621655066E+03  0.00000000000E+00 0. -1.
</event>
<event>
 7    1  0.4894942E-006  0.1084730E+04  0.7818608E-02  0.8917957E-01
          2   -1    0    0  502    0  0.00000000000E+00  0.00000000000E+00  0.13254681495E+04  0.13254681495E+04  0.00000000000E+00 0.  1.
          4   -1    0    0  501    0 -0.00000000000E+00 -0.00000000000E+00 -0.79753512125E+03  0.79753512125E+03  0.00000000000E+00 0.  1.
    9000010    2    1    2  502    0 -0.27751202750E+03  0.33193597827E+03 -0.49614280595E+02  0.10870435522E+04  0.99599582748E+03 0.  0.
        -13    1    3    3    0    0 -0.59474670547E+03 -0.38737069732E+02 -0.60196668665E+02  0.59903910918E+03  0.10566000000E+00 0.  1.
         13    1    1    2    0    0  0.28587073207E+03 -0.31934588557E+03 -0.28660016901E+02  0.42956405555E+03  0.10566000000E+00 0. -1.
          2    1    1    2  501    0 -0.83587045679E+01 -0.12590092698E+02  0.60620732572E+03  0.60639566303E+03  0.00000000000E+00 0.  1.
          4    1    3    3  502    0  0.31723467797E+03  0.37067304800E+03  0.10582388070E+02  0.48800444297E+03  0.00000000000E+00 0.  1.
</event>
<event>
 7    1  0.4894942E-006  0.1024176E+04  0.7818608E-02  0.9148536E-01
         -4   -1    0    0    0  501 -0.00000000000E+00  0.00000000000E+00  0.53084009015E+03  0.53084009015E+03  0.00000000000E+00 0. -1.
          2   -1    0    0  501    0  0.00000000000E+00 -0.00000000000E+00 -0.14529544134E+04  0.14529544134E+04  0.00000000000E+00 0. -1.
   -9000010    2    1    2    0  502  0.37035359135E+02 -0.23359568592E+03 -0.22386879113E+03  0.10555228395E+04  0.10040282201E+04 0.  0.
        -13    1    1    2    0    0  0.12816741709E+03  0.16277799694E+03  0.85323744376E-01  0.20718007031E+03  0.10566000000E+00 0.  1.
         13    1    3    3    0    0  0.31955765020E+03  0.87059055491E+02 -0.46033525803E+03  0.56710222350E+03  0.10566000000E+00 0. -1.
          2    1    1    2  502    0 -0.16520277622E+03  0.70817688984E+02 -0.69833085584E+03  0.72109159374E+03  0.00000000000E+00 0. -1.
         -4    1    3    3    0  502 -0.28252229107E+03 -0.32065474141E+03  0.23646646690E+03  0.48842061597E+03  0.00000000000E+00 0. -1.
</event>
<event>
 7    1  0.4894942E-006  0.1172724E+04  0.7818608E-02  0.8777573E-01
          2   -1    0    0  501    0  0.00000000000E+00  0.00000000000E+00  0.12980942643E+04  0.12980942643E+04  0.00000000000E+00 0.  1.
         -4   -1    0    0    0  501 -0.00000000000E+00 -0.00000000000E+00 -0.30273669114E+04  0.30273669114E+04  0.00000000000E+00 0. -1.
   -9000010    2    1    2    0  502  0.60535831013E+03 -0.25720229192E+02 -0.63211119369E+03  0.13293465503E+04  0.10002387094E+04 0.  0.
        -13    1    1    2    0    0 -0.60885901140E+03  0.73299860789E+02 -0.20000551019E+04  0.20919614211E+04  0.10566000000E+00 0.  1.
         13    1    3    3    0    0  0.52123157193E+03 -0.23062661524E+03 -0.84687795164E+03  0.10208198976E+04  0.10566000000E+00 0. -1.
          2    1    1    2  502    0  0.35007012710E+01 -0.47579631597E+02  0.90289364856E+03  0.90415320431E+03  0.00000000000E+00 0.  1.
         -4    1    3    3    0  502  0.84126738201E+02  0.20490638605E+03  0.21476675795E+03  0.30852665273E+03  0.00000000000E+00 0. -1.
</event>
<event>
 7    1  0.4894942E-006  0.9975270E+03  0.7818608E-02  0.9358408E-01
         -4   -1    0    0    0  501 -0.00000000000E+00  0.00000000000E+00  0.24133677001E+03  0.24133677001E+03  0.00000000000E+00 0. -1.
          2   -1    0    0  501    0  0.00000000000E+00 -0.00000000000E+00 -0.22618784906E+04  0.22618784906E+04  0.00000000000E+00 0. -1.
   -9000010    2    1    2    0  502  0.75887810182E+01  0.83625903321E+02 -0.12053773080E+04  0.15637939161E+04  0.99270643998E+03 0.  0.
        -13    1    1    2    0    0 -0.15025928480E+02 -0.97192111193E+02  0.23092577527E+02  0.10102159821E+03  0.10566000000E+00 0.  1.
         13    1    3    3    0    0 -0.38735725781E+03 -0.33413144598E+02 -0.10565408931E+04  0.11258067122E+04  0.10566000000E+00 0. -1.
          2    1    1    2  502    0  0.74371474618E+01  0.13566207872E+02 -0.83825699010E+03  0.83839974631E+03  0.00000000000E+00 0. -1.
         -4    1    3    3    0  502  0.39494603883E+03  0.11703904792E+03 -0.14883641495E+03  0.43798720385E+03  0.00000000000E+00 0. -1.
</event>
<event>
 7    1  0.4894942E-006  0.9795945E+03  0.7818608E-02  0.9293095E-01
         -4   -1    0    0    0  501 -0.00000000000E+00  0.00000000000E+00  0.17438978795E+04  0.17438978795E+04  0.00000000000E+00 0. -1.
          2   -1    0    0  501    0  0.00000000000E+00 -0.00000000000E+00 -0.64699506561E+03  0.64699506561E+03  0.00000000000E+00 0. -1.
   -9000010    2    1    2    0  502 -0.11550941839E+03  0.79998388121E+02  0.11478483260E+04  0.15097690217E+04  0.97062070423E+03 0.  0.
        -13    1    1    2    0    0  0.98746081418E+02 -0.87398789685E+02  0.40442702808E+03  0.42538285020E+03  0.10566000000E+00 0.  1.
         13    1    3    3    0    0 -0.22856658951E+03  0.33325792789E+03  0.11637984770E+04  0.12319620280E+04  0.10566000000E+00 0. -1.
          2    1    1    2  502    0  0.16763336967E+02  0.74004015635E+01 -0.45537254023E+03  0.45574107321E+03  0.00000000000E+00 0. -1.
         -4    1    3    3    0  502  0.11305717113E+03 -0.25325953977E+03 -0.15950150927E+02  0.27780699368E+03  0.00000000000E+00 0. -1.
</event>
<event>
 7    1  0.4894942E-006  0.1023538E+04  0.7818608E-02  0.9092055E-01
          2   -1    0    0  502    0  0.00000000000E+00  0.00000000000E+00  0.23582101608E+04  0.23582101608E+04  0.00000000000E+00 0.  1.
          4   -1    0    0  501    0 -0.00000000000E+00 -0.00000000000E+00 -0.78293857864E+03  0.78293857864E+03  0.00000000000E+00 0.  1.
    9000010    2    1    2  502    0 -0.73755746329E+02  0.23979900394E+03  0.13172773021E+03  0.10314577528E+04  0.99177085484E+03 0.  0.
        -13    1    3    3    0    0 -0.34851902093E+03  0.36055232186E+02  0.44584538137E+03  0.56704814872E+03  0.10566000000E+00 0.  1.
         13    1    1    2    0    0  0.16472170750E+03 -0.19437113746E+03 -0.28263471209E+03  0.38052039583E+03  0.10566000000E+00 0. -1.
          2    1    1    2  501    0 -0.90965961167E+02 -0.45427866475E+02  0.17261785640E+04  0.17291705908E+04  0.00000000000E+00 0.  1.
          4    1    3    3  502    0  0.27476327460E+03  0.20374377175E+03 -0.31411765116E+03  0.46440960409E+03  0.00000000000E+00 0.  1.
</event>
<event>
 7    1  0.4894942E-006  0.1016562E+04  0.7818608E-02  0.9125571E-01
          2   -1    0    0  501    0  0.00000000000E+00  0.00000000000E+00  0.16446873595E+04  0.16446873595E+04  0.00000000000E+00 0. -1.
         -4   -1    0    0    0  501 -0.00000000000E+00 -0.00000000000E+00 -0.61546993944E+03  0.61546993944E+03  0.00000000000E+00 0. -1.
   -9000010    2    1    2    0  502 -0.27185148560E+01  0.24445366529E+03  0.16485829693E+00  0.10207751565E+04  0.99106856881E+03 0.  0.
        -13    1    1    2    0    0 -0.66868527013E+01 -0.22197640748E+03  0.12384537529E+02  0.22242218282E+03  0.10566000000E+00 0.  1.
         13    1    3    3    0    0  0.22407149222E+03 -0.22635599681E+03 -0.28329380737E+03  0.42626337325E+03  0.10566000000E+00 0. -1.
          2    1    1    2  502    0  0.94053675573E+01 -0.22477257818E+02  0.10166680242E+04  0.10169599597E+04  0.00000000000E+00 0. -1.
         -4    1    3    3    0  502 -0.22679000708E+03  0.47080966210E+03  0.28345866566E+03  0.59451178322E+03  0.00000000000E+00 0. -1.
</event>
<event>
 7    1  0.4894942E-006  0.1113469E+04  0.7818608E-02  0.9268440E-01
          2   -1    0    0  501    0  0.00000000000E+00  0.00000000000E+00  0.38436347953E+04  0.38436347953E+04  0.00000000000E+00 0. -1.
         -4   -1    0    0    0  501 -0.00000000000E+00 -0.00000000000E+00 -0.31004382897E+03  0.31004382897E+03  0.00000000000E+00 0. -1.
   -9000010    2    1    2    0  502  0.73130186383E+00  0.41379828989E+03  0.12128629458E+04  0.16220558866E+04  0.99438383656E+03 0.  0.
        -13    1    1    2    0    0 -0.25930989734E+01  0.98909296019E+02 -0.46629982132E+02  0.10938070853E+03  0.10566000000E+00 0.  1.
         13    1    3    3    0    0  0.14475419363E+03 -0.18061112317E+03 -0.33350130292E+02  0.23385122780E+03  0.10566000000E+00 0. -1.
          2    1    1    2  502    0  0.18617971096E+01 -0.51270758591E+03  0.23673580027E+04  0.24222420292E+04  0.00000000000E+00 0. -1.
         -4    1    3    3    0  502 -0.14402289177E+03  0.59440941307E+03  0.12462130761E+04  0.13882046588E+04  0.00000000000E+00 0. -1.
</event>
<event>
 7    1  0.4894942E-006  0.1151319E+04  0.7818608E-02  0.8837405E-01
         -4   -1    0    0    0  501 -0.00000000000E+00  0.00000000000E+00  0.22057568564E+04  0.22057568564E+04  0.00000000000E+00 0. -1.
          2   -1    0    0  501    0  0.00000000000E+00 -0.00000000000E+00 -0.73661023454E+03  0.73661023454E+03  0.00000000000E+00 0.  1.
   -9000010    2    1    2    0  502 -0.10392937967E+03  0.12991070714E+03  0.12661772579E+04  0.16172415188E+04  0.99226366159E+03 0.  0.
        -13    1    1    2    0    0 -0.45254322100E+03  0.21827791693E+03  0.39729980332E+03  0.64053708774E+03  0.10566000000E+00 0.  1.
         13    1    3    3    0    0  0.31627892422E+03  0.24132932801E+03  0.10675805750E+04  0.11392982480E+04  0.10566000000E+00 0. -1.
          2    1    1    2  502    0  0.55647260066E+03 -0.34818862406E+03 -0.19433043936E+03  0.68458848433E+03  0.00000000000E+00 0.  1.
         -4    1    3    3    0  502 -0.42020830388E+03 -0.11141862088E+03  0.19859668282E+03  0.47794327086E+03  0.00000000000E+00 0. -1.
</event>
<event>
 7    1  0.4894942E-006  0.9984000E+03  0.7818608E-02  0.9279360E-01
          3   -1    0    0  501    0  0.00000000000E+00  0.00000000000E+00  0.74175407615E+03  0.74175407615E+03  0.00000000000E+00 0.  1.
         -4   -1    0    0    0  501 -0.00000000000E+00 -0.00000000000E+00 -0.22663125693E+04  0.22663125693E+04  0.00000000000E+00 0. -1.
   -9000010    2    1    2    0  502 -0.12901116207E+03 -0.36021472202E+02 -0.14762298767E+04  0.17823204690E+04  0.98968185750E+03 0.  0.
        -13    1    1    2    0    0  0.12934071128E+03  0.24130793058E+02 -0.63018227361E+03  0.64377094056E+03  0.10566000000E+00 0.  1.
         13    1    3    3    0    0 -0.16864973794E+03  0.40071754286E+03 -0.11680250725E+04  0.12463145126E+04  0.10566000000E+00 0. -1.
          3    1    1    2  502    0 -0.32954920545E+00  0.11890679144E+02  0.58185365714E+03  0.58197523588E+03  0.00000000000E+00 0.  1.
         -4    1    3    3    0  502  0.39638575865E+02 -0.43673901506E+03 -0.30820480424E+03  0.53600595643E+03  0.00000000000E+00 0. -1.
</event>
<event>
 7    1  0.4894942E-006  0.1017824E+04  0.7818608E-02  0.9203482E-01
          2   -1    0    0  502    0  0.00000000000E+00  0.00000000000E+00  0.20518901701E+04  0.20518901701E+04  0.00000000000E+00 0.  1.
          4   -1    0    0  501    0 -0.00000000000E+00 -0.00000000000E+00 -0.41069257088E+03  0.41069257088E+03  0.00000000000E+00 0.  1.
    9000010    2    1    2  502    0 -0.98314785677E+02 -0.11808792362E+03  0.27697509502E+03  0.10529207416E+04  0.10041495557E+04 0.  0.
        -13    1    3    3    0    0  0.21687004987E+03  0.30884991901E+03  0.35309332252E+03  0.51681311571E+03  0.10566000000E+00 0.  1.
         13    1    1    2    0    0  0.11903535567E+03  0.12506029310E+03  0.30704620527E+03  0.35225967147E+03  0.10566000000E+00 0. -1.
          2    1    1    2  501    0 -0.20720569997E+02 -0.69723694717E+01  0.10571762989E+04  0.10574023278E+04  0.00000000000E+00 0.  1.
          4    1    3    3  502    0 -0.31518483554E+03 -0.42693784263E+03 -0.76118227496E+02  0.53610762593E+03  0.00000000000E+00 0.  1.
</event>
<event>
 7    1  0.4894942E-006  0.1027820E+04  0.7818608E-02  0.9162995E-01
          2   -1    0    0  502    0  0.00000000000E+00  0.00000000000E+00  0.34720869833E+04  0.34720869833E+04  0.00000000000E+00 0.  1.
          4   -1    0    0  501    0 -0.00000000000E+00 -0.00000000000E+00 -0.32327387343E+03  0.32327387343E+03  0.00000000000E+00 0.  1.
    9000010    2    1    2  502    0  0.21231302224E+03  0.11017254862E+02  0.21269599168E+04  0.23642860425E+04  0.10102929297E+04 0.  0.
        -13    1    3    3    0    0 -0.33343928507E+03  0.20743002666E+03  0.49207598732E+03  0.62956156272E+03  0.10566000000E+00 0.  1.
         13    1    1    2    0    0 -0.18855449435E+03  0.11696587086E+00 -0.16099484520E+03  0.24793580291E+03  0.10566000000E+00 0. -1.
          2    1    1    2  501    0 -0.23758527891E+02 -0.11134220732E+02  0.11828480383E+04  0.11831390114E+04  0.00000000000E+00 0.  1.
          4    1    3    3  502    0  0.54575230731E+03 -0.19641277179E+03  0.16348839295E+04  0.17347244798E+04  0.00000000000E+00 0.  1.
</event>
<event>
 7    1  0.4894942E-006  0.1081204E+04  0.7818608E-02  0.8944822E-01
          2   -1    0    0  502    0  0.00000000000E+00  0.00000000000E+00  0.13897989526E+04  0.13897989526E+04  0.00000000000E+00 0.  1.
          4   -1    0    0  501    0 -0.00000000000E+00 -0.00000000000E+00 -0.54944165185E+03  0.54944165185E+03  0.00000000000E+00 0.  1.
    9000010    2    1    2  502    0  0.24181470147E+03 -0.16737197924E+03  0.53955124475E+03  0.11813725639E+04  0.10089786221E+04 0.  0.
        -13    1    3    3    0    0 -0.97941429553E+02  0.31763115916E+03 -0.61036731252E+02  0.33794610609E+03  0.10566000000E+00 0.  1.
         13    1    1    2    0    0 -0.40655098175E+03  0.91222024802E+02  0.12072461141E+02  0.41683439644E+03  0.10566000000E+00 0. -1.
          2    1    1    2  501    0  0.16473628028E+03  0.76149954439E+02  0.28873359483E+03  0.34103364407E+03  0.00000000000E+00 0.  1.
          4    1    3    3  502    0  0.33975613102E+03 -0.48500313841E+03  0.60058797601E+03  0.84342645782E+03  0.00000000000E+00 0.  1.
</event>
<event>
 7    1  0.4894942E-006  0.1156387E+04  0.7818608E-02  0.8867388E-01
         -4   -1    0    0    0  501 -0.00000000000E+00  0.00000000000E+00  0.71656258711E+03  0.71656258711E+03  0.00000000000E+00 0. -1.
          2   -1    0    0  501    0  0.00000000000E+00 -0.00000000000E+00 -0.18621871135E+04  0.18621871135E+04  0.00000000000E+00 0. -1.
   -9000010    2    1    2    0  502 -0.18609709124E+03 -0.29720924853E+03 -0.32409801275E+03  0.11316558726E+04  0.10259824694E+04 0.  0.
        -13    1    1    2    0    0 -0.40245826015E+03  0.17129032117E+03 -0.10994031528E+02  0.43753160479E+03  0.10566000000E+00 0.  1.
         13    1    3    3    0    0 -0.50332951625E+03 -0.45937601686E+03 -0.52129636128E+02  0.68343575918E+03  0.10566000000E+00 0. -1.
          2    1    1    2  502    0  0.58855535139E+03  0.12591892736E+03 -0.81053248212E+03  0.10095622232E+04  0.00000000000E+00 0. -1.
         -4    1    3    3    0  502  0.31723242501E+03  0.16216676833E+03 -0.27196837662E+03  0.44822011346E+03  0.00000000000E+00 0. -1.
</event>
<event>
 7    1  0.4894942E-006  0.1126970E+04  0.7818608E-02  0.8847209E-01
          2   -1    0    0  502    0  0.00000000000E+00  0.00000000000E+00  0.38798539918E+04  0.38798539918E+04  0.00000000000E+00 0. -1.
          4   -1    0    0  501    0 -0.00000000000E+00 -0.00000000000E+00 -0.10282479178E+04  0.10282479178E+04  0.00000000000E+00 0.  1.
    9000010    2    1    2  502    0  0.23975605318E+03  0.16320056196E+03 -0.17762978274E+03  0.10589618749E+04  0.10028611690E+04 0.  0.
        -13    1    3    3    0    0 -0.15973243395E+03  0.36827440497E+03  0.22123083123E+03  0.45834875331E+03  0.10566000000E+00 0.  1.
         13    1    1    2    0    0 -0.22360521869E+03 -0.68361258117E+03 -0.54917234980E+02  0.72134691295E+03  0.10566000000E+00 0. -1.
          2    1    1    2  501    0 -0.16150834494E+02  0.52041201921E+03  0.30841530917E+04  0.31277931217E+04  0.00000000000E+00 0. -1.
          4    1    3    3  502    0  0.39948848713E+03 -0.20507384300E+03 -0.39886061397E+03  0.60061312158E+03  0.00000000000E+00 0.  1.
</event>
<event>
 7    1  0.4894942E-006  0.1270755E+04  0.7818608E-02  0.8666586E-01
         -4   -1    0    0    0  501 -0.00000000000E+00  0.00000000000E+00  0.10965806753E+04  0.10965806753E+04  0.00000000000E+00 0. -1.
          1   -1    0    0  501    0  0.00000000000E+00 -0.00000000000E+00 -0.12924680042E+04  0.12924680042E+04  0.00000000000E+00 0.  1.
   -9000010    2    1    2    0  502  0.70079448365E+03  0.31713368960E+03  0.24390951402E+03  0.12897870434E+04  0.10061670244E+04 0.  0.
        -13    1    1    2    0    0 -0.70568585325E+03 -0.33797994427E+03 -0.13535531390E+03  0.79406803132E+03  0.10566000000E+00 0.  1.
         13    1    3    3    0    0  0.53652544490E+03 -0.30228989817E+03  0.39285445524E+02  0.61707543538E+03  0.10566000000E+00 0. -1.
          1    1    1    2  502    0  0.48913695966E+01  0.20846254664E+02 -0.30444152897E+03  0.30519360477E+03  0.00000000000E+00 0.  1.
         -4    1    3    3    0  502  0.16426903875E+03  0.61942358777E+03  0.20462406850E+03  0.67271160804E+03  0.00000000000E+00 0. -1.
</event>
<event>
 7    1  0.4894942E-006  0.1049362E+04  0.7818608E-02  0.9090374E-01
         -4   -1    0    0    0  501 -0.00000000000E+00  0.00000000000E+00  0.38563715154E+03  0.38563715154E+03  0.00000000000E+00 0. -1.
          1   -1    0    0  501    0  0.00000000000E+00 -0.00000000000E+00 -0.15048374968E+04  0.15048374968E+04  0.00000000000E+00 0.  1.
   -9000010    2    1    2    0  502  0.12739666373E+03 -0.21317004555E+03 -0.53370966727E+03  0.11797490211E+04  0.10223944276E+04 0.  0.
        -13    1    1    2    0    0 -0.14332773836E+03  0.18454163909E+03 -0.15819890518E+03  0.28217966246E+03  0.10566000000E+00 0.  1.
         13    1    3    3    0    0 -0.11046649393E+03 -0.27592414623E+03  0.23101070604E+03  0.37643450721E+03  0.10566000000E+00 0. -1.
          1    1    1    2  502    0  0.15931074630E+02  0.28628406466E+02 -0.42729177280E+03  0.42854596474E+03  0.00000000000E+00 0.  1.
         -4    1    3    3    0  502  0.23786315766E+03  0.62754100674E+02 -0.76472037331E+03  0.80331451392E+03  0.00000000000E+00 0. -1.
</event>
<event>
 7    1  0.4894942E-006  0.1031016E+04  0.7818608E-02  0.9082895E-01
          5   -1    0    0  501    0  0.00000000000E+00  0.00000000000E+00  0.51633645112E+03  0.51633645112E+03  0.00000000000E+00 0.  1.
         -4   -1    0    0    0  501 -0.00000000000E+00 -0.00000000000E+00 -0.23376048807E+04  0.23376048807E+04  0.00000000000E+00 0. -1.
   -9000010    2    1    2    0  502  0.39910055625E+02 -0.12622027914E+03 -0.12600152833E+04  0.16131490717E+04  0.99854245881E+03 0.  0.
        -13    1    1    2    0    0  0.22846259698E+02  0.27174484946E+03 -0.86022395705E+03  0.90241480609E+03  0.10566000000E+00 0.  1.
         13    1    3    3    0    0  0.24287112023E+03  0.13335014799E+03 -0.12533206615E+04  0.12835814484E+04  0.10566000000E+00 0. -1.
          5    1    1    2  502    0 -0.62756315323E+02 -0.14552457032E+03  0.29897081078E+03  0.33837745400E+03  0.00000000000E+00 0.  1.
         -4    1    3    3    0  502 -0.20296106460E+03 -0.25957042713E+03 -0.66946218135E+01  0.32956762333E+03  0.00000000000E+00 0. -1.
</event>
<event>
 7    1  0.4894942E-006  0.1090420E+04  0.7818608E-02  0.9085692E-01
         -4   -1    0    0    0  501 -0.00000000000E+00  0.00000000000E+00  0.10328510172E+04  0.10328510172E+04  0.00000000000E+00 0. -1.
          2   -1    0    0  501    0  0.00000000000E+00 -0.00000000000E+00 -0.95623814093E+03  0.95623814093E+03  0.00000000000E+00 0. -1.
   -9000010    2    1    2    0  502  0.54922576433E+03 -0.30280101353E+02  0.93257691597E+01  0.11357805679E+04  0.99365220461E+03 0.  0.
        -13    1    1    2    0    0 -0.15513283575E+03 -0.14829701175E+03  0.29466501493E+03  0.36453488531E+03  0.10566000000E+00 0.  1.
         13    1    3    3    0    0  0.14738323320E+03  0.26007810153E+03 -0.39547324911E+03  0.49574341977E+03  0.10566000000E+00 0. -1.
          2    1    1    2  502    0 -0.39409292857E+03  0.17857711311E+03 -0.22737790780E+03  0.48877370493E+03  0.00000000000E+00 0. -1.
         -4    1    3    3    0  502  0.40184253112E+03 -0.29035820288E+03  0.40479901827E+03  0.64003714813E+03  0.00000000000E+00 0. -1.
</event>
<event>
 7    1  0.4894942E-006  0.1093844E+04  0.7818608E-02  0.9212377E-01
          4   -1    0    0  501    0  0.00000000000E+00  0.00000000000E+00  0.23113314786E+04  0.23113314786E+04  0.00000000000E+00 0.  1.
          4   -1    0    0  502    0 -0.00000000000E+00 -0.00000000000E+00 -0.53619341951E+03  0.53619341951E+03  0.00000000000E+00 0.  1.
    9000010    2    1    2  501    0 -0.26418960662E+03 -0.31862194162E+03  0.13647603628E+03  0.10944622084E+04  0.10039450818E+04 0.  0.
        -13    1    3    3    0    0  0.64157382107E+02 -0.43236962769E+03  0.44934636313E+03  0.62687465242E+03  0.10566000000E+00 0.  1.
         13    1    1    2    0    0 -0.12715723159E+03  0.24176089631E+02  0.27012810788E+03  0.29953739447E+03  0.10566000000E+00 0. -1.
          4    1    3    3  501    0 -0.32834698873E+03  0.11374768607E+03 -0.31287032685E+03  0.46758755599E+03  0.00000000000E+00 0.  1.
          4    1    1    2  502    0  0.39134683821E+03  0.29444585199E+03  0.13685339150E+04  0.14535252952E+04  0.00000000000E+00 0.  1.
</event>
<event>
 7    1  0.4894942E-006  0.1276009E+04  0.7818608E-02  0.9146697E-01
         -4   -1    0    0    0  501 -0.00000000000E+00  0.00000000000E+00  0.24806986453E+04  0.24806986453E+04  0.00000000000E+00 0. -1.
          1   -1    0    0  501    0  0.00000000000E+00 -0.00000000000E+00 -0.18840933855E+04  0.18840933855E+04  0.00000000000E+00 0.  1.
   -9000010    2    1    2    0  502  0.16015459045E+03  0.69257593277E+03  0.21156027622E+04  0.24436755110E+04  0.99522059871E+03 0.  0.
        -13    1    1    2    0    0  0.74126458703E+02  0.74763787533E+02  0.79930921394E+02  0.13218668301E+03  0.10566000000E+00 0.  1.
         13    1    3    3    0    0  0.28544275600E+03 -0.14383321494E+02  0.14040235664E+04  0.14328177250E+04  0.10566000000E+00 0. -1.
          1    1    1    2  502    0 -0.23428104915E+03 -0.76733972030E+03 -0.15989284238E+04  0.17889298368E+04  0.00000000000E+00 0.  1.
         -4    1    3    3    0  502 -0.12528816556E+03  0.70695925426E+03  0.71157919581E+03  0.10108577860E+04  0.00000000000E+00 0. -1.
</event>
<event>
 7    1  0.4894942E-006  0.1009276E+04  0.7818608E-02  0.9300837E-01
         -4   -1    0    0    0  501 -0.00000000000E+00  0.00000000000E+00  0.68526044642E+03  0.68526044642E+03  0.00000000000E+00 0. -1.
          2   -1    0    0  501    0  0.00000000000E+00 -0.00000000000E+00 -0.18428066496E+04  0.18428066496E+04  0.00000000000E+00 0.  1.
   -9000010    2    1    2    0  502  0.10291178600E+03 -0.30783700400E+02 -0.52521428135E+03  0.11367630929E+04  0.10024179848E+04 0.  0.
        -13    1    1    2    0    0 -0.11718124911E+03 -0.10520655171E+02  0.36987944246E+03  0.38814036436E+03  0.10566000000E+00 0.  1.
         13    1    3    3    0    0  0.44334747293E+03  0.27593191886E+03 -0.41093443395E+03  0.66450171239E+03  0.10566000000E+00 0. -1.
          2    1    1    2  502    0  0.14269463112E+02  0.41304355570E+02 -0.10022113643E+04  0.10031636387E+04  0.00000000000E+00 0.  1.
         -4    1    3    3    0  502 -0.34043568693E+03 -0.30671561926E+03 -0.11427984740E+03  0.47226138055E+03  0.00000000000E+00 0. -1.
</event>
<event>
 7    1  0.4894942E-006  0.1072290E+04  0.7818608E-02  0.8958130E-01
          4   -1    0    0  501    0  0.00000000000E+00  0.00000000000E+00  0.16231137704E+04  0.16231137704E+04  0.00000000000E+00 0.  1.
         -4   -1    0    0    0  501 -0.00000000000E+00 -0.00000000000E+00 -0.23500271482E+04  0.23500271482E+04  0.00000000000E+00 0. -1.
   -9000010    2    1    2    0  502  0.24375162609E+03 -0.32136179705E+03 -0.12777881122E+04  0.16742024186E+04  0.10037544614E+04 0.  0.
        -13    1    1    2    0    0 -0.22496744012E+03  0.29624398781E+03 -0.83426798912E+03  0.91344071415E+03  0.10566000000E+00 0.  1.
         13    1    3    3    0    0  0.30106294069E+03 -0.66630215853E+03 -0.89652476955E+03  0.11568725661E+04  0.10566000000E+00 0. -1.
          4    1    1    2  502    0 -0.18784185974E+02  0.25117809244E+02  0.13851427235E+04  0.13854977858E+04  0.00000000000E+00 0.  1.
         -4    1    3    3    0  502 -0.57311314602E+02  0.34494036148E+03 -0.38126334264E+03  0.51732985241E+03  0.00000000000E+00 0. -1.
</event>
<event>
 7    1  0.4894942E-006  0.1240972E+04  0.7818608E-02  0.8693720E-01
         -4   -1    0    0    0  501 -0.00000000000E+00  0.00000000000E+00  0.26135970825E+04  0.26135970825E+04  0.00000000000E+00 0. -1.
          2   -1    0    0  501    0  0.00000000000E+00 -0.00000000000E+00 -0.74658922113E+03  0.74658922113E+03  0.00000000000E+00 0. -1.
   -9000010    2    1    2    0  502  0.35562384362E+03  0.63845842459E+03  0.78115085298E+02  0.12376168101E+04  0.99573888343E+03 0.  0.
        -13    1    1    2    0    0 -0.30728570893E+03 -0.67546628996E+03  0.18753476147E+04  0.20168311538E+04  0.10566000000E+00 0.  1.
         13    1    3    3    0    0  0.79919996632E+02  0.18843499146E+03  0.51391690121E+03  0.55317767885E+03  0.10566000000E+00 0. -1.
          2    1    1    2  502    0 -0.48338134687E+02  0.37007865372E+02 -0.86454838644E+02  0.10573833973E+03  0.00000000000E+00 0. -1.
         -4    1    3    3    0  502  0.27570384698E+03  0.45002343313E+03 -0.43580181591E+03  0.68443913123E+03  0.00000000000E+00 0. -1.
</event>
<event>
 7    1  0.4894942E-006  0.1041269E+04  0.7818608E-02  0.9045546E-01
          1   -1    0    0  501    0  0.00000000000E+00  0.00000000000E+00  0.20866576840E+04  0.20866576840E+04  0.00000000000E+00 0.  1.
         -4   -1    0    0    0  501 -0.00000000000E+00 -0.00000000000E+00 -0.21481166659E+04  0.21481166659E+04  0.00000000000E+00 0. -1.
   -9000010    2    1    2    0  502  0.89119781070E+02 -0.94158333601E+02 -0.29190615870E+03  0.10189129924E+04  0.96755689931E+03 0.  0.
        -13    1    1    2    0    0  0.28864521907E+03 -0.18664071925E+02 -0.14557393925E+04  0.14841972916E+04  0.10566000000E+00 0.  1.
         13    1    3    3    0    0  0.27484385537E+03 -0.19398908837E+03  0.26189259884E+03  0.42633162648E+03  0.10566000000E+00 0. -1.
          1    1    1    2  502    0 -0.37776500014E+03  0.11282240553E+03  0.16861865694E+04  0.17316640660E+04  0.00000000000E+00 0.  1.
         -4    1    3    3    0  502 -0.18572407430E+03  0.99830754771E+02 -0.55379875754E+03  0.59258136591E+03  0.00000000000E+00 0. -1.
</event>
<event>
 7    1  0.4894942E-006  0.1019717E+04  0.7818608E-02  0.9137757E-01
         -2   -1    0    0    0  501  0.00000000000E+00  0.00000000000E+00  0.13789738310E+03  0.13789738310E+03  0.00000000000E+00 0. -1.
         -4   -1    0    0    0  502 -0.00000000000E+00 -0.00000000000E+00 -0.34207437078E+04  0.34207437078E+04  0.00000000000E+00 0. -1.
   -9000010    2    1    2    0  501  0.18583764278E+02  0.19300792964E+03 -0.20061138812E+04  0.22486143367E+04  0.99708380472E+03 0.  0.
        -13    1    1    2    0    0 -0.92039507563E+02 -0.19590249587E+03 -0.10337797154E+04  0.10561958010E+04  0.10566000000E+00 0.  1.
         13    1    3    3    0    0  0.25944896593E+00 -0.27424526684E+03 -0.10965364433E+03  0.29535481472E+03  0.10566000000E+00 0. -1.
         -2    1    1    2    0  502  0.73455743285E+02  0.28945662289E+01 -0.24295272814E+03  0.25383095328E+03  0.00000000000E+00 0. -1.
         -4    1    3    3    0  501  0.18324315312E+02  0.46725319648E+03 -0.18964602369E+04  0.19532595220E+04  0.00000000000E+00 0. -1.
</event>
<event>
 7    1  0.4894942E-006  0.1028465E+04  0.7818608E-02  0.9086054E-01
         -4   -1    0    0    0  501 -0.00000000000E+00  0.00000000000E+00  0.20064288105E+04  0.20064288105E+04  0.00000000000E+00 0. -1.
          1   -1    0    0  501    0  0.00000000000E+00 -0.00000000000E+00 -0.32381422425E+03  0.32381422425E+03  0.00000000000E+00 0. -1.
   -9000010    2    1    2    0  502  0.11667509502E+03 -0.20492059857E+03  0.84233310210E+03  0.13257578946E+04  0.99624465397E+03 0.  0.
        -13    1    1    2    0    0 -0.14179461912E+03  0.21423067508E+03  0.90164388434E+03  0.93752984032E+03  0.10566000000E+00 0.  1.
         13    1    3    3    0    0 -0.37887536771E+03 -0.12163410672E+03  0.69712333367E+03  0.80269692518E+03  0.10566000000E+00 0. -1.
          1    1    1    2  502    0  0.25119524097E+02 -0.93100765111E+01 -0.61362400230E+02  0.66955299847E+02  0.00000000000E+00 0. -1.
         -4    1    3    3    0  502  0.49555046273E+03 -0.83286491847E+02  0.14520976843E+03  0.52306096938E+03  0.00000000000E+00 0. -1.
</event>
<event>
 7    1  0.4894942E-006  0.1163071E+04  0.7818608E-02  0.8909486E-01
         -4   -1    0    0    0  501  0.00000000000E+00  0.00000000000E+00  0.43543707708E+03  0.43543707708E+03  0.00000000000E+00 0.  1.
         -4   -1    0    0    0  502 -0.00000000000E+00 -0.00000000000E+00 -0.19178213131E+04  0.19178213131E+04  0.00000000000E+00 0. -1.
   -9000010    2    1    2    0  501 -0.24864674010E+03  0.29816370564E+03 -0.92944543864E+03  0.14956689080E+04  0.11056355015E+04 0.  0.
        -13    1    1    2    0    0  0.21825302788E+03 -0.28207797590E+03 -0.65723513771E+03  0.74777028965E+03  0.10566000000E+00 0.  1.
         13    1    3    3    0    0 -0.12288572432E+03  0.14074004185E+03  0.24272493032E+03  0.30630713930E+03  0.10566000000E+00 0. -1.
         -4    1    3    3    0  501 -0.12576101578E+03  0.15742366379E+03 -0.11721703690E+04  0.11893617687E+04  0.00000000000E+00 0. -1.
         -4    1    1    2    0  502  0.30393712218E+02 -0.16085729735E+02  0.10429634033E+03  0.10981919254E+03  0.00000000000E+00 0.  1.
</event>
<event>
 7    1  0.4894942E-006  0.1086379E+04  0.7818608E-02  0.8921218E-01
          2   -1    0    0  502    0  0.00000000000E+00  0.00000000000E+00  0.79503565974E+03  0.79503565974E+03  0.00000000000E+00 0. -1.
          4   -1    0    0  501    0 -0.00000000000E+00 -0.00000000000E+00 -0.15516652228E+04  0.15516652228E+04  0.00000000000E+00 0.  1.
    9000010    2    1    2  502    0 -0.46096353982E+03 -0.11609959710E+03 -0.10069329296E+04  0.14973305723E+04  0.10010586479E+04 0.  0.
        -13    1    3    3    0    0 -0.42948237853E+03 -0.45279521455E+03 -0.97504488210E+03  0.11576662529E+04  0.10566000000E+00 0.  1.
         13    1    1    2    0    0  0.39266313881E+03  0.40481738175E+02 -0.16049415125E+03  0.42612380296E+03  0.10566000000E+00 0. -1.
          2    1    1    2  501    0  0.68300401010E+02  0.75617858928E+02  0.41079751773E+03  0.42324650730E+03  0.00000000000E+00 0. -1.
          4    1    3    3  502    0 -0.31481161288E+02  0.33669561745E+03 -0.31888047487E+02  0.33966431944E+03  0.00000000000E+00 0.  1.
</event>
<event>
 7    1  0.4894942E-006  0.1037010E+04  0.7818608E-02  0.9149532E-01
          1   -1    0    0  501    0  0.00000000000E+00  0.00000000000E+00  0.15958044810E+04  0.15958044810E+04  0.00000000000E+00 0. -1.
         -4   -1    0    0    0  501 -0.00000000000E+00 -0.00000000000E+00 -0.34037860606E+03  0.34037860606E+03  0.00000000000E+00 0. -1.
   -9000010    2    1    2    0  502 -0.50780854823E+01  0.11763170337E+03  0.10453799024E+04  0.14643926411E+04  0.10187068580E+04 0.  0.
        -13    1    1    2    0    0 -0.19031303295E+03 -0.86610888489E+02  0.44386984659E+02  0.21375385865E+03  0.10566000000E+00 0.  1.
         13    1    3    3    0    0  0.33930783994E+03 -0.13159426729E+03  0.96554538731E+03  0.10318550128E+04  0.10566000000E+00 0. -1.
          1    1    1    2  502    0  0.19539111844E+03 -0.31020814879E+02  0.16565898793E+03  0.25803658733E+03  0.00000000000E+00 0. -1.
         -4    1    3    3    0  502 -0.34438592542E+03  0.24922597066E+03  0.79834515083E+02  0.43253762828E+03  0.00000000000E+00 0. -1.
</event>
<event>
 7    1  0.4894942E-006  0.1241403E+04  0.7818608E-02  0.8781494E-01
          2   -1    0    0  501    0  0.00000000000E+00  0.00000000000E+00  0.17620075714E+04  0.17620075714E+04  0.00000000000E+00 0.  1.
         -4   -1    0    0    0  501 -0.00000000000E+00 -0.00000000000E+00 -0.16210291920E+04  0.16210291920E+04  0.00000000000E+00 0. -1.
   -9000010    2    1    2    0  502  0.60626954268E+03  0.28618935924E+03  0.64287689676E+03  0.13613815146E+04  0.99528981518E+03 0.  0.
        -13    1    1    2    0    0  0.23447472217E+03 -0.45018289952E+03 -0.93342566981E+03  0.10625095438E+04  0.10566000000E+00 0.  1.
         13    1    3    3    0    0  0.13248009605E+03  0.33483258256E+03 -0.18609141928E+03  0.40533179210E+03  0.10566000000E+00 0. -1.
          2    1    1    2  502    0 -0.84074426485E+03  0.16399354029E+03  0.43152715243E+03  0.95914570500E+03  0.00000000000E+00 0.  1.
         -4    1    3    3    0  502  0.47378944663E+03 -0.48643223327E+02  0.82896831604E+03  0.95604972251E+03  0.00000000000E+00 0. -1.
</event>
<event>
 7    1  0.4894942E-006  0.1139188E+04  0.7818608E-02  0.8837124E-01
          2   -1    0    0  501    0  0.00000000000E+00  0.00000000000E+00  0.26043323100E+04  0.26043323100E+04  0.00000000000E+00 0. -1.
         -4   -1    0    0    0  501 -0.00000000000E+00 -0.00000000000E+00 -0.15708921242E+04  0.15708921242E+04  0.00000000000E+00 0. -1.
   -9000010    2    1    2    0  502  0.76311697122E+02 -0.52088469528E+03  0.16928510672E+03  0.11549510903E+04  0.10139577076E+04 0.  0.
        -13    1    1    2    0    0 -0.49336671068E+02  0.51629721843E+03 -0.10155738884E+04  0.11403452367E+04  0.10566000000E+00 0.  1.
         13    1    3    3    0    0 -0.26047111184E+03 -0.85068274776E+02  0.45752915669E+03  0.53330549582E+03  0.10566000000E+00 0. -1.
          2    1    1    2  502    0 -0.26975026053E+02  0.45874768584E+01  0.18797289675E+04  0.18799281072E+04  0.00000000000E+00 0. -1.
         -4    1    3    3    0  502  0.33678280896E+03 -0.43581642051E+03 -0.28824404998E+03  0.62164559449E+03  0.00000000000E+00 0. -1.
</event>
<event>
 7    1  0.4894942E-006  0.1320274E+04  0.7818608E-02  0.9110911E-01
         -4   -1    0    0    0  501 -0.00000000000E+00  0.00000000000E+00  0.31520909282E+04  0.31520909282E+04  0.00000000000E+00 0. -1.
          1   -1    0    0  501    0  0.00000000000E+00 -0.00000000000E+00 -0.47404452003E+03  0.47404452003E+03  0.00000000000E+00 0. -1.
   -9000010    2    1    2    0  502 -0.64720480952E+03 -0.50609167974E+03  0.22172646204E+04  0.25785444479E+04  0.10284095581E+04 0.  0.
        -13    1    1    2    0    0 -0.69331597642E+02  0.84642707621E+02  0.48538639902E+02  0.11969657101E+03  0.10566000000E+00 0.  1.
         13    1    3    3    0    0 -0.63430457865E+03  0.26402706998E+02  0.17786208874E+04  0.18885263232E+04  0.10566000000E+00 0. -1.
          1    1    1    2  502    0  0.71653640717E+03  0.42144897212E+03  0.41224314784E+03  0.92789442925E+03  0.00000000000E+00 0. -1.
         -4    1    3    3    0  502 -0.12900230879E+02 -0.53249438674E+03  0.43864373301E+03  0.69001812467E+03  0.00000000000E+00 0. -1.
</event>
<event>
 7    1  0.4894942E-006  0.1138488E+04  0.7818608E-02  0.8825855E-01
          2   -1    0    0  502    0  0.00000000000E+00  0.00000000000E+00  0.26914815489E+04  0.26914815489E+04  0.00000000000E+00 0. -1.
          4   -1    0    0  501    0 -0.00000000000E+00 -0.00000000000E+00 -0.72800014654E+03  0.72800014654E+03  0.00000000000E+00 0.  1.
    9000010    2    1    2  502    0  0.71353016272E+02  0.96825143919E+02  0.51081253561E+03  0.11237101787E+04  0.99364418065E+03 0.  0.
        -13    1    3    3    0    0  0.36660354473E+03 -0.25328189242E+03  0.10893059472E+02  0.44572249881E+03  0.10566000000E+00 0.  1.
         13    1    1    2    0    0  0.51549080201E+03  0.17832888432E+03 -0.15108004744E+03  0.56600101575E+03  0.10566000000E+00 0. -1.
          2    1    1    2  501    0 -0.58684381828E+03 -0.27515402824E+03  0.16037489142E+04  0.17297705010E+04  0.00000000000E+00 0. -1.
          4    1    3    3  502    0 -0.29525052846E+03  0.35010703634E+03  0.49991947613E+03  0.67798767988E+03  0.00000000000E+00 0.  1.
</event>
<event>
 6    1  0.4894942E-006  0.1500034E+04  0.7818608E-02  0.8715669E-01
          2   -1    0    0  501    0  0.00000000000E+00  0.00000000000E+00  0.27595025142E+04  0.27595025142E+04  0.00000000000E+00 0. -1.
         -4   -1    0    0    0  501 -0.00000000000E+00 -0.00000000000E+00 -0.65506334008E+03  0.65506334008E+03  0.00000000000E+00 0. -1.
        -13    1    1    2    0    0 -0.15869506521E+03  0.34649573651E+03 -0.11239636381E+03  0.39733659900E+03  0.10566000000E+00 0.  1.
         13    1    1    2    0    0 -0.34697665161E+03 -0.38884118389E+03  0.12013190363E+04  0.13094875720E+04  0.10566000000E+00 0. -1.
          2    1    1    2  502    0  0.43737737473E+02  0.22885024008E+02  0.12064970512E+04  0.12075064590E+04  0.00000000000E+00 0. -1.
         -4    1    1    2    0  502  0.46193397935E+03  0.19460423376E+02 -0.19098054953E+03  0.50023522432E+03  0.00000000000E+00 0. -1.
</event>
<event>
 7    1  0.4894942E-006  0.1460476E+04  0.7818608E-02  0.8499760E-01
          2   -1    0    0  502    0  0.00000000000E+00  0.00000000000E+00  0.10288988052E+04  0.10288988052E+04  0.00000000000E+00 0. -1.
          4   -1    0    0  501    0 -0.00000000000E+00 -0.00000000000E+00 -0.21349064926E+04  0.21349064926E+04  0.00000000000E+00 0.  1.
    9000010    2    1    2  502    0  0.49365613565E+03  0.96215088574E+03 -0.75183817617E+03  0.16472593914E+04  0.98932914244E+03 0.  0.
        -13    1    3    3    0    0  0.64533136452E+03  0.70237146792E+03 -0.13810540587E+03  0.96376935169E+03  0.10566000000E+00 0.  1.
         13    1    1    2    0    0 -0.51171426383E+03 -0.93931486995E+03 -0.62852634009E+03  0.12406487352E+04  0.10566000000E+00 0. -1.
          2    1    1    2  501    0  0.18058128188E+02 -0.22836015797E+02  0.27435682885E+03  0.27589717133E+03  0.00000000000E+00 0. -1.
          4    1    3    3  502    0 -0.15167522887E+03  0.25977941783E+03 -0.61373277030E+03  0.68349003966E+03  0.00000000000E+00 0.  1.
</event>
<event>
 7    1  0.4894942E-006  0.1102007E+04  0.7818608E-02  0.9443609E-01
          1   -1    0    0  501    0  0.00000000000E+00  0.00000000000E+00  0.12132402214E+04  0.12132402214E+04  0.00000000000E+00 0.  1.
         -4   -1    0    0    0  501 -0.00000000000E+00 -0.00000000000E+00 -0.11792259757E+04  0.11792259757E+04  0.00000000000E+00 0. -1.
   -9000010    2    1    2    0  502 -0.35533875426E+03 -0.23392693945E+03 -0.73696451005E+03  0.13402229177E+04  0.10354194014E+04 0.  0.
        -13    1    1    2    0    0  0.32939832054E+02  0.41476660694E+02 -0.94777861241E+02  0.10857347772E+03  0.10566000000E+00 0.  1.
         13    1    3    3    0    0 -0.11929870482E+03 -0.59204263156E+03 -0.67684964495E+03  0.90712298592E+03  0.10566000000E+00 0. -1.
          1    1    1    2  502    0  0.32239892220E+03  0.19245027875E+03  0.86575661697E+03  0.94366980171E+03  0.00000000000E+00 0.  1.
         -4    1    3    3    0  502 -0.23604004944E+03  0.35811569211E+03 -0.60114865103E+02  0.43309993175E+03  0.00000000000E+00 0. -1.
</event>
<event>
 7    1  0.4894942E-006  0.1253341E+04  0.7818608E-02  0.8690369E-01
          4   -1    0    0  501    0 -0.00000000000E+00  0.00000000000E+00  0.23045734327E+04  0.23045734327E+04  0.00000000000E+00 0.  1.
          2   -1    0    0  502    0  0.00000000000E+00 -0.00000000000E+00 -0.11000304822E+04  0.11000304822E+04  0.00000000000E+00 0. -1.
    9000010    2    1    2  502    0  0.71532975093E+03  0.19365137019E+02  0.57668367189E+03  0.13723798586E+04  0.10192108504E+04 0.  0.
        -13    1    3    3    0    0  0.34302002497E+03 -0.35951531191E+03 -0.10529490390E+03  0.50793801293E+03  0.10566000000E+00 0.  1.
         13    1    1    2    0    0 -0.73220257664E+03  0.43661426412E+02  0.12270060521E+04  0.14295351680E+04  0.10566000000E+00 0. -1.
          2    1    1    2  501    0  0.16872825705E+02 -0.63026563431E+02 -0.59914677349E+03  0.60268888834E+03  0.00000000000E+00 0. -1.
          4    1    3    3  502    0  0.37230972597E+03  0.37888044893E+03  0.68197857579E+03  0.86444184563E+03  0.00000000000E+00 0.  1.
</event>
<event>
 7    1  0.4894942E-006  0.1027897E+04  0.7818608E-02  0.9081169E-01
         -4   -1    0    0    0  501 -0.00000000000E+00  0.00000000000E+00  0.71447638201E+03  0.71447638201E+03  0.00000000000E+00 0. -1.
          1   -1    0    0  501    0  0.00000000000E+00 -0.00000000000E+00 -0.19167646267E+04  0.19167646267E+04  0.00000000000E+00 0.  1.
   -9000010    2    1    2    0  502 -0.21381592893E+02 -0.30314856441E+03 -0.19869616645E+03  0.10584739024E+04  0.99424876706E+03 0.  0.
        -13    1    1    2    0    0  0.40156578383E+02  0.25380572661E+03  0.22590041882E+03  0.34214164909E+03  0.10566000000E+00 0.  1.
         13    1    3    3    0    0 -0.37377494623E+03  0.16985413700E+03  0.59038668451E+02  0.41478152541E+03  0.10566000000E+00 0. -1.
          1    1    1    2  502    0 -0.18774985490E+02  0.49342837793E+02 -0.12294924970E+04  0.12306254572E+04  0.00000000000E+00 0.  1.
         -4    1    3    3    0  502  0.35239335334E+03 -0.47300270141E+03 -0.25773483490E+03  0.64369237695E+03  0.00000000000E+00 0. -1.
</event>
<event>
 7    1  0.4894942E-006  0.1088749E+04  0.7818608E-02  0.8921654E-01
         -4   -1    0    0    0  501 -0.00000000000E+00  0.00000000000E+00  0.31612907661E+03  0.31612907661E+03  0.00000000000E+00 0. -1.
          2   -1    0    0  501    0  0.00000000000E+00 -0.00000000000E+00 -0.27921283340E+04  0.27921283340E+04  0.00000000000E+00 0. -1.
   -9000010    2    1    2    0  502  0.41467579887E+03 -0.10793535834E+03 -0.14918621634E+04  0.18491817569E+04  0.10050942224E+04 0.  0.
        -13    1    1    2    0    0 -0.37312807215E+03  0.18878266220E+03 -0.18923225791E+03  0.45899053408E+03  0.10566000000E+00 0.  1.
         13    1    3    3    0    0  0.69901785516E+03  0.13919536228E+03 -0.10414314893E+04  0.12619749874E+04  0.10566000000E+00 0. -1.
          2    1    1    2  502    0 -0.41547726721E+02 -0.80847303864E+02 -0.79490483614E+03  0.80008511963E+03  0.00000000000E+00 0. -1.
         -4    1    3    3    0  502 -0.28434205629E+03 -0.24713072062E+03 -0.45043067404E+03  0.58720676952E+03  0.00000000000E+00 0. -1.
</event>
<event>
 7    1  0.4894942E-006  0.1008545E+04  0.7818608E-02  0.9631080E-01
          2   -1    0    0  502    0  0.00000000000E+00  0.00000000000E+00  0.17182080933E+04  0.17182080933E+04  0.00000000000E+00 0.  1.
          4   -1    0    0  501    0 -0.00000000000E+00 -0.00000000000E+00 -0.32145927240E+03  0.32145927240E+03  0.00000000000E+00 0.  1.
    9000010    2    1    2  502    0  0.35182526381E+02 -0.20411713808E+02  0.51088548738E+03  0.11307357162E+04  0.10079210438E+04 0.  0.
        -13    1    3    3    0    0 -0.25610721399E+03 -0.41678520174E+03  0.12328392948E+03  0.50447968035E+03  0.10566000000E+00 0.  1.
         13    1    1    2    0    0 -0.31832993114E+02 -0.14911515877E+02  0.16478814971E+02  0.38823385520E+02  0.10566000000E+00 0. -1.
          2    1    1    2  501    0 -0.33495332665E+01  0.35323229685E+02  0.86938451858E+03  0.87010826399E+03  0.00000000000E+00 0.  1.
          4    1    3    3  502    0  0.29128974037E+03  0.39637348793E+03  0.38760155789E+03  0.62625603587E+03  0.00000000000E+00 0.  1.
</event>
<event>
 7    1  0.4894942E-006  0.9955120E+03  0.7818608E-02  0.9044306E-01
          4   -1    0    0  501    0 -0.00000000000E+00  0.00000000000E+00  0.14384590988E+04  0.14384590988E+04  0.00000000000E+00 0.  1.
          2   -1    0    0  502    0  0.00000000000E+00 -0.00000000000E+00 -0.11875007667E+04  0.11875007667E+04  0.00000000000E+00 0.  1.
    9000010    2    1    2  502    0  0.29282928505E+03 -0.15758047447E+03  0.53126854525E+03  0.11283703139E+04  0.93829243950E+03 0.  0.
        -13    1    3    3    0    0 -0.22803834835E+03 -0.36575729317E+03  0.18405418003E+03  0.46867455465E+03  0.10566000000E+00 0.  1.
         13    1    1    2    0    0 -0.28694817388E+03  0.16835364091E+03  0.56312873527E+03  0.65406130183E+03  0.10566000000E+00 0. -1.
          2    1    1    2  501    0 -0.58811111698E+01 -0.10773166445E+02 -0.84343894835E+03  0.84352824978E+03  0.00000000000E+00 0.  1.
          4    1    3    3  502    0  0.52086763340E+03  0.20817681870E+03  0.34721436522E+03  0.65969575926E+03  0.00000000000E+00 0.  1.
</event>
<event>
 7    1  0.4894942E-006  0.1018269E+04  0.7818608E-02  0.8975753E-01
          4   -1    0    0  501    0 -0.00000000000E+00  0.00000000000E+00  0.15157881667E+04  0.15157881667E+04  0.00000000000E+00 0.  1.
          2   -1    0    0  502    0  0.00000000000E+00 -0.00000000000E+00 -0.21821551094E+04  0.21821551094E+04  0.00000000000E+00 0. -1.
    9000010    2    1    2  502    0 -0.20717842028E+03 -0.36995685109E+03  0.10484949796E+04  0.14655898657E+04  0.93210566079E+03 0.  0.
        -13    1    3    3    0    0 -0.43632904969E+01  0.29397778985E+03  0.14976042423E+03  0.32995480760E+03  0.10566000000E+00 0.  1.
         13    1    1    2    0    0  0.20932971852E+03  0.34045869462E+03  0.10422172497E+03  0.41302933664E+03  0.10566000000E+00 0. -1.
          2    1    1    2  501    0 -0.21512982458E+01  0.29498156474E+02 -0.18190836473E+04  0.18193240737E+04  0.00000000000E+00 0. -1.
          4    1    3    3  502    0 -0.20281512978E+03 -0.66393464095E+03  0.89873455533E+03  0.11356350581E+04  0.00000000000E+00 0.  1.
</event>
<event>
 7    1  0.4894942E-006  0.1128932E+04  0.7818608E-02  0.8966885E-01
          2   -1    0    0  502    0  0.00000000000E+00  0.00000000000E+00  0.11853009547E+04  0.11853009547E+04  0.00000000000E+00 0. -1.
          4   -1    0    0  501    0 -0.00000000000E+00 -0.00000000000E+00 -0.15429478442E+04  0.15429478442E+04  0.00000000000E+00 0.  1.
    9000010    2    1    2  502    0 -0.72556350436E+03 -0.53124796642E+03 -0.94426026776E+03  0.15959584299E+04  0.92021141921E+03 0.  0.
        -13    1    3    3    0    0 -0.20590616642E+03  0.17421212081E+03 -0.59396472242E+03  0.65233527810E+03  0.10566000000E+00 0.  1.
         13    1    1    2    0    0  0.30481467119E+03  0.66028134591E+02  0.69930433618E+02  0.31962786963E+03  0.10566000000E+00 0. -1.
          2    1    1    2  501    0  0.42074883317E+03  0.46521983183E+03  0.51668294466E+03  0.81266249935E+03  0.00000000000E+00 0. -1.
          4    1    3    3  502    0 -0.51965733794E+03 -0.70546008723E+03 -0.35029554534E+03  0.94362315181E+03  0.00000000000E+00 0.  1.
</event>
<event>
 7    1  0.4894942E-006  0.1199770E+04  0.7818608E-02  0.8799586E-01
          2   -1    0    0  502    0  0.00000000000E+00  0.00000000000E+00  0.13359846946E+04  0.13359846946E+04  0.00000000000E+00 0. -1.
          4   -1    0    0  501    0 -0.00000000000E+00 -0.00000000000E+00 -0.21906073774E+04  0.21906073774E+04  0.00000000000E+00 0.  1.
    9000010    2    1    2  502    0  0.54988368861E+03 -0.79610961358E+03 -0.33267814670E+03  0.13969539132E+04  0.95112717255E+03 0.  0.
        -13    1    3    3    0    0  0.31294830901E+02 -0.39857950208E+03  0.29034662102E+03  0.49411148279E+03  0.10566000000E+00 0.  1.
         13    1    1    2    0    0 -0.51302663437E+03  0.89301078187E+02 -0.10992023070E+04  0.12163127611E+04  0.10566000000E+00 0. -1.
          2    1    1    2  501    0 -0.36857054235E+02  0.70680853540E+03  0.57725777084E+03  0.91332539773E+03  0.00000000000E+00 0. -1.
          4    1    3    3  502    0  0.51858885770E+03 -0.39753011150E+03 -0.62302476772E+03  0.90284243037E+03  0.00000000000E+00 0.  1.
</event>
<event>
 7    1  0.4894942E-006  0.9976102E+03  0.7818608E-02  0.9500598E-01
          4   -1    0    0  501    0 -0.00000000000E+00  0.00000000000E+00  0.13417935494E+04  0.13417935494E+04  0.00000000000E+00 0.  1.
          2   -1    0    0  502    0  0.00000000000E+00 -0.00000000000E+00 -0.58737736401E+03  0.58737736401E+03  0.00000000000E+00 0.  1.
    9000010    2    1    2  502    0  0.12792849770E+02  0.78527347957E+02  0.78861257517E+03  0.12728336023E+04  0.99592438674E+03 0.  0.
        -13    1    3    3    0    0  0.29386247030E+03  0.44217134503E+03  0.50520820877E+03  0.73287515662E+03  0.10566000000E+00 0.  1.
         13    1    1    2    0    0 -0.36193471490E+01 -0.57622988847E+02  0.30800780584E+03  0.31337250699E+03  0.10566000000E+00 0. -1.
          2    1    1    2  501    0 -0.91735026206E+01 -0.20904359110E+02 -0.34220419560E+03  0.34296480412E+03  0.00000000000E+00 0.  1.
          4    1    3    3  502    0 -0.28106962053E+03 -0.36364399707E+03  0.28340436641E+03  0.53995844571E+03  0.00000000000E+00 0.  1.
</event>
<event>
 7    1  0.4894942E-006  0.1057788E+04  0.7818608E-02  0.9038076E-01
          2   -1    0    0  502    0  0.00000000000E+00  0.00000000000E+00  0.13407131286E+04  0.13407131286E+04  0.00000000000E+00 0.  1.
          4   -1    0    0  501    0 -0.00000000000E+00 -0.00000000000E+00 -0.79804541506E+03  0.79804541506E+03  0.00000000000E+00 0.  1.
    9000010    2    1    2  502    0 -0.44981481914E+03  0.24475718829E+03  0.78689906121E+02  0.11430327189E+04  0.10188681182E+04 0.  0.
        -13    1    3    3    0    0  0.17930116397E+02  0.40276596710E+03  0.38872655964E+03  0.56004487558E+03  0.10566000000E+00 0.  1.
         13    1    1    2    0    0  0.22079359561E+03 -0.13450694948E+03 -0.17220979437E+03  0.31064152292E+03  0.10566000000E+00 0. -1.
          2    1    1    2  501    0  0.22902122353E+03 -0.11025023881E+03  0.63618760175E+03  0.68508430182E+03  0.00000000000E+00 0.  1.
          4    1    3    3  502    0 -0.46774493554E+03 -0.15800877881E+03 -0.31003665352E+03  0.58298784329E+03  0.00000000000E+00 0.  1.
</event>
<event>
 7    1  0.4894942E-006  0.1489135E+04  0.7818608E-02  0.8478787E-01
          2   -1    0    0  502    0  0.00000000000E+00  0.00000000000E+00  0.25817239073E+04  0.25817239073E+04  0.00000000000E+00 0. -1.
          4   -1    0    0  501    0 -0.00000000000E+00 -0.00000000000E+00 -0.32770518059E+04  0.32770518059E+04  0.00000000000E+00 0.  1.
    9000010    2    1    2  502    0  0.98859298199E+03 -0.48594253977E+03 -0.17854482054E+03  0.14898751909E+04  0.98711377023E+03 0.  0.
        -13    1    3    3    0    0  0.55251707793E+02 -0.15717352685E+03  0.33563462299E+03  0.37470906057E+03  0.10566000000E+00 0.  1.
         13    1    1    2    0    0 -0.10207487705E+04  0.45531470764E+03 -0.23147063227E+04  0.25704289344E+04  0.10566000000E+00 0. -1.
          2    1    1    2  501    0  0.32155788505E+02  0.30627832125E+02  0.17979232447E+04  0.17984715879E+04  0.00000000000E+00 0. -1.
          4    1    3    3  502    0  0.93334127420E+03 -0.32876901292E+03 -0.51417944353E+03  0.11151661303E+04  0.00000000000E+00 0.  1.
</event>
<event>
 7    1  0.4894942E-006  0.1208765E+04  0.7818608E-02  0.8989892E-01
         -4   -1    0    0    0  501 -0.00000000000E+00  0.00000000000E+00  0.13608436757E+04  0.13608436757E+04  0.00000000000E+00 0. -1.
          2   -1    0    0  501    0  0.00000000000E+00 -0.00000000000E+00 -0.15072217334E+04  0.15072217334E+04  0.00000000000E+00 0. -1.
   -9000010    2    1    2    0  502 -0.27326051838E+03  0.69264918655E+03  0.74577523986E+03  0.14567895437E+04  0.10057936466E+04 0.  0.
        -13    1    1    2    0    0  0.22973563458E+03 -0.27596036688E+02  0.69182369614E+02  0.24150820787E+03  0.10566000000E+00 0.  1.
         13    1    3    3    0    0 -0.11929306599E+03 -0.23824022707E+03  0.33415930602E+03  0.42737769520E+03  0.10566000000E+00 0. -1.
          2    1    1    2  502    0  0.43524883793E+02 -0.66505314986E+03 -0.96133566717E+03  0.11697676575E+04  0.00000000000E+00 0. -1.
         -4    1    3    3    0  502 -0.15396745239E+03  0.93088941362E+03  0.41161593384E+03  0.10294118485E+04  0.00000000000E+00 0. -1.
</event>
<event>
 7    1  0.4894942E-006  0.1006966E+04  0.7818608E-02  0.9131244E-01
          4   -1    0    0  501    0 -0.00000000000E+00  0.00000000000E+00  0.11658615087E+04  0.11658615087E+04  0.00000000000E+00 0.  1.
          2   -1    0    0  502    0  0.00000000000E+00 -0.00000000000E+00 -0.60927089474E+03  0.60927089474E+03  0.00000000000E+00 0.  1.
    9000010    2    1    2  502    0 -0.10645701175E+03 -0.19052858420E+03  0.15205774707E+03  0.10163283508E+04  0.98090138215E+03 0.  0.
        -13    1    3    3    0    0  0.54114039765E+02 -0.26863976122E+03  0.53093356494E+03  0.59748314801E+03  0.10566000000E+00 0.  1.
         13    1    1    2    0    0  0.11811749497E+03  0.19515413370E+03  0.55903912143E+03  0.60378939123E+03  0.10566000000E+00 0. -1.
          2    1    1    2  501    0 -0.11660483228E+02 -0.46255494953E+01 -0.15450625449E+03  0.15501466142E+03  0.00000000000E+00 0.  1.
          4    1    3    3  502    0 -0.16057105151E+03  0.78111177016E+02 -0.37887581787E+03  0.41884520282E+03  0.00000000000E+00 0.  1.
</event>
<event>
 6    1  0.4894942E-006  0.6184673E+03  0.7818608E-02  0.9602267E-01
          2   -1    0    0  501    0  0.00000000000E+00  0.00000000000E+00  0.19539721537E+04  0.19539721537E+04  0.00000000000E+00 0.  1.
         -4   -1    0    0    0  501 -0.00000000000E+00 -0.00000000000E+00 -0.11918787823E+03  0.11918787823E+03  0.00000000000E+00 0. -1.
        -13    1    1    2    0    0  0.15581337483E+03  0.58065598653E+02  0.61218854819E+03  0.63436917582E+03  0.10566000000E+00 0.  1.
         13    1    1    2    0    0 -0.24310941847E+03 -0.24945844889E+03  0.33283020463E+03  0.48177553212E+03  0.10566000000E+00 0. -1.
          2    1    1    2  502    0  0.21958836163E+02 -0.52042590547E+02  0.42109882937E+03  0.42487038708E+03  0.00000000000E+00 0.  1.
         -4    1    1    2    0  502  0.65337207471E+02  0.24343544078E+03  0.46866669330E+03  0.53214493695E+03  0.00000000000E+00 0. -1.
</event>
<event>
 7    1  0.4894942E-006  0.1053072E+04  0.7818608E-02  0.9053776E-01
         -4   -1    0    0    0  501 -0.00000000000E+00  0.00000000000E+00  0.87200124962E+03  0.87200124962E+03  0.00000000000E+00 0. -1.
          1   -1    0    0  501    0  0.00000000000E+00 -0.00000000000E+00 -0.17133484707E+04  0.17133484707E+04  0.00000000000E+00 0.  1.
   -9000010    2    1    2    0  502  0.26632049923E+03 -0.15158067799E+03 -0.27269492455E+03  0.10972774550E+04  0.10177190090E+04 0.  0.
        -13    1    1    2    0    0 -0.23661887228E+03  0.12694999011E+03  0.42008943616E+03  0.49857791392E+03  0.10566000000E+00 0.  1.
         13    1    3    3    0    0  0.26967263112E+03  0.32819692070E+03 -0.41801446419E+03  0.59596363158E+03  0.10566000000E+00 0. -1.
          1    1    1    2  502    0 -0.29701626954E+02  0.24630687877E+02 -0.98874173270E+03  0.98949435138E+03  0.00000000000E+00 0.  1.
         -4    1    3    3    0  502 -0.33521318877E+01 -0.47977759868E+03  0.14531953964E+03  0.50131382346E+03  0.00000000000E+00 0. -1.
</event>
<event>
 7    1  0.4894942E-006  0.1035470E+04  0.7818608E-02  0.9052472E-01
          4   -1    0    0  501    0 -0.00000000000E+00  0.00000000000E+00  0.27280919794E+04  0.27280919794E+04  0.00000000000E+00 0.  1.
          2   -1    0    0  502    0  0.00000000000E+00 -0.00000000000E+00 -0.86779794728E+03  0.86779794728E+03  0.00000000000E+00 0.  1.
    9000010    2    1    2  502    0  0.27483579139E+03 -0.12663307693E+03  0.17456679098E+04  0.20320615289E+04  0.99516177457E+03 0.  0.
        -13    1    3    3    0    0 -0.29751615998E+03  0.22033380763E+03  0.58827941859E+03  0.69507951900E+03  0.10566000000E+00 0.  1.
         13    1    1    2    0    0 -0.25161084435E+03  0.13037474163E+03  0.81510169432E+03  0.86295792105E+03  0.10566000000E+00 0. -1.
          2    1    1    2  501    0 -0.23224947045E+02 -0.37416646942E+01 -0.70047557198E+03  0.70087047674E+03  0.00000000000E+00 0.  1.
          4    1    3    3  502    0  0.57235195137E+03 -0.34696688457E+03  0.11573884912E+04  0.13369820099E+04  0.00000000000E+00 0.  1.
</event>
<event>
 7    1  0.4894942E-006  0.9705410E+03  0.7818608E-02  0.9185224E-01
          2   -1    0    0  501    0  0.00000000000E+00  0.00000000000E+00  0.12117309326E+04  0.12117309326E+04  0.00000000000E+00 0.  1.
         -4   -1    0    0    0  501 -0.00000000000E+00 -0.00000000000E+00 -0.19107512299E+04  0.19107512299E+04  0.00000000000E+00 0. -1.
   -9000010    2    1    2    0  502  0.19889936906E+03  0.91925031211E+02 -0.63952747608E+03  0.11647222945E+04  0.94845741092E+03 0.  0.
        -13    1    1    2    0    0 -0.18950161895E+03 -0.79076363039E+02 -0.99810732148E+03  0.10190103881E+04  0.10566000000E+00 0.  1.
         13    1    3    3    0    0 -0.36696442491E+03 -0.33751883028E+02 -0.12350684276E+03  0.38865927253E+03  0.10566000000E+00 0. -1.
          2    1    1    2  502    0 -0.93977501112E+01 -0.12848668172E+02  0.93861450017E+03  0.93874947985E+03  0.00000000000E+00 0.  1.
         -4    1    3    3    0  502  0.56586379397E+03  0.12567691424E+03 -0.51602063332E+03  0.77606302199E+03  0.00000000000E+00 0. -1.
</event>
<event>
 7    1  0.4894942E-006  0.1310982E+04  0.7818608E-02  0.8805995E-01
          2   -1    0    0  501    0  0.00000000000E+00  0.00000000000E+00  0.12662537206E+04  0.12662537206E+04  0.00000000000E+00 0. -1.
         -4   -1    0    0    0  501 -0.00000000000E+00 -0.00000000000E+00 -0.29252875523E+04  0.29252875523E+04  0.00000000000E+00 0. -1.
   -9000010    2    1    2    0  502 -0.57509204123E+03 -0.28820189722E+03 -0.14521956924E+03  0.11968373340E+04  0.99876908808E+03 0.  0.
        -13    1    1    2    0    0 -0.36751672140E+03  0.12583389953E+03 -0.19175449798E+04  0.19564972455E+04  0.10566000000E+00 0.  1.
         13    1    3    3    0    0  0.11161033891E+03 -0.17494861510E+03 -0.40410085008E+03  0.45427017718E+03  0.10566000000E+00 0. -1.
          2    1    1    2  502    0  0.94260876263E+03  0.16236799770E+03  0.40373071732E+03  0.10382066934E+04  0.00000000000E+00 0. -1.
         -4    1    3    3    0  502 -0.68670238014E+03 -0.11325328213E+03  0.25888128084E+03  0.74256715681E+03  0.00000000000E+00 0. -1.
</event>
<event>
 7    1  0.4894942E-006  0.1034545E+04  0.7818608E-02  0.9077639E-01
          1   -1    0    0  501    0  0.00000000000E+00  0.00000000000E+00  0.16554687664E+04  0.16554687664E+04  0.00000000000E+00 0.  1.
         -4   -1    0    0    0  501 -0.00000000000E+00 -0.00000000000E+00 -0.53443567321E+03  0.53443567321E+03  0.00000000000E+00 0. -1.
   -9000010    2    1    2    0  502 -0.13363281573E+03 -0.22706728699E+03  0.75577137020E+03  0.12820163193E+04  0.10014780061E+04 0.  0.
        -13    1    1    2    0    0  0.14992531701E+03  0.21153849088E+03 -0.20909726757E+03  0.33308829501E+03  0.10566000000E+00 0.  1.
         13    1    3    3    0    0  0.43346164895E+03 -0.42228360352E+02  0.26671932658E+03  0.51069701964E+03  0.10566000000E+00 0. -1.
          1    1    1    2  502    0 -0.16292501274E+02  0.15528796111E+02  0.57435899053E+03  0.57479982525E+03  0.00000000000E+00 0.  1.
         -4    1    3    3    0  502 -0.56709446468E+03 -0.18483892664E+03  0.48905204362E+03  0.77131929967E+03  0.00000000000E+00 0. -1.
</event>
<event>
 7    1  0.4894942E-006  0.1001394E+04  0.7818608E-02  0.9313554E-01
          1   -1    0    0  501    0  0.00000000000E+00  0.00000000000E+00  0.12031048457E+04  0.12031048457E+04  0.00000000000E+00 0.  1.
         -4   -1    0    0    0  501 -0.00000000000E+00 -0.00000000000E+00 -0.13393745471E+04  0.13393745471E+04  0.00000000000E+00 0. -1.
   -9000010    2    1    2    0  502 -0.94101251728E+00  0.43803221434E+02 -0.76148882900E+03  0.12535713107E+04  0.99481464935E+03 0.  0.
        -13    1    1    2    0    0  0.45788943098E+02 -0.10848777154E+03 -0.31971008523E+03  0.34070628648E+03  0.10566000000E+00 0.  1.
         13    1    3    3    0    0 -0.13509093034E+03  0.15833610566E+03 -0.96330551957E+03  0.98553407705E+03  0.10566000000E+00 0. -1.
          1    1    1    2  502    0 -0.44847930581E+02  0.64684550103E+02  0.94492921288E+03  0.94820179564E+03  0.00000000000E+00 0.  1.
         -4    1    3    3    0  502  0.13414991782E+03 -0.11453288423E+03  0.20181669057E+03  0.26803723363E+03  0.00000000000E+00 0. -1.
</event>
<event>
 7    1  0.4894942E-006  0.1040683E+04  0.7818608E-02  0.9013199E-01
         -4   -1    0    0    0  501 -0.00000000000E+00  0.00000000000E+00  0.48489827796E+03  0.48489827796E+03  0.00000000000E+00 0. -1.
          2   -1    0    0  501    0  0.00000000000E+00 -0.00000000000E+00 -0.14448631673E+04  0.14448631673E+04  0.00000000000E+00 0. -1.
   -9000010    2    1    2    0  502  0.37205403977E+03  0.24180142065E+02 -0.29729167859E+03  0.10961457437E+04  0.98698746779E+03 0.  0.
        -13    1    1    2    0    0 -0.30030379444E+03  0.10353266031E+03 -0.27845637272E+03  0.42242081314E+03  0.10566000000E+00 0.  1.
         13    1    3    3    0    0  0.31852921993E+03  0.29871206776E+03 -0.56154785150E+03  0.71135487913E+03  0.10566000000E+00 0. -1.
          2    1    1    2  502    0 -0.71750245327E+02 -0.12771280237E+03 -0.38421683800E+03  0.41119488834E+03  0.00000000000E+00 0. -1.
         -4    1    3    3    0  502  0.53524819835E+02 -0.27453192570E+03  0.26425617291E+03  0.38479086461E+03  0.00000000000E+00 0. -1.
</event>
<event>
 7    1  0.4894942E-006  0.1219656E+04  0.7818608E-02  0.8725677E-01
         -4   -1    0    0    0  501 -0.00000000000E+00  0.00000000000E+00  0.15222704197E+04  0.15222704197E+04  0.00000000000E+00 0. -1.
          2   -1    0    0  501    0  0.00000000000E+00 -0.00000000000E+00 -0.13797350481E+04  0.13797350481E+04  0.00000000000E+00 0. -1.
   -9000010    2    1    2    0  502 -0.89904990540E+03  0.87805135418E+02 -0.93232310949E+01  0.13443393973E+04  0.99557069976E+03 0.  0.
        -13    1    1    2    0    0  0.37552275393E+03 -0.56635342802E+03  0.42060018221E+03  0.79917336579E+03  0.10566000000E+00 0.  1.
         13    1    3    3    0    0 -0.57343076404E+02 -0.33155827582E+03 -0.19048489127E+03  0.38665698448E+03  0.10566000000E+00 0. -1.
          2    1    1    2  502    0  0.52352715147E+03  0.47854829260E+03 -0.26874157949E+03  0.75849270480E+03  0.00000000000E+00 0. -1.
         -4    1    3    3    0  502 -0.84170682900E+03  0.41936341124E+03  0.18116166017E+03  0.95768241280E+03  0.00000000000E+00 0. -1.
</event>
<event>
 7    1  0.4894942E-006  0.1028954E+04  0.7818608E-02  0.9102683E-01
          4   -1    0    0  501    0 -0.00000000000E+00  0.00000000000E+00  0.15820053243E+04  0.15820053243E+04  0.00000000000E+00 0.  1.
          2   -1    0    0  502    0  0.00000000000E+00 -0.00000000000E+00 -0.17474618645E+04  0.17474618645E+04  0.00000000000E+00 0.  1.
    9000010    2    1    2  502    0 -0.18437491697E+03 -0.18218792183E+03  0.97252969035E+03  0.14194124050E+04  0.10008651398E+04 0.  0.
        -13    1    3    3    0    0 -0.21548892169E+03 -0.45360539150E+03  0.10924814891E+03  0.51393433022E+03  0.10566000000E+00 0.  1.
         13    1    1    2    0    0  0.17540896700E+03  0.15719329812E+03  0.34997659784E+03  0.42185503301E+03  0.10566000000E+00 0. -1.
          2    1    1    2  501    0  0.89659499709E+01  0.24994623711E+02 -0.14879628284E+04  0.14881997508E+04  0.00000000000E+00 0.  1.
          4    1    3    3  502    0  0.31114004718E+02  0.27141746967E+03  0.86328154144E+03  0.90547807479E+03  0.00000000000E+00 0.  1.
</event>
<event>
 7    1  0.4894942E-006  0.1114023E+04  0.7818608E-02  0.8874776E-01
          2   -1    0    0  501    0  0.00000000000E+00  0.00000000000E+00  0.37527342136E+04  0.37527342136E+04  0.00000000000E+00 0.  1.
         -4   -1    0    0    0  501 -0.00000000000E+00 -0.00000000000E+00 -0.22909023063E+04  0.22909023063E+04  0.00000000000E+00 0. -1.
   -9000010    2    1    2    0  502 -0.29662766648E+03  0.36267824291E+03 -0.16154575384E+04  0.19609269001E+04  0.10079721071E+04 0.  0.
        -13    1    1    2    0    0  0.15837427437E+03 -0.46467426101E+03 -0.38021375033E+03  0.62094048566E+03  0.10566000000E+00 0.  1.
         13    1    3    3    0    0 -0.14679475852E+02  0.11703796461E+03  0.13018898509E+03  0.17567741794E+03  0.10566000000E+00 0. -1.
          2    1    1    2  502    0  0.13825339212E+03  0.10199601810E+03  0.34575031960E+04  0.34617691342E+04  0.00000000000E+00 0.  1.
         -4    1    3    3    0  502 -0.28194819063E+03  0.24564027830E+03 -0.17456465235E+04  0.17852494821E+04  0.00000000000E+00 0. -1.
</event>
<event>
 7    1  0.4894942E-006  0.1046749E+04  0.7818608E-02  0.8948643E-01
         -4   -1    0    0    0  501 -0.00000000000E+00  0.00000000000E+00  0.35307077123E+04  0.35307077123E+04  0.00000000000E+00 0. -1.
          1   -1    0    0  501    0  0.00000000000E+00 -0.00000000000E+00 -0.75875070384E+03  0.75875070384E+03  0.00000000000E+00 0.  1.
   -9000010    2    1    2    0  502 -0.33961024690E+03 -0.23217438136E+03  0.11547701675E+04  0.15558678186E+04  0.95811818998E+03 0.  0.
        -13    1    1    2    0    0  0.33500892014E+03  0.25766255182E+03  0.21545463880E+04  0.21956072318E+04  0.10566000000E+00 0.  1.
         13    1    3    3    0    0  0.32019566048E+03 -0.17892767855E+03  0.53779502496E+03  0.65097148568E+03  0.10566000000E+00 0. -1.
          1    1    1    2  502    0  0.46013267543E+01 -0.25488170457E+02 -0.53735954703E+03  0.53798336575E+03  0.00000000000E+00 0.  1.
         -4    1    3    3    0  502 -0.65980590738E+03 -0.53246702815E+02  0.61697514256E+03  0.90489633291E+03  0.00000000000E+00 0. -1.
</event>
<event>
 7    1  0.4894942E-006  0.1046340E+04  0.7818608E-02  0.9069690E-01
          4   -1    0    0  501    0 -0.00000000000E+00  0.00000000000E+00  0.32159273910E+04  0.32159273910E+04  0.00000000000E+00 0.  1.
          2   -1    0    0  502    0  0.00000000000E+00 -0.00000000000E+00 -0.69411343017E+03  0.69411343017E+03  0.00000000000E+00 0.  1.
    9000010    2    1    2  502    0 -0.39946000973E+03 -0.42597081167E+03  0.18498412043E+04  0.21781172501E+04  0.99058712002E+03 0.  0.
        -13    1    3    3    0    0  0.30799627303E+03 -0.64425470475E+02  0.81381617194E+03  0.87253029651E+03  0.10566000000E+00 0.  1.
         13    1    1    2    0    0  0.14592259596E+03  0.21380565432E+03  0.11343527880E+04  0.11635130084E+04  0.10566000000E+00 0. -1.
          2    1    1    2  501    0  0.25353741377E+03  0.21216515735E+03 -0.46238003152E+03  0.56841056264E+03  0.00000000000E+00 0.  1.
          4    1    3    3  502    0 -0.70745628276E+03 -0.36154534120E+03  0.10360250324E+04  0.13055869536E+04  0.00000000000E+00 0.  1.
</event>
<event>
 7    1  0.4894942E-006  0.1066155E+04  0.7818608E-02  0.9112087E-01
         -4   -1    0    0    0  501 -0.00000000000E+00  0.00000000000E+00  0.85533833576E+03  0.85533833576E+03  0.00000000000E+00 0. -1.
          4   -1    0    0  501    0  0.00000000000E+00 -0.00000000000E+00 -0.17716877154E+04  0.17716877154E+04  0.00000000000E+00 0.  1.
   -9000010    2    1    2    0  502 -0.21398734477E+03  0.16131552498E+03  0.42151857663E+03  0.11217531156E+04  0.10044097071E+04 0.  0.
        -13    1    1    2    0    0 -0.15504045232E+03 -0.13687791974E+03 -0.93827327799E+03  0.96079647278E+03  0.10566000000E+00 0.  1.
         13    1    3    3    0    0 -0.36685350306E+03  0.50110656777E+03  0.41897207123E+03  0.74915078095E+03  0.10566000000E+00 0. -1.
          4    1    1    2  502    0  0.36902779709E+03 -0.24437605237E+02 -0.39959467830E+03  0.54447646276E+03  0.00000000000E+00 0.  1.
         -4    1    3    3    0  502  0.15286615829E+03 -0.33979104279E+03  0.25465054021E+01  0.37260233467E+03  0.00000000000E+00 0. -1.
</event>
<event>
 7    1  0.4894942E-006  0.1009442E+04  0.7818608E-02  0.9303849E-01
          4   -1    0    0  501    0 -0.00000000000E+00  0.00000000000E+00  0.25444843070E+04  0.25444843070E+04  0.00000000000E+00 0.  1.
          2   -1    0    0  502    0  0.00000000000E+00 -0.00000000000E+00 -0.29490742131E+04  0.29490742131E+04  0.00000000000E+00 0.  1.
    9000010    2    1    2  502    0  0.11174540409E+03 -0.13460654188E+03  0.22850385368E+04  0.25012007861E+04  0.10019971564E+04 0.  0.
        -13    1    3    3    0    0  0.22732054672E+03  0.20062276607E+03  0.15249914163E+03  0.33938197446E+03  0.10566000000E+00 0.  1.
         13    1    1    2    0    0 -0.11541586632E+03  0.12292363953E+02  0.12758868771E+03  0.17248422771E+03  0.10566000000E+00 0. -1.
          2    1    1    2  501    0  0.36704622371E+01  0.12231417793E+03 -0.28172171306E+04  0.28198735063E+04  0.00000000000E+00 0.  1.
          4    1    3    3  502    0 -0.11557514263E+03 -0.33522930795E+03  0.21325393952E+04  0.21618188117E+04  0.00000000000E+00 0.  1.
</event>
<event>
 7    1  0.4894942E-006  0.1034704E+04  0.7818608E-02  0.9079498E-01
          4   -1    0    0  501    0 -0.00000000000E+00  0.00000000000E+00  0.12908408994E+04  0.12908408994E+04  0.00000000000E+00 0.  1.
          2   -1    0    0  502    0  0.00000000000E+00 -0.00000000000E+00 -0.72057452189E+03  0.72057452189E+03  0.00000000000E+00 0.  1.
    9000010    2    1    2  502    0  0.76329634887E+01 -0.27043415257E+03  0.33693667337E+03  0.10913558061E+04  0.10021667928E+04 0.  0.
        -13    1    3    3    0    0 -0.16450914767E+03 -0.59675987607E+03  0.36960327516E+03  0.72096615838E+03  0.10566000000E+00 0.  1.
         13    1    1    2    0    0  0.76698267157E+02  0.24578719787E+03  0.54150694815E+03  0.59960299939E+03  0.10566000000E+00 0. -1.
          2    1    1    2  501    0 -0.84331230646E+02  0.24646954695E+02 -0.30817724405E+03  0.32045661577E+03  0.00000000000E+00 0.  1.
          4    1    3    3  502    0  0.17214211115E+03  0.32632572350E+03 -0.32666601788E+02  0.37038964770E+03  0.00000000000E+00 0.  1.
</event>
<event>
 7    1  0.4894942E-006  0.1093161E+04  0.7818608E-02  0.8909484E-01
          2   -1    0    0  502    0  0.00000000000E+00  0.00000000000E+00  0.26027937185E+04  0.26027937185E+04  0.00000000000E+00 0.  1.
          4   -1    0    0  501    0 -0.00000000000E+00 -0.00000000000E+00 -0.13808395967E+04  0.13808395967E+04  0.00000000000E+00 0.  1.
    9000010    2    1    2  502    0  0.46047014596E+03 -0.12429868365E+03  0.13772085365E+04  0.17692291030E+04  0.10029882092E+04 0.  0.
        -13    1    3    3    0    0  0.43946643882E+03 -0.22090686386E+03  0.15188437590E+04  0.15965014779E+04  0.10566000000E+00 0.  1.
         13    1    1    2    0    0 -0.34659432552E+03  0.26211191526E+03 -0.11366373701E+04  0.12168709072E+04  0.10566000000E+00 0. -1.
          2    1    1    2  501    0 -0.11387582044E+03 -0.13781323160E+03  0.98138295545E+03  0.99753330498E+03  0.00000000000E+00 0.  1.
          4    1    3    3  502    0  0.21003707135E+02  0.96608180205E+02 -0.14163522256E+03  0.17272762508E+03  0.00000000000E+00 0.  1.
</event>
<event>
 7    1  0.4894942E-006  0.1035194E+04  0.7818608E-02  0.9084167E-01
          2   -1    0    0  502    0  0.00000000000E+00  0.00000000000E+00  0.64279253109E+03  0.64279253109E+03  0.00000000000E+00 0.  1.
          4   -1    0    0  501    0 -0.00000000000E+00 -0.00000000000E+00 -0.14931642966E+04  0.14931642966E+04  0.00000000000E+00 0.  1.
    9000010    2    1    2  502    0  0.12659625095E+03  0.20039469414E+03 -0.90257221110E+03  0.13706816119E+04  0.10039655575E+04 0.  0.
        -13    1    3    3    0    0  0.28316137749E+03  0.27253336122E+03 -0.10641547000E+04  0.11344073499E+04  0.10566000000E+00 0.  1.
         13    1    1    2    0    0 -0.15261911623E+03 -0.20486224939E+03 -0.31023504177E+03  0.40187924576E+03  0.10566000000E+00 0. -1.
          2    1    1    2  501    0  0.26022865278E+02  0.44675552503E+01  0.36243548736E+03  0.36339597007E+03  0.00000000000E+00 0.  1.
          4    1    3    3  502    0 -0.15656512654E+03 -0.72138667087E+02  0.16158248894E+03  0.23627426197E+03  0.00000000000E+00 0.  1.
</event>
<event>
 7    1  0.4894942E-006  0.1021828E+04  0.7818608E-02  0.9142409E-01
          2   -1    0    0  502    0  0.00000000000E+00  0.00000000000E+00  0.13456213162E+04  0.13456213162E+04  0.00000000000E+00 0. -1.
          4   -1    0    0  501    0 -0.00000000000E+00 -0.00000000000E+00 -0.48832559525E+03  0.48832559525E+03  0.00000000000E+00 0.  1.
    9000010    2    1    2  502    0  0.55113936520E+02 -0.19241613948E+03  0.12012690067E+03  0.10272080687E+04  0.10003321585E+04 0.  0.
        -13    1    3    3    0    0  0.49703605699E+03 -0.24006354182E+03  0.17570210610E+03  0.57926383221E+03  0.10566000000E+00 0.  1.
         13    1    1    2    0    0 -0.13383874521E+03  0.17489378001E+03  0.36801264175E+03  0.42887522621E+03  0.10566000000E+00 0. -1.
          2    1    1    2  501    0  0.78724808691E+02  0.17522359470E+02  0.36915617852E+03  0.37786361656E+03  0.00000000000E+00 0. -1.
          4    1    3    3  502    0 -0.44192212047E+03  0.47647402346E+02 -0.55575205432E+02  0.44794423645E+03  0.00000000000E+00 0.  1.
</event>
<event>
 7    1  0.4894942E-006  0.1024847E+04  0.7818608E-02  0.9192052E-01
          2   -1    0    0  501    0  0.00000000000E+00  0.00000000000E+00  0.64002297652E+03  0.64002297652E+03  0.00000000000E+00 0.  1.
         -4   -1    0    0    0  501 -0.00000000000E+00 -0.00000000000E+00 -0.14808126852E+04  0.14808126852E+04  0.00000000000E+00 0. -1.
   -9000010    2    1    2    0  502 -0.60465491710E+02  0.16015866520E+03 -0.11793734806E+04  0.15625465240E+04  0.10106052440E+04 0.  0.
        -13    1    1    2    0    0  0.49535162688E+02 -0.16266125600E+03 -0.43923090896E+02  0.17561795359E+03  0.10566000000E+00 0.  1.
         13    1    3    3    0    0  0.34528941032E+01 -0.39962579191E+03 -0.76519216237E+03  0.86326806529E+03  0.10566000000E+00 0. -1.
          2    1    1    2  502    0  0.10930329021E+02  0.25025907970E+01  0.38250686281E+03  0.38267118412E+03  0.00000000000E+00 0.  1.
         -4    1    3    3    0  502 -0.63918385813E+02  0.55978445711E+03 -0.41418131824E+03  0.69927845873E+03  0.00000000000E+00 0. -1.
</event>
<event>
 7    1  0.4894942E-006  0.1031296E+04  0.7818608E-02  0.9080651E-01
          4   -1    0    0  501    0  0.00000000000E+00  0.00000000000E+00  0.12244141768E+04  0.12244141768E+04  0.00000000000E+00 0. -1.
         -4   -1    0    0    0  501 -0.00000000000E+00 -0.00000000000E+00 -0.52249414387E+03  0.52249414387E+03  0.00000000000E+00 0. -1.
   -9000010    2    1    2    0  502  0.21096534774E+03  0.22700106523E+03  0.63573591816E+03  0.12234317309E+04  0.99829313379E+03 0.  0.
        -13    1    1    2    0    0 -0.14578516049E+03 -0.20925353194E+03 -0.15075999939E+03  0.29625823572E+03  0.10566000000E+00 0.  1.
         13    1    3    3    0    0 -0.11184853144E+02 -0.13660012907E+03 -0.22474059983E+03  0.26323572056E+03  0.10566000000E+00 0. -1.
          4    1    1    2  502    0 -0.65180187251E+02 -0.17747533293E+02  0.21694411419E+03  0.22721835408E+03  0.00000000000E+00 0. -1.
         -4    1    3    3    0  502  0.22215020089E+03  0.36360119430E+03  0.86047651800E+03  0.96019601034E+03  0.00000000000E+00 0. -1.
</event>
<event>
 7    1  0.4894942E-006  0.1028815E+04  0.7818608E-02  0.9263787E-01
          4   -1    0    0  501    0 -0.00000000000E+00  0.00000000000E+00  0.99422732517E+03  0.99422732517E+03  0.00000000000E+00 0.  1.
          2   -1    0    0  502    0  0.00000000000E+00 -0.00000000000E+00 -0.78661232653E+03  0.78661232653E+03  0.00000000000E+00 0. -1.
    9000010    2    1    2  502    0 -0.26194550289E+02 -0.12890653305E+03  0.63996777546E+03  0.12120316204E+04  0.10208618156E+04 0.  0.
        -13    1    3    3    0    0 -0.50626027423E+02 -0.30894166161E+03 -0.18745691907E+03  0.36489457738E+03  0.10566000000E+00 0.  1.
         13    1    1    2    0    0  0.37424358671E+02  0.12135088804E+03  0.89425849799E+01  0.12730515166E+03  0.10566000000E+00 0. -1.
          2    1    1    2  501    0 -0.11229808382E+02  0.75556450111E+01 -0.44129536180E+03  0.44150287962E+03  0.00000000000E+00 0. -1.
          4    1    3    3  502    0  0.24431477134E+02  0.18003512856E+03  0.82742469452E+03  0.84713704304E+03  0.00000000000E+00 0.  1.
</event>
<event>
 7    1  0.4894942E-006  0.1043066E+04  0.7818608E-02  0.9595612E-01
         -4   -1    0    0    0  501 -0.00000000000E+00  0.00000000000E+00  0.46118347545E+03  0.46118347545E+03  0.00000000000E+00 0. -1.
          2   -1    0    0  501    0  0.00000000000E+00 -0.00000000000E+00 -0.72761909543E+03  0.72761909543E+03  0.00000000000E+00 0. -1.
   -9000010    2    1    2    0  502  0.27412483074E+02 -0.31005815951E+01 -0.13913292180E+03  0.10520489876E+04  0.10424433052E+04 0.  0.
        -13    1    1    2    0    0 -0.37244612642E+02 -0.21729587577E+01 -0.81852929071E+02  0.89954411132E+02  0.10566000000E+00 0.  1.
         13    1    3    3    0    0 -0.52797301266E+02  0.47154998259E+03 -0.27940388489E+03  0.55064823904E+03  0.10566000000E+00 0. -1.
          2    1    1    2  502    0  0.98321295682E+01  0.52735403528E+01 -0.45449769113E+02  0.46799172130E+02  0.00000000000E+00 0. -1.
         -4    1    3    3    0  502  0.80209784340E+02 -0.47465056419E+03  0.14027096309E+03  0.50140074858E+03  0.00000000000E+00 0. -1.
</event>
<event>
 7    1  0.4894942E-006  0.1077852E+04  0.7818608E-02  0.8827587E-01
         -4   -1    0    0    0  501 -0.00000000000E+00  0.00000000000E+00  0.19412402972E+04  0.19412402972E+04  0.00000000000E+00 0. -1.
          2   -1    0    0  501    0  0.00000000000E+00 -0.00000000000E+00 -0.11232160487E+04  0.11232160487E+04  0.00000000000E+00 0. -1.
   -9000010    2    1    2    0  502  0.67800669894E+03  0.19280962622E+03  0.14302288829E+04  0.18157581254E+04  0.86865083716E+03 0.  0.
        -13    1    1    2    0    0 -0.54623615327E+03 -0.92302653786E+02  0.59207833310E+02  0.55713489725E+03  0.10566000000E+00 0.  1.
         13    1    3    3    0    0  0.23014168237E+03  0.24247385925E+03  0.19568285199E+02  0.33487564160E+03  0.10566000000E+00 0. -1.
          2    1    1    2  502    0 -0.13177054567E+03 -0.10050697243E+03 -0.67141246769E+03  0.69156332319E+03  0.00000000000E+00 0. -1.
         -4    1    3    3    0  502  0.44786501657E+03 -0.49664233028E+02  0.14106605977E+04  0.14808824838E+04  0.00000000000E+00 0. -1.
</event>
<event>
 7    1  0.4894942E-006  0.1014016E+04  0.7818608E-02  0.9237400E-01
          2   -1    0    0  501    0  0.00000000000E+00  0.00000000000E+00  0.19141706009E+04  0.19141706009E+04  0.00000000000E+00 0. -1.
         -4   -1    0    0    0  501 -0.00000000000E+00 -0.00000000000E+00 -0.18613208267E+04  0.18613208267E+04  0.00000000000E+00 0. -1.
   -9000010    2    1    2    0  502 -0.86766324920E+02 -0.15028053262E+03 -0.16272638355E+04  0.19195210294E+04  0.10032251783E+04 0.  0.
        -13    1    1    2    0    0  0.13394957743E+03  0.58716969389E+02 -0.24461938021E+02  0.14828543207E+03  0.10566000000E+00 0.  1.
         13    1    3    3    0    0  0.24221225387E+03  0.34600885226E+03 -0.65103813512E+03  0.77604095659E+03  0.10566000000E+00 0. -1.
          2    1    1    2  502    0 -0.47183252509E+02  0.91563563227E+02  0.17045755478E+04  0.17076849661E+04  0.00000000000E+00 0. -1.
         -4    1    3    3    0  502 -0.32897857879E+03 -0.49628938487E+03 -0.97622570038E+03  0.11434800728E+04  0.00000000000E+00 0. -1.
</event>
<event>
 7    1  0.4894942E-006  0.1183618E+04  0.7818608E-02  0.9083502E-01
         -4   -1    0    0    0  502 -0.00000000000E+00  0.00000000000E+00  0.32992593852E+04  0.32992593852E+04  0.00000000000E+00 0. -1.
         -2   -1    0    0    0  501  0.00000000000E+00 -0.00000000000E+00 -0.64582585556E+03  0.64582585556E+03  0.00000000000E+00 0.  1.
   -9000010    2    1    2    0  501  0.41715244542E+03 -0.24702355248E+03  0.21199268658E+04  0.23967742427E+04  0.10076706088E+04 0.  0.
        -13    1    1    2    0    0  0.16912147845E+03  0.70649481708E+01  0.83127751214E+03  0.84833619593E+03  0.10566000000E+00 0.  1.
         13    1    3    3    0    0  0.26524244679E+03  0.36708519425E+03  0.11786381060E+04  0.12626531161E+04  0.10566000000E+00 0. -1.
         -2    1    1    2    0  502 -0.58627392386E+03  0.23995860431E+03 -0.29777084829E+03  0.69997480217E+03  0.00000000000E+00 0.  1.
         -4    1    3    3    0  501  0.15190999863E+03 -0.61410874673E+03  0.94128875979E+03  0.11341211266E+04  0.00000000000E+00 0. -1.
</event>
<event>
 7    1  0.4894942E-006  0.1018801E+04  0.7818608E-02  0.9073735E-01
          2   -1    0    0  502    0  0.00000000000E+00  0.00000000000E+00  0.32142678277E+04  0.32142678277E+04  0.00000000000E+00 0.  1.
          4   -1    0    0  501    0 -0.00000000000E+00 -0.00000000000E+00 -0.16092969021E+03  0.16092969021E+03  0.00000000000E+00 0.  1.
    9000010    2    1    2  502    0  0.20543158841E+03  0.20632882455E+03  0.20857494602E+04  0.23231312871E+04  0.98072139014E+03 0.  0.
        -13    1    3    3    0    0 -0.33185234431E+03  0.34400158479E+01  0.30023679845E+03  0.44752648910E+03  0.10566000000E+00 0.  1.
         13    1    1    2    0    0 -0.24796866853E+03 -0.12001328648E+03  0.46606810294E+03  0.54139739310E+03  0.10566000000E+00 0. -1.
          2    1    1    2  501    0  0.42537080123E+02 -0.86315538074E+02  0.50152057432E+03  0.51066883767E+03  0.00000000000E+00 0.  1.
          4    1    3    3  502    0  0.53728393273E+03  0.20288880871E+03  0.17855126618E+04  0.18756047980E+04  0.00000000000E+00 0.  1.
</event>
<event>
 7    1  0.4894942E-006  0.1068522E+04  0.7818608E-02  0.9056258E-01
          2   -1    0    0  502    0  0.00000000000E+00  0.00000000000E+00  0.42328481430E+03  0.42328481430E+03  0.00000000000E+00 0.  1.
          4   -1    0    0  501    0 -0.00000000000E+00 -0.00000000000E+00 -0.16121596320E+04  0.16121596320E+04  0.00000000000E+00 0.  1.
    9000010    2    1    2  502    0 -0.21436215985E+03  0.67528926050E+02 -0.59242086542E+03  0.12155029605E+04  0.10372915086E+04 0.  0.
        -13    1    3    3    0    0 -0.27440149318E+03 -0.23707961194E+03  0.16388926014E+03  0.39794801497E+03  0.10566000000E+00 0.  1.
         13    1    1    2    0    0  0.13563236624E+03 -0.22671807167E+03 -0.58510516346E+03  0.64198542527E+03  0.10566000000E+00 0. -1.
          2    1    1    2  501    0  0.78729793613E+02  0.15918914562E+03 -0.11348788868E+02  0.17795606057E+03  0.00000000000E+00 0.  1.
          4    1    3    3  502    0  0.60039333330E+02  0.30460853799E+03 -0.75631012556E+03  0.81755494555E+03  0.00000000000E+00 0.  1.
</event>
<event>
 7    1  0.4894942E-006  0.1082487E+04  0.7818608E-02  0.8930650E-01
          2   -1    0    0  502    0  0.00000000000E+00  0.00000000000E+00  0.99486231396E+03  0.99486231396E+03  0.00000000000E+00 0.  1.
          4   -1    0    0  501    0 -0.00000000000E+00 -0.00000000000E+00 -0.95378080205E+03  0.95378080205E+03  0.00000000000E+00 0.  1.
    9000010    2    1    2  502    0  0.25276819377E+03  0.38945948875E+03 -0.18261864670E+03  0.11190667571E+04  0.10016937574E+04 0.  0.
        -13    1    3    3    0    0 -0.17240463051E+03  0.59417400185E+03 -0.18974280159E+03  0.64712320544E+03  0.10566000000E+00 0.  1.
         13    1    1    2    0    0 -0.28154747048E+03 -0.28013793042E+03 -0.16103465985E+03  0.42857719379E+03  0.10566000000E+00 0. -1.
          2    1    1    2  501    0  0.28779276707E+02 -0.10932155832E+03  0.38473481846E+03  0.40099916510E+03  0.00000000000E+00 0.  1.
          4    1    3    3  502    0  0.42517282429E+03 -0.20471451311E+03  0.71241548868E+01  0.47194355168E+03  0.00000000000E+00 0.  1.
</event>
<event>
 7    1  0.4894942E-006  0.9307827E+03  0.7818608E-02  0.9369103E-01
          2   -1    0    0  502    0  0.00000000000E+00  0.00000000000E+00  0.14314735028E+04  0.14314735028E+04  0.00000000000E+00 0. -1.
          4   -1    0    0  501    0 -0.00000000000E+00 -0.00000000000E+00 -0.18194873074E+04  0.18194873074E+04  0.00000000000E+00 0.  1.
    9000010    2    1    2  502    0 -0.84943341057E+02 -0.84323410949E+02 -0.14434197879E+04  0.17177669066E+04  0.92354569593E+03 0.  0.
        -13    1    3    3    0    0 -0.29325944759E+03 -0.39034419201E+03 -0.11363430689E+04  0.12367882896E+04  0.10566000000E+00 0.  1.
         13    1    1    2    0    0  0.64332160835E+02  0.96129451964E+02 -0.22477581400E+03  0.25279176446E+03  0.10566000000E+00 0. -1.
          2    1    1    2  501    0  0.20611180222E+02 -0.11806041015E+02  0.12801817974E+04  0.12804021390E+04  0.00000000000E+00 0. -1.
          4    1    3    3  502    0  0.20831610653E+03  0.30602078106E+03 -0.30707671903E+03  0.48097861704E+03  0.00000000000E+00 0.  1.
</event>
<event>
 7    1  0.4894942E-006  0.1014715E+04  0.7818608E-02  0.9131055E-01
          2   -1    0    0  502    0  0.00000000000E+00  0.00000000000E+00  0.19171042922E+03  0.19171042922E+03  0.00000000000E+00 0.  1.
          4   -1    0    0  501    0 -0.00000000000E+00 -0.00000000000E+00 -0.28651569747E+04  0.28651569747E+04  0.00000000000E+00 0.  1.
    9000010    2    1    2  502    0  0.20605928561E+03  0.37827934657E+02 -0.23365970093E+04  0.25463044284E+04  0.98999458391E+03 0.  0.
        -13    1    3    3    0    0 -0.95849775816E+02  0.45001044376E+03 -0.75418781248E+03  0.88345675994E+03  0.10566000000E+00 0.  1.
         13    1    1    2    0    0 -0.22220468815E+03 -0.43445756523E+02 -0.39207456363E+03  0.45275261656E+03  0.10566000000E+00 0. -1.
          2    1    1    2  501    0  0.16145402536E+02  0.56178218651E+01  0.55225027474E+02  0.57810358977E+02  0.00000000000E+00 0.  1.
          4    1    3    3  502    0  0.30190906143E+03 -0.41218250911E+03 -0.15824091969E+04  0.16628476685E+04  0.00000000000E+00 0.  1.
</event>
<event>
 7    1  0.4894942E-006  0.1355713E+04  0.7818608E-02  0.9040976E-01
         -4   -1    0    0    0  501 -0.00000000000E+00  0.00000000000E+00  0.24647200857E+04  0.24647200857E+04  0.00000000000E+00 0. -1.
          1   -1    0    0  501    0  0.00000000000E+00 -0.00000000000E+00 -0.68002899204E+03  0.68002899204E+03  0.00000000000E+00 0.  1.
   -9000010    2    1    2    0  502 -0.87340923689E+03 -0.13048318919E+02  0.12233837122E+04  0.17981842870E+04  0.98680548701E+03 0.  0.
        -13    1    1    2    0    0 -0.75173964600E+02  0.11029599115E+03  0.34339918412E+03  0.36842820391E+03  0.10566000000E+00 0.  1.
         13    1    3    3    0    0 -0.85412827851E+03  0.10078417460E+03  0.36872409966E+03  0.93576174255E+03  0.10566000000E+00 0. -1.
          1    1    1    2  502    0  0.94858320149E+03 -0.97247672232E+02  0.21790819732E+03  0.97813658676E+03  0.00000000000E+00 0.  1.
         -4    1    3    3    0  502 -0.19280958378E+02 -0.11383249351E+03  0.85465961253E+03  0.86242254448E+03  0.00000000000E+00 0. -1.
</event>
<event>
 7    1  0.4894942E-006  0.9219610E+03  0.7818608E-02  0.9320550E-01
          4   -1    0    0  501    0 -0.00000000000E+00  0.00000000000E+00  0.13243657024E+04  0.13243657024E+04  0.00000000000E+00 0.  1.
          2   -1    0    0  502    0  0.00000000000E+00 -0.00000000000E+00 -0.51866039750E+03  0.51866039750E+03  0.00000000000E+00 0.  1.
    9000010    2    1    2  502    0 -0.17942772557E+02  0.15604887890E+03  0.36237440659E+03  0.99274612417E+03  0.91079990163E+03 0.  0.
        -13    1    3    3    0    0  0.22965579469E+03 -0.30464957792E+03  0.53269981351E+02  0.38521533126E+03  0.10566000000E+00 0.  1.
         13    1    1    2    0    0  0.14216609808E+02 -0.14196278852E+03  0.63866306462E+03  0.65440512421E+03  0.10566000000E+00 0. -1.
          2    1    1    2  501    0  0.37261627491E+01 -0.14086090383E+02 -0.19533216635E+03  0.19587485148E+03  0.00000000000E+00 0.  1.
          4    1    3    3  502    0 -0.24759856725E+03  0.46069845682E+03  0.30910442524E+03  0.60753079290E+03  0.00000000000E+00 0.  1.
</event>
<event>
 7    1  0.4894942E-006  0.1010199E+04  0.7818608E-02  0.9366156E-01
          4   -1    0    0  501    0 -0.00000000000E+00  0.00000000000E+00  0.18786997361E+04  0.18786997361E+04  0.00000000000E+00 0.  1.
          2   -1    0    0  502    0  0.00000000000E+00 -0.00000000000E+00 -0.21439195877E+03  0.21439195877E+03  0.00000000000E+00 0.  1.
    9000010    2    1    2  502    0 -0.26964950273E+02 -0.70861399925E+02  0.13938003740E+04  0.17206209645E+04  0.10060360701E+04 0.  0.
        -13    1    3    3    0    0 -0.24015489164E+03  0.31154235383E+03  0.11587543956E+04  0.12237012588E+04  0.10566000000E+00 0.  1.
         13    1    1    2    0    0  0.28412482125E+02  0.87779937157E+02  0.31320963385E+03  0.32651626668E+03  0.10566000000E+00 0. -1.
          2    1    1    2  501    0 -0.14475318519E+01 -0.16918537233E+02 -0.42702230454E+02  0.45954463725E+02  0.00000000000E+00 0.  1.
          4    1    3    3  502    0  0.21318994136E+03 -0.38240375375E+03  0.23504597835E+03  0.49691970571E+03  0.00000000000E+00 0.  1.
</event>
<event>
 7    1  0.4894942E-006  0.1118612E+04  0.7818608E-02  0.8852312E-01
         -4   -1    0    0    0  501 -0.00000000000E+00  0.00000000000E+00  0.22933349047E+04  0.22933349047E+04  0.00000000000E+00 0. -1.
          2   -1    0    0  501    0  0.00000000000E+00 -0.00000000000E+00 -0.31894182714E+03  0.31894182714E+03  0.00000000000E+00 0.  1.
   -9000010    2    1    2    0  502 -0.21324974738E+03  0.50532578497E+03  0.12038743243E+04  0.16542656097E+04  0.99320275611E+03 0.  0.
        -13    1    1    2    0    0  0.18535386491E+03 -0.46786523383E+03  0.75766943149E+03  0.90956962946E+03  0.10566000000E+00 0.  1.
         13    1    3    3    0    0  0.33753955688E+02 -0.21638175672E+03  0.71610162689E+03  0.74884040046E+03  0.10566000000E+00 0. -1.
          2    1    1    2  502    0  0.27895882475E+02 -0.37460551135E+02  0.12849321741E+02  0.48441492748E+02  0.00000000000E+00 0.  1.
         -4    1    3    3    0  502 -0.24700370307E+03  0.72170754168E+03  0.48777269745E+03  0.90542520919E+03  0.00000000000E+00 0. -1.
</event>
<event>
 7    1  0.4894942E-006  0.9827177E+03  0.7818608E-02  0.9083686E-01
         -4   -1    0    0    0  501 -0.00000000000E+00  0.00000000000E+00  0.92665478788E+03  0.92665478788E+03  0.00000000000E+00 0. -1.
          1   -1    0    0  501    0  0.00000000000E+00 -0.00000000000E+00 -0.18660993642E+04  0.18660993642E+04  0.00000000000E+00 0. -1.
   -9000010    2    1    2    0  502 -0.27705686751E+03 -0.56923824582E+02  0.47879513284E+03  0.10897886484E+04  0.93722659448E+03 0.  0.
        -13    1    1    2    0    0  0.29370248195E+03  0.71445518110E+02 -0.18267423798E+02  0.30281895565E+03  0.10566000000E+00 0.  1.
         13    1    3    3    0    0  0.17510347094E+02 -0.44341508231E+03  0.59076668977E+02  0.44767578833E+03  0.10566000000E+00 0. -1.
          1    1    1    2  502    0 -0.16645614441E+02 -0.14521693528E+02 -0.13999722854E+04  0.14001465480E+04  0.00000000000E+00 0. -1.
         -4    1    3    3    0  502 -0.29456721460E+03  0.38649125772E+03  0.41971846387E+03  0.64211286012E+03  0.00000000000E+00 0. -1.
</event>
<event>
 7    1  0.4894942E-006  0.1046772E+04  0.7818608E-02  0.9059277E-01
          1   -1    0    0  501    0  0.00000000000E+00  0.00000000000E+00  0.11793528221E+04  0.11793528221E+04  0.00000000000E+00 0. -1.
         -4   -1    0    0    0  501 -0.00000000000E+00 -0.00000000000E+00 -0.21073842786E+04  0.21073842786E+04  0.00000000000E+00 0. -1.
   -9000010    2    1    2    0  502 -0.12208863094E+03  0.20592106225E+03 -0.14541401518E+04  0.17874379261E+04  0.10114848693E+04 0.  0.
        -13    1    1    2    0    0  0.13304668972E+03 -0.24253860391E+03 -0.44687238812E+03  0.52556763453E+03  0.10566000000E+00 0.  1.
         13    1    3    3    0    0  0.43802742279E+03  0.19147736006E+03 -0.71012289542E+03  0.85604096882E+03  0.10566000000E+00 0. -1.
          1    1    1    2  502    0 -0.10958058785E+02  0.36617541665E+02  0.97298108346E+03  0.97373154010E+03  0.00000000000E+00 0. -1.
         -4    1    3    3    0  502 -0.56011605373E+03  0.14443702193E+02 -0.74401725636E+03  0.93139695723E+03  0.00000000000E+00 0. -1.
</event>
<event>
 7    1  0.4894942E-006  0.1577167E+04  0.7818608E-02  0.8895171E-01
         -4   -1    0    0    0  501 -0.00000000000E+00  0.00000000000E+00  0.22141985181E+04  0.22141985181E+04  0.00000000000E+00 0. -1.
          1   -1    0    0  501    0  0.00000000000E+00 -0.00000000000E+00 -0.10202324358E+04  0.10202324358E+04  0.00000000000E+00 0. -1.
   -9000010    2    1    2    0  502  0.11484578437E+04  0.92586896089E+02  0.38506582063E+03  0.15754997021E+04  0.10031928394E+04 0.  0.
        -13    1    1    2    0    0  0.12740372714E+03  0.85795393175E+02  0.13774324658E+03  0.20631474092E+03  0.10566000000E+00 0.  1.
         13    1    3    3    0    0  0.14325524454E+03 -0.29792310538E+03  0.37114145419E+03  0.49701733571E+03  0.10566000000E+00 0. -1.
          1    1    1    2  502    0 -0.12758615708E+04 -0.17838228926E+03  0.67115701505E+03  0.14526165109E+04  0.00000000000E+00 0. -1.
         -4    1    3    3    0  502  0.10052025991E+04  0.39051000147E+03  0.13924366437E+02  0.10784823663E+04  0.00000000000E+00 0. -1.
</event>
<event>
 7    1  0.4894942E-006  0.9987978E+03  0.7818608E-02  0.9509184E-01
          2   -1    0    0  502    0  0.00000000000E+00  0.00000000000E+00  0.16482320358E+04  0.16482320358E+04  0.00000000000E+00 0.  1.
          4   -1    0    0  501    0 -0.00000000000E+00 -0.00000000000E+00 -0.44312967525E+03  0.44312967525E+03  0.00000000000E+00 0.  1.
    9000010    2    1    2  502    0 -0.15057797560E+02  0.59579157680E+02  0.90425479814E+03  0.13475589360E+04  0.99722712190E+03 0.  0.
        -13    1    3    3    0    0 -0.24737906848E+01  0.28864838364E+03  0.10411365377E+04  0.10804116393E+04  0.10566000000E+00 0.  1.
         13    1    1    2    0    0  0.38781432511E+01 -0.55843952895E+02 -0.21787243399E+03  0.22494887358E+03  0.10566000000E+00 0. -1.
          2    1    1    2  501    0  0.11179654309E+02 -0.37352047858E+01  0.51871999645E+03  0.51885390154E+03  0.00000000000E+00 0.  1.
          4    1    3    3  502    0 -0.12584006875E+02 -0.22906922596E+03 -0.13688173954E+03  0.26714729669E+03  0.00000000000E+00 0.  1.
</event>
<event>
 7    1  0.4894942E-006  0.1097004E+04  0.7818608E-02  0.9284306E-01
          2   -1    0    0  501    0  0.00000000000E+00  0.00000000000E+00  0.27424796372E+04  0.27424796372E+04  0.00000000000E+00 0. -1.
         -4   -1    0    0    0  501 -0.00000000000E+00 -0.00000000000E+00 -0.25300687848E+03  0.25300687848E+03  0.00000000000E+00 0. -1.
   -9000010    2    1    2    0  502 -0.84903565754E+02 -0.26964186779E+02  0.11270595452E+04  0.15723012931E+04  0.10926721626E+04 0.  0.
        -13    1    1    2    0    0  0.79578896799E+02  0.57429864918E+02  0.49512663155E+02  0.10992044931E+03  0.10566000000E+00 0.  1.
         13    1    3    3    0    0  0.68807101467E+02 -0.51062159077E+03  0.85036311269E+03  0.99427675260E+03  0.10566000000E+00 0. -1.
          2    1    1    2  502    0  0.53246689546E+01 -0.30465678139E+02  0.13129005503E+04  0.13132647733E+04  0.00000000000E+00 0. -1.
         -4    1    3    3    0  502 -0.15371066722E+03  0.48365740399E+03  0.27669643256E+03  0.57802454052E+03  0.00000000000E+00 0. -1.
</event>
<event>
 7    1  0.4894942E-006  0.1094920E+04  0.7818608E-02  0.8893297E-01
         -4   -1    0    0    0  501 -0.00000000000E+00  0.00000000000E+00  0.80134324345E+03  0.80134324345E+03  0.00000000000E+00 0. -1.
          2   -1    0    0  501    0  0.00000000000E+00 -0.00000000000E+00 -0.14099767029E+04  0.14099767029E+04  0.00000000000E+00 0.  1.
   -9000010    2    1    2    0  502  0.10218215278E+03 -0.45056650324E+03  0.29415124000E+03  0.11334850847E+04  0.99237700450E+03 0.  0.
        -13    1    1    2    0    0 -0.15748627034E+03  0.43824645316E+03 -0.55061849899E+03  0.72113980728E+03  0.10566000000E+00 0.  1.
         13    1    3    3    0    0  0.17650595934E+03 -0.36355438396E+03 -0.31580153165E+03  0.51289059490E+03  0.10566000000E+00 0. -1.
          2    1    1    2  502    0  0.55304117565E+02  0.12320050075E+02 -0.35216620043E+03  0.35669505432E+03  0.00000000000E+00 0.  1.
         -4    1    3    3    0  502 -0.74323806562E+02 -0.87012119279E+02  0.60995277166E+03  0.62059448980E+03  0.00000000000E+00 0. -1.
</event>
<event>
 7    1  0.4894942E-006  0.1015396E+04  0.7818608E-02  0.9156510E-01
          2   -1    0    0  501    0  0.00000000000E+00  0.00000000000E+00  0.63567609652E+03  0.63567609652E+03  0.00000000000E+00 0. -1.
         -4   -1    0    0    0  501 -0.00000000000E+00 -0.00000000000E+00 -0.84127047916E+03  0.84127047916E+03  0.00000000000E+00 0. -1.
   -9000010    2    1    2    0  502 -0.13687348945E+03 -0.53310427083E+02 -0.27816576443E+03  0.10438184270E+04  0.99529109425E+03 0.  0.
        -13    1    1    2    0    0  0.64215687632E+02  0.22188305219E+03 -0.11398503860E+02  0.23126971363E+03  0.10566000000E+00 0.  1.
         13    1    3    3    0    0  0.61982435704E+02  0.42359779351E+03 -0.30621721734E+03  0.52635150647E+03  0.10566000000E+00 0. -1.
          2    1    1    2  502    0  0.72657801816E+02 -0.16857262511E+03  0.83969885656E+02  0.20185843505E+03  0.00000000000E+00 0. -1.
         -4    1    3    3    0  502 -0.19885592515E+03 -0.47690822059E+03  0.28051452909E+02  0.51746692053E+03  0.00000000000E+00 0. -1.
</event>
<event>
 7    1  0.4894942E-006  0.1087691E+04  0.7818608E-02  0.8903256E-01
          1   -1    0    0  501    0  0.00000000000E+00  0.00000000000E+00  0.11866111741E+04  0.11866111741E+04  0.00000000000E+00 0. -1.
         -4   -1    0    0    0  501 -0.00000000000E+00 -0.00000000000E+00 -0.87083822602E+03  0.87083822602E+03  0.00000000000E+00 0. -1.
   -9000010    2    1    2    0  502  0.28739751574E+03  0.35600822218E+03 -0.30663755372E+03  0.11319682179E+04  0.98893188378E+03 0.  0.
        -13    1    1    2    0    0 -0.28687806638E+03 -0.34554589340E+03  0.18142581104E+03  0.48437209405E+03  0.10566000000E+00 0.  1.
         13    1    3    3    0    0  0.39886799409E+03  0.59669740670E+03  0.11414412392E+02  0.71782572526E+03  0.10566000000E+00 0. -1.
          1    1    1    2  502    0 -0.51944935673E+00 -0.10462328775E+02  0.44098469079E+03  0.44110908817E+03  0.00000000000E+00 0. -1.
         -4    1    3    3    0  502 -0.11147047835E+03 -0.24068918453E+03 -0.31805196611E+03  0.41414249267E+03  0.00000000000E+00 0. -1.
</event>
<event>
 7    1  0.4894942E-006  0.1016798E+04  0.7818608E-02  0.9348956E-01
         -4   -1    0    0    0  501 -0.00000000000E+00  0.00000000000E+00  0.13160211282E+04  0.13160211282E+04  0.00000000000E+00 0. -1.
          2   -1    0    0  501    0  0.00000000000E+00 -0.00000000000E+00 -0.71738834270E+03  0.71738834270E+03  0.00000000000E+00 0. -1.
   -9000010    2    1    2    0  502  0.90479454505E+02 -0.10178034779E+01  0.94454359815E+03  0.13874610270E+04  0.10122736413E+04 0.  0.
        -13    1    1    2    0    0 -0.95819993704E+02 -0.87628953117E+01  0.13451903967E+03  0.16538936703E+03  0.10566000000E+00 0.  1.
         13    1    3    3    0    0  0.73975394151E+02  0.46126103258E+03  0.75440626763E+03  0.88733473217E+03  0.10566000000E+00 0. -1.
          2    1    1    2  502    0  0.53405391987E+01  0.97806987896E+01 -0.48042985230E+03  0.48055907692E+03  0.00000000000E+00 0. -1.
         -4    1    3    3    0  502  0.16504060354E+02 -0.46227883606E+03  0.19013733052E+03  0.50012629478E+03  0.00000000000E+00 0. -1.
</event>
<event>
 7    1  0.4894942E-006  0.1169761E+04  0.7818608E-02  0.8850134E-01
          2   -1    0    0  501    0  0.00000000000E+00  0.00000000000E+00  0.12507481306E+04  0.12507481306E+04  0.00000000000E+00 0.  1.
         -4   -1    0    0    0  501 -0.00000000000E+00 -0.00000000000E+00 -0.18126817062E+04  0.18126817062E+04  0.00000000000E+00 0. -1.
   -9000010    2    1    2    0  502  0.40834600514E+03 -0.34886266699E+03 -0.12986247547E+04  0.17221901888E+04  0.99552055341E+03 0.  0.
        -13    1    1    2    0    0 -0.35469713475E+03 -0.28362248436E+03  0.15389362078E+03  0.47951541030E+03  0.10566000000E+00 0.  1.
         13    1    3    3    0    0 -0.27126468353E+03 -0.29836422640E+03 -0.25948481830E+03  0.47951863594E+03  0.10566000000E+00 0. -1.
          2    1    1    2  502    0 -0.53648870392E+02  0.63248515135E+03  0.58279755838E+03  0.86172423781E+03  0.00000000000E+00 0.  1.
         -4    1    3    3    0  502  0.67961068867E+03 -0.50498440592E+02 -0.10391399364E+04  0.12426715528E+04  0.00000000000E+00 0. -1.
</event>
<event>
 7    1  0.4894942E-006  0.1032023E+04  0.7818608E-02  0.9130270E-01
         -4   -1    0    0    0  501 -0.00000000000E+00  0.00000000000E+00  0.23066820236E+04  0.23066820236E+04  0.00000000000E+00 0. -1.
          2   -1    0    0  501    0  0.00000000000E+00 -0.00000000000E+00 -0.21581553860E+03  0.21581553860E+03  0.00000000000E+00 0. -1.
   -9000010    2    1    2    0  502  0.21991659234E+03 -0.40221950334E+02  0.17874367449E+04  0.20651705594E+04  0.10099595090E+04 0.  0.
        -13    1    1    2    0    0 -0.20864572620E+03  0.23564552449E+02  0.34912455658E+03  0.40740188311E+03  0.10566000000E+00 0.  1.
         13    1    3    3    0    0 -0.45362079027E+02 -0.64732077772E+00 -0.12553830155E+03  0.13348413223E+03  0.10566000000E+00 0. -1.
          2    1    1    2  502    0 -0.11270866144E+02  0.16657397885E+02 -0.45694816425E+02  0.49925119689E+02  0.00000000000E+00 0. -1.
         -4    1    3    3    0  502  0.26527867137E+03 -0.39574629556E+02  0.19129750464E+04  0.19316864272E+04  0.00000000000E+00 0. -1.
</event>
<event>
 7    1  0.4894942E-006  0.1024862E+04  0.7818608E-02  0.9200357E-01
         -4   -1    0    0    0  501 -0.00000000000E+00  0.00000000000E+00  0.47189704191E+03  0.47189704191E+03  0.00000000000E+00 0. -1.
          2   -1    0    0  501    0  0.00000000000E+00 -0.00000000000E+00 -0.16361827113E+04  0.16361827113E+04  0.00000000000E+00 0.  1.
   -9000010    2    1    2    0  502  0.16713220265E+03 -0.46284959125E+02 -0.81757794067E+03  0.13121253065E+04  0.10115155265E+04 0.  0.
        -13    1    1    2    0    0 -0.15926109855E+03 -0.44321463171E+02  0.18985366520E+03  0.25173977628E+03  0.10566000000E+00 0.  1.
         13    1    3    3    0    0 -0.40931495163E+03 -0.90435168695E+02 -0.50012940338E+03  0.65256929184E+03  0.10566000000E+00 0. -1.
          2    1    1    2  502    0 -0.78711041073E+01  0.90606422296E+02 -0.53656139391E+03  0.54421467039E+03  0.00000000000E+00 0.  1.
         -4    1    3    3    0  502  0.57644715428E+03  0.44150209570E+02 -0.31744853728E+03  0.65955601469E+03  0.00000000000E+00 0. -1.
</event>
<event>
 7    1  0.4894942E-006  0.1019693E+04  0.7818608E-02  0.9124673E-01
          2   -1    0    0  502    0  0.00000000000E+00  0.00000000000E+00  0.91445195928E+03  0.91445195928E+03  0.00000000000E+00 0.  1.
          4   -1    0    0  501    0 -0.00000000000E+00 -0.00000000000E+00 -0.59193356794E+03  0.59193356794E+03  0.00000000000E+00 0.  1.
    9000010    2    1    2  502    0  0.16247848517E+03  0.87518996337E+02  0.25335400196E+03  0.10427933527E+04  0.99457070800E+03 0.  0.
        -13    1    3    3    0    0  0.49587006759E+03 -0.23367597533E+03  0.15256504510E+03  0.56900587829E+03  0.10566000000E+00 0.  1.
         13    1    1    2    0    0 -0.22897484476E+03 -0.27885372131E+02 -0.11586562981E+03  0.25813161148E+03  0.10566000000E+00 0. -1.
          2    1    1    2  501    0  0.66496359587E+02 -0.59633624206E+02  0.18503001919E+03  0.20546056307E+03  0.00000000000E+00 0.  1.
          4    1    3    3  502    0 -0.33339158243E+03  0.32119497166E+03  0.10078895685E+03  0.47378747438E+03  0.00000000000E+00 0.  1.
</event>
<event>
 7    1  0.4894942E-006  0.1061397E+04  0.7818608E-02  0.8985231E-01
          4   -1    0    0  502    0  0.00000000000E+00  0.00000000000E+00  0.11832685553E+04  0.11832685553E+04  0.00000000000E+00 0.  1.
          4   -1    0    0  501    0 -0.00000000000E+00 -0.00000000000E+00 -0.60852734011E+03  0.60852734011E+03  0.00000000000E+00 0.  1.
    9000010    2    1    2  502    0  0.32978660834E+03 -0.11907249027E+03  0.35477530444E+03  0.11198473241E+04  0.10026240810E+04 0.  0.
        -13    1    3    3    0    0  0.49842735266E+03 -0.14623807819E+03 -0.18677498239E+03  0.55199665452E+03  0.10566000000E+00 0.  1.
         13    1    1    2    0    0 -0.24313944340E+03  0.25786122876E+03 -0.48335133562E+02  0.35769470018E+03  0.10566000000E+00 0. -1.
          4    1    1    2  501    0 -0.86647164943E+02 -0.13878873849E+03  0.26830104435E+03  0.31425387114E+03  0.00000000000E+00 0.  1.
          4    1    3    3  502    0 -0.16864074432E+03  0.27165587919E+02  0.54155028683E+03  0.56785066961E+03  0.00000000000E+00 0.  1.
</event>
<event>
 7    1  0.4894942E-006  0.1008918E+04  0.7818608E-02  0.9273313E-01
          2   -1    0    0  502    0  0.00000000000E+00  0.00000000000E+00  0.82073845879E+03  0.82073845879E+03  0.00000000000E+00 0.  1.
          4   -1    0    0  501    0 -0.00000000000E+00 -0.00000000000E+00 -0.68930246415E+03  0.68930246415E+03  0.00000000000E+00 0.  1.
    9000010    2    1    2  502    0  0.46580035504E+02 -0.10374639682E+03  0.33505468082E+03  0.10611628915E+04  0.10004359193E+04 0.  0.
        -13    1    3    3    0    0  0.84831646968E+02  0.12853613512E+02 -0.35247511343E+03  0.36276761220E+03  0.10566000000E+00 0.  1.
         13    1    1    2    0    0 -0.59504167301E+02  0.11656052331E+03 -0.31233715083E+03  0.33864673108E+03  0.10566000000E+00 0. -1.
          2    1    1    2  501    0  0.12924131797E+02 -0.12814126490E+02  0.10871846465E+03  0.11023130034E+03  0.00000000000E+00 0.  1.
          4    1    3    3  502    0 -0.38251611464E+02 -0.11660001033E+03  0.68752979425E+03  0.69839527932E+03  0.00000000000E+00 0.  1.
</event>
<event>
 7    1  0.4894942E-006  0.1064352E+04  0.7818608E-02  0.8956103E-01
          1   -1    0    0  501    0  0.00000000000E+00  0.00000000000E+00  0.20462314385E+04  0.20462314385E+04  0.00000000000E+00 0. -1.
         -4   -1    0    0    0  501 -0.00000000000E+00 -0.00000000000E+00 -0.53784653124E+03  0.53784653124E+03  0.00000000000E+00 0. -1.
   -9000010    2    1    2    0  502 -0.73827810909E+02  0.31645738637E+03  0.27826273702E+03  0.10791743850E+04  0.99075293555E+03 0.  0.
        -13    1    1    2    0    0  0.15806795389E+03 -0.39067990876E+03  0.19615408279E+03  0.46485772502E+03  0.10566000000E+00 0.  1.
         13    1    3    3    0    0 -0.22664331065E+03  0.63048253046E+03  0.28928169409E+03  0.72976662103E+03  0.10566000000E+00 0. -1.
          1    1    1    2  502    0 -0.84240142976E+02  0.74222522391E+02  0.10339680875E+04  0.10400458598E+04  0.00000000000E+00 0. -1.
         -4    1    3    3    0  502  0.15281549974E+03 -0.31402514409E+03 -0.11018957070E+02  0.34940776393E+03  0.00000000000E+00 0. -1.
</event>
<event>
 7    1  0.4894942E-006  0.1014090E+04  0.7818608E-02  0.9120202E-01
         -4   -1    0    0    0  501 -0.00000000000E+00  0.00000000000E+00  0.16780028255E+04  0.16780028255E+04  0.00000000000E+00 0. -1.
          2   -1    0    0  501    0  0.00000000000E+00 -0.00000000000E+00 -0.56946828986E+03  0.56946828986E+03  0.00000000000E+00 0.  1.
   -9000010    2    1    2    0  502 -0.42695656582E+02 -0.23525491052E+03  0.10537230256E+04  0.14634546761E+04  0.98701549236E+03 0.  0.
        -13    1    1    2    0    0  0.33391526831E+02  0.22937452145E+03  0.38729050674E+03  0.45135530675E+03  0.10566000000E+00 0.  1.
         13    1    3    3    0    0  0.36986949507E+03 -0.31142895014E+03  0.22229128063E+03  0.53216995310E+03  0.10566000000E+00 0. -1.
          2    1    1    2  502    0  0.93041297506E+01  0.58803890758E+01 -0.33247899675E+03  0.33266113251E+03  0.00000000000E+00 0.  1.
         -4    1    3    3    0  502 -0.41256515165E+03  0.76174039616E+02  0.83143174498E+03  0.93128472297E+03  0.00000000000E+00 0. -1.
</event>
<event>
 7    1  0.4894942E-006  0.1249257E+04  0.7818608E-02  0.8711317E-01
          1   -1    0    0  501    0  0.00000000000E+00  0.00000000000E+00  0.13853159245E+04  0.13853159245E+04  0.00000000000E+00 0.  1.
         -4   -1    0    0    0  501 -0.00000000000E+00 -0.00000000000E+00 -0.10015953486E+04  0.10015953486E+04  0.00000000000E+00 0. -1.
   -9000010    2    1    2    0  502 -0.25181688516E+03  0.50549008896E+03  0.12227885626E+03  0.12008048860E+04  0.10526387234E+04 0.  0.
        -13    1    1    2    0    0  0.28009394246E+03 -0.66379684537E+03 -0.15739095119E+03  0.73746239986E+03  0.10566000000E+00 0.  1.
         13    1    3    3    0    0  0.35150539159E+03 -0.23299992910E+02  0.18165147053E+03  0.39635362732E+03  0.10566000000E+00 0. -1.
          1    1    1    2  502    0 -0.28277057298E+02  0.15830675641E+03  0.41883267083E+03  0.44864398720E+03  0.00000000000E+00 0.  1.
         -4    1    3    3    0  502 -0.60332227674E+03  0.52879008187E+03 -0.59372614266E+02  0.80445125870E+03  0.00000000000E+00 0. -1.
</event>
<event>
 7    1  0.4894942E-006  0.1003720E+04  0.7818608E-02  0.9308740E-01
          2   -1    0    0  502    0  0.00000000000E+00  0.00000000000E+00  0.25101584155E+04  0.25101584155E+04  0.00000000000E+00 0.  1.
          4   -1    0    0  501    0 -0.00000000000E+00 -0.00000000000E+00 -0.79362873312E+03  0.79362873312E+03  0.00000000000E+00 0.  1.
    9000010    2    1    2  502    0  0.58578675481E+02 -0.10530310871E+03  0.53655308185E+03  0.11386089282E+04  0.99700595580E+03 0.  0.
        -13    1    3    3    0    0 -0.82543002482E+02 -0.36536595573E+03  0.70485865037E+03  0.79820508457E+03  0.10566000000E+00 0.  1.
         13    1    1    2    0    0 -0.28493052280E+02  0.11233792630E+03 -0.48563883989E+03  0.49927623385E+03  0.10566000000E+00 0. -1.
          2    1    1    2  501    0 -0.30085623201E+02 -0.70348175881E+01  0.16656154404E+04  0.16659019865E+04  0.00000000000E+00 0.  1.
          4    1    3    3  502    0  0.14112167796E+03  0.26006284702E+03 -0.16830556852E+03  0.34040384367E+03  0.00000000000E+00 0.  1.
</event>
<event>
 7    1  0.4894942E-006  0.1015106E+04  0.7818608E-02  0.9006663E-01
          1   -1    0    0  501    0  0.00000000000E+00  0.00000000000E+00  0.61509390593E+03  0.61509390593E+03  0.00000000000E+00 0.  1.
         -4   -1    0    0    0  501 -0.00000000000E+00 -0.00000000000E+00 -0.21546134442E+04  0.21546134442E+04  0.00000000000E+00 0. -1.
   -9000010    2    1    2    0  502  0.99441020595E+02 -0.35003254792E+03 -0.17324517706E+04  0.20077308554E+04  0.94719731267E+03 0.  0.
        -13    1    1    2    0    0 -0.79098731509E+02  0.35769457527E+03 -0.16613827096E+03  0.40224862305E+03  0.10566000000E+00 0.  1.
         13    1    3    3    0    0 -0.21728901566E+03  0.22922188501E+03 -0.32530848478E+03  0.45341240645E+03  0.10566000000E+00 0. -1.
          1    1    1    2  502    0 -0.20342289087E+02 -0.76620273510E+01  0.35907050324E+03  0.35972787171E+03  0.00000000000E+00 0.  1.
         -4    1    3    3    0  502  0.31673003625E+03 -0.57925443293E+03 -0.14071432858E+04  0.15543184490E+04  0.00000000000E+00 0. -1.
</event>
<event>
 7    1  0.4894942E-006  0.1218128E+04  0.7818608E-02  0.8962950E-01
         -4   -1    0    0    0  501 -0.00000000000E+00  0.00000000000E+00  0.78429024725E+03  0.78429024725E+03  0.00000000000E+00 0. -1.
          2   -1    0    0  501    0  0.00000000000E+00 -0.00000000000E+00 -0.25608383224E+04  0.25608383224E+04  0.00000000000E+00 0.  1.
   -9000010    2    1    2    0  502  0.22947934535E+03 -0.59254213379E+02  0.28120593727E+03  0.12471720280E+04  0.11917170203E+04 0.  0.
        -13    1    1    2    0    0 -0.29789953655E+03  0.24548264314E+01 -0.12355546927E+04  0.12709624581E+04  0.10566000000E+00 0.  1.
         13    1    3    3    0    0  0.30891666555E+03 -0.11119211126E+03  0.72365882117E+03  0.79465419680E+03  0.10566000000E+00 0. -1.
          2    1    1    2  502    0  0.68420191202E+02  0.56799386947E+02 -0.82219931968E+03  0.82699408354E+03  0.00000000000E+00 0.  1.
         -4    1    3    3    0  502 -0.79437320206E+02  0.51937897884E+02 -0.44245288391E+03  0.45251783120E+03  0.00000000000E+00 0. -1.
</event>
<event>
 7    1  0.4894942E-006  0.1033839E+04  0.7818608E-02  0.9058920E-01
         -4   -1    0    0    0  501 -0.00000000000E+00  0.00000000000E+00  0.20911494717E+04  0.20911494717E+04  0.00000000000E+00 0. -1.
          2   -1    0    0  501    0  0.00000000000E+00 -0.00000000000E+00 -0.26682504983E+03  0.26682504983E+03  0.00000000000E+00 0. -1.
   -9000010    2    1    2    0  502  0.29837276752E+03 -0.18309966446E+02  0.15494230437E+04  0.18655878362E+04  0.99516061164E+03 0.  0.
        -13    1    1    2    0    0 -0.27425528491E+03  0.58408896068E+01  0.33109988974E+03  0.42997351714E+03  0.10566000000E+00 0.  1.
         13    1    3    3    0    0  0.56865522028E+03 -0.25924599304E+03  0.67885811974E+03  0.92272726326E+03  0.10566000000E+00 0. -1.
          2    1    1    2  502    0 -0.24117482609E+02  0.12469076839E+02 -0.56198511633E+02  0.62413168117E+02  0.00000000000E+00 0. -1.
         -4    1    3    3    0  502 -0.27028245275E+03  0.24093602660E+03  0.87056492399E+03  0.94286057297E+03  0.00000000000E+00 0. -1.
</event>
<event>
 7    1  0.4894942E-006  0.1012682E+04  0.7818608E-02  0.9162146E-01
          2   -1    0    0  502    0  0.00000000000E+00  0.00000000000E+00  0.55860763186E+03  0.55860763186E+03  0.00000000000E+00 0.  1.
          4   -1    0    0  501    0 -0.00000000000E+00 -0.00000000000E+00 -0.26145481761E+04  0.26145481761E+04  0.00000000000E+00 0.  1.
    9000010    2    1    2  502    0  0.10930705511E+03  0.87865402309E+02 -0.19805509484E+04  0.22200149010E+04  0.99308395439E+03 0.  0.
        -13    1    3    3    0    0  0.29772621783E+03  0.18048409835E+03 -0.19796789181E+04  0.20100607056E+04  0.10566000000E+00 0.  1.
         13    1    1    2    0    0 -0.15718781943E+03 -0.13711885072E+03 -0.49017238596E+03  0.53270870926E+03  0.10566000000E+00 0. -1.
          2    1    1    2  501    0  0.47880764327E+02  0.49253448414E+02  0.41478279016E+03  0.42043219760E+03  0.00000000000E+00 0.  1.
          4    1    3    3  502    0 -0.18841916273E+03 -0.92618696038E+02 -0.87203033659E+00  0.20995419542E+03  0.00000000000E+00 0.  1.
</event>
<event>
 7    1  0.4894942E-006  0.1043174E+04  0.7818608E-02  0.9064293E-01
          4   -1    0    0  501    0 -0.00000000000E+00  0.00000000000E+00  0.75380225677E+03  0.75380225677E+03  0.00000000000E+00 0.  1.
          2   -1    0    0  502    0  0.00000000000E+00 -0.00000000000E+00 -0.22670253340E+04  0.22670253340E+04  0.00000000000E+00 0. -1.
    9000010    2    1    2  502    0 -0.25619142913E+03  0.14675757778E+03  0.25618132772E+02  0.10510965992E+04  0.10084522484E+04 0.  0.
        -13    1    3    3    0    0  0.34168447382E+03  0.19737883934E+03  0.17669892355E+03  0.43235310409E+03  0.10566000000E+00 0.  1.
         13    1    1    2    0    0  0.22649970495E+03 -0.13264080728E+03  0.13527769807E+03  0.29528929350E+03  0.10566000000E+00 0. -1.
          2    1    1    2  501    0  0.29691724182E+02 -0.14116770494E+02 -0.16741189081E+04  0.16744416980E+04  0.00000000000E+00 0. -1.
          4    1    3    3  502    0 -0.59787590295E+03 -0.50621261560E+02 -0.15108079078E+03  0.61874349515E+03  0.00000000000E+00 0.  1.
</event>
<event>
 7    1  0.4894942E-006  0.1024753E+04  0.7818608E-02  0.9301891E-01
         -4   -1    0    0    0  501 -0.00000000000E+00  0.00000000000E+00  0.10925141439E+04  0.10925141439E+04  0.00000000000E+00 0. -1.
          2   -1    0    0  501    0  0.00000000000E+00 -0.00000000000E+00 -0.64434578192E+03  0.64434578192E+03  0.00000000000E+00 0. -1.
   -9000010    2    1    2    0  502  0.10746318903E+03  0.59310565139E+02  0.82995481316E+03  0.13196658986E+04  0.10186397852E+04 0.  0.
        -13    1    1    2    0    0 -0.88893680311E+02 -0.55391801632E+02 -0.14092132618E+03  0.17558237219E+03  0.10566000000E+00 0.  1.
         13    1    3    3    0    0  0.19450069882E+02  0.47383357376E+03  0.11406721009E+03  0.48775803471E+03  0.10566000000E+00 0. -1.
          2    1    1    2  502    0 -0.18569508719E+02 -0.39187635070E+01 -0.24086512503E+03  0.24161165497E+03  0.00000000000E+00 0. -1.
         -4    1    3    3    0  502  0.88013119148E+02 -0.41452300862E+03  0.71588760307E+03  0.83190786392E+03  0.00000000000E+00 0. -1.
</event>
<event>
 7    1  0.4894942E-006  0.1071447E+04  0.7818608E-02  0.8968265E-01
          4   -1    0    0  501    0 -0.00000000000E+00  0.00000000000E+00  0.50691495022E+03  0.50691495022E+03  0.00000000000E+00 0.  1.
          2   -1    0    0  502    0  0.00000000000E+00 -0.00000000000E+00 -0.11594724752E+04  0.11594724752E+04  0.00000000000E+00 0.  1.
    9000010    2    1    2  502    0 -0.32097474188E+03  0.15818382747E+03 -0.43208814128E+03  0.11537493244E+04  0.10081619084E+04 0.  0.
        -13    1    3    3    0    0  0.28140073073E+03  0.11430909148E+03 -0.45761391611E+03  0.54923897079E+03  0.10566000000E+00 0.  1.
         13    1    1    2    0    0  0.31595361936E+03 -0.18148183199E+03 -0.83762958022E+02  0.37386974902E+03  0.10566000000E+00 0. -1.
          2    1    1    2  501    0  0.50211225238E+01  0.23298004520E+02 -0.13670642564E+03  0.13876835193E+03  0.00000000000E+00 0.  1.
          4    1    3    3  502    0 -0.60237547262E+03  0.43874735991E+02  0.25525774836E+02  0.60451035363E+03  0.00000000000E+00 0.  1.
</event>
<event>
 6    1  0.4894942E-006  0.1713638E+04  0.7818608E-02  0.8742027E-01
          2   -1    0    0  502    0  0.00000000000E+00  0.00000000000E+00  0.13694407388E+04  0.13694407388E+04  0.00000000000E+00 0. -1.
          4   -1    0    0  501    0 -0.00000000000E+00 -0.00000000000E+00 -0.11688648164E+04  0.11688648164E+04  0.00000000000E+00 0.  1.
        -13    1    1    2    0    0  0.69393993246E+02  0.33141765274E+03 -0.71415831809E+03  0.79036403088E+03  0.10566000000E+00 0.  1.
         13    1    1    2    0    0 -0.19626550984E+03 -0.11399043764E+03 -0.36761914295E+03  0.43203913671E+03  0.10566000000E+00 0. -1.
          2    1    1    2  501    0 -0.28773629347E+02 -0.37724995610E+02  0.37222599991E+03  0.37523764743E+03  0.00000000000E+00 0. -1.
          4    1    1    2  502    0  0.15564514594E+03 -0.17970221949E+03  0.91012738350E+03  0.94066474014E+03  0.00000000000E+00 0.  1.
</event>
<event>
 7    1  0.4894942E-006  0.1070837E+04  0.7818608E-02  0.8964360E-01
          2   -1    0    0  501    0  0.00000000000E+00  0.00000000000E+00  0.23161595563E+04  0.23161595563E+04  0.00000000000E+00 0.  1.
         -4   -1    0    0    0  501 -0.00000000000E+00 -0.00000000000E+00 -0.75363712958E+03  0.75363712958E+03  0.00000000000E+00 0. -1.
   -9000010    2    1    2    0  502 -0.33150316815E+03 -0.84186524414E+02 -0.41602854503E+02  0.10625781475E+04  0.10051665536E+04 0.  0.
        -13    1    1    2    0    0  0.37978501217E+03  0.22870958729E+02 -0.20210058159E+02  0.38100944062E+03  0.10566000000E+00 0.  1.
         13    1    3    3    0    0  0.51179889084E+02 -0.21296152835E+03 -0.44240670060E+03  0.49365544006E+03  0.10566000000E+00 0. -1.
          2    1    1    2  502    0 -0.48281844019E+02  0.61315565685E+02  0.16243353394E+04  0.16262090978E+04  0.00000000000E+00 0.  1.
         -4    1    3    3    0  502 -0.38268305724E+03  0.12877500393E+03  0.40080384610E+03  0.56892270739E+03  0.00000000000E+00 0. -1.
</event>
<event>
 7    1  0.4894942E-006  0.9846687E+03  0.7818608E-02  0.9137563E-01
          1   -1    0    0  501    0  0.00000000000E+00  0.00000000000E+00  0.40381994278E+03  0.40381994278E+03  0.00000000000E+00 0.  1.
         -4   -1    0    0    0  501 -0.00000000000E+00 -0.00000000000E+00 -0.20965474049E+04  0.20965474049E+04  0.00000000000E+00 0. -1.
   -9000010    2    1    2    0  502  0.50417017543E+02 -0.18987639609E+03 -0.12017001995E+04  0.15478561327E+04  0.95560468628E+03 0.  0.
        -13    1    1    2    0    0 -0.71014072576E+02  0.23168347327E+03 -0.69877549014E+03  0.73959950451E+03  0.10566000000E+00 0.  1.
         13    1    3    3    0    0  0.48864242650E+02 -0.47095345479E+03 -0.11734322626E+04  0.12653569286E+04  0.10566000000E+00 0. -1.
          1    1    1    2  502    0  0.20597055033E+02 -0.41807077175E+02  0.20774822760E+03  0.21291171045E+03  0.00000000000E+00 0.  1.
         -4    1    3    3    0  502  0.15527748928E+01  0.28107705870E+03 -0.28267936979E+02  0.28249920407E+03  0.00000000000E+00 0. -1.
</event>
<event>
 7    1  0.4894942E-006  0.1023910E+04  0.7818608E-02  0.9131906E-01
          2   -1    0    0  502    0  0.00000000000E+00  0.00000000000E+00  0.18369703435E+04  0.18369703435E+04  0.00000000000E+00 0.  1.
          4   -1    0    0  501    0 -0.00000000000E+00 -0.00000000000E+00 -0.15952962055E+04  0.15952962055E+04  0.00000000000E+00 0.  1.
    9000010    2    1    2  502    0  0.18664960783E+03 -0.48724058909E+01 -0.93897358709E+03  0.13850241533E+04  0.10008789594E+04 0.  0.
        -13    1    3    3    0    0  0.26262790479E+03 -0.35768055981E+03 -0.76769453924E+02  0.45033582964E+03  0.10566000000E+00 0.  1.
         13    1    1    2    0    0 -0.21881357772E+03  0.18982774112E+02 -0.40525746612E+03  0.46094831871E+03  0.10566000000E+00 0. -1.
          2    1    1    2  501    0  0.32163969894E+02 -0.14110368221E+02  0.15859051912E+04  0.15862940771E+04  0.00000000000E+00 0.  1.
          4    1    3    3  502    0 -0.75978296966E+02  0.35280815392E+03 -0.86220413317E+03  0.93468832363E+03  0.00000000000E+00 0.  1.
</event>
<event>
 7    1  0.4894942E-006  0.8959973E+03  0.7818608E-02  0.9261871E-01
         -4   -1    0    0    0  501 -0.00000000000E+00  0.00000000000E+00  0.21010131962E+04  0.21010131962E+04  0.00000000000E+00 0. -1.
          1   -1    0    0  501    0  0.00000000000E+00 -0.00000000000E+00 -0.32914113604E+03  0.32914113604E+03  0.00000000000E+00 0.  1.
   -9000010    2    1    2    0  502 -0.21167920315E+03 -0.28231128662E+02  0.12756810329E+04  0.15613664303E+04  0.87458444430E+03 0.  0.
        -13    1    1    2    0    0  0.19265192510E+03 -0.16216133521E+02  0.66534242009E+03  0.69286237765E+03  0.10566000000E+00 0.  1.
         13    1    3    3    0    0  0.84363643585E+01  0.37313820606E+03  0.88155679137E+03  0.95731169461E+03  0.10566000000E+00 0. -1.
          1    1    1    2  502    0  0.19027278044E+02  0.44447262183E+02 -0.16915139280E+03  0.17592552433E+03  0.00000000000E+00 0.  1.
         -4    1    3    3    0  502 -0.22011556751E+03 -0.40136933472E+03  0.39412424153E+03  0.60405473566E+03  0.00000000000E+00 0. -1.
</event>
<event>
 7    1  0.4894942E-006  0.1156066E+04  0.7818608E-02  0.9019597E-01
          2   -1    0    0  501    0  0.00000000000E+00  0.00000000000E+00  0.15243790383E+04  0.15243790383E+04  0.00000000000E+00 0. -1.
         -4   -1    0    0    0  501 -0.00000000000E+00 -0.00000000000E+00 -0.40304055948E+03  0.40304055948E+03  0.00000000000E+00 0. -1.
   -9000010    2    1    2    0  502  0.19285190940E+03  0.78063661967E+02  0.98633593646E+03  0.15157867856E+04  0.11320182001E+04 0.  0.
        -13    1    1    2    0    0 -0.21052414165E+03 -0.10844438959E+03 -0.33797046009E+02  0.23921298320E+03  0.10566000000E+00 0.  1.
         13    1    3    3    0    0  0.36785295927E+03  0.45774160427E+03  0.92152280934E+03  0.10927247939E+04  0.10566000000E+00 0. -1.
          2    1    1    2  502    0  0.17672232251E+02  0.30380727621E+02  0.16879958833E+03  0.17241982897E+03  0.00000000000E+00 0. -1.
         -4    1    3    3    0  502 -0.17500104987E+03 -0.37967794231E+03  0.64813127122E+02  0.42306199165E+03  0.00000000000E+00 0. -1.
</event>
<event>
 7    1  0.4894942E-006  0.1221740E+04  0.7818608E-02  0.9157142E-01
          4   -1    0    0  501    0 -0.00000000000E+00  0.00000000000E+00  0.69440964586E+03  0.69440964586E+03  0.00000000000E+00 0.  1.
          2   -1    0    0  502    0  0.00000000000E+00 -0.00000000000E+00 -0.19569678174E+04  0.19569678174E+04  0.00000000000E+00 0.  1.
    9000010    2    1    2  502    0  0.67893911627E+02  0.30730786324E+03 -0.56005938939E+03  0.13541960103E+04  0.11921126661E+04 0.  0.
        -13    1    3    3    0    0 -0.59822733526E+02  0.16864056350E+03 -0.92568973352E+03  0.94282548386E+03  0.10566000000E+00 0.  1.
         13    1    1    2    0    0  0.78006857031E+02 -0.84687518121E+02  0.26755263542E+03  0.29127559004E+03  0.10566000000E+00 0. -1.
          2    1    1    2  501    0 -0.14590076866E+03 -0.22262034512E+03 -0.97005141761E+03  0.10059058630E+04  0.00000000000E+00 0.  1.
          4    1    3    3  502    0  0.12771664515E+03  0.13866729975E+03  0.36563034413E+03  0.41137052643E+03  0.00000000000E+00 0.  1.
</event>
<event>
 7    1  0.4894942E-006  0.1089203E+04  0.7818608E-02  0.8922620E-01
          2   -1    0    0  502    0  0.00000000000E+00  0.00000000000E+00  0.99487967851E+03  0.99487967851E+03  0.00000000000E+00 0.  1.
          4   -1    0    0  501    0 -0.00000000000E+00 -0.00000000000E+00 -0.24228597628E+04  0.24228597628E+04  0.00000000000E+00 0.  1.
    9000010    2    1    2  502    0  0.43915876552E+03 -0.16440922852E+03 -0.16611859518E+04  0.19981130305E+04  0.10064919775E+04 0.  0.
        -13    1    3    3    0    0  0.37673476275E+03  0.37559931853E+03 -0.57408699317E+03  0.78267478332E+03  0.10566000000E+00 0.  1.
         13    1    1    2    0    0 -0.37407795573E+03  0.12906370160E+03 -0.52521194752E+03  0.65760121427E+03  0.10566000000E+00 0. -1.
          2    1    1    2  501    0 -0.65080809798E+02  0.35345526917E+02  0.75841781497E+03  0.76202519653E+03  0.00000000000E+00 0.  1.
          4    1    3    3  502    0  0.62424002770E+02 -0.54000854705E+03 -0.10870989586E+04  0.12154382472E+04  0.00000000000E+00 0.  1.
</event>
<event>
 7    1  0.4894942E-006  0.1021569E+04  0.7818608E-02  0.9116953E-01
          2   -1    0    0  501    0  0.00000000000E+00  0.00000000000E+00  0.94785283606E+03  0.94785283606E+03  0.00000000000E+00 0.  1.
         -4   -1    0    0    0  501 -0.00000000000E+00 -0.00000000000E+00 -0.35719970499E+04  0.35719970499E+04  0.00000000000E+00 0. -1.
   -9000010    2    1    2    0  502  0.15889141661E+03  0.17599323937E+03 -0.27538236862E+04  0.29377167816E+04  0.99519590618E+03 0.  0.
        -13    1    1    2    0    0 -0.16391774862E+03 -0.16051276000E+03 -0.70802700969E+03  0.74426852147E+03  0.10566000000E+00 0.  1.
         13    1    3    3    0    0  0.43575442305E+03  0.33929651796E+03 -0.23866887816E+04  0.24497525172E+04  0.10566000000E+00 0. -1.
          2    1    1    2  502    0  0.50263320117E+01 -0.15480479375E+02  0.83770648202E+03  0.83786458290E+03  0.00000000000E+00 0.  1.
         -4    1    3    3    0  502 -0.27686300644E+03 -0.16330327858E+03 -0.36713490460E+03  0.48796426437E+03  0.00000000000E+00 0. -1.
</event>
<event>
 7    1  0.4894942E-006  0.1134395E+04  0.7818608E-02  0.8829480E-01
          2   -1    0    0  501    0  0.00000000000E+00  0.00000000000E+00  0.13532787093E+04  0.13532787093E+04  0.00000000000E+00 0.  1.
         -4   -1    0    0    0  501 -0.00000000000E+00 -0.00000000000E+00 -0.79551666700E+03  0.79551666700E+03  0.00000000000E+00 0. -1.
   -9000010    2    1    2    0  502  0.33035635594E+03 -0.48265153360E+03 -0.91032106005E+02  0.11585890138E+04  0.99596879152E+03 0.  0.
        -13    1    1    2    0    0 -0.30266610535E+03  0.41350246068E+03  0.22455613741E+03  0.55947879882E+03  0.10566000000E+00 0.  1.
         13    1    3    3    0    0 -0.85338409025E+02 -0.29926094984E+03  0.38865090119E+03  0.49788482032E+03  0.10566000000E+00 0. -1.
          2    1    1    2  502    0 -0.27690250584E+02  0.69149072921E+02  0.42423801085E+03  0.43072756368E+03  0.00000000000E+00 0.  1.
         -4    1    3    3    0  502  0.41569476496E+03 -0.18339058376E+03 -0.47968300719E+03  0.66070419343E+03  0.00000000000E+00 0. -1.
</event>
<event>
 7    1  0.4894942E-006  0.9977749E+03  0.7818608E-02  0.9371498E-01
          4   -1    0    0  501    0 -0.00000000000E+00  0.00000000000E+00  0.82529409411E+03  0.82529409411E+03  0.00000000000E+00 0.  1.
          2   -1    0    0  502    0  0.00000000000E+00 -0.00000000000E+00 -0.88995651742E+03  0.88995651742E+03  0.00000000000E+00 0.  1.
    9000010    2    1    2  502    0 -0.31814073104E+02  0.73899947808E+02 -0.37470323021E+03  0.10647739631E+04  0.99341217238E+03 0.  0.
        -13    1    3    3    0    0 -0.39474120489E+03 -0.24626288171E+03 -0.34627566996E+03  0.57997661722E+03  0.10566000000E+00 0.  1.
         13    1    1    2    0    0 -0.53027437736E+02 -0.77044304767E+02  0.46471515753E+03  0.47403367270E+03  0.10566000000E+00 0. -1.
          2    1    1    2  501    0  0.84841510840E+02  0.31443569585E+01 -0.15467435064E+03  0.17644297574E+03  0.00000000000E+00 0.  1.
          4    1    3    3  502    0  0.36292713178E+03  0.32016282952E+03 -0.28427560242E+02  0.48479734588E+03  0.00000000000E+00 0.  1.
</event>
<event>
 7    1  0.4894942E-006  0.1152830E+04  0.7818608E-02  0.8931770E-01
          4   -1    0    0  501    0  0.00000000000E+00  0.00000000000E+00  0.70301238491E+03  0.70301238491E+03  0.00000000000E+00 0.  1.
         -4   -1    0    0    0  501 -0.00000000000E+00 -0.00000000000E+00 -0.26704284539E+04  0.26704284539E+04  0.00000000000E+00 0. -1.
   -9000010    2    1    2    0  502 -0.32666167578E+03 -0.17974483191E+02 -0.20089187763E+04  0.23146157992E+04  0.11021164710E+04 0.  0.
        -13    1    1    2    0    0  0.34171285672E+03  0.20281116806E+02 -0.45093827830E+03  0.56614869261E+03  0.10566000000E+00 0.  1.
         13    1    3    3    0    0  0.12001885249E+03 -0.25958733230E+03 -0.16920068731E+04  0.17160062290E+04  0.10566000000E+00 0. -1.
          4    1    1    2  502    0 -0.15051180939E+02 -0.23066336154E+01  0.49244098560E+03  0.49267634702E+03  0.00000000000E+00 0.  1.
         -4    1    3    3    0  502 -0.44668052826E+03  0.24161284911E+03 -0.31691190323E+03  0.59860957025E+03  0.00000000000E+00 0. -1.
</event>
<event>
 7    1  0.4894942E-006  0.1080846E+04  0.7818608E-02  0.8922131E-01
         -4   -1    0    0    0  501 -0.00000000000E+00  0.00000000000E+00  0.19395624465E+04  0.19395624465E+04  0.00000000000E+00 0. -1.
          2   -1    0    0  501    0  0.00000000000E+00 -0.00000000000E+00 -0.18489423141E+04  0.18489423141E+04  0.00000000000E+00 0.  1.
   -9000010    2    1    2    0  502  0.40283688188E+03  0.35207758763E+02  0.15290563614E+03  0.10829857774E+04  0.99295564896E+03 0.  0.
        -13    1    1    2    0    0 -0.30579272254E+03 -0.31048780710E+03  0.12694518184E+04  0.13421698097E+04  0.10566000000E+00 0.  1.
         13    1    3    3    0    0  0.35752187622E+03 -0.33732042147E+03 -0.23364106934E+03  0.54423810889E+03  0.10566000000E+00 0. -1.
          2    1    1    2  502    0 -0.97044159344E+02  0.27528004833E+03 -0.13317373221E+04  0.13633491736E+04  0.00000000000E+00 0.  1.
         -4    1    3    3    0  502  0.45315005664E+02  0.37252818024E+03  0.38654670548E+03  0.53874766851E+03  0.00000000000E+00 0. -1.
</event>
<event>
 7    1  0.4894942E-006  0.1048448E+04  0.7818608E-02  0.9070570E-01
         -4   -1    0    0    0  501 -0.00000000000E+00  0.00000000000E+00  0.74268319407E+03  0.74268319407E+03  0.00000000000E+00 0. -1.
          1   -1    0    0  501    0  0.00000000000E+00 -0.00000000000E+00 -0.11717728747E+04  0.11717728747E+04  0.00000000000E+00 0.  1.
   -9000010    2    1    2    0  502  0.26423812833E+03  0.50925973169E+01 -0.69401096319E+02  0.10526959532E+04  0.10166142507E+04 0.  0.
        -13    1    1    2    0    0 -0.25118282634E+03 -0.48836930936E+02  0.18462341489E+03  0.31553712074E+03  0.10566000000E+00 0.  1.
         13    1    3    3    0    0 -0.53059376202E+02 -0.46683961427E+03 -0.11005972323E+03  0.48256365041E+03  0.10566000000E+00 0. -1.
          1    1    1    2  502    0 -0.13055301984E+02  0.43744333619E+02 -0.54431199924E+03  0.54622299489E+03  0.00000000000E+00 0.  1.
         -4    1    3    3    0  502  0.31729750453E+03  0.47193221159E+03  0.40658626912E+02  0.57013230277E+03  0.00000000000E+00 0. -1.
</event>
<event>
 7    1  0.4894942E-006  0.1355089E+04  0.7818608E-02  0.8743050E-01
          4   -1    0    0  501    0  0.00000000000E+00  0.00000000000E+00  0.15722987899E+04  0.15722987899E+04  0.00000000000E+00 0.  1.
         -4   -1    0    0    0  501 -0.00000000000E+00 -0.00000000000E+00 -0.13743763417E+04  0.13743763417E+04  0.00000000000E+00 0. -1.
   -9000010    2    1    2    0  502  0.10031169061E+04  0.39239121431E+03 -0.45757378767E+02  0.14747188008E+04  0.10062243344E+04 0.  0.
        -13    1    1    2    0    0 -0.13276583938E+03 -0.44026780561E+03 -0.19097496425E+03  0.49792967063E+03  0.10566000000E+00 0.  1.
         13    1    3    3    0    0 -0.13295178241E+03  0.22655876150E+03 -0.18050935539E+03  0.31872980313E+03  0.10566000000E+00 0. -1.
          4    1    1    2  502    0 -0.87035106672E+03  0.47876591292E+02  0.43465479118E+03  0.97402666022E+03  0.00000000000E+00 0.  1.
         -4    1    3    3    0  502  0.11360686885E+04  0.16583245281E+03  0.13475197662E+03  0.11559889976E+04  0.00000000000E+00 0. -1.
</event>
<event>
 7    1  0.4894942E-006  0.1172198E+04  0.7818608E-02  0.8757477E-01
         -4   -1    0    0    0  501 -0.00000000000E+00  0.00000000000E+00  0.52361640595E+03  0.52361640595E+03  0.00000000000E+00 0. -1.
          2   -1    0    0  501    0  0.00000000000E+00 -0.00000000000E+00 -0.23115840944E+04  0.23115840944E+04  0.00000000000E+00 0.  1.
   -9000010    2    1    2    0  502  0.33113241179E+03  0.54283266474E+03 -0.54640541153E+03  0.12770506972E+04  0.96331907143E+03 0.  0.
        -13    1    1    2    0    0 -0.25153428232E+03 -0.65525021678E+03 -0.67034437532E+03  0.97055856828E+03  0.10566000000E+00 0.  1.
         13    1    3    3    0    0  0.13611806442E+03  0.73467266511E+03 -0.64419681330E+03  0.98654021598E+03  0.10566000000E+00 0. -1.
          2    1    1    2  502    0 -0.79598129471E+02  0.11241755204E+03 -0.57121790160E+03  0.58759123490E+03  0.00000000000E+00 0.  1.
         -4    1    3    3    0  502  0.19501434737E+03 -0.19184000037E+03  0.97791401773E+02  0.29051048120E+03  0.00000000000E+00 0. -1.
</event>
<event>
 7    1  0.4894942E-006  0.1012415E+04  0.7818608E-02  0.9409864E-01
          4   -1    0    0  501    0  0.00000000000E+00  0.00000000000E+00  0.23264399012E+03  0.23264399012E+03  0.00000000000E+00 0. -1.
         -4   -1    0    0    0  501 -0.00000000000E+00 -0.00000000000E+00 -0.16016515340E+04  0.16016515340E+04  0.00000000000E+00 0. -1.
   -9000010    2    1    2    0  502  0.72572253619E+01 -0.83675142811E+02 -0.11289374177E+04  0.15167577100E+04  0.10094553288E+04 0.  0.
        -13    1    1    2    0    0 -0.14935557871E+02  0.75734363715E+02 -0.27252923190E+03  0.28325069839E+03  0.10566000000E+00 0.  1.
         13    1    3    3    0    0 -0.46673203306E+03 -0.14768031901E+03 -0.34666564020E+03  0.59985443615E+03  0.10566000000E+00 0. -1.
          4    1    1    2  502    0  0.76783325095E+01  0.79407790957E+01  0.32459105724E+02  0.34287115760E+02  0.00000000000E+00 0. -1.
         -4    1    3    3    0  502  0.47398925842E+03  0.64005176200E+02 -0.78227177753E+03  0.91690327385E+03  0.00000000000E+00 0. -1.
</event>
<event>
 7    1  0.4894942E-006  0.1089429E+04  0.7818608E-02  0.8903841E-01
          1   -1    0    0  501    0  0.00000000000E+00  0.00000000000E+00  0.56030153419E+03  0.56030153419E+03  0.00000000000E+00 0. -1.
         -4   -1    0    0    0  501 -0.00000000000E+00 -0.00000000000E+00 -0.31208655119E+04  0.31208655119E+04  0.00000000000E+00 0. -1.
   -9000010    2    1    2    0  502 -0.39563770684E+03  0.16790848882E+03 -0.17718905925E+04  0.20758192315E+04  0.99232391612E+03 0.  0.
        -13    1    1    2    0    0  0.41022436671E+03 -0.19767986254E+03 -0.11529223644E+04  0.12395932190E+04  0.10566000000E+00 0.  1.
         13    1    3    3    0    0  0.31090077382E+03  0.20170331183E+03 -0.53215014163E+03  0.64848076422E+03  0.10566000000E+00 0. -1.
          1    1    1    2  502    0 -0.14586659868E+02  0.29771373720E+02  0.36424897918E+03  0.36575459556E+03  0.00000000000E+00 0. -1.
         -4    1    3    3    0  502 -0.70653848066E+03 -0.33794823014E+02 -0.12397404508E+04  0.14273384673E+04  0.00000000000E+00 0. -1.
</event>
<event>
 7    1  0.4894942E-006  0.1097944E+04  0.7818608E-02  0.8907407E-01
         -4   -1    0    0    0  501 -0.00000000000E+00  0.00000000000E+00  0.45083261336E+03  0.45083261336E+03  0.00000000000E+00 0. -1.
          1   -1    0    0  501    0  0.00000000000E+00 -0.00000000000E+00 -0.36545867817E+04  0.36545867817E+04  0.00000000000E+00 0.  1.
   -9000010    2    1    2    0  502 -0.73642859846E+02  0.42281166503E+03 -0.10256232741E+04  0.15014194279E+04  0.10090412396E+04 0.  0.
        -13    1    1    2    0    0  0.36371465518E+03 -0.27157591023E+03 -0.56642997128E+02  0.45743881088E+03  0.10566000000E+00 0.  1.
         13    1    3    3    0    0  0.18488260902E+03 -0.92475919680E+02  0.10532792031E+03  0.23200723437E+03  0.10566000000E+00 0. -1.
          1    1    1    2  502    0 -0.29007179534E+03 -0.15123575480E+03 -0.21214878971E+04  0.21465611562E+04  0.00000000000E+00 0.  1.
         -4    1    3    3    0  502 -0.25852546886E+03  0.51528758471E+03 -0.11309511944E+04  0.12694121936E+04  0.00000000000E+00 0. -1.
</event>
<event>
 7    1  0.4894942E-006  0.9607876E+03  0.7818608E-02  0.9120528E-01
          4   -1    0    0  501    0 -0.00000000000E+00  0.00000000000E+00  0.15151551117E+04  0.15151551117E+04  0.00000000000E+00 0.  1.
          2   -1    0    0  502    0  0.00000000000E+00 -0.00000000000E+00 -0.81683672063E+03  0.81683672063E+03  0.00000000000E+00 0.  1.
    9000010    2    1    2  502    0  0.54265938942E+02  0.28799255772E+03  0.12679181609E+04  0.15943335612E+04  0.92108552055E+03 0.  0.
        -13    1    3    3    0    0  0.27563043497E+03 -0.23685028082E+03  0.29999203565E+03  0.47123818269E+03  0.10566000000E+00 0.  1.
         13    1    1    2    0    0 -0.58197741976E+02 -0.24378375488E+03 -0.10631207112E+03  0.27224945168E+03  0.10566000000E+00 0. -1.
          2    1    1    2  501    0  0.39318030336E+01 -0.44208802843E+02 -0.46328769878E+03  0.46540881939E+03  0.00000000000E+00 0.  1.
          4    1    3    3  502    0 -0.22136449603E+03  0.52484283854E+03  0.96792612528E+03  0.11230953785E+04  0.00000000000E+00 0.  1.
</event>
<event>
 7    1  0.4894942E-006  0.1194197E+04  0.7818608E-02  0.8748823E-01
          4   -1    0    0  501    0 -0.00000000000E+00  0.00000000000E+00  0.11087976630E+04  0.11087976630E+04  0.00000000000E+00 0.  1.
          2   -1    0    0  502    0  0.00000000000E+00 -0.00000000000E+00 -0.24959043234E+04  0.24959043234E+04  0.00000000000E+00 0.  1.
    9000010    2    1    2  502    0 -0.35892795055E+03  0.40803851662E+03 -0.25852626590E+03  0.11656018144E+04  0.99823196440E+03 0.  0.
        -13    1    3    3    0    0 -0.38540059979E+03  0.46058027636E+03 -0.58231234312E+03  0.83651389074E+03  0.10566000000E+00 0.  1.
         13    1    1    2    0    0 -0.26956121286E+03 -0.73986082588E+03  0.30067819342E+03  0.84289066688E+03  0.10566000000E+00 0. -1.
          2    1    1    2  501    0  0.62848916341E+03  0.33182230926E+03 -0.14292585878E+04  0.15962095052E+04  0.00000000000E+00 0.  1.
          4    1    3    3  502    0  0.26472649236E+02 -0.52541759745E+02  0.32378607722E+03  0.32908792362E+03  0.00000000000E+00 0.  1.
</event>
<event>
 7    1  0.4894942E-006  0.1049673E+04  0.7818608E-02  0.9032238E-01
         -4   -1    0    0    0  501 -0.00000000000E+00  0.00000000000E+00  0.14180810712E+04  0.14180810712E+04  0.00000000000E+00 0. -1.
          2   -1    0    0  501    0  0.00000000000E+00 -0.00000000000E+00 -0.39927610597E+03  0.39927610597E+03  0.00000000000E+00 0. -1.
   -9000010    2    1    2    0  502 -0.25934814885E+03 -0.17619241277E+03  0.87739603912E+03  0.13715821400E+04  0.10065329247E+04 0.  0.
        -13    1    1    2    0    0  0.25244334677E+03  0.14928623627E+03  0.21726648384E+03  0.36499145172E+03  0.10566000000E+00 0.  1.
         13    1    3    3    0    0  0.15309299096E+03  0.35088863990E+03  0.36171937957E+03  0.52668892357E+03  0.10566000000E+00 0. -1.
          2    1    1    2  502    0  0.69048020786E+01  0.26906176495E+02 -0.75857557711E+02  0.80783585506E+02  0.00000000000E+00 0. -1.
         -4    1    3    3    0  502 -0.41244113980E+03 -0.52708105267E+03  0.51567665955E+03  0.84489321638E+03  0.00000000000E+00 0. -1.
</event>
<event>
 7    1  0.4894942E-006  0.9999501E+03  0.7818608E-02  0.9419805E-01
         -4   -1    0    0    0  502 -0.00000000000E+00  0.00000000000E+00  0.23269583175E+04  0.23269583175E+04  0.00000000000E+00 0. -1.
         -2   -1    0    0    0  501  0.00000000000E+00 -0.00000000000E+00 -0.35018086419E+03  0.35018086419E+03  0.00000000000E+00 0.  1.
   -9000010    2    1    2    0  501  0.50061249488E+02  0.76531296959E+02  0.21432052773E+04  0.23655025520E+04  0.99695049759E+03 0.  0.
        -13    1    1    2    0    0 -0.32523917893E+02 -0.67626230399E+02  0.52655717675E+02  0.91671958859E+02  0.10566000000E+00 0.  1.
         13    1    3    3    0    0 -0.42141378512E+03 -0.67783189980E+01  0.49985240112E+03  0.65382563270E+03  0.10566000000E+00 0. -1.
         -2    1    1    2    0  502 -0.17537331595E+02 -0.89050665605E+01 -0.21908354165E+03  0.21996467087E+03  0.00000000000E+00 0.  1.
         -4    1    3    3    0  501  0.47147503461E+03  0.83309615957E+02  0.16433528762E+04  0.17116769193E+04  0.00000000000E+00 0. -1.
</event>
<event>
 7    1  0.4894942E-006  0.1054281E+04  0.7818608E-02  0.8989476E-01
          2   -1    0    0  501    0  0.00000000000E+00  0.00000000000E+00  0.23816390840E+04  0.23816390840E+04  0.00000000000E+00 0. -1.
         -4   -1    0    0    0  501 -0.00000000000E+00 -0.00000000000E+00 -0.41002803594E+03  0.41002803594E+03  0.00000000000E+00 0. -1.
   -9000010    2    1    2    0  502 -0.50627372897E+02  0.23962334957E+03  0.83604799022E+03  0.13129557246E+04  0.98229018746E+03 0.  0.
        -13    1    1    2    0    0 -0.34098284609E+03 -0.75879822588E+02  0.10595302435E+03  0.36503849569E+03  0.10566000000E+00 0.  1.
         13    1    3    3    0    0  0.58505195218E+02  0.52305972371E+03  0.12675280461E+03  0.54136920588E+03  0.10566000000E+00 0. -1.
          2    1    1    2  502    0  0.39161021899E+03 -0.16374352698E+03  0.10296100335E+04  0.11136728996E+04  0.00000000000E+00 0. -1.
         -4    1    3    3    0  502 -0.10913256812E+03 -0.28343637414E+03  0.70929518560E+03  0.77158651876E+03  0.00000000000E+00 0. -1.
</event>
<event>
 6    1  0.4894942E-006  0.6816756E+03  0.7818608E-02  0.9459606E-01
          4   -1    0    0  501    0 -0.00000000000E+00  0.00000000000E+00  0.46464375961E+03  0.46464375961E+03  0.00000000000E+00 0.  1.
          2   -1    0    0  502    0  0.00000000000E+00 -0.00000000000E+00 -0.48303181709E+03  0.48303181709E+03  0.00000000000E+00 0.  1.
        -13    1    1    2    0    0 -0.15943072371E+03 -0.28349376665E+03 -0.58184534227E+02  0.33041235234E+03  0.10566000000E+00 0.  1.
         13    1    1    2    0    0  0.21164706660E+03 -0.12526662426E+02 -0.22142652813E+02  0.21317060377E+03  0.10566000000E+00 0. -1.
          2    1    1    2  501    0 -0.84110494394E+01 -0.49719940659E+02  0.13789196428E+02  0.52277721736E+02  0.00000000000E+00 0.  1.
          4    1    1    2  502    0 -0.43805293451E+02  0.34574036973E+03  0.48149933130E+02  0.35181489886E+03  0.00000000000E+00 0.  1.
</event>
<event>
 7    1  0.4894942E-006  0.1170848E+04  0.7818608E-02  0.8824257E-01
         -4   -1    0    0    0  501 -0.00000000000E+00  0.00000000000E+00  0.16089954640E+04  0.16089954640E+04  0.00000000000E+00 0. -1.
          1   -1    0    0  501    0  0.00000000000E+00 -0.00000000000E+00 -0.76748786958E+03  0.76748786958E+03  0.00000000000E+00 0. -1.
   -9000010    2    1    2    0  502 -0.15020541260E+03 -0.48308688140E+03  0.10638039523E+04  0.15822805284E+04  0.10564081696E+04 0.  0.
        -13    1    1    2    0    0  0.13948903431E+03  0.48433943447E+03  0.63671533766E+02  0.50803144966E+03  0.10566000000E+00 0.  1.
         13    1    3    3    0    0  0.67381754829E+02  0.31773396144E+03  0.18591171991E+03  0.37424370389E+03  0.10566000000E+00 0. -1.
          1    1    1    2  502    0  0.10716378295E+02 -0.12525530677E+01 -0.28596789164E+03  0.28617135549E+03  0.00000000000E+00 0. -1.
         -4    1    3    3    0  502 -0.21758716743E+03 -0.80082084284E+03  0.87789223234E+03  0.12080368245E+04  0.00000000000E+00 0. -1.
</event>
<event>
 7    1  0.4894942E-006  0.1025904E+04  0.7818608E-02  0.9081921E-01
         -2   -1    0    0    0  501  0.00000000000E+00  0.00000000000E+00  0.71419193216E+03  0.71419193216E+03  0.00000000000E+00 0.  1.
         -4   -1    0    0    0  502 -0.00000000000E+00 -0.00000000000E+00 -0.18670102056E+04  0.18670102056E+04  0.00000000000E+00 0. -1.
   -9000010    2    1    2    0  501 -0.12988774416E+03 -0.23943950891E+03 -0.88855146668E+03  0.13593296347E+04  0.99199356971E+03 0.  0.
        -13    1    1    2    0    0  0.12342644269E+03  0.22944931292E+03 -0.72015159476E+03  0.76583249118E+03  0.10566000000E+00 0.  1.
         13    1    3    3    0    0  0.15907335857E+03 -0.76839309952E+02  0.17296452680E+03  0.24723541748E+03  0.10566000000E+00 0. -1.
         -2    1    1    2    0  502  0.64613014647E+01  0.99901959912E+01  0.45588478803E+03  0.45604001183E+03  0.00000000000E+00 0.  1.
         -4    1    3    3    0  501 -0.28896110273E+03 -0.16260019896E+03 -0.10615159935E+04  0.11120942172E+04  0.00000000000E+00 0. -1.
</event>
<event>
 7    1  0.4894942E-006  0.1009154E+04  0.7818608E-02  0.8950777E-01
          2   -1    0    0  501    0  0.00000000000E+00  0.00000000000E+00  0.17191267619E+04  0.17191267619E+04  0.00000000000E+00 0. -1.
         -4   -1    0    0    0  501 -0.00000000000E+00 -0.00000000000E+00 -0.18230360755E+04  0.18230360755E+04  0.00000000000E+00 0. -1.
   -9000010    2    1    2    0  502 -0.69259122345E+02 -0.47930013285E+03 -0.88707257895E+02  0.10214303251E+04  0.89494440500E+03 0.  0.
        -13    1    1    2    0    0  0.10399862607E+03  0.45304657272E+03 -0.12249613714E+04  0.13101897892E+04  0.10566000000E+00 0.  1.
         13    1    3    3    0    0 -0.13692395527E+03 -0.16333006559E+03  0.38966709032E+03  0.44414562060E+03  0.10566000000E+00 0. -1.
          2    1    1    2  502    0 -0.34739503728E+02  0.26253560136E+02  0.12097593156E+04  0.12105427230E+04  0.00000000000E+00 0. -1.
         -4    1    3    3    0  502  0.67664832928E+02 -0.31597006726E+03 -0.47837434821E+03  0.57728470450E+03  0.00000000000E+00 0. -1.
</event>
<event>
 7    1  0.4894942E-006  0.1120016E+04  0.7818608E-02  0.8868428E-01
         -4   -1    0    0    0  501 -0.00000000000E+00  0.00000000000E+00  0.78726355231E+03  0.78726355231E+03  0.00000000000E+00 0. -1.
          2   -1    0    0  501    0  0.00000000000E+00 -0.00000000000E+00 -0.14878309885E+04  0.14878309885E+04  0.00000000000E+00 0.  1.
   -9000010    2    1    2    0  502 -0.13963740387E+03 -0.41723107425E+03  0.30306365649E+02  0.11041675549E+04  0.10122683140E+04 0.  0.
        -13    1    1    2    0    0  0.85924419560E+01  0.50984602046E+03 -0.99571286823E+02  0.51954908042E+03  0.10566000000E+00 0.  1.
         13    1    3    3    0    0 -0.15995712760E+03 -0.61440894067E+03 -0.31291823689E+03  0.70781527476E+03  0.10566000000E+00 0. -1.
          2    1    1    2  502    0  0.13104496192E+03 -0.92614946212E+02 -0.63130251505E+03  0.65137790553E+03  0.00000000000E+00 0.  1.
         -4    1    3    3    0  502  0.20319723722E+02  0.19717786642E+03  0.34322460254E+03  0.39635228014E+03  0.00000000000E+00 0. -1.
</event>
<event>
 7    1  0.4894942E-006  0.1249290E+04  0.7818608E-02  0.8907843E-01
          4   -1    0    0  501    0 -0.00000000000E+00  0.00000000000E+00  0.14753039943E+04  0.14753039943E+04  0.00000000000E+00 0.  1.
          2   -1    0    0  502    0  0.00000000000E+00 -0.00000000000E+00 -0.20610827224E+04  0.20610827224E+04  0.00000000000E+00 0.  1.
    9000010    2    1    2  502    0  0.77477577744E+03 -0.36935576088E+03  0.59174624605E+03  0.14488805989E+04  0.10061760218E+04 0.  0.
        -13    1    3    3    0    0  0.57951043396E+03 -0.71759709308E+03  0.43744799083E+03  0.10208519417E+04  0.10566000000E+00 0.  1.
         13    1    1    2    0    0 -0.25336772846E+03 -0.14767473072E+03  0.31115796539E+03  0.42757727080E+03  0.10566000000E+00 0. -1.
          2    1    1    2  501    0 -0.52140804898E+03  0.51703049160E+03 -0.14886829395E+04  0.16599288471E+04  0.00000000000E+00 0.  1.
          4    1    3    3  502    0  0.19526534348E+03  0.34824133220E+03  0.15429825522E+03  0.42802865719E+03  0.00000000000E+00 0.  1.
</event>
<event>
 7    1  0.4894942E-006  0.1348970E+04  0.7818608E-02  0.8588592E-01
          2   -1    0    0  502    0  0.00000000000E+00  0.00000000000E+00  0.15243343713E+04  0.15243343713E+04  0.00000000000E+00 0.  1.
          4   -1    0    0  501    0 -0.00000000000E+00 -0.00000000000E+00 -0.21189105685E+04  0.21189105685E+04  0.00000000000E+00 0.  1.
    9000010    2    1    2  502    0 -0.41985414884E+03  0.10371263053E+04 -0.16314720712E+03  0.14924373248E+04  0.97408607310E+03 0.  0.
        -13    1    3    3    0    0 -0.16352370628E+03  0.10562957259E+04 -0.40158714732E+03  0.11418287574E+04  0.10566000000E+00 0.  1.
         13    1    1    2    0    0  0.89662693132E+03 -0.18157323127E+03 -0.68053959850E+03  0.11401942153E+04  0.10566000000E+00 0. -1.
          2    1    1    2  501    0 -0.47677278248E+03 -0.85555307404E+03  0.24911060838E+03  0.10106133998E+04  0.00000000000E+00 0.  1.
          4    1    3    3  502    0 -0.25633044256E+03 -0.19169420606E+02  0.23843994021E+03  0.35060856743E+03  0.00000000000E+00 0.  1.
</event>
<event>
 7    1  0.4894942E-006  0.1019871E+04  0.7818608E-02  0.9133204E-01
         -4   -1    0    0    0  501 -0.00000000000E+00  0.00000000000E+00  0.18015944705E+04  0.18015944705E+04  0.00000000000E+00 0. -1.
          2   -1    0    0  501    0  0.00000000000E+00 -0.00000000000E+00 -0.17159664590E+04  0.17159664590E+04  0.00000000000E+00 0.  1.
   -9000010    2    1    2    0  502 -0.20601339233E+01  0.47101630549E+02  0.74018991630E+03  0.12417562189E+04  0.99591896617E+03 0.  0.
        -13    1    1    2    0    0  0.21735153148E+03  0.50907856062E+01  0.78743162891E+03  0.81689423165E+03  0.10566000000E+00 0.  1.
         13    1    3    3    0    0 -0.29371789693E+03  0.38612894383E+03  0.16344959990E+03  0.51193900721E+03  0.10566000000E+00 0. -1.
          2    1    1    2  502    0 -0.21529139755E+03 -0.52192416155E+02 -0.14419935338E+04  0.14589104790E+04  0.00000000000E+00 0.  1.
         -4    1    3    3    0  502  0.29165776301E+03 -0.33902731328E+03  0.57674031640E+03  0.72981721166E+03  0.00000000000E+00 0. -1.
</event>
<event>
 7    1  0.4894942E-006  0.1171314E+04  0.7818608E-02  0.8813775E-01
          4   -1    0    0  501    0 -0.00000000000E+00  0.00000000000E+00  0.91976199630E+03  0.91976199630E+03  0.00000000000E+00 0.  1.
          2   -1    0    0  502    0  0.00000000000E+00 -0.00000000000E+00 -0.12839623814E+04  0.12839623814E+04  0.00000000000E+00 0.  1.
    9000010    2    1    2  502    0 -0.96623427440E+02  0.49959781284E+03 -0.30701653051E+03  0.12030778901E+04  0.10460416810E+04 0.  0.
        -13    1    3    3    0    0 -0.41679910918E+03 -0.57873279183E+02  0.11231979993E+03  0.43553020846E+03  0.10566000000E+00 0.  1.
         13    1    1    2    0    0  0.95152627916E+01 -0.53189934156E+03  0.31418397804E+03  0.61783414684E+03  0.10566000000E+00 0. -1.
          2    1    1    2  501    0  0.87108164648E+02  0.32301528718E+02 -0.37136783267E+03  0.38281234077E+03  0.00000000000E+00 0.  1.
          4    1    3    3  502    0  0.32017568174E+03  0.55747109202E+03 -0.41933633043E+03  0.76754768167E+03  0.00000000000E+00 0.  1.
</event>
<event>
 7    1  0.4894942E-006  0.1136832E+04  0.7818608E-02  0.8781794E-01
         -4   -1    0    0    0  501 -0.00000000000E+00  0.00000000000E+00  0.21032806341E+04  0.21032806341E+04  0.00000000000E+00 0. -1.
          2   -1    0    0  501    0  0.00000000000E+00 -0.00000000000E+00 -0.99210080528E+03  0.99210080528E+03  0.00000000000E+00 0. -1.
   -9000010    2    1    2    0  502  0.60283015252E+03  0.22204025071E+03  0.14894877802E+04  0.18676036997E+04  0.92556127086E+03 0.  0.
        -13    1    1    2    0    0 -0.74582308210E+03  0.89063105952E+02 -0.48991343761E+02  0.75271805450E+03  0.10566000000E+00 0.  1.
         13    1    3    3    0    0  0.45443768193E+03  0.56901264364E+03  0.11431691064E+04  0.13554057003E+04  0.10566000000E+00 0. -1.
          2    1    1    2  502    0  0.14299292958E+03 -0.31110335666E+03 -0.32931660759E+03  0.47505968517E+03  0.00000000000E+00 0. -1.
         -4    1    3    3    0  502  0.14839247059E+03 -0.34697239294E+03  0.34631867373E+03  0.51219799938E+03  0.00000000000E+00 0. -1.
</event>
<event>
 7    1  0.4894942E-006  0.1033277E+04  0.7818608E-02  0.9081508E-01
          2   -1    0    0  502    0  0.00000000000E+00  0.00000000000E+00  0.27673644881E+04  0.27673644881E+04  0.00000000000E+00 0.  1.
          4   -1    0    0  501    0 -0.00000000000E+00 -0.00000000000E+00 -0.37274602170E+03  0.37274602170E+03  0.00000000000E+00 0.  1.
    9000010    2    1    2  502    0 -0.24972962518E+03 -0.63420632729E+01  0.64172344357E+03  0.12149525131E+04  0.10009473131E+04 0.  0.
        -13    1    3    3    0    0 -0.11257534005E+03  0.19069079089E+03  0.86148257984E+03  0.88948773542E+03  0.10566000000E+00 0.  1.
         13    1    1    2    0    0  0.24948001458E+03 -0.73208402467E+02  0.11326545767E+03  0.28359975834E+03  0.10566000000E+00 0. -1.
          2    1    1    2  501    0  0.24961059842E+00  0.79550465740E+02  0.16396295651E+04  0.16415582383E+04  0.00000000000E+00 0.  1.
          4    1    3    3  502    0 -0.13715428513E+03 -0.19703285417E+03 -0.21975913627E+03  0.32546477770E+03  0.00000000000E+00 0.  1.
</event>
<event>
 7    1  0.4894942E-006  0.1063270E+04  0.7818608E-02  0.8985972E-01
         -4   -1    0    0    0  501 -0.00000000000E+00  0.00000000000E+00  0.16565718093E+04  0.16565718093E+04  0.00000000000E+00 0. -1.
          2   -1    0    0  501    0  0.00000000000E+00 -0.00000000000E+00 -0.21304753937E+04  0.21304753937E+04  0.00000000000E+00 0.  1.
   -9000010    2    1    2    0  502 -0.22955800483E+03 -0.68690942450E+02  0.93174272752E+03  0.13916863041E+04  0.10055997890E+04 0.  0.
        -13    1    1    2    0    0  0.32182526321E+03  0.20597502800E+03  0.41679199897E+03  0.56543151111E+03  0.10566000000E+00 0.  1.
         13    1    3    3    0    0 -0.34640582375E+03  0.23383624422E+03  0.97850406050E+03  0.10640237739E+04  0.10566000000E+00 0. -1.
          2    1    1    2  502    0 -0.92267258375E+02 -0.13728408554E+03 -0.18224383109E+04  0.18299293877E+04  0.00000000000E+00 0.  1.
         -4    1    3    3    0  502  0.11684781892E+03 -0.30252718667E+03 -0.46761332980E+02  0.32766253024E+03  0.00000000000E+00 0. -1.
</event>
<event>
 7    1  0.4894942E-006  0.1074051E+04  0.7818608E-02  0.8944564E-01
          2   -1    0    0  502    0  0.00000000000E+00  0.00000000000E+00  0.12280947227E+04  0.12280947227E+04  0.00000000000E+00 0.  1.
          4   -1    0    0  501    0 -0.00000000000E+00 -0.00000000000E+00 -0.58300750330E+03  0.58300750330E+03  0.00000000000E+00 0.  1.
    9000010    2    1    2  502    0 -0.45632700480E+03 -0.42121987249E+02  0.14105356044E+03  0.11072752596E+04  0.99807504555E+03 0.  0.
        -13    1    3    3    0    0 -0.76961754056E+03 -0.23640814148E+02  0.18082969567E+03  0.79092947652E+03  0.10566000000E+00 0.  1.
         13    1    1    2    0    0  0.36020992841E+03  0.25988199933E+02  0.27188193360E+03  0.45204687372E+03  0.10566000000E+00 0. -1.
          2    1    1    2  501    0  0.96117076399E+02  0.16133787316E+02  0.23215172537E+03  0.25178009266E+03  0.00000000000E+00 0.  1.
          4    1    3    3  502    0  0.31329053576E+03 -0.18481173102E+02 -0.39776135238E+02  0.31634578310E+03  0.00000000000E+00 0.  1.
</event>
<event>
 7    1  0.4894942E-006  0.1008352E+04  0.7818608E-02  0.9229949E-01
          1   -1    0    0  501    0  0.00000000000E+00  0.00000000000E+00  0.11678324248E+04  0.11678324248E+04  0.00000000000E+00 0.  1.
         -4   -1    0    0    0  501 -0.00000000000E+00 -0.00000000000E+00 -0.27535294641E+04  0.27535294641E+04  0.00000000000E+00 0. -1.
   -9000010    2    1    2    0  502  0.45507229751E+02  0.15121651510E+03 -0.18184547311E+04  0.20795790413E+04  0.99646075566E+03 0.  0.
        -13    1    1    2    0    0  0.46836373310E+02 -0.14849093917E+03 -0.79488749898E+03  0.80999342718E+03  0.10566000000E+00 0.  1.
         13    1    3    3    0    0  0.72403057201E+02  0.49839742946E+03 -0.47700154086E+03  0.69366611675E+03  0.10566000000E+00 0. -1.
          1    1    1    2  502    0 -0.92343603061E+02 -0.27255759325E+01  0.10276451909E+04  0.10317894204E+04  0.00000000000E+00 0.  1.
         -4    1    3    3    0  502 -0.26895827450E+02 -0.34718091436E+03 -0.13414531902E+04  0.13859129245E+04  0.00000000000E+00 0. -1.
</event>
<event>
 7    1  0.4894942E-006  0.1680610E+04  0.7818608E-02  0.8356799E-01
          1   -1    0    0  501    0  0.00000000000E+00  0.00000000000E+00  0.31625818185E+04  0.31625818185E+04  0.00000000000E+00 0.  1.
         -4   -1    0    0    0  501 -0.00000000000E+00 -0.00000000000E+00 -0.90178065137E+03  0.90178065137E+03  0.00000000000E+00 0. -1.
   -9000010    2    1    2    0  502  0.85263252953E+03 -0.97250050066E+03  0.13018720581E+04  0.20814634126E+04  0.98228286565E+03 0.  0.
        -13    1    1    2    0    0 -0.90246186397E+03  0.10759713673E+04  0.47035428330E+03  0.14810080899E+04  0.10566000000E+00 0.  1.
         13    1    3    3    0    0  0.51001263685E+03  0.71072965458E+02  0.30704451340E+03  0.59953365255E+03  0.10566000000E+00 0. -1.
          1    1    1    2  502    0  0.49829334434E+02 -0.10347086668E+03  0.48857482575E+03  0.50189096742E+03  0.00000000000E+00 0.  1.
         -4    1    3    3    0  502  0.34261989268E+03 -0.10435734661E+04  0.99482754470E+03  0.14819297601E+04  0.00000000000E+00 0. -1.
</event>
<event>
 7    1  0.4894942E-006  0.1040526E+04  0.7818608E-02  0.9085522E-01
          4   -1    0    0  501    0  0.00000000000E+00  0.00000000000E+00  0.21259286007E+04  0.21259286007E+04  0.00000000000E+00 0.  1.
          4   -1    0    0  502    0 -0.00000000000E+00 -0.00000000000E+00 -0.27679340861E+03  0.27679340861E+03  0.00000000000E+00 0.  1.
    9000010    2    1    2  501    0  0.27080576556E+03  0.16184301035E+03  0.11072660925E+04  0.15320498028E+04  0.10107469890E+04 0.  0.
        -13    1    3    3    0    0  0.52329483488E+03 -0.23684567962E+03  0.48966000457E+03  0.75478493057E+03  0.10566000000E+00 0.  1.
         13    1    1    2    0    0 -0.94950494730E+02 -0.22269829011E+03  0.26580492169E+03  0.35953079482E+03  0.10566000000E+00 0. -1.
          4    1    3    3  501    0 -0.25248906933E+03  0.39868868997E+03  0.61760608798E+03  0.77726487220E+03  0.00000000000E+00 0.  1.
          4    1    1    2  502    0 -0.17585527083E+03  0.60855279755E+02  0.47606417783E+03  0.51114141171E+03  0.00000000000E+00 0.  1.
</event>
<event>
 7    1  0.4894942E-006  0.1050165E+04  0.7818608E-02  0.9259365E-01
          2   -1    0    0  501    0  0.00000000000E+00  0.00000000000E+00  0.61361175197E+03  0.61361175197E+03  0.00000000000E+00 0. -1.
         -4   -1    0    0    0  501 -0.00000000000E+00 -0.00000000000E+00 -0.12355340647E+04  0.12355340647E+04  0.00000000000E+00 0. -1.
   -9000010    2    1    2    0  502  0.22816997266E+03 -0.18875921361E+03 -0.83404495718E+03  0.13437371377E+04  0.10110919481E+04 0.  0.
        -13    1    1    2    0    0  0.46092294207E+02  0.11306256867E+03 -0.36640617414E+02  0.12747623319E+03  0.10566000000E+00 0.  1.
         13    1    3    3    0    0 -0.95436008262E+02  0.43638341206E+02  0.20534524835E+03  0.23060576463E+03  0.10566000000E+00 0. -1.
          2    1    1    2  502    0 -0.27426226687E+03  0.75696644943E+02  0.24876326189E+03  0.37793244575E+03  0.00000000000E+00 0. -1.
         -4    1    3    3    0  502  0.32360598092E+03 -0.23239755482E+03 -0.10393902055E+04  0.11131313731E+04  0.00000000000E+00 0. -1.
</event>
<event>
 7    1  0.4894942E-006  0.1033832E+04  0.7818608E-02  0.9054969E-01
          4   -1    0    0  501    0 -0.00000000000E+00  0.00000000000E+00  0.76762046602E+03  0.76762046602E+03  0.00000000000E+00 0.  1.
          2   -1    0    0  502    0  0.00000000000E+00 -0.00000000000E+00 -0.14974354128E+04  0.14974354128E+04  0.00000000000E+00 0.  1.
    9000010    2    1    2  502    0 -0.29420283838E+03  0.16420931048E+03 -0.67089605005E+03  0.12455651791E+04  0.99388686365E+03 0.  0.
        -13    1    3    3    0    0 -0.62295464595E+02  0.54906949496E+03 -0.55134497227E+03  0.78060189906E+03  0.10566000000E+00 0.  1.
         13    1    1    2    0    0  0.24901166807E+03 -0.13305711166E+03  0.43714961208E+03  0.52039485038E+03  0.10566000000E+00 0. -1.
          2    1    1    2  501    0  0.45191170310E+02 -0.31152198820E+02 -0.49606850882E+03  0.49909584932E+03  0.00000000000E+00 0.  1.
          4    1    3    3  502    0 -0.23190737378E+03 -0.38486018448E+03 -0.11955107778E+03  0.46496328007E+03  0.00000000000E+00 0.  1.
</event>
<event>
 7    1  0.4894942E-006  0.1244784E+04  0.7818608E-02  0.8840436E-01
          2   -1    0    0  501    0  0.00000000000E+00  0.00000000000E+00  0.14798537776E+04  0.14798537776E+04  0.00000000000E+00 0. -1.
         -4   -1    0    0    0  501 -0.00000000000E+00 -0.00000000000E+00 -0.12965700220E+04  0.12965700220E+04  0.00000000000E+00 0. -1.
   -9000010    2    1    2    0  502 -0.84116757262E+03  0.61200245582E+03 -0.41450632538E+03  0.14953616753E+04  0.99105053103E+03 0.  0.
        -13    1    1    2    0    0  0.37220391499E+03 -0.12463843798E+03  0.43397870597E+03  0.58515640897E+03  0.10566000000E+00 0.  1.
         13    1    3    3    0    0  0.13686565576E+03  0.32300220845E+03  0.83234060541E+02  0.36054202860E+03  0.10566000000E+00 0. -1.
          2    1    1    2  502    0  0.46896365764E+03 -0.48736401784E+03  0.16381137496E+03  0.69590571533E+03  0.00000000000E+00 0. -1.
         -4    1    3    3    0  502 -0.97803322838E+03  0.28900024737E+03 -0.49774038592E+03  0.11348196467E+04  0.00000000000E+00 0. -1.
</event>
<event>
 7    1  0.4894942E-006  0.1410122E+04  0.7818608E-02  0.8965956E-01
         -4   -1    0    0    0  501 -0.00000000000E+00  0.00000000000E+00  0.11846140531E+04  0.11846140531E+04  0.00000000000E+00 0. -1.
          2   -1    0    0  501    0  0.00000000000E+00 -0.00000000000E+00 -0.15865304128E+04  0.15865304128E+04  0.00000000000E+00 0. -1.
   -9000010    2    1    2    0  502  0.74117577689E+03  0.63482067800E+03  0.15526202424E+03  0.14160563072E+04  0.10142831674E+04 0.  0.
        -13    1    1    2    0    0  0.10078284628E+03 -0.12509983131E+03  0.83155048892E+02  0.18089202088E+03  0.10566000000E+00 0.  1.
         13    1    3    3    0    0  0.33682543872E+03 -0.16428675985E+02 -0.35932821686E+03  0.49278601457E+03  0.10566000000E+00 0. -1.
          2    1    1    2  502    0 -0.84195862317E+03 -0.50972084670E+03 -0.64033343291E+03  0.11741961378E+04  0.00000000000E+00 0. -1.
         -4    1    3    3    0  502  0.40435033817E+03  0.65124935399E+03  0.51459024110E+03  0.92327029265E+03  0.00000000000E+00 0. -1.
</event>
<event>
 7    1  0.4894942E-006  0.1091351E+04  0.7818608E-02  0.8919087E-01
          4   -1    0    0  501    0 -0.00000000000E+00  0.00000000000E+00  0.22967656494E+04  0.22967656494E+04  0.00000000000E+00 0.  1.
          2   -1    0    0  502    0  0.00000000000E+00 -0.00000000000E+00 -0.74940406612E+03  0.74940406612E+03  0.00000000000E+00 0. -1.
    9000010    2    1    2  502    0 -0.29524397025E+03 -0.30661157151E+03  0.14589905875E+03  0.11032466955E+04  0.10073167715E+04 0.  0.
        -13    1    3    3    0    0  0.18984317880E+03  0.20563751332E+03  0.26774494976E+03  0.38731716810E+03  0.10566000000E+00 0.  1.
         13    1    1    2    0    0  0.30383889266E+03  0.28947509589E+03  0.16454811034E+04  0.16981525186E+04  0.10566000000E+00 0. -1.
          2    1    1    2  501    0 -0.85949224061E+01  0.17136475622E+02 -0.24401857887E+03  0.24477050133E+03  0.00000000000E+00 0. -1.
          4    1    3    3  502    0 -0.48508714905E+03 -0.51224908483E+03 -0.12184589100E+03  0.71592952742E+03  0.00000000000E+00 0.  1.
</event>
<event>
 7    1  0.4894942E-006  0.1036187E+04  0.7818608E-02  0.9052820E-01
          4   -1    0    0  501    0 -0.00000000000E+00  0.00000000000E+00  0.17909625083E+04  0.17909625083E+04  0.00000000000E+00 0.  1.
          2   -1    0    0  502    0  0.00000000000E+00 -0.00000000000E+00 -0.12877297103E+04  0.12877297103E+04  0.00000000000E+00 0.  1.
    9000010    2    1    2  502    0  0.36497944719E+03  0.57597944832E+02  0.64417299913E+03  0.12425317733E+04  0.99619216752E+03 0.  0.
        -13    1    3    3    0    0  0.52630142039E+03 -0.90961566777E+02  0.80815304521E+03  0.96869941023E+03  0.10566000000E+00 0.  1.
         13    1    1    2    0    0 -0.27650971570E+03 -0.34411313243E+02  0.82248561503E+03  0.86840333915E+03  0.10566000000E+00 0. -1.
          2    1    1    2  501    0 -0.88469731487E+02 -0.23186631590E+02 -0.96342581617E+03  0.96775710617E+03  0.00000000000E+00 0.  1.
          4    1    3    3  502    0 -0.16132197320E+03  0.14855951161E+03 -0.16398004608E+03  0.27383236303E+03  0.00000000000E+00 0.  1.
</event>
<event>
 7    1  0.4894942E-006  0.1248988E+04  0.7818608E-02  0.8825165E-01
         -4   -1    0    0    0  501 -0.00000000000E+00  0.00000000000E+00  0.23663516900E+04  0.23663516900E+04  0.00000000000E+00 0. -1.
          2   -1    0    0  501    0  0.00000000000E+00 -0.00000000000E+00 -0.42314162405E+03  0.42314162405E+03  0.00000000000E+00 0. -1.
   -9000010    2    1    2    0  502  0.17202818886E+03  0.35311020050E+03  0.11418841316E+04  0.16871534383E+04  0.11782643348E+04 0.  0.
        -13    1    1    2    0    0 -0.28857127401E+03 -0.30637248021E+03  0.86470001740E+03  0.96168789536E+03  0.10566000000E+00 0.  1.
         13    1    3    3    0    0 -0.91780981966E+02 -0.38423349719E+03  0.65534595769E+03  0.76520419787E+03  0.10566000000E+00 0. -1.
          2    1    1    2  502    0  0.11654308515E+03 -0.46737720289E+02 -0.63374083086E+02  0.14065198044E+03  0.00000000000E+00 0. -1.
         -4    1    3    3    0  502  0.26380917083E+03  0.73734369769E+03  0.48653817395E+03  0.92194924039E+03  0.00000000000E+00 0. -1.
</event>
<event>
 7    1  0.4894942E-006  0.1055419E+04  0.7818608E-02  0.9014633E-01
          2   -1    0    0  502    0  0.00000000000E+00  0.00000000000E+00  0.21243371442E+04  0.21243371442E+04  0.00000000000E+00 0. -1.
          4   -1    0    0  501    0 -0.00000000000E+00 -0.00000000000E+00 -0.45734213997E+03  0.45734213997E+03  0.00000000000E+00 0.  1.
    9000010    2    1    2  502    0 -0.15138232550E+03 -0.35359156493E+03  0.12505074067E+04  0.16512738629E+04  0.10074686064E+04 0.  0.
        -13    1    3    3    0    0  0.11457343016E+03 -0.22693388425E+03 -0.96887603043E+02  0.27205381362E+03  0.10566000000E+00 0.  1.
         13    1    1    2    0    0  0.21245403091E+03  0.22742719348E+03 -0.15095956659E+03  0.34590265321E+03  0.10566000000E+00 0. -1.
          2    1    1    2  501    0 -0.61071705416E+02  0.12616437144E+03  0.56744716407E+03  0.58450276803E+03  0.00000000000E+00 0. -1.
          4    1    3    3  502    0 -0.26595575566E+03 -0.12665768068E+03  0.13473950098E+04  0.13792200493E+04  0.00000000000E+00 0.  1.
</event>
<event>
 7    1  0.4894942E-006  0.1135944E+04  0.7818608E-02  0.8836001E-01
          2   -1    0    0  502    0  0.00000000000E+00  0.00000000000E+00  0.12651396991E+04  0.12651396991E+04  0.00000000000E+00 0. -1.
          4   -1    0    0  501    0 -0.00000000000E+00 -0.00000000000E+00 -0.13762848544E+04  0.13762848544E+04  0.00000000000E+00 0.  1.
    9000010    2    1    2  502    0 -0.11111512340E+03  0.49789799544E+03 -0.37413617992E+03  0.11889925430E+04  0.10067156508E+04 0.  0.
        -13    1    3    3    0    0 -0.50182020757E+02  0.75396471209E+03 -0.30655080825E+02  0.75625443300E+03  0.10566000000E+00 0.  1.
         13    1    1    2    0    0  0.13496970280E+03 -0.51351961728E+03 -0.47588153468E+03  0.71300944189E+03  0.10566000000E+00 0. -1.
          2    1    1    2  501    0 -0.23854579403E+02  0.15621621836E+02  0.73887255939E+03  0.73942256866E+03  0.00000000000E+00 0. -1.
          4    1    3    3  502    0 -0.60933102643E+02 -0.25606671665E+03 -0.34348109909E+03  0.43273810995E+03  0.00000000000E+00 0.  1.
</event>
<event>
 7    1  0.4894942E-006  0.1010615E+04  0.7818608E-02  0.9120337E-01
          2   -1    0    0  502    0  0.00000000000E+00  0.00000000000E+00  0.21606758708E+04  0.21606758708E+04  0.00000000000E+00 0.  1.
          4   -1    0    0  501    0 -0.00000000000E+00 -0.00000000000E+00 -0.14786429534E+04  0.14786429534E+04  0.00000000000E+00 0.  1.
    9000010    2    1    2  502    0 -0.24391991003E+03  0.12782177021E+03  0.27063070782E+03  0.10560166429E+04  0.98290123748E+03 0.  0.
        -13    1    3    3    0    0 -0.11572682541E+03 -0.71791249779E+02 -0.35857956645E+03  0.38357006962E+03  0.10566000000E+00 0.  1.
         13    1    1    2    0    0  0.19760463944E+03 -0.12588589727E+03 -0.10729464224E+04  0.10982298891E+04  0.10566000000E+00 0. -1.
          2    1    1    2  501    0  0.46315270596E+02 -0.19358729405E+01  0.14843486320E+04  0.14850722922E+04  0.00000000000E+00 0.  1.
          4    1    3    3  502    0 -0.12819308462E+03  0.19961301999E+03  0.62921027427E+03  0.67244657330E+03  0.00000000000E+00 0.  1.
</event>
<event>
 7    1  0.4894942E-006  0.1148265E+04  0.7818608E-02  0.8741946E-01
         -4   -1    0    0    0  501 -0.00000000000E+00  0.00000000000E+00  0.19678393899E+04  0.19678393899E+04  0.00000000000E+00 0. -1.
          1   -1    0    0  501    0  0.00000000000E+00 -0.00000000000E+00 -0.91974409389E+03  0.91974409389E+03  0.00000000000E+00 0. -1.
   -9000010    2    1    2    0  502  0.61482714702E+03  0.44030086671E+03  0.84981131763E+03  0.14268617024E+04  0.86132326582E+03 0.  0.
        -13    1    1    2    0    0 -0.63456485200E+03 -0.42087166271E+03  0.65424925094E+03  0.10039161326E+04  0.10566000000E+00 0.  1.
         13    1    3    3    0    0 -0.19026966792E+03  0.11082585296E+03  0.14223130204E+02  0.22065181805E+03  0.10566000000E+00 0. -1.
          1    1    1    2  502    0  0.19737704981E+02 -0.19429203997E+02 -0.45596527256E+03  0.45680564876E+03  0.00000000000E+00 0. -1.
         -4    1    3    3    0  502  0.80509681494E+03  0.32947501375E+03  0.83558818743E+03  0.12062098843E+04  0.00000000000E+00 0. -1.
</event>
<event>
 7    1  0.4894942E-006  0.1043563E+04  0.7818608E-02  0.9030517E-01
          4   -1    0    0  501    0 -0.00000000000E+00  0.00000000000E+00  0.22357824685E+04  0.22357824685E+04  0.00000000000E+00 0.  1.
          2   -1    0    0  502    0  0.00000000000E+00 -0.00000000000E+00 -0.61601411966E+03  0.61601411966E+03  0.00000000000E+00 0.  1.
    9000010    2    1    2  502    0 -0.31670405607E+03  0.14580027712E+03  0.14509858520E+04  0.17952143541E+04  0.99793559643E+03 0.  0.
        -13    1    3    3    0    0  0.32723702340E+03  0.21587087285E+03  0.39585417926E+03  0.55712193067E+03  0.10566000000E+00 0.  1.
         13    1    1    2    0    0  0.28579448237E+03 -0.80114949074E+02  0.57331354469E+03  0.64558912856E+03  0.10566000000E+00 0. -1.
          2    1    1    2  501    0  0.30909573699E+02 -0.65685328048E+02 -0.40453104785E+03  0.41099310547E+03  0.00000000000E+00 0.  1.
          4    1    3    3  502    0 -0.64394107947E+03 -0.70070595732E+02  0.10551316728E+04  0.12380924235E+04  0.00000000000E+00 0.  1.
</event>
<event>
 7    1  0.4894942E-006  0.1010265E+04  0.7818608E-02  0.9062424E-01
          2   -1    0    0  501    0  0.00000000000E+00  0.00000000000E+00  0.20401377895E+04  0.20401377895E+04  0.00000000000E+00 0.  1.
         -4   -1    0    0    0  501 -0.00000000000E+00 -0.00000000000E+00 -0.22428826447E+04  0.22428826447E+04  0.00000000000E+00 0. -1.
   -9000010    2    1    2    0  502 -0.72408437803E+02 -0.31318124786E+03 -0.14369222383E+04  0.17609844755E+04  0.96591683308E+03 0.  0.
        -13    1    1    2    0    0  0.78065780331E+02  0.28027210408E+03 -0.61090714540E+03  0.67664929605E+03  0.10566000000E+00 0.  1.
         13    1    3    3    0    0 -0.16489262776E+03  0.31241305412E+03 -0.31596540731E+03  0.47394687978E+03  0.10566000000E+00 0. -1.
          2    1    1    2  502    0 -0.56573425272E+01  0.32909143778E+02  0.18450845284E+04  0.18453866626E+04  0.00000000000E+00 0.  1.
         -4    1    3    3    0  502  0.92484189952E+02 -0.62559430198E+03 -0.11209568309E+04  0.12870375958E+04  0.00000000000E+00 0. -1.
</event>
<event>
 7    1  0.4894942E-006  0.1084747E+04  0.7818608E-02  0.8974374E-01
          4   -1    0    0  501    0 -0.00000000000E+00  0.00000000000E+00  0.24432215418E+04  0.24432215418E+04  0.00000000000E+00 0.  1.
          2   -1    0    0  502    0  0.00000000000E+00 -0.00000000000E+00 -0.84133402068E+03  0.84133402068E+03  0.00000000000E+00 0. -1.
    9000010    2    1    2  502    0 -0.34369230386E+03 -0.20788334254E+03  0.12475632485E+03  0.11123384989E+04  0.10297538112E+04 0.  0.
        -13    1    3    3    0    0 -0.41005192577E+03 -0.19082160602E+03 -0.38746547011E+03  0.59555433744E+03  0.10566000000E+00 0.  1.
         13    1    1    2    0    0  0.30620733424E+03  0.14575051186E+03  0.18049146689E+04  0.18364975133E+04  0.10566000000E+00 0. -1.
          2    1    1    2  501    0  0.37484969622E+02  0.62132830679E+02 -0.32778347257E+03  0.33571955035E+03  0.00000000000E+00 0. -1.
          4    1    3    3  502    0  0.66359621904E+02 -0.17061736513E+02  0.51222179495E+03  0.51678416142E+03  0.00000000000E+00 0.  1.
</event>
<event>
 7    1  0.4894942E-006  0.1241356E+04  0.7818608E-02  0.8714765E-01
          2   -1    0    0  502    0  0.00000000000E+00  0.00000000000E+00  0.19721629225E+04  0.19721629225E+04  0.00000000000E+00 0. -1.
          4   -1    0    0  501    0 -0.00000000000E+00 -0.00000000000E+00 -0.31787270811E+04  0.31787270811E+04  0.00000000000E+00 0.  1.
    9000010    2    1    2  502    0  0.12310095783E+03 -0.66146531354E+03 -0.12295567010E+04  0.17461664732E+04  0.10414400915E+04 0.  0.
        -13    1    3    3    0    0 -0.17122270243E+03  0.14307970653E+03  0.27630229754E+02  0.22483873556E+03  0.10566000000E+00 0.  1.
         13    1    1    2    0    0 -0.17118600819E+03  0.65461180690E+03 -0.16228024916E+04  0.17582119341E+04  0.10566000000E+00 0. -1.
          2    1    1    2  501    0  0.48085050357E+02  0.68535066403E+01  0.16457950341E+04  0.16465115963E+04  0.00000000000E+00 0. -1.
          4    1    3    3  502    0  0.29432366026E+03 -0.80454502008E+03 -0.12571869308E+04  0.15213277376E+04  0.00000000000E+00 0.  1.
</event>
<event>
 7    1  0.4894942E-006  0.9904177E+03  0.7818608E-02  0.9320725E-01
         -4   -1    0    0    0  501 -0.00000000000E+00  0.00000000000E+00  0.17192705098E+04  0.17192705098E+04  0.00000000000E+00 0. -1.
          2   -1    0    0  501    0  0.00000000000E+00 -0.00000000000E+00 -0.60260241058E+03  0.60260241058E+03  0.00000000000E+00 0. -1.
   -9000010    2    1    2    0  502  0.48081525258E+02  0.93160798118E+02  0.12098718926E+04  0.15628229515E+04  0.98368430601E+03 0.  0.
        -13    1    1    2    0    0 -0.54291702998E+02 -0.10238731208E+03  0.32276102275E+03  0.34293649508E+03  0.10566000000E+00 0.  1.
         13    1    3    3    0    0  0.22907057191E+03 -0.70730350324E+02  0.12851460391E+04  0.13073165119E+04  0.10566000000E+00 0. -1.
          2    1    1    2  502    0  0.62101777399E+01  0.92265139618E+01 -0.41596481610E+03  0.41611347382E+03  0.00000000000E+00 0. -1.
         -4    1    3    3    0  502 -0.18098904665E+03  0.16389114844E+03 -0.75274146497E+02  0.25550643960E+03  0.00000000000E+00 0. -1.
</event>
<event>
 7    1  0.4894942E-006  0.1005998E+04  0.7818608E-02  0.9121896E-01
         -2   -1    0    0    0  501  0.00000000000E+00  0.00000000000E+00  0.32348569591E+04  0.32348569591E+04  0.00000000000E+00 0. -1.
         -4   -1    0    0    0  502 -0.00000000000E+00 -0.00000000000E+00 -0.20069202362E+03  0.20069202362E+03  0.00000000000E+00 0. -1.
   -9000010    2    1    2    0  501 -0.22073799133E+03 -0.59232239881E+02  0.25502622919E+04  0.27408049449E+04  0.97772197943E+03 0.  0.
        -13    1    1    2    0    0  0.22667854020E+03  0.70081198644E+02  0.28269346638E+02  0.23894288463E+03  0.10566000000E+00 0.  1.
         13    1    3    3    0    0  0.13483218857E+03 -0.43101303636E+03  0.15711927153E+04  0.16348084036E+04  0.10566000000E+00 0. -1.
         -2    1    1    2    0  502 -0.59405488729E+01 -0.10848958764E+02  0.45563329694E+03  0.45580115325E+03  0.00000000000E+00 0. -1.
         -4    1    3    3    0  501 -0.35557017990E+03  0.37178079648E+03  0.97906957664E+03  0.11059965413E+04  0.00000000000E+00 0. -1.
</event>
<event>
 7    1  0.4894942E-006  0.1109210E+04  0.7818608E-02  0.8884953E-01
          2   -1    0    0  501    0  0.00000000000E+00  0.00000000000E+00  0.26237428195E+04  0.26237428195E+04  0.00000000000E+00 0.  1.
         -4   -1    0    0    0  501 -0.00000000000E+00 -0.00000000000E+00 -0.74969540173E+03  0.74969540173E+03  0.00000000000E+00 0. -1.
   -9000010    2    1    2    0  502 -0.29231559446E+03  0.35719930303E+03  0.17994781264E+04  0.21140692001E+04  0.10090229466E+04 0.  0.
        -13    1    1    2    0    0  0.28324790026E+03 -0.36325847224E+03 -0.50279545087E+03  0.68190128848E+03  0.10566000000E+00 0.  1.
         13    1    3    3    0    0 -0.96670639980E+02  0.64275260345E+03  0.67309634530E+03  0.93570017799E+03  0.10566000000E+00 0. -1.
          2    1    1    2  502    0  0.90676941981E+01  0.60591692105E+01  0.57736474231E+03  0.57746773267E+03  0.00000000000E+00 0.  1.
         -4    1    3    3    0  502 -0.19564495448E+03 -0.28555330041E+03  0.11263817811E+04  0.11783690221E+04  0.00000000000E+00 0. -1.
</event>
<event>
 7    1  0.4894942E-006  0.1054604E+04  0.7818608E-02  0.9013164E-01
          4   -1    0    0  501    0 -0.00000000000E+00  0.00000000000E+00  0.62610420833E+03  0.62610420833E+03  0.00000000000E+00 0.  1.
          2   -1    0    0  502    0  0.00000000000E+00 -0.00000000000E+00 -0.11536905278E+04  0.11536905278E+04  0.00000000000E+00 0.  1.
    9000010    2    1    2  502    0  0.27306567528E+03 -0.11009792332E+03 -0.61296541043E+03  0.12141014371E+04  0.10057978373E+04 0.  0.
        -13    1    3    3    0    0  0.32479332992E+03 -0.92999273707E+02 -0.87944712556E+03  0.94210765302E+03  0.10566000000E+00 0.  1.
         13    1    1    2    0    0 -0.25977817642E+03  0.18653231881E+03  0.23519399377E+03  0.39698266054E+03  0.10566000000E+00 0. -1.
          2    1    1    2  501    0 -0.13287498863E+02 -0.76434395487E+02 -0.14981490279E+03  0.16871063848E+03  0.00000000000E+00 0.  1.
          4    1    3    3  502    0 -0.51727654638E+02 -0.17098649614E+02  0.26648171513E+03  0.27199378406E+03  0.00000000000E+00 0.  1.
</event>
<event>
 7    1  0.4894942E-006  0.9891555E+03  0.7818608E-02  0.9008384E-01
         -4   -1    0    0    0  501 -0.00000000000E+00  0.00000000000E+00  0.18222550439E+04  0.18222550439E+04  0.00000000000E+00 0. -1.
          1   -1    0    0  501    0  0.00000000000E+00 -0.00000000000E+00 -0.12233032093E+04  0.12233032093E+04  0.00000000000E+00 0.  1.
   -9000010    2    1    2    0  502  0.49661539626E+03  0.10292559626E+02  0.11519048035E+04  0.15487205862E+04  0.90824995970E+03 0.  0.
        -13    1    1    2    0    0 -0.30313928816E+03 -0.21891528251E+03  0.37300101398E+03  0.52815442489E+03  0.10566000000E+00 0.  1.
         13    1    3    3    0    0  0.34603001273E+03 -0.93636396624E+02 -0.23419825815E+02  0.35923953553E+03  0.10566000000E+00 0. -1.
          1    1    1    2  502    0 -0.19347610810E+03  0.20862272289E+03 -0.92595398296E+03  0.96868324207E+03  0.00000000000E+00 0.  1.
         -4    1    3    3    0  502  0.15058538353E+03  0.10392895625E+03  0.11753246293E+04  0.11894810507E+04  0.00000000000E+00 0. -1.
</event>
<event>
 7    1  0.4894942E-006  0.1144221E+04  0.7818608E-02  0.8869438E-01
          4   -1    0    0  501    0 -0.00000000000E+00  0.00000000000E+00  0.79932396029E+03  0.79932396029E+03  0.00000000000E+00 0.  1.
          2   -1    0    0  502    0  0.00000000000E+00 -0.00000000000E+00 -0.20703600058E+04  0.20703600058E+04  0.00000000000E+00 0.  1.
    9000010    2    1    2  502    0 -0.43908929045E+03  0.34070840497E+02 -0.31293362897E+03  0.11255532767E+04  0.98741201907E+03 0.  0.
        -13    1    3    3    0    0 -0.65911414091E+03 -0.82297049704E+02  0.70980328980E+02  0.66801382726E+03  0.10566000000E+00 0.  1.
         13    1    1    2    0    0  0.31337937945E+02  0.44655334297E+03  0.14763770407E+03  0.47136913062E+03  0.10566000000E+00 0. -1.
          2    1    1    2  501    0  0.40775135250E+03 -0.48062418347E+03 -0.11057401206E+04  0.12727615588E+04  0.00000000000E+00 0.  1.
          4    1    3    3  502    0  0.22002485047E+03  0.11636789020E+03 -0.38391395795E+03  0.45753944945E+03  0.00000000000E+00 0.  1.
</event>
<event>
 7    1  0.4894942E-006  0.1019903E+04  0.7818608E-02  0.9109625E-01
          2   -1    0    0  502    0  0.00000000000E+00  0.00000000000E+00  0.19575397510E+04  0.19575397510E+04  0.00000000000E+00 0. -1.
          4   -1    0    0  501    0 -0.00000000000E+00 -0.00000000000E+00 -0.68123125023E+03  0.68123125023E+03  0.00000000000E+00 0.  1.
    9000010    2    1    2  502    0  0.25428256569E+03 -0.78388424493E+02  0.72905500756E+02  0.10292772729E+04  0.99161087334E+03 0.  0.
        -13    1    3    3    0    0  0.66629127886E+02  0.39164425460E+03  0.27621690043E+03  0.48385994884E+03  0.10566000000E+00 0.  1.
         13    1    1    2    0    0 -0.23353482424E+03  0.30709059504E+02 -0.13405797244E+03  0.27102234522E+03  0.10566000000E+00 0. -1.
          2    1    1    2  501    0 -0.20747741450E+02  0.47679364989E+02  0.13374609724E+04  0.13384713831E+04  0.00000000000E+00 0. -1.
          4    1    3    3  502    0  0.18765343781E+03 -0.47003267909E+03 -0.20331139968E+03  0.54541732405E+03  0.00000000000E+00 0.  1.
</event>
<event>
 7    1  0.4894942E-006  0.1073167E+04  0.7818608E-02  0.8960839E-01
          4   -1    0    0  501    0 -0.00000000000E+00  0.00000000000E+00  0.18203487000E+04  0.18203487000E+04  0.00000000000E+00 0.  1.
          2   -1    0    0  502    0  0.00000000000E+00 -0.00000000000E+00 -0.43376433395E+03  0.43376433395E+03  0.00000000000E+00 0.  1.
    9000010    2    1    2  502    0  0.69889379390E+02 -0.34483688331E+03  0.58631254602E+03  0.12168644843E+04  0.10065782483E+04 0.  0.
        -13    1    3    3    0    0 -0.17171460470E+03 -0.64634017406E+03  0.28525978345E+03  0.72705892559E+03  0.10566000000E+00 0.  1.
         13    1    1    2    0    0 -0.70798979497E+02  0.36785227175E+03  0.87885429053E+03  0.95535996592E+03  0.10566000000E+00 0. -1.
          2    1    1    2  501    0  0.90960010713E+00 -0.23015388431E+02 -0.78582470515E+02  0.81888583754E+02  0.00000000000E+00 0.  1.
          4    1    3    3  502    0  0.24160398409E+03  0.30150329074E+03  0.30105276258E+03  0.48980555868E+03  0.00000000000E+00 0.  1.
</event>
<event>
 7    1  0.4894942E-006  0.1022858E+04  0.7818608E-02  0.9157400E-01
         -4   -1    0    0    0  501 -0.00000000000E+00  0.00000000000E+00  0.15103147886E+04  0.15103147886E+04  0.00000000000E+00 0. -1.
          1   -1    0    0  501    0  0.00000000000E+00 -0.00000000000E+00 -0.12947220380E+04  0.12947220380E+04  0.00000000000E+00 0. -1.
   -9000010    2    1    2    0  502  0.37094049220E+01 -0.52616308007E+02 -0.57017949022E+03  0.11528973470E+04  0.10006424967E+04 0.  0.
        -13    1    1    2    0    0  0.16718883442E+03 -0.10230996094E+03  0.11795767388E+04  0.11957511147E+04  0.10566000000E+00 0.  1.
         13    1    3    3    0    0  0.37658020405E+03 -0.33728420342E+03 -0.16143878008E+03  0.53069367326E+03  0.10566000000E+00 0. -1.
          1    1    1    2  502    0 -0.17089823934E+03  0.15492626895E+03 -0.39380449796E+03  0.45638836492E+03  0.00000000000E+00 0. -1.
         -4    1    3    3    0  502 -0.37287079912E+03  0.28466789541E+03 -0.40874071014E+03  0.62220367376E+03  0.00000000000E+00 0. -1.
</event>
<event>
 7    1  0.4894942E-006  0.9605189E+03  0.7818608E-02  0.9271709E-01
          4   -1    0    0  501    0  0.00000000000E+00  0.00000000000E+00  0.60558378273E+03  0.60558378273E+03  0.00000000000E+00 0.  1.
          4   -1    0    0  502    0 -0.00000000000E+00 -0.00000000000E+00 -0.61560786333E+03  0.61560786333E+03  0.00000000000E+00 0.  1.
    9000010    2    1    2  501    0 -0.16964976208E+03 -0.43147123279E+02 -0.82206480618E+01  0.96443473692E+03  0.94837970597E+03 0.  0.
        -13    1    3    3    0    0 -0.42884043100E+03 -0.29399577345E+01 -0.33587746070E+03  0.54472602139E+03  0.10566000000E+00 0.  1.
         13    1    1    2    0    0  0.12836441400E+03  0.78895159883E+02 -0.72676980506E+02  0.16728366236E+03  0.10566000000E+00 0. -1.
          4    1    3    3  501    0  0.25919066892E+03 -0.40207165545E+02  0.32765681264E+03  0.41970871552E+03  0.00000000000E+00 0.  1.
          4    1    1    2  502    0  0.41285348085E+02 -0.35748036603E+02  0.70873547971E+02  0.89473246781E+02  0.00000000000E+00 0.  1.
</event>
<event>
 7    1  0.4894942E-006  0.1047886E+04  0.7818608E-02  0.9048046E-01
          2   -1    0    0  502    0  0.00000000000E+00  0.00000000000E+00  0.19406186060E+04  0.19406186060E+04  0.00000000000E+00 0. -1.
          4   -1    0    0  501    0 -0.00000000000E+00 -0.00000000000E+00 -0.11976891140E+04  0.11976891140E+04  0.00000000000E+00 0.  1.
    9000010    2    1    2  502    0 -0.28062784452E+03 -0.35509895382E+02 -0.61568849901E+03  0.12158133156E+04  0.10095131256E+04 0.  0.
        -13    1    3    3    0    0 -0.49165479301E+03 -0.12066564414E+03  0.53430350988E+02  0.50905741005E+03  0.10566000000E+00 0.  1.
         13    1    1    2    0    0  0.26388589578E+03  0.99473973790E+02 -0.21054591981E+03  0.35193810956E+03  0.10566000000E+00 0. -1.
          2    1    1    2  501    0  0.16741948740E+02 -0.63964078407E+02  0.15691639108E+04  0.15705562948E+04  0.00000000000E+00 0. -1.
          4    1    3    3  502    0  0.21102694849E+03  0.85155748753E+02 -0.66911885000E+03  0.70675590550E+03  0.00000000000E+00 0.  1.
</event>
<event>
 7    1  0.4894942E-006  0.1183124E+04  0.7818608E-02  0.8838912E-01
         -4   -1    0    0    0  501 -0.00000000000E+00  0.00000000000E+00  0.94753991118E+03  0.94753991118E+03  0.00000000000E+00 0. -1.
          2   -1    0    0  501    0  0.00000000000E+00 -0.00000000000E+00 -0.15340683211E+04  0.15340683211E+04  0.00000000000E+00 0. -1.
   -9000010    2    1    2    0  502 -0.64384016065E+03 -0.50065314662E+03 -0.83048447586E+02  0.12915647313E+04  0.99802739684E+03 0.  0.
        -13    1    1    2    0    0  0.45430870092E+03 -0.72606938815E+02 -0.31481822990E+03  0.55747528406E+03  0.10566000000E+00 0.  1.
         13    1    3    3    0    0 -0.21303686924E+03 -0.72980248286E+02  0.43739898658E+03  0.49196413378E+03  0.10566000000E+00 0. -1.
          2    1    1    2  502    0  0.18953145973E+03  0.57326008544E+03 -0.18866173246E+03  0.63256821694E+03  0.00000000000E+00 0. -1.
         -4    1    3    3    0  502 -0.43080329141E+03 -0.42767289834E+03 -0.52044743416E+03  0.79960059754E+03  0.00000000000E+00 0. -1.
</event>
<event>
 7    1  0.4894942E-006  0.9778671E+03  0.7818608E-02  0.9287637E-01
          2   -1    0    0  501    0  0.00000000000E+00  0.00000000000E+00  0.15954964563E+04  0.15954964563E+04  0.00000000000E+00 0.  1.
         -4   -1    0    0    0  501 -0.00000000000E+00 -0.00000000000E+00 -0.27574304952E+04  0.27574304952E+04  0.00000000000E+00 0. -1.
   -9000010    2    1    2    0  502  0.14613324684E+03  0.41384822817E+01 -0.19574920945E+04  0.21888206352E+04  0.96839476475E+03 0.  0.
        -13    1    1    2    0    0 -0.13397591284E+03  0.18793774720E+02 -0.67747175831E+03  0.69084784553E+03  0.10566000000E+00 0.  1.
         13    1    3    3    0    0 -0.94998805708E+02 -0.43547673714E+03 -0.64686341978E+03  0.78555525375E+03  0.10566000000E+00 0. -1.
          2    1    1    2  502    0 -0.12157334000E+02 -0.22932257001E+02  0.14730298139E+04  0.14732584708E+04  0.00000000000E+00 0.  1.
         -4    1    3    3    0  502  0.24113205255E+03  0.43961521943E+03 -0.13106286747E+04  0.14032653815E+04  0.00000000000E+00 0. -1.
</event>
<event>
 7    1  0.4894942E-006  0.1012096E+04  0.7818608E-02  0.9189253E-01
          2   -1    0    0  502    0  0.00000000000E+00  0.00000000000E+00  0.12638841870E+04  0.12638841870E+04  0.00000000000E+00 0.  1.
          4   -1    0    0  501    0 -0.00000000000E+00 -0.00000000000E+00 -0.44015824580E+03  0.44015824580E+03  0.00000000000E+00 0.  1.
    9000010    2    1    2  502    0  0.55295235479E+02  0.25351397923E+03  0.70765520131E+03  0.12492010027E+04  0.99619293336E+03 0.  0.
        -13    1    3    3    0    0  0.43406371622E+03 -0.17411495822E+02  0.64738337328E+03  0.77962793247E+03  0.10566000000E+00 0.  1.
         13    1    1    2    0    0 -0.91573542368E+02 -0.14951917741E+03 -0.10746345851E+03  0.20564557898E+03  0.10566000000E+00 0. -1.
          2    1    1    2  501    0  0.36278306889E+02 -0.10399480183E+03  0.22353419843E+03  0.24919585114E+03  0.00000000000E+00 0.  1.
          4    1    3    3  502    0 -0.37876848074E+03  0.27092547505E+03  0.60271828028E+02  0.46957307023E+03  0.00000000000E+00 0.  1.
</event>
<event>
 7    1  0.4894942E-006  0.1119685E+04  0.7818608E-02  0.8858815E-01
          4   -1    0    0  501    0 -0.00000000000E+00  0.00000000000E+00  0.93683710813E+03  0.93683710813E+03  0.00000000000E+00 0.  1.
          2   -1    0    0  502    0  0.00000000000E+00 -0.00000000000E+00 -0.13012135871E+04  0.13012135871E+04  0.00000000000E+00 0.  1.
    9000010    2    1    2  502    0 -0.34653030603E+03  0.34077638009E+03 -0.56919901501E+03  0.12508031380E+04  0.10021522725E+04 0.  0.
        -13    1    3    3    0    0 -0.33850286034E+03 -0.27385450973E+03 -0.35666640417E+02  0.43686679819E+03  0.10566000000E+00 0.  1.
         13    1    1    2    0    0  0.34444653442E+03 -0.36376077136E+03  0.49022241877E+03  0.70091607549E+03  0.10566000000E+00 0. -1.
          2    1    1    2  501    0  0.20837716111E+01  0.22984391271E+02 -0.28539988268E+03  0.28633148165E+03  0.00000000000E+00 0.  1.
          4    1    3    3  502    0 -0.80274456856E+01  0.61463088981E+03 -0.53353237459E+03  0.81393633985E+03  0.00000000000E+00 0.  1.
</event>
<event>
 7    1  0.4894942E-006  0.1198116E+04  0.7818608E-02  0.8745718E-01
          2   -1    0    0  501    0  0.00000000000E+00  0.00000000000E+00  0.21228689000E+04  0.21228689000E+04  0.00000000000E+00 0. -1.
         -4   -1    0    0    0  501 -0.00000000000E+00 -0.00000000000E+00 -0.13024476665E+04  0.13024476665E+04  0.00000000000E+00 0. -1.
   -9000010    2    1    2    0  502 -0.65773526407E+03 -0.22266069574E+03  0.41802255914E+02  0.12193397277E+04  0.10014232272E+04 0.  0.
        -13    1    1    2    0    0  0.55619059904E+03  0.34082105489E+03 -0.55915381181E+03  0.85916236553E+03  0.10566000000E+00 0.  1.
         13    1    3    3    0    0  0.12954498093E+03 -0.37354465890E+03  0.12190981101E+03  0.41373847714E+03  0.10566000000E+00 0. -1.
          2    1    1    2  502    0  0.10154466503E+03 -0.11816035915E+03  0.13377727894E+04  0.13468144733E+04  0.00000000000E+00 0. -1.
         -4    1    3    3    0  502 -0.78728024500E+03  0.15088396316E+03 -0.80107555095E+02  0.80560125055E+03  0.00000000000E+00 0. -1.
</event>
<event>
 7    1  0.4894942E-006  0.1000025E+04  0.7818608E-02  0.9968672E-01
         -4   -1    0    0    0  501 -0.00000000000E+00  0.00000000000E+00  0.17413468765E+03  0.17413468765E+03  0.00000000000E+00 0. -1.
          2   -1    0    0  501    0  0.00000000000E+00 -0.00000000000E+00 -0.27842071790E+04  0.27842071790E+04  0.00000000000E+00 0. -1.
   -9000010    2    1    2    0  502  0.52220521091E+01 -0.52173201561E+01 -0.15439581923E+04  0.18394452663E+04  0.99984873751E+03 0.  0.
        -13    1    1    2    0    0  0.81999687039E+01 -0.79000412836E+01  0.25078429648E+02  0.27542493290E+02  0.10566000000E+00 0.  1.
         13    1    3    3    0    0  0.45785313496E+03  0.19309231735E+03 -0.89585332786E+03  0.10244351285E+04  0.10566000000E+00 0. -1.
          2    1    1    2  502    0 -0.13422020813E+02  0.13117361440E+02 -0.10911927287E+04  0.10913541071E+04  0.00000000000E+00 0. -1.
         -4    1    3    3    0  502 -0.45263108285E+03 -0.19830963750E+03 -0.64810486440E+03  0.81501013782E+03  0.00000000000E+00 0. -1.
</event>
<event>
 7    1  0.4894942E-006  0.9839870E+03  0.7818608E-02  0.9344996E-01
          2   -1    0    0  501    0  0.00000000000E+00  0.00000000000E+00  0.89803013593E+03  0.89803013593E+03  0.00000000000E+00 0.  1.
         -4   -1    0    0    0  501 -0.00000000000E+00 -0.00000000000E+00 -0.33884738235E+04  0.33884738235E+04  0.00000000000E+00 0. -1.
   -9000010    2    1    2    0  502 -0.99629815522E+02 -0.13614291000E+02 -0.32967062570E+04  0.34402179051E+04  0.97811841837E+03 0.  0.
        -13    1    1    2    0    0  0.12533265560E+03  0.15779547350E+02  0.18229381407E+03  0.22178438739E+03  0.10566000000E+00 0.  1.
         13    1    3    3    0    0 -0.15250481774E+03  0.35293223424E+02 -0.14482489600E+02  0.15720395900E+03  0.10566000000E+00 0. -1.
          2    1    1    2  502    0 -0.25702840082E+02 -0.21652563498E+01  0.62396875538E+03  0.62450166694E+03  0.00000000000E+00 0.  1.
         -4    1    3    3    0  502  0.52875002222E+02 -0.48907514425E+02 -0.32822237674E+04  0.32830139461E+04  0.00000000000E+00 0. -1.
</event>
<event>
 7    1  0.4894942E-006  0.1107181E+04  0.7818608E-02  0.8877771E-01
          4   -1    0    0  501    0  0.00000000000E+00  0.00000000000E+00  0.15783004117E+04  0.15783004117E+04  0.00000000000E+00 0.  1.
          4   -1    0    0  502    0 -0.00000000000E+00 -0.00000000000E+00 -0.30782266335E+04  0.30782266335E+04  0.00000000000E+00 0.  1.
    9000010    2    1    2  501    0  0.26279651720E+03 -0.42627284688E+03 -0.15186144663E+04  0.18854831428E+04  0.99904265937E+03 0.  0.
        -13    1    3    3    0    0 -0.10381823604E+03 -0.41588786398E+03 -0.12805377938E+03  0.44736866578E+03  0.10566000000E+00 0.  1.
         13    1    1    2    0    0 -0.27960328988E+03  0.38069466314E+03 -0.13351992948E+04  0.14162851388E+04  0.10566000000E+00 0. -1.
          4    1    3    3  501    0  0.36661475325E+03 -0.10384982900E+02 -0.13905606869E+04  0.14381144770E+04  0.00000000000E+00 0.  1.
          4    1    1    2  502    0  0.16806772678E+02  0.45578183734E+02  0.13538875393E+04  0.13547587636E+04  0.00000000000E+00 0.  1.
</event>
<event>
 7    1  0.4894942E-006  0.1380659E+04  0.7818608E-02  0.8566220E-01
          4   -1    0    0  501    0 -0.00000000000E+00  0.00000000000E+00  0.24501751419E+04  0.24501751419E+04  0.00000000000E+00 0.  1.
          2   -1    0    0  502    0  0.00000000000E+00 -0.00000000000E+00 -0.10853551708E+04  0.10853551708E+04  0.00000000000E+00 0.  1.
    9000010    2    1    2  502    0  0.90842888730E+03  0.29048082049E+03  0.10843782562E+04  0.17615236581E+04  0.10086958140E+04 0.  0.
        -13    1    3    3    0    0  0.43716566868E+03 -0.23114005927E+03  0.91243539890E+03  0.10378236446E+04  0.10566000000E+00 0.  1.
         13    1    1    2    0    0 -0.89922589434E+03 -0.25961255098E+03  0.81343966317E+03  0.12400362827E+04  0.10566000000E+00 0. -1.
          2    1    1    2  501    0 -0.92029929679E+01 -0.30868269516E+02 -0.53299794835E+03  0.53397037192E+03  0.00000000000E+00 0.  1.
          4    1    3    3  502    0  0.47126321862E+03  0.52162087976E+03  0.17194285735E+03  0.72370001356E+03  0.00000000000E+00 0.  1.
</event>
<event>
 7    1  0.4894942E-006  0.1128989E+04  0.7818608E-02  0.8837879E-01
          1   -1    0    0  501    0  0.00000000000E+00  0.00000000000E+00  0.18152581814E+04  0.18152581814E+04  0.00000000000E+00 0. -1.
         -4   -1    0    0    0  501 -0.00000000000E+00 -0.00000000000E+00 -0.31013303712E+04  0.31013303712E+04  0.00000000000E+00 0. -1.
   -9000010    2    1    2    0  502 -0.58884512571E+03 -0.44318959214E+02 -0.20247578018E+04  0.23324174885E+04  0.99590382684E+03 0.  0.
        -13    1    1    2    0    0  0.50339944512E+03 -0.78618683887E+02 -0.84861912760E+03  0.98982136454E+03  0.10566000000E+00 0.  1.
         13    1    3    3    0    0  0.24694850416E+03  0.15610527166E+03 -0.62377171373E+03  0.68879865095E+03  0.10566000000E+00 0. -1.
          1    1    1    2  502    0  0.85445680594E+02  0.12293764310E+03  0.15873047396E+04  0.15943496996E+04  0.00000000000E+00 0. -1.
         -4    1    3    3    0  502 -0.83579362987E+03 -0.20042423087E+03 -0.14009860881E+04  0.16436188375E+04  0.00000000000E+00 0. -1.
</event>
<event>
 7    1  0.4894942E-006  0.9997454E+03  0.7818608E-02  0.9184137E-01
          2   -1    0    0  502    0  0.00000000000E+00  0.00000000000E+00  0.20314602370E+04  0.20314602370E+04  0.00000000000E+00 0.  1.
          4   -1    0    0  501    0 -0.00000000000E+00 -0.00000000000E+00 -0.59391673590E+03  0.59391673590E+03  0.00000000000E+00 0.  1.
    9000010    2    1    2  502    0  0.73700904007E+02 -0.18151071883E+03  0.95885604406E+03  0.13861818496E+04  0.98169101182E+03 0.  0.
        -13    1    3    3    0    0  0.28250468225E+03 -0.21904298004E+01  0.10568983460E+04  0.10940054015E+04  0.10566000000E+00 0.  1.
         13    1    1    2    0    0 -0.14798034975E+03  0.11837012063E+03 -0.35362180645E+03  0.40119579077E+03  0.10566000000E+00 0. -1.
          2    1    1    2  501    0  0.74279445744E+02  0.63140598199E+02  0.83230926350E+03  0.83799933253E+03  0.00000000000E+00 0.  1.
          4    1    3    3  502    0 -0.20880377824E+03 -0.17932028903E+03 -0.98042301975E+02  0.29217644813E+03  0.00000000000E+00 0.  1.
</event>
<event>
 7    1  0.4894942E-006  0.1067838E+04  0.7818608E-02  0.8992776E-01
          4   -1    0    0  501    0 -0.00000000000E+00  0.00000000000E+00  0.12773024870E+04  0.12773024870E+04  0.00000000000E+00 0.  1.
          2   -1    0    0  502    0  0.00000000000E+00 -0.00000000000E+00 -0.13520631536E+04  0.13520631536E+04  0.00000000000E+00 0. -1.
    9000010    2    1    2  502    0  0.29526617420E+03 -0.15702421177E+03  0.96386092117E+03  0.14391337926E+04  0.10150071335E+04 0.  0.
        -13    1    3    3    0    0  0.93837824295E+02 -0.42468219457E+03  0.17547641378E+02  0.43527971988E+03  0.10566000000E+00 0.  1.
         13    1    1    2    0    0 -0.29475803031E+03  0.14345020540E+03 -0.27893608764E+03  0.43042491797E+03  0.10566000000E+00 0. -1.
          2    1    1    2  501    0 -0.50814389238E+00  0.13574006369E+02 -0.75968550010E+03  0.75980693003E+03  0.00000000000E+00 0. -1.
          4    1    3    3  502    0  0.20142834991E+03  0.26765798280E+03  0.94631327979E+03  0.10038540728E+04  0.00000000000E+00 0.  1.
</event>
<event>
 7    1  0.4894942E-006  0.1294144E+04  0.7818608E-02  0.8636236E-01
         -4   -1    0    0    0  501 -0.00000000000E+00  0.00000000000E+00  0.24842718956E+04  0.24842718956E+04  0.00000000000E+00 0. -1.
          2   -1    0    0  501    0  0.00000000000E+00 -0.00000000000E+00 -0.98973351065E+03  0.98973351065E+03  0.00000000000E+00 0.  1.
   -9000010    2    1    2    0  502 -0.76156576102E+03 -0.33051631741E+03  0.11862693090E+04  0.17512279962E+04  0.98505897109E+03 0.  0.
        -13    1    1    2    0    0  0.72072888210E+03  0.44792383623E+03  0.82966218374E+03  0.11867709277E+04  0.10566000000E+00 0.  1.
         13    1    3    3    0    0 -0.87486406888E+03 -0.40680991467E+03  0.12670206073E+04  0.15925522522E+04  0.10566000000E+00 0. -1.
          2    1    1    2  502    0  0.40836878914E+02 -0.11740751881E+03 -0.52139310788E+03  0.53600648233E+03  0.00000000000E+00 0.  1.
         -4    1    3    3    0  502  0.11329830786E+03  0.76293597258E+02 -0.80751298220E+02  0.15867574393E+03  0.00000000000E+00 0. -1.
</event>
<event>
 7    1  0.4894942E-006  0.1065864E+04  0.7818608E-02  0.8900660E-01
         -4   -1    0    0    0  501 -0.00000000000E+00  0.00000000000E+00  0.25762563646E+04  0.25762563646E+04  0.00000000000E+00 0.  1.
          4   -1    0    0  501    0  0.00000000000E+00 -0.00000000000E+00 -0.44435082908E+03  0.44435082908E+03  0.00000000000E+00 0. -1.
   -9000010    2    1    2    0  502 -0.71681885526E+02  0.43747635339E+03  0.10714750508E+04  0.14980018356E+04  0.94838117999E+03 0.  0.
        -13    1    1    2    0    0  0.97659585084E+02 -0.48647538390E+03  0.12395108208E+04  0.13351339932E+04  0.10566000000E+00 0.  1.
         13    1    3    3    0    0  0.65683909562E+02  0.71990124460E+03  0.64824701007E+03  0.97097702093E+03  0.10566000000E+00 0. -1.
          4    1    1    2  502    0 -0.25977699558E+02  0.48999030510E+02 -0.17908033610E+03  0.18747136486E+03  0.00000000000E+00 0.  1.
         -4    1    3    3    0  502 -0.13736579509E+03 -0.28242489121E+03  0.42322804075E+03  0.52702481471E+03  0.00000000000E+00 0. -1.
</event>
<event>
 7    1  0.4894942E-006  0.1030185E+04  0.7818608E-02  0.9088255E-01
          2   -1    0    0  501    0  0.00000000000E+00  0.00000000000E+00  0.29266386747E+04  0.29266386747E+04  0.00000000000E+00 0. -1.
         -4   -1    0    0    0  501 -0.00000000000E+00 -0.00000000000E+00 -0.24705879853E+03  0.24705879853E+03  0.00000000000E+00 0. -1.
   -9000010    2    1    2    0  502  0.12817895132E+03  0.22843083507E+03  0.25390918895E+04  0.27410606182E+04  0.99890700228E+03 0.  0.
        -13    1    1    2    0    0 -0.12217676954E+03 -0.21984568156E+03 -0.37540726860E+02  0.25430022425E+03  0.10566000000E+00 0.  1.
         13    1    3    3    0    0  0.48330848616E+03  0.34505653517E+03  0.19907581813E+04  0.20774429602E+04  0.10566000000E+00 0. -1.
          2    1    1    2  502    0 -0.60021817851E+01 -0.85851535022E+01  0.17802871357E+03  0.17833663085E+03  0.00000000000E+00 0. -1.
         -4    1    3    3    0  502 -0.35512953484E+03 -0.11662570010E+03  0.54833370818E+03  0.66361765797E+03  0.00000000000E+00 0. -1.
</event>
<event>
 7    1  0.4894942E-006  0.1009686E+04  0.7818608E-02  0.9189384E-01
         -4   -1    0    0    0  501 -0.00000000000E+00  0.00000000000E+00  0.11129611828E+04  0.11129611828E+04  0.00000000000E+00 0. -1.
          2   -1    0    0  501    0  0.00000000000E+00 -0.00000000000E+00 -0.15489521645E+04  0.15489521645E+04  0.00000000000E+00 0.  1.
   -9000010    2    1    2    0  502 -0.18003085828E+01 -0.14683877869E+03 -0.12744620551E+03  0.10123770177E+04  0.99352897421E+03 0.  0.
        -13    1    1    2    0    0 -0.21601140941E+02  0.17933944246E+03  0.65790743263E+03  0.68225467825E+03  0.10566000000E+00 0.  1.
         13    1    3    3    0    0  0.13710562083E+03  0.57905105167E+01  0.41229175552E+03  0.43452961246E+03  0.10566000000E+00 0. -1.
          2    1    1    2  502    0  0.23401449524E+02 -0.32500663769E+02 -0.96645220881E+03  0.96728165128E+03  0.00000000000E+00 0.  1.
         -4    1    3    3    0  502 -0.13890592941E+03 -0.15262928921E+03 -0.53973796103E+03  0.57784740522E+03  0.00000000000E+00 0. -1.
</event>
<event>
 7    1  0.4894942E-006  0.1032529E+04  0.7818608E-02  0.9327610E-01
          2   -1    0    0  501    0  0.00000000000E+00  0.00000000000E+00  0.77684203915E+03  0.77684203915E+03  0.00000000000E+00 0. -1.
         -4   -1    0    0    0  501 -0.00000000000E+00 -0.00000000000E+00 -0.11256488959E+04  0.11256488959E+04  0.00000000000E+00 0. -1.
   -9000010    2    1    2    0  502  0.12835904611E+03  0.59889893311E+02 -0.23555973913E+02  0.10377399668E+04  0.10277580020E+04 0.  0.
        -13    1    1    2    0    0 -0.97077640300E+02  0.19526379762E+02 -0.58397497239E+03  0.59231083672E+03  0.10566000000E+00 0.  1.
         13    1    3    3    0    0  0.30341446330E+03  0.46569023248E+03  0.12830290166E+03  0.57042911470E+03  0.10566000000E+00 0. -1.
          2    1    1    2  502    0 -0.31281405814E+02 -0.79416273073E+02  0.25872408956E+03  0.27244013158E+03  0.00000000000E+00 0. -1.
         -4    1    3    3    0  502 -0.17505541719E+03 -0.40580033916E+03 -0.15185887557E+03  0.46731085205E+03  0.00000000000E+00 0. -1.
</event>
<event>
 7    1  0.4894942E-006  0.1338173E+04  0.7818608E-02  0.8614244E-01
          4   -1    0    0  501    0 -0.00000000000E+00  0.00000000000E+00  0.22913848983E+04  0.22913848983E+04  0.00000000000E+00 0.  1.
          2   -1    0    0  502    0  0.00000000000E+00 -0.00000000000E+00 -0.20760442793E+04  0.20760442793E+04  0.00000000000E+00 0. -1.
    9000010    2    1    2  502    0 -0.72470930664E+03  0.42169086725E+03  0.16063623298E+04  0.20915327090E+04  0.10445488842E+04 0.  0.
        -13    1    3    3    0    0 -0.59381572321E+03 -0.10044990702E+03  0.28812571252E+03  0.66762544464E+03  0.10566000000E+00 0.  1.
         13    1    1    2    0    0  0.69500952307E+03 -0.46105967433E+03  0.48581682584E+02  0.83544865282E+03  0.10566000000E+00 0. -1.
          2    1    1    2  501    0  0.29699783571E+02  0.39368807081E+02 -0.14396033934E+04  0.14404478159E+04  0.00000000000E+00 0. -1.
          4    1    3    3  502    0 -0.13089358342E+03  0.52214077428E+03  0.13182366173E+04  0.14239072643E+04  0.00000000000E+00 0.  1.
</event>
<event>
 7    1  0.4894942E-006  0.1140262E+04  0.7818608E-02  0.8867160E-01
          4   -1    0    0  501    0 -0.00000000000E+00  0.00000000000E+00  0.19414072809E+04  0.19414072809E+04  0.00000000000E+00 0.  1.
          2   -1    0    0  502    0  0.00000000000E+00 -0.00000000000E+00 -0.11179373707E+04  0.11179373707E+04  0.00000000000E+00 0.  1.
    9000010    2    1    2  502    0 -0.43719328730E+03 -0.11840196439E+03  0.14654974485E+04  0.18559394305E+04  0.10448308010E+04 0.  0.
        -13    1    3    3    0    0 -0.38540736269E+03 -0.42238599130E+03  0.29089799146E+03  0.64153753863E+03  0.10566000000E+00 0.  1.
         13    1    1    2    0    0  0.44605725183E+03  0.11342756004E+03  0.91957646936E+02  0.46934965994E+03  0.10566000000E+00 0. -1.
          2    1    1    2  501    0 -0.88639645324E+01  0.49744043470E+01 -0.73398518525E+03  0.73405556106E+03  0.00000000000E+00 0.  1.
          4    1    3    3  502    0 -0.51785924607E+02  0.30398402691E+03  0.11745994570E+04  0.12144018919E+04  0.00000000000E+00 0.  1.
</event>
<event>
 7    1  0.4894942E-006  0.1114352E+04  0.7818608E-02  0.8870268E-01
          2   -1    0    0  502    0  0.00000000000E+00  0.00000000000E+00  0.76682579865E+03  0.76682579865E+03  0.00000000000E+00 0. -1.
          4   -1    0    0  501    0 -0.00000000000E+00 -0.00000000000E+00 -0.12131217292E+04  0.12131217292E+04  0.00000000000E+00 0.  1.
    9000010    2    1    2  502    0 -0.22807889087E+03 -0.43685710781E+03 -0.50562863612E+03  0.12276261606E+04  0.10042616987E+04 0.  0.
        -13    1    3    3    0    0 -0.24019199551E+03 -0.75109969043E+03 -0.45103449184E+03  0.90844651117E+03  0.10566000000E+00 0.  1.
         13    1    1    2    0    0  0.20826476138E+03  0.43079893211E+03 -0.18063589114E+03  0.51145993692E+03  0.10566000000E+00 0. -1.
          2    1    1    2  501    0  0.19814129487E+02  0.60581757026E+01  0.23996859670E+03  0.24086143033E+03  0.00000000000E+00 0. -1.
          4    1    3    3  502    0  0.12113104642E+02  0.31424258261E+03 -0.54594144278E+02  0.31917964945E+03  0.00000000000E+00 0.  1.
</event>
<event>
 7    1  0.4894942E-006  0.1054618E+04  0.7818608E-02  0.8985913E-01
          4   -1    0    0  501    0  0.00000000000E+00  0.00000000000E+00  0.13042582983E+04  0.13042582983E+04  0.00000000000E+00 0.  1.
         -4   -1    0    0    0  501 -0.00000000000E+00 -0.00000000000E+00 -0.97303289982E+03  0.97303289982E+03  0.00000000000E+00 0. -1.
   -9000010    2    1    2    0  502 -0.32586895698E+03 -0.36264299381E+02 -0.31845833836E+03  0.10935143215E+04  0.99340433942E+03 0.  0.
        -13    1    1    2    0    0  0.36255074466E+03  0.10149268055E+02 -0.14296323903E+03  0.38985195776E+03  0.10566000000E+00 0.  1.
         13    1    3    3    0    0 -0.55076493145E+03  0.26325557500E+03 -0.13636098706E+02  0.61059926453E+03  0.10566000000E+00 0. -1.
          4    1    1    2  502    0 -0.36681787680E+02  0.26115031327E+02  0.79264697589E+03  0.79392491887E+03  0.00000000000E+00 0.  1.
         -4    1    3    3    0  502  0.22489597447E+03 -0.29951987438E+03 -0.30482223965E+03  0.48291505700E+03  0.00000000000E+00 0. -1.
</event>
<event>
 7    1  0.5085003E-006  0.1215120E+04  0.7818608E-02  0.8772691E-01
          4   -1    0    0  501    0  0.00000000000E+00  0.00000000000E+00  0.24196730000E+04  0.24196730000E+04  0.00000000000E+00 0.  1.
         -4   -1    0    0    0  501 -0.00000000000E+00 -0.00000000000E+00 -0.92089477977E+03  0.92089477977E+03  0.00000000000E+00 0. -1.
   -9000010    2    1    2    0  502  0.13055654468E+03  0.60431672638E+03 -0.24441903111E+03  0.12660066307E+04  0.10773989090E+04 0.  0.
        -13    1    1    2    0    0 -0.37584197239E+03 -0.39900931431E+03  0.36220139983E+03  0.65700493629E+03  0.10566000000E+00 0.  1.
         13    1    3    3    0    0 -0.80161827893E+02  0.49007244380E+03 -0.63599086035E+03  0.80689609271E+03  0.10566000000E+00 0. -1.
          4    1    1    2  502    0  0.24528542770E+03 -0.20530741208E+03  0.13809958516E+04  0.14175562128E+04  0.00000000000E+00 0.  1.
         -4    1    3    3    0  502  0.21071837258E+03  0.11424428258E+03  0.39157182924E+03  0.45911053799E+03  0.00000000000E+00 0. -1.
</event>
<event>
 7    1  0.4894942E-006  0.9825207E+03  0.7818608E-02  0.9323066E-01
          2   -1    0    0  502    0  0.00000000000E+00  0.00000000000E+00  0.22507418049E+04  0.22507418049E+04  0.00000000000E+00 0.  1.
          4   -1    0    0  501    0 -0.00000000000E+00 -0.00000000000E+00 -0.30391769746E+03  0.30391769746E+03  0.00000000000E+00 0.  1.
    9000010    2    1    2  502    0 -0.94337596202E+02 -0.74026940000E+02  0.76823300765E+03  0.12474798817E+04  0.97552269645E+03 0.  0.
        -13    1    3    3    0    0 -0.35551981610E+03 -0.34059188958E+03  0.13175926969E+03  0.50966429265E+03  0.10566000000E+00 0.  1.
         13    1    1    2    0    0  0.80255800156E+02  0.85098212455E+02 -0.10967504465E+02  0.11748615467E+03  0.10566000000E+00 0. -1.
          2    1    1    2  501    0  0.14081796046E+02 -0.11071272454E+02  0.11895586043E+04  0.11896934660E+04  0.00000000000E+00 0.  1.
          4    1    3    3  502    0  0.26118221990E+03  0.26656494958E+03  0.63647373796E+03  0.73781558905E+03  0.00000000000E+00 0.  1.
</event>
<event>
 7    1  0.4894942E-006  0.1036135E+04  0.7818608E-02  0.9073361E-01
          1   -1    0    0  501    0  0.00000000000E+00  0.00000000000E+00  0.14771131415E+04  0.14771131415E+04  0.00000000000E+00 0. -1.
         -4   -1    0    0    0  501 -0.00000000000E+00 -0.00000000000E+00 -0.13520009081E+04  0.13520009081E+04  0.00000000000E+00 0. -1.
   -9000010    2    1    2    0  502  0.26642318561E+03  0.68454287906E+02 -0.38959830964E+03  0.11099602976E+04  0.10022762673E+04 0.  0.
        -13    1    1    2    0    0 -0.25693235455E+03 -0.50089160561E+02 -0.57367281920E+03  0.63057408246E+03  0.10566000000E+00 0.  1.
         13    1    3    3    0    0 -0.16258237397E+02  0.28779405394E+03 -0.62045927060E+03  0.68414871585E+03  0.10566000000E+00 0. -1.
          1    1    1    2  502    0 -0.94908310565E+01 -0.18365127345E+02  0.10883833622E+04  0.10885796695E+04  0.00000000000E+00 0. -1.
         -4    1    3    3    0  502  0.28268142301E+03 -0.21933976603E+03  0.23086096096E+03  0.42581158177E+03  0.00000000000E+00 0. -1.
</event>
<event>
 7    1  0.4894942E-006  0.1006532E+04  0.7818608E-02  0.9680667E-01
          3   -1    0    0  501    0  0.00000000000E+00  0.00000000000E+00  0.51958126367E+03  0.51958126367E+03  0.00000000000E+00 0.  1.
         -4   -1    0    0    0  501 -0.00000000000E+00 -0.00000000000E+00 -0.24746034679E+04  0.24746034679E+04  0.00000000000E+00 0. -1.
   -9000010    2    1    2    0  502 -0.66839688738E+01  0.13143913226E+02 -0.21860954708E+04  0.24065440579E+04  0.10060931653E+04 0.  0.
        -13    1    1    2    0    0 -0.39146921634E+01 -0.29649439348E+02 -0.17679212313E+03  0.17930387624E+03  0.10566000000E+00 0.  1.
         13    1    3    3    0    0  0.38458835480E+03 -0.24326345516E+03 -0.60092729784E+03  0.75378971850E+03  0.10566000000E+00 0. -1.
          3    1    1    2  502    0  0.10598661037E+02  0.16505526122E+02  0.40786538971E+03  0.40833679743E+03  0.00000000000E+00 0.  1.
         -4    1    3    3    0  502 -0.39127232368E+03  0.25640736839E+03 -0.15851681730E+04  0.16527543394E+04  0.00000000000E+00 0. -1.
</event>
<event>
 7    1  0.4894942E-006  0.1028464E+04  0.7818608E-02  0.9161816E-01
         -4   -1    0    0    0  501 -0.00000000000E+00  0.00000000000E+00  0.43948496516E+03  0.43948496516E+03  0.00000000000E+00 0. -1.
          2   -1    0    0  501    0  0.00000000000E+00 -0.00000000000E+00 -0.22032866639E+04  0.22032866639E+04  0.00000000000E+00 0. -1.
   -9000010    2    1    2    0  502 -0.10870087633E+03  0.19449610239E+03 -0.40005034382E+03  0.11097313047E+04  0.10108504720E+04 0.  0.
        -13    1    1    2    0    0  0.80200749582E+02 -0.16681521815E+03 -0.17186397292E+02  0.18588937747E+03  0.10566000000E+00 0.  1.
         13    1    3    3    0    0  0.29886343045E+03  0.44948255879E+03 -0.11859791657E+03  0.55264762525E+03  0.10566000000E+00 0. -1.
          2    1    1    2  502    0  0.28500126747E+02 -0.27680884240E+02 -0.13465649576E+04  0.13471509469E+04  0.00000000000E+00 0. -1.
         -4    1    3    3    0  502 -0.40756430678E+03 -0.25498645640E+03 -0.28145242725E+03  0.55708367946E+03  0.00000000000E+00 0. -1.
</event>
<event>
 7    1  0.4894942E-006  0.1039070E+04  0.7818608E-02  0.9110997E-01
          2   -1    0    0  502    0  0.00000000000E+00  0.00000000000E+00  0.13016273294E+04  0.13016273294E+04  0.00000000000E+00 0.  1.
          4   -1    0    0  501    0 -0.00000000000E+00 -0.00000000000E+00 -0.17593450588E+04  0.17593450588E+04  0.00000000000E+00 0.  1.
    9000010    2    1    2  502    0  0.13930708123E+03  0.82488173141E+00 -0.12510390002E+04  0.16167334258E+04  0.10145547036E+04 0.  0.
        -13    1    3    3    0    0  0.25159192593E+03  0.61585918927E+02  0.86525449558E+02  0.27308970539E+03  0.10566000000E+00 0.  1.
         13    1    1    2    0    0 -0.24125567978E+03  0.54074185193E+02 -0.27491901691E+03  0.36974152803E+03  0.10566000000E+00 0. -1.
          2    1    1    2  501    0  0.10194859855E+03 -0.54899066924E+02  0.10682402877E+04  0.10744974344E+04  0.00000000000E+00 0.  1.
          4    1    3    3  502    0 -0.11228484470E+03 -0.60761037195E+02 -0.13375644498E+04  0.13436437204E+04  0.00000000000E+00 0.  1.
</event>
<event>
 7    1  0.4894942E-006  0.1140507E+04  0.7818608E-02  0.8904970E-01
         -4   -1    0    0    0  501 -0.00000000000E+00  0.00000000000E+00  0.63184484480E+03  0.63184484480E+03  0.00000000000E+00 0. -1.
          1   -1    0    0  501    0  0.00000000000E+00 -0.00000000000E+00 -0.12651979477E+04  0.12651979477E+04  0.00000000000E+00 0. -1.
   -9000010    2    1    2    0  502  0.40113539450E+03 -0.11203302715E+03 -0.35550352364E+03  0.12035228095E+04  0.10717384913E+04 0.  0.
        -13    1    1    2    0    0 -0.37173225298E+03  0.96330482127E+02  0.28776216646E+02  0.38508766730E+03  0.10566000000E+00 0.  1.
         13    1    3    3    0    0  0.31671341448E+00  0.42280429276E+03 -0.32709134228E+03  0.53455806761E+03  0.10566000000E+00 0. -1.
          1    1    1    2  502    0 -0.29403141513E+02  0.15702545022E+02 -0.30662579593E+03  0.30843231573E+03  0.00000000000E+00 0. -1.
         -4    1    3    3    0  502  0.40081868108E+03 -0.53483731991E+03 -0.28412181366E+02  0.66896474191E+03  0.00000000000E+00 0. -1.
</event>
<event>
 7    1  0.4894942E-006  0.9852476E+03  0.7818608E-02  0.9288742E-01
         -4   -1    0    0    0  501 -0.00000000000E+00  0.00000000000E+00  0.59059883867E+03  0.59059883867E+03  0.00000000000E+00 0. -1.
          4   -1    0    0  501    0  0.00000000000E+00 -0.00000000000E+00 -0.27203667640E+04  0.27203667640E+04  0.00000000000E+00 0.  1.
   -9000010    2    1    2    0  502 -0.29054437028E+03  0.42674812231E+02 -0.88313047667E+02  0.10147652862E+04  0.96732219085E+03 0.  0.
        -13    1    1    2    0    0  0.12505367221E+03  0.42856632475E+02  0.87875738814E+02  0.15873647506E+03  0.10566000000E+00 0.  1.
         13    1    3    3    0    0  0.20814916201E+03 -0.14966808647E+02 -0.38045735395E+03  0.43393304593E+03  0.10566000000E+00 0. -1.
          4    1    1    2  502    0  0.16549069807E+03 -0.85531444706E+02 -0.21293306164E+04  0.21374638414E+04  0.00000000000E+00 0.  1.
         -4    1    3    3    0  502 -0.49869353229E+03  0.57641620879E+02  0.29214430628E+03  0.58083224024E+03  0.00000000000E+00 0. -1.
</event>
<event>
 7    1  0.4894942E-006  0.1061744E+04  0.7818608E-02  0.8984956E-01
          2   -1    0    0  502    0  0.00000000000E+00  0.00000000000E+00  0.13485358407E+04  0.13485358407E+04  0.00000000000E+00 0.  1.
          4   -1    0    0  501    0 -0.00000000000E+00 -0.00000000000E+00 -0.10205424443E+04  0.10205424443E+04  0.00000000000E+00 0.  1.
    9000010    2    1    2  502    0  0.27570524219E+03  0.21141257789E+03 -0.10088980154E+03  0.10662302903E+04  0.10029753841E+04 0.  0.
        -13    1    3    3    0    0 -0.73122635153E+02 -0.14279729225E+03  0.35634748492E+03  0.39079601792E+03  0.10566000000E+00 0.  1.
         13    1    1    2    0    0 -0.35841269843E+03 -0.33218404778E+00 -0.34437291878E+03  0.49704375169E+03  0.10566000000E+00 0. -1.
          2    1    1    2  501    0  0.82707456237E+02 -0.21108039385E+03  0.77325611672E+03  0.80580424300E+03  0.00000000000E+00 0.  1.
          4    1    3    3  502    0  0.34882787734E+03  0.35420987015E+03 -0.45723728646E+03  0.67543427234E+03  0.00000000000E+00 0.  1.
</event>
<event>
 6    1  0.7773523E-006  0.7280262E+03  0.7818608E-02  0.9196523E-01
          2   -1    0    0  501    0  0.00000000000E+00  0.00000000000E+00  0.21411025710E+04  0.21411025710E+04  0.00000000000E+00 0. -1.
         -4   -1    0    0    0  501 -0.00000000000E+00 -0.00000000000E+00 -0.36202494409E+03  0.36202494409E+03  0.00000000000E+00 0. -1.
        -13    1    1    2    0    0 -0.44446692201E+02 -0.45727865773E+03  0.52904173227E+03  0.70068855058E+03  0.10566000000E+00 0.  1.
         13    1    1    2    0    0  0.98381435151E+02  0.54974098654E+03  0.26299347032E+02  0.55909366468E+03  0.10566000000E+00 0. -1.
          2    1    1    2  502    0 -0.32009224497E+02 -0.95465092427E+01  0.10404381728E+04  0.10409742157E+04  0.00000000000E+00 0. -1.
         -4    1    1    2    0  502 -0.21925518453E+02 -0.82915819569E+02  0.18329837479E+03  0.20237108414E+03  0.00000000000E+00 0. -1.
</event>
<event>
 7    1  0.4894942E-006  0.9851581E+03  0.7818608E-02  0.9300542E-01
          2   -1    0    0  501    0  0.00000000000E+00  0.00000000000E+00  0.20306203187E+04  0.20306203187E+04  0.00000000000E+00 0.  1.
         -4   -1    0    0    0  501 -0.00000000000E+00 -0.00000000000E+00 -0.32094716036E+03  0.32094716036E+03  0.00000000000E+00 0. -1.
   -9000010    2    1    2    0  502  0.43605035465E+02 -0.13977470163E+03  0.52098951254E+03  0.11168787385E+04  0.97701058232E+03 0.  0.
        -13    1    1    2    0    0  0.37174796119E+02  0.12098698783E+03  0.16649998129E+03  0.20914605334E+03  0.10566000000E+00 0.  1.
         13    1    3    3    0    0 -0.67317814415E+02 -0.70003061477E+02 -0.28459284892E+03  0.30070786085E+03  0.10566000000E+00 0. -1.
          2    1    1    2  502    0 -0.80779831584E+02  0.18787713793E+02  0.10221836645E+04  0.10255426872E+04  0.00000000000E+00 0.  1.
         -4    1    3    3    0  502  0.11092284988E+03 -0.69771640149E+02  0.80558236147E+03  0.81617087763E+03  0.00000000000E+00 0. -1.
</event>
<event>
 7    1  0.4894942E-006  0.1012931E+04  0.7818608E-02  0.9198059E-01
          4   -1    0    0  501    0 -0.00000000000E+00  0.00000000000E+00  0.28176294873E+04  0.28176294873E+04  0.00000000000E+00 0.  1.
          2   -1    0    0  502    0  0.00000000000E+00 -0.00000000000E+00 -0.21759610307E+04  0.21759610307E+04  0.00000000000E+00 0.  1.
    9000010    2    1    2  502    0  0.39307175744E+02  0.35895886305E+03  0.23555419299E+04  0.25804030539E+04  0.98969976156E+03 0.  0.
        -13    1    3    3    0    0  0.46640696459E+03 -0.48007895493E+01  0.13587695144E+04  0.14365977547E+04  0.10566000000E+00 0.  1.
         13    1    1    2    0    0 -0.86751408144E+02 -0.14884762361E+03  0.32240417159E+03  0.36554874215E+03  0.10566000000E+00 0. -1.
          2    1    1    2  501    0  0.47444232400E+02 -0.21011123944E+03 -0.20362776449E+04  0.20476387219E+04  0.00000000000E+00 0.  1.
          4    1    3    3  502    0 -0.42709978885E+03  0.36375965260E+03  0.99677241542E+03  0.11438052993E+04  0.00000000000E+00 0.  1.
</event>
<event>
 7    1  0.4894942E-006  0.1084592E+04  0.7818608E-02  0.9258025E-01
         -4   -1    0    0    0  501 -0.00000000000E+00  0.00000000000E+00  0.43585613154E+03  0.43585613154E+03  0.00000000000E+00 0. -1.
          2   -1    0    0  501    0  0.00000000000E+00 -0.00000000000E+00 -0.20851307013E+04  0.20851307013E+04  0.00000000000E+00 0. -1.
   -9000010    2    1    2    0  502 -0.28029729624E+02  0.17338635298E+03 -0.17040166171E+04  0.20234427049E+04  0.10769397642E+04 0.  0.
        -13    1    1    2    0    0  0.91628056259E+02 -0.63366861994E+02  0.24477589534E+03  0.26893551271E+03  0.10566000000E+00 0.  1.
         13    1    3    3    0    0  0.27097963471E+03  0.49117849743E+03 -0.13487551066E+04  0.14607623446E+04  0.10566000000E+00 0. -1.
          2    1    1    2  502    0 -0.63598326635E+02 -0.11001949099E+03 -0.19003384802E+03  0.22860861519E+03  0.00000000000E+00 0. -1.
         -4    1    3    3    0  502 -0.29900936433E+03 -0.31779214445E+03 -0.35526151046E+03  0.56268036029E+03  0.00000000000E+00 0. -1.
</event>
<event>
 7    1  0.4894942E-006  0.1029343E+04  0.7818608E-02  0.9078972E-01
          2   -1    0    0  501    0  0.00000000000E+00  0.00000000000E+00  0.71095369013E+03  0.71095369013E+03  0.00000000000E+00 0. -1.
         -4   -1    0    0    0  501 -0.00000000000E+00 -0.00000000000E+00 -0.25658497328E+04  0.25658497328E+04  0.00000000000E+00 0. -1.
   -9000010    2    1    2    0  502 -0.25488001792E+03  0.24997049755E+02 -0.20870714904E+04  0.23264443394E+04  0.99543316311E+03 0.  0.
        -13    1    1    2    0    0  0.26225894100E+03 -0.34205161392E+02 -0.31031988341E+03  0.40773543678E+03  0.10566000000E+00 0.  1.
         13    1    3    3    0    0 -0.40720016701E+03  0.12480707092E+03 -0.27882353480E+03  0.50904946291E+03  0.10566000000E+00 0. -1.
          2    1    1    2  502    0 -0.73789230824E+01  0.92081116366E+01  0.54249533109E+03  0.54262364681E+03  0.00000000000E+00 0. -1.
         -4    1    3    3    0  502  0.15232014909E+03 -0.99810021168E+02 -0.18082479556E+04  0.18173948764E+04  0.00000000000E+00 0. -1.
</event>
<event>
 7    1  0.4894942E-006  0.1032072E+04  0.7818608E-02  0.9065335E-01
          2   -1    0    0  501    0  0.00000000000E+00  0.00000000000E+00  0.22627276023E+04  0.22627276023E+04  0.00000000000E+00 0. -1.
         -4   -1    0    0    0  501 -0.00000000000E+00 -0.00000000000E+00 -0.24434277646E+03  0.24434277646E+03  0.00000000000E+00 0. -1.
   -9000010    2    1    2    0  502 -0.22832901775E+03 -0.12577451611E+03  0.16307592480E+04  0.19279969070E+04  0.99490852801E+03 0.  0.
        -13    1    1    2    0    0  0.22799603457E+03  0.15579611002E+03  0.10589955328E+03  0.29575217028E+03  0.10566000000E+00 0.  1.
         13    1    3    3    0    0 -0.46244698223E+03  0.17836209801E+03  0.13880353811E+04  0.14738766840E+04  0.10566000000E+00 0. -1.
          2    1    1    2  502    0  0.33298317905E+00 -0.30021593912E+02  0.28172602453E+03  0.28332130148E+03  0.00000000000E+00 0. -1.
         -4    1    3    3    0  502  0.23411796448E+03 -0.30413661412E+03  0.24272386697E+03  0.45412022300E+03  0.00000000000E+00 0. -1.
</event>
<event>
 7    1  0.4894942E-006  0.1009106E+04  0.7818608E-02  0.9297472E-01
         -4   -1    0    0    0  501 -0.00000000000E+00  0.00000000000E+00  0.13558940135E+04  0.13558940135E+04  0.00000000000E+00 0. -1.
          2   -1    0    0  501    0  0.00000000000E+00 -0.00000000000E+00 -0.10821283063E+04  0.10821283063E+04  0.00000000000E+00 0. -1.
   -9000010    2    1    2    0  502  0.20302790623E+02 -0.72880751181E+02  0.43230877192E+03  0.10939571289E+04  0.10020616341E+04 0.  0.
        -13    1    1    2    0    0 -0.61430131656E+02  0.10293357606E+03  0.58582154823E+03  0.59795976427E+03  0.10566000000E+00 0.  1.
         13    1    3    3    0    0 -0.34717281571E+03 -0.16951833403E+03 -0.13663454966E+03  0.40979804888E+03  0.10566000000E+00 0. -1.
          2    1    1    2  502    0  0.41127341033E+02 -0.30052824875E+02 -0.74436461298E+03  0.74610542654E+03  0.00000000000E+00 0. -1.
         -4    1    3    3    0  502  0.36747560633E+03  0.96637582845E+02  0.56894332158E+03  0.68415908007E+03  0.00000000000E+00 0. -1.
</event>
<event>
 7    1  0.4894942E-006  0.1062075E+04  0.7818608E-02  0.8944550E-01
          4   -1    0    0  501    0 -0.00000000000E+00  0.00000000000E+00  0.11763996104E+04  0.11763996104E+04  0.00000000000E+00 0.  1.
          2   -1    0    0  502    0  0.00000000000E+00 -0.00000000000E+00 -0.13134321728E+04  0.13134321728E+04  0.00000000000E+00 0. -1.
    9000010    2    1    2  502    0  0.37097734747E+03 -0.12762574695E+03  0.45879649331E+03  0.11506541494E+04  0.97959084603E+03 0.  0.
        -13    1    3    3    0    0  0.38821913032E+03 -0.50041377165E+03  0.45077006458E+03  0.77738130817E+03  0.10566000000E+00 0.  1.
         13    1    1    2    0    0 -0.37641713363E+03  0.17979819766E+03  0.25356026825E+03  0.48817012524E+03  0.10566000000E+00 0. -1.
          2    1    1    2  501    0  0.54397861642E+01 -0.52172450717E+02 -0.84938932401E+03  0.85100750856E+03  0.00000000000E+00 0. -1.
          4    1    3    3  502    0 -0.17241782847E+02  0.37278802470E+03  0.80264287276E+01  0.37327284123E+03  0.00000000000E+00 0.  1.
</event>
<event>
 7    1  0.4894942E-006  0.1075311E+04  0.7818608E-02  0.8969054E-01
          2   -1    0    0  502    0  0.00000000000E+00  0.00000000000E+00  0.25981700323E+03  0.25981700323E+03  0.00000000000E+00 0. -1.
          4   -1    0    0  501    0 -0.00000000000E+00 -0.00000000000E+00 -0.42866613338E+04  0.42866613338E+04  0.00000000000E+00 0.  1.
    9000010    2    1    2  502    0 -0.26886476499E+03 -0.24943478789E+03 -0.31369882733E+04  0.33171562384E+04  0.10140631676E+04 0.  0.
        -13    1    3    3    0    0 -0.17270387878E+03 -0.17068003159E+03 -0.77122398720E+02  0.25476691009E+03  0.10566000000E+00 0.  1.
         13    1    1    2    0    0  0.25934428648E+03  0.24205689173E+03 -0.10296294667E+04  0.10890306918E+04  0.10566000000E+00 0. -1.
          2    1    1    2  501    0  0.95204785075E+01  0.73778961681E+01  0.13977340942E+03  0.14029140687E+03  0.00000000000E+00 0. -1.
          4    1    3    3  502    0 -0.96160886206E+02 -0.78754756308E+02 -0.30598658746E+04  0.30623893283E+04  0.00000000000E+00 0.  1.
</event>
<event>
 7    1  0.4894942E-006  0.1017381E+04  0.7818608E-02  0.9244684E-01
         -4   -1    0    0    0  501 -0.00000000000E+00  0.00000000000E+00  0.35825129172E+03  0.35825129172E+03  0.00000000000E+00 0. -1.
          1   -1    0    0  501    0  0.00000000000E+00 -0.00000000000E+00 -0.24663776401E+04  0.24663776401E+04  0.00000000000E+00 0. -1.
   -9000010    2    1    2    0  502  0.39212494634E+02 -0.98231279107E+02 -0.41459027251E+03  0.10945121266E+04  0.10074148586E+04 0.  0.
        -13    1    1    2    0    0 -0.54324036705E+02  0.14968148215E+03 -0.33916520400E+03  0.37468479264E+03  0.10566000000E+00 0.  1.
         13    1    3    3    0    0 -0.31371172663E+03  0.34344712854E+02  0.19991359371E+03  0.37357738534E+03  0.10566000000E+00 0. -1.
          1    1    1    2  502    0  0.15111542071E+02 -0.51450203039E+02 -0.13543708718E+04  0.13554320125E+04  0.00000000000E+00 0. -1.
         -4    1    3    3    0  502  0.35292422126E+03 -0.13257599196E+03 -0.61450386621E+03  0.72093474128E+03  0.00000000000E+00 0. -1.
</event>
<event>
 7    1  0.4894942E-006  0.1390517E+04  0.7818608E-02  0.8556276E-01
         -4   -1    0    0    0  501 -0.00000000000E+00  0.00000000000E+00  0.20905690892E+04  0.20905690892E+04  0.00000000000E+00 0. -1.
          2   -1    0    0  501    0  0.00000000000E+00 -0.00000000000E+00 -0.13150394509E+04  0.13150394509E+04  0.00000000000E+00 0. -1.
   -9000010    2    1    2    0  502 -0.38591396645E+03 -0.87618442694E+03  0.10399331162E+04  0.17322753484E+04  0.10013432264E+04 0.  0.
        -13    1    1    2    0    0  0.39676151999E+03  0.88731371493E+03  0.36905361097E+03  0.10396854868E+04  0.10566000000E+00 0.  1.
         13    1    3    3    0    0 -0.53225664064E+03 -0.47726632735E+03  0.12808289617E+03  0.72628198256E+03  0.10566000000E+00 0. -1.
          2    1    1    2  502    0 -0.10847553540E+02 -0.11129288000E+02 -0.63345708891E+03  0.63364770492E+03  0.00000000000E+00 0. -1.
         -4    1    3    3    0  502  0.14634267419E+03 -0.39891809958E+03  0.91185021999E+03  0.10059933659E+04  0.00000000000E+00 0. -1.
</event>
<event>
 7    1  0.4894942E-006  0.1054710E+04  0.7818608E-02  0.9016317E-01
         -2   -1    0    0    0  501  0.00000000000E+00  0.00000000000E+00  0.71095762724E+03  0.71095762724E+03  0.00000000000E+00 0. -1.
         -4   -1    0    0    0  502 -0.00000000000E+00 -0.00000000000E+00 -0.74282496673E+03  0.74282496673E+03  0.00000000000E+00 0. -1.
   -9000010    2    1    2    0  501  0.10909448765E+03 -0.33803900736E+03 -0.97992616927E+02  0.10724789507E+04  0.10071924190E+04 0.  0.
        -13    1    1    2    0    0 -0.61212650841E+02  0.28987313949E+03  0.89480594410E+02  0.30948378562E+03  0.10566000000E+00 0.  1.
         13    1    3    3    0    0  0.94968162389E+02 -0.18045039232E+03  0.45430216616E+03  0.49796763479E+03  0.10566000000E+00 0. -1.
         -2    1    1    2    0  502 -0.47881836812E+02  0.48165867873E+02 -0.23355316975E+02  0.71819857668E+02  0.00000000000E+00 0. -1.
         -4    1    3    3    0  501  0.14126325265E+02 -0.15758861505E+03 -0.55229478309E+03  0.57451131589E+03  0.00000000000E+00 0. -1.
</event>
<event>
 7    1  0.4894942E-006  0.1007129E+04  0.7818608E-02  0.9329134E-01
         -4   -1    0    0    0  501 -0.00000000000E+00  0.00000000000E+00  0.20145340394E+03  0.20145340394E+03  0.00000000000E+00 0. -1.
          2   -1    0    0  501    0  0.00000000000E+00 -0.00000000000E+00 -0.40903653619E+04  0.40903653619E+04  0.00000000000E+00 0. -1.
   -9000010    2    1    2    0  502 -0.31824338845E+02 -0.35229724831E+02 -0.20646924787E+04  0.22952631406E+04  0.10015108241E+04 0.  0.
        -13    1    1    2    0    0  0.14901840821E+02  0.10621969903E+03  0.51802831177E+02  0.11911437279E+03  0.10566000000E+00 0.  1.
         13    1    3    3    0    0 -0.33312312799E+03 -0.19514076202E+03 -0.18552403224E+04  0.18949848549E+04  0.10566000000E+00 0. -1.
          2    1    1    2  502    0  0.16922498023E+02 -0.70989974201E+02 -0.18760223104E+04  0.18774412525E+04  0.00000000000E+00 0. -1.
         -4    1    3    3    0  502  0.30129878914E+03  0.15991103719E+03 -0.20945215629E+03  0.40027828561E+03  0.00000000000E+00 0. -1.
</event>
<event>
 7    1  0.4894942E-006  0.1019798E+04  0.7818608E-02  0.9249100E-01
         -4   -1    0    0    0  501 -0.00000000000E+00  0.00000000000E+00  0.89765327727E+03  0.89765327727E+03  0.00000000000E+00 0. -1.
          2   -1    0    0  501    0  0.00000000000E+00 -0.00000000000E+00 -0.44399582242E+03  0.44399582242E+03  0.00000000000E+00 0. -1.
   -9000010    2    1    2    0  502 -0.81764221304E+02  0.12000622929E+03  0.28527680479E+03  0.10598242180E+04  0.10103255093E+04 0.  0.
        -13    1    1    2    0    0  0.71286340222E+02 -0.11854507795E+03  0.20298632885E+03  0.24563822722E+03  0.10566000000E+00 0.  1.
         13    1    3    3    0    0 -0.24441843556E+03 -0.37853242498E+03 -0.23626022063E+02  0.45120435336E+03  0.10566000000E+00 0. -1.
          2    1    1    2  502    0  0.10477881082E+02 -0.14611513397E+01 -0.34605678793E+02  0.36186654445E+02  0.00000000000E+00 0. -1.
         -4    1    3    3    0  502  0.16265421425E+03  0.49853865427E+03  0.30890282685E+03  0.60861986466E+03  0.00000000000E+00 0. -1.
</event>
<event>
 7    1  0.4894942E-006  0.1081201E+04  0.7818608E-02  0.8942649E-01
         -4   -1    0    0    0  501 -0.00000000000E+00  0.00000000000E+00  0.91127547296E+03  0.91127547296E+03  0.00000000000E+00 0. -1.
          1   -1    0    0  501    0  0.00000000000E+00 -0.00000000000E+00 -0.12796213629E+04  0.12796213629E+04  0.00000000000E+00 0. -1.
   -9000010    2    1    2    0  502  0.40114430858E+03  0.97937537248E+02  0.88805978288E+02  0.10925704620E+04  0.10076285006E+04 0.  0.
        -13    1    1    2    0    0 -0.37826351525E+03 -0.82568638298E+02  0.20329934905E+03  0.43730024410E+03  0.10566000000E+00 0.  1.
         13    1    3    3    0    0  0.43875339897E+03  0.27154632481E+03 -0.34709420625E+03  0.62186521916E+03  0.10566000000E+00 0. -1.
          1    1    1    2  502    0 -0.22880793333E+02 -0.15368898950E+02 -0.66045121725E+03  0.66102612968E+03  0.00000000000E+00 0. -1.
         -4    1    3    3    0  502 -0.37609090389E+02 -0.17360878757E+03  0.43590018453E+03  0.47070524288E+03  0.00000000000E+00 0. -1.
</event>
<event>
 7    1  0.4894942E-006  0.1028799E+04  0.7818608E-02  0.9178554E-01
          4   -1    0    0  501    0 -0.00000000000E+00  0.00000000000E+00  0.77903409357E+03  0.77903409357E+03  0.00000000000E+00 0.  1.
          2   -1    0    0  502    0  0.00000000000E+00 -0.00000000000E+00 -0.19500593242E+04  0.19500593242E+04  0.00000000000E+00 0.  1.
    9000010    2    1    2  502    0 -0.69485994209E+02  0.83262590538E+02 -0.67767938489E+03  0.12239181280E+04  0.10133929509E+04 0.  0.
        -13    1    3    3    0    0  0.28369874692E+02 -0.41414637402E+03 -0.51566829571E+02  0.41830756385E+03  0.10566000000E+00 0.  1.
         13    1    1    2    0    0  0.79113557755E+02 -0.16008778240E+03  0.48858606924E+03  0.52019555104E+03  0.10566000000E+00 0. -1.
          2    1    1    2  501    0 -0.96275635460E+01  0.76825191863E+02 -0.98193191501E+03  0.98497973877E+03  0.00000000000E+00 0.  1.
          4    1    3    3  502    0 -0.97855868901E+02  0.49740896455E+03 -0.62611255531E+03  0.80561056412E+03  0.00000000000E+00 0.  1.
</event>
<event>
 7    1  0.4894942E-006  0.1581744E+04  0.7818608E-02  0.8417992E-01
          2   -1    0    0  501    0  0.00000000000E+00  0.00000000000E+00  0.15874783623E+04  0.15874783623E+04  0.00000000000E+00 0.  1.
         -4   -1    0    0    0  501 -0.00000000000E+00 -0.00000000000E+00 -0.29921652171E+04  0.29921652171E+04  0.00000000000E+00 0. -1.
   -9000010    2    1    2    0  502 -0.10860753206E+04  0.10488207691E+04  0.34988281807E+03  0.18415126388E+04  0.99456835095E+03 0.  0.
        -13    1    1    2    0    0  0.32380708375E+03 -0.11642720437E+04 -0.14999838410E+04  0.19262221974E+04  0.10566000000E+00 0.  1.
         13    1    3    3    0    0 -0.11281327096E+04  0.82870947387E+03  0.58462436948E+03  0.15169800484E+04  0.10566000000E+00 0. -1.
          2    1    1    2  502    0  0.76226823681E+03  0.11545127462E+03 -0.25458583190E+03  0.81190874331E+03  0.00000000000E+00 0.  1.
         -4    1    3    3    0  502  0.42057389074E+02  0.22011129522E+03 -0.23474155141E+03  0.32453259037E+03  0.00000000000E+00 0. -1.
</event>
<event>
 7    1  0.4894942E-006  0.1031727E+04  0.7818608E-02  0.9053063E-01
         -4   -1    0    0    0  501 -0.00000000000E+00  0.00000000000E+00  0.15004161776E+04  0.15004161776E+04  0.00000000000E+00 0. -1.
          2   -1    0    0  501    0  0.00000000000E+00 -0.00000000000E+00 -0.17472458322E+04  0.17472458322E+04  0.00000000000E+00 0. -1.
   -9000010    2    1    2    0  502  0.19991577586E+03 -0.20874514789E+03  0.92101551150E+03  0.13831183905E+04  0.99055845638E+03 0.  0.
        -13    1    1    2    0    0 -0.22297299867E+03  0.18358258327E+03  0.28824713615E+03  0.40805140078E+03  0.10566000000E+00 0.  1.
         13    1    3    3    0    0  0.40428041048E+03  0.27508617026E+03  0.57190097546E+03  0.75245318011E+03  0.10566000000E+00 0. -1.
          2    1    1    2  502    0  0.23057222809E+02  0.25162564623E+02 -0.14560923022E+04  0.14564922186E+04  0.00000000000E+00 0. -1.
         -4    1    3    3    0  502 -0.20436463462E+03 -0.48383131816E+03  0.34911453604E+03  0.63066521039E+03  0.00000000000E+00 0. -1.
</event>
<event>
 7    1  0.4894942E-006  0.1024816E+04  0.7818608E-02  0.9122443E-01
          4   -1    0    0  501    0 -0.00000000000E+00  0.00000000000E+00  0.10242421138E+04  0.10242421138E+04  0.00000000000E+00 0.  1.
          2   -1    0    0  502    0  0.00000000000E+00 -0.00000000000E+00 -0.86755207223E+03  0.86755207223E+03  0.00000000000E+00 0.  1.
    9000010    2    1    2  502    0 -0.16981416919E+03 -0.14844521708E+03  0.10570989358E+03  0.10306896368E+04  0.10001368462E+04 0.  0.
        -13    1    3    3    0    0 -0.39050516676E+02 -0.19311470523E+03  0.54006641100E+03  0.57488257208E+03  0.10566000000E+00 0.  1.
         13    1    1    2    0    0  0.17951897541E+03  0.13308566175E+03  0.42843449416E+03  0.48321318571E+03  0.10566000000E+00 0. -1.
          2    1    1    2  501    0 -0.97048062186E+01  0.15359555330E+02 -0.37745434617E+03  0.37789136355E+03  0.00000000000E+00 0.  1.
          4    1    3    3  502    0 -0.13076365251E+03  0.44669488150E+02 -0.43435651742E+03  0.45580706469E+03  0.00000000000E+00 0.  1.
</event>
<event>
 7    1  0.4894942E-006  0.9911618E+03  0.7818608E-02  0.9588767E-01
          1   -1    0    0  501    0  0.00000000000E+00  0.00000000000E+00  0.13994003446E+04  0.13994003446E+04  0.00000000000E+00 0.  1.
         -4   -1    0    0    0  501 -0.00000000000E+00 -0.00000000000E+00 -0.35841051423E+03  0.35841051423E+03  0.00000000000E+00 0. -1.
   -9000010    2    1    2    0  502 -0.73802145603E+01 -0.68281035699E+02  0.34562887864E+03  0.10475967581E+04  0.98655100139E+03 0.  0.
        -13    1    1    2    0    0 -0.40399832114E+02 -0.14833651805E+02  0.13447654168E+03  0.14119537912E+03  0.10566000000E+00 0.  1.
         13    1    3    3    0    0 -0.68965742696E+02  0.34772011780E+03  0.48839753367E+03  0.60348795849E+03  0.10566000000E+00 0. -1.
          1    1    1    2  502    0  0.47780046674E+02  0.83114687504E+02  0.56088441006E+03  0.56901872165E+03  0.00000000000E+00 0.  1.
         -4    1    3    3    0  502  0.61585528136E+02 -0.41600115350E+03 -0.14276865503E+03  0.44410879956E+03  0.00000000000E+00 0. -1.
</event>
<event>
 7    1  0.4894942E-006  0.1007315E+04  0.7818608E-02  0.9250870E-01
          4   -1    0    0  501    0 -0.00000000000E+00  0.00000000000E+00  0.30722610549E+04  0.30722610549E+04  0.00000000000E+00 0.  1.
          2   -1    0    0  502    0  0.00000000000E+00 -0.00000000000E+00 -0.44849852435E+03  0.44849852435E+03  0.00000000000E+00 0. -1.
    9000010    2    1    2  502    0  0.36505306280E+02  0.17170959662E+03  0.21742259446E+04  0.23984018131E+04  0.99712385194E+03 0.  0.
        -13    1    3    3    0    0 -0.18522382713E+03 -0.37476108860E+03  0.10171324110E+04  0.10996872703E+04  0.10566000000E+00 0.  1.
         13    1    1    2    0    0 -0.10453930857E+03 -0.97228174463E+02  0.77168736087E+03  0.78478224944E+03  0.10566000000E+00 0. -1.
          2    1    1    2  501    0  0.68034002293E+02 -0.74481422162E+02 -0.32215077489E+03  0.33757551670E+03  0.00000000000E+00 0. -1.
          4    1    3    3  502    0  0.22172913341E+03  0.54647068523E+03  0.11570935336E+04  0.12987145429E+04  0.00000000000E+00 0.  1.
</event>
<event>
 7    1  0.4894942E-006  0.1106284E+04  0.7818608E-02  0.8939491E-01
          2   -1    0    0  502    0  0.00000000000E+00  0.00000000000E+00  0.17948501617E+04  0.17948501617E+04  0.00000000000E+00 0. -1.
          4   -1    0    0  501    0 -0.00000000000E+00 -0.00000000000E+00 -0.73255554873E+03  0.73255554873E+03  0.00000000000E+00 0.  1.
    9000010    2    1    2  502    0 -0.11610212308E+03 -0.38144041594E+03 -0.18307677645E+03  0.11308939904E+04  0.10423183859E+04 0.  0.
        -13    1    3    3    0    0 -0.38987902358E+03 -0.38255516990E+02 -0.46586627395E+03  0.60868755037E+03  0.10566000000E+00 0.  1.
         13    1    1    2    0    0  0.98694999047E+02  0.33264163798E+03  0.32732339689E+03  0.47700291349E+03  0.10566000000E+00 0. -1.
          2    1    1    2  501    0  0.17407124031E+02  0.48798777960E+02  0.91804799253E+03  0.91950880653E+03  0.00000000000E+00 0. -1.
          4    1    3    3  502    0  0.27377690051E+03 -0.34318489895E+03  0.28278949750E+03  0.52220644004E+03  0.00000000000E+00 0.  1.
</event>
<event>
 7    1  0.4894942E-006  0.9699152E+03  0.7818608E-02  0.9211528E-01
          2   -1    0    0  501    0  0.00000000000E+00  0.00000000000E+00  0.78179875029E+03  0.78179875029E+03  0.00000000000E+00 0. -1.
         -4   -1    0    0    0  501 -0.00000000000E+00 -0.00000000000E+00 -0.71499864182E+03  0.71499864182E+03  0.00000000000E+00 0. -1.
   -9000010    2    1    2    0  502 -0.16979229381E+03  0.65647323558E+02  0.27753332911E+03  0.10080689040E+04  0.95186089965E+03 0.  0.
        -13    1    1    2    0    0  0.10940847477E+03 -0.15246086077E+03 -0.29763487926E+03  0.35185374935E+03  0.10566000000E+00 0.  1.
         13    1    3    3    0    0 -0.36739625053E+01  0.23014972261E+03  0.58103292824E+03  0.62496533318E+03  0.10566000000E+00 0. -1.
          2    1    1    2  502    0  0.60383819036E+02  0.86813537210E+02  0.86901658614E+02  0.13687473877E+03  0.00000000000E+00 0. -1.
         -4    1    3    3    0  502 -0.16611833130E+03 -0.16450239905E+03 -0.30349959913E+03  0.38310357080E+03  0.00000000000E+00 0. -1.
</event>
<event>
 7    1  0.4894942E-006  0.1148114E+04  0.7818608E-02  0.8818231E-01
         -4   -1    0    0    0  501 -0.00000000000E+00  0.00000000000E+00  0.28202975015E+04  0.28202975015E+04  0.00000000000E+00 0. -1.
          1   -1    0    0  501    0  0.00000000000E+00 -0.00000000000E+00 -0.62858105301E+03  0.62858105301E+03  0.00000000000E+00 0. -1.
   -9000010    2    1    2    0  502  0.11667336556E+03 -0.63726085311E+03  0.53061222647E+03  0.13106437555E+04  0.10082279751E+04 0.  0.
        -13    1    1    2    0    0 -0.65804528069E+01  0.54015120343E+03  0.18337226076E+04  0.19116341799E+04  0.10566000000E+00 0.  1.
         13    1    3    3    0    0 -0.12501744736E+02 -0.90241268146E+03  0.37675637102E+03  0.97798277876E+03  0.10566000000E+00 0. -1.
          1    1    1    2  502    0 -0.11009291276E+03  0.97109649677E+02 -0.17261838563E+03  0.22660061906E+03  0.00000000000E+00 0. -1.
         -4    1    3    3    0  502  0.12917511030E+03  0.26515182835E+03  0.15385585545E+03  0.33266097675E+03  0.00000000000E+00 0. -1.
</event>
<event>
 7    1  0.4894942E-006  0.1089095E+04  0.7818608E-02  0.8920478E-01
          4   -1    0    0  501    0 -0.00000000000E+00  0.00000000000E+00  0.10277733022E+04  0.10277733022E+04  0.00000000000E+00 0.  1.
          2   -1    0    0  502    0  0.00000000000E+00 -0.00000000000E+00 -0.15067659088E+04  0.15067659088E+04  0.00000000000E+00 0.  1.
    9000010    2    1    2  502    0 -0.56837293282E+03  0.62211240591E+02 -0.26048370808E+02  0.11563717946E+04  0.10047881272E+04 0.  0.
        -13    1    3    3    0    0  0.74300703002E+02  0.40223423012E+03 -0.11235004490E+03  0.42418806455E+03  0.10566000000E+00 0.  1.
         13    1    1    2    0    0  0.39764344337E+03  0.29547903710E+02  0.36317849838E+03  0.53934406413E+03  0.10566000000E+00 0. -1.
          2    1    1    2  501    0  0.17072948946E+03 -0.91759144301E+02 -0.81612273413E+03  0.83882335226E+03  0.00000000000E+00 0.  1.
          4    1    3    3  502    0 -0.64267363582E+03 -0.34002298953E+03  0.86301674094E+02  0.73218373005E+03  0.00000000000E+00 0.  1.
</event>
<event>
 7    1  0.4894942E-006  0.1025216E+04  0.7818608E-02  0.9211100E-01
          2   -1    0    0  502    0  0.00000000000E+00  0.00000000000E+00  0.10321194942E+04  0.10321194942E+04  0.00000000000E+00 0.  1.
          4   -1    0    0  501    0 -0.00000000000E+00 -0.00000000000E+00 -0.59871992896E+03  0.59871992896E+03  0.00000000000E+00 0.  1.
    9000010    2    1    2  502    0 -0.17130162552E+03 -0.44721872053E+02  0.17526889301E+03  0.10431546773E+04  0.10129699912E+04 0.  0.
        -13    1    3    3    0    0  0.25057366547E+03  0.34318531819E+03  0.19972973085E+03  0.46952667762E+03  0.10566000000E+00 0.  1.
         13    1    1    2    0    0  0.14696377503E+03  0.54852199887E+02 -0.12688994553E+03  0.20176269339E+03  0.10566000000E+00 0. -1.
          2    1    1    2  501    0  0.24337850488E+02 -0.10130327834E+02  0.38502061775E+03  0.38592205249E+03  0.00000000000E+00 0.  1.
          4    1    3    3  502    0 -0.42187529099E+03 -0.38790719024E+03 -0.24460837838E+02  0.57362799964E+03  0.00000000000E+00 0.  1.
</event>
<event>
 7    1  0.4894942E-006  0.1336013E+04  0.7818608E-02  0.8735493E-01
          2   -1    0    0  501    0  0.00000000000E+00  0.00000000000E+00  0.23935851290E+04  0.23935851290E+04  0.00000000000E+00 0. -1.
         -4   -1    0    0    0  501 -0.00000000000E+00 -0.00000000000E+00 -0.20840386937E+04  0.20840386937E+04  0.00000000000E+00 0. -1.
   -9000010    2    1    2    0  502 -0.17102545540E+03 -0.96557511583E+03 -0.15034522314E+03  0.14132121646E+04  0.10064690385E+04 0.  0.
        -13    1    1    2    0    0 -0.39889270419E+03  0.29419099741E+03 -0.11372487956E+04  0.12405638100E+04  0.10566000000E+00 0.  1.
         13    1    3    3    0    0 -0.25784864906E+03 -0.67455261228E+03 -0.55250112781E+03  0.90926600065E+03  0.10566000000E+00 0. -1.
          2    1    1    2  502    0  0.56991815958E+03  0.67138411842E+03  0.15971404540E+04  0.18238478480E+04  0.00000000000E+00 0. -1.
         -4    1    3    3    0  502  0.86823193667E+02 -0.29102250355E+03  0.40215590467E+03  0.50394616398E+03  0.00000000000E+00 0. -1.
</event>
<event>
 7    1  0.4894942E-006  0.1078874E+04  0.7818608E-02  0.8921135E-01
          1   -1    0    0  501    0  0.00000000000E+00  0.00000000000E+00  0.10028811190E+04  0.10028811190E+04  0.00000000000E+00 0. -1.
         -4   -1    0    0    0  501 -0.00000000000E+00 -0.00000000000E+00 -0.68247287694E+03  0.68247287694E+03  0.00000000000E+00 0. -1.
   -9000010    2    1    2    0  502 -0.40478643608E+03 -0.22046154990E+03  0.10416553052E+03  0.10961206916E+04  0.98902717804E+03 0.  0.
        -13    1    1    2    0    0  0.34045703883E+03  0.24561792626E+03  0.67454093046E+02  0.42519316413E+03  0.10566000000E+00 0.  1.
         13    1    3    3    0    0  0.12895626733E+02  0.12966822120E+03 -0.35834520243E+03  0.38130229483E+03  0.10566000000E+00 0. -1.
          1    1    1    2  502    0  0.64329397246E+02 -0.25156376360E+02  0.14878861847E+03  0.16404014023E+03  0.00000000000E+00 0. -1.
         -4    1    3    3    0  502 -0.41768206281E+03 -0.35012977110E+03  0.46251073295E+03  0.71481839673E+03  0.00000000000E+00 0. -1.
</event>
<event>
 7    1  0.4894942E-006  0.1269251E+04  0.7818608E-02  0.8668159E-01
         -4   -1    0    0    0  501 -0.00000000000E+00  0.00000000000E+00  0.22456768831E+04  0.22456768831E+04  0.00000000000E+00 0. -1.
          1   -1    0    0  501    0  0.00000000000E+00 -0.00000000000E+00 -0.11769296923E+04  0.11769296923E+04  0.00000000000E+00 0.  1.
   -9000010    2    1    2    0  502 -0.58493502339E+03  0.39462142913E+03  0.57066290860E+03  0.13550120082E+04  0.10062436749E+04 0.  0.
        -13    1    1    2    0    0  0.77352879916E+03 -0.22201647165E+03  0.11292217163E+04  0.13866433617E+04  0.10566000000E+00 0.  1.
         13    1    3    3    0    0 -0.60976565964E+03  0.52631538328E+03  0.38695691569E+02  0.80642384021E+03  0.10566000000E+00 0. -1.
          1    1    1    2  502    0 -0.18859377578E+03 -0.17260495748E+03 -0.63113743404E+03  0.68095120549E+03  0.00000000000E+00 0.  1.
         -4    1    3    3    0  502  0.24830636251E+02 -0.13169395415E+03  0.53196721703E+03  0.54858816798E+03  0.00000000000E+00 0. -1.
</event>
<event>
 7    1  0.4894942E-006  0.1509306E+04  0.7818608E-02  0.8464040E-01
          5   -1    0    0  501    0  0.00000000000E+00  0.00000000000E+00  0.67931589703E+03  0.67931589703E+03  0.00000000000E+00 0.  1.
         -4   -1    0    0    0  501 -0.00000000000E+00 -0.00000000000E+00 -0.39914136121E+04  0.39914136121E+04  0.00000000000E+00 0. -1.
   -9000010    2    1    2    0  502 -0.99831159395E+03  0.51813297159E+03 -0.76297022664E+03  0.16772380702E+04  0.98281033899E+03 0.  0.
        -13    1    1    2    0    0  0.10915545444E+04 -0.37359827217E+03 -0.25730182534E+04  0.28198386365E+04  0.10566000000E+00 0.  1.
         13    1    3    3    0    0 -0.56663628818E+03 -0.14946072373E+03 -0.64847820116E+03  0.87403614317E+03  0.10566000000E+00 0. -1.
          5    1    1    2  502    0 -0.93242950447E+02 -0.14453469942E+03  0.23890764996E+02  0.17365280244E+03  0.00000000000E+00 0.  1.
         -4    1    3    3    0  502 -0.43167530577E+03  0.66759369532E+03 -0.11449202548E+03  0.80320192700E+03  0.00000000000E+00 0. -1.
</event>
<event>
 7    1  0.4894942E-006  0.1084186E+04  0.7818608E-02  0.8949766E-01
         -4   -1    0    0    0  501 -0.00000000000E+00  0.00000000000E+00  0.39885694675E+04  0.39885694675E+04  0.00000000000E+00 0. -1.
          2   -1    0    0  501    0  0.00000000000E+00 -0.00000000000E+00 -0.92289693515E+03  0.92289693515E+03  0.00000000000E+00 0. -1.
   -9000010    2    1    2    0  502  0.31496367913E+03  0.24560743381E+03  0.27729399687E+04  0.29801983615E+04  0.10162977286E+04 0.  0.
        -13    1    1    2    0    0 -0.20660248154E+03 -0.31395094284E+03  0.10748836070E+04  0.11386942345E+04  0.10566000000E+00 0.  1.
         13    1    3    3    0    0  0.36681522673E+03 -0.31362264431E+03  0.17250980695E+04  0.17913335631E+04  0.10566000000E+00 0. -1.
          2    1    1    2  502    0 -0.10836119759E+03  0.68343509035E+02 -0.78215104336E+03  0.79257380665E+03  0.00000000000E+00 0. -1.
         -4    1    3    3    0  502 -0.51851547599E+02  0.55923007812E+03  0.10478418992E+04  0.11888647985E+04  0.00000000000E+00 0. -1.
</event>
<event>
 7    1  0.4894942E-006  0.1141822E+04  0.7818608E-02  0.8821722E-01
          4   -1    0    0  501    0  0.00000000000E+00  0.00000000000E+00  0.88443814256E+03  0.88443814256E+03  0.00000000000E+00 0.  1.
         -4   -1    0    0    0  501 -0.00000000000E+00 -0.00000000000E+00 -0.25183879555E+04  0.25183879555E+04  0.00000000000E+00 0. -1.
   -9000010    2    1    2    0  502 -0.70169018750E+03 -0.36344513812E+03 -0.11545734074E+04  0.17200419686E+04  0.10005214304E+04 0.  0.
        -13    1    1    2    0    0  0.47447652834E+03  0.15920885318E+03 -0.97765009224E+03  0.10983055808E+04  0.10566000000E+00 0.  1.
         13    1    3    3    0    0  0.11634579584E+02 -0.50787022678E+03 -0.27249947381E+03  0.57647506891E+03  0.10566000000E+00 0. -1.
          4    1    1    2  502    0  0.22721365916E+03  0.20423628495E+03  0.49827368672E+03  0.58447854868E+03  0.00000000000E+00 0.  1.
         -4    1    3    3    0  502 -0.71332476708E+03  0.14442508865E+03 -0.88207393364E+03  0.11435668997E+04  0.00000000000E+00 0. -1.
</event>
<event>
 7    1  0.4894942E-006  0.9989648E+03  0.7818608E-02  0.9370336E-01
          2   -1    0    0  501    0  0.00000000000E+00  0.00000000000E+00  0.17348227835E+04  0.17348227835E+04  0.00000000000E+00 0. -1.
         -4   -1    0    0    0  501 -0.00000000000E+00 -0.00000000000E+00 -0.71288618575E+03  0.71288618575E+03  0.00000000000E+00 0. -1.
   -9000010    2    1    2    0  502 -0.36558850134E+02  0.36114810876E+02 -0.23882598952E+03  0.10241626425E+04  0.99460064142E+03 0.  0.
        -13    1    1    2    0    0  0.86646611049E+02 -0.42559120320E+02 -0.52111029282E+02  0.10970179791E+03  0.10566000000E+00 0.  1.
         13    1    3    3    0    0 -0.26283704499E+03 -0.35315510742E+03 -0.34764050594E+03  0.56094186388E+03  0.10566000000E+00 0. -1.
          2    1    1    2  502    0 -0.50087760916E+02  0.64443094431E+01  0.13128736165E+04  0.13138445288E+04  0.00000000000E+00 0. -1.
         -4    1    3    3    0  502  0.22627819486E+03  0.38926991829E+03  0.10881451642E+03  0.46322077862E+03  0.00000000000E+00 0. -1.
</event>
<event>
 7    1  0.4894942E-006  0.1048233E+04  0.7818608E-02  0.9006949E-01
          2   -1    0    0  501    0  0.00000000000E+00  0.00000000000E+00  0.15765776016E+04  0.15765776016E+04  0.00000000000E+00 0. -1.
         -4   -1    0    0    0  501 -0.00000000000E+00 -0.00000000000E+00 -0.21555771145E+04  0.21555771145E+04  0.00000000000E+00 0. -1.
   -9000010    2    1    2    0  502 -0.25082572671E+03  0.20846386752E+03 -0.14472734106E+04  0.17860884129E+04  0.99455556117E+03 0.  0.
        -13    1    1    2    0    0  0.23822447707E+03 -0.23252379750E+03 -0.48733737510E+03  0.59018297690E+03  0.10566000000E+00 0.  1.
         13    1    3    3    0    0 -0.35782195228E+03 -0.20813882434E+03 -0.18661786224E+03  0.45407549747E+03  0.10566000000E+00 0. -1.
          2    1    1    2  502    0  0.12601249632E+02  0.24059929983E+02  0.13556112728E+04  0.13558833264E+04  0.00000000000E+00 0. -1.
         -4    1    3    3    0  502  0.10699622557E+03  0.41660269185E+03 -0.12606555484E+04  0.13320129154E+04  0.00000000000E+00 0. -1.
</event>
<event>
 7    1  0.4894942E-006  0.1016538E+04  0.7818608E-02  0.9097428E-01
          2   -1    0    0  502    0  0.00000000000E+00  0.00000000000E+00  0.11090952296E+04  0.11090952296E+04  0.00000000000E+00 0.  1.
          4   -1    0    0  501    0 -0.00000000000E+00 -0.00000000000E+00 -0.55475903714E+03  0.55475903714E+03  0.00000000000E+00 0.  1.
    9000010    2    1    2  502    0 -0.73207401864E+02  0.61962908753E+02  0.30527497189E+03  0.10352834006E+04  0.98459137994E+03 0.  0.
        -13    1    3    3    0    0  0.11950019690E+03  0.31558970429E+03  0.54196607980E+03  0.63843903493E+03  0.10566000000E+00 0.  1.
         13    1    1    2    0    0  0.26657581339E+03 -0.96552395699E+02 -0.32368987418E+02  0.28536431436E+03  0.10566000000E+00 0. -1.
          2    1    1    2  501    0 -0.19336841153E+03  0.34589486946E+02  0.28143020799E+03  0.34320655173E+03  0.00000000000E+00 0.  1.
          4    1    3    3  502    0 -0.19270759877E+03 -0.25362679554E+03 -0.23669110791E+03  0.39684436571E+03  0.00000000000E+00 0.  1.
</event>
<event>
 7    1  0.4894942E-006  0.1038977E+04  0.7818608E-02  0.9186730E-01
          2   -1    0    0  502    0  0.00000000000E+00  0.00000000000E+00  0.10924773349E+04  0.10924773349E+04  0.00000000000E+00 0. -1.
          4   -1    0    0  501    0 -0.00000000000E+00 -0.00000000000E+00 -0.67227120794E+03  0.67227120794E+03  0.00000000000E+00 0.  1.
    9000010    2    1    2  502    0  0.15033486789E+03  0.94552629055E+02  0.18336669537E+03  0.10380481753E+04  0.10061709085E+04 0.  0.
        -13    1    3    3    0    0  0.50201074304E+03  0.29828483238E+03  0.23277793021E+03  0.62862882793E+03  0.10566000000E+00 0.  1.
         13    1    1    2    0    0 -0.54224827953E+02  0.15776401370E+03 -0.17015401851E+03  0.23829019528E+03  0.10566000000E+00 0. -1.
          2    1    1    2  501    0 -0.96110039936E+02 -0.25231664276E+03  0.40699345014E+03  0.48841017234E+03  0.00000000000E+00 0. -1.
          4    1    3    3  502    0 -0.35167587515E+03 -0.20373220333E+03 -0.49411234837E+02  0.40941934732E+03  0.00000000000E+00 0.  1.
</event>
<event>
 7    1  0.4894942E-006  0.1174922E+04  0.7818608E-02  0.8854864E-01
         -4   -1    0    0    0  501 -0.00000000000E+00  0.00000000000E+00  0.14173655237E+04  0.14173655237E+04  0.00000000000E+00 0. -1.
          2   -1    0    0  501    0  0.00000000000E+00 -0.00000000000E+00 -0.95265321051E+03  0.95265321051E+03  0.00000000000E+00 0.  1.
   -9000010    2    1    2    0  502 -0.45263789686E+03  0.52081492469E+03 -0.50429576987E+02  0.12280232938E+04  0.10145781470E+04 0.  0.
        -13    1    1    2    0    0 -0.11723481213E+03 -0.42348016174E+03  0.19017069341E+03  0.47879468706E+03  0.10566000000E+00 0.  1.
         13    1    3    3    0    0  0.87954179546E+02  0.56661381589E+03  0.22939279197E+03  0.61758255985E+03  0.10566000000E+00 0. -1.
          2    1    1    2  502    0  0.56987270899E+03 -0.97334762945E+02  0.32497119682E+03  0.66320075338E+03  0.00000000000E+00 0.  1.
         -4    1    3    3    0  502 -0.54059207641E+03 -0.45798891205E+02 -0.27982236896E+03  0.61044073396E+03  0.00000000000E+00 0. -1.
</event>
<event>
 7    1  0.4894942E-006  0.1124048E+04  0.7818608E-02  0.8865316E-01
          2   -1    0    0  502    0  0.00000000000E+00  0.00000000000E+00  0.12626960656E+04  0.12626960656E+04  0.00000000000E+00 0. -1.
          4   -1    0    0  501    0 -0.00000000000E+00 -0.00000000000E+00 -0.20627817665E+04  0.20627817665E+04  0.00000000000E+00 0.  1.
    9000010    2    1    2  502    0 -0.47216669715E+03  0.41038502883E+02 -0.12562817325E+04  0.16839216481E+04  0.10162296871E+04 0.  0.
        -13    1    3    3    0    0 -0.65424267809E+03  0.36495584899E+03 -0.86507361907E+03  0.11443682236E+04  0.10566000000E+00 0.  1.
         13    1    1    2    0    0  0.48260157745E+03 -0.27816523294E+02 -0.49402464828E+03  0.69118623091E+03  0.10566000000E+00 0. -1.
          2    1    1    2  501    0 -0.10434880299E+02 -0.13221979589E+02  0.95022067985E+03  0.95036995317E+03  0.00000000000E+00 0. -1.
          4    1    3    3  502    0  0.18207598094E+03 -0.32391734610E+03 -0.39120811339E+03  0.53955342453E+03  0.00000000000E+00 0.  1.
</event>
<event>
 7    1  0.4894942E-006  0.1056440E+04  0.7818608E-02  0.8893417E-01
          2   -1    0    0  502    0  0.00000000000E+00  0.00000000000E+00  0.17670703438E+04  0.17670703438E+04  0.00000000000E+00 0. -1.
          4   -1    0    0  501    0 -0.00000000000E+00 -0.00000000000E+00 -0.62651310826E+03  0.62651310826E+03  0.00000000000E+00 0.  1.
    9000010    2    1    2  502    0 -0.31968771782E+03  0.35736448310E+03  0.51189167441E+03  0.11588715928E+04  0.92251865652E+03 0.  0.
        -13    1    3    3    0    0 -0.46781328004E+03  0.41375237918E+03  0.68310010350E+03  0.92556256343E+03  0.10566000000E+00 0.  1.
         13    1    1    2    0    0  0.31347509929E+03 -0.42099377671E+03 -0.73180343100E+02  0.52996016047E+03  0.10566000000E+00 0. -1.
          2    1    1    2  501    0  0.62126185338E+01  0.63629293614E+02  0.70184590419E+03  0.70475169873E+03  0.00000000000E+00 0. -1.
          4    1    3    3  502    0  0.14812556222E+03 -0.56387896080E+02 -0.17120842909E+03  0.23330902940E+03  0.00000000000E+00 0.  1.
</event>
<event>
 7    1  0.4894942E-006  0.1102302E+04  0.7818608E-02  0.8896550E-01
          2   -1    0    0  501    0  0.00000000000E+00  0.00000000000E+00  0.24861268228E+04  0.24861268228E+04  0.00000000000E+00 0. -1.
         -4   -1    0    0    0  501 -0.00000000000E+00 -0.00000000000E+00 -0.68624861998E+03  0.68624861998E+03  0.00000000000E+00 0. -1.
   -9000010    2    1    2    0  502  0.58723873520E+03 -0.34074854100E+02  0.62502828742E+02  0.11682790118E+04  0.10074516456E+04 0.  0.
        -13    1    1    2    0    0 -0.38092205504E+03 -0.36019633623E+02  0.16497887071E+03  0.41667381123E+03  0.10566000000E+00 0.  1.
         13    1    3    3    0    0 -0.25723498025E+03 -0.17387964006E+03  0.84173303703E+01  0.31060397117E+03  0.10566000000E+00 0. -1.
          2    1    1    2  502    0 -0.20631668015E+03  0.70094487722E+02  0.15723965034E+04  0.15874226197E+04  0.00000000000E+00 0. -1.
         -4    1    3    3    0  502  0.84447371545E+03  0.13980478596E+03  0.54085498372E+02  0.85767504068E+03  0.00000000000E+00 0. -1.
</event>
<event>
 7    1  0.4894942E-006  0.1062287E+04  0.7818608E-02  0.8960531E-01
         -2   -1    0    0    0  501  0.00000000000E+00  0.00000000000E+00  0.49463736885E+03  0.49463736885E+03  0.00000000000E+00 0. -1.
         -4   -1    0    0    0  502 -0.00000000000E+00 -0.00000000000E+00 -0.26258600432E+04  0.26258600432E+04  0.00000000000E+00 0. -1.
   -9000010    2    1    2    0  501 -0.35603540438E+03 -0.69056565000E+02 -0.15591693546E+04  0.18823925123E+04  0.99038501385E+03 0.  0.
        -13    1    1    2    0    0  0.38614041287E+03  0.53834906807E+02 -0.86207000947E+03  0.94613282790E+03  0.10566000000E+00 0.  1.
         13    1    3    3    0    0  0.29037182204E+03 -0.18244213349E+03 -0.27248760380E+03  0.43800734297E+03  0.10566000000E+00 0. -1.
         -2    1    1    2    0  502 -0.30105008491E+02  0.15221658193E+02  0.29001668974E+03  0.29197207185E+03  0.00000000000E+00 0. -1.
         -4    1    3    3    0  501 -0.64640722642E+03  0.11338556849E+03 -0.12866817508E+04  0.14443851694E+04  0.00000000000E+00 0. -1.
</event>
<event>
 7    1  0.4894942E-006  0.1045178E+04  0.7818608E-02  0.8987731E-01
         -4   -1    0    0    0  501 -0.00000000000E+00  0.00000000000E+00  0.81445505379E+03  0.81445505379E+03  0.00000000000E+00 0. -1.
          1   -1    0    0  501    0  0.00000000000E+00 -0.00000000000E+00 -0.87379181639E+03  0.87379181639E+03  0.00000000000E+00 0. -1.
   -9000010    2    1    2    0  502  0.34892019561E+03 -0.23577126162E+03 -0.93010965365E+02  0.10714498978E+04  0.98082641339E+03 0.  0.
        -13    1    1    2    0    0 -0.31932558008E+03  0.14738531925E+03  0.21550167327E+03  0.41247089687E+03  0.10566000000E+00 0.  1.
         13    1    3    3    0    0  0.63027334629E+03 -0.24114176501E+03  0.15943348607E+03  0.69340672734E+03  0.10566000000E+00 0. -1.
          1    1    1    2  502    0 -0.29594615535E+02  0.88385942371E+02 -0.18182747051E+03  0.20432607545E+03  0.00000000000E+00 0. -1.
         -4    1    3    3    0  502 -0.28135315068E+03  0.53705033916E+01 -0.25244445144E+03  0.37804317051E+03  0.00000000000E+00 0. -1.
</event>
<event>
 7    1  0.4894942E-006  0.1089905E+04  0.7818608E-02  0.9013856E-01
         -4   -1    0    0    0  501 -0.00000000000E+00  0.00000000000E+00  0.18206684777E+04  0.18206684777E+04  0.00000000000E+00 0. -1.
          5   -1    0    0  501    0  0.00000000000E+00 -0.00000000000E+00 -0.38060373790E+03  0.38060373790E+03  0.00000000000E+00 0. -1.
   -9000010    2    1    2    0  502  0.49592933568E+02  0.11696556202E+03  0.66246225727E+03  0.12493254984E+04  0.10515786024E+04 0.  0.
        -13    1    1    2    0    0 -0.14602549419E+03 -0.26658423053E+03  0.68909268868E+03  0.75315293379E+03  0.10566000000E+00 0.  1.
         13    1    3    3    0    0  0.47776163904E+03 -0.28565933394E+02  0.40485374137E+02  0.48032413324E+03  0.10566000000E+00 0. -1.
          5    1    1    2  502    0  0.96432560620E+02  0.14961866852E+03  0.88509793888E+02  0.19879378343E+03  0.00000000000E+00 0. -1.
         -4    1    3    3    0  502 -0.42816870547E+03  0.14553149541E+03  0.62197688313E+03  0.76900136518E+03  0.00000000000E+00 0. -1.
</event>
<event>
 7    1  0.4894942E-006  0.9949200E+03  0.7818608E-02  0.9400210E-01
          2   -1    0    0  501    0  0.00000000000E+00  0.00000000000E+00  0.23423320584E+04  0.23423320584E+04  0.00000000000E+00 0. -1.
         -4   -1    0    0    0  501 -0.00000000000E+00 -0.00000000000E+00 -0.16001959130E+03  0.16001959130E+03  0.00000000000E+00 0. -1.
   -9000010    2    1    2    0  502  0.12744677049E+02 -0.94605361915E+02  0.14477073270E+04  0.17571844538E+04  0.99132643403E+03 0.  0.
        -13    1    1    2    0    0 -0.50713122051E+01  0.82119705030E+02  0.32342900451E+03  0.33372997511E+03  0.10566000000E+00 0.  1.
         13    1    3    3    0    0 -0.22807075363E+03  0.27165045385E+03  0.14584713089E+03  0.38351223512E+03  0.10566000000E+00 0. -1.
          2    1    1    2  502    0 -0.76733648443E+01  0.12485656885E+02  0.41117613559E+03  0.41143722077E+03  0.00000000000E+00 0. -1.
         -4    1    3    3    0  502  0.24081543068E+03 -0.36625581576E+03  0.13018601961E+04  0.13736722187E+04  0.00000000000E+00 0. -1.
</event>
<event>
 7    1  0.4894942E-006  0.1384918E+04  0.7818608E-02  0.8560394E-01
         -4   -1    0    0    0  501 -0.00000000000E+00  0.00000000000E+00  0.16766324896E+04  0.16766324896E+04  0.00000000000E+00 0. -1.
          1   -1    0    0  501    0  0.00000000000E+00 -0.00000000000E+00 -0.14884460486E+04  0.14884460486E+04  0.00000000000E+00 0.  1.
   -9000010    2    1    2    0  502 -0.56080520797E+03 -0.78559146745E+03  0.75433666704E+03  0.15809936227E+04  0.99943013396E+03 0.  0.
        -13    1    1    2    0    0  0.55169888752E+03  0.77548981600E+03  0.63930868605E+02  0.95385705655E+03  0.10566000000E+00 0.  1.
         13    1    3    3    0    0 -0.81968618550E+02  0.24184543021E+03  0.12191361429E+03  0.28296820855E+03  0.10566000000E+00 0. -1.
          1    1    1    2  502    0  0.91063204423E+01  0.10101651451E+02 -0.63008109460E+03  0.63022785896E+03  0.00000000000E+00 0.  1.
         -4    1    3    3    0  502 -0.47883658942E+03 -0.10274368977E+04  0.63242305275E+03  0.12980254141E+04  0.00000000000E+00 0. -1.
</event>
<event>
 7    1  0.4894942E-006  0.1167438E+04  0.7818608E-02  0.8801417E-01
          2   -1    0    0  501    0  0.00000000000E+00  0.00000000000E+00  0.17152078892E+04  0.17152078892E+04  0.00000000000E+00 0.  1.
         -4   -1    0    0    0  501 -0.00000000000E+00 -0.00000000000E+00 -0.91778900601E+03  0.91778900601E+03  0.00000000000E+00 0. -1.
   -9000010    2    1    2    0  502 -0.54350557885E+03  0.11757098168E+03 -0.28739415349E+03  0.12000728135E+04  0.10238936020E+04 0.  0.
        -13    1    1    2    0    0  0.55127657029E+03 -0.12685696868E+03  0.28573288101E+03  0.63375218967E+03  0.10566000000E+00 0.  1.
         13    1    3    3    0    0 -0.27804356198E+03 -0.24179029136E+03  0.29078309143E+03  0.46938852221E+03  0.10566000000E+00 0. -1.
          2    1    1    2  502    0 -0.77709914431E+01  0.92859869924E+01  0.79908015563E+03  0.79917189201E+03  0.00000000000E+00 0.  1.
         -4    1    3    3    0  502 -0.26546201687E+03  0.35936127304E+03 -0.57817724492E+03  0.73068429127E+03  0.00000000000E+00 0. -1.
</event>
<event>
 7    1  0.4894942E-006  0.1038523E+04  0.7818608E-02  0.9044566E-01
         -4   -1    0    0    0  501 -0.00000000000E+00  0.00000000000E+00  0.13205413646E+04  0.13205413646E+04  0.00000000000E+00 0. -1.
          1   -1    0    0  501    0  0.00000000000E+00 -0.00000000000E+00 -0.18522229264E+04  0.18522229264E+04  0.00000000000E+00 0. -1.
   -9000010    2    1    2    0  502 -0.20684713216E+03 -0.22142503390E+03 -0.12223395339E+04  0.16058604872E+04  0.99642319642E+03 0.  0.
        -13    1    1    2    0    0  0.21383732887E+03  0.19967243843E+03  0.11095067883E+04  0.11474322683E+04  0.10566000000E+00 0.  1.
         13    1    3    3    0    0 -0.18671983087E+03 -0.43779191066E+03 -0.13176865354E+03  0.49385123418E+03  0.10566000000E+00 0. -1.
          1    1    1    2  502    0 -0.69901967069E+01  0.21752595473E+02 -0.41884881616E+03  0.41947153546E+03  0.00000000000E+00 0. -1.
         -4    1    3    3    0  502 -0.20127301290E+02  0.21636687676E+03 -0.10905708804E+04  0.11120092530E+04  0.00000000000E+00 0. -1.
</event>
<event>
 7    1  0.4894942E-006  0.9242967E+03  0.7818608E-02  0.9108169E-01
          2   -1    0    0  501    0  0.00000000000E+00  0.00000000000E+00  0.11123592381E+04  0.11123592381E+04  0.00000000000E+00 0.  1.
         -4   -1    0    0    0  501 -0.00000000000E+00 -0.00000000000E+00 -0.23748712948E+04  0.23748712948E+04  0.00000000000E+00 0. -1.
   -9000010    2    1    2    0  502  0.13678744699E+03 -0.28468370774E+03 -0.15453346760E+04  0.17995075373E+04  0.86626352632E+03 0.  0.
        -13    1    1    2    0    0 -0.11819539651E+03  0.30218532696E+03 -0.66479800913E+03  0.73975842523E+03  0.10566000000E+00 0.  1.
         13    1    3    3    0    0  0.30952501846E+03 -0.56799170342E+02 -0.14706761405E+04  0.15039681526E+04  0.10566000000E+00 0. -1.
          2    1    1    2  502    0 -0.18592050470E+02 -0.17501619216E+02  0.94762062851E+03  0.94796457033E+03  0.00000000000E+00 0.  1.
         -4    1    3    3    0  502 -0.17273757147E+03 -0.22788453740E+03 -0.74658535492E+02  0.29553938469E+03  0.00000000000E+00 0. -1.
</event>
<event>
 7    1  0.4894942E-006  0.1287304E+04  0.7818608E-02  0.8639944E-01
         -4   -1    0    0    0  501 -0.00000000000E+00  0.00000000000E+00  0.21087614511E+04  0.21087614511E+04  0.00000000000E+00 0. -1.
          2   -1    0    0  501    0  0.00000000000E+00 -0.00000000000E+00 -0.13477998823E+04  0.13477998823E+04  0.00000000000E+00 0. -1.
   -9000010    2    1    2    0  502  0.10259401995E+04 -0.24725013472E+03  0.10223075118E+04  0.17640980337E+04  0.97634179562E+03 0.  0.
        -13    1    1    2    0    0 -0.68738917898E+03 -0.36350164790E+03  0.26120698904E+03  0.82028436149E+03  0.10566000000E+00 0.  1.
         13    1    3    3    0    0  0.61579356556E+03  0.34973361995E+03  0.43045997525E+03  0.82874068427E+03  0.10566000000E+00 0. -1.
          2    1    1    2  502    0 -0.33855102049E+03  0.61075178262E+03 -0.52255293201E+03  0.87217893817E+03  0.00000000000E+00 0. -1.
         -4    1    3    3    0  502  0.41014663391E+03 -0.59698375467E+03  0.59184753657E+03  0.93535734946E+03  0.00000000000E+00 0. -1.
</event>
<event>
 7    1  0.4894942E-006  0.1001096E+04  0.7818608E-02  0.9218720E-01
         -4   -1    0    0    0  501 -0.00000000000E+00  0.00000000000E+00  0.20010415957E+04  0.20010415957E+04  0.00000000000E+00 0. -1.
          2   -1    0    0  501    0  0.00000000000E+00 -0.00000000000E+00 -0.70929226295E+03  0.70929226295E+03  0.00000000000E+00 0. -1.
   -9000010    2    1    2    0  502  0.37694986320E+02 -0.16722567791E+03  0.13551143462E+04  0.16854575111E+04  0.98744457619E+03 0.  0.
        -13    1    1    2    0    0 -0.47294661043E+02  0.15727099999E+03  0.46663754224E+03  0.49469339939E+03  0.10566000000E+00 0.  1.
         13    1    3    3    0    0  0.12137954807E+02 -0.45067263254E+03  0.19544603074E+03  0.49137797444E+03  0.10566000000E+00 0. -1.
          2    1    1    2  502    0  0.95996747234E+01  0.99546779209E+01 -0.53000255575E+03  0.53018294812E+03  0.00000000000E+00 0. -1.
         -4    1    3    3    0  502  0.25557031513E+02  0.28344695463E+03  0.11596683155E+04  0.11940795367E+04  0.00000000000E+00 0. -1.
</event>
<event>
 7    1  0.4894942E-006  0.1061594E+04  0.7818608E-02  0.8990583E-01
          4   -1    0    0  501    0 -0.00000000000E+00  0.00000000000E+00  0.15252526251E+04  0.15252526251E+04  0.00000000000E+00 0.  1.
          2   -1    0    0  502    0  0.00000000000E+00 -0.00000000000E+00 -0.22220155561E+04  0.22220155561E+04  0.00000000000E+00 0. -1.
    9000010    2    1    2  502    0  0.58081296772E+01 -0.37806770449E+03  0.23253717081E+03  0.10990905473E+04  0.10054638590E+04 0.  0.
        -13    1    3    3    0    0 -0.15153971869E+03  0.32017540239E+03  0.31411573671E+02  0.35561674984E+03  0.10566000000E+00 0.  1.
         13    1    1    2    0    0  0.31983290763E+01  0.33774338985E+03  0.82600157516E+03  0.89238973550E+03  0.10566000000E+00 0. -1.
          2    1    1    2  501    0 -0.90064587535E+01  0.40324314641E+02 -0.17553016770E+04  0.17557878984E+04  0.00000000000E+00 0. -1.
          4    1    3    3  502    0  0.15734784837E+03 -0.69824310688E+03  0.20112559714E+03  0.74347379747E+03  0.00000000000E+00 0.  1.
</event>
<event>
 7    1  0.4894942E-006  0.1013685E+04  0.7818608E-02  0.9138838E-01
          2   -1    0    0  502    0  0.00000000000E+00  0.00000000000E+00  0.65289019142E+03  0.65289019142E+03  0.00000000000E+00 0.  1.
          4   -1    0    0  501    0 -0.00000000000E+00 -0.00000000000E+00 -0.13088016280E+04  0.13088016280E+04  0.00000000000E+00 0.  1.
    9000010    2    1    2  502    0 -0.19555617374E+03  0.12883046069E+03 -0.59633604972E+03  0.11794539484E+04  0.99028047926E+03 0.  0.
        -13    1    3    3    0    0  0.30463972307E+03 -0.56630738074E+02  0.78088417275E+02  0.31954688770E+03  0.10566000000E+00 0.  1.
         13    1    1    2    0    0  0.16016637973E+03 -0.14361608890E+03 -0.39224503726E+03  0.44736453884E+03  0.10566000000E+00 0. -1.
          2    1    1    2  501    0  0.35389794010E+02  0.14785628205E+02  0.33266965038E+03  0.33487333218E+03  0.00000000000E+00 0.  1.
          4    1    3    3  502    0 -0.50019589680E+03  0.18546119877E+03 -0.67442446700E+03  0.85990706074E+03  0.00000000000E+00 0.  1.
</event>
<event>
 7    1  0.4894942E-006  0.1070200E+04  0.7818608E-02  0.8972113E-01
         -4   -1    0    0    0  501 -0.00000000000E+00  0.00000000000E+00  0.67647756947E+03  0.67647756947E+03  0.00000000000E+00 0. -1.
          1   -1    0    0  501    0  0.00000000000E+00 -0.00000000000E+00 -0.10833381292E+04  0.10833381292E+04  0.00000000000E+00 0. -1.
   -9000010    2    1    2    0  502  0.13829557298E+03 -0.30830088243E+03 -0.56573074357E+03  0.12046223649E+04  0.10084089786E+04 0.  0.
        -13    1    1    2    0    0 -0.14760196870E+03  0.32889537154E+03  0.26453198507E+03  0.44714168769E+03  0.10566000000E+00 0.  1.
         13    1    3    3    0    0  0.50030036939E+03  0.10797861054E+03 -0.27663790256E+03  0.58179754231E+03  0.10566000000E+00 0. -1.
          1    1    1    2  502    0  0.93063957270E+01 -0.20594489107E+02 -0.10566180128E+03  0.10805164614E+03  0.00000000000E+00 0. -1.
         -4    1    3    3    0  502 -0.36200479641E+03 -0.41627949297E+03 -0.28909284101E+03  0.62282482257E+03  0.00000000000E+00 0. -1.
</event>
<event>
 7    1  0.4894942E-006  0.1167551E+04  0.7818608E-02  0.8880666E-01
          2   -1    0    0  502    0  0.00000000000E+00  0.00000000000E+00  0.60556124033E+03  0.60556124033E+03  0.00000000000E+00 0.  1.
          4   -1    0    0  501    0 -0.00000000000E+00 -0.00000000000E+00 -0.17576758595E+04  0.17576758595E+04  0.00000000000E+00 0.  1.
    9000010    2    1    2  502    0 -0.52124765647E+02  0.47167022491E+03 -0.10490682097E+04  0.15897235446E+04  0.10961236461E+04 0.  0.
        -13    1    3    3    0    0  0.17172292129E+02  0.25222688270E+03 -0.12554251519E+04  0.12806270382E+04  0.10566000000E+00 0.  1.
         13    1    1    2    0    0  0.15320868528E+03 -0.35135083151E+03 -0.32433127178E+03  0.50210665507E+03  0.10566000000E+00 0. -1.
          2    1    1    2  501    0 -0.10108391963E+03 -0.12031939340E+03  0.22128486222E+03  0.27140690021E+03  0.00000000000E+00 0.  1.
          4    1    3    3  502    0 -0.69297057776E+02  0.21944334221E+03  0.20635694220E+03  0.30909650637E+03  0.00000000000E+00 0.  1.
</event>
<event>
 7    1  0.4894942E-006  0.1088472E+04  0.7818608E-02  0.9015776E-01
          2   -1    0    0  502    0  0.00000000000E+00  0.00000000000E+00  0.54511432827E+03  0.54511432827E+03  0.00000000000E+00 0.  1.
          4   -1    0    0  501    0 -0.00000000000E+00 -0.00000000000E+00 -0.14856315922E+04  0.14856315922E+04  0.00000000000E+00 0.  1.
    9000010    2    1    2  502    0  0.13907970007E+03 -0.19130189560E+03 -0.72043898155E+03  0.12954877905E+04  0.10503888380E+04 0.  0.
        -13    1    3    3    0    0  0.12418649635E+03 -0.37258244794E+03  0.13930895335E+03  0.41670968555E+03  0.10566000000E+00 0.  1.
         13    1    1    2    0    0 -0.14124967216E+03  0.25717427038E+03 -0.42700097216E+03  0.51809257534E+03  0.10566000000E+00 0. -1.
          2    1    1    2  501    0  0.21699720864E+01 -0.65872374780E+02  0.20692268983E+03  0.21716555460E+03  0.00000000000E+00 0.  1.
          4    1    3    3  502    0  0.14893203726E+02  0.18128055234E+03 -0.85974793490E+03  0.87877810495E+03  0.00000000000E+00 0.  1.
</event>
<event>
 7    1  0.4894942E-006  0.1031053E+04  0.7818608E-02  0.9079838E-01
          2   -1    0    0  502    0  0.00000000000E+00  0.00000000000E+00  0.43448383727E+04  0.43448383727E+04  0.00000000000E+00 0. -1.
          4   -1    0    0  501    0 -0.00000000000E+00 -0.00000000000E+00 -0.27457412246E+04  0.27457412246E+04  0.00000000000E+00 0.  1.
    9000010    2    1    2  502    0 -0.91165658620E+01  0.22371864091E+03 -0.23407080490E+04  0.25543306238E+04  0.99777633916E+03 0.  0.
        -13    1    3    3    0    0  0.32851608844E+03  0.41525358925E+03 -0.75737217731E+03  0.92410550798E+03  0.10566000000E+00 0.  1.
         13    1    1    2    0    0  0.48948803159E+02 -0.27905859428E+03 -0.23059002480E+03  0.36529639346E+03  0.10566000000E+00 0. -1.
          2    1    1    2  501    0 -0.39832237297E+02  0.55339953373E+02  0.41703952219E+04  0.41709525800E+04  0.00000000000E+00 0. -1.
          4    1    3    3  502    0 -0.33763265430E+03 -0.19153494834E+03 -0.15833358717E+04  0.16302251159E+04  0.00000000000E+00 0.  1.
</event>
<event>
 7    1  0.4894942E-006  0.1268833E+04  0.7818608E-02  0.8665379E-01
          2   -1    0    0  502    0  0.00000000000E+00  0.00000000000E+00  0.86715368997E+03  0.86715368997E+03  0.00000000000E+00 0.  1.
          4   -1    0    0  501    0 -0.00000000000E+00 -0.00000000000E+00 -0.21245996704E+04  0.21245996704E+04  0.00000000000E+00 0.  1.
    9000010    2    1    2  502    0 -0.59305911423E+02 -0.78655843352E+03 -0.80746839909E+03  0.15065687122E+04  0.99777387649E+03 0.  0.
        -13    1    3    3    0    0 -0.18520739902E+03 -0.46674922018E+03 -0.99536790162E+03  0.11148604782E+04  0.10566000000E+00 0.  1.
         13    1    1    2    0    0  0.48568630900E+02  0.78009515837E+03 -0.80961018656E+03  0.11253337431E+04  0.10566000000E+00 0. -1.
          2    1    1    2  501    0  0.10737280522E+02  0.64632751530E+01  0.35963260523E+03  0.35985090505E+03  0.00000000000E+00 0.  1.
          4    1    3    3  502    0  0.12590148760E+03 -0.31980921334E+03  0.18789950253E+03  0.39170823398E+03  0.00000000000E+00 0.  1.
</event>
<event>
 7    1  0.4894942E-006  0.1041452E+04  0.7818608E-02  0.9082309E-01
          2   -1    0    0  501    0  0.00000000000E+00  0.00000000000E+00  0.20457203863E+03  0.20457203863E+03  0.00000000000E+00 0.  1.
         -4   -1    0    0    0  501 -0.00000000000E+00 -0.00000000000E+00 -0.43852536549E+04  0.43852536549E+04  0.00000000000E+00 0. -1.
   -9000010    2    1    2    0  502  0.15383470929E+03  0.18853440994E+03 -0.32683620703E+04  0.34298237585E+04  0.10110836020E+04 0.  0.
        -13    1    1    2    0    0 -0.16757325641E+03 -0.18673083456E+03 -0.10205243709E+04  0.10509135091E+04  0.10566000000E+00 0.  1.
         13    1    3    3    0    0 -0.16889971129E+02  0.58080287905E+03 -0.14561111140E+04  0.15677617303E+04  0.10566000000E+00 0. -1.
          2    1    1    2  502    0  0.13738547126E+02 -0.18035753751E+01  0.10820482486E+03  0.10908842599E+03  0.00000000000E+00 0.  1.
         -4    1    3    3    0  502  0.17072468042E+03 -0.39226846911E+03 -0.18122509563E+04  0.18620620282E+04  0.00000000000E+00 0. -1.
</event>
<event>
 7    1  0.4894942E-006  0.1042849E+04  0.7818608E-02  0.9061211E-01
          1   -1    0    0  501    0  0.00000000000E+00  0.00000000000E+00  0.26653111098E+04  0.26653111098E+04  0.00000000000E+00 0.  1.
         -4   -1    0    0    0  501 -0.00000000000E+00 -0.00000000000E+00 -0.15706400676E+04  0.15706400676E+04  0.00000000000E+00 0. -1.
   -9000010    2    1    2    0  502  0.15468661666E+03 -0.26892982767E+03  0.18613101062E+03  0.10701785853E+04  0.10071674388E+04 0.  0.
        -13    1    1    2    0    0 -0.10481623789E+03  0.24827663613E+03 -0.11121629511E+04  0.11443487985E+04  0.10566000000E+00 0.  1.
         13    1    3    3    0    0 -0.16408189700E+03  0.36224288068E+02  0.50076999378E+03  0.52820986909E+03  0.10566000000E+00 0. -1.
          1    1    1    2  502    0 -0.49870378766E+02  0.20653191541E+02  0.20207029827E+04  0.20214237936E+04  0.00000000000E+00 0.  1.
         -4    1    3    3    0  502  0.31876851365E+03 -0.30515411574E+03 -0.31463898316E+03  0.54196871623E+03  0.00000000000E+00 0. -1.
</event>
<event>
 7    1  0.4894942E-006  0.1005733E+04  0.7818608E-02  0.9034879E-01
          2   -1    0    0  501    0  0.00000000000E+00  0.00000000000E+00  0.75249111915E+03  0.75249111915E+03  0.00000000000E+00 0. -1.
         -4   -1    0    0    0  501 -0.00000000000E+00 -0.00000000000E+00 -0.95715088244E+03  0.95715088244E+03  0.00000000000E+00 0. -1.
   -9000010    2    1    2    0  502  0.33668128097E+03 -0.10588983665E+03 -0.16427899786E+03  0.10250891519E+04  0.94828963807E+03 0.  0.
        -13    1    1    2    0    0 -0.31491758068E+03  0.10471992306E+03 -0.28591766131E+03  0.43805052805E+03  0.10566000000E+00 0.  1.
         13    1    3    3    0    0  0.55756269395E+02  0.29455798360E+03 -0.38540338418E+03  0.48827138661E+03  0.10566000000E+00 0. -1.
          2    1    1    2  502    0 -0.21763700285E+02  0.11699135888E+01  0.24553689588E+03  0.24650232167E+03  0.00000000000E+00 0. -1.
         -4    1    3    3    0  502  0.28092501157E+03 -0.40044782025E+03  0.22112438633E+03  0.53681776526E+03  0.00000000000E+00 0. -1.
</event>
<event>
 7    1  0.4894942E-006  0.1115404E+04  0.7818608E-02  0.8862874E-01
          2   -1    0    0  501    0  0.00000000000E+00  0.00000000000E+00  0.23943845565E+04  0.23943845565E+04  0.00000000000E+00 0.  1.
         -4   -1    0    0    0  501 -0.00000000000E+00 -0.00000000000E+00 -0.97915674229E+03  0.97915674229E+03  0.00000000000E+00 0. -1.
   -9000010    2    1    2    0  502 -0.49889001266E+03 -0.19132584665E+02  0.12012666760E+04  0.16400453056E+04  0.99872402450E+03 0.  0.
        -13    1    1    2    0    0  0.49653015262E+03 -0.40648574356E+01 -0.67846921198E+03  0.84076108277E+03  0.10566000000E+00 0.  1.
         13    1    3    3    0    0 -0.58823792198E+03  0.49460177068E+02  0.13382700700E+04  0.14626814258E+04  0.10566000000E+00 0. -1.
          2    1    1    2  502    0  0.23598600388E+01  0.23197442100E+02  0.89243035022E+03  0.89273491040E+03  0.00000000000E+00 0.  1.
         -4    1    3    3    0  502  0.89347909313E+02 -0.68592761733E+02 -0.13700339407E+03  0.17736387977E+03  0.00000000000E+00 0. -1.
</event>
<event>
 7    1  0.4894942E-006  0.1187033E+04  0.7818608E-02  0.9126426E-01
          2   -1    0    0  502    0  0.00000000000E+00  0.00000000000E+00  0.15048227075E+04  0.15048227075E+04  0.00000000000E+00 0.  1.
          4   -1    0    0  501    0 -0.00000000000E+00 -0.00000000000E+00 -0.18038221775E+04  0.18038221775E+04  0.00000000000E+00 0.  1.
    9000010    2    1    2  502    0  0.43347731937E+03  0.38049164159E+03 -0.11994863039E+04  0.16608249611E+04  0.99342623399E+03 0.  0.
        -13    1    3    3    0    0  0.35398533867E+03 -0.27639570085E+03 -0.70041884823E+03  0.83203772605E+03  0.10566000000E+00 0.  1.
         13    1    1    2    0    0 -0.33292190564E+02  0.13764550248E+03 -0.27102133124E+03  0.30578951495E+03  0.10566000000E+00 0. -1.
          2    1    1    2  501    0 -0.40018512881E+03 -0.51813714406E+03  0.11715081651E+04  0.13420304089E+04  0.00000000000E+00 0.  1.
          4    1    3    3  502    0  0.79491980702E+02  0.65688734244E+03 -0.49906745567E+03  0.82878723504E+03  0.00000000000E+00 0.  1.
</event>
<event>
 7    1  0.4894942E-006  0.1032818E+04  0.7818608E-02  0.9441203E-01
          2   -1    0    0  502    0  0.00000000000E+00  0.00000000000E+00  0.52345487620E+03  0.52345487620E+03  0.00000000000E+00 0. -1.
          4   -1    0    0  501    0 -0.00000000000E+00 -0.00000000000E+00 -0.95023133143E+03  0.95023133143E+03  0.00000000000E+00 0.  1.
    9000010    2    1    2  502    0 -0.13071835510E+03  0.12346820759E+03 -0.49596922345E+03  0.11412140483E+04  0.10119547158E+04 0.  0.
        -13    1    3    3    0    0 -0.40367803410E+02 -0.26959899119E+03  0.19912408510E+03  0.33758493455E+03  0.10566000000E+00 0.  1.
         13    1    1    2    0    0  0.25150516791E+02  0.59840192847E+02  0.99476900179E+02  0.11878157268E+03  0.10566000000E+00 0. -1.
          2    1    1    2  501    0  0.10556783831E+03 -0.18330840044E+03 -0.30284131951E+02  0.21369058661E+03  0.00000000000E+00 0. -1.
          4    1    3    3  502    0 -0.90350551693E+02  0.39306719878E+03 -0.69509330855E+03  0.80362911380E+03  0.00000000000E+00 0.  1.
</event>
<event>
 7    1  0.4894942E-006  0.1315201E+04  0.7818608E-02  0.8625504E-01
          2   -1    0    0  502    0  0.00000000000E+00  0.00000000000E+00  0.20324646310E+04  0.20324646310E+04  0.00000000000E+00 0.  1.
          4   -1    0    0  501    0 -0.00000000000E+00 -0.00000000000E+00 -0.22083885366E+04  0.22083885366E+04  0.00000000000E+00 0.  1.
    9000010    2    1    2  502    0 -0.75693426303E+03 -0.61346048657E+03 -0.25752668760E+03  0.14291813481E+04  0.10133884170E+04 0.  0.
        -13    1    3    3    0    0 -0.26985509042E+03 -0.46109637314E+02  0.36496574273E+03  0.45623225775E+03  0.10566000000E+00 0.  1.
         13    1    1    2    0    0  0.22652207721E+03  0.80902396920E+03 -0.11687978897E+04  0.14394167403E+04  0.10566000000E+00 0. -1.
          2    1    1    2  501    0  0.53041218582E+03 -0.19556348263E+03  0.12504006717E+04  0.13722550792E+04  0.00000000000E+00 0.  1.
          4    1    3    3  502    0 -0.48707917261E+03 -0.56735084926E+03 -0.62249243033E+03  0.97294909032E+03  0.00000000000E+00 0.  1.
</event>
<event>
 7    1  0.4894942E-006  0.1072946E+04  0.7818608E-02  0.8968248E-01
         -4   -1    0    0    0  501 -0.00000000000E+00  0.00000000000E+00  0.34467073868E+04  0.34467073868E+04  0.00000000000E+00 0. -1.
          4   -1    0    0  501    0  0.00000000000E+00 -0.00000000000E+00 -0.33827798765E+03  0.33827798765E+03  0.00000000000E+00 0. -1.
   -9000010    2    1    2    0  502  0.36517192408E+01  0.28076881584E+03  0.96071527960E+03  0.14221481019E+04  0.10102905089E+04 0.  0.
        -13    1    1    2    0    0 -0.42341679679E+02 -0.36417448256E+03  0.22173781905E+04  0.22474834643E+04  0.10566000000E+00 0.  1.
         13    1    3    3    0    0  0.38960444241E+03  0.45180393392E+03  0.39189986439E+03  0.71379544067E+03  0.10566000000E+00 0. -1.
          4    1    1    2  502    0  0.38689960438E+02  0.83405666711E+02 -0.69664070952E+02  0.11535380817E+03  0.00000000000E+00 0. -1.
         -4    1    3    3    0  502 -0.38595272317E+03 -0.17103511808E+03  0.56881541521E+03  0.70835266126E+03  0.00000000000E+00 0. -1.
</event>
<event>
 7    1  0.4894942E-006  0.1038637E+04  0.7818608E-02  0.9070466E-01
          2   -1    0    0  502    0  0.00000000000E+00  0.00000000000E+00  0.14492448736E+04  0.14492448736E+04  0.00000000000E+00 0. -1.
          4   -1    0    0  501    0 -0.00000000000E+00 -0.00000000000E+00 -0.13751611153E+04  0.13751611153E+04  0.00000000000E+00 0.  1.
    9000010    2    1    2  502    0  0.18079122761E+03  0.14206964669E+03  0.13798732620E+03  0.10397425259E+04  0.10045669543E+04 0.  0.
        -13    1    3    3    0    0  0.46707194576E+03 -0.23114925438E+03  0.21381869774E+03  0.56329799128E+03  0.10566000000E+00 0.  1.
         13    1    1    2    0    0 -0.24565799734E+03 -0.99969942408E+02 -0.90344381755E+03  0.94156921343E+03  0.10566000000E+00 0. -1.
          2    1    1    2  501    0  0.64866769734E+02 -0.42099704286E+02  0.83954024963E+03  0.84309424957E+03  0.00000000000E+00 0. -1.
          4    1    3    3  502    0 -0.28628071815E+03  0.37321890107E+03 -0.75831371545E+02  0.47644453467E+03  0.00000000000E+00 0.  1.
</event>
<event>
 7    1  0.4894942E-006  0.1276155E+04  0.7818608E-02  0.8811499E-01
          2   -1    0    0  502    0  0.00000000000E+00  0.00000000000E+00  0.61057964884E+03  0.61057964884E+03  0.00000000000E+00 0. -1.
          4   -1    0    0  501    0 -0.00000000000E+00 -0.00000000000E+00 -0.26681627794E+04  0.26681627794E+04  0.00000000000E+00 0.  1.
    9000010    2    1    2  502    0 -0.41504477130E+03 -0.19996413471E+02 -0.14745003404E+04  0.19509195761E+04  0.12080041058E+04 0.  0.
        -13    1    3    3    0    0  0.36842885738E+03 -0.60444126038E+02 -0.13200268680E+03  0.39600257046E+03  0.10566000000E+00 0.  1.
         13    1    1    2    0    0  0.40880703974E+03  0.40278061804E+02 -0.91094070768E+03  0.99927899111E+03  0.10566000000E+00 0. -1.
          2    1    1    2  501    0  0.62377315552E+01 -0.20281648333E+02  0.32785791754E+03  0.32854386108E+03  0.00000000000E+00 0. -1.
          4    1    3    3  502    0 -0.78347362868E+03  0.40447712567E+02 -0.13424976536E+04  0.15549170056E+04  0.00000000000E+00 0.  1.
</event>
<event>
 7    1  0.4894942E-006  0.1229560E+04  0.7818608E-02  0.8707925E-01
          2   -1    0    0  501    0  0.00000000000E+00  0.00000000000E+00  0.71045304707E+03  0.71045304707E+03  0.00000000000E+00 0.  1.
         -4   -1    0    0    0  501 -0.00000000000E+00 -0.00000000000E+00 -0.18230084859E+04  0.18230084859E+04  0.00000000000E+00 0. -1.
   -9000010    2    1    2    0  502  0.28084131092E+03 -0.68085694892E+03 -0.10004732879E+04  0.15945280399E+04  0.99956732816E+03 0.  0.
        -13    1    1    2    0    0 -0.31124103580E+03  0.61483301874E+03  0.11665333531E+03  0.69892677377E+03  0.10566000000E+00 0.  1.
         13    1    3    3    0    0  0.32917108833E+03 -0.64468417456E+03 -0.11915240845E+04  0.13941667566E+04  0.10566000000E+00 0. -1.
          2    1    1    2  502    0  0.30399724875E+02  0.66023930183E+02 -0.22873548625E+03  0.24000671928E+03  0.00000000000E+00 0.  1.
         -4    1    3    3    0  502 -0.48329777413E+02 -0.36172774362E+02  0.19105079654E+03  0.20036128331E+03  0.00000000000E+00 0. -1.
</event>
<event>
 7    1  0.4894942E-006  0.9425804E+03  0.7818608E-02  0.9381867E-01
          4   -1    0    0  501    0 -0.00000000000E+00  0.00000000000E+00  0.13370392979E+04  0.13370392979E+04  0.00000000000E+00 0.  1.
          2   -1    0    0  502    0  0.00000000000E+00 -0.00000000000E+00 -0.15367488276E+04  0.15367488276E+04  0.00000000000E+00 0.  1.
    9000010    2    1    2  502    0  0.69192755944E+01 -0.10861773214E+03  0.41111178030E+03  0.10285927768E+04  0.93655993743E+03 0.  0.
        -13    1    3    3    0    0  0.31105152455E+03  0.27614822585E+03  0.48735242988E+02  0.41879115158E+03  0.10566000000E+00 0.  1.
         13    1    1    2    0    0 -0.30382420760E+02  0.10193635219E+03  0.61248155920E+03  0.62164924428E+03  0.10566000000E+00 0. -1.
          2    1    1    2  501    0  0.23463145165E+02  0.66813799530E+01 -0.12233028692E+04  0.12235461045E+04  0.00000000000E+00 0.  1.
          4    1    3    3  502    0 -0.30413224896E+03 -0.38476595799E+03  0.36237653731E+03  0.60980162519E+03  0.00000000000E+00 0.  1.
</event>
<event>
 7    1  0.4894942E-006  0.1054934E+04  0.7818608E-02  0.9006248E-01
         -4   -1    0    0    0  502 -0.00000000000E+00  0.00000000000E+00  0.29568251834E+04  0.29568251834E+04  0.00000000000E+00 0. -1.
         -2   -1    0    0    0  501  0.00000000000E+00 -0.00000000000E+00 -0.27292623818E+03  0.27292623818E+03  0.00000000000E+00 0.  1.
   -9000010    2    1    2    0  501 -0.12103439153E+03 -0.29643238147E+03  0.24841262058E+04  0.26981756551E+04  0.10033680176E+04 0.  0.
        -13    1    1    2    0    0  0.10010548855E+03  0.31458670823E+03  0.28862188671E+03  0.43850713846E+03  0.10566000000E+00 0.  1.
         13    1    3    3    0    0 -0.35110939056E+03 -0.15440732421E+03  0.27352394364E+03  0.47109954874E+03  0.10566000000E+00 0. -1.
         -2    1    1    2    0  502  0.20928902980E+02 -0.18154326761E+02 -0.88849147247E+02  0.93068628047E+02  0.00000000000E+00 0.  1.
         -4    1    3    3    0  501  0.23007499904E+03 -0.14202505726E+03  0.22106022621E+04  0.22270761063E+04  0.00000000000E+00 0. -1.
</event>
<event>
 7    1  0.4894942E-006  0.1022220E+04  0.7818608E-02  0.9178228E-01
         -4   -1    0    0    0  501 -0.00000000000E+00  0.00000000000E+00  0.15886534765E+04  0.15886534765E+04  0.00000000000E+00 0. -1.
          2   -1    0    0  501    0  0.00000000000E+00 -0.00000000000E+00 -0.10081345074E+04  0.10081345074E+04  0.00000000000E+00 0.  1.
   -9000010    2    1    2    0  502  0.74402332606E+02  0.12921884321E+03  0.11669605146E+04  0.15479612381E+04  0.10060586143E+04 0.  0.
        -13    1    1    2    0    0 -0.12961776594E+03 -0.13649079920E+03  0.19171900992E+03  0.26867581477E+03  0.10566000000E+00 0.  1.
         13    1    3    3    0    0  0.44617356944E+03 -0.16920293958E+03  0.85218468676E+03  0.97668789300E+03  0.10566000000E+00 0. -1.
          2    1    1    2  502    0  0.55215433335E+02  0.72719559859E+01 -0.77816055536E+03  0.78015093113E+03  0.00000000000E+00 0.  1.
         -4    1    3    3    0  502 -0.37177123683E+03  0.29842178279E+03  0.31477582782E+03  0.57127334505E+03  0.00000000000E+00 0. -1.
</event>
<event>
 7    1  0.4894942E-006  0.1250154E+04  0.7818608E-02  0.8688822E-01
         -4   -1    0    0    0  501 -0.00000000000E+00  0.00000000000E+00  0.23635643322E+04  0.23635643322E+04  0.00000000000E+00 0. -1.
          1   -1    0    0  501    0  0.00000000000E+00 -0.00000000000E+00 -0.18184423659E+04  0.18184423659E+04  0.00000000000E+00 0.  1.
   -9000010    2    1    2    0  502  0.63967064812E+03 -0.11202921521E+03  0.55886490877E+03  0.13226392052E+04  0.10076286011E+04 0.  0.
        -13    1    1    2    0    0 -0.74838049000E+03 -0.22774448141E+03  0.12894740169E+04  0.15082056086E+04  0.10566000000E+00 0.  1.
         13    1    3    3    0    0  0.38375184907E+03 -0.49496907294E+03  0.59074605196E+03  0.86095340983E+03  0.10566000000E+00 0. -1.
          1    1    1    2  502    0  0.10870984188E+03  0.33977369662E+03 -0.13032169593E+04  0.13511618843E+04  0.00000000000E+00 0.  1.
         -4    1    3    3    0  502  0.25591879904E+03  0.38293985773E+03 -0.31881143187E+02  0.46168579536E+03  0.00000000000E+00 0. -1.
</event>
<event>
 7    1  0.4894942E-006  0.9553508E+03  0.7818608E-02  0.9324210E-01
          2   -1    0    0  501    0  0.00000000000E+00  0.00000000000E+00  0.20022279786E+04  0.20022279786E+04  0.00000000000E+00 0.  1.
         -4   -1    0    0    0  501 -0.00000000000E+00 -0.00000000000E+00 -0.36534142925E+03  0.36534142925E+03  0.00000000000E+00 0. -1.
   -9000010    2    1    2    0  502 -0.15087007507E+03  0.48919320442E+02  0.33783830664E+03  0.10177969824E+04  0.94690078496E+03 0.  0.
        -13    1    1    2    0    0  0.11669051404E+03  0.47751372577E+02  0.14910506415E+03  0.19526699918E+03  0.10566000000E+00 0.  1.
         13    1    3    3    0    0  0.10289697402E+03 -0.14984169197E+03  0.58436988392E+03  0.61198733019E+03  0.10566000000E+00 0. -1.
          2    1    1    2  502    0  0.34179561034E+02 -0.96670693018E+02  0.11499431786E+04  0.11545054262E+04  0.00000000000E+00 0.  1.
         -4    1    3    3    0  502 -0.25376704909E+03  0.19876101241E+03 -0.24653157728E+03  0.40580965225E+03  0.00000000000E+00 0. -1.
</event>
<event>
 7    1  0.4894942E-006  0.1505009E+04  0.7818608E-02  0.8469769E-01
         -4   -1    0    0    0  501 -0.00000000000E+00  0.00000000000E+00  0.12291722404E+04  0.12291722404E+04  0.00000000000E+00 0. -1.
          2   -1    0    0  501    0  0.00000000000E+00 -0.00000000000E+00 -0.19767815303E+04  0.19767815303E+04  0.00000000000E+00 0.  1.
   -9000010    2    1    2    0  502  0.10740449382E+04  0.31879238562E+03 -0.48189207607E+03  0.15766616013E+04  0.99922005475E+03 0.  0.
        -13    1    1    2    0    0 -0.10729960616E+04 -0.34744933459E+03  0.21463089728E+03  0.11480888562E+04  0.10566000000E+00 0.  1.
         13    1    3    3    0    0  0.10952712854E+04  0.13937461959E+03 -0.46284038754E+02  0.11050731634E+04  0.10566000000E+00 0. -1.
          2    1    1    2  502    0 -0.10488765202E+01  0.28656948978E+02 -0.48034811109E+03  0.48120331327E+03  0.00000000000E+00 0.  1.
         -4    1    3    3    0  502 -0.21226347206E+02  0.17941776603E+03 -0.43560803732E+03  0.47158843790E+03  0.00000000000E+00 0. -1.
</event>
<event>
 7    1  0.4894942E-006  0.1024954E+04  0.7818608E-02  0.9048715E-01
          4   -1    0    0  501    0 -0.00000000000E+00  0.00000000000E+00  0.81276311873E+03  0.81276311873E+03  0.00000000000E+00 0.  1.
          2   -1    0    0  502    0  0.00000000000E+00 -0.00000000000E+00 -0.11506277215E+04  0.11506277215E+04  0.00000000000E+00 0.  1.
    9000010    2    1    2  502    0  0.24853934919E+03 -0.10438446039E+03 -0.39963127126E+03  0.10923499556E+04  0.98023229334E+03 0.  0.
        -13    1    3    3    0    0  0.61481857353E+02  0.43617625270E+03 -0.12533404497E+03  0.45797202556E+03  0.10566000000E+00 0.  1.
         13    1    1    2    0    0 -0.30286896842E+03 -0.32884640534E+01  0.40586147652E+03  0.50642272393E+03  0.10566000000E+00 0. -1.
          2    1    1    2  501    0  0.54329619230E+02  0.10767292444E+03 -0.34409480804E+03  0.36461816069E+03  0.00000000000E+00 0.  1.
          4    1    3    3  502    0  0.18705749183E+03 -0.54056071309E+03 -0.27429722628E+03  0.63437793005E+03  0.00000000000E+00 0.  1.
</event>
<event>
 7    1  0.4894942E-006  0.9945566E+03  0.7818608E-02  0.9425049E-01
          4   -1    0    0  501    0 -0.00000000000E+00  0.00000000000E+00  0.11059848050E+04  0.11059848050E+04  0.00000000000E+00 0.  1.
          2   -1    0    0  502    0  0.00000000000E+00 -0.00000000000E+00 -0.89235013378E+03  0.89235013378E+03  0.00000000000E+00 0.  1.
    9000010    2    1    2  502    0 -0.56099160297E+02  0.16101118109E+02  0.85435274491E+03  0.13101585083E+04  0.99155955059E+03 0.  0.
        -13    1    3    3    0    0 -0.27566036753E+02 -0.31515735373E+03  0.91857591604E+03  0.97152754397E+03  0.10566000000E+00 0.  1.
         13    1    1    2    0    0  0.84110613050E+02  0.16491844112E+01 -0.52799368802E+02  0.99323207494E+02  0.10566000000E+00 0. -1.
          2    1    1    2  501    0 -0.28011452754E+02 -0.17750302521E+02 -0.58791870486E+03  0.58885322301E+03  0.00000000000E+00 0.  1.
          4    1    3    3  502    0 -0.28533123544E+02  0.33125847184E+03 -0.64223171126E+02  0.33863096434E+03  0.00000000000E+00 0.  1.
</event>
<event>
 7    1  0.4894942E-006  0.1156333E+04  0.7818608E-02  0.8792042E-01
          4   -1    0    0  501    0 -0.00000000000E+00  0.00000000000E+00  0.34538956902E+03  0.34538956902E+03  0.00000000000E+00 0.  1.
          2   -1    0    0  502    0  0.00000000000E+00 -0.00000000000E+00 -0.24620961074E+04  0.24620961074E+04  0.00000000000E+00 0.  1.
    9000010    2    1    2  502    0 -0.12900835058E+03 -0.57644228966E+03 -0.15173293293E+04  0.19046429704E+04  0.98815367382E+03 0.  0.
        -13    1    3    3    0    0 -0.40882624351E+03 -0.53158681892E+03 -0.46812736979E+03  0.81784270428E+03  0.10566000000E+00 0.  1.
         13    1    1    2    0    0  0.12920303370E+03  0.59003594683E+03 -0.45092678312E+03  0.75377106429E+03  0.10566000000E+00 0. -1.
          2    1    1    2  501    0 -0.19468312299E+00 -0.13593657173E+02 -0.14845042592E+03  0.14907164175E+03  0.00000000000E+00 0.  1.
          4    1    3    3  502    0  0.27981789293E+03 -0.44855470735E+02 -0.10492019595E+04  0.10868002661E+04  0.00000000000E+00 0.  1.
</event>
<event>
 7    1  0.4894942E-006  0.1278798E+04  0.7818608E-02  0.8652110E-01
          2   -1    0    0  501    0  0.00000000000E+00  0.00000000000E+00  0.32894785573E+04  0.32894785573E+04  0.00000000000E+00 0.  1.
         -4   -1    0    0    0  501 -0.00000000000E+00 -0.00000000000E+00 -0.18187093853E+04  0.18187093853E+04  0.00000000000E+00 0. -1.
   -9000010    2    1    2    0  502  0.48331126764E+03 -0.30660064166E+03 -0.46817428625E+03  0.12344120208E+04  0.98842912739E+03 0.  0.
        -13    1    1    2    0    0 -0.13177916698E+04 -0.46930728414E+03 -0.23579791207E+03  0.14185996188E+04  0.10566000000E+00 0.  1.
         13    1    3    3    0    0  0.20311934068E+03 -0.41487778845E+03 -0.71118563365E+03  0.84803659272E+03  0.10566000000E+00 0. -1.
          2    1    1    2  502    0  0.83448040216E+03  0.77590792579E+03  0.21747413703E+04  0.24551763030E+04  0.00000000000E+00 0.  1.
         -4    1    3    3    0  502  0.28019192695E+03  0.10827714680E+03  0.24301134741E+03  0.38637542807E+03  0.00000000000E+00 0. -1.
</event>
<event>
 7    1  0.4894942E-006  0.1130243E+04  0.7818608E-02  0.8846678E-01
          4   -1    0    0  501    0 -0.00000000000E+00  0.00000000000E+00  0.18413882989E+04  0.18413882989E+04  0.00000000000E+00 0.  1.
          2   -1    0    0  502    0  0.00000000000E+00 -0.00000000000E+00 -0.58538646503E+03  0.58538646503E+03  0.00000000000E+00 0. -1.
    9000010    2    1    2  502    0 -0.43940292731E+03 -0.78983072343E+02  0.73144122592E+03  0.13231922498E+04  0.10082252748E+04 0.  0.
        -13    1    3    3    0    0 -0.69189903857E+03  0.20521121697E+03  0.45497124492E+03  0.85313232737E+03  0.10566000000E+00 0.  1.
         13    1    1    2    0    0  0.53148554926E+03  0.71256837163E+01  0.70848280289E+03  0.88570624792E+03  0.10566000000E+00 0. -1.
          2    1    1    2  501    0 -0.92082621942E+02  0.71857388627E+02 -0.18392219497E+03  0.21787626618E+03  0.00000000000E+00 0. -1.
          4    1    3    3  502    0  0.25249611126E+03 -0.28419428931E+03  0.27646998100E+03  0.47005992243E+03  0.00000000000E+00 0.  1.
</event>
<event>
 7    1  0.4894942E-006  0.9006524E+03  0.7818608E-02  0.9145728E-01
         -4   -1    0    0    0  501 -0.00000000000E+00  0.00000000000E+00  0.31472721613E+03  0.31472721613E+03  0.00000000000E+00 0. -1.
          2   -1    0    0  501    0  0.00000000000E+00 -0.00000000000E+00 -0.34620210867E+04  0.34620210867E+04  0.00000000000E+00 0. -1.
   -9000010    2    1    2    0  502  0.37042677608E+03  0.36360257954E+03 -0.26263093912E+04  0.27987225214E+04  0.81604160518E+03 0.  0.
        -13    1    1    2    0    0 -0.42652450422E+02 -0.29749371599E+03  0.61149797639E+02  0.30669374218E+03  0.10566000000E+00 0.  1.
         13    1    3    3    0    0  0.45970905217E+03  0.21671308290E+03 -0.25670854507E+04  0.26169112892E+04  0.10566000000E+00 0. -1.
          2    1    1    2  502    0 -0.32777432566E+03 -0.66108863553E+02 -0.58213427700E+03  0.67133203920E+03  0.00000000000E+00 0. -1.
         -4    1    3    3    0  502 -0.89282276086E+02  0.14688949664E+03 -0.59223940467E+02  0.18181123225E+03  0.00000000000E+00 0. -1.
</event>
<event>
 7    1  0.4894942E-006  0.1048122E+04  0.7818608E-02  0.9042310E-01
          2   -1    0    0  502    0  0.00000000000E+00  0.00000000000E+00  0.60161053273E+03  0.60161053273E+03  0.00000000000E+00 0. -1.
          4   -1    0    0  501    0 -0.00000000000E+00 -0.00000000000E+00 -0.18556456573E+04  0.18556456573E+04  0.00000000000E+00 0.  1.
    9000010    2    1    2  502    0 -0.33588534633E+03  0.21531762783E+03 -0.11852938703E+04  0.16018621191E+04  0.10009295894E+04 0.  0.
        -13    1    3    3    0    0 -0.56838888034E+03  0.29577404945E+03 -0.11946739396E+04  0.13556526254E+04  0.10566000000E+00 0.  1.
         13    1    1    2    0    0  0.31601833856E+02 -0.28556964028E+03 -0.33760485155E+03  0.44331224019E+03  0.10566000000E+00 0. -1.
          2    1    1    2  501    0  0.30428351248E+03  0.70252012451E+02  0.26886359730E+03  0.41208183068E+03  0.00000000000E+00 0. -1.
          4    1    3    3  502    0  0.23250353401E+03 -0.80456421623E+02  0.93800693018E+01  0.24620949374E+03  0.00000000000E+00 0.  1.
</event>
<event>
 7    1  0.4894942E-006  0.1263153E+04  0.7818608E-02  0.8670819E-01
         -4   -1    0    0    0  501 -0.00000000000E+00  0.00000000000E+00  0.19778594453E+04  0.19778594453E+04  0.00000000000E+00 0. -1.
          1   -1    0    0  501    0  0.00000000000E+00 -0.00000000000E+00 -0.92979175785E+03  0.92979175785E+03  0.00000000000E+00 0. -1.
   -9000010    2    1    2    0  502  0.92851458666E+03  0.32917254094E+03  0.72375129473E+02  0.14033541485E+04  0.99683038051E+03 0.  0.
        -13    1    1    2    0    0 -0.64526377998E+03 -0.35958280485E+03  0.97014670849E+03  0.12193645011E+04  0.10566000000E+00 0.  1.
         13    1    3    3    0    0  0.45423979212E+03 -0.23926710500E+03 -0.27852904936E+03  0.58408987218E+03  0.10566000000E+00 0. -1.
          1    1    1    2  502    0 -0.28325080668E+03  0.30410263916E+02  0.55458495126E+01  0.28493255357E+03  0.00000000000E+00 0. -1.
         -4    1    3    3    0  502  0.47427479453E+03  0.56843964594E+03  0.35090417883E+03  0.81926427636E+03  0.00000000000E+00 0. -1.
</event>
<event>
 6    1  0.4894942E-006  0.1579296E+04  0.7818608E-02  0.8691552E-01
          2   -1    0    0  502    0  0.00000000000E+00  0.00000000000E+00  0.66034268747E+03  0.66034268747E+03  0.00000000000E+00 0.  1.
          4   -1    0    0  501    0 -0.00000000000E+00 -0.00000000000E+00 -0.22073754646E+04  0.22073754646E+04  0.00000000000E+00 0.  1.
        -13    1    1    2    0    0 -0.14165827731E+02  0.14937344041E+03  0.40796347400E+03  0.43468069045E+03  0.10566000000E+00 0.  1.
         13    1    1    2    0    0  0.30076461168E+03 -0.20414501654E+03 -0.73358533792E+03  0.81870751712E+03  0.10566000000E+00 0. -1.
          2    1    1    2  501    0 -0.16941481968E+02 -0.92785996635E+01  0.18240016611E+03  0.18342008293E+03  0.00000000000E+00 0.  1.
          4    1    1    2  502    0 -0.26965730198E+03  0.64050175793E+02 -0.14038110793E+04  0.14309098616E+04  0.00000000000E+00 0.  1.
</event>
<event>
 7    1  0.4894942E-006  0.1004318E+04  0.7818608E-02  0.8960347E-01
          2   -1    0    0  501    0  0.00000000000E+00  0.00000000000E+00  0.13778835693E+04  0.13778835693E+04  0.00000000000E+00 0. -1.
         -4   -1    0    0    0  501 -0.00000000000E+00 -0.00000000000E+00 -0.16609526704E+04  0.16609526704E+04  0.00000000000E+00 0. -1.
   -9000010    2    1    2    0  502 -0.40742643910E+03  0.20529720776E+03 -0.38688128342E+03  0.10767973942E+04  0.89536152128E+03 0.  0.
        -13    1    1    2    0    0  0.41554892757E+03 -0.18488182284E+03 -0.87332124364E+03  0.98465842066E+03  0.10566000000E+00 0.  1.
         13    1    3    3    0    0 -0.66342834861E+03  0.51231951998E+02 -0.40238592471E+03  0.77760936865E+03  0.10566000000E+00 0. -1.
          2    1    1    2  502    0 -0.81224884713E+01 -0.20415384921E+02  0.97713342603E+03  0.97738042492E+03  0.00000000000E+00 0. -1.
         -4    1    3    3    0  502  0.25600190951E+03  0.15406525576E+03  0.15504641286E+02  0.29918802550E+03  0.00000000000E+00 0. -1.
</event>
<event>
 7    1  0.4894942E-006  0.1067736E+04  0.7818608E-02  0.8961289E-01
          4   -1    0    0  501    0 -0.00000000000E+00  0.00000000000E+00  0.96699097416E+03  0.96699097416E+03  0.00000000000E+00 0.  1.
          2   -1    0    0  502    0  0.00000000000E+00 -0.00000000000E+00 -0.12429000439E+04  0.12429000439E+04  0.00000000000E+00 0.  1.
    9000010    2    1    2  502    0  0.43959463799E+03 -0.44754666390E+02 -0.47895695060E+03  0.11926697999E+04  0.99890693515E+03 0.  0.
        -13    1    3    3    0    0  0.60516930230E+03 -0.25685112957E+03 -0.60690414927E+03  0.89472624012E+03  0.10566000000E+00 0.  1.
         13    1    1    2    0    0 -0.37073666126E+03  0.38414347868E+02  0.54947457686E+03  0.66396058309E+03  0.10566000000E+00 0. -1.
          2    1    1    2  501    0 -0.68857976736E+02  0.63403185222E+01 -0.34642669596E+03  0.35326063504E+03  0.00000000000E+00 0.  1.
          4    1    3    3  502    0 -0.16557466430E+03  0.21209646318E+03  0.12794719867E+03  0.29794355975E+03  0.00000000000E+00 0.  1.
</event>
<event>
 7    1  0.4894942E-006  0.1040328E+04  0.7818608E-02  0.9108805E-01
          4   -1    0    0  501    0  0.00000000000E+00  0.00000000000E+00  0.26686320825E+04  0.26686320825E+04  0.00000000000E+00 0.  1.
          4   -1    0    0  502    0 -0.00000000000E+00 -0.00000000000E+00 -0.82323048788E+03  0.82323048788E+03  0.00000000000E+00 0.  1.
    9000010    2    1    2  501    0 -0.44498261769E+02  0.14091866701E+03 -0.28564545512E+03  0.10652975905E+04  0.10155921742E+04 0.  0.
        -13    1    3    3    0    0  0.31082903059E+03 -0.43890699203E+01  0.25510593749E+03  0.40213555016E+03  0.10566000000E+00 0.  1.
         13    1    1    2    0    0  0.23960199746E+03 -0.10802066398E+03 -0.22648332409E+02  0.26380018794E+03  0.10566000000E+00 0. -1.
          4    1    3    3  501    0 -0.35532729236E+03  0.14530773693E+03 -0.54075139260E+03  0.66316204031E+03  0.00000000000E+00 0.  1.
          4    1    1    2  502    0 -0.19510373569E+03 -0.32898003034E+02  0.21536953822E+04  0.21627647920E+04  0.00000000000E+00 0.  1.
</event>
<event>
 7    1  0.4894942E-006  0.1155700E+04  0.7818608E-02  0.8842406E-01
         -4   -1    0    0    0  501 -0.00000000000E+00  0.00000000000E+00  0.30184743042E+04  0.30184743042E+04  0.00000000000E+00 0. -1.
          2   -1    0    0  501    0  0.00000000000E+00 -0.00000000000E+00 -0.81374195906E+03  0.81374195906E+03  0.00000000000E+00 0.  1.
   -9000010    2    1    2    0  502  0.40326693708E+03 -0.27894029977E+03  0.94696683543E+03  0.14953966578E+04  0.10483477779E+04 0.  0.
        -13    1    1    2    0    0 -0.40495517255E+03  0.26865437329E+03  0.17643880193E+04  0.18300898770E+04  0.10566000000E+00 0.  1.
         13    1    3    3    0    0  0.54346494508E+03  0.17368871756E+03  0.18812002403E+03  0.60075874670E+03  0.10566000000E+00 0. -1.
          2    1    1    2  502    0  0.16882354660E+01  0.10285926481E+02 -0.50662250963E+03  0.50672972844E+03  0.00000000000E+00 0.  1.
         -4    1    3    3    0  502 -0.14019800799E+03 -0.45262901733E+03  0.75884681140E+03  0.89463791109E+03  0.00000000000E+00 0. -1.
</event>
<event>
 7    1  0.4894942E-006  0.1171602E+04  0.7818608E-02  0.8762405E-01
          2   -1    0    0  502    0  0.00000000000E+00  0.00000000000E+00  0.74665285257E+03  0.74665285257E+03  0.00000000000E+00 0.  1.
          4   -1    0    0  501    0 -0.00000000000E+00 -0.00000000000E+00 -0.14814655069E+04  0.14814655069E+04  0.00000000000E+00 0.  1.
    9000010    2    1    2  502    0  0.42599307366E+03  0.49768567834E+03 -0.60322327152E+03  0.13178398809E+04  0.97142292705E+03 0.  0.
        -13    1    3    3    0    0  0.46641285436E+03  0.58488432630E+03 -0.80218919074E+03  0.10968765358E+04  0.10566000000E+00 0.  1.
         13    1    1    2    0    0 -0.39116910878E+03 -0.52594003267E+03 -0.31089301787E+03  0.72545204484E+03  0.10566000000E+00 0. -1.
          2    1    1    2  501    0 -0.34823964875E+02  0.28254354337E+02  0.17930363505E+03  0.18482643374E+03  0.00000000000E+00 0.  1.
          4    1    3    3  502    0 -0.40419780702E+02 -0.87198647964E+02  0.19896591922E+03  0.22096334513E+03  0.00000000000E+00 0.  1.
</event>
<event>
 7    1  0.4894942E-006  0.1125435E+04  0.7818608E-02  0.8855867E-01
          1   -1    0    0  501    0  0.00000000000E+00  0.00000000000E+00  0.52754481752E+03  0.52754481752E+03  0.00000000000E+00 0. -1.
         -4   -1    0    0    0  501 -0.00000000000E+00 -0.00000000000E+00 -0.22046054944E+04  0.22046054944E+04  0.00000000000E+00 0. -1.
   -9000010    2    1    2    0  502 -0.22703535363E+03 -0.45412415825E+03 -0.99129364223E+03  0.15030532848E+04  0.10093226882E+04 0.  0.
        -13    1    1    2    0    0  0.20473868702E+03  0.45118969728E+03 -0.89268076269E+03  0.10209647536E+04  0.10566000000E+00 0.  1.
         13    1    3    3    0    0  0.15603992758E+02 -0.70204180404E+03 -0.37558838740E+03  0.79634968897E+03  0.10566000000E+00 0. -1.
          1    1    1    2  502    0  0.22296666613E+02  0.29344609639E+01  0.20691372807E+03  0.20813227348E+03  0.00000000000E+00 0. -1.
         -4    1    3    3    0  502 -0.24263934639E+03  0.24791764580E+03 -0.61570525483E+03  0.70670359581E+03  0.00000000000E+00 0. -1.
</event>
<event>
 7    1  0.4894942E-006  0.1226291E+04  0.7818608E-02  0.8719125E-01
         -4   -1    0    0    0  501 -0.00000000000E+00  0.00000000000E+00  0.11827180096E+04  0.11827180096E+04  0.00000000000E+00 0. -1.
          1   -1    0    0  501    0  0.00000000000E+00 -0.00000000000E+00 -0.15101828763E+04  0.15101828763E+04  0.00000000000E+00 0. -1.
   -9000010    2    1    2    0  502 -0.41654851514E+03 -0.63112837637E+03 -0.51782722579E+02  0.12670322979E+04  0.10153096576E+04 0.  0.
        -13    1    1    2    0    0  0.44535805439E+03  0.49924353790E+03  0.37116670671E+03  0.76508342164E+03  0.10566000000E+00 0.  1.
         13    1    3    3    0    0 -0.46734895527E+03 -0.19288645452E+03 -0.44689879044E+03  0.67478794476E+03  0.10566000000E+00 0. -1.
          1    1    1    2  502    0 -0.28809539245E+02  0.13188483847E+03 -0.64684885080E+03  0.66078516626E+03  0.00000000000E+00 0. -1.
         -4    1    3    3    0  502  0.50800440130E+02 -0.43824192185E+03  0.39511606786E+03  0.59224435318E+03  0.00000000000E+00 0. -1.
</event>
<event>
 7    1  0.4894942E-006  0.9979272E+03  0.7818608E-02  0.9243218E-01
          4   -1    0    0  501    0 -0.00000000000E+00  0.00000000000E+00  0.86594589053E+03  0.86594589053E+03  0.00000000000E+00 0.  1.
          2   -1    0    0  502    0  0.00000000000E+00 -0.00000000000E+00 -0.43808006288E+03  0.43808006288E+03  0.00000000000E+00 0.  1.
    9000010    2    1    2  502    0  0.58555418434E+02  0.13629293313E+03  0.33100654457E+03  0.10509591174E+04  0.98637986259E+03 0.  0.
        -13    1    3    3    0    0 -0.17567552146E+03  0.43308825564E+03  0.45578196134E+03  0.65281278592E+03  0.10566000000E+00 0.  1.
         13    1    1    2    0    0 -0.45796827608E+02 -0.14463540587E+03  0.14053857757E+03  0.20680389987E+03  0.10566000000E+00 0. -1.
          2    1    1    2  501    0 -0.12758590825E+02  0.83424727418E+01 -0.43679294486E+02  0.46262936116E+02  0.00000000000E+00 0.  1.
          4    1    3    3  502    0  0.23423093990E+03 -0.29679532251E+03 -0.12477541677E+03  0.39814633152E+03  0.00000000000E+00 0.  1.
</event>
<event>
 6    1  0.4894942E-006  0.8201341E+03  0.7818608E-02  0.9088282E-01
          4   -1    0    0  501    0 -0.00000000000E+00  0.00000000000E+00  0.28684303110E+03  0.28684303110E+03  0.00000000000E+00 0.  1.
          2   -1    0    0  502    0  0.00000000000E+00 -0.00000000000E+00 -0.19087651509E+04  0.19087651509E+04  0.00000000000E+00 0.  1.
        -13    1    1    2    0    0 -0.61858571750E+03  0.42174885093E+02 -0.91397830847E+03  0.11044380337E+04  0.10566000000E+00 0.  1.
         13    1    1    2    0    0  0.47755132458E+03  0.10935602198E+03 -0.39122833107E+03  0.62695584003E+03  0.10566000000E+00 0. -1.
          2    1    1    2  501    0  0.44244157115E+02 -0.73487407200E+02 -0.32831874822E+03  0.33933927696E+03  0.00000000000E+00 0.  1.
          4    1    1    2  502    0  0.96790235802E+02 -0.78043499871E+02  0.11603267922E+02  0.12487503131E+03  0.00000000000E+00 0.  1.
</event>
<event>
 7    1  0.4894942E-006  0.1062869E+04  0.7818608E-02  0.8972782E-01
          1   -1    0    0  501    0  0.00000000000E+00  0.00000000000E+00  0.11833688146E+04  0.11833688146E+04  0.00000000000E+00 0. -1.
         -4   -1    0    0    0  501 -0.00000000000E+00 -0.00000000000E+00 -0.14431540085E+04  0.14431540085E+04  0.00000000000E+00 0. -1.
   -9000010    2    1    2    0  502  0.36860678095E+03 -0.76112339986E+02 -0.85782945321E+03  0.13689802911E+04  0.99828433796E+03 0.  0.
        -13    1    1    2    0    0 -0.34850870650E+03  0.92473661660E+02 -0.23091893532E+03  0.42817433652E+03  0.10566000000E+00 0.  1.
         13    1    3    3    0    0 -0.26784085043E+03  0.12677039606E+03 -0.19377580697E+02  0.29695951959E+03  0.10566000000E+00 0. -1.
          1    1    1    2  502    0 -0.20098074450E+02 -0.16361321673E+02  0.82896319470E+03  0.82936819545E+03  0.00000000000E+00 0. -1.
         -4    1    3    3    0  502  0.63644763138E+03 -0.20288273604E+03 -0.83845187251E+03  0.10720207715E+04  0.00000000000E+00 0. -1.
</event>
<event>
 7    1  0.4894942E-006  0.1097307E+04  0.7818608E-02  0.8909171E-01
          2   -1    0    0  501    0  0.00000000000E+00  0.00000000000E+00  0.26487895389E+04  0.26487895389E+04  0.00000000000E+00 0.  1.
         -4   -1    0    0    0  501 -0.00000000000E+00 -0.00000000000E+00 -0.90527078505E+03  0.90527078505E+03  0.00000000000E+00 0. -1.
   -9000010    2    1    2    0  502 -0.18648616742E+03  0.38891998409E+03 -0.14442261610E+03  0.11071253977E+04  0.10093725326E+04 0.  0.
        -13    1    1    2    0    0  0.46327726389E+03 -0.12661891462E+03 -0.39728396671E+02  0.48190925436E+03  0.10566000000E+00 0.  1.
         13    1    3    3    0    0 -0.10894126101E+03  0.65874843296E+03 -0.35497763881E+03  0.75619232441E+03  0.10566000000E+00 0. -1.
          2    1    1    2  502    0 -0.27679109647E+03 -0.26230106947E+03  0.19276697666E+04  0.19650256719E+04  0.00000000000E+00 0.  1.
         -4    1    3    3    0  502 -0.77544906409E+02 -0.26982844887E+03  0.21055502271E+03  0.35093307327E+03  0.00000000000E+00 0. -1.
</event>
<event>
 7    1  0.4894942E-006  0.1055770E+04  0.7818608E-02  0.9041454E-01
          4   -1    0    0  501    0 -0.00000000000E+00  0.00000000000E+00  0.39536469651E+03  0.39536469651E+03  0.00000000000E+00 0.  1.
          2   -1    0    0  502    0  0.00000000000E+00 -0.00000000000E+00 -0.17163280151E+04  0.17163280151E+04  0.00000000000E+00 0.  1.
    9000010    2    1    2  502    0  0.16036266713E+03  0.23438441556E+03 -0.65304496316E+03  0.12418538163E+04  0.10173892755E+04 0.  0.
        -13    1    3    3    0    0 -0.33455624302E+03 -0.18444677737E+03 -0.11398165205E+03  0.39867320150E+03  0.10566000000E+00 0.  1.
         13    1    1    2    0    0 -0.14858638316E+03 -0.23936282753E+03 -0.95794153155E+02  0.29757185251E+03  0.10566000000E+00 0. -1.
          2    1    1    2  501    0 -0.11776283971E+02  0.49784119708E+01 -0.57212420227E+03  0.57226704280E+03  0.00000000000E+00 0.  1.
          4    1    3    3  502    0  0.49491891015E+03  0.41883119293E+03 -0.53906331112E+03  0.84318061481E+03  0.00000000000E+00 0.  1.
</event>
<event>
 7    1  0.4894942E-006  0.1198882E+04  0.7818608E-02  0.9273846E-01
         -4   -1    0    0    0  501 -0.00000000000E+00  0.00000000000E+00  0.12197305336E+04  0.12197305336E+04  0.00000000000E+00 0. -1.
          2   -1    0    0  501    0  0.00000000000E+00 -0.00000000000E+00 -0.10527546033E+04  0.10527546033E+04  0.00000000000E+00 0. -1.
   -9000010    2    1    2    0  502  0.54865602906E+03  0.24205350181E+03  0.64208093438E+03  0.13306829428E+04  0.99941774646E+03 0.  0.
        -13    1    1    2    0    0  0.54989252855E+02  0.54822982821E+02  0.46555938516E+02  0.90536423333E+02  0.10566000000E+00 0.  1.
         13    1    3    3    0    0 -0.16039683937E+03  0.25805056558E+02 -0.16725347894E+03  0.23316685958E+03  0.10566000000E+00 0. -1.
          2    1    1    2  502    0 -0.60364528191E+03 -0.29687648463E+03 -0.52166094262E+03  0.85126577081E+03  0.00000000000E+00 0. -1.
         -4    1    3    3    0  502  0.70905286843E+03  0.21624844525E+03  0.80933441332E+03  0.10975160832E+04  0.00000000000E+00 0. -1.
</event>
<event>
 7    1  0.4894942E-006  0.1271152E+04  0.7818608E-02  0.8664393E-01
          4   -1    0    0  501    0 -0.00000000000E+00  0.00000000000E+00  0.20137060072E+04  0.20137060072E+04  0.00000000000E+00 0.  1.
          2   -1    0    0  502    0  0.00000000000E+00 -0.00000000000E+00 -0.10039865844E+04  0.10039865844E+04  0.00000000000E+00 0. -1.
    9000010    2    1    2  502    0 -0.60486456267E+03  0.52613520647E+03  0.65631695280E+03  0.14409429088E+04  0.10014415257E+04 0.  0.
        -13    1    3    3    0    0 -0.75020731112E+03  0.63160143057E+03  0.27350526753E+03  0.10181043754E+04  0.10566000000E+00 0.  1.
         13    1    1    2    0    0  0.59646690320E+03 -0.49562034028E+03  0.80864390182E+03  0.11204094160E+04  0.10566000000E+00 0. -1.
          2    1    1    2  501    0  0.83976594640E+01 -0.30514866186E+02 -0.45524143189E+03  0.45634026674E+03  0.00000000000E+00 0. -1.
          4    1    3    3  502    0  0.14534274845E+03 -0.10546622410E+03  0.38281168527E+03  0.42283853341E+03  0.00000000000E+00 0.  1.
</event>
<event>
 7    1  0.4894942E-006  0.1108238E+04  0.7818608E-02  0.8880663E-01
          2   -1    0    0  501    0  0.00000000000E+00  0.00000000000E+00  0.58111488922E+03  0.58111488922E+03  0.00000000000E+00 0. -1.
         -4   -1    0    0    0  501 -0.00000000000E+00 -0.00000000000E+00 -0.21530781132E+04  0.21530781132E+04  0.00000000000E+00 0. -1.
   -9000010    2    1    2    0  502 -0.14847244290E+03  0.36968043432E+03 -0.13750783651E+03  0.10884510131E+04  0.10035484607E+04 0.  0.
        -13    1    1    2    0    0 -0.63250027698E+01 -0.47879830642E+03 -0.13607019152E+04  0.14424969799E+04  0.10566000000E+00 0.  1.
         13    1    3    3    0    0 -0.44748532793E+03 -0.13534879537E+03  0.55105446065E+02  0.47074306842E+03  0.10566000000E+00 0. -1.
          2    1    1    2  502    0  0.15479744567E+03  0.10911787210E+03 -0.73753472310E+02  0.20324500947E+03  0.00000000000E+00 0. -1.
         -4    1    3    3    0  502  0.29901288503E+03  0.50502922969E+03 -0.19261328258E+03  0.61770794465E+03  0.00000000000E+00 0. -1.
</event>
<event>
 7    1  0.4894942E-006  0.1106057E+04  0.7818608E-02  0.8861328E-01
          2   -1    0    0  501    0  0.00000000000E+00  0.00000000000E+00  0.64331377152E+03  0.64331377152E+03  0.00000000000E+00 0. -1.
         -4   -1    0    0    0  501 -0.00000000000E+00 -0.00000000000E+00 -0.14907997847E+04  0.14907997847E+04  0.00000000000E+00 0. -1.
   -9000010    2    1    2    0  502 -0.50678019027E+03  0.10728343896E+03 -0.60302005823E+03  0.12619454780E+04  0.98007004917E+03 0.  0.
        -13    1    1    2    0    0  0.49328166199E+03 -0.13327482312E+03 -0.44008925465E+03  0.67436454515E+03  0.10566000000E+00 0.  1.
         13    1    3    3    0    0  0.40081368988E+02  0.25026301441E+03 -0.64712007354E+03  0.69498380792E+03  0.10566000000E+00 0. -1.
          2    1    1    2  502    0  0.13498528272E+02  0.25991384164E+02  0.19562329969E+03  0.19780353308E+03  0.00000000000E+00 0. -1.
         -4    1    3    3    0  502 -0.54686155925E+03 -0.14297957545E+03  0.44100015315E+02  0.56696167008E+03  0.00000000000E+00 0. -1.
</event>
<event>
 7    1  0.4894942E-006  0.1182504E+04  0.7818608E-02  0.8767737E-01
          1   -1    0    0  501    0  0.00000000000E+00  0.00000000000E+00  0.62745456625E+03  0.62745456625E+03  0.00000000000E+00 0.  1.
         -4   -1    0    0    0  501 -0.00000000000E+00 -0.00000000000E+00 -0.23237924854E+04  0.23237924854E+04  0.00000000000E+00 0. -1.
   -9000010    2    1    2    0  502 -0.31126048008E+03 -0.58891153288E+03 -0.13044720824E+04  0.17764889546E+04  0.10052689750E+04 0.  0.
        -13    1    1    2    0    0  0.34469919415E+03  0.49442431092E+03 -0.65683692858E+03  0.89146379376E+03  0.10566000000E+00 0.  1.
         13    1    3    3    0    0 -0.67197739387E+03 -0.45420990630E+03 -0.98649366286E+03  0.12771178547E+04  0.10566000000E+00 0. -1.
          1    1    1    2  502    0 -0.33438714073E+02  0.94487221959E+02  0.26497109188E+03  0.28329430324E+03  0.00000000000E+00 0.  1.
         -4    1    3    3    0  502  0.36071691379E+03 -0.13470162658E+03 -0.31797841958E+03  0.49937109991E+03  0.00000000000E+00 0. -1.
</event>
<event>
 7    1  0.4894942E-006  0.9940476E+03  0.7818608E-02  0.9405719E-01
         -4   -1    0    0    0  501 -0.00000000000E+00  0.00000000000E+00  0.43924763396E+03  0.43924763396E+03  0.00000000000E+00 0. -1.
          1   -1    0    0  501    0  0.00000000000E+00 -0.00000000000E+00 -0.98667930656E+03  0.98667930656E+03  0.00000000000E+00 0. -1.
   -9000010    2    1    2    0  502 -0.12442645395E+03 -0.30419970333E+02 -0.42611388365E+03  0.10859202024E+04  0.99057676482E+03 0.  0.
        -13    1    1    2    0    0  0.82106949744E+02  0.11671384946E+01  0.90400463851E+02  0.12212767269E+03  0.10566000000E+00 0.  1.
         13    1    3    3    0    0  0.35631009084E+03  0.13732273826E+03 -0.43219726180E+03  0.57672254989E+03  0.10566000000E+00 0. -1.
          1    1    1    2  502    0  0.42319504202E+02  0.29252831838E+02 -0.21171825280E+03  0.21787906548E+03  0.00000000000E+00 0. -1.
         -4    1    3    3    0  502 -0.48073654479E+03 -0.16774270859E+03  0.60833781524E+01  0.50919765246E+03  0.00000000000E+00 0. -1.
</event>
<event>
 7    1  0.4894942E-006  0.1046289E+04  0.7818608E-02  0.8969196E-01
          2   -1    0    0  501    0  0.00000000000E+00  0.00000000000E+00  0.13540013317E+04  0.13540013317E+04  0.00000000000E+00 0.  1.
         -4   -1    0    0    0  501 -0.00000000000E+00 -0.00000000000E+00 -0.71605390625E+03  0.71605390625E+03  0.00000000000E+00 0. -1.
   -9000010    2    1    2    0  502 -0.35736338478E+03  0.20005017335E+03 -0.22529788828E+03  0.10782314051E+04  0.97164559580E+03 0.  0.
        -13    1    1    2    0    0  0.30858465025E+03 -0.15145005667E+03  0.85617610760E+03  0.92260454390E+03  0.10566000000E+00 0.  1.
         13    1    3    3    0    0  0.20634689940E+03  0.33566315790E+03  0.10919775602E+03  0.40886789988E+03  0.10566000000E+00 0. -1.
          2    1    1    2  502    0  0.48778734535E+02 -0.48600116683E+02  0.70692060999E+01  0.69219288925E+02  0.00000000000E+00 0.  1.
         -4    1    3    3    0  502 -0.56371028418E+03 -0.13561298455E+03 -0.33449564430E+03  0.66936350523E+03  0.00000000000E+00 0. -1.
</event>
<event>
 7    1  0.4894942E-006  0.1635707E+04  0.7818608E-02  0.8385248E-01
         -4   -1    0    0    0  501 -0.00000000000E+00  0.00000000000E+00  0.88731629990E+03  0.88731629990E+03  0.00000000000E+00 0. -1.
          4   -1    0    0  501    0  0.00000000000E+00 -0.00000000000E+00 -0.29282312030E+04  0.29282312030E+04  0.00000000000E+00 0.  1.
   -9000010    2    1    2    0  502 -0.11509850579E+04  0.60934793541E+03 -0.87640292287E+03  0.18609762475E+04  0.99953939423E+03 0.  0.
        -13    1    1    2    0    0  0.10552134789E+04 -0.74825468532E+03 -0.72300416355E+03  0.14819229372E+04  0.10566000000E+00 0.  1.
         13    1    3    3    0    0 -0.30262301718E+03 -0.19062566067E+03  0.63536740008E+02  0.36325715620E+03  0.10566000000E+00 0. -1.
          4    1    1    2  502    0  0.95771578964E+02  0.13890674991E+03 -0.44150781668E+03  0.47264831820E+03  0.00000000000E+00 0.  1.
         -4    1    3    3    0  502 -0.84836204070E+03  0.79997359608E+03 -0.93993966288E+03  0.14977190913E+04  0.00000000000E+00 0. -1.
</event>
<event>
 7    1  0.4894942E-006  0.1023987E+04  0.7818608E-02  0.9100954E-01
          4   -1    0    0  501    0  0.00000000000E+00  0.00000000000E+00  0.33838217927E+03  0.33838217927E+03  0.00000000000E+00 0. -1.
         -4   -1    0    0    0  501 -0.00000000000E+00 -0.00000000000E+00 -0.22136188397E+04  0.22136188397E+04  0.00000000000E+00 0. -1.
   -9000010    2    1    2    0  502  0.56569203458E+02  0.22025261773E+03 -0.61966114900E+03  0.11936235269E+04  0.99450786520E+03 0.  0.
        -13    1    1    2    0    0 -0.12396876481E+03 -0.21127384550E+03 -0.12660945064E+04  0.12895736515E+04  0.10566000000E+00 0.  1.
         13    1    3    3    0    0 -0.19539073429E+03  0.51204346238E+03 -0.11744552885E+03  0.56049933971E+03  0.10566000000E+00 0. -1.
          4    1    1    2  502    0  0.67399561355E+02 -0.89787722334E+01  0.10518994961E+02  0.68803840566E+02  0.00000000000E+00 0. -1.
         -4    1    3    3    0  502  0.25195993775E+03 -0.29179084464E+03 -0.50221562016E+03  0.63312418717E+03  0.00000000000E+00 0. -1.
</event>
<event>
 7    1  0.4894942E-006  0.1009797E+04  0.7818608E-02  0.9821309E-01
         -4   -1    0    0    0  501 -0.00000000000E+00  0.00000000000E+00  0.97228743429E+03  0.97228743429E+03  0.00000000000E+00 0. -1.
          2   -1    0    0  501    0  0.00000000000E+00 -0.00000000000E+00 -0.54511526902E+03  0.54511526902E+03  0.00000000000E+00 0. -1.
   -9000010    2    1    2    0  502  0.27807909595E+01  0.53974044623E+02  0.65197579309E+03  0.12014575660E+04  0.10077236317E+04 0.  0.
        -13    1    1    2    0    0  0.16314823301E+02  0.78741115512E+01  0.39699183414E+02  0.43637270994E+02  0.10566000000E+00 0.  1.
         13    1    3    3    0    0 -0.39433373185E+03 -0.31780004856E+02  0.68796094181E+03  0.79359897266E+03  0.10566000000E+00 0. -1.
          2    1    1    2  502    0 -0.19095614260E+02 -0.61848156174E+02 -0.26450281123E+03  0.27230786631E+03  0.00000000000E+00 0. -1.
         -4    1    3    3    0  502  0.39711452281E+03  0.85754049479E+02 -0.35985148721E+02  0.40785859334E+03  0.00000000000E+00 0. -1.
</event>
<event>
 7    1  0.4894942E-006  0.1201962E+04  0.7818608E-02  0.8825041E-01
         -4   -1    0    0    0  501 -0.00000000000E+00  0.00000000000E+00  0.20187286108E+04  0.20187286108E+04  0.00000000000E+00 0. -1.
          2   -1    0    0  501    0  0.00000000000E+00 -0.00000000000E+00 -0.96884615699E+03  0.96884615699E+03  0.00000000000E+00 0.  1.
   -9000010    2    1    2    0  502 -0.46645686207E+02 -0.48703516323E+03  0.32118859095E+03  0.12533603800E+04  0.11083190248E+04 0.  0.
        -13    1    1    2    0    0 -0.51598026014E+02  0.46086791604E+03  0.11819623062E+04  0.12696836207E+04  0.10566000000E+00 0.  1.
         13    1    3    3    0    0 -0.45992705225E+03 -0.13097449934E+02  0.41249193077E+03  0.61794339603E+03  0.10566000000E+00 0. -1.
          2    1    1    2  502    0  0.98243712221E+02  0.26167247189E+02 -0.45326844336E+03  0.46453076708E+03  0.00000000000E+00 0.  1.
         -4    1    3    3    0  502  0.41328136605E+03 -0.47393771330E+03 -0.91303339815E+02  0.63541698393E+03  0.00000000000E+00 0. -1.
</event>
<event>
 7    1  0.4894942E-006  0.1514564E+04  0.7818608E-02  0.8465966E-01
         -4   -1    0    0    0  501 -0.00000000000E+00  0.00000000000E+00  0.18815077852E+04  0.18815077852E+04  0.00000000000E+00 0. -1.
          2   -1    0    0  501    0  0.00000000000E+00 -0.00000000000E+00 -0.17106651539E+04  0.17106651539E+04  0.00000000000E+00 0. -1.
   -9000010    2    1    2    0  502 -0.11021652248E+04 -0.31641556797E+03 -0.95695339522E+03  0.18060994293E+04  0.10155532253E+04 0.  0.
        -13    1    1    2    0    0  0.10882633483E+04  0.26538042048E+03  0.12345153341E+04  0.16669649078E+04  0.10566000000E+00 0.  1.
         13    1    3    3    0    0 -0.46047450277E+02 -0.18463166284E+03  0.17060644470E+03  0.25556953797E+03  0.10566000000E+00 0. -1.
          2    1    1    2  502    0  0.13901876555E+02  0.51035147488E+02 -0.10671930752E+03  0.11910860191E+03  0.00000000000E+00 0. -1.
         -4    1    3    3    0  502 -0.10561177745E+04 -0.13178390513E+03 -0.11275598399E+04  0.15505298913E+04  0.00000000000E+00 0. -1.
</event>
<event>
 7    1  0.4894942E-006  0.1116167E+04  0.7818608E-02  0.8955072E-01
          2   -1    0    0  502    0  0.00000000000E+00  0.00000000000E+00  0.91621095330E+03  0.91621095330E+03  0.00000000000E+00 0. -1.
          4   -1    0    0  501    0 -0.00000000000E+00 -0.00000000000E+00 -0.30057649529E+04  0.30057649529E+04  0.00000000000E+00 0.  1.
    9000010    2    1    2  502    0 -0.28470017102E+03 -0.44476687329E+03 -0.15422688128E+04  0.19080610748E+04  0.99158066500E+03 0.  0.
        -13    1    3    3    0    0 -0.31682463225E+02 -0.41236655563E+03 -0.15948594408E+04  0.16476123943E+04  0.10566000000E+00 0.  1.
         13    1    1    2    0    0  0.33123438599E+03 -0.70487850842E+02 -0.11620726663E+04  0.12104121812E+04  0.10566000000E+00 0. -1.
          2    1    1    2  501    0 -0.46534214963E+02  0.51525472413E+03  0.61478747950E+03  0.80350265019E+03  0.00000000000E+00 0. -1.
          4    1    3    3  502    0 -0.25301770780E+03 -0.32400317663E+02  0.52590627968E+02  0.26044868054E+03  0.00000000000E+00 0.  1.
</event>
<event>
 7    1  0.4894942E-006  0.1061721E+04  0.7818608E-02  0.8936222E-01
          2   -1    0    0  502    0  0.00000000000E+00  0.00000000000E+00  0.10856233698E+04  0.10856233698E+04  0.00000000000E+00 0.  1.
          4   -1    0    0  501    0 -0.00000000000E+00 -0.00000000000E+00 -0.17391741999E+04  0.17391741999E+04  0.00000000000E+00 0.  1.
    9000010    2    1    2  502    0  0.12433968878E+03  0.40986347833E+03 -0.85590443476E+03  0.13647699059E+04  0.97292140762E+03 0.  0.
        -13    1    3    3    0    0  0.26898971992E+03  0.20366418068E+03  0.11906834120E+03  0.35778743544E+03  0.10566000000E+00 0.  1.
         13    1    1    2    0    0 -0.11343770957E+03 -0.40872188120E+03 -0.55726344532E+03  0.70033152776E+03  0.10566000000E+00 0. -1.
          2    1    1    2  501    0 -0.10901979207E+02 -0.11415971304E+01  0.75961705006E+03  0.75969613605E+03  0.00000000000E+00 0.  1.
          4    1    3    3  502    0 -0.14465003114E+03  0.20619929765E+03 -0.97497277596E+03  0.10069824704E+04  0.00000000000E+00 0.  1.
</event>
<event>
 7    1  0.4894942E-006  0.1377892E+04  0.7818608E-02  0.8567518E-01
         -4   -1    0    0    0  501 -0.00000000000E+00  0.00000000000E+00  0.17662652776E+04  0.17662652776E+04  0.00000000000E+00 0. -1.
          2   -1    0    0  501    0  0.00000000000E+00 -0.00000000000E+00 -0.42432635059E+04  0.42432635059E+04  0.00000000000E+00 0. -1.
   -9000010    2    1    2    0  502  0.35217078840E+03 -0.11423754939E+04  0.67712748224E+02  0.15630339505E+04  0.10047109439E+04 0.  0.
        -13    1    1    2    0    0 -0.69068796397E+03  0.58922174697E+03  0.69447042682E+03  0.11430316337E+04  0.10566000000E+00 0.  1.
         13    1    3    3    0    0  0.19972559264E+03 -0.12745235389E+04 -0.10921775455E+03  0.12946926634E+04  0.10566000000E+00 0. -1.
          2    1    1    2  502    0  0.33851717558E+03  0.55315374696E+03 -0.32391814033E+04  0.33034631994E+04  0.00000000000E+00 0. -1.
         -4    1    3    3    0  502  0.15244519575E+03  0.13214804502E+03  0.17693050277E+03  0.26834128702E+03  0.00000000000E+00 0. -1.
</event>
<event>
 7    1  0.4894942E-006  0.1097794E+04  0.7818608E-02  0.8817039E-01
          2   -1    0    0  502    0  0.00000000000E+00  0.00000000000E+00  0.14317227954E+04  0.14317227954E+04  0.00000000000E+00 0.  1.
          4   -1    0    0  501    0 -0.00000000000E+00 -0.00000000000E+00 -0.29119006684E+04  0.29119006684E+04  0.00000000000E+00 0.  1.
    9000010    2    1    2  502    0 -0.40877184430E+02 -0.61892218316E+03 -0.16456114286E+04  0.19746459978E+04  0.89802796718E+03 0.  0.
        -13    1    3    3    0    0 -0.34077782631E+03  0.22031889590E+02 -0.81383476377E+03  0.88257688898E+03  0.10566000000E+00 0.  1.
         13    1    1    2    0    0  0.43027121701E+02  0.63622831011E+03 -0.10094327744E+04  0.11939817139E+04  0.10566000000E+00 0. -1.
          2    1    1    2  501    0 -0.21499372713E+01 -0.17306126943E+02  0.11748663300E+04  0.11749957522E+04  0.00000000000E+00 0.  1.
          4    1    3    3  502    0  0.29990064188E+03 -0.64095407275E+03 -0.83177666478E+03  0.10920691088E+04  0.00000000000E+00 0.  1.
</event>
<event>
 7    1  0.4894942E-006  0.9994167E+03  0.7818608E-02  0.9157336E-01
         -4   -1    0    0    0  501 -0.00000000000E+00  0.00000000000E+00  0.11256901203E+04  0.11256901203E+04  0.00000000000E+00 0. -1.
          2   -1    0    0  501    0  0.00000000000E+00 -0.00000000000E+00 -0.49586183987E+03  0.49586183987E+03  0.00000000000E+00 0. -1.
   -9000010    2    1    2    0  502 -0.10889052321E+03  0.13807505485E+03  0.53676344156E+03  0.11285809601E+04  0.97706607991E+03 0.  0.
        -13    1    1    2    0    0  0.22226997698E+03 -0.26037300893E+02  0.20072672603E+03  0.30062121251E+03  0.10566000000E+00 0.  1.
         13    1    3    3    0    0 -0.42091449235E+03  0.34963458622E+03  0.10815502261E+03  0.55777313831E+03  0.10566000000E+00 0. -1.
          2    1    1    2  502    0 -0.11337945377E+03 -0.11203775396E+03 -0.10766188712E+03  0.19234978760E+03  0.00000000000E+00 0. -1.
         -4    1    3    3    0  502  0.31202396914E+03 -0.21155953136E+03  0.42860841895E+03  0.57080782180E+03  0.00000000000E+00 0. -1.
</event>
<event>
 7    1  0.4894942E-006  0.1166681E+04  0.7818608E-02  0.8922021E-01
          2   -1    0    0  501    0  0.00000000000E+00  0.00000000000E+00  0.73055945892E+03  0.73055945892E+03  0.00000000000E+00 0. -1.
         -4   -1    0    0    0  501 -0.00000000000E+00 -0.00000000000E+00 -0.27164377691E+04  0.27164377691E+04  0.00000000000E+00 0. -1.
   -9000010    2    1    2    0  502  0.14358870855E+03 -0.62598341675E+03 -0.82936777162E+03  0.14463824750E+04  0.99584055349E+03 0.  0.
        -13    1    1    2    0    0  0.28587834452E+03  0.18333384484E+03 -0.13196528767E+04  0.13626523594E+04  0.10566000000E+00 0.  1.
         13    1    3    3    0    0 -0.13715373351E+03 -0.75219021042E+03 -0.84323456097E+03  0.11382643785E+04  0.10566000000E+00 0. -1.
          2    1    1    2  502    0 -0.42946705308E+03  0.44264957191E+03  0.16314233813E+03  0.63796239363E+03  0.00000000000E+00 0. -1.
         -4    1    3    3    0  502  0.28074244206E+03  0.12620679368E+03  0.13866789353E+02  0.30811809650E+03  0.00000000000E+00 0. -1.
</event>
<event>
 7    1  0.4894942E-006  0.1069141E+04  0.7818608E-02  0.9065498E-01
          1   -1    0    0  501    0  0.00000000000E+00  0.00000000000E+00  0.76509153518E+03  0.76509153518E+03  0.00000000000E+00 0. -1.
         -4   -1    0    0    0  501 -0.00000000000E+00 -0.00000000000E+00 -0.18934908070E+04  0.18934908070E+04  0.00000000000E+00 0. -1.
   -9000010    2    1    2    0  502  0.15169762577E+03 -0.14538044736E+03 -0.11354510039E+04  0.15542138819E+04  0.10402808103E+04 0.  0.
        -13    1    1    2    0    0 -0.89406816477E+02  0.23839976208E+03 -0.51283633856E+03  0.57256366170E+03  0.10566000000E+00 0.  1.
         13    1    3    3    0    0  0.30531825822E+03  0.36681886077E+03 -0.77213422657E+03  0.90772605473E+03  0.10566000000E+00 0. -1.
          1    1    1    2  502    0 -0.62290809296E+02 -0.93019314720E+02  0.51988807064E+03  0.53180479861E+03  0.00000000000E+00 0. -1.
         -4    1    3    3    0  502 -0.15362063245E+03 -0.51219930813E+03 -0.36331677735E+03  0.64648782716E+03  0.00000000000E+00 0. -1.
</event>
<event>
 7    1  0.4894942E-006  0.9989383E+03  0.7818608E-02  0.9184300E-01
         -4   -1    0    0    0  501 -0.00000000000E+00  0.00000000000E+00  0.48937692027E+03  0.48937692027E+03  0.00000000000E+00 0. -1.
          2   -1    0    0  501    0  0.00000000000E+00 -0.00000000000E+00 -0.20943099330E+04  0.20943099330E+04  0.00000000000E+00 0. -1.
   -9000010    2    1    2    0  502 -0.15303976605E+03  0.62455625345E+02 -0.58043847331E+03  0.11516103935E+04  0.98080365111E+03 0.  0.
        -13    1    1    2    0    0  0.18481464897E+03 -0.47424413840E+02  0.15881230884E+03  0.24824763867E+03  0.10566000000E+00 0.  1.
         13    1    3    3    0    0 -0.29830590884E+03 -0.32376431825E+03 -0.59327812568E+03  0.73877513128E+03  0.10566000000E+00 0. -1.
          2    1    1    2  502    0 -0.31774882922E+02 -0.15031211505E+02 -0.11833068483E+04  0.11838288211E+04  0.00000000000E+00 0. -1.
         -4    1    3    3    0  502  0.14526614280E+03  0.38621994360E+03  0.12839652372E+02  0.41283526224E+03  0.00000000000E+00 0. -1.
</event>
<event>
 7    1  0.4894942E-006  0.1016656E+04  0.7818608E-02  0.9177299E-01
          4   -1    0    0  501    0 -0.00000000000E+00  0.00000000000E+00  0.43951028517E+03  0.43951028517E+03  0.00000000000E+00 0.  1.
          2   -1    0    0  502    0  0.00000000000E+00 -0.00000000000E+00 -0.16137308951E+04  0.16137308951E+04  0.00000000000E+00 0. -1.
    9000010    2    1    2  502    0  0.71609965300E+02  0.17532946905E+03 -0.77271052775E+03  0.12776631772E+04  0.99973657772E+03 0.  0.
        -13    1    3    3    0    0  0.17022490261E+03 -0.18287591145E+03  0.14411009649E+03  0.28842303572E+03  0.10566000000E+00 0.  1.
         13    1    1    2    0    0 -0.61180507070E+02 -0.17406910184E+03  0.14146686123E+03  0.23249944226E+03  0.10566000000E+00 0. -1.
          2    1    1    2  501    0 -0.10429458230E+02 -0.12603672066E+01 -0.54297694338E+03  0.54307856077E+03  0.00000000000E+00 0. -1.
          4    1    3    3  502    0 -0.98614937314E+02  0.35820538050E+03 -0.91682062424E+03  0.98924014148E+03  0.00000000000E+00 0.  1.
</event>
<event>
 7    1  0.4894942E-006  0.1147829E+04  0.7818608E-02  0.8802425E-01
          2   -1    0    0  502    0  0.00000000000E+00  0.00000000000E+00  0.24383150414E+04  0.24383150414E+04  0.00000000000E+00 0.  1.
          4   -1    0    0  501    0 -0.00000000000E+00 -0.00000000000E+00 -0.10130472738E+04  0.10130472738E+04  0.00000000000E+00 0.  1.
    9000010    2    1    2  502    0 -0.53131393221E+03 -0.21498150965E+03 -0.60012590464E+02  0.11420947827E+04  0.98603622525E+03 0.  0.
        -13    1    3    3    0    0 -0.81227166105E+02  0.18119712497E+02  0.42947153774E+03  0.43746084326E+03  0.10566000000E+00 0.  1.
         13    1    1    2    0    0  0.53984868062E+03  0.24641307493E+03 -0.19806409752E+03  0.62560802373E+03  0.10566000000E+00 0. -1.
          2    1    1    2  501    0 -0.85347484077E+01 -0.31431565277E+02  0.16833444556E+04  0.16836595088E+04  0.00000000000E+00 0.  1.
          4    1    3    3  502    0 -0.45008676611E+03 -0.23310122215E+03 -0.48948412820E+03  0.70463393940E+03  0.00000000000E+00 0.  1.
</event>
<event>
 7    1  0.4894942E-006  0.1031665E+04  0.7818608E-02  0.9079838E-01
         -4   -1    0    0    0  501 -0.00000000000E+00  0.00000000000E+00  0.45936377209E+03  0.45936377209E+03  0.00000000000E+00 0. -1.
          2   -1    0    0  501    0  0.00000000000E+00 -0.00000000000E+00 -0.22770305667E+04  0.22770305667E+04  0.00000000000E+00 0. -1.
   -9000010    2    1    2    0  502 -0.45141926217E+02 -0.30985286102E+03 -0.14540849132E+04  0.17914993720E+04  0.99852915645E+03 0.  0.
        -13    1    1    2    0    0  0.77299038409E+01  0.25742308446E+03  0.23152695120E+03  0.34631075081E+03  0.10566000000E+00 0.  1.
         13    1    3    3    0    0  0.44387570745E+03 -0.10613008557E+03 -0.97801751996E+03  0.10792624886E+04  0.10566000000E+00 0. -1.
          2    1    1    2  502    0  0.37412022376E+02  0.52429776557E+02 -0.59510883268E+03  0.59858421598E+03  0.00000000000E+00 0. -1.
         -4    1    3    3    0  502 -0.48901763366E+03 -0.20372277545E+03 -0.47606739320E+03  0.71223688345E+03  0.00000000000E+00 0. -1.
</event>
<event>
 7    1  0.4894942E-006  0.1163458E+04  0.7818608E-02  0.8788534E-01
         -4   -1    0    0    0  501 -0.00000000000E+00  0.00000000000E+00  0.38798019036E+04  0.38798019036E+04  0.00000000000E+00 0. -1.
          2   -1    0    0  501    0  0.00000000000E+00 -0.00000000000E+00 -0.13486582269E+04  0.13486582269E+04  0.00000000000E+00 0.  1.
   -9000010    2    1    2    0  502  0.61758290736E+03  0.30673110611E+02  0.29688418961E+04  0.31924748106E+04  0.99775935206E+03 0.  0.
        -13    1    1    2    0    0 -0.58015725708E+03  0.69014079977E+01  0.69313051019E+03  0.90391370589E+03  0.10566000000E+00 0.  1.
         13    1    3    3    0    0  0.52474334564E+03 -0.11637853376E+03  0.29703230059E+04  0.30185622923E+04  0.10566000000E+00 0. -1.
          2    1    1    2  502    0 -0.37425650275E+02 -0.37574518608E+02 -0.11308287296E+04  0.11320716141E+04  0.00000000000E+00 0.  1.
         -4    1    3    3    0  502  0.92839561718E+02  0.14705164437E+03 -0.14811097363E+01  0.17391251829E+03  0.00000000000E+00 0. -1.
</event>
<event>
 7    1  0.4894942E-006  0.1037813E+04  0.7818608E-02  0.9093392E-01
         -4   -1    0    0    0  501 -0.00000000000E+00  0.00000000000E+00  0.12769331782E+04  0.12769331782E+04  0.00000000000E+00 0. -1.
          2   -1    0    0  501    0  0.00000000000E+00 -0.00000000000E+00 -0.47756078109E+03  0.47756078109E+03  0.00000000000E+00 0. -1.
   -9000010    2    1    2    0  502  0.18201879155E+03  0.16538826341E+03  0.72069542556E+03  0.12643767141E+04  0.10093376345E+04 0.  0.
        -13    1    1    2    0    0 -0.16147692878E+03 -0.17860948012E+03  0.23229435087E+03  0.33456960640E+03  0.10566000000E+00 0.  1.
         13    1    3    3    0    0 -0.31075373019E+03 -0.45452702299E+02 -0.57679135503E+02  0.31931289170E+03  0.10566000000E+00 0. -1.
          2    1    1    2  502    0 -0.20541862773E+02  0.13221216705E+02 -0.15361737936E+03  0.15554763880E+03  0.00000000000E+00 0. -1.
         -4    1    3    3    0  502  0.49277252174E+03  0.21084096571E+03  0.77837456106E+03  0.94506382235E+03  0.00000000000E+00 0. -1.
</event>
<event>
 7    1  0.4894942E-006  0.1276312E+04  0.7818608E-02  0.8669170E-01
          2   -1    0    0  502    0  0.00000000000E+00  0.00000000000E+00  0.20620558796E+04  0.20620558796E+04  0.00000000000E+00 0. -1.
          4   -1    0    0  501    0 -0.00000000000E+00 -0.00000000000E+00 -0.59323234811E+03  0.59323234811E+03  0.00000000000E+00 0.  1.
    9000010    2    1    2  502    0  0.26975177744E+03  0.72613277521E+03  0.81354099529E+03  0.15221889147E+04  0.10272172663E+04 0.  0.
        -13    1    3    3    0    0 -0.39233619652E+02  0.83885085392E+03  0.26140334069E+03  0.87951222261E+03  0.10566000000E+00 0.  1.
         13    1    1    2    0    0 -0.24002990727E+03 -0.70945812457E+03  0.35138132223E+03  0.82729319572E+03  0.10566000000E+00 0. -1.
          2    1    1    2  501    0 -0.29721870174E+02 -0.16674650640E+02  0.30390121392E+03  0.30580611728E+03  0.00000000000E+00 0. -1.
          4    1    3    3  502    0  0.30898539710E+03 -0.11271807871E+03  0.55213765460E+03  0.64267669206E+03  0.00000000000E+00 0.  1.
</event>
<event>
 7    1  0.4894942E-006  0.1370582E+04  0.7818608E-02  0.8570361E-01
          2   -1    0    0  501    0  0.00000000000E+00  0.00000000000E+00  0.14381887546E+04  0.14381887546E+04  0.00000000000E+00 0.  1.
         -4   -1    0    0    0  501 -0.00000000000E+00 -0.00000000000E+00 -0.17337687127E+04  0.17337687127E+04  0.00000000000E+00 0. -1.
   -9000010    2    1    2    0  502 -0.55674326687E+03 -0.45280234820E+03 -0.14043234630E+03  0.12321714896E+04  0.99173197188E+03 0.  0.
        -13    1    1    2    0    0  0.86452084813E+03  0.62316406072E+03 -0.71161186240E+03  0.12814527683E+04  0.10566000000E+00 0.  1.
         13    1    3    3    0    0  0.21424282904E+02 -0.23061048922E+03 -0.47481063696E+03  0.52828529203E+03  0.10566000000E+00 0. -1.
          2    1    1    2  502    0 -0.30777758126E+03 -0.17036171252E+03  0.55646425060E+03  0.65833320957E+03  0.00000000000E+00 0.  1.
         -4    1    3    3    0  502 -0.57816754977E+03 -0.22219185898E+03  0.33437829066E+03  0.70388619753E+03  0.00000000000E+00 0. -1.
</event>
<event>
 7    1  0.4894942E-006  0.1017540E+04  0.7818608E-02  0.9182519E-01
         -4   -1    0    0    0  501 -0.00000000000E+00  0.00000000000E+00  0.58719097558E+03  0.58719097558E+03  0.00000000000E+00 0. -1.
          2   -1    0    0  501    0  0.00000000000E+00 -0.00000000000E+00 -0.15409023891E+04  0.15409023891E+04  0.00000000000E+00 0. -1.
   -9000010    2    1    2    0  502 -0.16461646690E+03  0.82678061789E+02 -0.11872820803E+04  0.15640885519E+04  0.10013990298E+04 0.  0.
        -13    1    1    2    0    0  0.15690176596E+03 -0.89169377098E+02  0.37818550573E+03  0.41903893600E+03  0.10566000000E+00 0.  1.
         13    1    3    3    0    0 -0.48201684930E+03 -0.18764204765E+03 -0.95690883809E+03  0.10877611487E+04  0.10566000000E+00 0. -1.
          2    1    1    2  502    0  0.77147009354E+01  0.64913153090E+01 -0.14461483895E+03  0.14496587678E+03  0.00000000000E+00 0. -1.
         -4    1    3    3    0  502  0.31740038240E+03  0.27032010944E+03 -0.23037324220E+03  0.47632740320E+03  0.00000000000E+00 0. -1.
</event>
<event>
 7    1  0.4894942E-006  0.9713031E+03  0.7818608E-02  0.9172317E-01
         -4   -1    0    0    0  501 -0.00000000000E+00  0.00000000000E+00  0.21102158648E+03  0.21102158648E+03  0.00000000000E+00 0. -1.
          2   -1    0    0  501    0  0.00000000000E+00 -0.00000000000E+00 -0.26491003085E+04  0.26491003085E+04  0.00000000000E+00 0.  1.
   -9000010    2    1    2    0  502 -0.11176471724E+03  0.19726536752E+03 -0.11818140032E+04  0.15313006299E+04  0.94699118461E+03 0.  0.
        -13    1    1    2    0    0  0.11520859478E+03 -0.17977131967E+03 -0.27868257783E+03  0.35107654157E+03  0.10566000000E+00 0.  1.
         13    1    3    3    0    0 -0.26838209129E+03 -0.87338769155E+02  0.23275981291E+02  0.28319390882E+03  0.10566000000E+00 0. -1.
          2    1    1    2  502    0 -0.34438775441E+01 -0.17494047850E+02 -0.97758214101E+03  0.97774472355E+03  0.00000000000E+00 0.  1.
         -4    1    3    3    0  502  0.15661737406E+03  0.28460413668E+03 -0.12050899845E+04  0.12481067211E+04  0.00000000000E+00 0. -1.
</event>
<event>
 7    1  0.4894942E-006  0.1075669E+04  0.7818608E-02  0.9052146E-01
         -2   -1    0    0    0  501  0.00000000000E+00  0.00000000000E+00  0.70744131124E+03  0.70744131124E+03  0.00000000000E+00 0. -1.
         -4   -1    0    0    0  502 -0.00000000000E+00 -0.00000000000E+00 -0.10278739887E+04  0.10278739887E+04  0.00000000000E+00 0. -1.
   -9000010    2    1    2    0  501 -0.22480334184E+03 -0.16490052316E+03 -0.15091848623E+03  0.10919107868E+04  0.10448751369E+04 0.  0.
        -13    1    1    2    0    0  0.21044914914E+03  0.14149855776E+03 -0.36585573529E+03  0.44515291354E+03  0.10566000000E+00 0.  1.
         13    1    3    3    0    0  0.44249200375E+02  0.42410207230E+03  0.26227403789E+01  0.42641229977E+03  0.10566000000E+00 0. -1.
         -2    1    1    2    0  502  0.14354192702E+02  0.23401965407E+02  0.19634154406E+03  0.19825159963E+03  0.00000000000E+00 0. -1.
         -4    1    3    3    0  501 -0.26905254222E+03 -0.58900259546E+03 -0.15354122661E+03  0.66549848700E+03  0.00000000000E+00 0. -1.
</event>
<event>
 7    1  0.4894942E-006  0.9802639E+03  0.7818608E-02  0.9184418E-01
          4   -1    0    0  501    0  0.00000000000E+00  0.00000000000E+00  0.23784117173E+04  0.23784117173E+04  0.00000000000E+00 0. -1.
          4   -1    0    0  502    0 -0.00000000000E+00 -0.00000000000E+00 -0.47340019577E+03  0.47340019577E+03  0.00000000000E+00 0.  1.
    9000010    2    1    2  501    0 -0.16770250201E+03 -0.39829241065E+02  0.78857594575E+03  0.12539180724E+04  0.95955615385E+03 0.  0.
        -13    1    3    3    0    0 -0.34708661881E+02 -0.33777271743E+03 -0.59968003347E+02  0.34480613748E+03  0.10566000000E+00 0.  1.
         13    1    1    2    0    0  0.17181209470E+03  0.10611975866E+03 -0.19739082195E+03  0.28238970735E+03  0.10566000000E+00 0. -1.
          4    1    3    3  501    0 -0.13299384013E+03  0.29794347637E+03  0.84854394910E+03  0.90911193490E+03  0.00000000000E+00 0.  1.
          4    1    1    2  502    0 -0.41095926842E+01 -0.66290517598E+02  0.13138263977E+04  0.13155041333E+04  0.00000000000E+00 0. -1.
</event>
<event>
 7    1  0.4894942E-006  0.1171957E+04  0.7818608E-02  0.8785733E-01
          1   -1    0    0  501    0  0.00000000000E+00  0.00000000000E+00  0.10425096700E+04  0.10425096700E+04  0.00000000000E+00 0. -1.
         -4   -1    0    0    0  501 -0.00000000000E+00 -0.00000000000E+00 -0.24164228203E+04  0.24164228203E+04  0.00000000000E+00 0. -1.
   -9000010    2    1    2    0  502 -0.37404709823E+03 -0.35353063057E+03 -0.30233356875E+03  0.11741920468E+04  0.10111509470E+04 0.  0.
        -13    1    1    2    0    0  0.49127543750E+03  0.34924016753E+03 -0.16176041338E+04  0.17262570478E+04  0.10566000000E+00 0.  1.
         13    1    3    3    0    0  0.12700815798E+03 -0.91546470479E+02  0.30596712249E+03  0.34369713362E+03  0.10566000000E+00 0. -1.
          1    1    1    2  502    0 -0.11722833928E+03  0.42904630397E+01  0.54602455223E+03  0.55848339567E+03  0.00000000000E+00 0. -1.
         -4    1    3    3    0  502 -0.50105525621E+03 -0.26198416009E+03 -0.60830069123E+03  0.83049491321E+03  0.00000000000E+00 0. -1.
</event>
<event>
 7    1  0.4894942E-006  0.1036656E+04  0.7818608E-02  0.9029612E-01
          1   -1    0    0  501    0  0.00000000000E+00  0.00000000000E+00  0.79812445265E+03  0.79812445265E+03  0.00000000000E+00 0.  1.
         -4   -1    0    0    0  501 -0.00000000000E+00 -0.00000000000E+00 -0.10064698622E+04  0.10064698622E+04  0.00000000000E+00 0. -1.
   -9000010    2    1    2    0  502  0.31033353273E+03  0.41032516267E+01 -0.39786838899E+03  0.11097918921E+04  0.98844071683E+03 0.  0.
        -13    1    1    2    0    0 -0.31298483185E+03  0.88258828441E+01 -0.15545198976E+03  0.34957507557E+03  0.10566000000E+00 0.  1.
         13    1    3    3    0    0 -0.88155836921E+02 -0.35089341386E+03  0.10478231528E+03  0.37666561329E+03  0.10566000000E+00 0. -1.
          1    1    1    2  502    0  0.26512991105E+01 -0.12929134471E+02  0.34497496915E+03  0.34522734719E+03  0.00000000000E+00 0.  1.
         -4    1    3    3    0  502  0.39848936966E+03  0.35499666549E+03 -0.50265070427E+03  0.73312627885E+03  0.00000000000E+00 0. -1.
</event>
<event>
 7    1  0.4894942E-006  0.1122744E+04  0.7818608E-02  0.8934741E-01
          2   -1    0    0  501    0  0.00000000000E+00  0.00000000000E+00  0.63824856485E+03  0.63824856485E+03  0.00000000000E+00 0. -1.
         -4   -1    0    0    0  501 -0.00000000000E+00 -0.00000000000E+00 -0.15547067293E+04  0.15547067293E+04  0.00000000000E+00 0. -1.
   -9000010    2    1    2    0  502 -0.25302491974E+03 -0.25842748204E+03 -0.82480649028E+03  0.13931552153E+04  0.10629060796E+04 0.  0.
        -13    1    1    2    0    0  0.26123881979E+03  0.25012332044E+03 -0.37221672614E+03  0.51899200261E+03  0.10566000000E+00 0.  1.
         13    1    3    3    0    0 -0.26638133374E+03  0.37337222029E+03 -0.18704267787E+03  0.49532898599E+03  0.10566000000E+00 0. -1.
          2    1    1    2  502    0 -0.82139000502E+01  0.83041615957E+01  0.28056505200E+03  0.28080807620E+03  0.00000000000E+00 0. -1.
         -4    1    3    3    0  502  0.13356413994E+02 -0.63179970233E+03 -0.63776381241E+03  0.89782622933E+03  0.00000000000E+00 0. -1.
</event>
<event>
 7    1  0.4894942E-006  0.9971261E+03  0.7818608E-02  0.9145459E-01
         -4   -1    0    0    0  501 -0.00000000000E+00  0.00000000000E+00  0.34714203952E+03  0.34714203952E+03  0.00000000000E+00 0. -1.
          2   -1    0    0  501    0  0.00000000000E+00 -0.00000000000E+00 -0.24123518606E+04  0.24123518606E+04  0.00000000000E+00 0.  1.
   -9000010    2    1    2    0  502 -0.23754145529E+03 -0.27165939034E+02 -0.48110063711E+03  0.11107336333E+04  0.97216636943E+03 0.  0.
        -13    1    1    2    0    0  0.20553243224E+03  0.63120867785E+02 -0.33083918587E+03  0.39456609424E+03  0.10566000000E+00 0.  1.
         13    1    3    3    0    0 -0.57888379577E+03 -0.18610970174E+03 -0.39306061252E+03  0.72404414670E+03  0.10566000000E+00 0. -1.
          2    1    1    2  502    0  0.32009023050E+02 -0.35954928751E+02 -0.12532699981E+04  0.12541941726E+04  0.00000000000E+00 0.  1.
         -4    1    3    3    0  502  0.34134234048E+03  0.15894376271E+03 -0.88040024591E+02  0.38668948659E+03  0.00000000000E+00 0. -1.
</event>
<event>
 7    1  0.4894942E-006  0.1397259E+04  0.7818608E-02  0.8550590E-01
          2   -1    0    0  502    0  0.00000000000E+00  0.00000000000E+00  0.23367095974E+04  0.23367095974E+04  0.00000000000E+00 0. -1.
          4   -1    0    0  501    0 -0.00000000000E+00 -0.00000000000E+00 -0.15526331851E+04  0.15526331851E+04  0.00000000000E+00 0.  1.
    9000010    2    1    2  502    0 -0.40050824681E+03 -0.89608442553E+03 -0.22049880862E+03  0.14187365071E+04  0.10004096153E+04 0.  0.
        -13    1    3    3    0    0 -0.62735751623E+02 -0.59012541139E+03  0.34967305947E+03  0.68880696525E+03  0.10566000000E+00 0.  1.
         13    1    1    2    0    0  0.28826915653E+03  0.93104213059E+03 -0.40550183010E+03  0.10556373908E+04  0.10566000000E+00 0. -1.
          2    1    1    2  501    0  0.11223909028E+03 -0.34957705063E+02  0.14100770510E+04  0.14149688846E+04  0.00000000000E+00 0. -1.
          4    1    3    3  502    0 -0.33777249519E+03 -0.30595901414E+03 -0.57017186809E+03  0.72992954181E+03  0.00000000000E+00 0.  1.
</event>
<event>
 7    1  0.4894942E-006  0.1041658E+04  0.7818608E-02  0.9258445E-01
         -4   -1    0    0    0  501 -0.00000000000E+00  0.00000000000E+00  0.76232788726E+03  0.76232788726E+03  0.00000000000E+00 0. -1.
          4   -1    0    0  501    0  0.00000000000E+00 -0.00000000000E+00 -0.11868300591E+04  0.11868300591E+04  0.00000000000E+00 0. -1.
   -9000010    2    1    2    0  502 -0.91364099159E+02  0.92647877851E+02 -0.44313205923E+01  0.10422280533E+04  0.10340641424E+04 0.  0.
        -13    1    1    2    0    0  0.78099703094E+02 -0.98154385350E+02  0.22718603661E+03  0.25951368631E+03  0.10566000000E+00 0.  1.
         13    1    3    3    0    0 -0.56061210946E+03  0.96462793422E+02  0.43565100410E+02  0.57051637744E+03  0.10566000000E+00 0. -1.
          4    1    1    2  502    0  0.13264396065E+02  0.55065074993E+01 -0.64725688785E+03  0.64741620670E+03  0.00000000000E+00 0. -1.
         -4    1    3    3    0  502  0.46924801030E+03 -0.38149155704E+01 -0.47996421002E+02  0.47171167590E+03  0.00000000000E+00 0. -1.
</event>
<event>
 7    1  0.4894942E-006  0.1655163E+04  0.7818608E-02  0.9323328E-01
          1   -1    0    0  501    0  0.00000000000E+00  0.00000000000E+00  0.10559768446E+04  0.10559768446E+04  0.00000000000E+00 0. -1.
         -4   -1    0    0    0  501 -0.00000000000E+00 -0.00000000000E+00 -0.33791439719E+04  0.33791439719E+04  0.00000000000E+00 0. -1.
   -9000010    2    1    2    0  502  0.12592569546E+04 -0.24514156683E+03 -0.25237027888E+04  0.30094467117E+04  0.10207209602E+04 0.  0.
        -13    1    1    2    0    0  0.22401586836E+02 -0.98228876977E+01 -0.84676287059E+02  0.88138555522E+02  0.10566000000E+00 0.  1.
         13    1    3    3    0    0  0.99708305289E+03 -0.51094318009E+03 -0.12337202096E+04  0.16665242616E+04  0.10566000000E+00 0. -1.
          1    1    1    2  502    0 -0.12816585414E+04  0.25496445453E+03  0.28521194858E+03  0.13375355493E+04  0.00000000000E+00 0. -1.
         -4    1    3    3    0  502  0.26217390172E+03  0.26580161326E+03 -0.12899825792E+04  0.13429224501E+04  0.00000000000E+00 0. -1.
</event>
<event>
 7    1  0.4894942E-006  0.1112704E+04  0.7818608E-02  0.8857431E-01
          1   -1    0    0  501    0  0.00000000000E+00  0.00000000000E+00  0.26821154079E+04  0.26821154079E+04  0.00000000000E+00 0. -1.
         -4   -1    0    0    0  501 -0.00000000000E+00 -0.00000000000E+00 -0.28472258012E+03  0.28472258012E+03  0.00000000000E+00 0. -1.
   -9000010    2    1    2    0  502 -0.87011318482E+02 -0.47207704037E+03  0.17793041526E+04  0.20910588858E+04  0.98801634340E+03 0.  0.
        -13    1    1    2    0    0  0.12741791611E+02  0.52272936601E+03  0.47290282994E+03  0.70501449707E+03  0.10566000000E+00 0.  1.
         13    1    3    3    0    0 -0.42213324117E+03  0.68496448825E+02  0.46997242950E+03  0.63542295556E+03  0.10566000000E+00 0. -1.
          1    1    1    2  502    0  0.74269526871E+02 -0.50652325640E+02  0.14518584518E+03  0.17076460510E+03  0.00000000000E+00 0. -1.
         -4    1    3    3    0  502  0.33512192268E+03 -0.54057348920E+03  0.13093317231E+04  0.14556359302E+04  0.00000000000E+00 0. -1.
</event>
<event>
 7    1  0.4894942E-006  0.1037063E+04  0.7818608E-02  0.9092368E-01
         -4   -1    0    0    0  501 -0.00000000000E+00  0.00000000000E+00  0.18828589167E+04  0.18828589167E+04  0.00000000000E+00 0. -1.
          5   -1    0    0  501    0  0.00000000000E+00 -0.00000000000E+00 -0.52985484177E+03  0.52985484177E+03  0.00000000000E+00 0. -1.
   -9000010    2    1    2    0  502  0.67268015251E+02 -0.52453084798E+02  0.13138073909E+04  0.16505443916E+04  0.99545497951E+03 0.  0.
        -13    1    1    2    0    0  0.23423411313E+03  0.64489770770E+02  0.28390865536E+03  0.37366922008E+03  0.10566000000E+00 0.  1.
         13    1    3    3    0    0  0.38412224990E+03 -0.29810281024E+03  0.10848996253E+04  0.11888744242E+04  0.10566000000E+00 0. -1.
          5    1    1    2  502    0 -0.30150212838E+03 -0.12036685972E+02 -0.24471197126E+03  0.38850014685E+03  0.00000000000E+00 0. -1.
         -4    1    3    3    0  502 -0.31685423465E+03  0.24564972545E+03  0.22890776555E+03  0.46166996736E+03  0.00000000000E+00 0. -1.
</event>
<event>
 7    1  0.4894942E-006  0.1041758E+04  0.7818608E-02  0.9064787E-01
          2   -1    0    0  501    0  0.00000000000E+00  0.00000000000E+00  0.19841637154E+04  0.19841637154E+04  0.00000000000E+00 0.  1.
         -4   -1    0    0    0  501 -0.00000000000E+00 -0.00000000000E+00 -0.42312172318E+03  0.42312172318E+03  0.00000000000E+00 0. -1.
   -9000010    2    1    2    0  502  0.27868241689E+03  0.35125531137E+02  0.30918318331E+03  0.10900528912E+04  0.10068383050E+04 0.  0.
        -13    1    1    2    0    0 -0.25653027569E+03 -0.24614060333E+02  0.47849846863E+03  0.54348360597E+03  0.10566000000E+00 0.  1.
         13    1    3    3    0    0 -0.12737659717E+02 -0.28466077403E+03  0.53191774753E+03  0.60343227089E+03  0.10566000000E+00 0. -1.
          2    1    1    2  502    0 -0.22152141197E+02 -0.10511470804E+02  0.77336034031E+03  0.77374894142E+03  0.00000000000E+00 0.  1.
         -4    1    3    3    0  502  0.29142007661E+03  0.31978630517E+03 -0.22273456423E+03  0.48662062033E+03  0.00000000000E+00 0. -1.
</event>
<event>
 7    1  0.4894942E-006  0.1166457E+04  0.7818608E-02  0.8834247E-01
          1   -1    0    0  501    0  0.00000000000E+00  0.00000000000E+00  0.12575438580E+04  0.12575438580E+04  0.00000000000E+00 0. -1.
         -4   -1    0    0    0  501 -0.00000000000E+00 -0.00000000000E+00 -0.12343546156E+04  0.12343546156E+04  0.00000000000E+00 0. -1.
   -9000010    2    1    2    0  502  0.45008803605E+02 -0.43313183633E+03  0.25582320752E+03  0.11730351233E+04  0.10587430788E+04 0.  0.
        -13    1    1    2    0    0  0.91318183744E+02  0.48911541410E+03 -0.68298620211E+03  0.84501068776E+03  0.10566000000E+00 0.  1.
         13    1    3    3    0    0  0.52337930502E+03 -0.42204669413E+02  0.15152751726E+03  0.54650501434E+03  0.10566000000E+00 0. -1.
          1    1    1    2  502    0 -0.13632698735E+03 -0.55983577766E+02  0.45035223692E+03  0.47385266250E+03  0.00000000000E+00 0. -1.
         -4    1    3    3    0  502 -0.47837050142E+03 -0.39092716692E+03  0.10429569027E+03  0.62653010899E+03  0.00000000000E+00 0. -1.
</event>
<event>
 7    1  0.4894942E-006  0.1098286E+04  0.7818608E-02  0.8885221E-01
          2   -1    0    0  502    0  0.00000000000E+00  0.00000000000E+00  0.25571761140E+04  0.25571761140E+04  0.00000000000E+00 0.  1.
          4   -1    0    0  501    0 -0.00000000000E+00 -0.00000000000E+00 -0.35815217492E+03  0.35815217492E+03  0.00000000000E+00 0.  1.
    9000010    2    1    2  502    0  0.45398697873E+03  0.10479983863E+03  0.12527085047E+04  0.16636998930E+04  0.99072274281E+03 0.  0.
        -13    1    3    3    0    0  0.49543323308E+03  0.36405455559E+03  0.12589799145E+04  0.14010782434E+04  0.10566000000E+00 0.  1.
         13    1    1    2    0    0 -0.46078984718E+03 -0.11986868728E+03  0.21891755191E+03  0.52404264249E+03  0.10566000000E+00 0. -1.
          2    1    1    2  501    0  0.68028684493E+01  0.15068848656E+02  0.72739788240E+03  0.72758575339E+03  0.00000000000E+00 0.  1.
          4    1    3    3  502    0 -0.41446254350E+02 -0.25925471697E+03 -0.62714097258E+01  0.26262164962E+03  0.00000000000E+00 0.  1.
</event>
<event>
 7    1  0.4894942E-006  0.1017572E+04  0.7818608E-02  0.9215156E-01
          2   -1    0    0  501    0  0.00000000000E+00  0.00000000000E+00  0.15166202056E+04  0.15166202056E+04  0.00000000000E+00 0. -1.
         -4   -1    0    0    0  501 -0.00000000000E+00 -0.00000000000E+00 -0.30901726737E+03  0.30901726737E+03  0.00000000000E+00 0. -1.
   -9000010    2    1    2    0  502  0.10768865074E+03 -0.93598882242E+02  0.64468483653E+03  0.12025511322E+04  0.10050637247E+04 0.  0.
        -13    1    1    2    0    0 -0.12330201799E+03  0.10662901483E+03  0.19308864127E+03  0.25269817767E+03  0.10566000000E+00 0.  1.
         13    1    3    3    0    0 -0.17685912905E+03 -0.10342280008E+03  0.83520707383E+03  0.85996877527E+03  0.10566000000E+00 0. -1.
          2    1    1    2  502    0  0.15613367244E+02 -0.13030132587E+02  0.36982946041E+03  0.37038816312E+03  0.00000000000E+00 0. -1.
         -4    1    3    3    0  502  0.28454777979E+03  0.98239178335E+01 -0.19052223730E+03  0.34258235689E+03  0.00000000000E+00 0. -1.
</event>
<event>
 7    1  0.4894942E-006  0.1236192E+04  0.7818608E-02  0.8694609E-01
          2   -1    0    0  501    0  0.00000000000E+00  0.00000000000E+00  0.72565025328E+03  0.72565025328E+03  0.00000000000E+00 0. -1.
         -4   -1    0    0    0  501 -0.00000000000E+00 -0.00000000000E+00 -0.25141433618E+04  0.25141433618E+04  0.00000000000E+00 0. -1.
   -9000010    2    1    2    0  502  0.61227039024E+03 -0.43391790478E+03 -0.15727582780E+04  0.20019608583E+04  0.98545365093E+03 0.  0.
        -13    1    1    2    0    0 -0.60177532581E+03  0.43539670277E+03 -0.53689776642E+03  0.91649498324E+03  0.10566000000E+00 0.  1.
         13    1    3    3    0    0  0.88211686790E+03 -0.35511580564E+03 -0.11223375984E+04  0.14710129503E+04  0.10566000000E+00 0. -1.
          2    1    1    2  502    0 -0.10495064421E+02 -0.14787979944E+01  0.32116293600E+03  0.32133777351E+03  0.00000000000E+00 0. -1.
         -4    1    3    3    0  502 -0.26984647766E+03 -0.78802099140E+02 -0.45042067964E+03  0.53094790798E+03  0.00000000000E+00 0. -1.
</event>
<event>
 7    1  0.4894942E-006  0.1074264E+04  0.7818608E-02  0.8960315E-01
          4   -1    0    0  501    0 -0.00000000000E+00  0.00000000000E+00  0.16361783548E+04  0.16361783548E+04  0.00000000000E+00 0.  1.
          2   -1    0    0  502    0  0.00000000000E+00 -0.00000000000E+00 -0.63497128303E+03  0.63497128303E+03  0.00000000000E+00 0.  1.
    9000010    2    1    2  502    0 -0.50665458389E+03  0.14179797582E+03  0.49195932276E+03  0.12388055652E+04  0.10078738610E+04 0.  0.
        -13    1    3    3    0    0  0.29796162241E+03  0.93386672052E+02  0.40361150972E+02  0.31485112770E+03  0.10566000000E+00 0.  1.
         13    1    1    2    0    0  0.31145781536E+03 -0.17077762249E+03  0.68272304392E+03  0.76959842317E+03  0.10566000000E+00 0. -1.
          2    1    1    2  501    0  0.19519676853E+03  0.28979646673E+02 -0.17347529491E+03  0.26274564946E+03  0.00000000000E+00 0.  1.
          4    1    3    3  502    0 -0.80461620629E+03  0.48411303763E+02  0.45159817178E+03  0.92395443747E+03  0.00000000000E+00 0.  1.
</event>
<event>
 7    1  0.4894942E-006  0.1179117E+04  0.7818608E-02  0.8807075E-01
         -4   -1    0    0    0  501 -0.00000000000E+00  0.00000000000E+00  0.23903100118E+04  0.23903100118E+04  0.00000000000E+00 0. -1.
          2   -1    0    0  501    0  0.00000000000E+00 -0.00000000000E+00 -0.62710341344E+03  0.62710341344E+03  0.00000000000E+00 0.  1.
   -9000010    2    1    2    0  502 -0.35316305694E+03  0.72265235206E+03  0.77124768291E+03  0.14927773086E+04  0.99328270803E+03 0.  0.
        -13    1    1    2    0    0 -0.21231563750E+03 -0.48722801441E+03  0.57876443533E+03  0.78577181848E+03  0.10566000000E+00 0.  1.
         13    1    3    3    0    0  0.12484972946E+03 -0.16951372554E+03  0.32358625390E+03  0.38604459972E+03  0.10566000000E+00 0. -1.
          2    1    1    2  502    0  0.56547869444E+03 -0.23542433765E+03  0.41319448008E+03  0.73886429809E+03  0.00000000000E+00 0.  1.
         -4    1    3    3    0  502 -0.47801278640E+03  0.89216607760E+03  0.44766142901E+03  0.11067327089E+04  0.00000000000E+00 0. -1.
</event>
<event>
 7    1  0.4894942E-006  0.1236243E+04  0.7818608E-02  0.8701180E-01
         -4   -1    0    0    0  501 -0.00000000000E+00  0.00000000000E+00  0.14016467233E+04  0.14016467233E+04  0.00000000000E+00 0. -1.
          2   -1    0    0  501    0  0.00000000000E+00 -0.00000000000E+00 -0.21446167855E+04  0.21446167855E+04  0.00000000000E+00 0. -1.
   -9000010    2    1    2    0  502 -0.64530891833E+03 -0.39165671446E+03 -0.24429721190E+03  0.12773801815E+04  0.10010996045E+04 0.  0.
        -13    1    1    2    0    0  0.67900281054E+03  0.24538693425E+03  0.73255432987E+03  0.10285404327E+04  0.10566000000E+00 0.  1.
         13    1    3    3    0    0 -0.87587585308E+02  0.27287906769E+03 -0.29117364449E+03  0.40855436981E+03  0.10566000000E+00 0. -1.
          2    1    1    2  502    0 -0.33693892213E+02  0.14626978021E+03 -0.12312271802E+04  0.12403428946E+04  0.00000000000E+00 0. -1.
         -4    1    3    3    0  502 -0.55772133302E+03 -0.66453578215E+03  0.46876432585E+02  0.86882581165E+03  0.00000000000E+00 0. -1.
</event>
<event>
 7    1  0.4894942E-006  0.1109827E+04  0.7818608E-02  0.8868191E-01
         -4   -1    0    0    0  501 -0.00000000000E+00  0.00000000000E+00  0.41592607726E+03  0.41592607726E+03  0.00000000000E+00 0. -1.
          2   -1    0    0  501    0  0.00000000000E+00 -0.00000000000E+00 -0.24011026649E+04  0.24011026649E+04  0.00000000000E+00 0. -1.
   -9000010    2    1    2    0  502  0.53363328620E+03  0.21400702644E+03 -0.69219725970E+03  0.13409844209E+04  0.99425282459E+03 0.  0.
        -13    1    1    2    0    0 -0.42458887496E+03 -0.13931445042E+03 -0.49366136539E+03  0.66587219770E+03  0.10566000000E+00 0.  1.
         13    1    3    3    0    0  0.41699688881E+03  0.15744960092E+03  0.16406390683E+03  0.47496711339E+03  0.10566000000E+00 0. -1.
          2    1    1    2  502    0 -0.10904441125E+03 -0.74692576018E+02 -0.79931796256E+03  0.81017212357E+03  0.00000000000E+00 0. -1.
         -4    1    3    3    0  502  0.11663639739E+03  0.56557425518E+02 -0.85626116653E+03  0.86601730750E+03  0.00000000000E+00 0. -1.
</event>
<event>
 7    1  0.4894942E-006  0.1053905E+04  0.7818608E-02  0.9019998E-01
          4   -1    0    0  501    0 -0.00000000000E+00  0.00000000000E+00  0.12078653453E+04  0.12078653453E+04  0.00000000000E+00 0.  1.
          2   -1    0    0  502    0  0.00000000000E+00 -0.00000000000E+00 -0.61519513309E+03  0.61519513309E+03  0.00000000000E+00 0.  1.
    9000010    2    1    2  502    0 -0.40907813975E+03  0.17516373888E+03  0.39225391640E+03  0.11692122882E+04  0.10075549514E+04 0.  0.
        -13    1    3    3    0    0 -0.28458726566E+03  0.53005086542E+03  0.49528794592E+03  0.77926503338E+03  0.10566000000E+00 0.  1.
         13    1    1    2    0    0  0.19703451079E+03 -0.21706678661E+03  0.29681579432E+03  0.41718127380E+03  0.10566000000E+00 0. -1.
          2    1    1    2  501    0  0.21204362895E+03  0.41903047736E+02 -0.96399498514E+02  0.23666691637E+03  0.00000000000E+00 0.  1.
          4    1    3    3  502    0 -0.12449087408E+03 -0.35488712654E+03 -0.10303402952E+03  0.38994725483E+03  0.00000000000E+00 0.  1.
</event>
<event>
 7    1  0.4894942E-006  0.1208580E+04  0.7818608E-02  0.8733336E-01
          4   -1    0    0  501    0 -0.00000000000E+00  0.00000000000E+00  0.10165703465E+04  0.10165703465E+04  0.00000000000E+00 0.  1.
          2   -1    0    0  502    0  0.00000000000E+00 -0.00000000000E+00 -0.11554590572E+04  0.11554590572E+04  0.00000000000E+00 0.  1.
    9000010    2    1    2  502    0  0.41176340878E+02  0.68027142247E+03  0.27414654299E+03  0.12424259601E+04  0.10019986227E+04 0.  0.
        -13    1    3    3    0    0  0.46983244062E+02  0.81270262342E+03  0.51798565181E+03  0.96488451433E+03  0.10566000000E+00 0.  1.
         13    1    1    2    0    0 -0.66575756450E+02 -0.66751233215E+03 -0.17960851721E+03  0.69445250057E+03  0.10566000000E+00 0. -1.
          2    1    1    2  501    0  0.25399415572E+02 -0.12759090315E+02 -0.23342673649E+03  0.23515094303E+03  0.00000000000E+00 0.  1.
          4    1    3    3  502    0 -0.58069031840E+01 -0.13243120095E+03 -0.24383910883E+03  0.27754144574E+03  0.00000000000E+00 0.  1.
</event>
<event>
 7    1  0.4894942E-006  0.1134046E+04  0.7818608E-02  0.8832441E-01
          2   -1    0    0  502    0  0.00000000000E+00  0.00000000000E+00  0.12257558947E+04  0.12257558947E+04  0.00000000000E+00 0. -1.
          4   -1    0    0  501    0 -0.00000000000E+00 -0.00000000000E+00 -0.67421038884E+03  0.67421038884E+03  0.00000000000E+00 0.  1.
    9000010    2    1    2  502    0  0.50747765529E+03  0.28759327656E+02  0.23507112514E+03  0.11452083265E+04  0.99894094307E+03 0.  0.
        -13    1    3    3    0    0  0.28783441196E+03  0.51342859667E+03  0.11580936211E+03  0.59989115021E+03  0.10566000000E+00 0.  1.
         13    1    1    2    0    0 -0.55185823246E+03  0.64079588294E+01  0.13993494745E+03  0.56935961514E+03  0.10566000000E+00 0. -1.
          2    1    1    2  501    0  0.44380577173E+02 -0.35167286485E+02  0.17653943331E+03  0.18539834191E+03  0.00000000000E+00 0. -1.
          4    1    3    3  502    0  0.21964324333E+03 -0.48466926902E+03  0.11926176303E+03  0.54531717632E+03  0.00000000000E+00 0.  1.
</event>
<event>
 7    1  0.4894942E-006  0.1023157E+04  0.7818608E-02  0.9179779E-01
         -2   -1    0    0    0  501  0.00000000000E+00  0.00000000000E+00  0.51225305060E+03  0.51225305060E+03  0.00000000000E+00 0.  1.
         -4   -1    0    0    0  502 -0.00000000000E+00 -0.00000000000E+00 -0.14309320884E+04  0.14309320884E+04  0.00000000000E+00 0. -1.
   -9000010    2    1    2    0  501  0.18824053080E+03 -0.13140146937E+02 -0.11665550237E+04  0.15527717553E+04  0.10072945646E+04 0.  0.
        -13    1    1    2    0    0 -0.17367159009E+03  0.15496119911E+02  0.36019094181E+02  0.17804307694E+03  0.10566000000E+00 0.  1.
         13    1    3    3    0    0  0.31389722359E+03 -0.42733654775E+03 -0.89958740374E+03  0.10442248322E+04  0.10566000000E+00 0. -1.
         -2    1    1    2    0  502 -0.14568940709E+02 -0.23559729745E+01  0.21185689170E+03  0.21237030679E+03  0.00000000000E+00 0.  1.
         -4    1    3    3    0  501 -0.12565669279E+03  0.41419640081E+03 -0.26696761993E+03  0.50854692309E+03  0.00000000000E+00 0. -1.
</event>
<event>
 7    1  0.4894942E-006  0.1012884E+04  0.7818608E-02  0.9294634E-01
         -4   -1    0    0    0  501 -0.00000000000E+00  0.00000000000E+00  0.13919317135E+04  0.13919317135E+04  0.00000000000E+00 0. -1.
          2   -1    0    0  501    0  0.00000000000E+00 -0.00000000000E+00 -0.63084054266E+03  0.63084054266E+03  0.00000000000E+00 0.  1.
   -9000010    2    1    2    0  502 -0.31963774462E+02 -0.10961997193E+03  0.11534785208E+04  0.15347083722E+04  0.10058721929E+04 0.  0.
        -13    1    1    2    0    0  0.45555252122E+02  0.11218014067E+03 -0.29115256423E+02  0.12452860826E+03  0.10566000000E+00 0.  1.
         13    1    3    3    0    0  0.43542015861E+03 -0.16143969173E+03  0.86847345725E+03  0.98483483169E+03  0.10566000000E+00 0. -1.
          2    1    1    2  502    0 -0.13591477660E+02 -0.25601687319E+01 -0.36327209357E+03  0.36353527572E+03  0.00000000000E+00 0.  1.
         -4    1    3    3    0  502 -0.46738393308E+03  0.51819719800E+02  0.28500506356E+03  0.54987354047E+03  0.00000000000E+00 0. -1.
</event>
<event>
 7    1  0.4894942E-006  0.1024042E+04  0.7818608E-02  0.9108006E-01
          2   -1    0    0  501    0  0.00000000000E+00  0.00000000000E+00  0.65032534171E+03  0.65032534171E+03  0.00000000000E+00 0. -1.
         -4   -1    0    0    0  501 -0.00000000000E+00 -0.00000000000E+00 -0.10152882281E+04  0.10152882281E+04  0.00000000000E+00 0. -1.
   -9000010    2    1    2    0  502 -0.15583984813E+03  0.14834568219E+03 -0.52039354514E+03  0.11443367975E+04  0.99619514382E+03 0.  0.
        -13    1    1    2    0    0  0.21966490755E+03 -0.10914612583E+03 -0.92599620543E+02  0.26218361749E+03  0.10566000000E+00 0.  1.
         13    1    3    3    0    0  0.13179052974E+03 -0.29944625912E+03  0.85238908226E+02  0.33808651033E+03  0.10566000000E+00 0. -1.
          2    1    1    2  502    0 -0.63825059415E+02 -0.39199556360E+02  0.24803027930E+03  0.25909315482E+03  0.00000000000E+00 0. -1.
         -4    1    3    3    0  502 -0.28763037787E+03  0.44779194131E+03 -0.60563245336E+03  0.80625028716E+03  0.00000000000E+00 0. -1.
</event>
<event>
 6    1  0.4894942E-006  0.5439189E+03  0.7818608E-02  0.9490890E-01
         -4   -1    0    0    0  501 -0.00000000000E+00  0.00000000000E+00  0.64137633132E+03  0.64137633132E+03  0.00000000000E+00 0. -1.
          1   -1    0    0  501    0  0.00000000000E+00 -0.00000000000E+00 -0.16703234093E+04  0.16703234093E+04  0.00000000000E+00 0.  1.
        -13    1    1    2    0    0 -0.32511193909E+03 -0.11847279468E+03 -0.94603525496E+03  0.10073312716E+04  0.10566000000E+00 0.  1.
         13    1    1    2    0    0  0.37597905449E+03  0.23895565552E+03  0.42396008760E+03  0.61498148083E+03  0.10566000000E+00 0. -1.
          1    1    1    2  502    0 -0.18849816832E+02 -0.27489689896E+02 -0.57100282396E+03  0.57197484526E+03  0.00000000000E+00 0.  1.
         -4    1    1    2    0  502 -0.32017298569E+02 -0.92993170939E+02  0.64130913347E+02  0.11741214288E+03  0.00000000000E+00 0. -1.
</event>
<event>
 7    1  0.4894942E-006  0.1426214E+04  0.7818608E-02  0.8535048E-01
          1   -1    0    0  501    0  0.00000000000E+00  0.00000000000E+00  0.33711905360E+04  0.33711905360E+04  0.00000000000E+00 0.  1.
         -4   -1    0    0    0  501 -0.00000000000E+00 -0.00000000000E+00 -0.17615585186E+04  0.17615585186E+04  0.00000000000E+00 0. -1.
   -9000010    2    1    2    0  502  0.10766564656E+04  0.60647361547E+03 -0.50049885310E+03  0.16864604578E+04  0.10327876755E+04 0.  0.
        -13    1    1    2    0    0 -0.90641338573E+03  0.66314876981E+02 -0.28513197432E+03  0.95251411679E+03  0.10566000000E+00 0.  1.
         13    1    3    3    0    0 -0.98823246800E+02 -0.16140167330E+03  0.17122829930E+02  0.19002562122E+03  0.10566000000E+00 0. -1.
          1    1    1    2  502    0 -0.17024307986E+03 -0.67278849245E+03  0.23952628448E+04  0.24937744801E+04  0.00000000000E+00 0.  1.
         -4    1    3    3    0  502  0.11754797124E+04  0.76787528877E+03 -0.51762168303E+03  0.14964348366E+04  0.00000000000E+00 0. -1.
</event>
<event>
 7    1  0.4894942E-006  0.1161817E+04  0.7818608E-02  0.8793894E-01
         -4   -1    0    0    0  501  0.00000000000E+00  0.00000000000E+00  0.21462630561E+04  0.21462630561E+04  0.00000000000E+00 0.  1.
         -4   -1    0    0    0  502 -0.00000000000E+00 -0.00000000000E+00 -0.88268072555E+03  0.88268072555E+03  0.00000000000E+00 0. -1.
   -9000010    2    1    2    0  501  0.42785582375E+03  0.38472212316E+03  0.37213044927E+03  0.12141936490E+04  0.10023539435E+04 0.  0.
        -13    1    1    2    0    0 -0.47862918718E+03 -0.34662302782E+03 -0.27130532179E+03  0.65026149434E+03  0.10566000000E+00 0.  1.
         13    1    3    3    0    0 -0.17123654686E+03  0.29363968130E+03 -0.18847145866E+03  0.38867431007E+03  0.10566000000E+00 0. -1.
         -4    1    1    2    0  502  0.50773363425E+02 -0.38099095337E+02  0.11627572031E+04  0.11644886384E+04  0.00000000000E+00 0.  1.
         -4    1    3    3    0  501  0.59909237061E+03  0.91082441853E+02  0.56060190793E+03  0.82551933891E+03  0.00000000000E+00 0. -1.
</event>
<event>
 7    1  0.4894942E-006  0.1161425E+04  0.7818608E-02  0.8826565E-01
          4   -1    0    0  501    0 -0.00000000000E+00  0.00000000000E+00  0.23162470001E+04  0.23162470001E+04  0.00000000000E+00 0.  1.
          2   -1    0    0  502    0  0.00000000000E+00 -0.00000000000E+00 -0.69462100361E+03  0.69462100361E+03  0.00000000000E+00 0.  1.
    9000010    2    1    2  502    0  0.36988873975E+03 -0.38217405210E+03  0.43612879432E+03  0.12488363955E+04  0.10423575834E+04 0.  0.
        -13    1    3    3    0    0  0.26618565214E+03 -0.38737826352E+03 -0.26532769715E+03  0.53973652692E+03  0.10566000000E+00 0.  1.
         13    1    1    2    0    0 -0.35450577296E+03  0.36680489477E+03  0.14291235480E+04  0.15174367534E+04  0.10566000000E+00 0. -1.
          2    1    1    2  501    0 -0.15382966792E+02  0.15369157331E+02 -0.24362634580E+03  0.24459485487E+03  0.00000000000E+00 0.  1.
          4    1    3    3  502    0  0.10370308761E+03  0.52042114220E+01  0.70145649147E+03  0.70909986858E+03  0.00000000000E+00 0.  1.
</event>
<event>
 7    1  0.4894942E-006  0.1199317E+04  0.7818608E-02  0.8753124E-01
         -4   -1    0    0    0  501 -0.00000000000E+00  0.00000000000E+00  0.14395893148E+04  0.14395893148E+04  0.00000000000E+00 0. -1.
          2   -1    0    0  501    0  0.00000000000E+00 -0.00000000000E+00 -0.16556813761E+04  0.16556813761E+04  0.00000000000E+00 0.  1.
   -9000010    2    1    2    0  502  0.39683531219E+03  0.48685040961E+03  0.15808625967E+03  0.12059181394E+04  0.10172245116E+04 0.  0.
        -13    1    1    2    0    0 -0.43342046616E+03 -0.46738312727E+03  0.62300342351E+03  0.89131002744E+03  0.10566000000E+00 0.  1.
         13    1    3    3    0    0  0.30456515104E+03 -0.59491911626E+02  0.47516924415E+03  0.56752536554E+03  0.10566000000E+00 0. -1.
          2    1    1    2  502    0  0.36585153972E+02 -0.19467282333E+02 -0.99718174446E+03  0.99804252417E+03  0.00000000000E+00 0.  1.
         -4    1    3    3    0  502  0.92270161144E+02  0.54634232123E+03 -0.31708298448E+03  0.63839277381E+03  0.00000000000E+00 0. -1.
</event>
<event>
 7    1  0.4894942E-006  0.1069777E+04  0.7818608E-02  0.9367147E-01
          2   -1    0    0  502    0  0.00000000000E+00  0.00000000000E+00  0.18973867048E+04  0.18973867048E+04  0.00000000000E+00 0.  1.
          4   -1    0    0  501    0 -0.00000000000E+00 -0.00000000000E+00 -0.45915624431E+03  0.45915624431E+03  0.00000000000E+00 0.  1.
    9000010    2    1    2  502    0 -0.17249108262E+03 -0.45995174720E+03  0.33957810235E+03  0.11442550889E+04  0.97606231238E+03 0.  0.
        -13    1    3    3    0    0  0.15850852053E+01 -0.60334163038E+03 -0.13549210393E+03  0.61837024252E+03  0.10566000000E+00 0.  1.
         13    1    1    2    0    0 -0.21431615490E+02  0.73812768307E+02  0.12022057189E+03  0.14269070038E+03  0.10566000000E+00 0. -1.
          2    1    1    2  501    0  0.19392269811E+03  0.38613897890E+03  0.97843178620E+03  0.10695971597E+04  0.00000000000E+00 0.  1.
          4    1    3    3  502    0 -0.17407616782E+03  0.14338988318E+03  0.47507020628E+03  0.52588484642E+03  0.00000000000E+00 0.  1.
</event>
<event>
 7    1  0.4894942E-006  0.1164370E+04  0.7818608E-02  0.8808298E-01
          4   -1    0    0  501    0 -0.00000000000E+00  0.00000000000E+00  0.17252072573E+04  0.17252072573E+04  0.00000000000E+00 0.  1.
          2   -1    0    0  502    0  0.00000000000E+00 -0.00000000000E+00 -0.52859837807E+03  0.52859837807E+03  0.00000000000E+00 0. -1.
    9000010    2    1    2  502    0 -0.38528377269E+03 -0.34223093518E+03  0.99113719323E+03  0.15172945667E+04  0.10267737180E+04 0.  0.
        -13    1    3    3    0    0  0.34965133731E+03 -0.39116536840E+02  0.26328827960E+03  0.43943929100E+03  0.10566000000E+00 0.  1.
         13    1    1    2    0    0  0.49698513234E+03  0.30464321242E+03  0.13217632758E+03  0.59772259568E+03  0.10566000000E+00 0. -1.
          2    1    1    2  501    0 -0.11170135965E+03  0.37587722758E+02  0.73295358366E+02  0.13878847290E+03  0.00000000000E+00 0. -1.
          4    1    3    3  502    0 -0.73493511000E+03 -0.30311439834E+03  0.72784891364E+03  0.10778552758E+04  0.00000000000E+00 0.  1.
</event>
<event>
 7    1  0.4894942E-006  0.9900530E+03  0.7818608E-02  0.9797248E-01
         -4   -1    0    0    0  501 -0.00000000000E+00  0.00000000000E+00  0.20365371576E+03  0.20365371576E+03  0.00000000000E+00 0. -1.
          2   -1    0    0  501    0  0.00000000000E+00 -0.00000000000E+00 -0.33308596798E+04  0.33308596798E+04  0.00000000000E+00 0. -1.
   -9000010    2    1    2    0  502  0.53727863831E+01  0.14716169410E+02 -0.19389784405E+04  0.21770742918E+04  0.98983314090E+03 0.  0.
        -13    1    1    2    0    0 -0.20126109509E+02 -0.55262839680E+01  0.83258307465E+02  0.85834474568E+02  0.10566000000E+00 0.  1.
         13    1    3    3    0    0 -0.28824920292E+03 -0.95155456533E+02 -0.11225011108E+03  0.32363909296E+03  0.10566000000E+00 0. -1.
          2    1    1    2  502    0  0.14753323126E+02 -0.91898854423E+01 -0.12714858311E+04  0.12716046293E+04  0.00000000000E+00 0. -1.
         -4    1    3    3    0  502  0.29362198930E+03  0.10987162594E+03 -0.18267283294E+04  0.18534351988E+04  0.00000000000E+00 0. -1.
</event>
<event>
 7    1  0.4894942E-006  0.1062588E+04  0.7818608E-02  0.8983233E-01
         -4   -1    0    0    0  502 -0.00000000000E+00  0.00000000000E+00  0.20053917672E+04  0.20053917672E+04  0.00000000000E+00 0. -1.
         -2   -1    0    0    0  501  0.00000000000E+00 -0.00000000000E+00 -0.27729892197E+03  0.27729892197E+03  0.00000000000E+00 0. -1.
   -9000010    2    1    2    0  501 -0.94505212523E+01  0.34184992774E+03  0.12914145326E+04  0.16707275412E+04  0.10033086945E+04 0.  0.
        -13    1    1    2    0    0  0.41556128963E+02 -0.35037945890E+03  0.45360981328E+03  0.57467778010E+03  0.10566000000E+00 0.  1.
         13    1    3    3    0    0 -0.49631693731E+03  0.27639203802E+03  0.66318178593E+03  0.87323144314E+03  0.10566000000E+00 0. -1.
         -2    1    1    2    0  502 -0.32105607711E+02  0.85295311596E+01 -0.16931500599E+02  0.37285367918E+02  0.00000000000E+00 0. -1.
         -4    1    3    3    0  501  0.48686641606E+03  0.65457889715E+02  0.62823274665E+03  0.79749609803E+03  0.00000000000E+00 0. -1.
</event>
<event>
 7    1  0.4894942E-006  0.1045964E+04  0.7818608E-02  0.9113908E-01
          4   -1    0    0  501    0 -0.00000000000E+00  0.00000000000E+00  0.22874689429E+03  0.22874689429E+03  0.00000000000E+00 0.  1.
          2   -1    0    0  502    0  0.00000000000E+00 -0.00000000000E+00 -0.23155323017E+04  0.23155323017E+04  0.00000000000E+00 0.  1.
    9000010    2    1    2  502    0 -0.21105904672E+03  0.47647247837E+02 -0.11232190525E+04  0.15346631819E+04  0.10231098967E+04 0.  0.
        -13    1    3    3    0    0 -0.46389749638E+01  0.43527672463E+03 -0.98067336084E+03  0.10729434276E+04  0.10566000000E+00 0.  1.
         13    1    1    2    0    0  0.21595956109E+03 -0.30396944284E+02 -0.49747052807E+03  0.54317533423E+03  0.10566000000E+00 0. -1.
          2    1    1    2  501    0 -0.49005143646E+01 -0.17250303553E+02 -0.46609582683E+03  0.46644067983E+03  0.00000000000E+00 0.  1.
          4    1    3    3  502    0 -0.20642007176E+03 -0.38762947679E+03 -0.14254569168E+03  0.46171975431E+03  0.00000000000E+00 0.  1.
</event>
<event>
 7    1  0.4894942E-006  0.1039948E+04  0.7818608E-02  0.9085946E-01
          4   -1    0    0  501    0 -0.00000000000E+00  0.00000000000E+00  0.17935748956E+04  0.17935748956E+04  0.00000000000E+00 0.  1.
          2   -1    0    0  502    0  0.00000000000E+00 -0.00000000000E+00 -0.38549734892E+03  0.38549734892E+03  0.00000000000E+00 0. -1.
    9000010    2    1    2  502    0  0.24723081778E+03 -0.23769637833E+03  0.57531563011E+03  0.12094936922E+04  0.10071068819E+04 0.  0.
        -13    1    3    3    0    0 -0.28753657088E+03  0.11146296429E+03 -0.53767772622E+02  0.31303714881E+03  0.10566000000E+00 0.  1.
         13    1    1    2    0    0  0.20173199698E+01  0.24714297697E+03  0.41411984986E+03  0.48226443147E+03  0.10566000000E+00 0. -1.
          2    1    1    2  501    0 -0.24924813775E+03 -0.94465986381E+01  0.41864206673E+03  0.48731412091E+03  0.00000000000E+00 0. -1.
          4    1    3    3  502    0  0.53476738866E+03 -0.34915934262E+03  0.62908340274E+03  0.89645654335E+03  0.00000000000E+00 0.  1.
</event>
<event>
 7    1  0.4894942E-006  0.1011449E+04  0.7818608E-02  0.9336762E-01
          1   -1    0    0  501    0  0.00000000000E+00  0.00000000000E+00  0.39985767939E+04  0.39985767939E+04  0.00000000000E+00 0.  1.
         -4   -1    0    0    0  501 -0.00000000000E+00 -0.00000000000E+00 -0.13412598164E+03  0.13412598164E+03  0.00000000000E+00 0. -1.
   -9000010    2    1    2    0  502  0.46231716768E+02 -0.80217494665E+02  0.24271083015E+04  0.26290818219E+04  0.10063022910E+04 0.  0.
        -13    1    1    2    0    0 -0.27566799409E+02  0.98500307939E+02  0.46203172111E+02  0.11223628366E+03  0.10566000000E+00 0.  1.
         13    1    3    3    0    0  0.51662629037E+03  0.57656421129E+02  0.12063889267E+04  0.13136214221E+04  0.10566000000E+00 0. -1.
          1    1    1    2  502    0 -0.18664917359E+02 -0.18282813274E+02  0.13911393387E+04  0.13913846700E+04  0.00000000000E+00 0.  1.
         -4    1    3    3    0  502 -0.47039457360E+03 -0.13787391579E+03  0.12207193748E+04  0.13154603998E+04  0.00000000000E+00 0. -1.
</event>
<event>
 7    1  0.4894942E-006  0.1087056E+04  0.7818608E-02  0.8910029E-01
          2   -1    0    0  502    0  0.00000000000E+00  0.00000000000E+00  0.28240170834E+04  0.28240170834E+04  0.00000000000E+00 0. -1.
          4   -1    0    0  501    0 -0.00000000000E+00 -0.00000000000E+00 -0.51200178139E+03  0.51200178139E+03  0.00000000000E+00 0.  1.
    9000010    2    1    2  502    0 -0.42386316317E+03  0.93549678341E+02  0.17048769671E+04  0.20204230944E+04  0.99352528118E+03 0.  0.
        -13    1    3    3    0    0  0.22253123820E+03  0.30687704088E+03  0.41573584906E+03  0.56260996930E+03  0.10566000000E+00 0.  1.
         13    1    1    2    0    0  0.39590800784E+03  0.21384806612E+03 -0.16874294430E+03  0.48057084646E+03  0.10566000000E+00 0. -1.
          2    1    1    2  501    0  0.27955155333E+02 -0.30739774446E+03  0.77588127927E+03  0.83502492390E+03  0.00000000000E+00 0. -1.
          4    1    3    3  502    0 -0.64639440138E+03 -0.21332736254E+03  0.12891411180E+04  0.14578131251E+04  0.00000000000E+00 0.  1.
</event>
<event>
 7    1  0.4894942E-006  0.1144259E+04  0.7818608E-02  0.8812050E-01
          2   -1    0    0  502    0  0.00000000000E+00  0.00000000000E+00  0.14160532962E+04  0.14160532962E+04  0.00000000000E+00 0. -1.
          4   -1    0    0  501    0 -0.00000000000E+00 -0.00000000000E+00 -0.88153758141E+03  0.88153758141E+03  0.00000000000E+00 0.  1.
    9000010    2    1    2  502    0 -0.52573431930E+03 -0.22954003073E+03 -0.15457600575E+02  0.11464639293E+04  0.99249957364E+03 0.  0.
        -13    1    3    3    0    0 -0.70256823437E+03 -0.47098699403E+03  0.12124373145E+02  0.84591836727E+03  0.10566000000E+00 0.  1.
         13    1    1    2    0    0  0.51495626100E+03  0.23848457888E+03 -0.32553582368E+02  0.56843169510E+03  0.10566000000E+00 0. -1.
          2    1    1    2  501    0  0.10778058302E+02 -0.89445481551E+01  0.58252689769E+03  0.58269525313E+03  0.00000000000E+00 0. -1.
          4    1    3    3  502    0  0.17683391508E+03  0.24144696330E+03 -0.27581973720E+02  0.30054556207E+03  0.00000000000E+00 0.  1.
</event>
<event>
 7    1  0.4894942E-006  0.1009771E+04  0.7818608E-02  0.9228682E-01
          4   -1    0    0  501    0 -0.00000000000E+00  0.00000000000E+00  0.13050370679E+04  0.13050370679E+04  0.00000000000E+00 0.  1.
          2   -1    0    0  502    0  0.00000000000E+00 -0.00000000000E+00 -0.90786790232E+03  0.90786790232E+03  0.00000000000E+00 0. -1.
    9000010    2    1    2  502    0 -0.13002244502E+03  0.89114902164E+02  0.87885814638E+03  0.13390316189E+04  0.99788112163E+03 0.  0.
        -13    1    3    3    0    0  0.49901179648E+02 -0.28838871620E+03  0.87305207075E+03  0.92080296957E+03  0.10566000000E+00 0.  1.
         13    1    1    2    0    0  0.11990135551E+03 -0.96878417787E+02  0.16572551548E+03  0.22633320687E+03  0.10566000000E+00 0. -1.
          2    1    1    2  501    0  0.10121089505E+02  0.77635156230E+01 -0.64741449631E+03  0.64754014444E+03  0.00000000000E+00 0. -1.
          4    1    3    3  502    0 -0.17992362467E+03  0.37750361837E+03  0.58060756316E+01  0.41822864931E+03  0.00000000000E+00 0.  1.
</event>
<event>
 6    1  0.4894942E-006  0.1628238E+04  0.7818608E-02  0.8637411E-01
          4   -1    0    0  501    0  0.00000000000E+00  0.00000000000E+00  0.28201428574E+04  0.28201428574E+04  0.00000000000E+00 0.  1.
          4   -1    0    0  502    0 -0.00000000000E+00 -0.00000000000E+00 -0.52418617843E+03  0.52418617843E+03  0.00000000000E+00 0.  1.
        -13    1    1    2    0    0 -0.89025324869E+03  0.50941632590E+03  0.73527046431E+03  0.12620136714E+04  0.10566000000E+00 0.  1.
         13    1    1    2    0    0  0.33271505107E+03 -0.24386649476E+03  0.25173835891E+03  0.48326223211E+03  0.10566000000E+00 0. -1.
          4    1    1    2  501    0  0.58868623306E+03 -0.16388015891E+03  0.51826805011E+03  0.80125523976E+03  0.00000000000E+00 0.  1.
          4    1    1    2  502    0 -0.31148035431E+02 -0.10166967223E+03  0.79067980560E+03  0.79779789254E+03  0.00000000000E+00 0.  1.
</event>
<event>
 7    1  0.4894942E-006  0.1060475E+04  0.7818608E-02  0.8970979E-01
          4   -1    0    0  501    0 -0.00000000000E+00  0.00000000000E+00  0.14885645752E+04  0.14885645752E+04  0.00000000000E+00 0.  1.
          2   -1    0    0  502    0  0.00000000000E+00 -0.00000000000E+00 -0.10872934346E+04  0.10872934346E+04  0.00000000000E+00 0. -1.
    9000010    2    1    2  502    0  0.30378854842E+03  0.21053435507E+03  0.75730936654E+03  0.13029997100E+04  0.99382019038E+03 0.  0.
        -13    1    3    3    0    0  0.46789497948E+03  0.16604852573E+03 -0.30143166020E+02  0.49739968471E+03  0.10566000000E+00 0.  1.
         13    1    1    2    0    0 -0.33815431219E+03 -0.15370189696E+03  0.38142680280E+03  0.53240870488E+03  0.10566000000E+00 0. -1.
          2    1    1    2  501    0  0.34365763764E+02 -0.56832458115E+02 -0.73746502870E+03  0.74044959489E+03  0.00000000000E+00 0. -1.
          4    1    3    3  502    0 -0.16410643106E+03  0.44485829340E+02  0.78745253256E+03  0.80560002530E+03  0.00000000000E+00 0.  1.
</event>
<event>
 7    1  0.4894942E-006  0.1020283E+04  0.7818608E-02  0.9040059E-01
          2   -1    0    0  501    0  0.00000000000E+00  0.00000000000E+00  0.20644628049E+04  0.20644628049E+04  0.00000000000E+00 0.  1.
         -4   -1    0    0    0  501 -0.00000000000E+00 -0.00000000000E+00 -0.42885329371E+03  0.42885329371E+03  0.00000000000E+00 0. -1.
   -9000010    2    1    2    0  502 -0.19353605757E+03 -0.29586636035E+03  0.37648374732E+03  0.10995111143E+04  0.97066552921E+03 0.  0.
        -13    1    1    2    0    0  0.17919064034E+03  0.23672848692E+03  0.26543584949E+03  0.39825351657E+03  0.10566000000E+00 0.  1.
         13    1    3    3    0    0 -0.51828384065E+02  0.35842279147E+03  0.15999333723E+03  0.39591786770E+03  0.10566000000E+00 0. -1.
          2    1    1    2  502    0  0.14345417237E+02  0.59137873433E+02  0.99368991437E+03  0.99555146778E+03  0.00000000000E+00 0.  1.
         -4    1    3    3    0  502 -0.14170767351E+03 -0.65428915183E+03  0.21649041009E+03  0.70359324655E+03  0.00000000000E+00 0. -1.
</event>
<event>
 7    1  0.4894942E-006  0.1109937E+04  0.7818608E-02  0.8863472E-01
         -4   -1    0    0    0  501 -0.00000000000E+00  0.00000000000E+00  0.23609279626E+04  0.23609279626E+04  0.00000000000E+00 0. -1.
          2   -1    0    0  501    0  0.00000000000E+00 -0.00000000000E+00 -0.83959439114E+03  0.83959439114E+03  0.00000000000E+00 0.  1.
   -9000010    2    1    2    0  502  0.10561592546E+03 -0.49662122680E+03  0.10404598352E+04  0.15229939069E+04  0.98952837509E+03 0.  0.
        -13    1    1    2    0    0 -0.11381187999E+03  0.48852725811E+03  0.10208497059E+04  0.11374296282E+04  0.10566000000E+00 0.  1.
         13    1    3    3    0    0  0.41754266316E+03 -0.16901563872E+03  0.74782655982E+02  0.45661867953E+03  0.10566000000E+00 0. -1.
          2    1    1    2  502    0  0.81959545340E+01  0.80939686937E+01 -0.53997596970E+03  0.54009881860E+03  0.00000000000E+00 0.  1.
         -4    1    3    3    0  502 -0.31192673771E+03 -0.32760558808E+03  0.96567717924E+03  0.10663752274E+04  0.00000000000E+00 0. -1.
</event>
<event>
 7    1  0.4894942E-006  0.1172333E+04  0.7818608E-02  0.8777823E-01
         -4   -1    0    0    0  501 -0.00000000000E+00  0.00000000000E+00  0.17085375083E+04  0.17085375083E+04  0.00000000000E+00 0. -1.
          4   -1    0    0  501    0  0.00000000000E+00 -0.00000000000E+00 -0.98589559124E+03  0.98589559124E+03  0.00000000000E+00 0.  1.
   -9000010    2    1    2    0  502 -0.61487808961E+03  0.16477027347E+03  0.98714342968E+03  0.15424933871E+04  0.99980467610E+03 0.  0.
        -13    1    1    2    0    0  0.57317124975E+03 -0.15833985728E+03  0.24322662409E+03  0.64246088891E+03  0.10566000000E+00 0.  1.
         13    1    3    3    0    0  0.62372542322E+02 -0.27552489469E+03  0.21190904833E+02  0.28329025264E+03  0.10566000000E+00 0. -1.
          4    1    1    2  502    0  0.41706839857E+02 -0.64304161820E+01 -0.50772813675E+03  0.50947882350E+03  0.00000000000E+00 0.  1.
         -4    1    3    3    0  502 -0.67725063193E+03  0.44029516815E+03  0.96595252485E+03  0.12592031345E+04  0.00000000000E+00 0. -1.
</event>
<event>
 7    1  0.4894942E-006  0.1045539E+04  0.7818608E-02  0.9171930E-01
          4   -1    0    0  502    0  0.00000000000E+00  0.00000000000E+00  0.44007378209E+03  0.44007378209E+03  0.00000000000E+00 0.  1.
          4   -1    0    0  501    0 -0.00000000000E+00 -0.00000000000E+00 -0.28276083068E+04  0.28276083068E+04  0.00000000000E+00 0.  1.
    9000010    2    1    2  502    0 -0.29891118938E+03  0.50817213616E+02 -0.16778403443E+04  0.19883089909E+04  0.10228852008E+04 0.  0.
        -13    1    3    3    0    0  0.20495539946E+03 -0.20488058478E+03 -0.90808183503E+02  0.30369212559E+03  0.10566000000E+00 0.  1.
         13    1    1    2    0    0  0.10251668573E+03 -0.13985740877E+03 -0.94466729378E+03  0.96045097362E+03  0.10566000000E+00 0. -1.
          4    1    1    2  501    0  0.19639450365E+03  0.89040195152E+02  0.23497311337E+03  0.31892212439E+03  0.00000000000E+00 0.  1.
          4    1    3    3  502    0 -0.50386658884E+03  0.25569779839E+03 -0.15870321608E+04  0.16846168653E+04  0.00000000000E+00 0.  1.
</event>
<event>
 7    1  0.4894942E-006  0.1058741E+04  0.7818608E-02  0.8949593E-01
         -4   -1    0    0    0  501 -0.00000000000E+00  0.00000000000E+00  0.15568160472E+04  0.15568160472E+04  0.00000000000E+00 0. -1.
          2   -1    0    0  501    0  0.00000000000E+00 -0.00000000000E+00 -0.18739991945E+04  0.18739991945E+04  0.00000000000E+00 0. -1.
   -9000010    2    1    2    0  502 -0.37823703946E+03 -0.11236726399E+03  0.49740003053E+03  0.11659161453E+04  0.97788752293E+03 0.  0.
        -13    1    1    2    0    0  0.38266396627E+03  0.14106917296E+03  0.66766102403E+03  0.78237042174E+03  0.10566000000E+00 0.  1.
         13    1    3    3    0    0 -0.41417384033E+03 -0.50309904528E+03  0.22984783973E+03  0.69099830678E+03  0.10566000000E+00 0. -1.
          2    1    1    2  502    0 -0.44269268076E+01 -0.28701908969E+02 -0.14822442019E+04  0.14825286747E+04  0.00000000000E+00 0. -1.
         -4    1    3    3    0  502  0.35936800869E+02  0.39073178129E+03  0.26755219080E+03  0.47491783855E+03  0.00000000000E+00 0. -1.
</event>
<event>
 7    1  0.4894942E-006  0.1092771E+04  0.7818608E-02  0.8910146E-01
          2   -1    0    0  502    0  0.00000000000E+00  0.00000000000E+00  0.94933662879E+03  0.94933662879E+03  0.00000000000E+00 0. -1.
          4   -1    0    0  501    0 -0.00000000000E+00 -0.00000000000E+00 -0.25891264345E+04  0.25891264345E+04  0.00000000000E+00 0.  1.
    9000010    2    1    2  502    0  0.39164130059E+03 -0.16994841933E+03 -0.19703207830E+04  0.22517083750E+04  0.10028764852E+04 0.  0.
        -13    1    3    3    0    0  0.59416220962E+03 -0.33817670261E+03 -0.18296510114E+04  0.19532063507E+04  0.10566000000E+00 0.  1.
         13    1    1    2    0    0 -0.40732655423E+03  0.16425211532E+03 -0.37713051641E+03  0.57889646462E+03  0.10566000000E+00 0. -1.
          2    1    1    2  501    0  0.15685253645E+02  0.56963040113E+01  0.70766149374E+03  0.70785822364E+03  0.00000000000E+00 0. -1.
          4    1    3    3  502    0 -0.20252090903E+03  0.16822828329E+03 -0.14066977158E+03  0.29850202433E+03  0.00000000000E+00 0.  1.
</event>
<event>
 7    1  0.4894942E-006  0.1010297E+04  0.7818608E-02  0.9118884E-01
          2   -1    0    0  502    0  0.00000000000E+00  0.00000000000E+00  0.14973220179E+04  0.14973220179E+04  0.00000000000E+00 0.  1.
          4   -1    0    0  501    0 -0.00000000000E+00 -0.00000000000E+00 -0.19518798034E+04  0.19518798034E+04  0.00000000000E+00 0.  1.
    9000010    2    1    2  502    0 -0.20437452359E+03 -0.12269112274E+03 -0.92538415989E+03  0.13703534397E+04  0.98219684828E+03 0.  0.
        -13    1    3    3    0    0 -0.33971697558E+03 -0.22950131065E+03  0.18947750082E+02  0.41041138323E+03  0.10566000000E+00 0.  1.
         13    1    1    2    0    0  0.18925762138E+03  0.14194766993E+03 -0.78648664320E+03  0.82129704696E+03  0.10566000000E+00 0. -1.
          2    1    1    2  501    0  0.15116902210E+02 -0.19256547190E+02  0.12573130175E+04  0.12575513347E+04  0.00000000000E+00 0.  1.
          4    1    3    3  502    0  0.13534245199E+03  0.10681018791E+03 -0.94433190998E+03  0.95994205646E+03  0.00000000000E+00 0.  1.
</event>
<event>
 7    1  0.4894942E-006  0.1079300E+04  0.7818608E-02  0.9044449E-01
          4   -1    0    0  501    0 -0.00000000000E+00  0.00000000000E+00  0.11391087692E+04  0.11391087692E+04  0.00000000000E+00 0.  1.
          2   -1    0    0  502    0  0.00000000000E+00 -0.00000000000E+00 -0.20200354299E+04  0.20200354299E+04  0.00000000000E+00 0.  1.
    9000010    2    1    2  502    0 -0.15295330608E+02 -0.18346813427E+03  0.47272314701E+03  0.11636971597E+04  0.10472962342E+04 0.  0.
        -13    1    3    3    0    0 -0.51455647223E+03 -0.12262264159E+03  0.38235821742E+03  0.65268866462E+03  0.10566000000E+00 0.  1.
         13    1    1    2    0    0  0.11276573119E+02  0.27371728522E+03  0.26093767815E+03  0.37833423896E+03  0.10566000000E+00 0. -1.
          2    1    1    2  501    0  0.40187574894E+01 -0.90249150949E+02 -0.16145874859E+04  0.16171128004E+04  0.00000000000E+00 0.  1.
          4    1    3    3  502    0  0.49926114162E+03 -0.60845492686E+02  0.90364929594E+02  0.51100849505E+03  0.00000000000E+00 0.  1.
</event>
<event>
 7    1  0.4894942E-006  0.1080778E+04  0.7818608E-02  0.8919021E-01
          2   -1    0    0  502    0  0.00000000000E+00  0.00000000000E+00  0.87518488055E+03  0.87518488055E+03  0.00000000000E+00 0. -1.
          4   -1    0    0  501    0 -0.00000000000E+00 -0.00000000000E+00 -0.21814692931E+04  0.21814692931E+04  0.00000000000E+00 0.  1.
    9000010    2    1    2  502    0  0.35786972790E+03  0.18107412761E+03 -0.17759036237E+04  0.20726082075E+04  0.99046076120E+03 0.  0.
        -13    1    3    3    0    0 -0.10154297863E+03 -0.35085238330E+03 -0.57816389970E+03  0.68387270560E+03  0.10566000000E+00 0.  1.
         13    1    1    2    0    0 -0.38654470122E+03 -0.29770019490E+03 -0.11632914188E+02  0.48803437169E+03  0.10566000000E+00 0. -1.
          2    1    1    2  501    0  0.28674973322E+02  0.11662606729E+03  0.48125212533E+03  0.49601159442E+03  0.00000000000E+00 0. -1.
          4    1    3    3  502    0  0.45941270654E+03  0.53192651091E+03 -0.11977397240E+04  0.13887355019E+04  0.00000000000E+00 0.  1.
</event>
<event>
 7    1  0.4894942E-006  0.1020427E+04  0.7818608E-02  0.9165655E-01
          1   -1    0    0  501    0  0.00000000000E+00  0.00000000000E+00  0.18340355383E+04  0.18340355383E+04  0.00000000000E+00 0. -1.
         -4   -1    0    0    0  501 -0.00000000000E+00 -0.00000000000E+00 -0.70149954692E+03  0.70149954692E+03  0.00000000000E+00 0. -1.
   -9000010    2    1    2    0  502  0.20543065460E+03  0.81328413234E+02  0.11644755256E+03  0.10330102470E+04  0.10023642418E+04 0.  0.
        -13    1    1    2    0    0 -0.13498089948E+03 -0.13413276273E+03 -0.20416670781E+03  0.27909764780E+03  0.10566000000E+00 0.  1.
         13    1    3    3    0    0 -0.54435025218E+02 -0.43849540550E+03  0.87034903495E+01  0.44194700420E+03  0.10566000000E+00 0. -1.
          1    1    1    2  502    0 -0.70449755119E+02  0.52804349498E+02  0.12202551466E+04  0.12234271904E+04  0.00000000000E+00 0. -1.
         -4    1    3    3    0  502  0.25986567982E+03  0.51982381874E+03  0.10774406221E+03  0.59106324282E+03  0.00000000000E+00 0. -1.
</event>
<event>
 7    1  0.4894942E-006  0.1065872E+04  0.7818608E-02  0.8986152E-01
         -4   -1    0    0    0  501 -0.00000000000E+00  0.00000000000E+00  0.38117037212E+03  0.38117037212E+03  0.00000000000E+00 0. -1.
          4   -1    0    0  501    0  0.00000000000E+00 -0.00000000000E+00 -0.29006077428E+04  0.29006077428E+04  0.00000000000E+00 0.  1.
   -9000010    2    1    2    0  502  0.19323982083E+03  0.26239704458E+03 -0.90433875582E+03  0.13938088980E+04  0.10092971919E+04 0.  0.
        -13    1    1    2    0    0 -0.19649092756E+03 -0.28463013234E+03 -0.82973155865E+02  0.35567900221E+03  0.10566000000E+00 0.  1.
         13    1    3    3    0    0  0.40636669626E+03 -0.26869921412E+03 -0.38333301195E+03  0.61990109591E+03  0.10566000000E+00 0. -1.
          4    1    1    2  502    0  0.32511067313E+01  0.22233087760E+02 -0.15321254590E+04  0.15322902147E+04  0.00000000000E+00 0.  1.
         -4    1    3    3    0  502 -0.21312687543E+03  0.53109625871E+03 -0.52100574387E+03  0.77390780212E+03  0.00000000000E+00 0. -1.
</event>
<event>
 7    1  0.4894942E-006  0.1018657E+04  0.7818608E-02  0.9177626E-01
          1   -1    0    0  501    0  0.00000000000E+00  0.00000000000E+00  0.47018478710E+03  0.47018478710E+03  0.00000000000E+00 0. -1.
         -4   -1    0    0    0  501 -0.00000000000E+00 -0.00000000000E+00 -0.10216489213E+04  0.10216489213E+04  0.00000000000E+00 0. -1.
   -9000010    2    1    2    0  502 -0.39899751369E+02 -0.16168734119E+03 -0.21174120906E+03  0.10375934199E+04  0.10020134624E+04 0.  0.
        -13    1    1    2    0    0  0.39060706949E+02  0.18007948949E+03 -0.37309968327E+03  0.41612227311E+03  0.10566000000E+00 0.  1.
         13    1    3    3    0    0 -0.23703675418E+03  0.30288906258E+03 -0.34385910335E+03  0.51591404438E+03  0.10566000000E+00 0. -1.
          1    1    1    2  502    0  0.83904442054E+00 -0.18392148308E+02  0.33376758147E+02  0.38118015417E+02  0.00000000000E+00 0. -1.
         -4    1    3    3    0  502  0.19713700281E+03 -0.46457640376E+03  0.13211789429E+03  0.52167937548E+03  0.00000000000E+00 0. -1.
</event>
<event>
 7    1  0.4894942E-006  0.9832185E+03  0.7818608E-02  0.9224537E-01
         -4   -1    0    0    0  501 -0.00000000000E+00  0.00000000000E+00  0.26476139283E+04  0.26476139283E+04  0.00000000000E+00 0. -1.
          1   -1    0    0  501    0  0.00000000000E+00 -0.00000000000E+00 -0.25341963135E+03  0.25341963135E+03  0.00000000000E+00 0. -1.
   -9000010    2    1    2    0  502  0.53771667702E+02 -0.17152229591E+03  0.23423136936E+04  0.25409731232E+04  0.96840057997E+03 0.  0.
        -13    1    1    2    0    0 -0.56515736002E+02  0.15692415251E+03  0.17167041283E+03  0.23935321151E+03  0.10566000000E+00 0.  1.
         13    1    3    3    0    0  0.36565717761E+03 -0.89027032807E+02  0.21103044950E+04  0.21435988563E+04  0.10566000000E+00 0. -1.
          1    1    1    2  502    0  0.27440683002E+01  0.14598143399E+02 -0.11978980948E+03  0.12070722495E+03  0.00000000000E+00 0. -1.
         -4    1    3    3    0  502 -0.31188550991E+03 -0.82495263104E+02  0.23200919862E+03  0.39737426687E+03  0.00000000000E+00 0. -1.
</event>
<event>
 7    1  0.4894942E-006  0.1002956E+04  0.7818608E-02  0.9407565E-01
          1   -1    0    0  501    0  0.00000000000E+00  0.00000000000E+00  0.16045309062E+04  0.16045309062E+04  0.00000000000E+00 0. -1.
         -4   -1    0    0    0  501 -0.00000000000E+00 -0.00000000000E+00 -0.53924381232E+03  0.53924381232E+03  0.00000000000E+00 0. -1.
   -9000010    2    1    2    0  502 -0.40212465390E+02 -0.76482479290E+02 -0.31194134504E+02  0.10039520754E+04  0.99974000801E+03 0.  0.
        -13    1    1    2    0    0  0.51385468151E+02  0.60778188384E+02  0.51795505504E+02  0.94959149505E+02  0.10566000000E+00 0.  1.
         13    1    3    3    0    0  0.45751377859E+02  0.40373277785E+03  0.21260282741E+03  0.45857749385E+03  0.10566000000E+00 0. -1.
          1    1    1    2  502    0 -0.11173002761E+02  0.15704290906E+02  0.10446857229E+04  0.10448634936E+04  0.00000000000E+00 0. -1.
         -4    1    3    3    0  502 -0.85963843249E+02 -0.48021525714E+03 -0.24379696191E+03  0.54537458152E+03  0.00000000000E+00 0. -1.
</event>
<event>
 7    1  0.4894942E-006  0.1167765E+04  0.7818608E-02  0.8781010E-01
         -4   -1    0    0    0  501 -0.00000000000E+00  0.00000000000E+00  0.13772119904E+04  0.13772119904E+04  0.00000000000E+00 0. -1.
          4   -1    0    0  501    0  0.00000000000E+00 -0.00000000000E+00 -0.12246712134E+04  0.12246712134E+04  0.00000000000E+00 0.  1.
   -9000010    2    1    2    0  502  0.31809901228E+03 -0.54404220773E+03  0.93665316222E+01  0.11779445460E+04  0.99513653140E+03 0.  0.
        -13    1    1    2    0    0 -0.31153195978E+03  0.52118164574E+03  0.66561412499E+03  0.90095762629E+03  0.10566000000E+00 0.  1.
         13    1    3    3    0    0  0.22183712509E+03 -0.65000555165E+02  0.45900282098E+03  0.51392643742E+03  0.10566000000E+00 0. -1.
          4    1    1    2  502    0 -0.65670524944E+01  0.22860561988E+02 -0.52243987962E+03  0.52298103148E+03  0.00000000000E+00 0.  1.
         -4    1    3    3    0  502  0.96261887188E+02 -0.47904165257E+03 -0.44963628936E+03  0.66401810859E+03  0.00000000000E+00 0. -1.
</event>
<event>
 7    1  0.4894942E-006  0.1432505E+04  0.7818608E-02  0.8521380E-01
          4   -1    0    0  501    0 -0.00000000000E+00  0.00000000000E+00  0.17883484552E+04  0.17883484552E+04  0.00000000000E+00 0.  1.
          2   -1    0    0  502    0  0.00000000000E+00 -0.00000000000E+00 -0.13866534811E+04  0.13866534811E+04  0.00000000000E+00 0. -1.
    9000010    2    1    2  502    0  0.71971523630E+03  0.74736861075E+03  0.10376540897E+04  0.17718786114E+04  0.99311527119E+03 0.  0.
        -13    1    3    3    0    0  0.66014441231E+03  0.56652964310E+03  0.12265210471E+04  0.15036955715E+04  0.10566000000E+00 0.  1.
         13    1    1    2    0    0 -0.67255204332E+03 -0.77147985834E+03 -0.30500696712E+03  0.10679591209E+04  0.10566000000E+00 0. -1.
          2    1    1    2  501    0 -0.47163192977E+02  0.24111247587E+02 -0.33095214854E+03  0.33516420402E+03  0.00000000000E+00 0. -1.
          4    1    3    3  502    0  0.59570823991E+02  0.18083896765E+03 -0.18886695738E+03  0.26818303988E+03  0.00000000000E+00 0.  1.
</event>
<event>
 7    1  0.4894942E-006  0.1050931E+04  0.7818608E-02  0.9005430E-01
         -4   -1    0    0    0  501 -0.00000000000E+00  0.00000000000E+00  0.12920194134E+04  0.12920194134E+04  0.00000000000E+00 0. -1.
          2   -1    0    0  501    0  0.00000000000E+00 -0.00000000000E+00 -0.68367192333E+03  0.68367192333E+03  0.00000000000E+00 0. -1.
   -9000010    2    1    2    0  502  0.41435174616E+03 -0.40928583384E+02  0.60771759979E+03  0.12400937382E+04  0.99757169168E+03 0.  0.
        -13    1    1    2    0    0 -0.24981547462E+03 -0.22336829194E+03  0.17574343120E+03  0.37840048887E+03  0.10566000000E+00 0.  1.
         13    1    3    3    0    0  0.24200350825E+03  0.28563856096E+03  0.75486320145E+03  0.84259928173E+03  0.10566000000E+00 0. -1.
          2    1    1    2  502    0 -0.16453627154E+03  0.26429687532E+03 -0.17511354088E+03  0.35719710967E+03  0.00000000000E+00 0. -1.
         -4    1    3    3    0  502  0.17234823792E+03 -0.32656714434E+03 -0.14714560165E+03  0.39749445652E+03  0.00000000000E+00 0. -1.
</event>
<event>
 7    1  0.4894942E-006  0.1040882E+04  0.7818608E-02  0.9294552E-01
         -4   -1    0    0    0  501 -0.00000000000E+00  0.00000000000E+00  0.51728951001E+03  0.51728951001E+03  0.00000000000E+00 0. -1.
          2   -1    0    0  501    0  0.00000000000E+00 -0.00000000000E+00 -0.10414752427E+04  0.10414752427E+04  0.00000000000E+00 0.  1.
   -9000010    2    1    2    0  502  0.84233694363E+02  0.52891347333E+02 -0.19547578104E+03  0.10580701593E+04  0.10350888228E+04 0.  0.
        -13    1    1    2    0    0 -0.89965649263E+02 -0.63723147803E+02  0.50516707355E+02  0.12126997361E+03  0.10566000000E+00 0.  1.
         13    1    3    3    0    0  0.49227164386E+03 -0.12825201145E+03  0.10566133236E+03  0.51956162109E+03  0.10566000000E+00 0. -1.
          2    1    1    2  502    0  0.57319549002E+01  0.10831800469E+02 -0.37922665901E+03  0.37942461980E+03  0.00000000000E+00 0.  1.
         -4    1    3    3    0  502 -0.40803794950E+03  0.18114335878E+03 -0.30113711340E+03  0.53850853821E+03  0.00000000000E+00 0. -1.
</event>
<event>
 7    1  0.4894942E-006  0.1061360E+04  0.7818608E-02  0.8949993E-01
         -4   -1    0    0    0  501 -0.00000000000E+00  0.00000000000E+00  0.28399453964E+03  0.28399453964E+03  0.00000000000E+00 0. -1.
          2   -1    0    0  501    0  0.00000000000E+00 -0.00000000000E+00 -0.23304347754E+04  0.23304347754E+04  0.00000000000E+00 0.  1.
   -9000010    2    1    2    0  502 -0.11965654888E+03 -0.36307228692E+03 -0.12478397103E+04  0.16334056719E+04  0.98222755568E+03 0.  0.
        -13    1    1    2    0    0  0.99297815478E+02  0.39652035261E+03 -0.37220393382E+03  0.55283290939E+03  0.10566000000E+00 0.  1.
         13    1    3    3    0    0 -0.64872873838E+02 -0.69570151934E+03 -0.69246946327E+03  0.98372916115E+03  0.10566000000E+00 0. -1.
          2    1    1    2  502    0  0.20358733397E+02 -0.33448065687E+02 -0.42639659162E+03  0.42819073375E+03  0.00000000000E+00 0.  1.
         -4    1    3    3    0  502 -0.54783675037E+02  0.33262923242E+03 -0.55537024705E+03  0.64967651075E+03  0.00000000000E+00 0. -1.
</event>
<event>
 7    1  0.4894942E-006  0.1279898E+04  0.7818608E-02  0.8888398E-01
          2   -1    0    0  501    0  0.00000000000E+00  0.00000000000E+00  0.11873818187E+04  0.11873818187E+04  0.00000000000E+00 0. -1.
         -4   -1    0    0    0  501 -0.00000000000E+00 -0.00000000000E+00 -0.12887379425E+04  0.12887379425E+04  0.00000000000E+00 0. -1.
   -9000010    2    1    2    0  502  0.18540266093E+03  0.63965783883E+03  0.93109903602E+02  0.12025720103E+04  0.99698229091E+03 0.  0.
        -13    1    1    2    0    0 -0.97160317423E+02  0.27916889319E+03 -0.18829707166E+03  0.35047281858E+03  0.10566000000E+00 0.  1.
         13    1    3    3    0    0  0.52839178229E+03  0.21720669097E+03  0.26795882186E+03  0.63101391710E+03  0.10566000000E+00 0. -1.
          2    1    1    2  502    0 -0.88242343503E+02 -0.91882673201E+03 -0.61689556443E+01  0.92307493231E+03  0.00000000000E+00 0. -1.
         -4    1    3    3    0  502 -0.34298912137E+03  0.42245114785E+03 -0.17484891826E+03  0.57155809321E+03  0.00000000000E+00 0. -1.
</event>
<event>
 7    1  0.4894942E-006  0.1025060E+04  0.7818608E-02  0.9205886E-01
          2   -1    0    0  501    0  0.00000000000E+00  0.00000000000E+00  0.65550876564E+03  0.65550876564E+03  0.00000000000E+00 0. -1.
         -4   -1    0    0    0  501 -0.00000000000E+00 -0.00000000000E+00 -0.21092157204E+04  0.21092157204E+04  0.00000000000E+00 0. -1.
   -9000010    2    1    2    0  502  0.54046891618E+03  0.71413979630E+01 -0.16993767732E+04  0.19869729119E+04  0.87636880750E+03 0.  0.
        -13    1    1    2    0    0 -0.29548220467E+02 -0.15854620914E+03 -0.49344968524E+02  0.16865626241E+03  0.10566000000E+00 0.  1.
         13    1    3    3    0    0  0.39125707047E+03  0.20352083595E+02 -0.13343894341E+03  0.41388677834E+03  0.10566000000E+00 0. -1.
          2    1    1    2  502    0 -0.51092069571E+03  0.15140481118E+03  0.29501478695E+03  0.60909531165E+03  0.00000000000E+00 0. -1.
         -4    1    3    3    0  502  0.14921184570E+03 -0.13210685632E+02 -0.15659378298E+04  0.15730861336E+04  0.00000000000E+00 0. -1.
</event>
<event>
 7    1  0.4894942E-006  0.1027859E+04  0.7818608E-02  0.9050512E-01
          2   -1    0    0  501    0  0.00000000000E+00  0.00000000000E+00  0.18173578731E+04  0.18173578731E+04  0.00000000000E+00 0. -1.
         -4   -1    0    0    0  501 -0.00000000000E+00 -0.00000000000E+00 -0.64929690948E+03  0.64929690948E+03  0.00000000000E+00 0. -1.
   -9000010    2    1    2    0  502  0.23532041197E+03  0.93794018075E+02  0.81637540729E+03  0.13039283786E+04  0.98467629037E+03 0.  0.
        -13    1    1    2    0    0 -0.27703157306E+03 -0.10687148515E+03 -0.35039453742E+03  0.45928678385E+03  0.10566000000E+00 0.  1.
         13    1    3    3    0    0 -0.11562473702E+03 -0.28515803561E+03  0.71386432564E+03  0.77735865061E+03  0.10566000000E+00 0. -1.
          2    1    1    2  502    0  0.41711161086E+02  0.13077467070E+02  0.70208009375E+03  0.70343962012E+03  0.00000000000E+00 0. -1.
         -4    1    3    3    0  502  0.35094514899E+03  0.37895205369E+03  0.10251108165E+03  0.52656972801E+03  0.00000000000E+00 0. -1.
</event>
<event>
 7    1  0.4894942E-006  0.9413901E+03  0.7818608E-02  0.9085918E-01
         -4   -1    0    0    0  501 -0.00000000000E+00  0.00000000000E+00  0.12283668481E+04  0.12283668481E+04  0.00000000000E+00 0. -1.
          2   -1    0    0  501    0  0.00000000000E+00 -0.00000000000E+00 -0.61781990402E+03  0.61781990402E+03  0.00000000000E+00 0. -1.
   -9000010    2    1    2    0  502  0.19848766234E+03 -0.19486977148E+03  0.91501429046E+02  0.92785829711E+03  0.88044132573E+03 0.  0.
        -13    1    1    2    0    0 -0.24690880102E+03  0.23158951009E+03  0.67270968847E+03  0.75308432020E+03  0.10566000000E+00 0.  1.
         13    1    3    3    0    0  0.46732404178E+03 -0.49954788218E+02  0.30044909926E+03  0.55781440758E+03  0.10566000000E+00 0. -1.
          2    1    1    2  502    0  0.48421138679E+02 -0.36719738611E+02 -0.15366417346E+03  0.16524413478E+03  0.00000000000E+00 0. -1.
         -4    1    3    3    0  502 -0.26883637944E+03 -0.14491498327E+03 -0.20894767022E+03  0.37004388953E+03  0.00000000000E+00 0. -1.
</event>
<event>
 7    1  0.4894942E-006  0.9857632E+03  0.7818608E-02  0.9205536E-01
          2   -1    0    0  502    0  0.00000000000E+00  0.00000000000E+00  0.22312679018E+04  0.22312679018E+04  0.00000000000E+00 0.  1.
          4   -1    0    0  501    0 -0.00000000000E+00 -0.00000000000E+00 -0.52370768755E+03  0.52370768755E+03  0.00000000000E+00 0.  1.
    9000010    2    1    2  502    0 -0.18117915344E+03 -0.69219932148E+02  0.60986250208E+03  0.11611650832E+04  0.96889359289E+03 0.  0.
        -13    1    3    3    0    0 -0.43081600974E+03 -0.42196120685E+01 -0.67732290347E+02  0.43612832251E+03  0.10566000000E+00 0.  1.
         13    1    1    2    0    0  0.17446508361E+03  0.48779418730E+02 -0.21488183507E+03  0.28105464113E+03  0.10566000000E+00 0. -1.
          2    1    1    2  501    0  0.67140698290E+01  0.20440513418E+02  0.13125795472E+04  0.13127558650E+04  0.00000000000E+00 0.  1.
          4    1    3    3  502    0  0.24963685629E+03 -0.65000320080E+02  0.67759479243E+03  0.72503676069E+03  0.00000000000E+00 0.  1.
</event>
<event>
 7    1  0.4894942E-006  0.1073368E+04  0.7818608E-02  0.8918714E-01
          2   -1    0    0  502    0  0.00000000000E+00  0.00000000000E+00  0.23304501145E+04  0.23304501145E+04  0.00000000000E+00 0.  1.
          4   -1    0    0  501    0 -0.00000000000E+00 -0.00000000000E+00 -0.12889752124E+04  0.12889752124E+04  0.00000000000E+00 0.  1.
    9000010    2    1    2  502    0 -0.37933513708E+03 -0.35605157891E+01 -0.48031862680E+03  0.11538126590E+04  0.97809500828E+03 0.  0.
        -13    1    3    3    0    0 -0.14999089293E+03  0.32073063403E+03  0.16924071850E+03  0.39243832577E+03  0.10566000000E+00 0.  1.
         13    1    1    2    0    0  0.46265388281E+03  0.27446542440E+02 -0.35687491719E+03  0.58494584848E+03  0.10566000000E+00 0. -1.
          2    1    1    2  501    0 -0.83318745737E+02 -0.23886026651E+02  0.18786684461E+04  0.18806668195E+04  0.00000000000E+00 0.  1.
          4    1    3    3  502    0 -0.22934424415E+03 -0.32429114982E+03 -0.64955934530E+03  0.76137433319E+03  0.00000000000E+00 0.  1.
</event>
<event>
 7    1  0.4894942E-006  0.1053800E+04  0.7818608E-02  0.9146600E-01
          4   -1    0    0  501    0 -0.00000000000E+00  0.00000000000E+00  0.86871189844E+03  0.86871189844E+03  0.00000000000E+00 0.  1.
          2   -1    0    0  502    0  0.00000000000E+00 -0.00000000000E+00 -0.13851267507E+04  0.13851267507E+04  0.00000000000E+00 0.  1.
    9000010    2    1    2  502    0 -0.31240033964E+03  0.57869274599E+01 -0.62391033582E+03  0.12499690337E+04  0.10370781153E+04 0.  0.
        -13    1    3    3    0    0 -0.97306958266E+02 -0.47769058214E+03 -0.85297839553E+02  0.49490672756E+03  0.10566000000E+00 0.  1.
         13    1    1    2    0    0  0.18389255748E+03 -0.19354066133E+02  0.53037671478E+03  0.56168543093E+03  0.10566000000E+00 0. -1.
          2    1    1    2  501    0  0.12850778216E+03  0.13567138674E+02 -0.42288123122E+03  0.44218418453E+03  0.00000000000E+00 0.  1.
          4    1    3    3  502    0 -0.21509338137E+03  0.48347750960E+03 -0.53861249626E+03  0.75506230612E+03  0.00000000000E+00 0.  1.
</event>
<event>
 7    1  0.4894942E-006  0.9166797E+03  0.7818608E-02  0.9462967E-01
          4   -1    0    0  501    0 -0.00000000000E+00  0.00000000000E+00  0.50579263609E+03  0.50579263609E+03  0.00000000000E+00 0.  1.
          2   -1    0    0  502    0  0.00000000000E+00 -0.00000000000E+00 -0.24673547949E+04  0.24673547949E+04  0.00000000000E+00 0.  1.
    9000010    2    1    2  502    0 -0.93703418843E+02 -0.93885594202E+01 -0.59834989973E+03  0.10944723967E+04  0.91158035788E+03 0.  0.
        -13    1    3    3    0    0 -0.46609983541E+03 -0.18754969496E+03 -0.35617282484E+03  0.61585959192E+03  0.10566000000E+00 0.  1.
         13    1    1    2    0    0  0.28433607516E+02  0.80859949933E+02  0.24911330527E+03  0.26344686669E+03  0.10566000000E+00 0. -1.
          2    1    1    2  501    0  0.65269811327E+02 -0.71471390512E+02 -0.16123255643E+04  0.16152281676E+04  0.00000000000E+00 0.  1.
          4    1    3    3  502    0  0.37239641657E+03  0.17816113553E+03 -0.24217707489E+03  0.47861280477E+03  0.00000000000E+00 0.  1.
</event>
<event>
 7    1  0.4894942E-006  0.1069154E+04  0.7818608E-02  0.8958060E-01
          1   -1    0    0  501    0  0.00000000000E+00  0.00000000000E+00  0.35453058110E+04  0.35453058110E+04  0.00000000000E+00 0. -1.
         -4   -1    0    0    0  501 -0.00000000000E+00 -0.00000000000E+00 -0.16497342933E+04  0.16497342933E+04  0.00000000000E+00 0. -1.
   -9000010    2    1    2    0  502  0.33906360916E+03 -0.25697418420E+03 -0.70638880197E+03  0.12954489511E+04  0.99910108744E+03 0.  0.
        -13    1    1    2    0    0 -0.25717649628E+03  0.27059633049E+03 -0.59453323339E+03  0.70201987228E+03  0.10566000000E+00 0.  1.
         13    1    3    3    0    0  0.16843911948E+03 -0.62256129174E+03 -0.59360040866E+03  0.87653622587E+03  0.10566000000E+00 0. -1.
          1    1    1    2  502    0 -0.81887112875E+02 -0.13622146289E+02  0.31964935530E+04  0.31975712810E+04  0.00000000000E+00 0. -1.
         -4    1    3    3    0  502  0.17062448968E+03  0.36558710754E+03 -0.11278839331E+03  0.41891272521E+03  0.00000000000E+00 0. -1.
</event>
<event>
 7    1  0.4894942E-006  0.1042805E+04  0.7818608E-02  0.9515864E-01
          2   -1    0    0  501    0  0.00000000000E+00  0.00000000000E+00  0.10890780826E+04  0.10890780826E+04  0.00000000000E+00 0.  1.
         -4   -1    0    0    0  501 -0.00000000000E+00 -0.00000000000E+00 -0.56571115676E+03  0.56571115676E+03  0.00000000000E+00 0. -1.
   -9000010    2    1    2    0  502 -0.11504447874E+03  0.38470484938E+01 -0.10896819219E+02  0.10428259025E+04  0.10363962034E+04 0.  0.
        -13    1    1    2    0    0  0.11141520000E+02  0.46711805087E+02 -0.15286317538E+02  0.50396516450E+02  0.10566000000E+00 0.  1.
         13    1    3    3    0    0 -0.55428837007E+03 -0.11516635789E+03  0.98866155963E+02  0.57469419272E+03  0.10566000000E+00 0. -1.
          2    1    1    2  502    0  0.10390295874E+03 -0.50558853580E+02  0.54955006263E+03  0.56156682046E+03  0.00000000000E+00 0.  1.
         -4    1    3    3    0  502  0.43924389133E+03  0.11901340639E+03 -0.10976297518E+03  0.46813170977E+03  0.00000000000E+00 0. -1.
</event>
<event>
 7    1  0.4894942E-006  0.1166517E+04  0.7818608E-02  0.8880382E-01
          2   -1    0    0  501    0  0.00000000000E+00  0.00000000000E+00  0.13022753537E+04  0.13022753537E+04  0.00000000000E+00 0.  1.
         -4   -1    0    0    0  501 -0.00000000000E+00 -0.00000000000E+00 -0.19325546348E+04  0.19325546348E+04  0.00000000000E+00 0. -1.
   -9000010    2    1    2    0  502  0.12908993656E+03 -0.34933100983E+03 -0.69704103492E+03  0.13499582668E+04  0.10944518042E+04 0.  0.
        -13    1    1    2    0    0 -0.34812943477E+02  0.40829364092E+03 -0.85938103541E+03  0.95207741988E+03  0.10566000000E+00 0.  1.
         13    1    3    3    0    0  0.17627062932E+02  0.36565868868E+03 -0.46128164696E+03  0.58889537181E+03  0.10566000000E+00 0. -1.
          2    1    1    2  502    0 -0.94276993083E+02 -0.58962631095E+02  0.92614278924E+03  0.93279430173E+03  0.00000000000E+00 0.  1.
         -4    1    3    3    0  502  0.11146287363E+03 -0.71498969851E+03 -0.23575938795E+03  0.76106289502E+03  0.00000000000E+00 0. -1.
</event>
<event>
 7    1  0.4894942E-006  0.1325715E+04  0.7818608E-02  0.8863777E-01
          4   -1    0    0  501    0 -0.00000000000E+00  0.00000000000E+00  0.29299146431E+04  0.29299146431E+04  0.00000000000E+00 0.  1.
          2   -1    0    0  502    0  0.00000000000E+00 -0.00000000000E+00 -0.67222775622E+03  0.67222775622E+03  0.00000000000E+00 0. -1.
    9000010    2    1    2  502    0  0.73141087489E+03  0.49136911306E+02  0.68269917824E+03  0.14056478227E+04  0.98609904657E+03 0.  0.
        -13    1    3    3    0    0  0.35521280608E+03  0.43895546568E+03  0.65272150304E+03  0.86307787027E+03  0.10566000000E+00 0.  1.
         13    1    1    2    0    0  0.28764621536E+03 -0.64071492391E+02  0.96440107163E+03  0.10084220047E+04  0.10566000000E+00 0. -1.
          2    1    1    2  501    0 -0.10190570902E+04  0.14934581085E+02  0.61058663703E+03  0.11880725719E+04  0.00000000000E+00 0. -1.
          4    1    3    3  502    0  0.37619806881E+03 -0.38981855438E+03  0.29977675201E+02  0.54256995247E+03  0.00000000000E+00 0.  1.
</event>
<event>
 7    1  0.4894942E-006  0.1043047E+04  0.7818608E-02  0.9060679E-01
          2   -1    0    0  502    0  0.00000000000E+00  0.00000000000E+00  0.19684091314E+04  0.19684091314E+04  0.00000000000E+00 0.  1.
          4   -1    0    0  501    0 -0.00000000000E+00 -0.00000000000E+00 -0.38578964630E+03  0.38578964630E+03  0.00000000000E+00 0.  1.
    9000010    2    1    2  502    0 -0.80422116583E+02  0.24413069803E+03  0.12270707293E+04  0.16082108383E+04  0.10072596542E+04 0.  0.
        -13    1    3    3    0    0  0.33125217384E+03  0.39333474267E+03  0.97670830582E+03  0.11038112829E+04  0.10566000000E+00 0.  1.
         13    1    1    2    0    0  0.96159585936E+02 -0.25424005532E+03 -0.10031735453E+03  0.28973825167E+03  0.10566000000E+00 0. -1.
          2    1    1    2  501    0 -0.15737469352E+02  0.10109357294E+02  0.45586611037E+03  0.45624968781E+03  0.00000000000E+00 0.  1.
          4    1    3    3  502    0 -0.41167429043E+03 -0.14920404464E+03  0.25036242349E+03  0.50439955534E+03  0.00000000000E+00 0.  1.
</event>
<event>
 7    1  0.4894942E-006  0.1110582E+04  0.7818608E-02  0.9329829E-01
          4   -1    0    0  501    0  0.00000000000E+00  0.00000000000E+00  0.14702959845E+03  0.14702959845E+03  0.00000000000E+00 0.  1.
          4   -1    0    0  502    0 -0.00000000000E+00 -0.00000000000E+00 -0.34213079890E+04  0.34213079890E+04  0.00000000000E+00 0.  1.
    9000010    2    1    2  501    0 -0.48071474072E+01  0.22508925976E+02 -0.28344327170E+04  0.30428357078E+04  0.11064856784E+04 0.  0.
        -13    1    3    3    0    0  0.29267739960E+03 -0.44625498688E+03 -0.16623083123E+04  0.17458729936E+04  0.10566000000E+00 0.  1.
         13    1    1    2    0    0 -0.65701470620E+02  0.43892594180E+02 -0.41905856297E+03  0.42644264963E+03  0.10566000000E+00 0. -1.
          4    1    3    3  501    0 -0.29748454700E+03  0.46876391285E+03 -0.11721244048E+04  0.12969627142E+04  0.00000000000E+00 0.  1.
          4    1    1    2  502    0  0.70508618027E+02 -0.66401520155E+02 -0.20787110556E+02  0.99059230061E+02  0.00000000000E+00 0.  1.
</event>
<event>
 7    1  0.4894942E-006  0.1170290E+04  0.7818608E-02  0.8980990E-01
          4   -1    0    0  501    0 -0.00000000000E+00  0.00000000000E+00  0.29567314954E+04  0.29567314954E+04  0.00000000000E+00 0.  1.
          2   -1    0    0  502    0  0.00000000000E+00 -0.00000000000E+00 -0.10868019973E+04  0.10868019973E+04  0.00000000000E+00 0.  1.
    9000010    2    1    2  502    0  0.16812079525E+03 -0.31686305511E+03  0.14643012739E+04  0.18168236127E+04  0.10139048385E+04 0.  0.
        -13    1    3    3    0    0 -0.34736973913E+03  0.80790125734E+02  0.84967880287E+03  0.92149164906E+03  0.10566000000E+00 0.  1.
         13    1    1    2    0    0  0.22986392893E+03 -0.13055270216E+03  0.12017750344E+04  0.12305058628E+04  0.10566000000E+00 0. -1.
          2    1    1    2  501    0 -0.39798472418E+03  0.44741575727E+03 -0.79614681019E+03  0.99620401721E+03  0.00000000000E+00 0.  1.
          4    1    3    3  502    0  0.51549053438E+03 -0.39765318084E+03  0.61462247103E+03  0.89533196367E+03  0.00000000000E+00 0.  1.
</event>
<event>
 7    1  0.4894942E-006  0.1224105E+04  0.7818608E-02  0.8723000E-01
          4   -1    0    0  502    0  0.00000000000E+00  0.00000000000E+00  0.18837675471E+04  0.18837675471E+04  0.00000000000E+00 0. -1.
          4   -1    0    0  501    0 -0.00000000000E+00 -0.00000000000E+00 -0.95328184724E+03  0.95328184724E+03  0.00000000000E+00 0.  1.
    9000010    2    1    2  502    0 -0.26985828059E+03 -0.73044857006E+03 -0.71287306455E+02  0.12835744978E+04  0.10178914512E+04 0.  0.
        -13    1    3    3    0    0 -0.64591741950E+03 -0.60176191903E+03 -0.22066949875E+02  0.88307059822E+03  0.10566000000E+00 0.  1.
         13    1    1    2    0    0  0.25518597479E+03  0.56714524024E+03  0.91563345968E+02  0.62861551265E+03  0.10566000000E+00 0. -1.
          4    1    1    2  501    0  0.14672305797E+02  0.16330332983E+03  0.91020966036E+03  0.92485938385E+03  0.00000000000E+00 0. -1.
          4    1    3    3  502    0  0.37605913891E+03 -0.12868665103E+03 -0.49220356580E+02  0.40050389962E+03  0.00000000000E+00 0.  1.
</event>
<event>
 7    1  0.4894942E-006  0.1046299E+04  0.7818608E-02  0.9001075E-01
          2   -1    0    0  502    0  0.00000000000E+00  0.00000000000E+00  0.30909723197E+04  0.30909723197E+04  0.00000000000E+00 0.  1.
          4   -1    0    0  501    0 -0.00000000000E+00 -0.00000000000E+00 -0.36131228576E+03  0.36131228576E+03  0.00000000000E+00 0.  1.
    9000010    2    1    2  502    0 -0.22111896541E+02  0.36083246294E+03  0.15495715393E+04  0.18735894139E+04  0.98917962673E+03 0.  0.
        -13    1    3    3    0    0 -0.40020027275E+03  0.25922819489E+02  0.23382572273E+03  0.46422702490E+03  0.10566000000E+00 0.  1.
         13    1    1    2    0    0  0.36811276417E+02 -0.33727213034E+03 -0.54646635969E+02  0.34364782258E+03  0.10566000000E+00 0. -1.
          2    1    1    2  501    0 -0.14699379876E+02 -0.23560332598E+02  0.12347351306E+04  0.12350473690E+04  0.00000000000E+00 0.  1.
          4    1    3    3  502    0  0.37808837621E+03  0.33490964345E+03  0.13157458166E+04  0.14093623890E+04  0.00000000000E+00 0.  1.
</event>
<event>
 7    1  0.4894942E-006  0.1009147E+04  0.7818608E-02  0.9406649E-01
          4   -1    0    0  501    0 -0.00000000000E+00  0.00000000000E+00  0.71419274763E+03  0.71419274763E+03  0.00000000000E+00 0.  1.
          2   -1    0    0  502    0  0.00000000000E+00 -0.00000000000E+00 -0.51827506652E+03  0.51827506652E+03  0.00000000000E+00 0.  1.
    9000010    2    1    2  502    0 -0.58773577435E+02  0.11252058681E+02  0.20358437754E+03  0.10281806641E+04  0.10060456934E+04 0.  0.
        -13    1    3    3    0    0  0.28784952596E+03  0.24592689661E+03  0.41287583120E+03  0.56018198045E+03  0.10566000000E+00 0.  1.
         13    1    1    2    0    0  0.47955089577E+02 -0.64742427601E+02  0.71777688581E+02  0.10790421813E+03  0.10566000000E+00 0. -1.
          2    1    1    2  501    0  0.10818487858E+02  0.53490368920E+02 -0.79444385012E+02  0.96382931874E+02  0.00000000000E+00 0.  1.
          4    1    3    3  502    0 -0.34662310339E+03 -0.23467483792E+03 -0.20929145367E+03  0.46799868369E+03  0.00000000000E+00 0.  1.
</event>
<event>
 7    1  0.4894942E-006  0.1000366E+04  0.7818608E-02  0.9225531E-01
         -4   -1    0    0    0  501 -0.00000000000E+00  0.00000000000E+00  0.25942437706E+03  0.25942437706E+03  0.00000000000E+00 0. -1.
          4   -1    0    0  501    0  0.00000000000E+00 -0.00000000000E+00 -0.25283648180E+04  0.25283648180E+04  0.00000000000E+00 0. -1.
   -9000010    2    1    2    0  502  0.10944462431E+03 -0.80690281784E+02 -0.16439714714E+04  0.19224968269E+04  0.98735140814E+03 0.  0.
        -13    1    1    2    0    0 -0.13149251244E+03  0.93940524025E+02  0.65480415888E+02  0.17436398398E+03  0.10566000000E+00 0.  1.
         13    1    3    3    0    0  0.49194404093E+03  0.17357347991E+03 -0.10422442359E+04  0.11655083658E+04  0.10566000000E+00 0. -1.
          4    1    1    2  502    0  0.22047888129E+02 -0.13250242241E+02 -0.69044938545E+03  0.69092838424E+03  0.00000000000E+00 0. -1.
         -4    1    3    3    0  502 -0.38249941662E+03 -0.25426376170E+03 -0.60172723546E+03  0.75698846102E+03  0.00000000000E+00 0. -1.
</event>
<event>
 7    1  0.4894942E-006  0.1021833E+04  0.7818608E-02  0.9294460E-01
          2   -1    0    0  501    0  0.00000000000E+00  0.00000000000E+00  0.46711378589E+03  0.46711378589E+03  0.00000000000E+00 0. -1.
         -4   -1    0    0    0  501 -0.00000000000E+00 -0.00000000000E+00 -0.10277774707E+04  0.10277774707E+04  0.00000000000E+00 0. -1.
   -9000010    2    1    2    0  502 -0.46943267011E+02  0.11219242014E+03 -0.31302404813E+03  0.10693327973E+04  0.10152328636E+04 0.  0.
        -13    1    1    2    0    0  0.33514173959E+02 -0.11086369272E+03 -0.32604265273E+03  0.34600257337E+03  0.10566000000E+00 0.  1.
         13    1    3    3    0    0  0.16562514070E+03 -0.16002942468E+03  0.29246699043E+03  0.37226073611E+03  0.10566000000E+00 0. -1.
          2    1    1    2  502    0  0.13429093052E+02 -0.13287274206E+01  0.78403016037E+02  0.79555885895E+02  0.00000000000E+00 0. -1.
         -4    1    3    3    0  502 -0.21256840771E+03  0.27222184482E+03 -0.60549103856E+03  0.69707206122E+03  0.00000000000E+00 0. -1.
</event>
<event>
 7    1  0.4894942E-006  0.1351767E+04  0.7818608E-02  0.8591861E-01
          4   -1    0    0  501    0 -0.00000000000E+00  0.00000000000E+00  0.16987296479E+04  0.16987296479E+04  0.00000000000E+00 0.  1.
          2   -1    0    0  502    0  0.00000000000E+00 -0.00000000000E+00 -0.10963618805E+04  0.10963618805E+04  0.00000000000E+00 0. -1.
    9000010    2    1    2  502    0 -0.74433663117E+03 -0.51460046274E+03  0.50804126459E+03  0.14495960488E+04  0.10121127019E+04 0.  0.
        -13    1    3    3    0    0  0.13816289050E+03 -0.41866351621E+03  0.31311195411E+03  0.54074691963E+03  0.10566000000E+00 0.  1.
         13    1    1    2    0    0  0.72900753363E+03  0.51205431239E+03  0.44406486239E+03  0.99541208356E+03  0.10566000000E+00 0. -1.
          2    1    1    2  501    0  0.15329097540E+02  0.25461503524E+01 -0.34973835956E+03  0.35008339615E+03  0.00000000000E+00 0. -1.
          4    1    3    3  502    0 -0.88249952167E+03 -0.95936946525E+02  0.19492931048E+03  0.90884912914E+03  0.00000000000E+00 0.  1.
</event>
<event>
 7    1  0.4894942E-006  0.1030775E+04  0.7818608E-02  0.9035145E-01
          2   -1    0    0  502    0  0.00000000000E+00  0.00000000000E+00  0.41804684668E+03  0.41804684668E+03  0.00000000000E+00 0.  1.
          4   -1    0    0  501    0 -0.00000000000E+00 -0.00000000000E+00 -0.29506163329E+04  0.29506163329E+04  0.00000000000E+00 0.  1.
    9000010    2    1    2  502    0 -0.31482961426E+03 -0.15521033878E+03 -0.18842598399E+04  0.21539499350E+04  0.98278036369E+03 0.  0.
        -13    1    3    3    0    0  0.22275331242E+03 -0.39606217285E+03 -0.83579778522E+03  0.95133707586E+03  0.10566000000E+00 0.  1.
         13    1    1    2    0    0  0.23216077472E+03  0.19783484368E+03 -0.89793271710E+03  0.94832506362E+03  0.10566000000E+00 0. -1.
          2    1    1    2  501    0  0.82668839536E+02 -0.42624504902E+02  0.24962307078E+03  0.26638818089E+03  0.00000000000E+00 0.  1.
          4    1    3    3  502    0 -0.53758292668E+03  0.24085183407E+03 -0.10484620547E+04  0.12026128592E+04  0.00000000000E+00 0.  1.
</event>
<event>
 7    1  0.4894942E-006  0.1060549E+04  0.7818608E-02  0.8968010E-01
          1   -1    0    0  501    0  0.00000000000E+00  0.00000000000E+00  0.63551262529E+03  0.63551262529E+03  0.00000000000E+00 0.  1.
         -4   -1    0    0    0  501 -0.00000000000E+00 -0.00000000000E+00 -0.36597370565E+04  0.36597370565E+04  0.00000000000E+00 0. -1.
   -9000010    2    1    2    0  502 -0.36122470310E+03 -0.96412349354E+02 -0.19061786543E+04  0.21812459510E+04  0.99223898802E+03 0.  0.
        -13    1    1    2    0    0  0.36709845691E+03  0.74849273357E+02 -0.15940447000E+04  0.16374804449E+04  0.10566000000E+00 0.  1.
         13    1    3    3    0    0 -0.59027147387E+03 -0.19823610851E+03 -0.18076986706E+04  0.19119342202E+04  0.10566000000E+00 0. -1.
          1    1    1    2  502    0 -0.58737538050E+01  0.21563075997E+02  0.47599892307E+03  0.47652328589E+03  0.00000000000E+00 0.  1.
         -4    1    3    3    0  502  0.22904677077E+03  0.10182375915E+03 -0.98479983661E+02  0.26931173074E+03  0.00000000000E+00 0. -1.
</event>
<event>
 7    1  0.4894942E-006  0.1409952E+04  0.7818608E-02  0.8540282E-01
          2   -1    0    0  501    0  0.00000000000E+00  0.00000000000E+00  0.19465389306E+04  0.19465389306E+04  0.00000000000E+00 0.  1.
         -4   -1    0    0    0  501 -0.00000000000E+00 -0.00000000000E+00 -0.37091519071E+04  0.37091519071E+04  0.00000000000E+00 0. -1.
   -9000010    2    1    2    0  502  0.54089212389E+03  0.76150517492E+03 -0.12574120649E+04  0.18581790540E+04  0.99964487417E+03 0.  0.
        -13    1    1    2    0    0 -0.62225712598E+03 -0.80662556710E+03 -0.20292541706E+04  0.22706213327E+04  0.10566000000E+00 0.  1.
         13    1    3    3    0    0 -0.30775306304E+02  0.59880375521E+02  0.16163373263E+03  0.17509498433E+03  0.10566000000E+00 0. -1.
          2    1    1    2  502    0  0.81365002093E+02  0.45120392180E+02  0.15240532590E+04  0.15268904511E+04  0.00000000000E+00 0.  1.
         -4    1    3    3    0  502  0.57166743020E+03  0.70162479940E+03 -0.14190457976E+04  0.16830840696E+04  0.00000000000E+00 0. -1.
</event>
<event>
 7    1  0.4894942E-006  0.1310018E+04  0.7818608E-02  0.8623325E-01
          2   -1    0    0  502    0  0.00000000000E+00  0.00000000000E+00  0.14074766633E+04  0.14074766633E+04  0.00000000000E+00 0. -1.
          4   -1    0    0  501    0 -0.00000000000E+00 -0.00000000000E+00 -0.20859175703E+04  0.20859175703E+04  0.00000000000E+00 0.  1.
    9000010    2    1    2  502    0 -0.80400311284E+03 -0.38467344213E+03 -0.22266118407E+03  0.13514877087E+04  0.99123476602E+03 0.  0.
        -13    1    3    3    0    0 -0.99225772470E+03 -0.47870310894E+03 -0.27321786692E+03  0.11350683119E+04  0.10566000000E+00 0.  1.
         13    1    1    2    0    0  0.74527131520E+03  0.40497241925E+03 -0.11588509243E+04  0.14360945197E+04  0.10566000000E+00 0. -1.
          2    1    1    2  501    0  0.58731797637E+02 -0.20298977116E+02  0.70307120131E+03  0.70581200517E+03  0.00000000000E+00 0. -1.
          4    1    3    3  502    0  0.18825461187E+03  0.94029666808E+02  0.50556682845E+02  0.21641939679E+03  0.00000000000E+00 0.  1.
</event>
<event>
 7    1  0.4894942E-006  0.1020499E+04  0.7818608E-02  0.9062419E-01
         -2   -1    0    0    0  501  0.00000000000E+00  0.00000000000E+00  0.35792165623E+03  0.35792165623E+03  0.00000000000E+00 0. -1.
         -4   -1    0    0    0  502 -0.00000000000E+00 -0.00000000000E+00 -0.33139176010E+04  0.33139176010E+04  0.00000000000E+00 0. -1.
   -9000010    2    1    2    0  501 -0.18895047418E+03 -0.20361083144E+03 -0.23816158490E+04  0.25900136309E+04  0.97924302593E+03 0.  0.
        -13    1    1    2    0    0  0.20066055349E+03  0.20872552789E+03 -0.80261052400E+03  0.85323775591E+03  0.10566000000E+00 0.  1.
         13    1    3    3    0    0 -0.71697439757E+02  0.27284073838E+03 -0.18058141758E+03  0.33495111722E+03  0.10566000000E+00 0. -1.
         -2    1    1    2    0  502 -0.11710079308E+02 -0.51146964443E+01  0.22823042828E+03  0.22858787034E+03  0.00000000000E+00 0. -1.
         -4    1    3    3    0  501 -0.11725303442E+03 -0.47645156982E+03 -0.22010344314E+04  0.22550625137E+04  0.00000000000E+00 0. -1.
</event>
<event>
 7    1  0.4894942E-006  0.1089877E+04  0.7818608E-02  0.8897057E-01
          4   -1    0    0  501    0 -0.00000000000E+00  0.00000000000E+00  0.38858795790E+03  0.38858795790E+03  0.00000000000E+00 0.  1.
          2   -1    0    0  502    0  0.00000000000E+00 -0.00000000000E+00 -0.29511171088E+04  0.29511171088E+04  0.00000000000E+00 0.  1.
    9000010    2    1    2  502    0  0.35245399168E+03  0.28893525363E+03 -0.21952146592E+04  0.24497360637E+04  0.98718386579E+03 0.  0.
        -13    1    3    3    0    0 -0.16051020031E+03 -0.16200722973E+03 -0.13200411854E+04  0.13395964352E+04  0.10566000000E+00 0.  1.
         13    1    1    2    0    0 -0.39978975268E+03 -0.23324971359E+03  0.50688290683E+02  0.46562494479E+03  0.10566000000E+00 0. -1.
          2    1    1    2  501    0  0.47335760997E+02 -0.55685540047E+02 -0.41800278238E+03  0.42434405818E+03  0.00000000000E+00 0.  1.
          4    1    3    3  502    0  0.51296419199E+03  0.45094248336E+03 -0.87517347382E+03  0.11101396285E+04  0.00000000000E+00 0.  1.
</event>
<event>
 7    1  0.4894942E-006  0.1011758E+04  0.7818608E-02  0.9378781E-01
         -4   -1    0    0    0  501 -0.00000000000E+00  0.00000000000E+00  0.10682877641E+04  0.10682877641E+04  0.00000000000E+00 0. -1.
          1   -1    0    0  501    0  0.00000000000E+00 -0.00000000000E+00 -0.17041211491E+04  0.17041211491E+04  0.00000000000E+00 0. -1.
   -9000010    2    1    2    0  502 -0.62526438159E+02  0.22516963913E+02  0.60100580117E+03  0.11713813865E+04  0.10032496252E+04 0.  0.
        -13    1    1    2    0    0 -0.10723448415E+02  0.86335253189E+02  0.16846978474E+03  0.18960708801E+03  0.10566000000E+00 0.  1.
         13    1    3    3    0    0 -0.50156979150E+03 -0.24922268551E+02  0.51908490534E+03  0.72224824356E+03  0.10566000000E+00 0. -1.
          1    1    1    2  502    0  0.73249886574E+02 -0.10885221710E+03 -0.14053089709E+04  0.14114204387E+04  0.00000000000E+00 0. -1.
         -4    1    3    3    0  502  0.43904335334E+03  0.47439232464E+02  0.81920895839E+02  0.44913314291E+03  0.00000000000E+00 0. -1.
</event>
<event>
 7    1  0.4894942E-006  0.1047905E+04  0.7818608E-02  0.8968908E-01
         -4   -1    0    0    0  501 -0.00000000000E+00  0.00000000000E+00  0.71888559986E+03  0.71888559986E+03  0.00000000000E+00 0. -1.
          2   -1    0    0  501    0  0.00000000000E+00 -0.00000000000E+00 -0.12724710698E+04  0.12724710698E+04  0.00000000000E+00 0. -1.
   -9000010    2    1    2    0  502 -0.35110115802E+03 -0.25901073335E+03 -0.71293169276E+03  0.12834118723E+04  0.97391778518E+03 0.  0.
        -13    1    1    2    0    0  0.23313544906E+03  0.29619740832E+03 -0.12559585303E+03  0.39731520455E+03  0.10566000000E+00 0.  1.
         13    1    3    3    0    0 -0.26316503963E+03 -0.62599913185E+03 -0.54332147919E+03  0.86967177261E+03  0.10566000000E+00 0. -1.
          2    1    1    2  502    0  0.11796570896E+03 -0.37186674974E+02  0.28494207589E+03  0.31062959276E+03  0.00000000000E+00 0. -1.
         -4    1    3    3    0  502 -0.87936118388E+02  0.36698839850E+03 -0.16961021357E+03  0.41374009970E+03  0.00000000000E+00 0. -1.
</event>
<event>
 7    1  0.4894942E-006  0.1079299E+04  0.7818608E-02  0.8935718E-01
          5   -1    0    0  501    0  0.00000000000E+00  0.00000000000E+00  0.12653124097E+04  0.12653124097E+04  0.00000000000E+00 0. -1.
         -4   -1    0    0    0  501 -0.00000000000E+00 -0.00000000000E+00 -0.45037413739E+03  0.45037413739E+03  0.00000000000E+00 0. -1.
   -9000010    2    1    2    0  502  0.29744031360E+03 -0.25412039568E+03  0.61725733929E+03  0.12387655570E+04  0.10002427538E+04 0.  0.
        -13    1    1    2    0    0 -0.31443625039E+03  0.26343819921E+03  0.17214882003E+03  0.44486522427E+03  0.10566000000E+00 0.  1.
         13    1    3    3    0    0 -0.34541988174E+01 -0.44820635110E+03 -0.79663753648E+02  0.45524409877E+03  0.10566000000E+00 0. -1.
          5    1    1    2  502    0  0.16995936794E+02 -0.93178035264E+01  0.25532112992E+02  0.32055765845E+02  0.00000000000E+00 0. -1.
         -4    1    3    3    0  502  0.30089451242E+03  0.19408595541E+03  0.69692109294E+03  0.78352145821E+03  0.00000000000E+00 0. -1.
</event>
<event>
 7    1  0.4894942E-006  0.1072774E+04  0.7818608E-02  0.8965200E-01
          2   -1    0    0  501    0  0.00000000000E+00  0.00000000000E+00  0.14840948567E+04  0.14840948567E+04  0.00000000000E+00 0.  1.
         -4   -1    0    0    0  501 -0.00000000000E+00 -0.00000000000E+00 -0.12692527946E+04  0.12692527946E+04  0.00000000000E+00 0. -1.
   -9000010    2    1    2    0  502 -0.32900450933E+03  0.13433674999E+03 -0.48468185240E+03  0.11739296227E+04  0.10084165466E+04 0.  0.
        -13    1    1    2    0    0  0.33716348399E+03 -0.14839305266E+03 -0.36276260428E+03  0.51700718684E+03  0.10566000000E+00 0.  1.
         13    1    3    3    0    0 -0.52579054146E+03  0.11273210965E+03 -0.69917013096E+03  0.88204484309E+03  0.10566000000E+00 0. -1.
          2    1    1    2  502    0 -0.81589746598E+01  0.14056302675E+02  0.10622865188E+04  0.10624108417E+04  0.00000000000E+00 0.  1.
         -4    1    3    3    0  502  0.19678603213E+03  0.21604640342E+02  0.21448827856E+03  0.29188477961E+03  0.00000000000E+00 0. -1.
</event>
<event>
 7    1  0.4894942E-006  0.1036918E+04  0.7818608E-02  0.9053621E-01
          4   -1    0    0  501    0  0.00000000000E+00  0.00000000000E+00  0.11244653020E+04  0.11244653020E+04  0.00000000000E+00 0.  1.
          4   -1    0    0  502    0 -0.00000000000E+00 -0.00000000000E+00 -0.51851129238E+03  0.51851129238E+03  0.00000000000E+00 0.  1.
    9000010    2    1    2  501    0  0.26202338904E+03  0.17620681177E+02  0.37369665937E+03  0.10969912022E+04  0.99738345669E+03 0.  0.
        -13    1    3    3    0    0 -0.70188915796E+02  0.13356570016E+03  0.63883760032E+03  0.65641432869E+03  0.10566000000E+00 0.  1.
         13    1    1    2    0    0 -0.27975515601E+03  0.76674791340E+02 -0.49427152867E+01  0.29011448178E+03  0.10566000000E+00 0. -1.
          4    1    3    3  501    0  0.33221230483E+03 -0.11594501898E+03 -0.26514094095E+03  0.44057687352E+03  0.00000000000E+00 0.  1.
          4    1    1    2  502    0  0.17731766969E+02 -0.94295472517E+02  0.23720006554E+03  0.25587091040E+03  0.00000000000E+00 0.  1.
</event>
<event>
 7    1  0.4894942E-006  0.1012991E+04  0.7818608E-02  0.9245844E-01
          2   -1    0    0  502    0  0.00000000000E+00  0.00000000000E+00  0.41898846674E+04  0.41898846674E+04  0.00000000000E+00 0. -1.
          4   -1    0    0  501    0 -0.00000000000E+00 -0.00000000000E+00 -0.34801451596E+03  0.34801451596E+03  0.00000000000E+00 0.  1.
    9000010    2    1    2  502    0 -0.13110507047E+03  0.73364633806E+02  0.63234227037E+03  0.11950114965E+04  0.10028084667E+04 0.  0.
        -13    1    3    3    0    0  0.32570953003E+03  0.14820194488E+03 -0.59334496315E+02  0.36272731912E+03  0.10566000000E+00 0.  1.
         13    1    1    2    0    0  0.14150665275E+03 -0.23108975975E+02  0.10842438973E+02  0.14379056711E+03  0.10566000000E+00 0. -1.
          2    1    1    2  501    0 -0.10401582277E+02 -0.50255657831E+02  0.31986854420E+04  0.31990971197E+04  0.00000000000E+00 0. -1.
          4    1    3    3  502    0 -0.45681460050E+03 -0.74837311070E+02  0.69167676669E+03  0.83228417739E+03  0.00000000000E+00 0.  1.
</event>
<event>
 7    1  0.4894942E-006  0.1017043E+04  0.7818608E-02  0.9287040E-01
          2   -1    0    0  502    0  0.00000000000E+00  0.00000000000E+00  0.14432101124E+04  0.14432101124E+04  0.00000000000E+00 0. -1.
          4   -1    0    0  501    0 -0.00000000000E+00 -0.00000000000E+00 -0.57193706772E+03  0.57193706772E+03  0.00000000000E+00 0.  1.
    9000010    2    1    2  502    0  0.68734021922E+02  0.52605757207E+02  0.76835756153E+02  0.10076810893E+04  0.10010123440E+04 0.  0.
        -13    1    3    3    0    0 -0.31664362146E+03  0.29941787673E+03  0.26812961175E+03  0.51167152333E+03  0.10566000000E+00 0.  1.
         13    1    1    2    0    0 -0.11845138011E+02  0.12037729569E+03 -0.59167357651E+02  0.13465432777E+03  0.10566000000E+00 0. -1.
          2    1    1    2  501    0 -0.56888883912E+02 -0.17298305290E+03  0.85360464613E+03  0.87281176298E+03  0.00000000000E+00 0. -1.
          4    1    3    3  502    0  0.38537764339E+03 -0.24681211953E+03 -0.19129385560E+03  0.49600956599E+03  0.00000000000E+00 0.  1.
</event>
<event>
 7    1  0.4894942E-006  0.1138966E+04  0.7818608E-02  0.8832949E-01
          2   -1    0    0  501    0  0.00000000000E+00  0.00000000000E+00  0.11070868651E+04  0.11070868651E+04  0.00000000000E+00 0.  1.
         -4   -1    0    0    0  501 -0.00000000000E+00 -0.00000000000E+00 -0.41074584189E+04  0.41074584189E+04  0.00000000000E+00 0. -1.
   -9000010    2    1    2    0  502 -0.77767147503E+01 -0.38428854587E+03 -0.29079401649E+04  0.31018551900E+04  0.10087871198E+04 0.  0.
        -13    1    1    2    0    0  0.22962228025E+03  0.69045052862E+03 -0.93759192465E+03  0.11868137817E+04  0.10566000000E+00 0.  1.
         13    1    3    3    0    0  0.52014046824E+02 -0.23070288994E+03 -0.53254305622E+02  0.24241558681E+03  0.10566000000E+00 0. -1.
          2    1    1    2  502    0 -0.22184556550E+03 -0.30616198275E+03  0.84516053575E+03  0.92587631237E+03  0.00000000000E+00 0.  1.
         -4    1    3    3    0  502 -0.59790761574E+02 -0.15358565593E+03 -0.28546858593E+04  0.28594396032E+04  0.00000000000E+00 0. -1.
</event>
<event>
 7    1  0.4894942E-006  0.1019043E+04  0.7818608E-02  0.9118427E-01
          4   -1    0    0  501    0 -0.00000000000E+00  0.00000000000E+00  0.93542893496E+03  0.93542893496E+03  0.00000000000E+00 0.  1.
          2   -1    0    0  502    0  0.00000000000E+00 -0.00000000000E+00 -0.19409768307E+04  0.19409768307E+04  0.00000000000E+00 0.  1.
    9000010    2    1    2  502    0 -0.22084819244E+03 -0.15592322907E+03  0.49835059409E+03  0.11430346168E+04  0.99251641953E+03 0.  0.
        -13    1    3    3    0    0 -0.18671691455E+03  0.33110066299E+03 -0.77642657062E+02  0.38796810252E+03  0.10566000000E+00 0.  1.
         13    1    1    2    0    0  0.21368181218E+03  0.58742431740E+02  0.46704311792E+01  0.22165832769E+03  0.10566000000E+00 0. -1.
          2    1    1    2  501    0  0.71663802593E+01  0.97180797325E+02 -0.15085689210E+04  0.15117128212E+04  0.00000000000E+00 0.  1.
          4    1    3    3  502    0 -0.34131277884E+02 -0.48702389206E+03  0.57599325115E+03  0.75506651425E+03  0.00000000000E+00 0.  1.
</event>
<event>
 7    1  0.4894942E-006  0.1156284E+04  0.7818608E-02  0.8802534E-01
         -4   -1    0    0    0  502 -0.00000000000E+00  0.00000000000E+00  0.16717240651E+04  0.16717240651E+04  0.00000000000E+00 0. -1.
         -2   -1    0    0    0  501  0.00000000000E+00 -0.00000000000E+00 -0.48081612895E+03  0.48081612895E+03  0.00000000000E+00 0.  1.
   -9000010    2    1    2    0  501 -0.50607558467E+03 -0.25187934490E+03  0.54511080349E+03  0.12742161737E+04  0.10034567093E+04 0.  0.
        -13    1    1    2    0    0  0.51619169660E+03  0.25850700738E+03  0.64581336877E+03  0.86623014202E+03  0.10566000000E+00 0.  1.
         13    1    3    3    0    0 -0.24170608167E+03  0.38454485059E+03  0.29246733665E+03  0.54021636980E+03  0.10566000000E+00 0. -1.
         -2    1    1    2    0  502 -0.10116111924E+02 -0.66276624797E+01 -0.16236117632E-01  0.12093878370E+02  0.00000000000E+00 0.  1.
         -4    1    3    3    0  501 -0.26436950300E+03 -0.63642419549E+03  0.25264346685E+03  0.73399980386E+03  0.00000000000E+00 0. -1.
</event>
<event>
 7    1  0.4894942E-006  0.1460805E+04  0.7818608E-02  0.8535682E-01
          4   -1    0    0  501    0 -0.00000000000E+00  0.00000000000E+00  0.33492905840E+04  0.33492905840E+04  0.00000000000E+00 0.  1.
          2   -1    0    0  502    0  0.00000000000E+00 -0.00000000000E+00 -0.62526676021E+03  0.62526676021E+03  0.00000000000E+00 0. -1.
    9000010    2    1    2  502    0  0.16734136982E+02 -0.91059679645E+03  0.13609359108E+04  0.19956111803E+04  0.11405484963E+04 0.  0.
        -13    1    3    3    0    0 -0.15414786830E+03 -0.14057043278E+03  0.11641228078E+04  0.11826679731E+04  0.10566000000E+00 0.  1.
         13    1    1    2    0    0  0.12384097057E+02  0.91357562447E+03  0.15448686723E+04  0.17948239505E+04  0.10566000000E+00 0. -1.
          2    1    1    2  501    0 -0.29118234039E+02 -0.29788280184E+01 -0.18178075939E+03  0.18412221337E+03  0.00000000000E+00 0. -1.
          4    1    3    3  502    0  0.17088200528E+03 -0.77002636367E+03  0.19681310299E+03  0.81294320711E+03  0.00000000000E+00 0.  1.
</event>
<event>
 7    1  0.4894942E-006  0.9810501E+03  0.7818608E-02  0.9465798E-01
         -4   -1    0    0    0  501 -0.00000000000E+00  0.00000000000E+00  0.18762831341E+04  0.18762831341E+04  0.00000000000E+00 0. -1.
          2   -1    0    0  501    0  0.00000000000E+00 -0.00000000000E+00 -0.59819884797E+03  0.59819884797E+03  0.00000000000E+00 0. -1.
   -9000010    2    1    2    0  502 -0.50121460330E+02 -0.60995869019E+02  0.17108267657E+04  0.19725189705E+04  0.97860625885E+03 0.  0.
        -13    1    1    2    0    0  0.35319896664E+02  0.56836616501E+02  0.20016519794E+01  0.66947097400E+02  0.10566000000E+00 0.  1.
         13    1    3    3    0    0  0.32591160739E+03  0.15654289993E+03  0.22818335160E+03  0.42754146988E+03  0.10566000000E+00 0. -1.
          2    1    1    2  502    0  0.14801563666E+02  0.41592525185E+01 -0.43474413156E+03  0.43501591418E+03  0.00000000000E+00 0. -1.
         -4    1    3    3    0  502 -0.37603306772E+03 -0.21753876895E+03  0.14826434141E+04  0.15449775006E+04  0.00000000000E+00 0. -1.
</event>
<event>
 7    1  0.4894942E-006  0.1111076E+04  0.7818608E-02  0.8842260E-01
         -4   -1    0    0    0  501 -0.00000000000E+00  0.00000000000E+00  0.35622201448E+04  0.35622201448E+04  0.00000000000E+00 0. -1.
          2   -1    0    0  501    0  0.00000000000E+00 -0.00000000000E+00 -0.34702163199E+03  0.34702163199E+03  0.00000000000E+00 0. -1.
   -9000010    2    1    2    0  502 -0.48129657273E+03  0.25838837446E+03  0.11083289655E+04  0.15688396002E+04  0.96667142938E+03 0.  0.
        -13    1    1    2    0    0  0.51317673299E+03 -0.19389367708E+03  0.21739130554E+04  0.22420622428E+04  0.10566000000E+00 0.  1.
         13    1    3    3    0    0 -0.69452418069E+03 -0.58131536337E+02  0.52846018242E+03  0.87465038081E+03  0.10566000000E+00 0. -1.
          2    1    1    2  502    0 -0.31880160262E+02 -0.64494697373E+02 -0.67043508023E+02  0.98339933778E+02  0.00000000000E+00 0. -1.
         -4    1    3    3    0  502  0.21322760796E+03  0.31651991079E+03  0.57986878306E+03  0.69418921937E+03  0.00000000000E+00 0. -1.
</event>
<event>
 7    1  0.4894942E-006  0.1081984E+04  0.7818608E-02  0.8918584E-01
          2   -1    0    0  501    0  0.00000000000E+00  0.00000000000E+00  0.64091153240E+03  0.64091153240E+03  0.00000000000E+00 0. -1.
         -4   -1    0    0    0  501 -0.00000000000E+00 -0.00000000000E+00 -0.17587539258E+04  0.17587539258E+04  0.00000000000E+00 0. -1.
   -9000010    2    1    2    0  502 -0.25144292447E+03 -0.33631146800E+03 -0.11967272287E+04  0.16101806345E+04  0.99206686681E+03 0.  0.
        -13    1    1    2    0    0  0.27139589340E+03  0.34602144744E+03 -0.21865567780E+03  0.49111799971E+03  0.10566000000E+00 0.  1.
         13    1    3    3    0    0 -0.62833347702E+03 -0.22769770343E+03 -0.88594822881E+03  0.11097537915E+04  0.10566000000E+00 0. -1.
          2    1    1    2  502    0 -0.19952968930E+02 -0.97099794446E+01  0.29754051311E+03  0.29836682391E+03  0.00000000000E+00 0. -1.
         -4    1    3    3    0  502  0.37689055255E+03 -0.10861376457E+03 -0.31077899987E+03  0.50042684302E+03  0.00000000000E+00 0. -1.
</event>
<event>
 7    1  0.4894942E-006  0.1307371E+04  0.7818608E-02  0.8628118E-01
          2   -1    0    0  502    0  0.00000000000E+00  0.00000000000E+00  0.80844825172E+03  0.80844825172E+03  0.00000000000E+00 0. -1.
          4   -1    0    0  501    0 -0.00000000000E+00 -0.00000000000E+00 -0.18509734408E+04  0.18509734408E+04  0.00000000000E+00 0.  1.
    9000010    2    1    2  502    0  0.79489324021E+03  0.31607448328E+03 -0.78073222390E+03  0.15292714419E+04  0.99868413187E+03 0.  0.
        -13    1    3    3    0    0 -0.39135412139E+02 -0.96955200311E+02  0.16951798656E+03  0.19916889888E+03  0.10566000000E+00 0.  1.
         13    1    1    2    0    0 -0.73997416400E+03 -0.39274550578E+03 -0.42672165256E+03  0.94016071798E+03  0.10566000000E+00 0. -1.
          2    1    1    2  501    0 -0.54919076210E+02  0.76671022499E+02  0.16492868734E+03  0.18998953269E+03  0.00000000000E+00 0. -1.
          4    1    3    3  502    0  0.83402865235E+03  0.41302968359E+03 -0.95025021046E+03  0.13301025430E+04  0.00000000000E+00 0.  1.
</event>
<event>
 7    1  0.4894942E-006  0.1063687E+04  0.7818608E-02  0.9040493E-01
          2   -1    0    0  502    0  0.00000000000E+00  0.00000000000E+00  0.10203178226E+04  0.10203178226E+04  0.00000000000E+00 0.  1.
          4   -1    0    0  501    0 -0.00000000000E+00 -0.00000000000E+00 -0.11140095717E+04  0.11140095717E+04  0.00000000000E+00 0.  1.
    9000010    2    1    2  502    0 -0.22450503494E+03  0.67802984631E+02  0.36076560251E+03  0.11135135231E+04  0.10270154774E+04 0.  0.
        -13    1    3    3    0    0 -0.22537296757E+03 -0.45271862936E+03  0.52190977526E+02  0.50840047323E+03  0.10566000000E+00 0.  1.
         13    1    1    2    0    0  0.27132263697E+03 -0.62489294575E+02 -0.70912386884E+03  0.76182514909E+03  0.10566000000E+00 0. -1.
          2    1    1    2  501    0 -0.46817602030E+02 -0.53136900558E+01  0.25466651722E+03  0.25898872206E+03  0.00000000000E+00 0.  1.
          4    1    3    3  502    0  0.86793263534E+00  0.52052161399E+03  0.30857462498E+03  0.60511304987E+03  0.00000000000E+00 0.  1.
</event>
<event>
 7    1  0.4894942E-006  0.1021832E+04  0.7818608E-02  0.9154355E-01
          2   -1    0    0  501    0  0.00000000000E+00  0.00000000000E+00  0.29711931080E+03  0.29711931080E+03  0.00000000000E+00 0. -1.
         -4   -1    0    0    0  501 -0.00000000000E+00 -0.00000000000E+00 -0.15959340176E+04  0.15959340176E+04  0.00000000000E+00 0. -1.
   -9000010    2    1    2    0  502  0.12499465905E+03 -0.10825569295E+03 -0.91973600579E+03  0.13703341219E+04  0.10022765713E+04 0.  0.
        -13    1    1    2    0    0 -0.13583446003E+03  0.15023599277E+03 -0.41798119291E+03  0.46446759074E+03  0.10566000000E+00 0.  1.
         13    1    3    3    0    0  0.69263354957E+02 -0.46416073360E+03 -0.89336246512E+03  0.10091278929E+04  0.10566000000E+00 0. -1.
          2    1    1    2  502    0  0.10839800981E+02 -0.41980299823E+02  0.38902491929E+02  0.58251615744E+02  0.00000000000E+00 0. -1.
         -4    1    3    3    0  502  0.55731304093E+02  0.35590504064E+03 -0.26373540664E+02  0.36120622899E+03  0.00000000000E+00 0. -1.
</event>
<event>
 7    1  0.4894942E-006  0.1094596E+04  0.7818608E-02  0.8907397E-01
          1   -1    0    0  501    0  0.00000000000E+00  0.00000000000E+00  0.47174109347E+03  0.47174109347E+03  0.00000000000E+00 0. -1.
         -4   -1    0    0    0  501 -0.00000000000E+00 -0.00000000000E+00 -0.26645075202E+04  0.26645075202E+04  0.00000000000E+00 0. -1.
   -9000010    2    1    2    0  502 -0.13363909014E+03  0.37311035337E+03 -0.17679750269E+04  0.20712681690E+04  0.10036659753E+04 0.  0.
        -13    1    1    2    0    0  0.19058602938E+03 -0.41432487031E+03 -0.66966893933E+03  0.81021270801E+03  0.10566000000E+00 0.  1.
         13    1    3    3    0    0  0.20544219678E+03  0.63772459255E+02  0.28585816845E+02  0.21700364713E+03  0.10566000000E+00 0. -1.
          1    1    1    2  502    0 -0.56946939241E+02  0.41214516947E+02  0.24487753948E+03  0.25476773665E+03  0.00000000000E+00 0. -1.
         -4    1    3    3    0  502 -0.33908128692E+03  0.30933789411E+03 -0.17965608437E+04  0.18542645219E+04  0.00000000000E+00 0. -1.
</event>
<event>
 7    1  0.4894942E-006  0.1050878E+04  0.7818608E-02  0.8993841E-01
          2   -1    0    0  501    0  0.00000000000E+00  0.00000000000E+00  0.13835368290E+04  0.13835368290E+04  0.00000000000E+00 0. -1.
         -4   -1    0    0    0  501 -0.00000000000E+00 -0.00000000000E+00 -0.14369809626E+04  0.14369809626E+04  0.00000000000E+00 0. -1.
   -9000010    2    1    2    0  502  0.36280661599E+02  0.35567586564E+03 -0.36287243305E+03  0.11152361773E+04  0.99209562079E+03 0.  0.
        -13    1    1    2    0    0 -0.26293071119E+02 -0.34430437456E+03 -0.65515256718E+03  0.74058201800E+03  0.10566000000E+00 0.  1.
         13    1    3    3    0    0  0.85935890382E+02  0.68479937384E+03 -0.11374415965E+03  0.69948045339E+03  0.10566000000E+00 0. -1.
          2    1    1    2  502    0 -0.99875904795E+01 -0.11371491085E+02  0.96458086660E+03  0.96469959624E+03  0.00000000000E+00 0. -1.
         -4    1    3    3    0  502 -0.49655228784E+02 -0.32912350819E+03 -0.24912827340E+03  0.41575572395E+03  0.00000000000E+00 0. -1.
</event>
<event>
 7    1  0.4894942E-006  0.1128977E+04  0.7818608E-02  0.8837199E-01
         -4   -1    0    0    0  501 -0.00000000000E+00  0.00000000000E+00  0.12190101053E+04  0.12190101053E+04  0.00000000000E+00 0. -1.
          2   -1    0    0  501    0  0.00000000000E+00 -0.00000000000E+00 -0.16964890421E+04  0.16964890421E+04  0.00000000000E+00 0. -1.
   -9000010    2    1    2    0  502 -0.38723299875E+03  0.46932573283E+03  0.38888175822E+02  0.11669994972E+04  0.99506758435E+03 0.  0.
        -13    1    1    2    0    0  0.29698442272E+03 -0.42564682300E+03  0.50385856554E+03  0.72335912968E+03  0.10566000000E+00 0.  1.
         13    1    3    3    0    0 -0.15073596233E+03  0.71840492592E+03 -0.18500118218E+03  0.75700225660E+03  0.10566000000E+00 0. -1.
          2    1    1    2  502    0  0.90248576035E+02 -0.43678909828E+02 -0.10202256781E+04  0.10251405206E+04  0.00000000000E+00 0. -1.
         -4    1    3    3    0  502 -0.23649703643E+03 -0.24907919309E+03  0.22388935801E+03  0.40999724060E+03  0.00000000000E+00 0. -1.
</event>
<event>
 7    1  0.4894942E-006  0.9990186E+03  0.7818608E-02  0.9433267E-01
         -4   -1    0    0    0  501 -0.00000000000E+00  0.00000000000E+00  0.38706990115E+03  0.38706990115E+03  0.00000000000E+00 0. -1.
          1   -1    0    0  501    0  0.00000000000E+00 -0.00000000000E+00 -0.16290592515E+04  0.16290592515E+04  0.00000000000E+00 0. -1.
   -9000010    2    1    2    0  502  0.21678835371E+02 -0.79311634059E+01 -0.38535522200E+03  0.10684641943E+04  0.99628520621E+03 0.  0.
        -13    1    1    2    0    0 -0.57252374357E+02 -0.51088752125E+02  0.10807784016E+02  0.77490091770E+02  0.10566000000E+00 0.  1.
         13    1    3    3    0    0 -0.24827334232E+03 -0.38223054424E+03 -0.40046965147E+03  0.60672546870E+03  0.10566000000E+00 0. -1.
          1    1    1    2  502    0  0.35573538986E+02  0.59019915531E+02 -0.86744191235E+03  0.87017486657E+03  0.00000000000E+00 0. -1.
         -4    1    3    3    0  502  0.26995217769E+03  0.37429938084E+03  0.15114429471E+02  0.46173872559E+03  0.00000000000E+00 0. -1.
</event>
<event>
 7    1  0.4894942E-006  0.1050950E+04  0.7818608E-02  0.9139154E-01
         -4   -1    0    0    0  501 -0.00000000000E+00  0.00000000000E+00  0.27017035069E+04  0.27017035069E+04  0.00000000000E+00 0. -1.
          1   -1    0    0  501    0  0.00000000000E+00 -0.00000000000E+00 -0.48244951371E+03  0.48244951371E+03  0.00000000000E+00 0.  1.
   -9000010    2    1    2    0  502 -0.25793585548E+02 -0.20094723342E+03  0.22393185500E+04  0.24743511793E+04  0.10328703162E+04 0.  0.
        -13    1    1    2    0    0  0.31098074375E+02  0.18965134964E+03  0.31797006742E+03  0.37153694243E+03  0.10566000000E+00 0.  1.
         13    1    3    3    0    0 -0.43663744844E+03 -0.38539893086E+03  0.10204889591E+04  0.11749818399E+04  0.10566000000E+00 0. -1.
          1    1    1    2  502    0 -0.53044888273E+01  0.11295883780E+02 -0.33803462429E+03  0.33826489887E+03  0.00000000000E+00 0.  1.
         -4    1    3    3    0  502  0.41084386289E+03  0.18445169744E+03  0.12188295910E+04  0.12993693394E+04  0.00000000000E+00 0. -1.
</event>
<event>
 7    1  0.4894942E-006  0.1053297E+04  0.7818608E-02  0.8970778E-01
          1   -1    0    0  501    0  0.00000000000E+00  0.00000000000E+00  0.58507944101E+03  0.58507944101E+03  0.00000000000E+00 0. -1.
         -4   -1    0    0    0  501 -0.00000000000E+00 -0.00000000000E+00 -0.12645509896E+04  0.12645509896E+04  0.00000000000E+00 0. -1.
   -9000010    2    1    2    0  502 -0.26704419825E+03  0.28126123282E+03 -0.16977778412E+03  0.10704305077E+04  0.98314622048E+03 0.  0.
        -13    1    1    2    0    0  0.26586455653E+03 -0.26696575602E+03 -0.58867719771E+03  0.69892455357E+03  0.10566000000E+00 0.  1.
         13    1    3    3    0    0 -0.48854371476E+03  0.41443446792E+03 -0.37329173980E+03  0.74146990741E+03  0.10566000000E+00 0. -1.
          1    1    1    2  502    0  0.11796417276E+01 -0.14295476798E+02  0.78983433220E+02  0.80275369415E+02  0.00000000000E+00 0. -1.
         -4    1    3    3    0  502  0.22149951651E+03 -0.13317323510E+03  0.20351395567E+03  0.32896060025E+03  0.00000000000E+00 0. -1.
</event>
<event>
 7    1  0.4894942E-006  0.1040993E+04  0.7818608E-02  0.9015893E-01
         -4   -1    0    0    0  501 -0.00000000000E+00  0.00000000000E+00  0.10157701052E+04  0.10157701052E+04  0.00000000000E+00 0. -1.
          2   -1    0    0  501    0  0.00000000000E+00 -0.00000000000E+00 -0.60263897434E+03  0.60263897434E+03  0.00000000000E+00 0. -1.
   -9000010    2    1    2    0  502  0.31220750027E+03 -0.52170955537E+02  0.20094016180E+03  0.10573040405E+04  0.98859473677E+03 0.  0.
        -13    1    1    2    0    0 -0.32259755113E+03  0.57391651015E+02  0.31684908071E+03  0.45580295383E+03  0.10566000000E+00 0.  1.
         13    1    3    3    0    0  0.54579353543E+03 -0.25845902420E+03  0.36447975311E+03  0.70536313491E+03  0.10566000000E+00 0. -1.
          2    1    1    2  502    0  0.10390050860E+02 -0.52206954772E+01 -0.10465811166E+03  0.10530208523E+03  0.00000000000E+00 0. -1.
         -4    1    3    3    0  502 -0.23358603515E+03  0.20628806866E+03 -0.16353959131E+03  0.35194090557E+03  0.00000000000E+00 0. -1.
</event>
<event>
 7    1  0.4894942E-006  0.1102022E+04  0.7818608E-02  0.8892443E-01
         -4   -1    0    0    0  501 -0.00000000000E+00  0.00000000000E+00  0.21987662598E+04  0.21987662598E+04  0.00000000000E+00 0. -1.
          2   -1    0    0  501    0  0.00000000000E+00 -0.00000000000E+00 -0.12289359995E+04  0.12289359995E+04  0.00000000000E+00 0. -1.
   -9000010    2    1    2    0  502  0.45398463714E+03  0.76952264075E+02  0.16780546691E+04  0.20087270371E+04  0.10035403008E+04 0.  0.
        -13    1    1    2    0    0 -0.43997948776E+03 -0.10038858850E+03  0.21182031104E+03  0.49852549953E+03  0.10566000000E+00 0.  1.
         13    1    3    3    0    0  0.27269448939E+03 -0.60896950963E+02 -0.34106380895E+02  0.28148530967E+03  0.10566000000E+00 0. -1.
          2    1    1    2  502    0 -0.14005149388E+02  0.23436324425E+02 -0.92004471984E+03  0.92044972269E+03  0.00000000000E+00 0. -1.
         -4    1    3    3    0  502  0.18129014776E+03  0.13784921504E+03  0.17121610500E+04  0.17272417274E+04  0.00000000000E+00 0. -1.
</event>
<event>
 7    1  0.4894942E-006  0.9784249E+03  0.7818608E-02  0.9273186E-01
         -4   -1    0    0    0  501 -0.00000000000E+00  0.00000000000E+00  0.10483116541E+04  0.10483116541E+04  0.00000000000E+00 0. -1.
          1   -1    0    0  501    0  0.00000000000E+00 -0.00000000000E+00 -0.35112744214E+03  0.35112744214E+03  0.00000000000E+00 0. -1.
   -9000010    2    1    2    0  502  0.53596418361E+02 -0.10612786661E+03  0.58629066293E+03  0.11378393159E+04  0.96788732160E+03 0.  0.
        -13    1    1    2    0    0 -0.10515497406E+03  0.10223537105E+03  0.13958381171E+03  0.20246800073E+03  0.10566000000E+00 0.  1.
         13    1    3    3    0    0 -0.18526706212E+03  0.33649437516E+03  0.26132912507E+02  0.38501336223E+03  0.10566000000E+00 0. -1.
          1    1    1    2  502    0  0.51558555702E+02  0.38924955587E+01 -0.28690262651E+02  0.59131779600E+02  0.00000000000E+00 0. -1.
         -4    1    3    3    0  502  0.23886348048E+03 -0.44262224177E+03  0.56015775042E+03  0.75282595370E+03  0.00000000000E+00 0. -1.
</event>
<event>
 7    1  0.4894942E-006  0.9958772E+03  0.7818608E-02  0.9455543E-01
         -4   -1    0    0    0  501  0.00000000000E+00  0.00000000000E+00  0.14372692356E+04  0.14372692356E+04  0.00000000000E+00 0. -1.
         -4   -1    0    0    0  502 -0.00000000000E+00 -0.00000000000E+00 -0.90833782047E+03  0.90833782047E+03  0.00000000000E+00 0. -1.
   -9000010    2    1    2    0  501  0.19859478222E+01  0.67433404556E+02 -0.54894592489E+03  0.11370777814E+04  0.99350543253E+03 0.  0.
        -13    1    1    2    0    0 -0.26502422287E+02 -0.63736981772E+02 -0.46916461122E+02  0.83462247278E+02  0.10566000000E+00 0.  1.
         13    1    3    3    0    0  0.12377756061E+03 -0.58306086730E+02  0.26836456852E+03  0.30123087003E+03  0.10566000000E+00 0. -1.
         -4    1    1    2    0  502  0.24516474465E+02 -0.36964227836E+01  0.11247938011E+04  0.11250670274E+04  0.00000000000E+00 0. -1.
         -4    1    3    3    0  501 -0.12179161279E+03  0.12573949129E+03 -0.81731049340E+03  0.83584691137E+03  0.00000000000E+00 0. -1.
</event>
<event>
 7    1  0.4894942E-006  0.9275710E+03  0.7818608E-02  0.9231261E-01
          4   -1    0    0  501    0 -0.00000000000E+00  0.00000000000E+00  0.56047465994E+03  0.56047465994E+03  0.00000000000E+00 0.  1.
          2   -1    0    0  502    0  0.00000000000E+00 -0.00000000000E+00 -0.20760776075E+04  0.20760776075E+04  0.00000000000E+00 0. -1.
    9000010    2    1    2  502    0 -0.22785144108E+03  0.78683278647E+02  0.85253813879E+02  0.94170758787E+03  0.90633196497E+03 0.  0.
        -13    1    3    3    0    0 -0.11559303535E+03  0.47746196858E+03 -0.76103267146E+02  0.49711507692E+03  0.10566000000E+00 0.  1.
         13    1    1    2    0    0  0.10958442346E+03 -0.15537993930E+03 -0.16400793376E+03  0.25109815790E+03  0.10566000000E+00 0. -1.
          2    1    1    2  501    0  0.11826701762E+03  0.76696660654E+02 -0.14368488277E+04  0.14437465217E+04  0.00000000000E+00 0. -1.
          4    1    3    3  502    0 -0.11225840573E+03 -0.39877868993E+03  0.16135708102E+03  0.44459251096E+03  0.00000000000E+00 0.  1.
</event>
<event>
 7    1  0.4894942E-006  0.1143178E+04  0.7818608E-02  0.8823491E-01
          4   -1    0    0  501    0 -0.00000000000E+00  0.00000000000E+00  0.23802006581E+04  0.23802006581E+04  0.00000000000E+00 0.  1.
          2   -1    0    0  502    0  0.00000000000E+00 -0.00000000000E+00 -0.57354041025E+03  0.57354041025E+03  0.00000000000E+00 0.  1.
    9000010    2    1    2  502    0  0.30546595216E+03 -0.44955479959E+03  0.66323330160E+03  0.13213712550E+04  0.10053529805E+04 0.  0.
        -13    1    3    3    0    0 -0.27295407138E+03 -0.83291037092E+02  0.56064421414E+03  0.62909718483E+03  0.10566000000E+00 0.  1.
         13    1    1    2    0    0 -0.38260921851E+03  0.38885492001E+03  0.13211457194E+04  0.14293439005E+04  0.10566000000E+00 0. -1.
          2    1    1    2  501    0  0.77143266358E+02  0.60699879585E+02 -0.17771877319E+03  0.20302591280E+03  0.00000000000E+00 0.  1.
          4    1    3    3  502    0  0.57842002354E+03 -0.36626376250E+03  0.10258908746E+03  0.69227407016E+03  0.00000000000E+00 0.  1.
</event>
<event>
 7    1  0.4894942E-006  0.1039963E+04  0.7818608E-02  0.9021327E-01
          2   -1    0    0  502    0  0.00000000000E+00  0.00000000000E+00  0.10607556093E+04  0.10607556093E+04  0.00000000000E+00 0.  1.
          4   -1    0    0  501    0 -0.00000000000E+00 -0.00000000000E+00 -0.14830267894E+04  0.14830267894E+04  0.00000000000E+00 0.  1.
    9000010    2    1    2  502    0 -0.30630255883E+03 -0.78000222464E+02 -0.10832982226E+04  0.15008555992E+04  0.98950856408E+03 0.  0.
        -13    1    3    3    0    0  0.23926626016E+03  0.26362580992E+03 -0.20143476552E+03  0.40905120320E+03  0.10566000000E+00 0.  1.
         13    1    1    2    0    0  0.31013794734E+03  0.88816515159E+02 -0.54612857095E+02  0.32719488852E+03  0.10566000000E+00 0. -1.
          2    1    1    2  501    0 -0.38353885089E+01 -0.10816292695E+02  0.71563989964E+03  0.71573191095E+03  0.00000000000E+00 0.  1.
          4    1    3    3  502    0 -0.54556881900E+03 -0.34162603239E+03 -0.88186345707E+03  0.10918043960E+04  0.00000000000E+00 0.  1.
</event>
<event>
 7    1  0.4894942E-006  0.1831320E+04  0.7818608E-02  0.8320123E-01
          2   -1    0    0  502    0  0.00000000000E+00  0.00000000000E+00  0.22851316240E+04  0.22851316240E+04  0.00000000000E+00 0. -1.
          4   -1    0    0  501    0 -0.00000000000E+00 -0.00000000000E+00 -0.47200925064E+04  0.47200925064E+04  0.00000000000E+00 0.  1.
    9000010    2    1    2  502    0 -0.86865868308E+03 -0.11250464940E+04 -0.10136331446E+04  0.20166979268E+04  0.10096142110E+04 0.  0.
        -13    1    3    3    0    0 -0.98341278186E+03 -0.12343689867E+04 -0.86651451890E+03  0.18004485323E+04  0.10566000000E+00 0.  1.
         13    1    1    2    0    0 -0.78666509360E+03  0.97517120710E+03 -0.26435447263E+04  0.29254281027E+04  0.10566000000E+00 0. -1.
          2    1    1    2  501    0  0.16553237767E+04  0.14987528688E+03  0.12222169885E+04  0.20630981009E+04  0.00000000000E+00 0. -1.
          4    1    3    3  502    0  0.11475409878E+03  0.10932249274E+03 -0.14711862566E+03  0.21624939450E+03  0.00000000000E+00 0.  1.
</event>
<event>
 7    1  0.4894942E-006  0.1011632E+04  0.7818608E-02  0.9362692E-01
          2   -1    0    0  501    0  0.00000000000E+00  0.00000000000E+00  0.17284833949E+04  0.17284833949E+04  0.00000000000E+00 0. -1.
         -4   -1    0    0    0  501 -0.00000000000E+00 -0.00000000000E+00 -0.31036361389E+03  0.31036361389E+03  0.00000000000E+00 0. -1.
   -9000010    2    1    2    0  502  0.17927941522E+03  0.46756920589E+02  0.92691987060E+03  0.13787079403E+04  0.10036572222E+04 0.  0.
        -13    1    1    2    0    0 -0.56559928575E+02 -0.73087461822E+02 -0.49655122103E+02  0.10491160523E+03  0.10566000000E+00 0.  1.
         13    1    3    3    0    0  0.26048138277E+03  0.42579520418E+03  0.84666315666E+03  0.98284821752E+03  0.10566000000E+00 0. -1.
          2    1    1    2  502    0 -0.12271948664E+03  0.26330541233E+02  0.54085503248E+03  0.55522746326E+03  0.00000000000E+00 0. -1.
         -4    1    3    3    0  502 -0.81201967548E+02 -0.37903828359E+03  0.80256713937E+02  0.39585972275E+03  0.00000000000E+00 0. -1.
</event>
<event>
 7    1  0.4894942E-006  0.1189120E+04  0.7818608E-02  0.8832152E-01
         -4   -1    0    0    0  501 -0.00000000000E+00  0.00000000000E+00  0.32705059219E+04  0.32705059219E+04  0.00000000000E+00 0. -1.
          2   -1    0    0  501    0  0.00000000000E+00 -0.00000000000E+00 -0.99280512301E+03  0.99280512301E+03  0.00000000000E+00 0.  1.
   -9000010    2    1    2    0  502 -0.27735283240E+02 -0.47429742693E+03  0.14087677727E+04  0.18458105534E+04  0.10939207771E+04 0.  0.
        -13    1    1    2    0    0  0.99078978808E+01  0.46479684101E+03  0.16101935999E+04  0.16759647103E+04  0.10566000000E+00 0.  1.
         13    1    3    3    0    0 -0.42826605187E+03 -0.28874850978E+03  0.19132266212E+03  0.55081020804E+03  0.10566000000E+00 0. -1.
          2    1    1    2  502    0  0.17827385359E+02  0.95005859217E+01 -0.74126057365E+03  0.74153578124E+03  0.00000000000E+00 0.  1.
         -4    1    3    3    0  502  0.40053076863E+03 -0.18554891715E+03  0.12174451106E+04  0.12950003454E+04  0.00000000000E+00 0. -1.
</event>
<event>
 7    1  0.4894942E-006  0.1055475E+04  0.7818608E-02  0.9653997E-01
         -4   -1    0    0    0  501 -0.00000000000E+00  0.00000000000E+00  0.29189754742E+03  0.29189754742E+03  0.00000000000E+00 0. -1.
          1   -1    0    0  501    0  0.00000000000E+00 -0.00000000000E+00 -0.12493165365E+04  0.12493165365E+04  0.00000000000E+00 0. -1.
   -9000010    2    1    2    0  502  0.46122229376E+02  0.91241614704E+02 -0.76680973777E+03  0.13042209210E+04  0.10500203544E+04 0.  0.
        -13    1    1    2    0    0 -0.24384138292E+02  0.14340719878E+02 -0.68493259944E+02  0.74105197312E+02  0.10566000000E+00 0.  1.
         13    1    3    3    0    0 -0.24050811041E+01  0.36316920495E+03  0.11437123491E+03  0.38076035295E+03  0.10566000000E+00 0. -1.
          1    1    1    2  502    0 -0.21738091084E+02 -0.10558233458E+03 -0.12211599137E+03  0.16288796557E+03  0.00000000000E+00 0. -1.
         -4    1    3    3    0  502  0.48527310480E+02 -0.27192759024E+03 -0.88118097268E+03  0.92346056809E+03  0.00000000000E+00 0. -1.
</event>
<event>
 7    1  0.4894942E-006  0.1050902E+04  0.7818608E-02  0.9056243E-01
          2   -1    0    0  501    0  0.00000000000E+00  0.00000000000E+00  0.18512143568E+04  0.18512143568E+04  0.00000000000E+00 0. -1.
         -4   -1    0    0    0  501 -0.00000000000E+00 -0.00000000000E+00 -0.70762881672E+03  0.70762881672E+03  0.00000000000E+00 0. -1.
   -9000010    2    1    2    0  502 -0.78954591167E+02 -0.27620165166E+03 -0.13403119014E+02  0.10556618426E+04  0.10157367289E+04 0.  0.
        -13    1    1    2    0    0  0.83218777784E+02  0.25279997188E+03 -0.70609825251E+02  0.27535240936E+03  0.10566000000E+00 0.  1.
         13    1    3    3    0    0  0.20340524810E+03  0.32269435328E+03  0.71580926503E+02  0.38810975355E+03  0.10566000000E+00 0. -1.
          2    1    1    2  502    0 -0.42641866165E+01  0.23401679782E+02  0.12275984843E+04  0.12278289216E+04  0.00000000000E+00 0. -1.
         -4    1    3    3    0  502 -0.28235983927E+03 -0.59889600494E+03 -0.84984045518E+02  0.66755208902E+03  0.00000000000E+00 0. -1.
</event>
<event>
 7    1  0.4894942E-006  0.1000698E+04  0.7818608E-02  0.9289394E-01
          2   -1    0    0  501    0  0.00000000000E+00  0.00000000000E+00  0.24869648503E+03  0.24869648503E+03  0.00000000000E+00 0. -1.
         -4   -1    0    0    0  501 -0.00000000000E+00 -0.00000000000E+00 -0.18566875083E+04  0.18566875083E+04  0.00000000000E+00 0. -1.
   -9000010    2    1    2    0  502 -0.14915734168E+03 -0.12608229244E+01 -0.99502525285E+03  0.14134648356E+04  0.99275278157E+03 0.  0.
        -13    1    1    2    0    0  0.12106591697E+03  0.32304939312E+02 -0.63315760883E+03  0.64543716513E+03  0.10566000000E+00 0.  1.
         13    1    3    3    0    0  0.18593319626E+03  0.33137158119E+03 -0.83079429631E+03  0.91356305324E+03  0.10566000000E+00 0. -1.
          2    1    1    2  502    0  0.28091424709E+02 -0.31044116387E+02  0.20191838383E+02  0.46481992661E+02  0.00000000000E+00 0. -1.
         -4    1    3    3    0  502 -0.33509053794E+03 -0.33263240412E+03 -0.16423095654E+03  0.49990178233E+03  0.00000000000E+00 0. -1.
</event>
<event>
 7    1  0.4894942E-006  0.1077009E+04  0.7818608E-02  0.8953616E-01
          4   -1    0    0  501    0 -0.00000000000E+00  0.00000000000E+00  0.15167110880E+04  0.15167110880E+04  0.00000000000E+00 0.  1.
          2   -1    0    0  502    0  0.00000000000E+00 -0.00000000000E+00 -0.68410552007E+03  0.68410552007E+03  0.00000000000E+00 0.  1.
    9000010    2    1    2  502    0  0.50244089346E+02 -0.37304645169E+03  0.68572878076E+03  0.12759581471E+04  0.10080461839E+04 0.  0.
        -13    1    3    3    0    0 -0.23333399577E+03  0.27648842794E+03  0.29388312454E+03  0.46610932883E+03  0.10566000000E+00 0.  1.
         13    1    1    2    0    0 -0.39822038457E+02  0.37777026453E+03  0.46843412531E+03  0.60309759445E+03  0.10566000000E+00 0. -1.
          2    1    1    2  501    0 -0.10422050888E+02 -0.47238128383E+01 -0.32155733809E+03  0.32176086653E+03  0.00000000000E+00 0.  1.
          4    1    3    3  502    0  0.28357808512E+03 -0.64953487963E+03  0.39184565622E+03  0.80984881830E+03  0.00000000000E+00 0.  1.
</event>
<event>
 7    1  0.4894942E-006  0.1024809E+04  0.7818608E-02  0.9106230E-01
          2   -1    0    0  502    0  0.00000000000E+00  0.00000000000E+00  0.67690273596E+03  0.67690273596E+03  0.00000000000E+00 0.  1.
          4   -1    0    0  501    0 -0.00000000000E+00 -0.00000000000E+00 -0.22804257670E+04  0.22804257670E+04  0.00000000000E+00 0.  1.
    9000010    2    1    2  502    0  0.65159966857E+02  0.20736814122E+03 -0.76902314872E+03  0.12775286482E+04  0.99671233386E+03 0.  0.
        -13    1    3    3    0    0 -0.18886821658E+03 -0.32165271964E+03 -0.52019492111E+03  0.64010502451E+03  0.10566000000E+00 0.  1.
         13    1    1    2    0    0 -0.71125180440E+02 -0.22844619222E+03 -0.12454713459E+04  0.12682449837E+04  0.10566000000E+00 0. -1.
          2    1    1    2  501    0  0.59652135824E+01  0.21078050997E+02  0.41097146358E+03  0.41155487105E+03  0.00000000000E+00 0.  1.
          4    1    3    3  502    0  0.25402818344E+03  0.52902086086E+03 -0.24882822761E+03  0.63742362371E+03  0.00000000000E+00 0.  1.
</event>
<event>
 7    1  0.4894942E-006  0.1061427E+04  0.7818608E-02  0.8966586E-01
          1   -1    0    0  501    0  0.00000000000E+00  0.00000000000E+00  0.12655216173E+04  0.12655216173E+04  0.00000000000E+00 0. -1.
         -4   -1    0    0    0  501 -0.00000000000E+00 -0.00000000000E+00 -0.27197692044E+04  0.27197692044E+04  0.00000000000E+00 0. -1.
   -9000010    2    1    2    0  502 -0.37349178835E+03  0.10388221305E+03 -0.69598179397E+03  0.12728502124E+04  0.99270810186E+03 0.  0.
        -13    1    1    2    0    0  0.35202254909E+03 -0.12911092588E+03 -0.17148093896E+04  0.17553235485E+04  0.10566000000E+00 0.  1.
         13    1    3    3    0    0  0.11423307544E+03  0.17498245698E+03  0.17467785464E+03  0.27236082656E+03  0.10566000000E+00 0. -1.
          1    1    1    2  502    0  0.21469239258E+02  0.25228712827E+02  0.95654359640E+03  0.95711706077E+03  0.00000000000E+00 0. -1.
         -4    1    3    3    0  502 -0.48772486379E+03 -0.71100243933E+02 -0.87065964861E+03  0.10004893858E+04  0.00000000000E+00 0. -1.
</event>
<event>
 7    1  0.4894942E-006  0.1014067E+04  0.7818608E-02  0.9192738E-01
          2   -1    0    0  502    0  0.00000000000E+00  0.00000000000E+00  0.21707236667E+04  0.21707236667E+04  0.00000000000E+00 0. -1.
          4   -1    0    0  501    0 -0.00000000000E+00 -0.00000000000E+00 -0.47386600691E+03  0.47386600691E+03  0.00000000000E+00 0.  1.
    9000010    2    1    2  502    0  0.74390549619E+02  0.89131716266E+02  0.65456616768E+03  0.11998097048E+04  0.99880330558E+03 0.  0.
        -13    1    3    3    0    0 -0.22716971755E+03  0.40299341224E+03  0.60520605207E+03  0.76176383972E+03  0.10566000000E+00 0.  1.
         13    1    1    2    0    0 -0.15450526350E+03 -0.88622482713E+02 -0.16023642964E+03  0.23958619626E+03  0.10566000000E+00 0. -1.
          2    1    1    2  501    0  0.80114713885E+02 -0.50923355287E+00  0.12025279218E+04  0.12051937725E+04  0.00000000000E+00 0. -1.
          4    1    3    3  502    0  0.30156026717E+03 -0.31386169598E+03  0.49360115607E+02  0.43804586512E+03  0.00000000000E+00 0.  1.
</event>
<event>
 7    1  0.4894942E-006  0.8967076E+03  0.7818608E-02  0.9214412E-01
          3   -1    0    0  501    0  0.00000000000E+00  0.00000000000E+00  0.73088605092E+03  0.73088605092E+03  0.00000000000E+00 0. -1.
         -4   -1    0    0    0  501 -0.00000000000E+00 -0.00000000000E+00 -0.57673817681E+03  0.57673817681E+03  0.00000000000E+00 0. -1.
   -9000010    2    1    2    0  502 -0.24493755084E+03 -0.99874104251E+02  0.21719430937E+03  0.93106897477E+03  0.86587922209E+03 0.  0.
        -13    1    1    2    0    0  0.14151074907E+03  0.18522053916E+03 -0.66581314634E+02  0.24241498067E+03  0.10566000000E+00 0.  1.
         13    1    3    3    0    0  0.15047165897E+03 -0.38706078128E+03  0.73969711208E+02  0.42181666385E+03  0.10566000000E+00 0. -1.
          3    1    1    2  502    0  0.10342680177E+03 -0.85346434914E+02  0.35348793835E+01  0.13414027229E+03  0.00000000000E+00 0. -1.
         -4    1    3    3    0  502 -0.39540920981E+03  0.28718667703E+03  0.14322459816E+03  0.50925231093E+03  0.00000000000E+00 0. -1.
</event>
<event>
 7    1  0.4894942E-006  0.9864342E+03  0.7818608E-02  0.9316672E-01
         -4   -1    0    0    0  501 -0.00000000000E+00  0.00000000000E+00  0.95516451434E+03  0.95516451434E+03  0.00000000000E+00 0. -1.
          1   -1    0    0  501    0  0.00000000000E+00 -0.00000000000E+00 -0.69224318997E+03  0.69224318997E+03  0.00000000000E+00 0. -1.
   -9000010    2    1    2    0  502 -0.41677720084E+02 -0.18126225202E+03  0.58035527697E+03  0.11534370265E+04  0.97929142253E+03 0.  0.
        -13    1    1    2    0    0 -0.35194759324E+02  0.10663988666E+03  0.41245739857E+02  0.11963259895E+03  0.10566000000E+00 0.  1.
         13    1    3    3    0    0 -0.26178071915E+03 -0.36075080642E+03 -0.63025932657E+02  0.45015838168E+03  0.10566000000E+00 0. -1.
          1    1    1    2  502    0  0.76872479409E+02  0.74622365357E+02 -0.35867969246E+03  0.37433807886E+03  0.00000000000E+00 0. -1.
         -4    1    3    3    0  502  0.22010299907E+03  0.17948855440E+03  0.64338120963E+03  0.70327864482E+03  0.00000000000E+00 0. -1.
</event>
<event>
 7    1  0.4894942E-006  0.1133553E+04  0.7818608E-02  0.8834089E-01
          2   -1    0    0  501    0  0.00000000000E+00  0.00000000000E+00  0.32187896220E+04  0.32187896220E+04  0.00000000000E+00 0. -1.
         -4   -1    0    0    0  501 -0.00000000000E+00 -0.00000000000E+00 -0.16135781292E+04  0.16135781292E+04  0.00000000000E+00 0. -1.
   -9000010    2    1    2    0  502  0.92594555031E+02  0.45941181921E+03  0.13348052300E+03  0.11124007230E+04  0.99999267364E+03 0.  0.
        -13    1    1    2    0    0 -0.89766024856E+02 -0.53313549732E+03 -0.10585446219E+04  0.11886160547E+04  0.10566000000E+00 0.  1.
         13    1    3    3    0    0  0.24406152821E+03  0.55963622694E+02  0.49184917458E+03  0.55191809023E+03  0.10566000000E+00 0. -1.
          2    1    1    2  502    0 -0.28285301754E+01  0.73723678111E+02  0.25302755917E+04  0.25313509735E+04  0.00000000000E+00 0. -1.
         -4    1    3    3    0  502 -0.15146697318E+03  0.40344819651E+03 -0.35836865159E+03  0.56048263280E+03  0.00000000000E+00 0. -1.
</event>
<event>
 7    1  0.4894942E-006  0.1104057E+04  0.7818608E-02  0.8894371E-01
         -4   -1    0    0    0  501 -0.00000000000E+00  0.00000000000E+00  0.18702117268E+04  0.18702117268E+04  0.00000000000E+00 0. -1.
          1   -1    0    0  501    0  0.00000000000E+00 -0.00000000000E+00 -0.77558289841E+03  0.77558289841E+03  0.00000000000E+00 0. -1.
   -9000010    2    1    2    0  502 -0.36253348975E+03 -0.23230884977E+03  0.67809027796E+03  0.12893116125E+04  0.10085237113E+04 0.  0.
        -13    1    1    2    0    0  0.38939443499E+03  0.23112493951E+03  0.82821952407E+03  0.94392497312E+03  0.10566000000E+00 0.  1.
         13    1    3    3    0    0 -0.25619794372E+03 -0.63034970744E+03  0.36726964127E+03  0.77321739543E+03  0.10566000000E+00 0. -1.
          1    1    1    2  502    0 -0.26860945239E+02  0.11839102654E+01 -0.41168097360E+03  0.41255803961E+03  0.00000000000E+00 0. -1.
         -4    1    3    3    0  502 -0.10633554603E+03  0.39804085767E+03  0.31082063669E+03  0.51609421710E+03  0.00000000000E+00 0. -1.
</event>
<event>
 7    1  0.4894942E-006  0.1856885E+04  0.7818608E-02  0.8264611E-01
          1   -1    0    0  501    0  0.00000000000E+00  0.00000000000E+00  0.19530874157E+04  0.19530874157E+04  0.00000000000E+00 0.  1.
         -4   -1    0    0    0  501 -0.00000000000E+00 -0.00000000000E+00 -0.19899062999E+04  0.19899062999E+04  0.00000000000E+00 0. -1.
   -9000010    2    1    2    0  502  0.92771196896E+03  0.13136711972E+04 -0.12501183695E+03  0.18966586748E+04  0.99764956639E+03 0.  0.
        -13    1    1    2    0    0 -0.87892546981E+03 -0.12613332396E+04 -0.37109044358E+03  0.15815118246E+04  0.10566000000E+00 0.  1.
         13    1    3    3    0    0  0.28192706643E+03  0.51072989494E+03 -0.53128404089E+03  0.78904413035E+03  0.10566000000E+00 0. -1.
          1    1    1    2  502    0 -0.48786499155E+02 -0.52337957666E+02  0.45928339626E+03  0.46482321628E+03  0.00000000000E+00 0.  1.
         -4    1    3    3    0  502  0.64578490254E+03  0.80294130231E+03  0.40627220394E+03  0.11076145444E+04  0.00000000000E+00 0. -1.
</event>
<event>
 7    1  0.4894942E-006  0.1059281E+04  0.7818608E-02  0.9011406E-01
         -4   -1    0    0    0  501 -0.00000000000E+00  0.00000000000E+00  0.10430764737E+04  0.10430764737E+04  0.00000000000E+00 0. -1.
          2   -1    0    0  501    0  0.00000000000E+00 -0.00000000000E+00 -0.26107753622E+04  0.26107753622E+04  0.00000000000E+00 0.  1.
   -9000010    2    1    2    0  502  0.16460598880E+03 -0.19411545649E+03 -0.17656173228E+03  0.10576871532E+04  0.10113120818E+04 0.  0.
        -13    1    1    2    0    0 -0.28508330679E+03  0.14675311694E+03  0.55755528587E+03  0.64317717396E+03  0.10566000000E+00 0.  1.
         13    1    3    3    0    0  0.58912466101E+03 -0.15122680783E+03 -0.39385275933E+02  0.60949866673E+03  0.10566000000E+00 0. -1.
          2    1    1    2  502    0  0.12047731799E+03  0.47362339552E+02 -0.19486924421E+04  0.19529875088E+04  0.00000000000E+00 0.  1.
         -4    1    3    3    0  502 -0.42451867221E+03 -0.42888648660E+02 -0.13717645635E+03  0.44818848649E+03  0.00000000000E+00 0. -1.
</event>
<event>
 7    1  0.4894942E-006  0.1092072E+04  0.7818608E-02  0.8909480E-01
          4   -1    0    0  501    0  0.00000000000E+00  0.00000000000E+00  0.20247613319E+04  0.20247613319E+04  0.00000000000E+00 0.  1.
         -4   -1    0    0    0  501 -0.00000000000E+00 -0.00000000000E+00 -0.97521794238E+03  0.97521794238E+03  0.00000000000E+00 0. -1.
   -9000010    2    1    2    0  502 -0.33518250724E+03  0.27319828066E+03 -0.45565436424E+03  0.11819779807E+04  0.10012324573E+04 0.  0.
        -13    1    1    2    0    0  0.40143987273E+03 -0.19219564620E+03  0.16647053966E+03  0.47519005627E+03  0.10566000000E+00 0.  1.
         13    1    3    3    0    0 -0.35392810468E+03  0.58357103412E+03 -0.52779685300E+03  0.86278026423E+03  0.10566000000E+00 0. -1.
          4    1    1    2  502    0 -0.66257365487E+02 -0.81002634460E+02  0.13387272141E+04  0.13428112373E+04  0.00000000000E+00 0.  1.
         -4    1    3    3    0  502  0.18745597441E+02 -0.31037275346E+03  0.72142488761E+02  0.31919771647E+03  0.00000000000E+00 0. -1.
</event>
<event>
 7    1  0.4894942E-006  0.1017710E+04  0.7818608E-02  0.9136808E-01
         -4   -1    0    0    0  501  0.00000000000E+00  0.00000000000E+00  0.20895646405E+04  0.20895646405E+04  0.00000000000E+00 0. -1.
         -4   -1    0    0    0  502 -0.00000000000E+00 -0.00000000000E+00 -0.37980824348E+03  0.37980824348E+03  0.00000000000E+00 0. -1.
   -9000010    2    1    2    0  501  0.21356346844E+02  0.20644361563E+03  0.39713423310E+03  0.10908655341E+04  0.99458380965E+03 0.  0.
        -13    1    1    2    0    0 -0.32578783892E+02 -0.21740699717E+03  0.33457515029E+03  0.40033451255E+03  0.10566000000E+00 0.  1.
         13    1    3    3    0    0 -0.44538865045E+03  0.24242420981E+03  0.35875568383E+03  0.62116519485E+03  0.10566000000E+00 0. -1.
         -4    1    1    2    0  502  0.11222437048E+02  0.10963381541E+02  0.97804701358E+03  0.97817283728E+03  0.00000000000E+00 0. -1.
         -4    1    3    3    0  501  0.46674499729E+03 -0.35980594181E+02  0.38378549267E+02  0.46970033925E+03  0.00000000000E+00 0. -1.
</event>
<event>
 7    1  0.4894942E-006  0.1177220E+04  0.7818608E-02  0.8764937E-01
         -4   -1    0    0    0  501 -0.00000000000E+00  0.00000000000E+00  0.13943757202E+04  0.13943757202E+04  0.00000000000E+00 0. -1.
          2   -1    0    0  501    0  0.00000000000E+00 -0.00000000000E+00 -0.12648695599E+04  0.12648695599E+04  0.00000000000E+00 0. -1.
   -9000010    2    1    2    0  502 -0.30561458301E+03  0.54755096068E+03  0.61944151600E+03  0.13246999438E+04  0.98889323054E+03 0.  0.
        -13    1    1    2    0    0  0.31721013232E+03 -0.56376067997E+03  0.17435090680E+03  0.66996016463E+03  0.10566000000E+00 0.  1.
         13    1    3    3    0    0 -0.46436124110E+03  0.26297239226E+03  0.79273704447E+03  0.95562433737E+03  0.10566000000E+00 0. -1.
          2    1    1    2  502    0 -0.11595549304E+02  0.16209719292E+02 -0.66428626255E+03  0.66458517165E+03  0.00000000000E+00 0. -1.
         -4    1    3    3    0  502  0.15874665809E+03  0.28457856843E+03 -0.17329552847E+03  0.36907560641E+03  0.00000000000E+00 0. -1.
</event>
<event>
 7    1  0.4894942E-006  0.1062129E+04  0.7818608E-02  0.8981081E-01
          4   -1    0    0  501    0 -0.00000000000E+00  0.00000000000E+00  0.46717973032E+03  0.46717973032E+03  0.00000000000E+00 0.  1.
          2   -1    0    0  502    0  0.00000000000E+00 -0.00000000000E+00 -0.14849141694E+04  0.14849141694E+04  0.00000000000E+00 0.  1.
    9000010    2    1    2  502    0  0.37908850506E+03  0.11950163871E+03 -0.74358783271E+03  0.13092281943E+04  0.10015821801E+04 0.  0.
        -13    1    3    3    0    0  0.54932175730E+03 -0.22052095835E+02 -0.17398664971E+02  0.55003946466E+03  0.10566000000E+00 0.  1.
         13    1    1    2    0    0 -0.34887832006E+03  0.21234872733E+02 -0.19151241083E+02  0.35004825842E+03  0.10566000000E+00 0. -1.
          2    1    1    2  501    0 -0.30210185001E+02 -0.14073651144E+03 -0.25499536530E+03  0.29281744697E+03  0.00000000000E+00 0.  1.
          4    1    3    3  502    0 -0.17023325224E+03  0.14155373454E+03 -0.72618916774E+03  0.75918872968E+03  0.00000000000E+00 0.  1.
</event>
<event>
 7    1  0.4894942E-006  0.1012612E+04  0.7818608E-02  0.9286122E-01
         -2   -1    0    0    0  501  0.00000000000E+00  0.00000000000E+00  0.47576465106E+03  0.47576465106E+03  0.00000000000E+00 0.  1.
         -4   -1    0    0    0  502 -0.00000000000E+00 -0.00000000000E+00 -0.11131145530E+04  0.11131145530E+04  0.00000000000E+00 0. -1.
   -9000010    2    1    2    0  501  0.94034161729E+02  0.75746573972E+02 -0.53988821319E+03  0.11473086055E+04  0.10051158074E+04 0.  0.
        -13    1    1    2    0    0 -0.10353220068E+03 -0.66622873451E+02 -0.25516737077E+03  0.28331594046E+03  0.10566000000E+00 0.  1.
         13    1    3    3    0    0 -0.38803463581E+03  0.25523191786E+03 -0.40322828529E+03  0.61506688393E+03  0.10566000000E+00 0. -1.
         -2    1    1    2    0  502  0.94980389508E+01 -0.91237005213E+01  0.15770568207E+03  0.15825465810E+03  0.00000000000E+00 0.  1.
         -4    1    3    3    0  501  0.48206879754E+03 -0.17948534389E+03 -0.13665992790E+03  0.53224172152E+03  0.00000000000E+00 0. -1.
</event>
<event>
 7    1  0.4894942E-006  0.1042884E+04  0.7818608E-02  0.9044428E-01
          1   -1    0    0  501    0  0.00000000000E+00  0.00000000000E+00  0.18721353865E+04  0.18721353865E+04  0.00000000000E+00 0. -1.
         -4   -1    0    0    0  501 -0.00000000000E+00 -0.00000000000E+00 -0.62951070805E+03  0.62951070805E+03  0.00000000000E+00 0. -1.
   -9000010    2    1    2    0  502 -0.23321453318E+03 -0.18346258943E+03  0.20710438129E+03  0.10653218651E+04  0.10019834886E+04 0.  0.
        -13    1    1    2    0    0  0.24562430461E+03  0.15085030893E+03 -0.96343266450E+02  0.30392293575E+03  0.10566000000E+00 0.  1.
         13    1    3    3    0    0 -0.42139437016E+03  0.26974383799E+03  0.27337096070E+03  0.57014616253E+03  0.10566000000E+00 0. -1.
          1    1    1    2  502    0 -0.12409771432E+02  0.32612280501E+02  0.11318635637E+04  0.11324012937E+04  0.00000000000E+00 0. -1.
         -4    1    3    3    0  502  0.18817983698E+03 -0.45320642742E+03 -0.66266579405E+02  0.49517570260E+03  0.00000000000E+00 0. -1.
</event>
<event>
 7    1  0.4894942E-006  0.1026763E+04  0.7818608E-02  0.9182931E-01
          4   -1    0    0  501    0 -0.00000000000E+00  0.00000000000E+00  0.12835506761E+04  0.12835506761E+04  0.00000000000E+00 0.  1.
          2   -1    0    0  502    0  0.00000000000E+00 -0.00000000000E+00 -0.16026810164E+04  0.16026810164E+04  0.00000000000E+00 0. -1.
    9000010    2    1    2  502    0  0.63539533281E+01  0.62846399427E+02  0.22926194726E+03  0.10392404004E+04  0.10116667073E+04 0.  0.
        -13    1    3    3    0    0 -0.43043596706E+03 -0.19529263418E+03  0.24344265115E+03  0.53167534292E+03  0.10566000000E+00 0.  1.
         13    1    1    2    0    0 -0.91630152821E+02 -0.15381152614E+03  0.63361596769E+03  0.65842484472E+03  0.10566000000E+00 0. -1.
          2    1    1    2  501    0  0.85276199493E+02  0.90965126712E+02 -0.11820082552E+04  0.11885664474E+04  0.00000000000E+00 0. -1.
          4    1    3    3  502    0  0.43678992039E+03  0.25813903361E+03 -0.14180703882E+02  0.50756505750E+03  0.00000000000E+00 0.  1.
</event>
<event>
 7    1  0.4894942E-006  0.9958196E+03  0.7818608E-02  0.9156422E-01
         -4   -1    0    0    0  501 -0.00000000000E+00  0.00000000000E+00  0.65200563078E+03  0.65200563078E+03  0.00000000000E+00 0. -1.
          2   -1    0    0  501    0  0.00000000000E+00 -0.00000000000E+00 -0.14951845886E+04  0.14951845886E+04  0.00000000000E+00 0. -1.
   -9000010    2    1    2    0  502  0.59604831802E+02 -0.19401064902E+03  0.17778440535E+03  0.10094511198E+04  0.97272370204E+03 0.  0.
        -13    1    1    2    0    0 -0.12284067044E+03  0.18431152658E+03 -0.15720240036E+03  0.27161217754E+03  0.10566000000E+00 0.  1.
         13    1    3    3    0    0 -0.13872495131E+03 -0.46711416038E+03  0.37827603035E+03  0.61687358287E+03  0.10566000000E+00 0. -1.
          2    1    1    2  502    0  0.63235838636E+02  0.96991224406E+01 -0.86376096284E+03  0.86612692211E+03  0.00000000000E+00 0. -1.
         -4    1    3    3    0  502  0.19832978311E+03  0.27310351136E+03 -0.20049162500E+03  0.39257753690E+03  0.00000000000E+00 0. -1.
</event>
<event>
 7    1  0.4894942E-006  0.1048283E+04  0.7818608E-02  0.9060502E-01
          2   -1    0    0  502    0  0.00000000000E+00  0.00000000000E+00  0.29301140000E+03  0.29301140000E+03  0.00000000000E+00 0.  1.
          4   -1    0    0  501    0 -0.00000000000E+00 -0.00000000000E+00 -0.24966759308E+04  0.24966759308E+04  0.00000000000E+00 0.  1.
    9000010    2    1    2  502    0  0.26698940394E+03  0.14561204834E+03 -0.78871308986E+03  0.13199049255E+04  0.10137033411E+04 0.  0.
        -13    1    3    3    0    0  0.65694497652E+03  0.10212418242E+03 -0.46630759954E+03  0.81206455369E+03  0.10566000000E+00 0.  1.
         13    1    1    2    0    0 -0.22698916175E+03 -0.13733808013E+03 -0.14020736101E+04  0.14269534845E+04  0.10566000000E+00 0. -1.
          2    1    1    2  501    0 -0.40000242192E+02 -0.82739682100E+01 -0.12877830865E+02  0.42828920756E+02  0.00000000000E+00 0.  1.
          4    1    3    3  502    0 -0.38995557257E+03  0.43487865917E+02 -0.32240549031E+03  0.50784037182E+03  0.00000000000E+00 0.  1.
</event>
<event>
 7    1  0.4894942E-006  0.1051637E+04  0.7818608E-02  0.9134055E-01
          2   -1    0    0  502    0  0.00000000000E+00  0.00000000000E+00  0.95501880293E+03  0.95501880293E+03  0.00000000000E+00 0.  1.
          4   -1    0    0  501    0 -0.00000000000E+00 -0.00000000000E+00 -0.37407395544E+04  0.37407395544E+04  0.00000000000E+00 0.  1.
    9000010    2    1    2  502    0 -0.35815568959E+03  0.23874085734E+03 -0.34194427849E+04  0.35886518999E+04  0.10002803632E+04 0.  0.
        -13    1    3    3    0    0 -0.51741291438E+03 -0.22744480670E+03 -0.22453738040E+04  0.23154159011E+04  0.10566000000E+00 0.  1.
         13    1    1    2    0    0  0.19347529466E+03  0.40339216330E+02 -0.15710043967E+03  0.25246881258E+03  0.10566000000E+00 0. -1.
          2    1    1    2  501    0  0.16468039493E+03 -0.27908007367E+03  0.79082247307E+03  0.85463764480E+03  0.00000000000E+00 0.  1.
          4    1    3    3  502    0  0.15925722479E+03  0.46618566404E+03 -0.11740689809E+04  0.12732359989E+04  0.00000000000E+00 0.  1.
</event>
<event>
 7    1  0.4894942E-006  0.1006743E+04  0.7818608E-02  0.9400128E-01
          4   -1    0    0  501    0 -0.00000000000E+00  0.00000000000E+00  0.12110535225E+03  0.12110535225E+03  0.00000000000E+00 0.  1.
          2   -1    0    0  502    0  0.00000000000E+00 -0.00000000000E+00 -0.33613523827E+04  0.33613523827E+04  0.00000000000E+00 0.  1.
    9000010    2    1    2  502    0 -0.93185786342E+02  0.56649998231E+02 -0.26484895855E+04  0.28343018957E+04  0.10034327773E+04 0.  0.
        -13    1    3    3    0    0 -0.12393851296E+03 -0.34489019469E+03 -0.37102897053E+03  0.52150983646E+03  0.10566000000E+00 0.  1.
         13    1    1    2    0    0  0.80108707617E+02 -0.12869714163E+02 -0.33091839606E+02  0.87624857154E+02  0.10566000000E+00 0. -1.
          2    1    1    2  501    0  0.13077078724E+02 -0.43780284068E+02 -0.55866560539E+03  0.56053098211E+03  0.00000000000E+00 0.  1.
          4    1    3    3  502    0  0.30752726614E+02  0.40154019292E+03 -0.22774606150E+04  0.23127920593E+04  0.00000000000E+00 0.  1.
</event>
<event>
 7    1  0.4894942E-006  0.1077121E+04  0.7818608E-02  0.8938227E-01
          1   -1    0    0  501    0  0.00000000000E+00  0.00000000000E+00  0.12672508793E+04  0.12672508793E+04  0.00000000000E+00 0. -1.
         -4   -1    0    0    0  501 -0.00000000000E+00 -0.00000000000E+00 -0.11354964541E+04  0.11354964541E+04  0.00000000000E+00 0. -1.
   -9000010    2    1    2    0  502  0.23548534828E+03  0.32598053985E+03 -0.58694082669E+03  0.12261287247E+04  0.99858672825E+03 0.  0.
        -13    1    1    2    0    0 -0.24761474152E+03 -0.32014286033E+03 -0.50000880551E+02  0.40780462290E+03  0.10566000000E+00 0.  1.
         13    1    3    3    0    0 -0.32174244157E+03  0.30729119063E+03 -0.42635663796E+02  0.44694953354E+03  0.10566000000E+00 0. -1.
          1    1    1    2  502    0  0.12129393237E+02 -0.58376795161E+01  0.76869613247E+03  0.76881398580E+03  0.00000000000E+00 0. -1.
         -4    1    3    3    0  502  0.55722778984E+03  0.18689349220E+02 -0.54430516289E+03  0.77917919114E+03  0.00000000000E+00 0. -1.
</event>
<event>
 7    1  0.4894942E-006  0.1000195E+04  0.7818608E-02  0.9171610E-01
          2   -1    0    0  501    0  0.00000000000E+00  0.00000000000E+00  0.17676516313E+04  0.17676516313E+04  0.00000000000E+00 0.  1.
         -4   -1    0    0    0  501 -0.00000000000E+00 -0.00000000000E+00 -0.10232846866E+04  0.10232846866E+04  0.00000000000E+00 0. -1.
   -9000010    2    1    2    0  502 -0.22581794560E+03  0.16271295730E+02 -0.72313558288E+03  0.12390487740E+04  0.98033580649E+03 0.  0.
        -13    1    1    2    0    0  0.17183429594E+03 -0.51048223678E+02  0.15258867441E+03  0.23540658684E+03  0.10566000000E+00 0.  1.
         13    1    3    3    0    0  0.25291843019E+03  0.34241460609E+03 -0.27690124945E+03  0.50782852214E+03  0.10566000000E+00 0. -1.
          2    1    1    2  502    0  0.53983649656E+02  0.34776927948E+02  0.13149138532E+04  0.13164809571E+04  0.00000000000E+00 0.  1.
         -4    1    3    3    0  502 -0.47873637579E+03 -0.32614331036E+03 -0.44623433344E+03  0.73122025186E+03  0.00000000000E+00 0. -1.
</event>
<event>
 7    1  0.4894942E-006  0.1105452E+04  0.7818608E-02  0.8898669E-01
          2   -1    0    0  501    0  0.00000000000E+00  0.00000000000E+00  0.21243253412E+04  0.21243253412E+04  0.00000000000E+00 0. -1.
         -4   -1    0    0    0  501 -0.00000000000E+00 -0.00000000000E+00 -0.85960453640E+03  0.85960453640E+03  0.00000000000E+00 0. -1.
   -9000010    2    1    2    0  502  0.27095875527E+03  0.41383991656E+03  0.10254769157E+03  0.11331069811E+04  0.10142648953E+04 0.  0.
        -13    1    1    2    0    0 -0.28657445218E+03 -0.31884967746E+03 -0.20853702930E+03  0.47673654906E+03  0.10566000000E+00 0.  1.
         13    1    3    3    0    0  0.59935694067E+03  0.36993963581E+03  0.27918050051E+03  0.75764492970E+03  0.10566000000E+00 0. -1.
          2    1    1    2  502    0  0.15615696903E+02 -0.94990239098E+02  0.13707101425E+04  0.13740863475E+04  0.00000000000E+00 0. -1.
         -4    1    3    3    0  502 -0.32839818540E+03  0.43900280749E+02 -0.17663280894E+03  0.37546205137E+03  0.00000000000E+00 0. -1.
</event>
<event>
 7    1  0.4894942E-006  0.1019019E+04  0.7818608E-02  0.9118002E-01
          4   -1    0    0  501    0 -0.00000000000E+00  0.00000000000E+00  0.33525663005E+03  0.33525663005E+03  0.00000000000E+00 0.  1.
          2   -1    0    0  502    0  0.00000000000E+00 -0.00000000000E+00 -0.30051230878E+04  0.30051230878E+04  0.00000000000E+00 0. -1.
    9000010    2    1    2  502    0 -0.75898745996E+02  0.11582115162E+03 -0.77695673015E+03  0.12679474623E+04  0.99239802886E+03 0.  0.
        -13    1    3    3    0    0  0.14954411000E+03 -0.40200041846E+03 -0.41706539921E+03  0.59825691443E+03  0.10566000000E+00 0.  1.
         13    1    1    2    0    0  0.25778240845E+03 -0.24136807223E+02 -0.11569529753E+03  0.28358379468E+03  0.10566000000E+00 0. -1.
          2    1    1    2  501    0 -0.18188366245E+03 -0.91684344398E+02 -0.17772144301E+04  0.17888484609E+04  0.00000000000E+00 0. -1.
          4    1    3    3  502    0 -0.22544285599E+03  0.51782157008E+03 -0.35989133094E+03  0.66969054783E+03  0.00000000000E+00 0.  1.
</event>
<event>
 7    1  0.4894942E-006  0.1017770E+04  0.7818608E-02  0.9239251E-01
         -4   -1    0    0    0  501 -0.00000000000E+00  0.00000000000E+00  0.71814487514E+03  0.71814487514E+03  0.00000000000E+00 0. -1.
          2   -1    0    0  501    0  0.00000000000E+00 -0.00000000000E+00 -0.12359516080E+04  0.12359516080E+04  0.00000000000E+00 0.  1.
   -9000010    2    1    2    0  502  0.19037603306E+03  0.13413724866E+03  0.28009905594E+02  0.10343529004E+04  0.10074053466E+04 0.  0.
        -13    1    1    2    0    0 -0.11295043337E+03 -0.83069233319E+02  0.15719580781E+03  0.21063910150E+03  0.10566000000E+00 0.  1.
         13    1    3    3    0    0 -0.21402040597E+03  0.74091794319E+02  0.41412627391E+03  0.47201155713E+03  0.10566000000E+00 0. -1.
          2    1    1    2  502    0 -0.77425599689E+02 -0.51068015343E+02 -0.70301244626E+03  0.70910448121E+03  0.00000000000E+00 0.  1.
         -4    1    3    3    0  502  0.40439643903E+03  0.60045454343E+02 -0.38611636831E+03  0.56234134329E+03  0.00000000000E+00 0. -1.
</event>
<event>
 7    1  0.4894942E-006  0.1108455E+04  0.7818608E-02  0.8904565E-01
         -4   -1    0    0    0  501  0.00000000000E+00  0.00000000000E+00  0.28483422640E+04  0.28483422640E+04  0.00000000000E+00 0. -1.
         -4   -1    0    0    0  502 -0.00000000000E+00 -0.00000000000E+00 -0.50933002544E+03  0.50933002544E+03  0.00000000000E+00 0. -1.
   -9000010    2    1    2    0  501 -0.31889461827E+03 -0.14730742841E+03  0.39311214400E+03  0.11235127053E+04  0.99214433689E+03 0.  0.
        -13    1    1    2    0    0  0.21331830691E+03 -0.36825349912E+03  0.34149621820E+03  0.54565100375E+03  0.10566000000E+00 0.  1.
         13    1    3    3    0    0  0.12996531141E+03 -0.47652139335E+03  0.21871276831E+03  0.54018414145E+03  0.10566000000E+00 0. -1.
         -4    1    3    3    0  501 -0.44885992969E+03  0.32921396494E+03  0.17439937569E+03  0.58332856387E+03  0.00000000000E+00 0. -1.
         -4    1    1    2    0  502  0.10557631136E+03  0.51556092753E+03  0.16044038764E+04  0.16885085804E+04  0.00000000000E+00 0. -1.
</event>
<event>
 7    1  0.4894942E-006  0.1075581E+04  0.7818608E-02  0.8914666E-01
          2   -1    0    0  502    0  0.00000000000E+00  0.00000000000E+00  0.14728771750E+04  0.14728771750E+04  0.00000000000E+00 0.  1.
          4   -1    0    0  501    0 -0.00000000000E+00 -0.00000000000E+00 -0.64910054607E+03  0.64910054607E+03  0.00000000000E+00 0.  1.
    9000010    2    1    2  502    0 -0.22579370638E+03  0.40120199458E+03  0.12406768163E+03  0.10883980908E+04  0.97840266563E+03 0.  0.
        -13    1    3    3    0    0  0.16353093796E+03  0.31107025213E+03  0.45122738619E+03  0.57193813883E+03  0.10566000000E+00 0.  1.
         13    1    1    2    0    0  0.22918042240E+03 -0.37598634951E+03  0.12420141967E+03  0.45751000518E+03  0.10566000000E+00 0. -1.
          2    1    1    2  501    0 -0.33867160156E+01 -0.25215645068E+02  0.57550752768E+03  0.57606962514E+03  0.00000000000E+00 0.  1.
          4    1    3    3  502    0 -0.38932464435E+03  0.90131742448E+02 -0.32715970456E+03  0.51645995196E+03  0.00000000000E+00 0.  1.
</event>
<event>
 7    1  0.4894942E-006  0.1317149E+04  0.7818608E-02  0.8942892E-01
          4   -1    0    0  501    0  0.00000000000E+00  0.00000000000E+00  0.53763471096E+03  0.53763471096E+03  0.00000000000E+00 0.  1.
         -4   -1    0    0    0  501 -0.00000000000E+00 -0.00000000000E+00 -0.32932426146E+04  0.32932426146E+04  0.00000000000E+00 0. -1.
   -9000010    2    1    2    0  502 -0.54359193546E+03  0.59722546381E+03 -0.21774378699E+04  0.25590616085E+04  0.10748907813E+04 0.  0.
        -13    1    1    2    0    0 -0.92432663977E+02 -0.19590480496E+03  0.11828798174E+03  0.24680872708E+03  0.10566000000E+00 0.  1.
         13    1    3    3    0    0  0.12605379880E+03  0.59401396902E+03 -0.14407969561E+04  0.15635338293E+04  0.10566000000E+00 0. -1.
          4    1    1    2  502    0  0.63602459944E+03 -0.40132065885E+03 -0.69645801553E+03  0.10250069901E+04  0.00000000000E+00 0.  1.
         -4    1    3    3    0  502 -0.66964573426E+03  0.32114947852E+01 -0.73664091378E+03  0.99552777911E+03  0.00000000000E+00 0. -1.
</event>
<event>
 7    1  0.4894942E-006  0.1124147E+04  0.7818608E-02  0.8851229E-01
          2   -1    0    0  502    0  0.00000000000E+00  0.00000000000E+00  0.18857148042E+04  0.18857148042E+04  0.00000000000E+00 0.  1.
          4   -1    0    0  501    0 -0.00000000000E+00 -0.00000000000E+00 -0.44876580442E+03  0.44876580442E+03  0.00000000000E+00 0.  1.
    9000010    2    1    2  502    0  0.50033338559E+03  0.51935511378E+02  0.51099689124E+03  0.12322340380E+04  0.10021237985E+04 0.  0.
        -13    1    3    3    0    0  0.17414598322E+03 -0.43125152065E+03  0.44816394649E+03  0.64587586395E+03  0.10566000000E+00 0.  1.
         13    1    1    2    0    0 -0.51151376810E+03 -0.58638783089E+02  0.66523123039E+03  0.84120000172E+03  0.10566000000E+00 0. -1.
          2    1    1    2  501    0  0.11180382514E+02  0.67032717108E+01  0.26072087816E+03  0.26104656886E+03  0.00000000000E+00 0.  1.
          4    1    3    3  502    0  0.32618740236E+03  0.48318703203E+03  0.62832944750E+02  0.58635817410E+03  0.00000000000E+00 0.  1.
</event>
<event>
 7    1  0.4894942E-006  0.1099278E+04  0.7818608E-02  0.8958148E-01
          4   -1    0    0  501    0 -0.00000000000E+00  0.00000000000E+00  0.56888155712E+03  0.56888155712E+03  0.00000000000E+00 0.  1.
          2   -1    0    0  502    0  0.00000000000E+00 -0.00000000000E+00 -0.18550712265E+04  0.18550712265E+04  0.00000000000E+00 0.  1.
    9000010    2    1    2  502    0  0.29750896379E+03 -0.16842333291E+03 -0.11108439392E+04  0.15609976772E+04  0.10420467785E+04 0.  0.
        -13    1    3    3    0    0  0.11463787010E+03 -0.60471480767E+03 -0.72114634764E+03  0.94808960850E+03  0.10566000000E+00 0.  1.
         13    1    1    2    0    0 -0.23890365056E+03  0.25807489541E+03  0.24537160617E+03  0.42881795925E+03  0.10566000000E+00 0. -1.
          2    1    1    2  501    0 -0.58605313233E+02 -0.89651562504E+02 -0.42071733640E+03  0.43413714716E+03  0.00000000000E+00 0.  1.
          4    1    3    3  502    0  0.18287109369E+03  0.43629147476E+03 -0.38969759151E+03  0.61290806871E+03  0.00000000000E+00 0.  1.
</event>
<event>
 7    1  0.4894942E-006  0.1004460E+04  0.7818608E-02  0.9321775E-01
          2   -1    0    0  501    0  0.00000000000E+00  0.00000000000E+00  0.14444753528E+04  0.14444753528E+04  0.00000000000E+00 0. -1.
         -4   -1    0    0    0  501 -0.00000000000E+00 -0.00000000000E+00 -0.22414090335E+03  0.22414090335E+03  0.00000000000E+00 0. -1.
   -9000010    2    1    2    0  502  0.93583120350E+02  0.81280876673E+01  0.10417107092E+04  0.14459616601E+04  0.99840876125E+03 0.  0.
        -13    1    1    2    0    0 -0.11239903767E+03 -0.23256588491E+01  0.16003156075E+03  0.19557367911E+03  0.10566000000E+00 0.  1.
         13    1    3    3    0    0 -0.15859443298E+03  0.13871634391E+03 -0.12513359186E+03  0.24505682038E+03  0.10566000000E+00 0. -1.
          2    1    1    2  502    0  0.18815917325E+02 -0.58024288181E+01  0.18592179504E+02  0.27080916965E+02  0.00000000000E+00 0. -1.
         -4    1    3    3    0  502  0.25217755333E+03 -0.13058825624E+03  0.11668443011E+04  0.12009048397E+04  0.00000000000E+00 0. -1.
</event>
<event>
 7    1  0.4894942E-006  0.1360657E+04  0.7818608E-02  0.9230409E-01
          1   -1    0    0  501    0  0.00000000000E+00  0.00000000000E+00  0.67637639807E+03  0.67637639807E+03  0.00000000000E+00 0.  1.
         -4   -1    0    0    0  501 -0.00000000000E+00 -0.00000000000E+00 -0.31706627801E+04  0.31706627801E+04  0.00000000000E+00 0. -1.
   -9000010    2    1    2    0  502 -0.85534259881E+03  0.15156545118E+03 -0.22744059790E+04  0.26348352366E+04  0.10073981930E+04 0.  0.
        -13    1    1    2    0    0 -0.58428447721E+02 -0.22828446872E+02 -0.28049153234E+03  0.28742048008E+03  0.10566000000E+00 0.  1.
         13    1    3    3    0    0  0.18634955271E+01 -0.27703889116E+03 -0.17678520021E+03  0.32864424232E+03  0.10566000000E+00 0. -1.
          1    1    1    2  502    0  0.91377104653E+03 -0.12873700431E+03  0.60611129269E+02  0.92478346154E+03  0.00000000000E+00 0.  1.
         -4    1    3    3    0  502 -0.85720609434E+03  0.42860434234E+03 -0.20976207787E+04  0.23061909942E+04  0.00000000000E+00 0. -1.
</event>
<event>
 7    1  0.4894942E-006  0.1000719E+04  0.7818608E-02  0.9525491E-01
          2   -1    0    0  502    0  0.00000000000E+00  0.00000000000E+00  0.15573415034E+04  0.15573415034E+04  0.00000000000E+00 0.  1.
          4   -1    0    0  501    0 -0.00000000000E+00 -0.00000000000E+00 -0.30609783961E+03  0.30609783961E+03  0.00000000000E+00 0.  1.
    9000010    2    1    2  502    0 -0.68230941579E+02  0.48720913851E+02  0.11862150917E+04  0.15533254147E+04  0.99934198920E+03 0.  0.
        -13    1    3    3    0    0  0.24151793125E+03  0.33812601057E+03  0.10138785867E+04  0.10957234641E+04  0.10566000000E+00 0.  1.
         13    1    1    2    0    0  0.46914728673E+02 -0.23237396259E+02 -0.11536374901E+03  0.12668770304E+03  0.10566000000E+00 0. -1.
          2    1    1    2  501    0  0.21316212906E+02 -0.25483517592E+02  0.18039232110E+03  0.18342622526E+03  0.00000000000E+00 0.  1.
          4    1    3    3  502    0 -0.30974887283E+03 -0.28940509672E+03  0.17233650502E+03  0.45760195060E+03  0.00000000000E+00 0.  1.
</event>
<event>
 7    1  0.4894942E-006  0.1038563E+04  0.7818608E-02  0.9036687E-01
         -4   -1    0    0    0  501 -0.00000000000E+00  0.00000000000E+00  0.31286724708E+03  0.31286724708E+03  0.00000000000E+00 0. -1.
          2   -1    0    0  501    0  0.00000000000E+00 -0.00000000000E+00 -0.27728426271E+04  0.27728426271E+04  0.00000000000E+00 0. -1.
   -9000010    2    1    2    0  502  0.10068139885E+03 -0.32802580336E+03 -0.12094511723E+04  0.16024625981E+04  0.99366823853E+03 0.  0.
        -13    1    1    2    0    0 -0.47213542897E+02  0.29308528342E+03 -0.75268468109E+02  0.30625717207E+03  0.10566000000E+00 0.  1.
         13    1    3    3    0    0  0.32531659138E+03 -0.65460099109E+02  0.13021042800E+02  0.33209255926E+03  0.10566000000E+00 0. -1.
          2    1    1    2  502    0 -0.53467855950E+02  0.34940519940E+02 -0.11752557395E+04  0.11769901040E+04  0.00000000000E+00 0. -1.
         -4    1    3    3    0  502 -0.22463519253E+03 -0.26256570425E+03 -0.12224722151E+04  0.12703700388E+04  0.00000000000E+00 0. -1.
</event>
<event>
 6    1  0.4894942E-006  0.7410998E+03  0.7818608E-02  0.9350342E-01
         -4   -1    0    0    0  501 -0.00000000000E+00  0.00000000000E+00  0.23797198836E+04  0.23797198836E+04  0.00000000000E+00 0. -1.
          2   -1    0    0  501    0  0.00000000000E+00 -0.00000000000E+00 -0.13599134487E+04  0.13599134487E+04  0.00000000000E+00 0. -1.
        -13    1    1    2    0    0 -0.20350500795E+02 -0.24409786478E+03  0.10938110704E+04  0.11209016814E+04  0.10566000000E+00 0.  1.
         13    1    1    2    0    0 -0.17510222219E+03  0.43038851716E+03  0.71132140762E+03  0.84963122590E+03  0.10566000000E+00 0. -1.
          2    1    1    2  502    0 -0.21448054638E+02 -0.93718202460E+01 -0.12372743833E+04  0.12374957574E+04  0.00000000000E+00 0. -1.
         -4    1    1    2    0  502  0.21690077762E+03 -0.17691883214E+03  0.45194834004E+03  0.53160466755E+03  0.00000000000E+00 0. -1.
</event>
<event>
 7    1  0.4894942E-006  0.9933145E+03  0.7818608E-02  0.9584450E-01
          4   -1    0    0  501    0 -0.00000000000E+00  0.00000000000E+00  0.23041473535E+04  0.23041473535E+04  0.00000000000E+00 0.  1.
          2   -1    0    0  502    0  0.00000000000E+00 -0.00000000000E+00 -0.35559727768E+03  0.35559727768E+03  0.00000000000E+00 0. -1.
    9000010    2    1    2  502    0 -0.35192304025E+02  0.32859419397E+02  0.21274203693E+04  0.23479829617E+04  0.99236501384E+03 0.  0.
        -13    1    3    3    0    0 -0.74051708351E+02 -0.45659981261E+03  0.70499609494E+03  0.84320018349E+03  0.10566000000E+00 0.  1.
         13    1    1    2    0    0  0.24934230373E+02 -0.35252896318E+02  0.59301861906E+02  0.73356693850E+02  0.10566000000E+00 0. -1.
          2    1    1    2  501    0  0.10258073653E+02  0.23934769210E+01 -0.23817215542E+03  0.23840497567E+03  0.00000000000E+00 0. -1.
          4    1    3    3  502    0  0.38859404326E+02  0.48945923201E+03  0.14224242744E+04  0.15047827782E+04  0.00000000000E+00 0.  1.
</event>
<event>
 7    1  0.4894942E-006  0.1250045E+04  0.7818608E-02  0.8887645E-01
          2   -1    0    0  501    0  0.00000000000E+00  0.00000000000E+00  0.14815471438E+04  0.14815471438E+04  0.00000000000E+00 0. -1.
         -4   -1    0    0    0  501 -0.00000000000E+00 -0.00000000000E+00 -0.21146168978E+04  0.21146168978E+04  0.00000000000E+00 0. -1.
   -9000010    2    1    2    0  502  0.66971211368E+03 -0.22151051264E+03 -0.54315572074E+03  0.13315596915E+04  0.99017768745E+03 0.  0.
        -13    1    1    2    0    0 -0.93451692994E+02 -0.30424437449E+03 -0.10096434776E+04  0.10586207165E+04  0.10566000000E+00 0.  1.
         13    1    3    3    0    0  0.85083033901E+03 -0.34583829771E+03 -0.60926539576E+03  0.11021436964E+04  0.10566000000E+00 0. -1.
          2    1    1    2  502    0 -0.57626042069E+03  0.52575488712E+03  0.91972944437E+03  0.12059836337E+04  0.00000000000E+00 0. -1.
         -4    1    3    3    0  502 -0.18111822532E+03  0.12432778507E+03  0.66109675014E+02  0.22941599512E+03  0.00000000000E+00 0. -1.
</event>
<event>
 7    1  0.4894942E-006  0.1101146E+04  0.7818608E-02  0.8895949E-01
         -4   -1    0    0    0  501 -0.00000000000E+00  0.00000000000E+00  0.25064689782E+04  0.25064689782E+04  0.00000000000E+00 0. -1.
          4   -1    0    0  501    0  0.00000000000E+00 -0.00000000000E+00 -0.14471656026E+04  0.14471656026E+04  0.00000000000E+00 0.  1.
   -9000010    2    1    2    0  502 -0.60249138964E+03 -0.19685498043E+03  0.11941112566E+04  0.16845742178E+04  0.10050576322E+04 0.  0.
        -13    1    1    2    0    0  0.20747313719E+03  0.38996282074E+03  0.97767920302E+03  0.10728339757E+04  0.10566000000E+00 0.  1.
         13    1    3    3    0    0 -0.10377809835E+03 -0.46284597156E+03  0.96387347336E+03  0.10742664339E+04  0.10566000000E+00 0. -1.
          4    1    1    2  502    0  0.39501825245E+03 -0.19310784031E+03 -0.11124870840E+04  0.11962263874E+04  0.00000000000E+00 0.  1.
         -4    1    3    3    0  502 -0.49871329129E+03  0.26599099113E+03  0.23023778324E+03  0.61030778391E+03  0.00000000000E+00 0. -1.
</event>
<event>
 7    1  0.4894942E-006  0.1002732E+04  0.7818608E-02  0.9227973E-01
          2   -1    0    0  502    0  0.00000000000E+00  0.00000000000E+00  0.10004727464E+04  0.10004727464E+04  0.00000000000E+00 0.  1.
          4   -1    0    0  501    0 -0.00000000000E+00 -0.00000000000E+00 -0.57915482313E+03  0.57915482313E+03  0.00000000000E+00 0.  1.
    9000010    2    1    2  502    0  0.87809128939E+02  0.83005921410E+02  0.19998117134E+03  0.10173663523E+04  0.99017240908E+03 0.  0.
        -13    1    3    3    0    0  0.24236430413E+02  0.35355248705E+03  0.49712684223E+03  0.61050952007E+03  0.10566000000E+00 0.  1.
         13    1    1    2    0    0 -0.14348248294E+03 -0.72754487373E+02 -0.12972683339E+03  0.20666277073E+03  0.10566000000E+00 0. -1.
          2    1    1    2  501    0  0.55673353997E+02 -0.10251434037E+02  0.35106358531E+03  0.35559844653E+03  0.00000000000E+00 0.  1.
          4    1    3    3  502    0  0.63572698526E+02 -0.27054656564E+03 -0.29714567089E+03  0.40685683220E+03  0.00000000000E+00 0.  1.
</event>
<event>
 7    1  0.4894942E-006  0.9080183E+03  0.7818608E-02  0.9033706E-01
          4   -1    0    0  501    0 -0.00000000000E+00  0.00000000000E+00  0.57929559962E+03  0.57929559962E+03  0.00000000000E+00 0.  1.
          2   -1    0    0  502    0  0.00000000000E+00 -0.00000000000E+00 -0.11989294277E+04  0.11989294277E+04  0.00000000000E+00 0. -1.
    9000010    2    1    2  502    0 -0.45484046065E+03  0.11748598332E+03  0.70646640006E+02  0.91703741289E+03  0.78440032380E+03 0.  0.
        -13    1    3    3    0    0  0.24292727480E+02  0.26535073189E+03 -0.21282935969E+03  0.34102418540E+03  0.10566000000E+00 0.  1.
         13    1    1    2    0    0  0.43872203298E+03 -0.45396485685E+02 -0.59130122753E+03  0.73768219172E+03  0.10566000000E+00 0. -1.
          2    1    1    2  501    0  0.16118427670E+02 -0.72089497633E+02 -0.98979240595E+02  0.12350542275E+03  0.00000000000E+00 0. -1.
          4    1    3    3  502    0 -0.47913318813E+03 -0.14786474857E+03  0.28347599970E+03  0.57601322749E+03  0.00000000000E+00 0.  1.
</event>
<event>
 7    1  0.4894942E-006  0.1047379E+04  0.7818608E-02  0.9015355E-01
         -4   -1    0    0    0  501 -0.00000000000E+00  0.00000000000E+00  0.23022725069E+04  0.23022725069E+04  0.00000000000E+00 0. -1.
          2   -1    0    0  501    0  0.00000000000E+00 -0.00000000000E+00 -0.75183603120E+03  0.75183603120E+03  0.00000000000E+00 0.  1.
   -9000010    2    1    2    0  502 -0.28527758260E+03 -0.15818805995E+03  0.12352760012E+04  0.16206040142E+04  0.99701745743E+03 0.  0.
        -13    1    1    2    0    0  0.27192367093E+03  0.16891391761E+03  0.84488868849E+03  0.90349947508E+03  0.10566000000E+00 0.  1.
         13    1    3    3    0    0 -0.55461742667E+03 -0.39721464622E+03  0.89325464511E+03  0.11239590016E+04  0.10566000000E+00 0. -1.
          2    1    1    2  502    0  0.13353911665E+02 -0.10725857660E+02 -0.52972821401E+03  0.53000504874E+03  0.00000000000E+00 0.  1.
         -4    1    3    3    0  502  0.26933984407E+03  0.23902658627E+03  0.34202135609E+03  0.49664501263E+03  0.00000000000E+00 0. -1.
</event>
<event>
 7    1  0.4894942E-006  0.1091223E+04  0.7818608E-02  0.8905268E-01
          2   -1    0    0  501    0  0.00000000000E+00  0.00000000000E+00  0.90783858093E+03  0.90783858093E+03  0.00000000000E+00 0. -1.
         -4   -1    0    0    0  501 -0.00000000000E+00 -0.00000000000E+00 -0.34714469256E+04  0.34714469256E+04  0.00000000000E+00 0. -1.
   -9000010    2    1    2    0  502  0.74302383645E+02  0.53118311822E+03 -0.26625175254E+04  0.28930313401E+04  0.99647097918E+03 0.  0.
        -13    1    1    2    0    0  0.12142185329E+03 -0.39293176442E+03 -0.61126688537E+03  0.73674001809E+03  0.10566000000E+00 0.  1.
         13    1    3    3    0    0  0.50215706407E+03  0.39251561457E+03 -0.19394581332E+04  0.20415014294E+04  0.10566000000E+00 0. -1.
          2    1    1    2  502    0 -0.19572423693E+03 -0.13825135380E+03  0.71017606609E+03  0.74951414837E+03  0.00000000000E+00 0. -1.
         -4    1    3    3    0  502 -0.42785468043E+03  0.13866750365E+03 -0.72305939222E+03  0.85152991069E+03  0.00000000000E+00 0. -1.
</event>
<event>
 7    1  0.4894942E-006  0.1082798E+04  0.7818608E-02  0.8966966E-01
          2   -1    0    0  502    0  0.00000000000E+00  0.00000000000E+00  0.11686264918E+04  0.11686264918E+04  0.00000000000E+00 0. -1.
          4   -1    0    0  501    0 -0.00000000000E+00 -0.00000000000E+00 -0.12959281428E+04  0.12959281428E+04  0.00000000000E+00 0.  1.
    9000010    2    1    2  502    0 -0.69980743851E+02 -0.35797703653E+03 -0.26388606427E+03  0.11181557825E+04  0.10235192405E+04 0.  0.
        -13    1    3    3    0    0 -0.51241010512E+03 -0.38717252352E+03 -0.13316550985E+03  0.65589613734E+03  0.10566000000E+00 0.  1.
         13    1    1    2    0    0  0.44148211251E+02  0.34929570221E+03 -0.55338585576E+03  0.65589059199E+03  0.10566000000E+00 0. -1.
          2    1    1    2  501    0  0.25832532600E+02  0.86813343258E+01  0.68997026894E+03  0.69050826014E+03  0.00000000000E+00 0. -1.
          4    1    3    3  502    0  0.44242936127E+03  0.29195486984E+02 -0.13072055442E+03  0.46225964514E+03  0.00000000000E+00 0.  1.
</event>
<event>
 7    1  0.1456833E-005  0.1039260E+04  0.7818608E-02  0.9045446E-01
          4   -1    0    0  501    0  0.00000000000E+00  0.00000000000E+00  0.27467090971E+04  0.27467090971E+04  0.00000000000E+00 0.  1.
         -4   -1    0    0    0  501 -0.00000000000E+00 -0.00000000000E+00 -0.82595560036E+03  0.82595560036E+03  0.00000000000E+00 0. -1.
   -9000010    2    1    2    0  502  0.38136547819E+03  0.30391166574E+02 -0.30012653848E+03  0.11098617951E+04  0.99767430268E+03 0.  0.
        -13    1    1    2    0    0 -0.25139419898E+03  0.82514821869E+02  0.31265748302E+02  0.26643066131E+03  0.10566000000E+00 0.  1.
         13    1    3    3    0    0  0.49739675730E+02  0.69484031673E+02  0.36004360569E+03  0.37004523394E+03  0.10566000000E+00 0. -1.
          4    1    1    2  502    0 -0.12997127922E+03 -0.11290598844E+03  0.21896142869E+04  0.21963722410E+04  0.00000000000E+00 0.  1.
         -4    1    3    3    0  502  0.33162580246E+03 -0.39092865099E+02 -0.66017014417E+03  0.73981656119E+03  0.00000000000E+00 0. -1.
</event>
<event>
 7    1  0.4894942E-006  0.1172978E+04  0.7818608E-02  0.8996677E-01
         -4   -1    0    0    0  501  0.00000000000E+00  0.00000000000E+00  0.88180510449E+03  0.88180510449E+03  0.00000000000E+00 0. -1.
         -4   -1    0    0    0  502 -0.00000000000E+00 -0.00000000000E+00 -0.12740627744E+04  0.12740627744E+04  0.00000000000E+00 0.  1.
   -9000010    2    1    2    0  501  0.55893018333E+03  0.41381186118E+03 -0.40237078137E+03  0.12826939108E+04  0.99987910106E+03 0.  0.
        -13    1    1    2    0    0 -0.96562495334E+00 -0.24634876386E+03  0.12979799566E+03  0.27845318588E+03  0.10566000000E+00 0.  1.
         13    1    3    3    0    0  0.76638408730E+03  0.22905842983E+02 -0.32802866541E+03  0.83394967678E+03  0.10566000000E+00 0. -1.
         -4    1    3    3    0  501 -0.20745390397E+03  0.39090601820E+03 -0.74342115957E+02  0.44874423399E+03  0.00000000000E+00 0. -1.
         -4    1    1    2    0  502 -0.55796455837E+03 -0.16746309732E+03 -0.11968488424E+03  0.59472078228E+03  0.00000000000E+00 0.  1.
</event>
<event>
 7    1  0.4894942E-006  0.1025326E+04  0.7818608E-02  0.9113479E-01
          2   -1    0    0  502    0  0.00000000000E+00  0.00000000000E+00  0.29619695411E+04  0.29619695411E+04  0.00000000000E+00 0.  1.
          4   -1    0    0  501    0 -0.00000000000E+00 -0.00000000000E+00 -0.29745940958E+03  0.29745940958E+03  0.00000000000E+00 0.  1.
    9000010    2    1    2  502    0  0.46086076177E+02  0.22496747094E+03  0.63666986883E+03  0.12066076762E+04  0.99890904142E+03 0.  0.
        -13    1    3    3    0    0 -0.16611399564E+03  0.34161597547E+03  0.81945440407E+03  0.90321695387E+03  0.10566000000E+00 0.  1.
         13    1    1    2    0    0 -0.60160954992E+02 -0.22548150678E+03  0.10822108597E+04  0.11070869913E+04  0.10566000000E+00 0. -1.
          2    1    1    2  501    0  0.14074878815E+02  0.51403583644E+00  0.94562940308E+03  0.94573428319E+03  0.00000000000E+00 0.  1.
          4    1    3    3  502    0  0.21220007181E+03 -0.11664850453E+03 -0.18278453524E+03  0.30339072235E+03  0.00000000000E+00 0.  1.
</event>
<event>
 7    1  0.4894942E-006  0.1358422E+04  0.7818608E-02  0.8579082E-01
          2   -1    0    0  501    0  0.00000000000E+00  0.00000000000E+00  0.84483433991E+03  0.84483433991E+03  0.00000000000E+00 0.  1.
         -4   -1    0    0    0  501 -0.00000000000E+00 -0.00000000000E+00 -0.27955937423E+04  0.27955937423E+04  0.00000000000E+00 0. -1.
   -9000010    2    1    2    0  502  0.30315034376E+02  0.94709148981E+03 -0.17489146445E+04  0.22200140046E+04  0.98582881663E+03 0.  0.
        -13    1    1    2    0    0 -0.23018330711E+02 -0.91990909936E+03 -0.54939481282E+03  0.10717263019E+04  0.10566000000E+00 0.  1.
         13    1    3    3    0    0  0.75557464912E+02  0.10875335680E+04 -0.17619040630E+04  0.20718938512E+04  0.10566000000E+00 0. -1.
          2    1    1    2  502    0 -0.72967036650E+01 -0.27182390450E+02  0.34755005492E+03  0.34868777568E+03  0.00000000000E+00 0.  1.
         -4    1    3    3    0  502 -0.45242430536E+02 -0.14044207824E+03  0.12989418544E+02  0.14812015344E+03  0.00000000000E+00 0. -1.
</event>
<event>
 7    1  0.4894942E-006  0.1180659E+04  0.7818608E-02  0.8773138E-01
          2   -1    0    0  501    0  0.00000000000E+00  0.00000000000E+00  0.22689053594E+04  0.22689053594E+04  0.00000000000E+00 0. -1.
         -4   -1    0    0    0  501 -0.00000000000E+00 -0.00000000000E+00 -0.10174853478E+04  0.10174853478E+04  0.00000000000E+00 0. -1.
   -9000010    2    1    2    0  502  0.49245506287E+03  0.44159569217E+03  0.35487402520E+03  0.12584193262E+04  0.10100321195E+04 0.  0.
        -13    1    1    2    0    0  0.88795884014E+02 -0.65729748790E+03 -0.26266144736E+03  0.71338330770E+03  0.10566000000E+00 0.  1.
         13    1    3    3    0    0  0.13437554571E+03  0.25060041939E+03  0.68087354552E+03  0.73786594557E+03  0.10566000000E+00 0. -1.
          2    1    1    2  502    0 -0.58125094689E+03  0.21570179573E+03  0.11592074338E+04  0.13145880733E+04  0.00000000000E+00 0. -1.
         -4    1    3    3    0  502  0.35807951716E+03  0.19099527278E+03 -0.32599952033E+03  0.52055338063E+03  0.00000000000E+00 0. -1.
</event>
<event>
 7    1  0.4894942E-006  0.1128482E+04  0.7818608E-02  0.8787920E-01
          4   -1    0    0  501    0 -0.00000000000E+00  0.00000000000E+00  0.12997729616E+04  0.12997729616E+04  0.00000000000E+00 0.  1.
          2   -1    0    0  502    0  0.00000000000E+00 -0.00000000000E+00 -0.19155230320E+04  0.19155230320E+04  0.00000000000E+00 0. -1.
    9000010    2    1    2  502    0  0.61619701780E+02 -0.63433602424E+03  0.19726550498E+03  0.11341223290E+04  0.91713717536E+03 0.  0.
        -13    1    3    3    0    0 -0.38053164117E+02 -0.83154423884E+03 -0.81074264695E+01  0.83245396628E+03  0.10566000000E+00 0.  1.
         13    1    1    2    0    0 -0.17466388498E+03  0.64435929276E+03  0.45511011913E+03  0.80797995184E+03  0.10566000000E+00 0. -1.
          2    1    1    2  501    0  0.11304418320E+03 -0.10023268523E+02 -0.12681256945E+04  0.12731937128E+04  0.00000000000E+00 0. -1.
          4    1    3    3  502    0  0.99672865898E+02  0.19720821460E+03  0.20537293145E+03  0.30166836274E+03  0.00000000000E+00 0.  1.
</event>
<event>
 7    1  0.4894942E-006  0.1226230E+04  0.7818608E-02  0.8736279E-01
          4   -1    0    0  501    0 -0.00000000000E+00  0.00000000000E+00  0.15790589245E+04  0.15790589245E+04  0.00000000000E+00 0.  1.
          2   -1    0    0  502    0  0.00000000000E+00 -0.00000000000E+00 -0.13996817338E+04  0.13996817338E+04  0.00000000000E+00 0.  1.
    9000010    2    1    2  502    0  0.25699968416E+03  0.15750252608E+03  0.11196387361E+03  0.10949258733E+04  0.10466474458E+04 0.  0.
        -13    1    3    3    0    0  0.53834298694E+03 -0.22912142193E+03 -0.56891352006E+02  0.58783197827E+03  0.10566000000E+00 0.  1.
         13    1    1    2    0    0 -0.62701320541E+03 -0.39833110271E+03  0.75983646538E+03  0.10626216130E+04  0.10566000000E+00 0. -1.
          2    1    1    2  501    0  0.37001352125E+03  0.24082857663E+03 -0.69242314829E+03  0.82119317186E+03  0.00000000000E+00 0.  1.
          4    1    3    3  502    0 -0.28134330278E+03  0.38662394801E+03  0.16885522562E+03  0.50709389507E+03  0.00000000000E+00 0.  1.
</event>
<event>
 7    1  0.4894942E-006  0.1141289E+04  0.7818608E-02  0.8826448E-01
          2   -1    0    0  501    0  0.00000000000E+00  0.00000000000E+00  0.80350003458E+03  0.80350003458E+03  0.00000000000E+00 0. -1.
         -4   -1    0    0    0  501 -0.00000000000E+00 -0.00000000000E+00 -0.13795101426E+04  0.13795101426E+04  0.00000000000E+00 0. -1.
   -9000010    2    1    2    0  502  0.25391593843E+03 -0.51267887293E+03 -0.72042328252E+02  0.11590190992E+04  0.10053965609E+04 0.  0.
        -13    1    1    2    0    0 -0.19649330241E+03  0.49745102925E+03 -0.66438835438E+03  0.85292381898E+03  0.10566000000E+00 0.  1.
         13    1    3    3    0    0 -0.13038870177E+03 -0.71198894142E+03 -0.40769006881E+02  0.72497695780E+03  0.10566000000E+00 0. -1.
          2    1    1    2  502    0 -0.57422636019E+02  0.15227843684E+02  0.16042057460E+03  0.17106725901E+03  0.00000000000E+00 0. -1.
         -4    1    3    3    0  502  0.38430464020E+03  0.19931006849E+03 -0.31273321371E+02  0.43404214140E+03  0.00000000000E+00 0. -1.
</event>
<event>
 7    1  0.4894942E-006  0.1172785E+04  0.7818608E-02  0.8809849E-01
          2   -1    0    0  502    0  0.00000000000E+00  0.00000000000E+00  0.27987268084E+04  0.27987268084E+04  0.00000000000E+00 0.  1.
          4   -1    0    0  501    0 -0.00000000000E+00 -0.00000000000E+00 -0.68677629586E+03  0.68677629586E+03  0.00000000000E+00 0.  1.
    9000010    2    1    2  502    0  0.39846162463E+03  0.40653495004E+03  0.15290794517E+04  0.19371538998E+04  0.10442408390E+04 0.  0.
        -13    1    3    3    0    0  0.46231502998E+03  0.62559426393E+03  0.15215375592E+04  0.17088533949E+04  0.10566000000E+00 0.  1.
         13    1    1    2    0    0 -0.18959729722E+03 -0.49983308058E+03 -0.31588531084E+03  0.62093782645E+03  0.10566000000E+00 0. -1.
          2    1    1    2  501    0 -0.20886432741E+03  0.93298130537E+02  0.89875637171E+03  0.92741137804E+03  0.00000000000E+00 0.  1.
          4    1    3    3  502    0 -0.63853405352E+02 -0.21905931389E+03  0.75418924643E+01  0.22830050486E+03  0.00000000000E+00 0.  1.
</event>
<event>
 7    1  0.4894942E-006  0.1036023E+04  0.7818608E-02  0.9060326E-01
          1   -1    0    0  501    0  0.00000000000E+00  0.00000000000E+00  0.28992047087E+04  0.28992047087E+04  0.00000000000E+00 0. -1.
         -4   -1    0    0    0  501 -0.00000000000E+00 -0.00000000000E+00 -0.13244798140E+04  0.13244798140E+04  0.00000000000E+00 0. -1.
   -9000010    2    1    2    0  502  0.10347729709E+03  0.18614873049E+03 -0.67729828643E+02  0.10230664029E+04  0.99835796891E+03 0.  0.
        -13    1    1    2    0    0  0.18009409250E+03 -0.22428831795E+03 -0.74369023642E+03  0.79737965276E+03  0.10566000000E+00 0.  1.
         13    1    3    3    0    0 -0.39878341345E+03  0.25806091056E+03  0.10615251677E+03  0.48671553538E+03  0.10566000000E+00 0. -1.
          1    1    1    2  502    0 -0.28357138959E+03  0.38139587459E+02  0.23861449597E+04  0.24032384671E+04  0.00000000000E+00 0. -1.
         -4    1    3    3    0  502  0.50226071054E+03 -0.71912180074E+02 -0.17388234541E+03  0.53635086747E+03  0.00000000000E+00 0. -1.
</event>
<event>
 7    1  0.4894942E-006  0.1878707E+04  0.7818608E-02  0.8326535E-01
          2   -1    0    0  502    0  0.00000000000E+00  0.00000000000E+00  0.27122806943E+04  0.27122806943E+04  0.00000000000E+00 0.  1.
          4   -1    0    0  501    0 -0.00000000000E+00 -0.00000000000E+00 -0.24198805886E+04  0.24198805886E+04  0.00000000000E+00 0.  1.
    9000010    2    1    2  502    0  0.10283385144E+04 -0.38072458477E+03  0.41056823256E+02  0.14812701859E+04  0.99500974432E+03 0.  0.
        -13    1    3    3    0    0  0.44800590225E+03 -0.32576736743E+02  0.49341516119E+03  0.66725487235E+03  0.10566000000E+00 0.  1.
         13    1    1    2    0    0  0.10662406032E+04  0.36130858888E+03 -0.72584206521E+03  0.13394997705E+04  0.10566000000E+00 0. -1.
          2    1    1    2  501    0 -0.20945791176E+04  0.19415995886E+02  0.97718534764E+03  0.23113913265E+04  0.00000000000E+00 0.  1.
          4    1    3    3  502    0  0.58033261215E+03 -0.34814784802E+03 -0.45235833793E+03  0.81401531355E+03  0.00000000000E+00 0.  1.
</event>
<event>
 7    1  0.4894942E-006  0.1026314E+04  0.7818608E-02  0.9232734E-01
          2   -1    0    0  501    0  0.00000000000E+00  0.00000000000E+00  0.30167034632E+04  0.30167034632E+04  0.00000000000E+00 0. -1.
         -4   -1    0    0    0  501 -0.00000000000E+00 -0.00000000000E+00 -0.39796043578E+03  0.39796043578E+03  0.00000000000E+00 0. -1.
   -9000010    2    1    2    0  502  0.60482737881E+03  0.44722067134E+03  0.15978653909E+04  0.19245418299E+04  0.76476464389E+03 0.  0.
        -13    1    1    2    0    0 -0.14428567899E+03  0.13058064710E+02 -0.11222968012E+03  0.18326042256E+03  0.10566000000E+00 0.  1.
         13    1    3    3    0    0  0.97092907546E+02  0.22264862042E+03  0.12410217838E+04  0.12645689068E+04  0.10566000000E+00 0. -1.
          2    1    1    2  502    0 -0.46054169982E+03 -0.46027873605E+03  0.11331073166E+04  0.13068616465E+04  0.00000000000E+00 0. -1.
         -4    1    3    3    0  502  0.50773447126E+03  0.22457205092E+03  0.35684360710E+03  0.65997292315E+03  0.00000000000E+00 0. -1.
</event>
<event>
 6    1  0.4894942E-006  0.1351630E+04  0.7818608E-02  0.8841400E-01
          2   -1    0    0  501    0  0.00000000000E+00  0.00000000000E+00  0.25943184353E+04  0.25943184353E+04  0.00000000000E+00 0. -1.
         -4   -1    0    0    0  501 -0.00000000000E+00 -0.00000000000E+00 -0.31091936676E+03  0.31091936676E+03  0.00000000000E+00 0. -1.
        -13    1    1    2    0    0 -0.30839796972E+03 -0.52891788345E+02  0.17746711984E+03  0.35972411483E+03  0.10566000000E+00 0.  1.
         13    1    1    2    0    0  0.40115336011E+03 -0.47465104494E+02 -0.13292002736E+02  0.40417031431E+03  0.10566000000E+00 0. -1.
          2    1    1    2  502    0  0.70467058826E+02 -0.17149097025E+02  0.22330356935E+03  0.23478539562E+03  0.00000000000E+00 0. -1.
         -4    1    1    2    0  502 -0.16322244921E+03  0.11750598986E+03  0.18959203821E+04  0.19065579773E+04  0.00000000000E+00 0. -1.
</event>
<event>
 7    1  0.4894942E-006  0.1139134E+04  0.7818608E-02  0.8820588E-01
          2   -1    0    0  501    0  0.00000000000E+00  0.00000000000E+00  0.23668278378E+04  0.23668278378E+04  0.00000000000E+00 0. -1.
         -4   -1    0    0    0  501 -0.00000000000E+00 -0.00000000000E+00 -0.10533581353E+04  0.10533581353E+04  0.00000000000E+00 0. -1.
   -9000010    2    1    2    0  502 -0.88618274229E+02  0.18441151925E+03 -0.22035807049E+02  0.10216408074E+04  0.10007015318E+04 0.  0.
        -13    1    1    2    0    0 -0.49856105310E+03 -0.24781036717E+03 -0.31908703820E+03  0.64170838459E+03  0.10566000000E+00 0.  1.
         13    1    3    3    0    0  0.25473261708E+03 -0.32137423719E+03 -0.85758145777E+01  0.41017516050E+03  0.10566000000E+00 0. -1.
          2    1    1    2  502    0  0.58717932733E+03  0.63398847917E+02  0.16545925477E+04  0.17568367811E+04  0.00000000000E+00 0. -1.
         -4    1    3    3    0  502 -0.34335089131E+03  0.50578575644E+03 -0.13459992471E+02  0.61146564693E+03  0.00000000000E+00 0. -1.
</event>
<event>
 7    1  0.4894942E-006  0.1093278E+04  0.7818608E-02  0.8891703E-01
         -4   -1    0    0    0  501 -0.00000000000E+00  0.00000000000E+00  0.18320318199E+04  0.18320318199E+04  0.00000000000E+00 0. -1.
          2   -1    0    0  501    0  0.00000000000E+00 -0.00000000000E+00 -0.44627890828E+03  0.44627890828E+03  0.00000000000E+00 0. -1.
   -9000010    2    1    2    0  502  0.50604991784E+03  0.94336333267E+02  0.56633533576E+03  0.12498516696E+04  0.98813340211E+03 0.  0.
        -13    1    1    2    0    0 -0.46029642237E+03 -0.11441904962E+02  0.81203267883E+03  0.93348850892E+03  0.10566000000E+00 0.  1.
         13    1    3    3    0    0  0.43757444061E+03 -0.40530928959E+03  0.20994103537E+03  0.63231500125E+03  0.10566000000E+00 0. -1.
          2    1    1    2  502    0 -0.45753495477E+02 -0.82894428305E+02  0.73848969934E+01  0.94970549624E+02  0.00000000000E+00 0. -1.
         -4    1    3    3    0  502  0.68475477233E+02  0.49964562286E+03  0.35639430039E+03  0.61753666836E+03  0.00000000000E+00 0. -1.
</event>
<event>
 7    1  0.4894942E-006  0.1014307E+04  0.7818608E-02  0.9398974E-01
         -4   -1    0    0    0  502 -0.00000000000E+00  0.00000000000E+00  0.67370080041E+03  0.67370080041E+03  0.00000000000E+00 0. -1.
         -2   -1    0    0    0  501  0.00000000000E+00 -0.00000000000E+00 -0.52175322512E+03  0.52175322512E+03  0.00000000000E+00 0. -1.
   -9000010    2    1    2    0  501  0.49624675620E+02  0.45229337077E+02  0.19762081760E+03  0.10324558830E+04  0.10111393877E+04 0.  0.
        -13    1    1    2    0    0 -0.55547532709E+02 -0.58940142298E+02  0.29620642096E+02  0.86237244659E+02  0.10566000000E+00 0.  1.
         13    1    3    3    0    0  0.11374620202E+03 -0.32840605668E+03 -0.26303795478E+03  0.43586432907E+03  0.10566000000E+00 0. -1.
         -2    1    1    2    0  502  0.59228570890E+01  0.13710805221E+02 -0.75293884404E+02  0.76760897888E+02  0.00000000000E+00 0. -1.
         -4    1    3    3    0  501 -0.64121526403E+02  0.37363539376E+03  0.46065877238E+03  0.59659155390E+03  0.00000000000E+00 0. -1.
</event>
<event>
 7    1  0.4894942E-006  0.1353652E+04  0.7818608E-02  0.8585738E-01
         -4   -1    0    0    0  501 -0.00000000000E+00  0.00000000000E+00  0.30194239046E+04  0.30194239046E+04  0.00000000000E+00 0. -1.
          2   -1    0    0  501    0  0.00000000000E+00 -0.00000000000E+00 -0.72977857402E+03  0.72977857402E+03  0.00000000000E+00 0.  1.
   -9000010    2    1    2    0  502 -0.11237477783E+04  0.49937454972E+02  0.17222033784E+04  0.22853677184E+04  0.99580033797E+03 0.  0.
        -13    1    1    2    0    0  0.73751321888E+03  0.29376504322E+03  0.51015117285E+03  0.94365135456E+03  0.10566000000E+00 0.  1.
         13    1    3    3    0    0 -0.47770820714E+03  0.51789295185E+03  0.81367972025E+03  0.10763330986E+04  0.10566000000E+00 0. -1.
          2    1    1    2  502    0  0.38623455938E+03 -0.34370249819E+03  0.57290779293E+02  0.52018340565E+03  0.00000000000E+00 0.  1.
         -4    1    3    3    0  502 -0.64603957112E+03 -0.46795549688E+03  0.90852365815E+03  0.12090346198E+04  0.00000000000E+00 0. -1.
</event>
<event>
 7    1  0.4894942E-006  0.1079338E+04  0.7818608E-02  0.9036028E-01
          4   -1    0    0  501    0 -0.00000000000E+00  0.00000000000E+00  0.71735120726E+03  0.71735120726E+03  0.00000000000E+00 0.  1.
          2   -1    0    0  502    0  0.00000000000E+00 -0.00000000000E+00 -0.11402378362E+04  0.11402378362E+04  0.00000000000E+00 0.  1.
    9000010    2    1    2  502    0 -0.27486521703E+02 -0.28147334246E+03 -0.13153735331E+03  0.10906228016E+04  0.10450709395E+04 0.  0.
        -13    1    3    3    0    0 -0.25746795390E+03 -0.46713232851E+03 -0.41902889185E+03  0.67829756228E+03  0.10566000000E+00 0.  1.
         13    1    1    2    0    0  0.27716551024E+02  0.26676483915E+03  0.16203188481E+03  0.31334650064E+03  0.10566000000E+00 0. -1.
          2    1    1    2  501    0 -0.23002932081E+00  0.14708503311E+02 -0.45338116048E+03  0.45361974126E+03  0.00000000000E+00 0.  1.
          4    1    3    3  502    0  0.22998143219E+03  0.18565898606E+03  0.28749153853E+03  0.41232523933E+03  0.00000000000E+00 0.  1.
</event>
<event>
 7    1  0.4894942E-006  0.1333352E+04  0.7818608E-02  0.8606096E-01
          2   -1    0    0  502    0  0.00000000000E+00  0.00000000000E+00  0.89132439072E+03  0.89132439072E+03  0.00000000000E+00 0. -1.
          4   -1    0    0  501    0 -0.00000000000E+00 -0.00000000000E+00 -0.16425395673E+04  0.16425395673E+04  0.00000000000E+00 0.  1.
    9000010    2    1    2  502    0 -0.38102622335E+03  0.73710790771E+03 -0.72419970906E+03  0.14907803598E+04  0.10047147914E+04 0.  0.
        -13    1    3    3    0    0  0.31491723502E+03  0.87102016775E+02 -0.31648234102E+03  0.45488538071E+03  0.10566000000E+00 0.  1.
         13    1    1    2    0    0  0.45697877550E+03 -0.80997297336E+03 -0.62293067469E+02  0.93207631460E+03  0.10566000000E+00 0. -1.
          2    1    1    2  501    0 -0.75952552148E+02  0.72865065651E+02  0.35277599921E+02  0.11100728366E+03  0.00000000000E+00 0. -1.
          4    1    3    3  502    0 -0.69594345837E+03  0.65000589093E+03 -0.40771736804E+03  0.10358949791E+04  0.00000000000E+00 0.  1.
</event>
<event>
 7    1  0.4894942E-006  0.1078981E+04  0.7818608E-02  0.8939294E-01
          2   -1    0    0  502    0  0.00000000000E+00  0.00000000000E+00  0.18757238288E+04  0.18757238288E+04  0.00000000000E+00 0.  1.
          4   -1    0    0  501    0 -0.00000000000E+00 -0.00000000000E+00 -0.48443943006E+03  0.48443943006E+03  0.00000000000E+00 0.  1.
    9000010    2    1    2  502    0  0.32380223672E+03 -0.41031030042E+02  0.50615605514E+03  0.11691872354E+04  0.10021344248E+04 0.  0.
        -13    1    3    3    0    0  0.29234739759E+03  0.21295389704E+03  0.73927237357E+03  0.82300669294E+03  0.10566000000E+00 0.  1.
         13    1    1    2    0    0 -0.40581770432E+03  0.14044682830E+03  0.16601771578E+03  0.46040766049E+03  0.10566000000E+00 0. -1.
          2    1    1    2  501    0  0.82015467600E+02 -0.99415798263E+02  0.71911062784E+03  0.73056836295E+03  0.00000000000E+00 0.  1.
          4    1    3    3  502    0  0.31454839130E+02 -0.25398492708E+03 -0.23311631843E+03  0.34618054250E+03  0.00000000000E+00 0.  1.
</event>
<event>
 7    1  0.4894942E-006  0.1089159E+04  0.7818608E-02  0.8917783E-01
         -4   -1    0    0    0  501 -0.00000000000E+00  0.00000000000E+00  0.22739124545E+04  0.22739124545E+04  0.00000000000E+00 0. -1.
          2   -1    0    0  501    0  0.00000000000E+00 -0.00000000000E+00 -0.99266218036E+03  0.99266218036E+03  0.00000000000E+00 0.  1.
   -9000010    2    1    2    0  502  0.24943253887E+03 -0.33828527008E+03  0.13067180853E+04  0.17000010128E+04  0.10029146394E+04 0.  0.
        -13    1    1    2    0    0 -0.27675648931E+03  0.32432304026E+03  0.71123207416E+03  0.82923498678E+03  0.10566000000E+00 0.  1.
         13    1    3    3    0    0  0.14825258666E+03  0.15857184278E+03  0.11484994574E+04  0.11688348359E+04  0.10566000000E+00 0. -1.
          2    1    1    2  502    0  0.27323950442E+02  0.13962229819E+02 -0.73669988526E+03  0.73733863528E+03  0.00000000000E+00 0.  1.
         -4    1    3    3    0  502  0.10117995220E+03 -0.49685711286E+03  0.15821862787E+03  0.53116617694E+03  0.00000000000E+00 0. -1.
</event>
<event>
 7    1  0.4894942E-006  0.1013699E+04  0.7818608E-02  0.9179086E-01
         -4   -1    0    0    0  501 -0.00000000000E+00  0.00000000000E+00  0.21109151306E+04  0.21109151306E+04  0.00000000000E+00 0. -1.
          1   -1    0    0  501    0  0.00000000000E+00 -0.00000000000E+00 -0.72074332534E+03  0.72074332534E+03  0.00000000000E+00 0. -1.
   -9000010    2    1    2    0  502  0.75378203163E+02  0.65543507485E+02  0.12131130429E+04  0.15732035392E+04  0.99666859896E+03 0.  0.
        -13    1    1    2    0    0 -0.17491120271E+03  0.88741803771E+02  0.68806042451E+03  0.71546921354E+03  0.10566000000E+00 0.  1.
         13    1    3    3    0    0 -0.40702090458E+03 -0.14601044170E+03  0.32617921338E+03  0.54164375401E+03  0.10566000000E+00 0. -1.
          1    1    1    2  502    0  0.99532999545E+02 -0.15428531126E+03 -0.51100166208E+03  0.54298570323E+03  0.00000000000E+00 0. -1.
         -4    1    3    3    0  502  0.48239910775E+03  0.21155394919E+03  0.88693382949E+03  0.10315597852E+04  0.00000000000E+00 0. -1.
</event>
<event>
 7    1  0.4894942E-006  0.1111683E+04  0.7818608E-02  0.9177620E-01
          4   -1    0    0  501    0 -0.00000000000E+00  0.00000000000E+00  0.97782822071E+03  0.97782822071E+03  0.00000000000E+00 0.  1.
          2   -1    0    0  502    0  0.00000000000E+00 -0.00000000000E+00 -0.16990963890E+04  0.16990963890E+04  0.00000000000E+00 0.  1.
    9000010    2    1    2  502    0 -0.23193040876E+02 -0.53527573836E+02  0.42659771711E+03  0.11837826024E+04  0.11027023711E+04 0.  0.
        -13    1    3    3    0    0  0.32714824688E+03 -0.45635628795E+03  0.14371914129E+03  0.57960524474E+03  0.10566000000E+00 0.  1.
         13    1    1    2    0    0  0.13799376853E+03 -0.29428119004E+02  0.13926014054E+03  0.19824654410E+03  0.10566000000E+00 0. -1.
          2    1    1    2  501    0 -0.11480072766E+03  0.82955692840E+02 -0.12871260260E+04  0.12948954633E+04  0.00000000000E+00 0.  1.
          4    1    3    3  502    0 -0.35034128775E+03  0.40282871412E+03  0.28287857581E+03  0.60417735763E+03  0.00000000000E+00 0.  1.
</event>
<event>
 7    1  0.7339685E-006  0.1190715E+04  0.7818608E-02  0.8885727E-01
          4   -1    0    0  501    0  0.00000000000E+00  0.00000000000E+00  0.21863643551E+04  0.21863643551E+04  0.00000000000E+00 0.  1.
         -4   -1    0    0    0  501 -0.00000000000E+00 -0.00000000000E+00 -0.78871392484E+03  0.78871392484E+03  0.00000000000E+00 0. -1.
   -9000010    2    1    2    0  502  0.59497494910E+02  0.33722214701E+03 -0.15324179440E+03  0.10696526281E+04  0.10017060291E+04 0.  0.
        -13    1    1    2    0    0 -0.12777185501E+03  0.34851984163E+03  0.30003039859E+03  0.47729443552E+03  0.10566000000E+00 0.  1.
         13    1    3    3    0    0  0.23956768711E+03 -0.29984598996E+03  0.23255927709E+02  0.38450116221E+03  0.10566000000E+00 0. -1.
          4    1    1    2  502    0  0.68274360098E+02 -0.68574198863E+03  0.12508618260E+04  0.14281312163E+04  0.00000000000E+00 0.  1.
         -4    1    3    3    0  502 -0.18007019220E+03  0.63706813696E+03 -0.17649772211E+03  0.68515146585E+03  0.00000000000E+00 0. -1.
</event>
<event>
 7    1  0.4894942E-006  0.1187393E+04  0.7818608E-02  0.9062247E-01
          2   -1    0    0  501    0  0.00000000000E+00  0.00000000000E+00  0.12667537679E+04  0.12667537679E+04  0.00000000000E+00 0. -1.
         -4   -1    0    0    0  501 -0.00000000000E+00 -0.00000000000E+00 -0.94168213355E+03  0.94168213355E+03  0.00000000000E+00 0. -1.
   -9000010    2    1    2    0  502  0.34155678983E+03  0.41186618384E+03 -0.19016956482E+03  0.11488699580E+04  0.99872064309E+03 0.  0.
        -13    1    1    2    0    0  0.18239763569E+03  0.49910095353E+01 -0.43414864604E+02  0.18755977531E+03  0.10566000000E+00 0.  1.
         13    1    3    3    0    0  0.35149599643E+03  0.72342795449E+03 -0.46521490111E+02  0.80564365637E+03  0.10566000000E+00 0. -1.
          2    1    1    2  502    0 -0.52395442552E+03 -0.41685719337E+03  0.55865606376E+03  0.87200616814E+03  0.00000000000E+00 0. -1.
         -4    1    3    3    0  502 -0.99392066043E+01 -0.31156177065E+03 -0.14364807471E+03  0.34322630162E+03  0.00000000000E+00 0. -1.
</event>
<event>
 7    1  0.4894942E-006  0.1082971E+04  0.7818608E-02  0.8942111E-01
          2   -1    0    0  501    0  0.00000000000E+00  0.00000000000E+00  0.85499773459E+03  0.85499773459E+03  0.00000000000E+00 0. -1.
         -4   -1    0    0    0  501 -0.00000000000E+00 -0.00000000000E+00 -0.22115905521E+04  0.22115905521E+04  0.00000000000E+00 0. -1.
   -9000010    2    1    2    0  502  0.38517350791E+03  0.14621227232E+03 -0.67359022916E+03  0.12819653156E+04  0.10099379257E+04 0.  0.
        -13    1    1    2    0    0 -0.38024849147E+03 -0.83207690573E+02 -0.12011450042E+04  0.12626407911E+04  0.10566000000E+00 0.  1.
         13    1    3    3    0    0  0.19223552437E+03  0.56108239491E+03 -0.54798195920E+03  0.80749748574E+03  0.10566000000E+00 0. -1.
          2    1    1    2  502    0 -0.49250164369E+01 -0.63004581750E+02  0.51814241586E+03  0.52198217998E+03  0.00000000000E+00 0. -1.
         -4    1    3    3    0  502  0.19293798354E+03 -0.41487012258E+03 -0.12560826996E+03  0.47446782987E+03  0.00000000000E+00 0. -1.
</event>
<event>
 7    1  0.4894942E-006  0.2625054E+04  0.7818608E-02  0.8474678E-01
         -4   -1    0    0    0  501 -0.00000000000E+00  0.00000000000E+00  0.23177568847E+04  0.23177568847E+04  0.00000000000E+00 0. -1.
          2   -1    0    0  501    0  0.00000000000E+00 -0.00000000000E+00 -0.33459482645E+04  0.33459482645E+04  0.00000000000E+00 0.  1.
   -9000010    2    1    2    0  502  0.20965274826E+04 -0.93252129554E+03  0.17437796236E+03  0.25125959988E+04  0.10088149124E+04 0.  0.
        -13    1    1    2    0    0  0.15659943005E+03 -0.13596776701E+03  0.20166162569E+03  0.28927156375E+03  0.10566000000E+00 0.  1.
         13    1    3    3    0    0  0.51316088936E+03 -0.69256295022E+03  0.28363175503E+03  0.90742741970E+03  0.10566000000E+00 0. -1.
          2    1    1    2  502    0 -0.22531269126E+04  0.10684890626E+04 -0.14042309678E+04  0.28618375866E+04  0.00000000000E+00 0.  1.
         -4    1    3    3    0  502  0.15833665932E+04 -0.23995834532E+03 -0.10925379268E+03  0.16051685791E+04  0.00000000000E+00 0. -1.
</event>
<event>
 7    1  0.4894942E-006  0.1078386E+04  0.7818608E-02  0.9023331E-01
          2   -1    0    0  502    0  0.00000000000E+00  0.00000000000E+00  0.66508088388E+03  0.66508088388E+03  0.00000000000E+00 0.  1.
          4   -1    0    0  501    0 -0.00000000000E+00 -0.00000000000E+00 -0.19407885506E+04  0.19407885506E+04  0.00000000000E+00 0.  1.
    9000010    2    1    2  502    0  0.11882291919E+03 -0.52292531613E+03  0.67433106833E+02  0.11205258732E+04  0.98156061260E+03 0.  0.
        -13    1    3    3    0    0  0.35316063086E+03 -0.68277920920E+03  0.21847744762E+03  0.79915097821E+03  0.10566000000E+00 0.  1.
         13    1    1    2    0    0  0.39494137812E+02  0.28193506948E+03 -0.34983701878E+03  0.45103560968E+03  0.10566000000E+00 0. -1.
          2    1    1    2  501    0 -0.15831705700E+03  0.24099024665E+03 -0.99330375475E+03  0.10343079516E+04  0.00000000000E+00 0.  1.
          4    1    3    3  502    0 -0.23433771167E+03  0.15985389307E+03 -0.15104434078E+03  0.32137489498E+03  0.00000000000E+00 0.  1.
</event>
<event>
 7    1  0.4894942E-006  0.1024562E+04  0.7818608E-02  0.9062457E-01
          2   -1    0    0  501    0  0.00000000000E+00  0.00000000000E+00  0.74106285962E+03  0.74106285962E+03  0.00000000000E+00 0. -1.
         -4   -1    0    0    0  501 -0.00000000000E+00 -0.00000000000E+00 -0.14420280872E+04  0.14420280872E+04  0.00000000000E+00 0. -1.
   -9000010    2    1    2    0  502  0.24865969870E+03 -0.13721528252E+03 -0.10673050295E+04  0.14795251671E+04  0.98447702599E+03 0.  0.
        -13    1    1    2    0    0 -0.23520210802E+03  0.15932833600E+03 -0.48261212211E+02  0.28815743273E+03  0.10566000000E+00 0.  1.
         13    1    3    3    0    0 -0.33921048324E+03 -0.31965800649E+02 -0.12303952238E+03  0.36224894697E+03  0.10566000000E+00 0. -1.
          2    1    1    2  502    0 -0.13457590676E+02 -0.22113053475E+02  0.41460101407E+03  0.41540834699E+03  0.00000000000E+00 0. -1.
         -4    1    3    3    0  502  0.58787018194E+03 -0.10524948188E+03 -0.94426550707E+03  0.11172762201E+04  0.00000000000E+00 0. -1.
</event>
<event>
 7    1  0.4894942E-006  0.1006243E+04  0.7818608E-02  0.9204439E-01
          2   -1    0    0  501    0  0.00000000000E+00  0.00000000000E+00  0.23762901114E+04  0.23762901114E+04  0.00000000000E+00 0.  1.
         -4   -1    0    0    0  501 -0.00000000000E+00 -0.00000000000E+00 -0.17599634791E+03  0.17599634791E+03  0.00000000000E+00 0. -1.
   -9000010    2    1    2    0  502 -0.21684947580E+03  0.60475729039E+02  0.15596720250E+04  0.18618236061E+04  0.99152877199E+03 0.  0.
        -13    1    1    2    0    0  0.13004878548E+03 -0.90906014732E+02  0.47779066100E+03  0.50344862402E+03  0.10566000000E+00 0.  1.
         13    1    3    3    0    0  0.76781424169E+02  0.40661690853E+03  0.26872516910E+03  0.49340239671E+03  0.10566000000E+00 0. -1.
          2    1    1    2  502    0  0.86800690322E+02  0.30430285693E+02  0.16283107753E+03  0.18701422924E+03  0.00000000000E+00 0.  1.
         -4    1    3    3    0  502 -0.29363089997E+03 -0.34614117949E+03  0.12909468559E+04  0.13684212094E+04  0.00000000000E+00 0. -1.
</event>
<event>
 6    1  0.4894942E-006  0.3559955E+03  0.7818608E-02  0.9941090E-01
         -4   -1    0    0    0  501 -0.00000000000E+00  0.00000000000E+00  0.87555339093E+03  0.87555339093E+03  0.00000000000E+00 0. -1.
          2   -1    0    0  501    0  0.00000000000E+00 -0.00000000000E+00 -0.18039745863E+03  0.18039745863E+03  0.00000000000E+00 0. -1.
        -13    1    1    2    0    0 -0.24055080132E+03  0.14515424251E+03  0.54684810690E+03  0.61479858923E+03  0.10566000000E+00 0.  1.
         13    1    1    2    0    0  0.15733239886E+03 -0.22250403471E+03  0.11760282311E+03  0.29680290491E+03  0.10566000000E+00 0. -1.
          2    1    1    2  502    0  0.36373718324E+02  0.23563476865E+02 -0.28316727570E+02  0.51769893635E+02  0.00000000000E+00 0. -1.
         -4    1    1    2    0  502  0.46844684139E+02  0.53786315341E+02  0.59021729854E+02  0.92579461789E+02  0.00000000000E+00 0. -1.
</event>
<event>
 7    1  0.4894942E-006  0.1049428E+04  0.7818608E-02  0.9085771E-01
         -4   -1    0    0    0  502 -0.00000000000E+00  0.00000000000E+00  0.27805424795E+04  0.27805424795E+04  0.00000000000E+00 0. -1.
         -2   -1    0    0    0  501  0.00000000000E+00 -0.00000000000E+00 -0.28190368756E+03  0.28190368756E+03  0.00000000000E+00 0. -1.
   -9000010    2    1    2    0  501  0.18976076788E+03  0.18013506369E+03  0.15333108374E+04  0.18608791049E+04  0.10214553973E+04 0.  0.
        -13    1    1    2    0    0 -0.19822994848E+03 -0.13395530096E+03  0.10649195224E+04  0.10914635749E+04  0.10566000000E+00 0.  1.
         13    1    3    3    0    0 -0.28602121637E+03  0.35116769095E+03  0.34455533328E+03  0.56907404812E+03  0.10566000000E+00 0. -1.
         -2    1    1    2    0  502  0.84691806026E+01 -0.46179762728E+02 -0.99591567862E+02  0.11010348721E+03  0.00000000000E+00 0. -1.
         -4    1    3    3    0  501  0.47578198426E+03 -0.17103262727E+03  0.11887555041E+04  0.12918050568E+04  0.00000000000E+00 0. -1.
</event>
<event>
 7    1  0.4894942E-006  0.1009659E+04  0.7818608E-02  0.9252469E-01
          2   -1    0    0  501    0  0.00000000000E+00  0.00000000000E+00  0.36891261829E+04  0.36891261829E+04  0.00000000000E+00 0. -1.
         -4   -1    0    0    0  501 -0.00000000000E+00 -0.00000000000E+00 -0.25084018357E+03  0.25084018357E+03  0.00000000000E+00 0. -1.
   -9000010    2    1    2    0  502  0.11496368992E+03 -0.26146367236E+02  0.15328338620E+04  0.18338465804E+04  0.99975664510E+03 0.  0.
        -13    1    1    2    0    0 -0.12973715078E+03  0.57273845322E+02 -0.49993348630E+02  0.15037076751E+03  0.10566000000E+00 0.  1.
         13    1    3    3    0    0 -0.41577894443E+03  0.28736386877E+01  0.37534311779E+03  0.56014538797E+03  0.10566000000E+00 0. -1.
          2    1    1    2  502    0  0.14773460857E+02 -0.31127478086E+02  0.19554454860E+04  0.19557490186E+04  0.00000000000E+00 0. -1.
         -4    1    3    3    0  502  0.53074263435E+03 -0.29020005924E+02  0.11574907442E+04  0.12737011924E+04  0.00000000000E+00 0. -1.
</event>
<event>
 7    1  0.4894942E-006  0.1055879E+04  0.7818608E-02  0.8966618E-01
         -4   -1    0    0    0  501 -0.00000000000E+00  0.00000000000E+00  0.89974887920E+03  0.89974887920E+03  0.00000000000E+00 0. -1.
          2   -1    0    0  501    0  0.00000000000E+00 -0.00000000000E+00 -0.70956124258E+03  0.70956124258E+03  0.00000000000E+00 0. -1.
   -9000010    2    1    2    0  502  0.31578890121E+03  0.25738639487E+03  0.17649806370E+02  0.10656134426E+04  0.98450500608E+03 0.  0.
        -13    1    1    2    0    0 -0.28921303571E+03 -0.24138015077E+03  0.25546232877E+03  0.45515884018E+03  0.10566000000E+00 0.  1.
         13    1    3    3    0    0  0.63044283335E+03  0.84280028254E+01 -0.11923356063E+03  0.64167425575E+03  0.10566000000E+00 0. -1.
          2    1    1    2  502    0 -0.26575865496E+02 -0.16006244104E+02 -0.82924498531E+02  0.88537838994E+02  0.00000000000E+00 0. -1.
         -4    1    3    3    0  502 -0.31465393214E+03  0.24895839205E+03  0.13688336700E+03  0.42393918685E+03  0.00000000000E+00 0. -1.
</event>
<event>
 7    1  0.4894942E-006  0.1239484E+04  0.7818608E-02  0.8704725E-01
          4   -1    0    0  501    0 -0.00000000000E+00  0.00000000000E+00  0.62207941037E+03  0.62207941037E+03  0.00000000000E+00 0.  1.
          2   -1    0    0  502    0  0.00000000000E+00 -0.00000000000E+00 -0.33235221124E+04  0.33235221124E+04  0.00000000000E+00 0. -1.
    9000010    2    1    2  502    0  0.50112068361E+03 -0.50501187922E+03 -0.12754493774E+03  0.12475982227E+04  0.10168946241E+04 0.  0.
        -13    1    3    3    0    0  0.49302271916E+02 -0.73301181648E+03 -0.89145459263E+02  0.74005672836E+03  0.10566000000E+00 0.  1.
         13    1    1    2    0    0 -0.47483604484E+03  0.51580399333E+03 -0.19285487722E+04  0.20520290951E+04  0.10566000000E+00 0. -1.
          2    1    1    2  501    0 -0.26284638768E+02 -0.10792114108E+02 -0.64534899202E+03  0.64597420496E+03  0.00000000000E+00 0. -1.
          4    1    3    3  502    0  0.45181841169E+03  0.22799993726E+03 -0.38399478482E+02  0.50754149434E+03  0.00000000000E+00 0.  1.
</event>
<event>
 7    1  0.4894942E-006  0.1238420E+04  0.7818608E-02  0.8711578E-01
         -4   -1    0    0    0  501 -0.00000000000E+00  0.00000000000E+00  0.28878588225E+04  0.28878588225E+04  0.00000000000E+00 0. -1.
          2   -1    0    0  501    0  0.00000000000E+00 -0.00000000000E+00 -0.39647967402E+03  0.39647967402E+03  0.00000000000E+00 0. -1.
   -9000010    2    1    2    0  502 -0.66778853182E+03  0.14390648174E+03  0.14167695383E+04  0.18792970292E+04  0.10285284638E+04 0.  0.
        -13    1    1    2    0    0  0.67570556141E+03 -0.15200713049E+03  0.11425962875E+04  0.13361176822E+04  0.10566000000E+00 0.  1.
         13    1    3    3    0    0 -0.79517110965E+03 -0.44953471354E+02  0.51322956127E+03  0.94748219082E+03  0.10566000000E+00 0. -1.
          2    1    1    2  502    0 -0.79170295915E+01  0.81006487460E+01 -0.67986677244E+02  0.68923785084E+02  0.00000000000E+00 0. -1.
         -4    1    3    3    0  502  0.12738257783E+03  0.18885995309E+03  0.90353997700E+03  0.93181483839E+03  0.00000000000E+00 0. -1.
</event>
<event>
 7    1  0.4894942E-006  0.1085792E+04  0.7818608E-02  0.9096624E-01
         -4   -1    0    0    0  501 -0.00000000000E+00  0.00000000000E+00  0.17305829497E+04  0.17305829497E+04  0.00000000000E+00 0. -1.
          2   -1    0    0  501    0  0.00000000000E+00 -0.00000000000E+00 -0.29831959961E+04  0.29831959961E+04  0.00000000000E+00 0. -1.
   -9000010    2    1    2    0  502 -0.23739281317E+03  0.71540497481E+02  0.63761388181E+03  0.12066430705E+04  0.99396310128E+03 0.  0.
        -13    1    1    2    0    0 -0.14307559199E+03  0.15117417164E+03  0.77665366385E+03  0.80406167669E+03  0.10566000000E+00 0.  1.
         13    1    3    3    0    0 -0.19682444925E+03 -0.60369002664E+02  0.89296192975E+03  0.91638709040E+03  0.10566000000E+00 0. -1.
          2    1    1    2  502    0  0.38046840516E+03 -0.22271466912E+03 -0.26668805920E+04  0.27030741986E+04  0.00000000000E+00 0. -1.
         -4    1    3    3    0  502 -0.40568363922E+02  0.13190950014E+03 -0.25534804794E+03  0.29025598007E+03  0.00000000000E+00 0. -1.
</event>
<event>
 7    1  0.4894942E-006  0.1012423E+04  0.7818608E-02  0.9181342E-01
          2   -1    0    0  501    0  0.00000000000E+00  0.00000000000E+00  0.17388518742E+04  0.17388518742E+04  0.00000000000E+00 0. -1.
         -4   -1    0    0    0  501 -0.00000000000E+00 -0.00000000000E+00 -0.56527897266E+03  0.56527897266E+03  0.00000000000E+00 0. -1.
   -9000010    2    1    2    0  502  0.10377181535E+03  0.78162242792E+02  0.56889519169E+03  0.11539591463E+04  0.99554108226E+03 0.  0.
        -13    1    1    2    0    0 -0.14148178601E+03 -0.12093834895E+03 -0.23991925619E+03  0.30365184122E+03  0.10566000000E+00 0.  1.
         13    1    3    3    0    0  0.42574167626E+02  0.53696951961E+03  0.26564226559E+03  0.60059524571E+03  0.10566000000E+00 0. -1.
          2    1    1    2  502    0  0.37709970660E+02  0.42776106162E+02  0.84459696604E+03  0.84651985930E+03  0.00000000000E+00 0. -1.
         -4    1    3    3    0  502  0.61197647725E+02 -0.45880727682E+03  0.30325292609E+03  0.55336390064E+03  0.00000000000E+00 0. -1.
</event>
<event>
 7    1  0.4894942E-006  0.1277777E+04  0.7818608E-02  0.8660101E-01
          1   -1    0    0  501    0  0.00000000000E+00  0.00000000000E+00  0.10383546610E+04  0.10383546610E+04  0.00000000000E+00 0.  1.
         -4   -1    0    0    0  501 -0.00000000000E+00 -0.00000000000E+00 -0.15210780417E+04  0.15210780417E+04  0.00000000000E+00 0. -1.
   -9000010    2    1    2    0  502  0.51342973249E+03 -0.80870518675E+03 -0.23337805299E+03  0.14099546865E+04  0.10079150426E+04 0.  0.
        -13    1    1    2    0    0 -0.24462759352E+03  0.68479981087E+03 -0.38621351432E+03  0.82337982140E+03  0.10566000000E+00 0.  1.
         13    1    3    3    0    0  0.72963737778E+03 -0.60298470042E+03 -0.44316357846E+03  0.10451579883E+04  0.10566000000E+00 0. -1.
          1    1    1    2  502    0 -0.26880213897E+03  0.12390537588E+03  0.13686818660E+03  0.32609819471E+03  0.00000000000E+00 0.  1.
         -4    1    3    3    0  502 -0.21620764528E+03 -0.20572048633E+03  0.20978552547E+03  0.36479669828E+03  0.00000000000E+00 0. -1.
</event>
<event>
 7    1  0.4894942E-006  0.9998362E+03  0.7818608E-02  0.9588107E-01
          2   -1    0    0  502    0  0.00000000000E+00  0.00000000000E+00  0.33414033814E+04  0.33414033814E+04  0.00000000000E+00 0.  1.
          4   -1    0    0  501    0 -0.00000000000E+00 -0.00000000000E+00 -0.15778447568E+03  0.15778447568E+03  0.00000000000E+00 0.  1.
    9000010    2    1    2  502    0 -0.50718348561E+02  0.31426498616E+02  0.19514615044E+04  0.21930956122E+04  0.99895264426E+03 0.  0.
        -13    1    3    3    0    0 -0.25344362869E+03  0.38460952776E+03  0.47560333235E+03  0.66208511739E+03  0.10566000000E+00 0.  1.
         13    1    1    2    0    0  0.40991067809E+02 -0.88870199502E+01 -0.24911533844E+02  0.48783628875E+02  0.10566000000E+00 0. -1.
          2    1    1    2  501    0  0.97272807519E+01 -0.22539478665E+02  0.12570689352E+04  0.12573086160E+04  0.00000000000E+00 0.  1.
          4    1    3    3  502    0  0.20272528013E+03 -0.35318302914E+03  0.14758581720E+04  0.15310104948E+04  0.00000000000E+00 0.  1.
</event>
<event>
 7    1  0.4894942E-006  0.1202370E+04  0.7818608E-02  0.9032879E-01
         -4   -1    0    0    0  501 -0.00000000000E+00  0.00000000000E+00  0.10176832141E+04  0.10176832141E+04  0.00000000000E+00 0. -1.
          2   -1    0    0  501    0  0.00000000000E+00 -0.00000000000E+00 -0.10673619034E+04  0.10673619034E+04  0.00000000000E+00 0. -1.
   -9000010    2    1    2    0  502  0.37785291786E+03  0.49075118409E+03 -0.84500076437E+02  0.11848796536E+04  0.10065733845E+04 0.  0.
        -13    1    1    2    0    0  0.17922585178E+03 -0.83338077410E+02  0.68488705614E+02  0.20918378296E+03  0.10566000000E+00 0.  1.
         13    1    3    3    0    0  0.86376930708E+02 -0.26306529387E+03  0.18491265475E+03  0.33295198459E+03  0.10566000000E+00 0. -1.
          2    1    1    2  502    0 -0.55707876964E+03 -0.40741310668E+03 -0.33667318469E+02  0.69098168095E+03  0.00000000000E+00 0. -1.
         -4    1    3    3    0  502  0.29147598716E+03  0.75381647795E+03 -0.26941273119E+03  0.85192766902E+03  0.00000000000E+00 0. -1.
</event>
<event>
 7    1  0.4894942E-006  0.1099643E+04  0.7818608E-02  0.8979911E-01
          2   -1    0    0  501    0  0.00000000000E+00  0.00000000000E+00  0.20603008156E+04  0.20603008156E+04  0.00000000000E+00 0.  1.
         -4   -1    0    0    0  501 -0.00000000000E+00 -0.00000000000E+00 -0.83125898591E+03  0.83125898591E+03  0.00000000000E+00 0. -1.
   -9000010    2    1    2    0  502 -0.29366676266E+03  0.83926850378E+02 -0.29322049424E+03  0.11340404988E+04  0.10520388353E+04 0.  0.
        -13    1    1    2    0    0  0.31228804077E+03 -0.10051806624E+03  0.11144124937E+03  0.34647779911E+03  0.10566000000E+00 0.  1.
         13    1    3    3    0    0 -0.35180805750E+03  0.49389691843E+03  0.32433087705E+02  0.60725200016E+03  0.10566000000E+00 0. -1.
          2    1    1    2  502    0 -0.18621278114E+02  0.16591215864E+02  0.14108210746E+04  0.14110415036E+04  0.00000000000E+00 0.  1.
         -4    1    3    3    0  502  0.58141294839E+02 -0.40997006806E+03 -0.32565358194E+03  0.52678849864E+03  0.00000000000E+00 0. -1.
</event>
<event>
 7    1  0.4894942E-006  0.9463742E+03  0.7818608E-02  0.9256290E-01
         -4   -1    0    0    0  501 -0.00000000000E+00  0.00000000000E+00  0.18451324005E+04  0.18451324005E+04  0.00000000000E+00 0. -1.
          1   -1    0    0  501    0  0.00000000000E+00 -0.00000000000E+00 -0.10457734420E+04  0.10457734420E+04  0.00000000000E+00 0. -1.
   -9000010    2    1    2    0  502  0.10378943533E+01  0.15536513517E+03  0.97283575185E+03  0.13556091742E+04  0.93119677330E+03 0.  0.
        -13    1    1    2    0    0 -0.33438803278E+01 -0.16951847288E+03  0.67029318477E+03  0.69140484443E+03  0.10566000000E+00 0.  1.
         13    1    3    3    0    0  0.41843011102E+03 -0.90744335952E+00  0.74643153068E+03  0.85571293225E+03  0.10566000000E+00 0. -1.
          1    1    1    2  502    0  0.23059859745E+01  0.14153337709E+02 -0.84376997810E+03  0.84389182392E+03  0.00000000000E+00 0. -1.
         -4    1    3    3    0  502 -0.41739221667E+03  0.15627257853E+03  0.22640422117E+03  0.49989624193E+03  0.00000000000E+00 0. -1.
</event>
<event>
 7    1  0.4894942E-006  0.1090700E+04  0.7818608E-02  0.8895509E-01
          4   -1    0    0  501    0 -0.00000000000E+00  0.00000000000E+00  0.18136297727E+04  0.18136297727E+04  0.00000000000E+00 0.  1.
          2   -1    0    0  502    0  0.00000000000E+00 -0.00000000000E+00 -0.55347484150E+03  0.55347484150E+03  0.00000000000E+00 0. -1.
    9000010    2    1    2  502    0  0.46941646049E+03  0.17866587354E+01  0.13944670381E+04  0.17718471153E+04  0.98719242009E+03 0.  0.
        -13    1    3    3    0    0 -0.18227564456E+03  0.23581918953E+03  0.81881916502E+03  0.87137818249E+03  0.10566000000E+00 0.  1.
         13    1    1    2    0    0 -0.45689668143E+03 -0.97137938299E+01  0.31382062115E+01  0.45701071628E+03  0.10566000000E+00 0. -1.
          2    1    1    2  501    0 -0.12519779061E+02  0.79271350945E+01 -0.13745031307E+03  0.13824678261E+03  0.00000000000E+00 0. -1.
          4    1    3    3  502    0  0.65169210505E+03 -0.23403253079E+03  0.57564787308E+03  0.90046893285E+03  0.00000000000E+00 0.  1.
</event>
<event>
 7    1  0.4894942E-006  0.1042030E+04  0.7818608E-02  0.9182470E-01
          2   -1    0    0  501    0  0.00000000000E+00  0.00000000000E+00  0.12586650725E+04  0.12586650725E+04  0.00000000000E+00 0. -1.
         -4   -1    0    0    0  501 -0.00000000000E+00 -0.00000000000E+00 -0.54422466512E+03  0.54422466512E+03  0.00000000000E+00 0. -1.
   -9000010    2    1    2    0  502  0.94373824299E+02 -0.17501528806E+03  0.17094586558E+03  0.10500641544E+04  0.10167966707E+04 0.  0.
        -13    1    1    2    0    0 -0.16118762719E+03 -0.47785675768E+02  0.72174460215E+01  0.16827663135E+03  0.10566000000E+00 0.  1.
         13    1    3    3    0    0 -0.43302318775E+02  0.27921439220E+03 -0.27825719731E+03  0.39656379896E+03  0.10566000000E+00 0. -1.
          2    1    1    2  502    0  0.66813802894E+02  0.22280096382E+03  0.53627709582E+03  0.58454895196E+03  0.00000000000E+00 0. -1.
         -4    1    3    3    0  502  0.13767614307E+03 -0.45422968026E+03  0.44920306289E+03  0.65350035540E+03  0.00000000000E+00 0. -1.
</event>
<event>
 7    1  0.4894942E-006  0.9899988E+03  0.7818608E-02  0.9245766E-01
          4   -1    0    0  501    0 -0.00000000000E+00  0.00000000000E+00  0.26964884016E+03  0.26964884016E+03  0.00000000000E+00 0.  1.
          2   -1    0    0  502    0  0.00000000000E+00 -0.00000000000E+00 -0.15247993567E+04  0.15247993567E+04  0.00000000000E+00 0.  1.
    9000010    2    1    2  502    0  0.74445102787E+02 -0.13708295273E+03 -0.10207640761E+04  0.14222585679E+04  0.97802163863E+03 0.  0.
        -13    1    3    3    0    0 -0.12149813035E+03  0.35891524848E+03 -0.71061720040E+03  0.80533146464E+03  0.10566000000E+00 0.  1.
         13    1    1    2    0    0 -0.62047480222E+02  0.14028072745E+03 -0.16890810929E+02  0.15431747456E+03  0.10566000000E+00 0. -1.
          2    1    1    2  501    0 -0.12397622565E+02 -0.31977747214E+01 -0.21749562949E+03  0.21787215438E+03  0.00000000000E+00 0.  1.
          4    1    3    3  502    0  0.19594323313E+03 -0.49599820122E+03 -0.31014687570E+03  0.61692710325E+03  0.00000000000E+00 0.  1.
</event>
<event>
 7    1  0.4894942E-006  0.9939176E+03  0.7818608E-02  0.9170526E-01
          2   -1    0    0  501    0  0.00000000000E+00  0.00000000000E+00  0.12487656325E+04  0.12487656325E+04  0.00000000000E+00 0. -1.
         -4   -1    0    0    0  501 -0.00000000000E+00 -0.00000000000E+00 -0.61888585029E+03  0.61888585029E+03  0.00000000000E+00 0. -1.
   -9000010    2    1    2    0  502 -0.17535047293E+03  0.12217110616E+03  0.66031097722E+02  0.99835504748E+03  0.97297437141E+03 0.  0.
        -13    1    1    2    0    0  0.15189684619E+03 -0.13278728788E+03 -0.85725564799E+02  0.21921222441E+03  0.10566000000E+00 0.  1.
         13    1    3    3    0    0  0.97310085128E+02  0.40383353309E+02  0.48251488701E+03  0.49388328099E+03  0.10566000000E+00 0. -1.
          2    1    1    2  502    0  0.23453626740E+02  0.10616181724E+02  0.64957424930E+03  0.65008421091E+03  0.00000000000E+00 0. -1.
         -4    1    3    3    0  502 -0.27266055806E+03  0.81787752851E+02 -0.41648378929E+03  0.50447176648E+03  0.00000000000E+00 0. -1.
</event>
<event>
 7    1  0.4894942E-006  0.1003557E+04  0.7818608E-02  0.9297998E-01
         -4   -1    0    0    0  501 -0.00000000000E+00  0.00000000000E+00  0.31744914982E+03  0.31744914982E+03  0.00000000000E+00 0. -1.
          1   -1    0    0  501    0  0.00000000000E+00 -0.00000000000E+00 -0.22386008848E+04  0.22386008848E+04  0.00000000000E+00 0.  1.
   -9000010    2    1    2    0  502 -0.16352080804E+03 -0.97070243029E+02 -0.92180402895E+03  0.13705566736E+04  0.99626364026E+03 0.  0.
        -13    1    1    2    0    0  0.84835945848E+02  0.82900744876E+02  0.53138726837E+02  0.12997463854E+03  0.10566000000E+00 0.  1.
         13    1    3    3    0    0  0.22629326585E+03 -0.40051963340E+03 -0.21389178523E+03  0.50732073273E+03  0.10566000000E+00 0. -1.
          1    1    1    2  502    0  0.78684862196E+02  0.14169498153E+02 -0.10524864329E+04  0.10555187226E+04  0.00000000000E+00 0.  1.
         -4    1    3    3    0  502 -0.38981407390E+03  0.30344939037E+03 -0.70791224372E+03  0.86323594082E+03  0.00000000000E+00 0. -1.
</event>
<event>
 7    1  0.4894942E-006  0.1147982E+04  0.7818608E-02  0.8855273E-01
         -4   -1    0    0    0  501 -0.00000000000E+00  0.00000000000E+00  0.95906495444E+03  0.95906495444E+03  0.00000000000E+00 0. -1.
          2   -1    0    0  501    0  0.00000000000E+00 -0.00000000000E+00 -0.16822475911E+04  0.16822475911E+04  0.00000000000E+00 0.  1.
   -9000010    2    1    2    0  502 -0.63571940343E+03  0.43084009275E+03 -0.53553897848E+03  0.13919041988E+04  0.10299674537E+04 0.  0.
        -13    1    1    2    0    0  0.16296687007E+03 -0.44112992877E+03  0.30974817039E+03  0.56311433566E+03  0.10566000000E+00 0.  1.
         13    1    3    3    0    0  0.19808247780E+03 -0.46209605643E+02 -0.36271849486E+03  0.41585660190E+03  0.10566000000E+00 0. -1.
          2    1    1    2  502    0  0.47275253335E+03  0.10289836021E+02 -0.49739182861E+03  0.68629401111E+03  0.00000000000E+00 0.  1.
         -4    1    3    3    0  502 -0.83380188122E+03  0.47704969839E+03 -0.17282048362E+03  0.97604759691E+03  0.00000000000E+00 0. -1.
</event>
<event>
 7    1  0.4894942E-006  0.1003705E+04  0.7818608E-02  0.9276321E-01
          2   -1    0    0  502    0  0.00000000000E+00  0.00000000000E+00  0.30618044376E+04  0.30618044376E+04  0.00000000000E+00 0.  1.
          4   -1    0    0  501    0 -0.00000000000E+00 -0.00000000000E+00 -0.24040312248E+03  0.24040312248E+03  0.00000000000E+00 0.  1.
    9000010    2    1    2  502    0 -0.38198701075E+02 -0.19763462833E+03  0.12202538685E+04  0.15863544474E+04  0.99346984964E+03 0.  0.
        -13    1    3    3    0    0 -0.26603631476E+03  0.33884314492E+03  0.51706204451E+03  0.67301052493E+03  0.10566000000E+00 0.  1.
         13    1    1    2    0    0 -0.73411806436E+02  0.10859961147E+03  0.25241251086E+02  0.13349269964E+03  0.10566000000E+00 0. -1.
          2    1    1    2  501    0  0.11161050751E+03  0.89035016855E+02  0.15759061955E+04  0.15823604130E+04  0.00000000000E+00 0.  1.
          4    1    3    3  502    0  0.22783761368E+03 -0.53647777325E+03  0.70319182403E+03  0.91334392251E+03  0.00000000000E+00 0.  1.
</event>
<event>
 7    1  0.4894942E-006  0.1062318E+04  0.7818608E-02  0.9014563E-01
          2   -1    0    0  502    0  0.00000000000E+00  0.00000000000E+00  0.95404210616E+03  0.95404210616E+03  0.00000000000E+00 0. -1.
          4   -1    0    0  501    0 -0.00000000000E+00 -0.00000000000E+00 -0.28157058886E+04  0.28157058886E+04  0.00000000000E+00 0.  1.
    9000010    2    1    2  502    0  0.14290016587E+03  0.28201673022E+03 -0.19189431259E+04  0.21944558418E+04  0.10165332399E+04 0.  0.
        -13    1    3    3    0    0  0.51040183494E+03  0.42698400452E+03 -0.11097521912E+04  0.12939765493E+04  0.10566000000E+00 0.  1.
         13    1    1    2    0    0 -0.13202285988E+03 -0.27694850615E+03 -0.72795416599E+03  0.78996695471E+03  0.10566000000E+00 0. -1.
          2    1    1    2  501    0 -0.10877305986E+02 -0.50682240659E+01  0.78523350942E+03  0.78532519824E+03  0.00000000000E+00 0. -1.
          4    1    3    3  502    0 -0.36750166907E+03 -0.14496727430E+03 -0.80919093473E+03  0.90047929251E+03  0.00000000000E+00 0.  1.
</event>
<event>
 7    1  0.4894942E-006  0.1066270E+04  0.7818608E-02  0.8988559E-01
          4   -1    0    0  501    0 -0.00000000000E+00  0.00000000000E+00  0.80502781637E+03  0.80502781637E+03  0.00000000000E+00 0.  1.
          2   -1    0    0  502    0  0.00000000000E+00 -0.00000000000E+00 -0.15951879368E+04  0.15951879368E+04  0.00000000000E+00 0.  1.
    9000010    2    1    2  502    0 -0.94413390934E+02  0.32434774995E+03  0.12289641098E+03  0.10729752038E+04  0.10109683026E+04 0.  0.
        -13    1    3    3    0    0 -0.54567588682E+03  0.13990907703E+03 -0.23961948992E+02  0.56383588876E+03  0.10566000000E+00 0.  1.
         13    1    1    2    0    0  0.57367198393E+02 -0.33487859172E+03  0.67106950210E+02  0.34632069036E+03  0.10566000000E+00 0. -1.
          2    1    1    2  501    0  0.37046192541E+02  0.10530841769E+02 -0.98016348163E+03  0.98091985898E+03  0.00000000000E+00 0.  1.
          4    1    3    3  502    0  0.45126249589E+03  0.18443867292E+03  0.14685835998E+03  0.50913931508E+03  0.00000000000E+00 0.  1.
</event>
<event>
 7    1  0.4894942E-006  0.1006297E+04  0.7818608E-02  0.9353676E-01
          1   -1    0    0  501    0  0.00000000000E+00  0.00000000000E+00  0.26254391648E+03  0.26254391648E+03  0.00000000000E+00 0.  1.
         -4   -1    0    0    0  501 -0.00000000000E+00 -0.00000000000E+00 -0.24196820844E+04  0.24196820844E+04  0.00000000000E+00 0. -1.
   -9000010    2    1    2    0  502 -0.10623402671E+03  0.30151597698E+02 -0.21620602231E+04  0.23853513648E+04  0.10015996893E+04 0.  0.
        -13    1    1    2    0    0  0.93348075536E+02 -0.19141607205E+02 -0.12983775739E+03  0.16105315502E+03  0.10566000000E+00 0.  1.
         13    1    3    3    0    0  0.29754049240E+03 -0.15935853504E+02 -0.15176676720E+03  0.33439117637E+03  0.10566000000E+00 0. -1.
          1    1    1    2  502    0  0.12885951176E+02 -0.11009990493E+02  0.13475981262E+03  0.13582148109E+03  0.00000000000E+00 0.  1.
         -4    1    3    3    0  502 -0.40377451911E+03  0.46087451202E+02 -0.20102934559E+04  0.20509601884E+04  0.00000000000E+00 0. -1.
</event>
<event>
 7    1  0.4894942E-006  0.1039744E+04  0.7818608E-02  0.9254530E-01
          1   -1    0    0  501    0  0.00000000000E+00  0.00000000000E+00  0.16356994477E+04  0.16356994477E+04  0.00000000000E+00 0. -1.
         -4   -1    0    0    0  501 -0.00000000000E+00 -0.00000000000E+00 -0.63258246442E+03  0.63258246442E+03  0.00000000000E+00 0. -1.
   -9000010    2    1    2    0  502  0.58802932935E+01 -0.23414569664E+03  0.35265135673E+03  0.10883644867E+04  0.10026542233E+04 0.  0.
        -13    1    1    2    0    0 -0.12697895573E+03 -0.17313946577E+02 -0.22615361528E+03  0.25994017929E+03  0.10566000000E+00 0.  1.
         13    1    3    3    0    0  0.36829884862E+03  0.22380110173E+03  0.59953847750E+02  0.43511544452E+03  0.10566000000E+00 0. -1.
          1    1    1    2  502    0  0.12109866243E+03  0.25145964322E+03  0.87661924180E+03  0.91997724608E+03  0.00000000000E+00 0. -1.
         -4    1    3    3    0  502 -0.36241855533E+03 -0.45794679837E+03  0.29269750898E+03  0.65324904221E+03  0.00000000000E+00 0. -1.
</event>
<event>
 7    1  0.4894942E-006  0.1038202E+04  0.7818608E-02  0.9205602E-01
         -4   -1    0    0    0  501 -0.00000000000E+00  0.00000000000E+00  0.21483762484E+04  0.21483762484E+04  0.00000000000E+00 0. -1.
          1   -1    0    0  501    0  0.00000000000E+00 -0.00000000000E+00 -0.48367323854E+03  0.48367323854E+03  0.00000000000E+00 0.  1.
   -9000010    2    1    2    0  502 -0.14946436153E+02  0.12140290216E+03  0.10467717119E+04  0.14711925554E+04  0.10265059462E+04 0.  0.
        -13    1    1    2    0    0 -0.13032598052E+03 -0.90590721513E+02  0.86127564600E+03  0.87577810521E+03  0.10566000000E+00 0.  1.
         13    1    3    3    0    0  0.23011419251E+03  0.51099971737E+03  0.45733782146E+03  0.72334718279E+03  0.10566000000E+00 0. -1.
          1    1    1    2  502    0  0.14527241667E+03 -0.30812180643E+02 -0.24334434801E+03  0.28507882634E+03  0.00000000000E+00 0.  1.
         -4    1    3    3    0  502 -0.24506062867E+03 -0.38959681521E+03  0.58943389044E+03  0.74784537262E+03  0.00000000000E+00 0. -1.
</event>
<event>
 7    1  0.4894942E-006  0.1026631E+04  0.7818608E-02  0.9103557E-01
          2   -1    0    0  502    0  0.00000000000E+00  0.00000000000E+00  0.19994110507E+04  0.19994110507E+04  0.00000000000E+00 0.  1.
          4   -1    0    0  501    0 -0.00000000000E+00 -0.00000000000E+00 -0.29189325307E+03  0.29189325307E+03  0.00000000000E+00 0.  1.
    9000010    2    1    2  502    0  0.14984353364E+03  0.11867571243E+03  0.14501495556E+04  0.17708883540E+04  0.99828594057E+03 0.  0.
        -13    1    3    3    0    0  0.58819027737E+02 -0.36745968141E+03  0.11097525780E+04  0.11704858355E+04  0.10566000000E+00 0.  1.
         13    1    1    2    0    0 -0.21096801622E+03 -0.12097108995E+03 -0.12686131608E+02  0.24352095921E+03  0.10566000000E+00 0. -1.
          2    1    1    2  501    0  0.61124482585E+02  0.22953775172E+01  0.27005437358E+03  0.27689499060E+03  0.00000000000E+00 0.  1.
          4    1    3    3  502    0  0.91024505903E+02  0.48613539384E+03  0.34039697766E+03  0.60040251850E+03  0.00000000000E+00 0.  1.
</event>
<event>
 7    1  0.4894942E-006  0.1030591E+04  0.7818608E-02  0.9033150E-01
          1   -1    0    0  501    0  0.00000000000E+00  0.00000000000E+00  0.47608577605E+03  0.47608577605E+03  0.00000000000E+00 0.  1.
         -4   -1    0    0    0  501 -0.00000000000E+00 -0.00000000000E+00 -0.17229940184E+04  0.17229940184E+04  0.00000000000E+00 0. -1.
   -9000010    2    1    2    0  502  0.30513954297E+03 -0.65270690826E+02 -0.12511311320E+04  0.16206514776E+04  0.98173911940E+03 0.  0.
        -13    1    1    2    0    0 -0.29994832622E+03  0.95238192365E+02 -0.19939232798E+03  0.37255418842E+03  0.10566000000E+00 0.  1.
         13    1    3    3    0    0 -0.11656077051E+03  0.29560051700E+03 -0.92235204302E+03  0.97555080918E+03  0.10566000000E+00 0. -1.
          1    1    1    2  502    0 -0.51912167475E+01 -0.29967501539E+02  0.20361521768E+03  0.20587412841E+03  0.00000000000E+00 0.  1.
         -4    1    3    3    0  502  0.42170031348E+03 -0.36087120783E+03 -0.32877908902E+03  0.64510066843E+03  0.00000000000E+00 0. -1.
</event>
<event>
 7    1  0.4894942E-006  0.1089053E+04  0.7818608E-02  0.8906413E-01
         -4   -1    0    0    0  501 -0.00000000000E+00  0.00000000000E+00  0.26989072504E+04  0.26989072504E+04  0.00000000000E+00 0. -1.
          2   -1    0    0  501    0  0.00000000000E+00 -0.00000000000E+00 -0.56492027090E+03  0.56492027090E+03  0.00000000000E+00 0. -1.
   -9000010    2    1    2    0  502 -0.21819264862E+03  0.38557643090E+03  0.20190717834E+04  0.22936133346E+04  0.99384809999E+03 0.  0.
        -13    1    1    2    0    0  0.22937219303E+03 -0.38353898179E+03  0.45042916102E+03  0.63450783585E+03  0.10566000000E+00 0.  1.
         13    1    3    3    0    0 -0.29999952591E+03  0.69954412617E+03  0.14851316603E+04  0.16688252633E+04  0.10566000000E+00 0. -1.
          2    1    1    2  502    0 -0.11179544415E+02 -0.20374491107E+01 -0.33551396490E+03  0.33570635094E+03  0.00000000000E+00 0. -1.
         -4    1    3    3    0  502  0.81806877294E+02 -0.31396769526E+03  0.53394012315E+03  0.62478807123E+03  0.00000000000E+00 0. -1.
</event>
<event>
 7    1  0.4894942E-006  0.1048898E+04  0.7818608E-02  0.9029363E-01
         -4   -1    0    0    0  501 -0.00000000000E+00  0.00000000000E+00  0.39148575197E+03  0.39148575197E+03  0.00000000000E+00 0. -1.
          4   -1    0    0  501    0  0.00000000000E+00 -0.00000000000E+00 -0.15988787292E+04  0.15988787292E+04  0.00000000000E+00 0.  1.
   -9000010    2    1    2    0  502  0.24567189114E+03 -0.49136168438E+02 -0.68607025563E+03  0.12419610951E+04  0.10044928695E+04 0.  0.
        -13    1    1    2    0    0 -0.31538929442E+03 -0.24373906677E+02 -0.12632661663E+03  0.34062137278E+03  0.10566000000E+00 0.  1.
         13    1    3    3    0    0 -0.12842452145E+03 -0.22903300695E+03  0.15437052805E+03  0.30459685992E+03  0.10566000000E+00 0. -1.
          4    1    1    2  502    0  0.69717403273E+02  0.73510075115E+02 -0.39499610495E+03  0.40778201332E+03  0.00000000000E+00 0.  1.
         -4    1    3    3    0  502  0.37409641259E+03  0.17989683851E+03 -0.84044078368E+03  0.93736423513E+03  0.00000000000E+00 0. -1.
</event>
<event>
 7    1  0.4894942E-006  0.1261137E+04  0.7818608E-02  0.8844441E-01
         -4   -1    0    0    0  501 -0.00000000000E+00  0.00000000000E+00  0.16574802037E+04  0.16574802037E+04  0.00000000000E+00 0. -1.
          2   -1    0    0  501    0  0.00000000000E+00 -0.00000000000E+00 -0.12533774693E+04  0.12533774693E+04  0.00000000000E+00 0. -1.
   -9000010    2    1    2    0  502 -0.71839149731E+03  0.20357605222E+03 -0.53542629362E+03  0.13592302961E+04  0.10016467089E+04 0.  0.
        -13    1    1    2    0    0  0.68702830236E+02  0.36474506602E+03  0.26242551338E+03  0.45456155063E+03  0.10566000000E+00 0.  1.
         13    1    3    3    0    0 -0.70822840365E+03  0.54981518583E+03 -0.44643640094E+03  0.10015935710E+04  0.10566000000E+00 0. -1.
          2    1    1    2  502    0  0.64968866708E+03 -0.56832111824E+03  0.67710351464E+03  0.10970658262E+04  0.00000000000E+00 0. -1.
         -4    1    3    3    0  502 -0.10163093666E+02 -0.34623913361E+03 -0.88989892682E+02  0.35763672506E+03  0.00000000000E+00 0. -1.
</event>
<event>
 7    1  0.4894942E-006  0.1007068E+04  0.7818608E-02  0.9319851E-01
         -4   -1    0    0    0  501 -0.00000000000E+00  0.00000000000E+00  0.95117371455E+03  0.95117371455E+03  0.00000000000E+00 0. -1.
          1   -1    0    0  501    0  0.00000000000E+00 -0.00000000000E+00 -0.97769036807E+03  0.97769036807E+03  0.00000000000E+00 0. -1.
   -9000010    2    1    2    0  502 -0.12333282908E+03 -0.20675198668E+02  0.66824143567E+03  0.12100680219E+04  0.10010392354E+04 0.  0.
        -13    1    1    2    0    0  0.96385636416E+02  0.20433459658E+02 -0.19657938365E+03  0.21988902297E+03  0.10566000000E+00 0.  1.
         13    1    3    3    0    0 -0.51593600812E+03 -0.10788302669E+02  0.63163159969E+03  0.81563768969E+03  0.10566000000E+00 0. -1.
          1    1    1    2  502    0  0.26947192665E+02  0.24173901007E+00 -0.49817870554E+03  0.49890703772E+03  0.00000000000E+00 0. -1.
         -4    1    3    3    0  502  0.39260317904E+03 -0.98868959983E+01  0.36609835986E+02  0.39443033225E+03  0.00000000000E+00 0. -1.
</event>
<event>
 6    1  0.4894942E-006  0.4705524E+03  0.7818608E-02  0.9927695E-01
         -4   -1    0    0    0  501 -0.00000000000E+00  0.00000000000E+00  0.61783398792E+03  0.61783398792E+03  0.00000000000E+00 0. -1.
          2   -1    0    0  501    0  0.00000000000E+00 -0.00000000000E+00 -0.42880298080E+03  0.42880298080E+03  0.00000000000E+00 0.  1.
        -13    1    1    2    0    0  0.12247313681E+03  0.22961167241E+02  0.10471177067E+03  0.16276194433E+03  0.10566000000E+00 0.  1.
         13    1    1    2    0    0 -0.24348478730E+03  0.11274987056E+03  0.32404563968E+03  0.42071720040E+03  0.10566000000E+00 0. -1.
          2    1    1    2  502    0  0.45318872243E+01 -0.89546835247E+01 -0.28498406744E+03  0.28516073196E+03  0.00000000000E+00 0.  1.
         -4    1    1    2    0  502  0.11647976327E+03 -0.12675635428E+03  0.45257664211E+02  0.17799709203E+03  0.00000000000E+00 0. -1.
</event>
<event>
 7    1  0.4894942E-006  0.1082628E+04  0.7818608E-02  0.9052048E-01
          4   -1    0    0  501    0 -0.00000000000E+00  0.00000000000E+00  0.42332770591E+03  0.42332770591E+03  0.00000000000E+00 0.  1.
          2   -1    0    0  502    0  0.00000000000E+00 -0.00000000000E+00 -0.14293039693E+04  0.14293039693E+04  0.00000000000E+00 0.  1.
    9000010    2    1    2  502    0 -0.94222372159E+02 -0.23633417127E+03 -0.37401565872E+03  0.11462258628E+04  0.10531924419E+04 0.  0.
        -13    1    3    3    0    0 -0.49463658670E+03 -0.10612006838E+03  0.96293216235E+02  0.51497496684E+03  0.10566000000E+00 0.  1.
         13    1    1    2    0    0  0.10119476851E+03  0.22727521614E+03 -0.38006428687E+03  0.45425023761E+03  0.10566000000E+00 0. -1.
          2    1    1    2  501    0 -0.69723963466E+01  0.90589551290E+01 -0.25189631779E+03  0.25215557478E+03  0.00000000000E+00 0.  1.
          4    1    3    3  502    0  0.40041421454E+03 -0.13021410289E+03 -0.47030887496E+03  0.63125089597E+03  0.00000000000E+00 0.  1.
</event>
<event>
 6    1  0.4894942E-006  0.5116394E+03  0.7818608E-02  0.1010130E+00
          4   -1    0    0  501    0 -0.00000000000E+00  0.00000000000E+00  0.20630455409E+03  0.20630455409E+03  0.00000000000E+00 0.  1.
          2   -1    0    0  502    0  0.00000000000E+00 -0.00000000000E+00 -0.19202037234E+04  0.19202037234E+04  0.00000000000E+00 0.  1.
        -13    1    1    2    0    0  0.25660598353E+03  0.58801590637E+01 -0.42252445847E+03  0.49437651261E+03  0.10566000000E+00 0.  1.
         13    1    1    2    0    0 -0.47025885495E+02  0.28350649515E+02  0.83688946881E+02  0.10009517585E+03  0.10566000000E+00 0. -1.
          2    1    1    2  501    0 -0.20237458598E+02  0.89725025159E+01 -0.13331783498E+04  0.13333621312E+04  0.00000000000E+00 0.  1.
          4    1    1    2  502    0 -0.18934263944E+03 -0.43203311094E+02 -0.41885308013E+02  0.19867445791E+03  0.00000000000E+00 0.  1.
</event>
<event>
 7    1  0.4894942E-006  0.1006190E+04  0.7818608E-02  0.9278978E-01
         -4   -1    0    0    0  501 -0.00000000000E+00  0.00000000000E+00  0.25075441288E+04  0.25075441288E+04  0.00000000000E+00 0. -1.
          4   -1    0    0  501    0  0.00000000000E+00 -0.00000000000E+00 -0.96490303500E+03  0.96490303500E+03  0.00000000000E+00 0.  1.
   -9000010    2    1    2    0  502 -0.71280275623E+02 -0.83997488897E+02  0.17013050285E+04  0.19754497706E+04  0.99791108829E+03 0.  0.
        -13    1    1    2    0    0  0.78574232181E+02  0.10314847569E+03  0.66275621630E+03  0.67532165033E+03  0.10566000000E+00 0.  1.
         13    1    3    3    0    0 -0.43738644933E+03 -0.17703834229E+02  0.31295098777E+03  0.53810655423E+03  0.10566000000E+00 0. -1.
          4    1    1    2  502    0 -0.72939565578E+01 -0.19150986791E+02 -0.82142015098E+03  0.82167574294E+03  0.00000000000E+00 0.  1.
         -4    1    3    3    0  502  0.36610617370E+03 -0.66293654668E+02  0.13883540407E+04  0.14373432163E+04  0.00000000000E+00 0. -1.
</event>
<event>
 7    1  0.4894942E-006  0.1178334E+04  0.7818608E-02  0.8770538E-01
          2   -1    0    0  501    0  0.00000000000E+00  0.00000000000E+00  0.18746293983E+04  0.18746293983E+04  0.00000000000E+00 0.  1.
         -4   -1    0    0    0  501 -0.00000000000E+00 -0.00000000000E+00 -0.12241532719E+04  0.12241532719E+04  0.00000000000E+00 0. -1.
   -9000010    2    1    2    0  502 -0.52566926683E+03  0.64613718370E+03  0.13209799588E+03  0.13088285716E+04  0.10008800683E+04 0.  0.
        -13    1    1    2    0    0  0.54917351213E+03 -0.22738155419E+03 -0.44284079603E+03  0.74121649968E+03  0.10566000000E+00 0.  1.
         13    1    3    3    0    0 -0.62588303952E+03  0.31681109773E+03 -0.29437630761E+03  0.76076032524E+03  0.10566000000E+00 0. -1.
          2    1    1    2  502    0 -0.23504245306E+02 -0.41875562951E+03  0.96121892648E+03  0.10487375989E+04  0.00000000000E+00 0.  1.
         -4    1    3    3    0  502  0.10021377270E+03  0.32932608597E+03  0.42647430349E+03  0.54806824636E+03  0.00000000000E+00 0. -1.
</event>
<event>
 7    1  0.5615958E-006  0.1702312E+04  0.7818608E-02  0.8346405E-01
         -4   -1    0    0    0  501 -0.00000000000E+00  0.00000000000E+00  0.14058666005E+04  0.14058666005E+04  0.00000000000E+00 0. -1.
          4   -1    0    0  501    0  0.00000000000E+00 -0.00000000000E+00 -0.22575579213E+04  0.22575579213E+04  0.00000000000E+00 0.  1.
   -9000010    2    1    2    0  502 -0.19290572165E+03 -0.14437596574E+04 -0.26658956876E+03  0.17866387787E+04  0.99967672853E+03 0.  0.
        -13    1    1    2    0    0  0.32459520170E+03  0.12873110487E+04 -0.77872626312E+02  0.13298856861E+04  0.10566000000E+00 0.  1.
         13    1    3    3    0    0 -0.43619120444E+03 -0.14583318503E+04 -0.24765668468E+03  0.15421829973E+04  0.10566000000E+00 0. -1.
          4    1    1    2  502    0 -0.13168948006E+03  0.15644860866E+03 -0.50722912578E+03  0.54690005700E+03  0.00000000000E+00 0.  1.
         -4    1    3    3    0  502  0.24328548279E+03  0.14572192964E+02 -0.18932884083E+02  0.24445578137E+03  0.00000000000E+00 0. -1.
</event>
<event>
 7    1  0.4894942E-006  0.1053771E+04  0.7818608E-02  0.8974832E-01
          1   -1    0    0  501    0  0.00000000000E+00  0.00000000000E+00  0.31676940485E+04  0.31676940485E+04  0.00000000000E+00 0. -1.
         -4   -1    0    0    0  501 -0.00000000000E+00 -0.00000000000E+00 -0.60769587654E+03  0.60769587654E+03  0.00000000000E+00 0. -1.
   -9000010    2    1    2    0  502  0.40332087197E+01 -0.34535903951E+03  0.61918626821E+03  0.12146056392E+04  0.98619779508E+03 0.  0.
        -13    1    1    2    0    0 -0.68732628181E+01  0.37441028927E+03 -0.19675617523E+03  0.42301691468E+03  0.10566000000E+00 0.  1.
         13    1    3    3    0    0 -0.28363008406E+03 -0.59555056818E+03  0.44320982270E+03  0.79470841316E+03  0.10566000000E+00 0. -1.
          1    1    1    2  502    0  0.28400540984E+01 -0.29051249764E+02  0.21375680790E+04  0.21377673712E+04  0.00000000000E+00 0. -1.
         -4    1    3    3    0  502  0.28766329278E+03  0.25019152868E+03  0.17597644550E+03  0.41989722600E+03  0.00000000000E+00 0. -1.
</event>
<event>
 7    1  0.4894942E-006  0.1287407E+04  0.7818608E-02  0.8651556E-01
          2   -1    0    0  502    0  0.00000000000E+00  0.00000000000E+00  0.15246971790E+04  0.15246971790E+04  0.00000000000E+00 0. -1.
          4   -1    0    0  501    0 -0.00000000000E+00 -0.00000000000E+00 -0.10344034123E+04  0.10344034123E+04  0.00000000000E+00 0.  1.
    9000010    2    1    2  502    0  0.47132354494E+03  0.62419009636E+03  0.27522928405E+03  0.13074752052E+04  0.10109308053E+04 0.  0.
        -13    1    3    3    0    0  0.59142210902E+03 -0.48996207275E+02  0.10322329200E+03  0.60235852989E+03  0.10566000000E+00 0.  1.
         13    1    1    2    0    0 -0.51381282713E+03 -0.61748499539E+03 -0.20525664050E+03  0.82910894368E+03  0.10566000000E+00 0. -1.
          2    1    1    2  501    0  0.42489282198E+02 -0.67051009658E+01  0.42032112315E+03  0.42251644234E+03  0.00000000000E+00 0. -1.
          4    1    3    3  502    0 -0.12009856408E+03  0.67318630363E+03  0.17200599205E+03  0.70511667531E+03  0.00000000000E+00 0.  1.
</event>
<event>
 6    1  0.4894942E-006  0.6570300E+03  0.7818608E-02  0.9247782E-01
          4   -1    0    0  501    0 -0.00000000000E+00  0.00000000000E+00  0.13720664266E+04  0.13720664266E+04  0.00000000000E+00 0.  1.
          2   -1    0    0  502    0  0.00000000000E+00 -0.00000000000E+00 -0.46725841741E+03  0.46725841741E+03  0.00000000000E+00 0.  1.
        -13    1    1    2    0    0 -0.12261525850E+03  0.14835583193E+03  0.68676294614E+03  0.71322318375E+03  0.10566000000E+00 0.  1.
         13    1    1    2    0    0  0.44572743467E+03 -0.21769833904E+03  0.12250802081E+03  0.51095375443E+03  0.10566000000E+00 0. -1.
          2    1    1    2  501    0  0.18364063790E+02 -0.49120404209E+02 -0.16269454989E+03  0.17093732627E+03  0.00000000000E+00 0.  1.
          4    1    1    2  502    0 -0.34147623996E+03  0.11846291132E+03  0.25823159213E+03  0.44421057956E+03  0.00000000000E+00 0.  1.
</event>
<event>
 7    1  0.4894942E-006  0.1003004E+04  0.7818608E-02  0.9122865E-01
         -4   -1    0    0    0  501 -0.00000000000E+00  0.00000000000E+00  0.14034886257E+04  0.14034886257E+04  0.00000000000E+00 0. -1.
          2   -1    0    0  501    0  0.00000000000E+00 -0.00000000000E+00 -0.55625576476E+03  0.55625576476E+03  0.00000000000E+00 0. -1.
   -9000010    2    1    2    0  502 -0.85093593498E+02 -0.22412882086E+03  0.74958920516E+03  0.12524794130E+04  0.97434391027E+03 0.  0.
        -13    1    1    2    0    0  0.73732752595E+02  0.22613644178E+03  0.36717688506E+03  0.43748495425E+03  0.10566000000E+00 0.  1.
         13    1    3    3    0    0 -0.11211272341E+03 -0.22118181659E+03 -0.19006351885E+03  0.31243369072E+03  0.10566000000E+00 0. -1.
          2    1    1    2  502    0  0.11360840903E+02 -0.20076209239E+01 -0.26953322927E+03  0.26978002322E+03  0.00000000000E+00 0. -1.
         -4    1    3    3    0  502  0.27019129911E+02 -0.29470042703E+01  0.93965272401E+03  0.94004572227E+03  0.00000000000E+00 0. -1.
</event>
<event>
 7    1  0.4894942E-006  0.1063264E+04  0.7818608E-02  0.8936651E-01
         -4   -1    0    0    0  501 -0.00000000000E+00  0.00000000000E+00  0.43390890665E+03  0.43390890665E+03  0.00000000000E+00 0. -1.
          2   -1    0    0  501    0  0.00000000000E+00 -0.00000000000E+00 -0.14598583580E+04  0.14598583580E+04  0.00000000000E+00 0. -1.
   -9000010    2    1    2    0  502  0.23611163483E+03 -0.36547957869E+03 -0.49356359281E+03  0.11768522322E+04  0.97573158695E+03 0.  0.
        -13    1    1    2    0    0 -0.27215292590E+03  0.31420140562E+03 -0.48208321778E+03  0.63654848865E+03  0.10566000000E+00 0.  1.
         13    1    3    3    0    0 -0.24499891443E+03 -0.45845429130E+03 -0.44530159255E+03  0.68446937461E+03  0.10566000000E+00 0. -1.
          2    1    1    2  502    0  0.36041291071E+02  0.51278173074E+02 -0.50302640807E+02  0.80366543835E+02  0.00000000000E+00 0. -1.
         -4    1    3    3    0  502  0.48111054926E+03  0.92974712609E+02 -0.48262000263E+02  0.49238285760E+03  0.00000000000E+00 0. -1.
</event>
<event>
 7    1  0.4894942E-006  0.1071813E+04  0.7818608E-02  0.9017339E-01
          4   -1    0    0  501    0 -0.00000000000E+00  0.00000000000E+00  0.13468438977E+04  0.13468438977E+04  0.00000000000E+00 0.  1.
          2   -1    0    0  502    0  0.00000000000E+00 -0.00000000000E+00 -0.16657507550E+04  0.16657507550E+04  0.00000000000E+00 0. -1.
    9000010    2    1    2  502    0  0.28693962267E+03 -0.32298176799E+03  0.39786423634E+03  0.11855365468E+04  0.10298297839E+04 0.  0.
        -13    1    3    3    0    0  0.70675330350E+02 -0.36867226641E+03  0.70996143737E+03  0.80309370316E+03  0.10566000000E+00 0.  1.
         13    1    1    2    0    0 -0.28326717590E+03  0.65117120665E+02  0.50266607258E+03  0.58064939855E+03  0.10566000000E+00 0. -1.
          2    1    1    2  501    0 -0.36724467719E+01  0.25786464733E+03 -0.12194371663E+04  0.12464087073E+04  0.00000000000E+00 0. -1.
          4    1    3    3  502    0  0.21626429232E+03  0.45690498417E+02 -0.31209720103E+03  0.38244284366E+03  0.00000000000E+00 0.  1.
</event>
<event>
 7    1  0.4894942E-006  0.9905660E+03  0.7818608E-02  0.9347460E-01
         -4   -1    0    0    0  501 -0.00000000000E+00  0.00000000000E+00  0.52481260800E+03  0.52481260800E+03  0.00000000000E+00 0. -1.
          2   -1    0    0  501    0  0.00000000000E+00 -0.00000000000E+00 -0.20764373214E+04  0.20764373214E+04  0.00000000000E+00 0.  1.
   -9000010    2    1    2    0  502 -0.37701801990E+02  0.94226807449E+01 -0.10790750977E+04  0.14615995972E+04  0.98506857805E+03 0.  0.
        -13    1    1    2    0    0  0.98871800448E+02  0.34389777189E+02  0.32351912485E+03  0.34003371157E+03  0.10566000000E+00 0.  1.
         13    1    3    3    0    0 -0.26955280611E+02  0.49349230209E+03 -0.63446796748E+03  0.80424551743E+03  0.10566000000E+00 0. -1.
          2    1    1    2  502    0 -0.61169998457E+02 -0.43812457934E+02 -0.79606874056E+03  0.79961662057E+03  0.00000000000E+00 0.  1.
         -4    1    3    3    0  502 -0.10746521380E+02 -0.48406962135E+03 -0.44460713018E+03  0.65735407981E+03  0.00000000000E+00 0. -1.
</event>
<event>
 7    1  0.4894942E-006  0.1044933E+04  0.7818608E-02  0.9153257E-01
          2   -1    0    0  501    0  0.00000000000E+00  0.00000000000E+00  0.57257633336E+03  0.57257633336E+03  0.00000000000E+00 0. -1.
         -4   -1    0    0    0  501 -0.00000000000E+00 -0.00000000000E+00 -0.28456822103E+04  0.28456822103E+04  0.00000000000E+00 0. -1.
   -9000010    2    1    2    0  502  0.12991192028E+03  0.12081030045E+03 -0.17421028747E+04  0.20144503765E+04  0.99579900453E+03 0.  0.
        -13    1    1    2    0    0 -0.28546581166E+02  0.18465724723E+03 -0.89710047928E+03  0.91635281815E+03  0.10566000000E+00 0.  1.
         13    1    3    3    0    0 -0.23385550155E+03 -0.34573859721E+03 -0.65205366549E+03  0.77420770278E+03  0.10566000000E+00 0. -1.
          2    1    1    2  502    0 -0.10136533911E+03 -0.30546754768E+03  0.36609747702E+03  0.48745534908E+03  0.00000000000E+00 0. -1.
         -4    1    3    3    0  502  0.36376742183E+03  0.46654889765E+03 -0.10900492092E+04  0.12402426737E+04  0.00000000000E+00 0. -1.
</event>
<event>
 7    1  0.4894942E-006  0.1038971E+04  0.7818608E-02  0.9026246E-01
         -4   -1    0    0    0  501 -0.00000000000E+00  0.00000000000E+00  0.61424162387E+03  0.61424162387E+03  0.00000000000E+00 0. -1.
          2   -1    0    0  501    0  0.00000000000E+00 -0.00000000000E+00 -0.78659810944E+03  0.78659810944E+03  0.00000000000E+00 0.  1.
   -9000010    2    1    2    0  502 -0.32318161863E+03  0.58924536142E+02 -0.67785094245E+02  0.10454608072E+04  0.99018938638E+03 0.  0.
        -13    1    1    2    0    0  0.30469475518E+03 -0.55729998169E+02 -0.72339264959E+02  0.31808443368E+03  0.10566000000E+00 0.  1.
         13    1    3    3    0    0 -0.72651624211E+02 -0.25685573836E+03  0.36619596789E+03  0.45315850085E+03  0.10566000000E+00 0. -1.
          2    1    1    2  502    0  0.18486863449E+02 -0.31945379723E+01 -0.32232126364E+02  0.37294492395E+02  0.00000000000E+00 0.  1.
         -4    1    3    3    0  502 -0.25052999441E+03  0.31578027450E+03 -0.43398106213E+03  0.59230230639E+03  0.00000000000E+00 0. -1.
</event>
<event>
 7    1  0.4894942E-006  0.1066833E+04  0.7818608E-02  0.8980454E-01
          2   -1    0    0  501    0  0.00000000000E+00  0.00000000000E+00  0.30352042272E+04  0.30352042272E+04  0.00000000000E+00 0. -1.
         -4   -1    0    0    0  501 -0.00000000000E+00 -0.00000000000E+00 -0.24009124752E+03  0.24009124752E+03  0.00000000000E+00 0. -1.
   -9000010    2    1    2    0  502 -0.24557663963E+03 -0.26041335476E+03  0.14236360099E+04  0.17806442412E+04  0.10078846282E+04 0.  0.
        -13    1    1    2    0    0  0.31810465688E+03  0.15297887034E+03  0.49114789338E+03  0.60483003549E+03  0.10566000000E+00 0.  1.
         13    1    3    3    0    0  0.34262009745E+03 -0.78752181680E+02  0.92127960511E+03  0.98607634555E+03  0.10566000000E+00 0. -1.
          2    1    1    2  502    0 -0.72528017246E+02  0.10743448443E+03  0.88032907643E+03  0.88982119807E+03  0.00000000000E+00 0. -1.
         -4    1    3    3    0  502 -0.58819673708E+03 -0.18166117308E+03  0.50235640477E+03  0.79456789561E+03  0.00000000000E+00 0. -1.
</event>
<event>
 7    1  0.4894942E-006  0.1038072E+04  0.7818608E-02  0.9047157E-01
          2   -1    0    0  502    0  0.00000000000E+00  0.00000000000E+00  0.18888023244E+04  0.18888023244E+04  0.00000000000E+00 0. -1.
          4   -1    0    0  501    0 -0.00000000000E+00 -0.00000000000E+00 -0.90729373449E+03  0.90729373449E+03  0.00000000000E+00 0.  1.
    9000010    2    1    2  502    0  0.31997951942E+03  0.55353216492E+02 -0.18953022055E+03  0.10652859818E+04  0.99672546225E+03 0.  0.
        -13    1    3    3    0    0  0.36906764418E+03 -0.15602934677E+03 -0.52824192921E+03  0.66302008263E+03  0.10566000000E+00 0.  1.
         13    1    1    2    0    0 -0.27931891557E+03 -0.53170545890E+02 -0.20729372467E+03  0.35187620408E+03  0.10566000000E+00 0. -1.
          2    1    1    2  501    0 -0.40660603854E+02 -0.21826706024E+01  0.13783325351E+04  0.13789338730E+04  0.00000000000E+00 0. -1.
          4    1    3    3  502    0 -0.49088124762E+02  0.21138256326E+03  0.33871170866E+03  0.40226589916E+03  0.00000000000E+00 0.  1.
</event>
<event>
 7    1  0.4894942E-006  0.1341189E+04  0.7818608E-02  0.8596158E-01
          2   -1    0    0  501    0  0.00000000000E+00  0.00000000000E+00  0.10763957540E+04  0.10763957540E+04  0.00000000000E+00 0.  1.
         -4   -1    0    0    0  501 -0.00000000000E+00 -0.00000000000E+00 -0.18303948770E+04  0.18303948770E+04  0.00000000000E+00 0. -1.
   -9000010    2    1    2    0  502  0.51350579427E+03  0.96728688116E+03  0.31454068836E+02  0.14795157643E+04  0.99430650557E+03 0.  0.
        -13    1    1    2    0    0 -0.47610724471E+03 -0.70801401149E+03 -0.79354540918E+03  0.11651936648E+04  0.10566000000E+00 0.  1.
         13    1    3    3    0    0  0.77098747746E+03  0.94584449041E+03  0.10700381736E+02  0.12203106161E+04  0.10566000000E+00 0. -1.
          2    1    1    2  502    0 -0.37398549555E+02 -0.25927286967E+03  0.80922173669E+01  0.26208120200E+03  0.00000000000E+00 0.  1.
         -4    1    3    3    0  502 -0.25748168319E+03  0.21442390750E+02  0.20753687101E+02  0.25920514815E+03  0.00000000000E+00 0. -1.
</event>
<event>
 7    1  0.4894942E-006  0.9933119E+03  0.7818608E-02  0.9439618E-01
          4   -1    0    0  501    0 -0.00000000000E+00  0.00000000000E+00  0.26709402208E+03  0.26709402208E+03  0.00000000000E+00 0.  1.
          2   -1    0    0  502    0  0.00000000000E+00 -0.00000000000E+00 -0.20785044166E+04  0.20785044166E+04  0.00000000000E+00 0.  1.
    9000010    2    1    2  502    0  0.51773833616E+02  0.76387039152E+01 -0.11910961021E+04  0.15500743990E+04  0.99059670821E+03 0.  0.
        -13    1    3    3    0    0 -0.20837813901E+03  0.41395631802E+03 -0.35125815217E+03  0.58151834251E+03  0.10566000000E+00 0.  1.
         13    1    1    2    0    0 -0.68504666190E+02 -0.27041100768E+02  0.71846954966E+02  0.10288880659E+03  0.10566000000E+00 0. -1.
          2    1    1    2  501    0  0.16730832574E+02  0.19402396852E+02 -0.69216124735E+03  0.69263523308E+03  0.00000000000E+00 0.  1.
          4    1    3    3  502    0  0.26015197262E+03 -0.40631761411E+03 -0.83983794996E+03  0.96855605650E+03  0.00000000000E+00 0.  1.
</event>
<event>
 7    1  0.4894942E-006  0.1476776E+04  0.7818608E-02  0.8489695E-01
          2   -1    0    0  501    0  0.00000000000E+00  0.00000000000E+00  0.13296733290E+04  0.13296733290E+04  0.00000000000E+00 0.  1.
         -4   -1    0    0    0  501 -0.00000000000E+00 -0.00000000000E+00 -0.16883718237E+04  0.16883718237E+04  0.00000000000E+00 0. -1.
   -9000010    2    1    2    0  502 -0.10373708789E+04  0.21711536385E+03  0.35467609226E+01  0.14563240441E+04  0.99879413310E+03 0.  0.
        -13    1    1    2    0    0  0.10783330353E+04 -0.21647601061E+03 -0.64566113581E+03  0.12753596794E+04  0.10566000000E+00 0.  1.
         13    1    3    3    0    0 -0.52403064787E+02 -0.25565108616E+03 -0.21977564320E+03  0.34118162841E+03  0.10566000000E+00 0. -1.
          2    1    1    2  502    0 -0.40962156402E+02 -0.63935323568E+00  0.28341588014E+03  0.28636142922E+03  0.00000000000E+00 0.  1.
         -4    1    3    3    0  502 -0.98496781415E+03  0.47276645001E+03  0.22332240412E+03  0.11151424157E+04  0.00000000000E+00 0. -1.
</event>
<event>
 7    1  0.4894942E-006  0.1233755E+04  0.7818608E-02  0.8744532E-01
         -4   -1    0    0    0  501 -0.00000000000E+00  0.00000000000E+00  0.13795139037E+04  0.13795139037E+04  0.00000000000E+00 0. -1.
          4   -1    0    0  501    0  0.00000000000E+00 -0.00000000000E+00 -0.64123362636E+03  0.64123362636E+03  0.00000000000E+00 0.  1.
   -9000010    2    1    2    0  502 -0.57328826833E+03  0.15705210876E+03  0.53294863816E+03  0.13390091667E+04  0.10749820902E+04 0.  0.
        -13    1    1    2    0    0  0.59377556421E+03 -0.14804077087E+03  0.16210146906E+03  0.63305796570E+03  0.10566000000E+00 0.  1.
         13    1    3    3    0    0 -0.33206434155E+03 -0.44049531463E+03  0.94700896763E+02  0.55970628025E+03  0.10566000000E+00 0. -1.
          4    1    1    2  502    0 -0.20487295883E+02 -0.90113378887E+01  0.43230170108E+02  0.48680397602E+02  0.00000000000E+00 0. -1.
         -4    1    3    3    0  502 -0.24122392678E+03  0.59754742339E+03  0.43824774139E+03  0.77930288649E+03  0.00000000000E+00 0.  1.
</event>
<event>
 7    1  0.4894942E-006  0.1024020E+04  0.7818608E-02  0.9087241E-01
         -4   -1    0    0    0  501 -0.00000000000E+00  0.00000000000E+00  0.10071633172E+04  0.10071633172E+04  0.00000000000E+00 0. -1.
          2   -1    0    0  501    0  0.00000000000E+00 -0.00000000000E+00 -0.21577113126E+04  0.21577113126E+04  0.00000000000E+00 0. -1.
   -9000010    2    1    2    0  502  0.65279721750E+02 -0.26192822964E+03  0.25879936074E+03  0.10593097244E+04  0.99110652483E+03 0.  0.
        -13    1    1    2    0    0  0.73920150916E+02  0.24938017798E+03  0.29626077961E+03  0.39423993022E+03  0.10566000000E+00 0.  1.
         13    1    3    3    0    0  0.33264352778E+02  0.20651502209E+03 -0.27685790726E+03  0.34699464476E+03  0.10566000000E+00 0. -1.
          2    1    1    2  502    0 -0.13919987267E+03  0.12548051654E+02 -0.17056081357E+04  0.17113249752E+04  0.00000000000E+00 0. -1.
         -4    1    3    3    0  502  0.32015368972E+02 -0.46844325172E+03  0.53565726800E+03  0.71231507965E+03  0.00000000000E+00 0. -1.
</event>
<event>
 7    1  0.4894942E-006  0.1005756E+04  0.7818608E-02  0.9241101E-01
          4   -1    0    0  501    0 -0.00000000000E+00  0.00000000000E+00  0.17500263650E+04  0.17500263650E+04  0.00000000000E+00 0.  1.
          2   -1    0    0  502    0  0.00000000000E+00 -0.00000000000E+00 -0.14791802241E+04  0.14791802241E+04  0.00000000000E+00 0.  1.
    9000010    2    1    2  502    0 -0.13141170566E+03  0.16082017553E+03  0.77720952384E+03  0.12792614790E+04  0.99464723517E+03 0.  0.
        -13    1    3    3    0    0  0.28986150578E+03 -0.16679255645E+03 -0.24694322225E+01  0.33443319016E+03  0.10566000000E+00 0.  1.
         13    1    1    2    0    0  0.11168478129E+03 -0.96197428464E+02  0.71332054024E+03  0.72839113113E+03  0.10566000000E+00 0. -1.
          2    1    1    2  501    0  0.19726924365E+02 -0.64622747065E+02 -0.12196839232E+04  0.12215539790E+04  0.00000000000E+00 0.  1.
          4    1    3    3  502    0 -0.42127321144E+03  0.32761273198E+03  0.77967895606E+03  0.94482828882E+03  0.00000000000E+00 0.  1.
</event>
<event>
 7    1  0.4894942E-006  0.1092260E+04  0.7818608E-02  0.8951657E-01
         -4   -1    0    0    0  501 -0.00000000000E+00  0.00000000000E+00  0.23125619529E+04  0.23125619529E+04  0.00000000000E+00 0. -1.
          2   -1    0    0  501    0  0.00000000000E+00 -0.00000000000E+00 -0.39463348543E+03  0.39463348543E+03  0.00000000000E+00 0. -1.
   -9000010    2    1    2    0  502  0.27385995942E+03  0.24848202106E+03  0.89860171009E+03  0.14152613111E+04  0.10289494415E+04 0.  0.
        -13    1    1    2    0    0 -0.25788652892E+03 -0.25990845827E+03  0.11257079926E+04  0.11837551961E+04  0.10566000000E+00 0.  1.
         13    1    3    3    0    0 -0.27562293728E+03 -0.41319951408E+02  0.71511913826E+03  0.76750943643E+03  0.10566000000E+00 0. -1.
          2    1    1    2  502    0 -0.15973430496E+02  0.11426437215E+02 -0.10638123518E+03  0.10817893116E+03  0.00000000000E+00 0. -1.
         -4    1    3    3    0  502  0.54948289670E+03  0.28980197247E+03  0.18348257183E+03  0.64775187470E+03  0.00000000000E+00 0. -1.
</event>
<event>
 7    1  0.4894942E-006  0.1251837E+04  0.7818608E-02  0.8685765E-01
          2   -1    0    0  501    0  0.00000000000E+00  0.00000000000E+00  0.17693207500E+04  0.17693207500E+04  0.00000000000E+00 0.  1.
         -4   -1    0    0    0  501 -0.00000000000E+00 -0.00000000000E+00 -0.18826562745E+04  0.18826562745E+04  0.00000000000E+00 0. -1.
   -9000010    2    1    2    0  502  0.50579160745E+03 -0.18364421098E+03 -0.52393275048E+03  0.12543394884E+04  0.10046450512E+04 0.  0.
        -13    1    1    2    0    0 -0.86290696450E+03  0.68626520902E+02 -0.77019686223E+03  0.11586721911E+04  0.10566000000E+00 0.  1.
         13    1    3    3    0    0 -0.78885171393E+02 -0.18061002989E+03  0.22829949340E+03  0.30160159650E+03  0.10566000000E+00 0. -1.
          2    1    1    2  502    0  0.35711535705E+03  0.11501769008E+03  0.11807940882E+04  0.12389653449E+04  0.00000000000E+00 0.  1.
         -4    1    3    3    0  502  0.58467677884E+03 -0.30341810902E+01 -0.75223224388E+03  0.95273789192E+03  0.00000000000E+00 0. -1.
</event>
<event>
 7    1  0.4894942E-006  0.1558668E+04  0.7818608E-02  0.8432079E-01
         -4   -1    0    0    0  501 -0.00000000000E+00  0.00000000000E+00  0.11766457073E+04  0.11766457073E+04  0.00000000000E+00 0. -1.
          1   -1    0    0  501    0  0.00000000000E+00 -0.00000000000E+00 -0.20969057285E+04  0.20969057285E+04  0.00000000000E+00 0.  1.
   -9000010    2    1    2    0  502  0.12131581007E+04  0.19386829051E+03 -0.91343735984E+03  0.18227577205E+04  0.98931309793E+03 0.  0.
        -13    1    1    2    0    0 -0.11682628241E+04 -0.25699553016E+03  0.21541940772E+03  0.12154383000E+04  0.10566000000E+00 0.  1.
         13    1    3    3    0    0  0.10442463606E+04 -0.12893920498E+03 -0.99640289524E+03  0.14491012805E+04  0.10566000000E+00 0. -1.
          1    1    1    2  502    0 -0.44895276662E+02  0.63127239651E+02 -0.22224206912E+03  0.23535541536E+03  0.00000000000E+00 0.  1.
         -4    1    3    3    0  502  0.16891174013E+03  0.32280749549E+03  0.82965535403E+02  0.37365644001E+03  0.00000000000E+00 0. -1.
</event>
<event>
 7    1  0.4894942E-006  0.1238689E+04  0.7818608E-02  0.8698994E-01
          4   -1    0    0  501    0 -0.00000000000E+00  0.00000000000E+00  0.13280367058E+04  0.13280367058E+04  0.00000000000E+00 0.  1.
          2   -1    0    0  502    0  0.00000000000E+00 -0.00000000000E+00 -0.95845756209E+03  0.95845756209E+03  0.00000000000E+00 0. -1.
    9000010    2    1    2  502    0  0.36242119907E+03 -0.65944547692E+03  0.17400546317E+03  0.12653142094E+04  0.10022597890E+04 0.  0.
        -13    1    3    3    0    0 -0.14195992229E+03 -0.72529028613E+03  0.44312348991E+02  0.74037977696E+03  0.10566000000E+00 0.  1.
         13    1    1    2    0    0 -0.45761729166E+03  0.55781002681E+03  0.35948695579E+03  0.80609955600E+03  0.10566000000E+00 0. -1.
          2    1    1    2  501    0  0.95196092588E+02  0.10163545011E+03 -0.16391327524E+03  0.21508050251E+03  0.00000000000E+00 0. -1.
          4    1    3    3  502    0  0.50438112136E+03  0.65844809216E+02  0.12969311418E+03  0.52493443243E+03  0.00000000000E+00 0.  1.
</event>
<event>
 7    1  0.4894942E-006  0.9908844E+03  0.7818608E-02  0.9133566E-01
          2   -1    0    0  501    0  0.00000000000E+00  0.00000000000E+00  0.41763921039E+03  0.41763921039E+03  0.00000000000E+00 0. -1.
         -4   -1    0    0    0  501 -0.00000000000E+00 -0.00000000000E+00 -0.20473123903E+04  0.20473123903E+04  0.00000000000E+00 0. -1.
   -9000010    2    1    2    0  502 -0.12746575833E+03  0.20934458188E+03 -0.90736379641E+03  0.13450645993E+04  0.96219387017E+03 0.  0.
        -13    1    1    2    0    0  0.12710181471E+03 -0.19901677106E+03 -0.90581562192E+03  0.93609000557E+03  0.10566000000E+00 0.  1.
         13    1    3    3    0    0 -0.34749339086E+03 -0.10616820146E+03 -0.41718456737E+01  0.36337413110E+03  0.10566000000E+00 0. -1.
          2    1    1    2  502    0  0.36394362632E+00 -0.10327810827E+02  0.18350623841E+03  0.18379699581E+03  0.00000000000E+00 0. -1.
         -4    1    3    3    0  502  0.22002763252E+03  0.31551278334E+03 -0.90319195074E+03  0.98169046823E+03  0.00000000000E+00 0. -1.
</event>
<event>
 7    1  0.4894942E-006  0.1026778E+04  0.7818608E-02  0.8999591E-01
          2   -1    0    0  502    0  0.00000000000E+00  0.00000000000E+00  0.18391495042E+04  0.18391495042E+04  0.00000000000E+00 0.  1.
          4   -1    0    0  501    0 -0.00000000000E+00 -0.00000000000E+00 -0.19675844667E+04  0.19675844667E+04  0.00000000000E+00 0.  1.
    9000010    2    1    2  502    0  0.17942209805E+03 -0.40067828451E+03 -0.76692015662E+03  0.13051542541E+04  0.96048202654E+03 0.  0.
        -13    1    3    3    0    0 -0.38272349253E+03 -0.29697138421E+03 -0.35258791057E+03  0.59915567311E+03  0.10566000000E+00 0.  1.
         13    1    1    2    0    0 -0.24670026543E+03  0.25686404336E+03 -0.89325303383E+03  0.96163462466E+03  0.10566000000E+00 0. -1.
          2    1    1    2  501    0  0.67278167376E+02  0.14381424116E+03  0.15317382280E+04  0.15399450922E+04  0.00000000000E+00 0.  1.
          4    1    3    3  502    0  0.56214559059E+03 -0.10370690031E+03 -0.41433224605E+03  0.70599858095E+03  0.00000000000E+00 0.  1.
</event>
<event>
 7    1  0.4894942E-006  0.9534692E+03  0.7818608E-02  0.9085940E-01
         -4   -1    0    0    0  501 -0.00000000000E+00  0.00000000000E+00  0.19074039786E+04  0.19074039786E+04  0.00000000000E+00 0. -1.
          1   -1    0    0  501    0  0.00000000000E+00 -0.00000000000E+00 -0.31635610696E+03  0.31635610696E+03  0.00000000000E+00 0.  1.
   -9000010    2    1    2    0  502 -0.24603535115E+03 -0.16013986998E+03  0.15111535495E+04  0.17821402047E+04  0.89792008949E+03 0.  0.
        -13    1    1    2    0    0  0.26927656146E+03  0.21722975474E+03  0.12213036970E+03  0.36689844816E+03  0.10566000000E+00 0.  1.
         13    1    3    3    0    0 -0.18780658127E+03 -0.51963512355E+03  0.69083399093E+03  0.88461493758E+03  0.10566000000E+00 0. -1.
          1    1    1    2  502    0 -0.23241210316E+02 -0.57089884757E+02 -0.42236047512E+02  0.74721432721E+02  0.00000000000E+00 0.  1.
         -4    1    3    3    0  502 -0.58228769881E+02  0.35949525357E+03  0.82031955854E+03  0.89752526711E+03  0.00000000000E+00 0. -1.
</event>
<event>
 7    1  0.4894942E-006  0.1224957E+04  0.7818608E-02  0.8715816E-01
          2   -1    0    0  501    0  0.00000000000E+00  0.00000000000E+00  0.97783878202E+03  0.97783878202E+03  0.00000000000E+00 0. -1.
         -4   -1    0    0    0  501 -0.00000000000E+00 -0.00000000000E+00 -0.14213635762E+04  0.14213635762E+04  0.00000000000E+00 0. -1.
   -9000010    2    1    2    0  502  0.47929051083E+03 -0.47791999299E+03 -0.73664742350E+03  0.14182674152E+04  0.10053388091E+04 0.  0.
        -13    1    1    2    0    0 -0.47714846690E+03  0.54872245206E+03  0.51322140030E+02  0.72897253863E+03  0.10566000000E+00 0.  1.
         13    1    3    3    0    0  0.12281002930E+03 -0.74305407846E+03 -0.56700399325E+03  0.94271162417E+03  0.10566000000E+00 0. -1.
          2    1    1    2  502    0 -0.21420439268E+01 -0.70802459071E+02  0.24180048931E+03  0.25196240433E+03  0.00000000000E+00 0. -1.
         -4    1    3    3    0  502  0.35648048153E+03  0.26513408547E+03 -0.16964343025E+03  0.47555579107E+03  0.00000000000E+00 0. -1.
</event>
<event>
 7    1  0.4894942E-006  0.1084838E+04  0.7818608E-02  0.8941084E-01
         -4   -1    0    0    0  501 -0.00000000000E+00  0.00000000000E+00  0.23001911109E+04  0.23001911109E+04  0.00000000000E+00 0. -1.
          2   -1    0    0  501    0  0.00000000000E+00 -0.00000000000E+00 -0.12720465245E+04  0.12720465245E+04  0.00000000000E+00 0. -1.
   -9000010    2    1    2    0  502 -0.15765497300E+03 -0.33189768354E+03  0.15733980021E+04  0.19036485308E+04  0.10066207296E+04 0.  0.
        -13    1    1    2    0    0  0.39055790421E+03 -0.49840142647E+01  0.44791176187E+03  0.59429392940E+03  0.10566000000E+00 0.  1.
         13    1    3    3    0    0 -0.19667401129E+02 -0.64424445095E+03  0.63393502891E+03  0.90405273700E+03  0.10566000000E+00 0. -1.
          2    1    1    2  502    0 -0.23290293120E+03  0.33688169780E+03 -0.99316517753E+03  0.10742951752E+04  0.00000000000E+00 0. -1.
         -4    1    3    3    0  502 -0.13798757187E+03  0.31234676741E+03  0.93946297317E+03  0.99959579383E+03  0.00000000000E+00 0. -1.
</event>
<event>
 7    1  0.4894942E-006  0.1319183E+04  0.7818608E-02  0.8947690E-01
          2   -1    0    0  501    0  0.00000000000E+00  0.00000000000E+00  0.10664463954E+04  0.10664463954E+04  0.00000000000E+00 0. -1.
         -4   -1    0    0    0  501 -0.00000000000E+00 -0.00000000000E+00 -0.24107909975E+04  0.24107909975E+04  0.00000000000E+00 0. -1.
   -9000010    2    1    2    0  502  0.38392215755E+03  0.65018562688E+03 -0.15719305865E+04  0.19987805525E+04  0.97673965605E+03 0.  0.
        -13    1    1    2    0    0  0.20828630511E+03  0.36255879945E+02 -0.34612305932E+03  0.40558458684E+03  0.10566000000E+00 0.  1.
         13    1    3    3    0    0 -0.27604868139E+03  0.64646378565E+02 -0.13838185252E+03  0.31548625490E+03  0.10566000000E+00 0. -1.
          2    1    1    2  502    0 -0.59220846265E+03 -0.68644150683E+03  0.57370904371E+03  0.10728722535E+04  0.00000000000E+00 0. -1.
         -4    1    3    3    0  502  0.65997083893E+03  0.58553924832E+03 -0.14335487340E+04  0.16832942976E+04  0.00000000000E+00 0. -1.
</event>
<event>
 7    1  0.4894942E-006  0.1410368E+04  0.7818608E-02  0.8832853E-01
         -4   -1    0    0    0  501 -0.00000000000E+00  0.00000000000E+00  0.15443027400E+04  0.15443027400E+04  0.00000000000E+00 0. -1.
          2   -1    0    0  501    0  0.00000000000E+00 -0.00000000000E+00 -0.11945957029E+04  0.11945957029E+04  0.00000000000E+00 0. -1.
   -9000010    2    1    2    0  502 -0.99669550826E+03 -0.23342381885E+03  0.28408853628E+02  0.14338949415E+04  0.10036727678E+04 0.  0.
        -13    1    1    2    0    0  0.16663116954E+02  0.27809634871E+03  0.12088870295E+03  0.30369281898E+03  0.10566000000E+00 0.  1.
         13    1    3    3    0    0 -0.24688621068E+03  0.38333530959E+03 -0.55848637424E+02  0.45936678381E+03  0.10566000000E+00 0. -1.
          2    1    1    2  502    0  0.98003239131E+03 -0.44672529855E+02  0.20040948051E+03  0.10013106825E+04  0.00000000000E+00 0. -1.
         -4    1    3    3    0  502 -0.74980929758E+03 -0.61675912845E+03  0.84257491052E+02  0.97452815765E+03  0.00000000000E+00 0. -1.
</event>
<event>
 7    1  0.4894942E-006  0.9736033E+03  0.7818608E-02  0.9283476E-01
          3   -1    0    0  501    0  0.00000000000E+00  0.00000000000E+00  0.11870039728E+04  0.11870039728E+04  0.00000000000E+00 0. -1.
         -4   -1    0    0    0  501 -0.00000000000E+00 -0.00000000000E+00 -0.47767628502E+03  0.47767628502E+03  0.00000000000E+00 0. -1.
   -9000010    2    1    2    0  502 -0.76532032607E+02  0.54950163180E+01  0.32839697191E+03  0.10208336864E+04  0.96351932875E+03 0.  0.
        -13    1    1    2    0    0  0.14068695596E+03 -0.28426195669E+02 -0.89078203283E+02  0.16892544403E+03  0.10566000000E+00 0.  1.
         13    1    3    3    0    0 -0.18844500060E+03  0.77024419586E+02 -0.30884084173E+03  0.36990127893E+03  0.10566000000E+00 0. -1.
          3    1    1    2  502    0 -0.64154923352E+02  0.22931179351E+02  0.47000891917E+03  0.47492112742E+03  0.00000000000E+00 0. -1.
         -4    1    3    3    0  502  0.11191296800E+03 -0.71529403268E+02  0.63723781365E+03  0.65093240746E+03  0.00000000000E+00 0. -1.
</event>
<event>
 7    1  0.4894942E-006  0.1450899E+04  0.7818608E-02  0.8509565E-01
         -4   -1    0    0    0  501 -0.00000000000E+00  0.00000000000E+00  0.14112997618E+04  0.14112997618E+04  0.00000000000E+00 0. -1.
          1   -1    0    0  501    0  0.00000000000E+00 -0.00000000000E+00 -0.18453691160E+04  0.18453691160E+04  0.00000000000E+00 0.  1.
   -9000010    2    1    2    0  502  0.97341196600E+03 -0.41199849343E+03  0.88938952047E+02  0.14600394375E+04  0.10032603888E+04 0.  0.
        -13    1    1    2    0    0 -0.96520193888E+03  0.39429257633E+03  0.20982558593E+03  0.10635357099E+04  0.10566000000E+00 0.  1.
         13    1    3    3    0    0  0.10230486127E+04 -0.35836880127E+03 -0.25071284307E+03  0.11126156581E+04  0.10566000000E+00 0. -1.
          1    1    1    2  502    0 -0.82100271224E+01  0.17705917103E+02 -0.73283389215E+03  0.73309373038E+03  0.00000000000E+00 0.  1.
         -4    1    3    3    0  502 -0.49636646742E+02 -0.53629692161E+02  0.33965179512E+03  0.34742377942E+03  0.00000000000E+00 0. -1.
</event>
<event>
 7    1  0.4894942E-006  0.1008554E+04  0.7818608E-02  0.9203696E-01
          2   -1    0    0  502    0  0.00000000000E+00  0.00000000000E+00  0.12133174582E+04  0.12133174582E+04  0.00000000000E+00 0.  1.
          4   -1    0    0  501    0 -0.00000000000E+00 -0.00000000000E+00 -0.55524476239E+03  0.55524476239E+03  0.00000000000E+00 0.  1.
    9000010    2    1    2  502    0  0.88797818014E+02  0.13903596194E+03  0.23447846751E+03  0.10345125851E+04  0.99399199483E+03 0.  0.
        -13    1    3    3    0    0  0.33158103015E+03 -0.15307721690E+03  0.46417717899E+03  0.59062600565E+03  0.10566000000E+00 0.  1.
         13    1    1    2    0    0 -0.80549421542E+02 -0.15110417853E+03 -0.10787454959E+03  0.20237986979E+03  0.10566000000E+00 0. -1.
          2    1    1    2  501    0 -0.82483964713E+01  0.12068216596E+02  0.53146877790E+03  0.53166976572E+03  0.00000000000E+00 0.  1.
          4    1    3    3  502    0 -0.24278321214E+03  0.29211317884E+03 -0.22969871148E+03  0.44388657944E+03  0.00000000000E+00 0.  1.
</event>
<event>
 7    1  0.4894942E-006  0.1028110E+04  0.7818608E-02  0.9568821E-01
          2   -1    0    0  501    0  0.00000000000E+00  0.00000000000E+00  0.61106989923E+03  0.61106989923E+03  0.00000000000E+00 0.  1.
         -4   -1    0    0    0  501 -0.00000000000E+00 -0.00000000000E+00 -0.24016125272E+04  0.24016125272E+04  0.00000000000E+00 0. -1.
   -9000010    2    1    2    0  502 -0.17960666060E+02 -0.30943374749E+02 -0.22104516711E+04  0.24377594866E+04  0.10272753509E+04 0.  0.
        -13    1    1    2    0    0  0.29976251925E+02  0.29064826836E+02 -0.71803092782E+02  0.83060430624E+02  0.10566000000E+00 0.  1.
         13    1    3    3    0    0  0.17932813079E+02  0.41129181167E+03 -0.40099629248E+03  0.57470042446E+03  0.10566000000E+00 0. -1.
          2    1    1    2  502    0 -0.12015585865E+02  0.18785479136E+01  0.49171213595E+03  0.49186250913E+03  0.00000000000E+00 0.  1.
         -4    1    3    3    0  502 -0.35893479139E+02 -0.44223518642E+03 -0.18094553786E+04  0.18630590622E+04  0.00000000000E+00 0. -1.
</event>
<event>
 7    1  0.4894942E-006  0.1252054E+04  0.7818608E-02  0.8664188E-01
          2   -1    0    0  501    0  0.00000000000E+00  0.00000000000E+00  0.26091714586E+04  0.26091714586E+04  0.00000000000E+00 0.  1.
         -4   -1    0    0    0  501 -0.00000000000E+00 -0.00000000000E+00 -0.17939452088E+04  0.17939452088E+04  0.00000000000E+00 0. -1.
   -9000010    2    1    2    0  502  0.78884996100E+03 -0.21676784203E+03 -0.38737235717E+03  0.13094040680E+04  0.94615490908E+03 0.  0.
        -13    1    1    2    0    0 -0.80981980936E+03  0.14004299142E+03 -0.76602478690E+03  0.11234830432E+04  0.10566000000E+00 0.  1.
         13    1    3    3    0    0  0.15906804174E+03  0.25463224626E+03  0.17025431560E+03  0.34514745528E+03  0.10566000000E+00 0. -1.
          2    1    1    2  502    0  0.20969848359E+02  0.76724850604E+02  0.19686233938E+04  0.19702295562E+04  0.00000000000E+00 0.  1.
         -4    1    3    3    0  502  0.62978191926E+03 -0.47140008829E+03 -0.55762667277E+03  0.96425661276E+03  0.00000000000E+00 0. -1.
</event>
<event>
 7    1  0.4894942E-006  0.1021592E+04  0.7818608E-02  0.9240772E-01
          4   -1    0    0  501    0  0.00000000000E+00  0.00000000000E+00  0.37176573046E+04  0.37176573046E+04  0.00000000000E+00 0. -1.
         -4   -1    0    0    0  501 -0.00000000000E+00 -0.00000000000E+00 -0.23802310742E+03  0.23802310742E+03  0.00000000000E+00 0. -1.
   -9000010    2    1    2    0  502 -0.89795124348E+01  0.13384216600E+03  0.16742510562E+04  0.19607336639E+04  0.10116153145E+04 0.  0.
        -13    1    1    2    0    0  0.50490625014E+02 -0.13361628483E+03 -0.40600921122E+02  0.14849599573E+03  0.10566000000E+00 0.  1.
         13    1    3    3    0    0 -0.22990407775E+03  0.20404910934E+03  0.39841256785E+02  0.30996654802E+03  0.10566000000E+00 0. -1.
          4    1    1    2  502    0 -0.41511112579E+02 -0.22588117182E+00  0.18459840621E+04  0.18464507524E+04  0.00000000000E+00 0. -1.
         -4    1    3    3    0  502  0.22092456531E+03 -0.70206943338E+02  0.16344097994E+04  0.16507671159E+04  0.00000000000E+00 0. -1.
</event>
<event>
 7    1  0.4894942E-006  0.1035393E+04  0.7818608E-02  0.9099124E-01
          1   -1    0    0  501    0  0.00000000000E+00  0.00000000000E+00  0.23677260920E+04  0.23677260920E+04  0.00000000000E+00 0. -1.
         -4   -1    0    0    0  501 -0.00000000000E+00 -0.00000000000E+00 -0.26806606046E+03  0.26806606046E+03  0.00000000000E+00 0. -1.
   -9000010    2    1    2    0  502  0.13015579923E+03 -0.17624490523E+03  0.19852069014E+04  0.22370957403E+04  0.10077440703E+04 0.  0.
        -13    1    1    2    0    0 -0.15896445779E+03  0.17794901347E+03 -0.39676790303E+02  0.24188800940E+03  0.10566000000E+00 0.  1.
         13    1    3    3    0    0  0.51244883711E+03 -0.19018595983E+03  0.16140218649E+04  0.17040660497E+04  0.10566000000E+00 0. -1.
          1    1    1    2  502    0  0.28808658565E+02 -0.17041082445E+01  0.15412992044E+03  0.15680840273E+03  0.00000000000E+00 0. -1.
         -4    1    3    3    0  502 -0.38229303788E+03  0.13941054603E+02  0.37118503644E+03  0.53302969063E+03  0.00000000000E+00 0. -1.
</event>
<event>
 7    1  0.4894942E-006  0.1016640E+04  0.7818608E-02  0.9178942E-01
          4   -1    0    0  501    0 -0.00000000000E+00  0.00000000000E+00  0.10545916397E+04  0.10545916397E+04  0.00000000000E+00 0.  1.
          2   -1    0    0  502    0  0.00000000000E+00 -0.00000000000E+00 -0.12492770346E+04  0.12492770346E+04  0.00000000000E+00 0.  1.
    9000010    2    1    2  502    0 -0.17488203292E+03 -0.27630585504E+03  0.24827057485E+03  0.10809433884E+04  0.99993583779E+03 0.  0.
        -13    1    3    3    0    0  0.18579984677E+03 -0.28263489492E+02 -0.31546927247E+03  0.36720740861E+03  0.10566000000E+00 0.  1.
         13    1    1    2    0    0  0.55617722874E+02  0.16794808457E+03  0.36151037499E+03  0.40247938158E+03  0.10566000000E+00 0. -1.
          2    1    1    2  501    0  0.11926431005E+03  0.10835777047E+03 -0.80446634468E+03  0.82044590425E+03  0.00000000000E+00 0.  1.
          4    1    3    3  502    0 -0.36068187969E+03 -0.24804236555E+03  0.56373984732E+03  0.71373597983E+03  0.00000000000E+00 0.  1.
</event>
<event>
 7    1  0.4894942E-006  0.9950295E+03  0.7818608E-02  0.9074213E-01
          2   -1    0    0  501    0  0.00000000000E+00  0.00000000000E+00  0.35273166754E+03  0.35273166754E+03  0.00000000000E+00 0. -1.
         -4   -1    0    0    0  501 -0.00000000000E+00 -0.00000000000E+00 -0.13015002160E+04  0.13015002160E+04  0.00000000000E+00 0. -1.
   -9000010    2    1    2    0  502 -0.11265217864E+03  0.26414112926E+03 -0.56773807589E+03  0.11434488773E+04  0.95009881735E+03 0.  0.
        -13    1    1    2    0    0  0.12281896442E+03 -0.27052860263E+03 -0.39376813321E+03  0.49327839681E+03  0.10566000000E+00 0.  1.
         13    1    3    3    0    0  0.24072335563E+03  0.10369243874E+03  0.16821093917E+03  0.31143986099E+03  0.10566000000E+00 0. -1.
          2    1    1    2  502    0 -0.10166785784E+02  0.63874733649E+01  0.12737660681E+02  0.17504609359E+02  0.00000000000E+00 0. -1.
         -4    1    3    3    0  502 -0.35337553426E+03  0.16044869052E+03 -0.73594901505E+03  0.83200901634E+03  0.00000000000E+00 0. -1.
</event>
<event>
 7    1  0.4894942E-006  0.1057009E+04  0.7818608E-02  0.9322635E-01
         -2   -1    0    0    0  501  0.00000000000E+00  0.00000000000E+00  0.10534866131E+04  0.10534866131E+04  0.00000000000E+00 0. -1.
         -4   -1    0    0    0  502 -0.00000000000E+00 -0.00000000000E+00 -0.18297968509E+04  0.18297968509E+04  0.00000000000E+00 0. -1.
   -9000010    2    1    2    0  501 -0.30681163338E+03  0.13794650821E+03 -0.14367816547E+04  0.17935452493E+04  0.10194608480E+04 0.  0.
        -13    1    1    2    0    0  0.32703136150E+02 -0.88304315090E+02 -0.18063289378E+03  0.20370419892E+03  0.10566000000E+00 0.  1.
         13    1    3    3    0    0  0.26009798916E+03  0.36992120868E+03 -0.49877423133E+03  0.67325211444E+03  0.10566000000E+00 0. -1.
         -2    1    1    2    0  502  0.27410849723E+03 -0.49642193116E+02  0.84110431064E+03  0.88603401570E+03  0.00000000000E+00 0. -1.
         -4    1    3    3    0  501 -0.56690962254E+03 -0.23197470047E+03 -0.93800742335E+03  0.11202931349E+04  0.00000000000E+00 0. -1.
</event>
<event>
 6    1  0.4894942E-006  0.1778117E+04  0.7818608E-02  0.8638752E-01
          4   -1    0    0  501    0 -0.00000000000E+00  0.00000000000E+00  0.19571726873E+04  0.19571726873E+04  0.00000000000E+00 0.  1.
          2   -1    0    0  502    0  0.00000000000E+00 -0.00000000000E+00 -0.14243995691E+04  0.14243995691E+04  0.00000000000E+00 0.  1.
        -13    1    1    2    0    0  0.15025324975E+03 -0.41846820843E+03  0.88298316803E+03  0.98861062442E+03  0.10566000000E+00 0.  1.
         13    1    1    2    0    0 -0.31503853702E+03  0.57660906936E+02  0.93988535393E+03  0.99295445500E+03  0.10566000000E+00 0. -1.
          2    1    1    2  501    0  0.55764032776E+01 -0.10680068795E+02 -0.60107619848E+03  0.60119693655E+03  0.00000000000E+00 0.  1.
          4    1    1    2  502    0  0.15920888399E+03  0.37148737029E+03 -0.68901920524E+03  0.79881024043E+03  0.00000000000E+00 0.  1.
</event>
<event>
 7    1  0.4894942E-006  0.1077182E+04  0.7818608E-02  0.8895515E-01
          2   -1    0    0  502    0  0.00000000000E+00  0.00000000000E+00  0.41258192857E+04  0.41258192857E+04  0.00000000000E+00 0. -1.
          4   -1    0    0  501    0 -0.00000000000E+00 -0.00000000000E+00 -0.15769053361E+04  0.15769053361E+04  0.00000000000E+00 0.  1.
    9000010    2    1    2  502    0 -0.12497307494E+03 -0.43858163027E+03 -0.83294916747E+03  0.13528936155E+04  0.96361024454E+03 0.  0.
        -13    1    3    3    0    0  0.36378199573E+03 -0.16511378536E+03 -0.65139273146E+03  0.76414161272E+03  0.10566000000E+00 0.  1.
         13    1    1    2    0    0  0.18067445139E+03  0.46029477036E+03 -0.35737958946E+03  0.61011041225E+03  0.10566000000E+00 0. -1.
          2    1    1    2  501    0 -0.55701376451E+02 -0.21713140095E+02  0.37392427065E+04  0.37397205941E+04  0.00000000000E+00 0. -1.
          4    1    3    3  502    0 -0.48875507067E+03 -0.27346784490E+03 -0.18155643601E+03  0.58875200277E+03  0.00000000000E+00 0.  1.
</event>
<event>
 7    1  0.4894942E-006  0.1184625E+04  0.7818608E-02  0.9271670E-01
         -4   -1    0    0    0  501 -0.00000000000E+00  0.00000000000E+00  0.87539835177E+03  0.87539835177E+03  0.00000000000E+00 0. -1.
          1   -1    0    0  501    0  0.00000000000E+00 -0.00000000000E+00 -0.15276263530E+04  0.15276263530E+04  0.00000000000E+00 0. -1.
   -9000010    2    1    2    0  502 -0.50733030381E+02 -0.58771565907E+03  0.18871391064E+03  0.11741169020E+04  0.99747382082E+03 0.  0.
        -13    1    1    2    0    0  0.55645292557E+02 -0.59076740860E+02  0.73055696703E+02  0.10919526491E+03  0.10566000000E+00 0.  1.
         13    1    3    3    0    0 -0.25901633643E+03 -0.21046654440E+03  0.52869396213E+03  0.62522231694E+03  0.10566000000E+00 0. -1.
          1    1    1    2  502    0 -0.49122621758E+01  0.64679239993E+03 -0.91399760853E+03  0.11197125378E+04  0.00000000000E+00 0. -1.
         -4    1    3    3    0  502  0.20828330605E+03 -0.37724911467E+03 -0.33998005149E+03  0.54889458506E+03  0.00000000000E+00 0. -1.
</event>
<event>
 7    1  0.4894942E-006  0.1003173E+04  0.7818608E-02  0.9139494E-01
         -4   -1    0    0    0  501 -0.00000000000E+00  0.00000000000E+00  0.19373820415E+04  0.19373820415E+04  0.00000000000E+00 0. -1.
          1   -1    0    0  501    0  0.00000000000E+00 -0.00000000000E+00 -0.67129060385E+03  0.67129060385E+03  0.00000000000E+00 0. -1.
   -9000010    2    1    2    0  502  0.21767415322E+03  0.92864189765E+02  0.94206144907E+03  0.13784660094E+04  0.97810171793E+03 0.  0.
        -13    1    1    2    0    0 -0.18948928419E+03 -0.11573822508E+03  0.76048913647E+03  0.79224066004E+03  0.10566000000E+00 0.  1.
         13    1    3    3    0    0  0.51890316839E+03  0.31604553204E+03  0.43222610740E+03  0.74563040145E+03  0.10566000000E+00 0. -1.
          1    1    1    2  502    0 -0.28184869036E+02  0.22874035318E+02 -0.43645914784E+03  0.43796597593E+03  0.00000000000E+00 0. -1.
         -4    1    3    3    0  502 -0.30122901516E+03 -0.22318134228E+03  0.50983534167E+03  0.63283560798E+03  0.00000000000E+00 0. -1.
</event>
<event>
 7    1  0.4894942E-006  0.1036564E+04  0.7818608E-02  0.9034462E-01
         -4   -1    0    0    0  501 -0.00000000000E+00  0.00000000000E+00  0.21245649047E+03  0.21245649047E+03  0.00000000000E+00 0. -1.
          2   -1    0    0  501    0  0.00000000000E+00 -0.00000000000E+00 -0.32175628115E+04  0.32175628115E+04  0.00000000000E+00 0.  1.
   -9000010    2    1    2    0  502  0.51488299368E+02 -0.25048725055E+03 -0.14322237506E+04  0.17598765071E+04  0.99020479745E+03 0.  0.
        -13    1    1    2    0    0 -0.25402827212E+02  0.35514341726E+03 -0.14957476515E+04  0.15375412835E+04  0.10566000000E+00 0.  1.
         13    1    3    3    0    0 -0.13872454503E+03  0.73990156658E+02  0.97227011633E+02  0.18485709516E+03  0.10566000000E+00 0. -1.
          2    1    1    2  502    0 -0.26085472156E+02 -0.10465616671E+03 -0.77134918986E+02  0.13260151136E+03  0.00000000000E+00 0.  1.
         -4    1    3    3    0  502  0.19021284440E+03 -0.32447740720E+03 -0.15294507623E+04  0.15750194120E+04  0.00000000000E+00 0. -1.
</event>
<event>
 7    1  0.4894942E-006  0.1020799E+04  0.7818608E-02  0.9124916E-01
          4   -1    0    0  501    0 -0.00000000000E+00  0.00000000000E+00  0.22948848467E+04  0.22948848467E+04  0.00000000000E+00 0.  1.
          2   -1    0    0  502    0  0.00000000000E+00 -0.00000000000E+00 -0.11084571744E+04  0.11084571744E+04  0.00000000000E+00 0. -1.
    9000010    2    1    2  502    0 -0.20058568785E+03  0.88902410722E+02  0.17489890972E+04  0.20245873686E+04  0.99591811631E+03 0.  0.
        -13    1    3    3    0    0 -0.52697875816E+03  0.63667076400E+02  0.48542180352E+03  0.71930136011E+03  0.10566000000E+00 0.  1.
         13    1    1    2    0    0  0.19997479832E+03 -0.10337428082E+03  0.37699231809E+03  0.43908926309E+03  0.10566000000E+00 0. -1.
          2    1    1    2  501    0  0.61088953176E+00  0.14471870102E+02 -0.93955374295E+03  0.93966538944E+03  0.00000000000E+00 0. -1.
          4    1    3    3  502    0  0.32639307031E+03  0.25235334323E+02  0.12635672936E+04  0.13052860085E+04  0.00000000000E+00 0.  1.
</event>
<event>
 7    1  0.4894942E-006  0.1030664E+04  0.7818608E-02  0.9249627E-01
          2   -1    0    0  501    0  0.00000000000E+00  0.00000000000E+00  0.17045864248E+04  0.17045864248E+04  0.00000000000E+00 0. -1.
         -4   -1    0    0    0  501 -0.00000000000E+00 -0.00000000000E+00 -0.34828467030E+03  0.34828467030E+03  0.00000000000E+00 0. -1.
   -9000010    2    1    2    0  502 -0.56484424121E+02 -0.12383260300E+03  0.62973524509E+03  0.12080503972E+04  0.10219071775E+04 0.  0.
        -13    1    1    2    0    0  0.75438987869E+02  0.11080270076E+03  0.17272791357E+02  0.13515413375E+03  0.10566000000E+00 0.  1.
         13    1    3    3    0    0  0.41195150568E+03 -0.25014521921E+03  0.10473643205E+03  0.49320016737E+03  0.10566000000E+00 0. -1.
          2    1    1    2  502    0 -0.18954563749E+02  0.13029902245E+02  0.70929371804E+03  0.70966656417E+03  0.00000000000E+00 0. -1.
         -4    1    3    3    0  502 -0.46843592980E+03  0.12631261621E+03  0.52499881304E+03  0.71485022980E+03  0.00000000000E+00 0. -1.
</event>
<event>
 7    1  0.4894942E-006  0.9978179E+03  0.7818608E-02  0.9475866E-01
          2   -1    0    0  502    0  0.00000000000E+00  0.00000000000E+00  0.10433080565E+04  0.10433080565E+04  0.00000000000E+00 0. -1.
          4   -1    0    0  501    0 -0.00000000000E+00 -0.00000000000E+00 -0.11969376067E+04  0.11969376067E+04  0.00000000000E+00 0.  1.
    9000010    2    1    2  502    0 -0.56331264959E+02  0.12786631481E+02 -0.89177420340E+03  0.13379907857E+04  0.99580188970E+03 0.  0.
        -13    1    3    3    0    0  0.22383727889E+03 -0.12424047605E+03 -0.98079223486E+03  0.10136529201E+04  0.10566000000E+00 0.  1.
         13    1    1    2    0    0  0.56614865669E+02  0.30925746148E+02 -0.68691923175E+02  0.94235005508E+02  0.10566000000E+00 0. -1.
          2    1    1    2  501    0 -0.28360071026E+00 -0.43712377630E+02  0.80683657642E+03  0.80801987193E+03  0.00000000000E+00 0. -1.
          4    1    3    3  502    0 -0.28016854385E+03  0.13702710753E+03  0.89018031458E+02  0.32433786564E+03  0.00000000000E+00 0.  1.
</event>
<event>
 7    1  0.4894942E-006  0.9137465E+03  0.7818608E-02  0.9069033E-01
          4   -1    0    0  502    0  0.00000000000E+00  0.00000000000E+00  0.72537416315E+03  0.72537416315E+03  0.00000000000E+00 0. -1.
          4   -1    0    0  501    0 -0.00000000000E+00 -0.00000000000E+00 -0.25685102645E+04  0.25685102645E+04  0.00000000000E+00 0.  1.
    9000010    2    1    2  502    0 -0.39852913345E+03 -0.29602091457E+02 -0.17326482124E+04  0.19608247889E+04  0.82647581392E+03 0.  0.
        -13    1    3    3    0    0 -0.62169440192E+03  0.12364476728E+03 -0.13574969083E+04  0.14981955230E+04  0.10566000000E+00 0.  1.
         13    1    1    2    0    0  0.38195221071E+03  0.51845425942E+02 -0.66994365291E+03  0.77291652117E+03  0.10566000000E+00 0. -1.
          4    1    1    2  501    0  0.16576922747E+02 -0.22243334485E+02  0.55945576395E+03  0.56014311753E+03  0.00000000000E+00 0. -1.
          4    1    3    3  502    0  0.22316526846E+03 -0.15324685874E+03 -0.37515130403E+03  0.46262926591E+03  0.00000000000E+00 0.  1.
</event>
<event>
 7    1  0.4894942E-006  0.1125255E+04  0.7818608E-02  0.8845699E-01
         -4   -1    0    0    0  501 -0.00000000000E+00  0.00000000000E+00  0.21160999386E+04  0.21160999386E+04  0.00000000000E+00 0. -1.
          2   -1    0    0  501    0  0.00000000000E+00 -0.00000000000E+00 -0.15039503798E+04  0.15039503798E+04  0.00000000000E+00 0.  1.
   -9000010    2    1    2    0  502 -0.31102985241E+03  0.32513114260E+03  0.92607331059E+03  0.14339131283E+04  0.99802066809E+03 0.  0.
        -13    1    1    2    0    0  0.56180112186E+03 -0.92705916017E+02  0.82195520477E+03  0.99991262479E+03  0.10566000000E+00 0.  1.
         13    1    3    3    0    0 -0.10242922491E+03 -0.28435524793E+03  0.68031496639E+03  0.74443140571E+03  0.10566000000E+00 0. -1.
          2    1    1    2  502    0 -0.25077126945E+03 -0.23242522659E+03 -0.11358789565E+04  0.11862245653E+04  0.00000000000E+00 0.  1.
         -4    1    3    3    0  502 -0.20860062750E+03  0.60948639053E+03  0.24575834420E+03  0.68948172259E+03  0.00000000000E+00 0. -1.
</event>
<event>
 7    1  0.1950734E-005  0.1090649E+04  0.7818608E-02  0.8898250E-01
         -4   -1    0    0    0  501 -0.00000000000E+00  0.00000000000E+00  0.20079454873E+04  0.20079454873E+04  0.00000000000E+00 0. -1.
          4   -1    0    0  501    0  0.00000000000E+00 -0.00000000000E+00 -0.11715626142E+04  0.11715626142E+04  0.00000000000E+00 0.  1.
   -9000010    2    1    2    0  502 -0.39835519752E+03 -0.24193519430E+03  0.15311366166E+04  0.18817032037E+04  0.98954944613E+03 0.  0.
        -13    1    1    2    0    0  0.12203360930E+03  0.55334584937E+03 -0.67457683451E+03  0.88098680333E+03  0.10566000000E+00 0.  1.
         13    1    3    3    0    0 -0.34902473770E+03 -0.61450965780E+03  0.11232054241E+04  0.13270383653E+04  0.10566000000E+00 0. -1.
          4    1    1    2  502    0  0.27632158822E+03 -0.31141065508E+03 -0.20176908956E+02  0.41681809445E+03  0.00000000000E+00 0.  1.
         -4    1    3    3    0  502 -0.49330459815E+02  0.37257446350E+03  0.40793119255E+03  0.55466483841E+03  0.00000000000E+00 0. -1.
</event>
<event>
 7    1  0.4894942E-006  0.1083080E+04  0.7818608E-02  0.9269878E-01
         -4   -1    0    0    0  501 -0.00000000000E+00  0.00000000000E+00  0.29928573292E+04  0.29928573292E+04  0.00000000000E+00 0. -1.
          2   -1    0    0  501    0  0.00000000000E+00 -0.00000000000E+00 -0.17671694091E+03  0.17671694091E+03  0.00000000000E+00 0. -1.
   -9000010    2    1    2    0  502  0.10571375709E+03 -0.34988325414E+02  0.22183496050E+04  0.24688266163E+04  0.10777895482E+04 0.  0.
        -13    1    1    2    0    0 -0.93300806993E+02  0.52035664468E+02  0.64249673388E+03  0.65131775285E+03  0.10566000000E+00 0.  1.
         13    1    3    3    0    0 -0.76530897558E+01  0.48181266946E+03  0.62035941377E+03  0.78552392176E+03  0.10566000000E+00 0. -1.
          2    1    1    2  502    0 -0.12412950100E+02 -0.17047339054E+02 -0.44705950533E+02  0.49429900992E+02  0.00000000000E+00 0. -1.
         -4    1    3    3    0  502  0.11336684685E+03 -0.51680099488E+03  0.15979901912E+04  0.16833026946E+04  0.00000000000E+00 0. -1.
</event>
<event>
 7    1  0.4894942E-006  0.1032176E+04  0.7818608E-02  0.9107840E-01
          4   -1    0    0  501    0 -0.00000000000E+00  0.00000000000E+00  0.28311867555E+04  0.28311867555E+04  0.00000000000E+00 0.  1.
          2   -1    0    0  502    0  0.00000000000E+00 -0.00000000000E+00 -0.71952593868E+03  0.71952593868E+03  0.00000000000E+00 0.  1.
    9000010    2    1    2  502    0 -0.15956083760E+03  0.17275806738E+03  0.18516154160E+04  0.21202481909E+04  0.10058169475E+04 0.  0.
        -13    1    3    3    0    0 -0.74983734363E+02  0.54797765937E+03  0.62422572410E+03  0.83400230298E+03  0.10566000000E+00 0.  1.
         13    1    1    2    0    0  0.14927738944E+03 -0.17681265127E+03  0.82936292522E+03  0.86103967711E+03  0.10566000000E+00 0. -1.
          2    1    1    2  501    0  0.10283448151E+02  0.40545838910E+01 -0.56931752442E+03  0.56942482609E+03  0.00000000000E+00 0.  1.
          4    1    3    3  502    0 -0.84577103233E+02 -0.37521959199E+03  0.12273896919E+04  0.12862458880E+04  0.00000000000E+00 0.  1.
</event>
<event>
 6    1  0.4894942E-006  0.5752253E+03  0.7818608E-02  0.9369039E-01
          2   -1    0    0  502    0  0.00000000000E+00  0.00000000000E+00  0.88379972306E+03  0.88379972306E+03  0.00000000000E+00 0.  1.
          4   -1    0    0  501    0 -0.00000000000E+00 -0.00000000000E+00 -0.68616113159E+03  0.68616113159E+03  0.00000000000E+00 0.  1.
        -13    1    1    2    0    0 -0.37790031940E+03 -0.12851895025E+03  0.13997794423E+02  0.39940170429E+03  0.10566000000E+00 0.  1.
         13    1    1    2    0    0  0.43434742514E+03  0.23672431125E+03 -0.34904916462E+03  0.60541838076E+03  0.10566000000E+00 0. -1.
          2    1    1    2  501    0 -0.10409157914E+02 -0.12200513777E+02  0.37219282399E+03  0.37253818775E+03  0.00000000000E+00 0.  1.
          4    1    1    2  502    0 -0.46037947824E+02 -0.96004847230E+02  0.16049713769E+03  0.19260258185E+03  0.00000000000E+00 0.  1.
</event>
<event>
 7    1  0.4894942E-006  0.1026485E+04  0.7818608E-02  0.9223510E-01
          2   -1    0    0  501    0  0.00000000000E+00  0.00000000000E+00  0.91650110391E+03  0.91650110391E+03  0.00000000000E+00 0. -1.
         -4   -1    0    0    0  501 -0.00000000000E+00 -0.00000000000E+00 -0.65152750447E+03  0.65152750447E+03  0.00000000000E+00 0. -1.
   -9000010    2    1    2    0  502  0.20218860998E+03 -0.27145610304E+03 -0.25939773419E+02  0.10581882065E+04  0.10022578305E+04 0.  0.
        -13    1    1    2    0    0 -0.12510439687E+03  0.82826457548E+02  0.26486644981E+03  0.30441021596E+03  0.10566000000E+00 0.  1.
         13    1    3    3    0    0 -0.49308716326E+02 -0.40497881370E+03 -0.41111867357E+03  0.57918715799E+03  0.10566000000E+00 0. -1.
          2    1    1    2  502    0 -0.77084213108E+02  0.18862964549E+03  0.26046923045E+02  0.20543018587E+03  0.00000000000E+00 0. -1.
         -4    1    3    3    0  502  0.25149732630E+03  0.13352271067E+03  0.38517890015E+03  0.47900104856E+03  0.00000000000E+00 0. -1.
</event>
<event>
 7    1  0.4894942E-006  0.1183669E+04  0.7818608E-02  0.8954555E-01
          2   -1    0    0  502    0  0.00000000000E+00  0.00000000000E+00  0.13176482260E+04  0.13176482260E+04  0.00000000000E+00 0. -1.
          4   -1    0    0  501    0 -0.00000000000E+00 -0.00000000000E+00 -0.23240639122E+04  0.23240639122E+04  0.00000000000E+00 0.  1.
    9000010    2    1    2  502    0  0.47400899261E+03 -0.60333357952E+02 -0.10764864206E+04  0.15443139163E+04  0.99887828044E+03 0.  0.
        -13    1    3    3    0    0 -0.29198975554E+03  0.92267780035E+02 -0.17957854466E+03  0.35499271181E+03  0.10566000000E+00 0.  1.
         13    1    1    2    0    0  0.14998523751E+03  0.24181949710E+03 -0.89206999853E+03  0.93635523926E+03  0.10566000000E+00 0. -1.
          2    1    1    2  501    0 -0.62399423012E+03 -0.18148613914E+03  0.96214073285E+03  0.11610429827E+04  0.00000000000E+00 0. -1.
          4    1    3    3  502    0  0.76599874815E+03 -0.15260113799E+03 -0.89690787591E+03  0.11893212044E+04  0.00000000000E+00 0.  1.
</event>
<event>
 7    1  0.4894942E-006  0.1068401E+04  0.7818608E-02  0.8949624E-01
          4   -1    0    0  501    0 -0.00000000000E+00  0.00000000000E+00  0.11242003519E+04  0.11242003519E+04  0.00000000000E+00 0.  1.
          2   -1    0    0  502    0  0.00000000000E+00 -0.00000000000E+00 -0.69735773769E+03  0.69735773769E+03  0.00000000000E+00 0.  1.
    9000010    2    1    2  502    0  0.32996345746E+03  0.21947154170E+03  0.59466421928E+02  0.10705909414E+04  0.99276637113E+03 0.  0.
        -13    1    3    3    0    0  0.59649098969E+03  0.31692967367E+03  0.25928330810E+03  0.72351486775E+03  0.10566000000E+00 0.  1.
         13    1    1    2    0    0 -0.31892662141E+03 -0.23250403659E+03  0.48885568349E+03  0.62829309030E+03  0.10566000000E+00 0. -1.
          2    1    1    2  501    0 -0.11036836052E+02  0.13032494894E+02 -0.12147949124E+03  0.12267405783E+03  0.00000000000E+00 0.  1.
          4    1    3    3  502    0 -0.26652753222E+03 -0.97458131974E+02 -0.19981688617E+03  0.34707607368E+03  0.00000000000E+00 0.  1.
</event>
<event>
 7    1  0.4894942E-006  0.1261948E+04  0.7818608E-02  0.8804154E-01
          4   -1    0    0  501    0 -0.00000000000E+00  0.00000000000E+00  0.13560430531E+04  0.13560430531E+04  0.00000000000E+00 0.  1.
          2   -1    0    0  502    0  0.00000000000E+00 -0.00000000000E+00 -0.17402871358E+04  0.17402871358E+04  0.00000000000E+00 0.  1.
    9000010    2    1    2  502    0 -0.74999221172E+03  0.35764802071E+03  0.30202126695E+03  0.13501171029E+04  0.10203915530E+04 0.  0.
        -13    1    3    3    0    0  0.91908731103E+02 -0.23478789665E+03 -0.59440607341E+02  0.25904781071E+03  0.10566000000E+00 0.  1.
         13    1    1    2    0    0  0.90398231879E+01 -0.43883646980E+03  0.28391853183E+03  0.52275128838E+03  0.10566000000E+00 0. -1.
          2    1    1    2  501    0  0.74095238853E+03  0.81188449090E+02 -0.97018388152E+03  0.12234617976E+04  0.00000000000E+00 0.  1.
          4    1    3    3  502    0 -0.84190094282E+03  0.59243591736E+03  0.36146187429E+03  0.10910692921E+04  0.00000000000E+00 0.  1.
</event>
<event>
 7    1  0.4894942E-006  0.1165455E+04  0.7818608E-02  0.8788941E-01
          2   -1    0    0  502    0  0.00000000000E+00  0.00000000000E+00  0.11564035864E+04  0.11564035864E+04  0.00000000000E+00 0.  1.
          4   -1    0    0  501    0 -0.00000000000E+00 -0.00000000000E+00 -0.12921070597E+04  0.12921070597E+04  0.00000000000E+00 0.  1.
    9000010    2    1    2  502    0  0.75094501264E+03 -0.34155874031E+03 -0.28034120264E+03  0.13282452950E+04  0.10025285975E+04 0.  0.
        -13    1    3    3    0    0 -0.17150601007E+03 -0.33432516701E+03 -0.73867108098E+02  0.38294123519E+03  0.10566000000E+00 0.  1.
         13    1    1    2    0    0 -0.39659236205E+03  0.34974749305E+03 -0.25418324444E+03  0.58670089777E+03  0.10566000000E+00 0. -1.
          2    1    1    2  501    0 -0.35435265059E+03 -0.81887527450E+01  0.39882097384E+03  0.53356445330E+03  0.00000000000E+00 0.  1.
          4    1    3    3  502    0  0.92245102270E+03 -0.72335733024E+01 -0.20647409454E+03  0.94530405986E+03  0.00000000000E+00 0.  1.
</event>
<event>
 7    1  0.4894942E-006  0.1108672E+04  0.7818608E-02  0.8988895E-01
          2   -1    0    0  501    0  0.00000000000E+00  0.00000000000E+00  0.54075911173E+03  0.54075911173E+03  0.00000000000E+00 0.  1.
         -4   -1    0    0    0  501 -0.00000000000E+00 -0.00000000000E+00 -0.19504552809E+04  0.19504552809E+04  0.00000000000E+00 0. -1.
   -9000010    2    1    2    0  502  0.85951109398E+02 -0.31743980820E+03 -0.10508472815E+04  0.14839666945E+04  0.99484748400E+03 0.  0.
        -13    1    1    2    0    0 -0.23085437178E+03 -0.19330808232E+03 -0.36898273318E+03  0.47624576030E+03  0.10566000000E+00 0.  1.
         13    1    3    3    0    0 -0.27274848730E+02  0.16713254797E+03  0.12279945551E+03  0.20918155608E+03  0.10566000000E+00 0. -1.
          2    1    1    2  502    0  0.14490326238E+03  0.51074789052E+03  0.10133845490E+02  0.53100193780E+03  0.00000000000E+00 0.  1.
         -4    1    3    3    0  502  0.11322595813E+03 -0.48457235617E+03 -0.11736467370E+04  0.12747851385E+04  0.00000000000E+00 0. -1.
</event>
<event>
 7    1  0.4894942E-006  0.1217913E+04  0.7818608E-02  0.8717844E-01
          2   -1    0    0  501    0  0.00000000000E+00  0.00000000000E+00  0.11550228600E+04  0.11550228600E+04  0.00000000000E+00 0.  1.
         -4   -1    0    0    0  501 -0.00000000000E+00 -0.00000000000E+00 -0.27857097363E+04  0.27857097363E+04  0.00000000000E+00 0. -1.
   -9000010    2    1    2    0  502  0.50351206915E+03 -0.48357411361E+03 -0.22247280720E+04  0.25341334371E+04  0.99249632519E+03 0.  0.
        -13    1    1    2    0    0 -0.51431638756E+03  0.50674418498E+03 -0.85064541833E+02  0.72701238158E+03  0.10566000000E+00 0.  1.
         13    1    3    3    0    0 -0.13012799702E+03 -0.44626367201E+03 -0.15017949509E+04  0.15720918059E+04  0.10566000000E+00 0. -1.
          2    1    1    2  502    0  0.10804318416E+02 -0.23170071374E+02  0.67910573757E+03  0.67958677761E+03  0.00000000000E+00 0.  1.
         -4    1    3    3    0  502  0.63364006616E+03 -0.37310441600E+02 -0.72293312110E+03  0.96204163116E+03  0.00000000000E+00 0. -1.
</event>
<event>
 7    1  0.4894942E-006  0.1026300E+04  0.7818608E-02  0.9081438E-01
          4   -1    0    0  501    0 -0.00000000000E+00  0.00000000000E+00  0.30097090558E+04  0.30097090558E+04  0.00000000000E+00 0.  1.
          2   -1    0    0  502    0  0.00000000000E+00 -0.00000000000E+00 -0.76896403257E+03  0.76896403257E+03  0.00000000000E+00 0. -1.
    9000010    2    1    2  502    0  0.23020067197E+03 -0.46804736241E+02  0.20517211477E+04  0.22911789576E+04  0.99234989540E+03 0.  0.
        -13    1    3    3    0    0  0.46345163648E+03  0.31461831056E+03  0.88168547447E+03  0.10445771335E+04  0.10566000000E+00 0.  1.
         13    1    1    2    0    0 -0.25842905493E+03  0.65460895591E+02  0.81659579321E+03  0.85901071352E+03  0.10566000000E+00 0. -1.
          2    1    1    2  501    0  0.28228382960E+02 -0.18656159351E+02 -0.62757191771E+03  0.62848341727E+03  0.00000000000E+00 0. -1.
          4    1    3    3  502    0 -0.23325096451E+03 -0.36142304680E+03  0.11700356732E+04  0.12466018241E+04  0.00000000000E+00 0.  1.
</event>
<event>
 6    1  0.4894942E-006  0.7190110E+03  0.7818608E-02  0.9346051E-01
          2   -1    0    0  501    0  0.00000000000E+00  0.00000000000E+00  0.14843537068E+04  0.14843537068E+04  0.00000000000E+00 0. -1.
         -4   -1    0    0    0  501 -0.00000000000E+00 -0.00000000000E+00 -0.18225439294E+03  0.18225439294E+03  0.00000000000E+00 0. -1.
        -13    1    1    2    0    0  0.25918111216E+03  0.97030643261E+02  0.29492958363E+03  0.40444191807E+03  0.10566000000E+00 0.  1.
         13    1    1    2    0    0 -0.34442262131E+03 -0.31445093022E+03  0.59445243029E+03  0.75556603459E+03  0.10566000000E+00 0. -1.
          2    1    1    2  502    0 -0.63024330335E+01 -0.14347054982E+02  0.12497371435E+03  0.12595232402E+03  0.00000000000E+00 0. -1.
         -4    1    1    2    0  502  0.91543942185E+02  0.23176734194E+03  0.28774358557E+03  0.38064782303E+03  0.00000000000E+00 0. -1.
</event>
<event>
 7    1  0.4894942E-006  0.1002990E+04  0.7818608E-02  0.9222786E-01
          2   -1    0    0  502    0  0.00000000000E+00  0.00000000000E+00  0.80517758017E+03  0.80517758017E+03  0.00000000000E+00 0.  1.
          4   -1    0    0  501    0 -0.00000000000E+00 -0.00000000000E+00 -0.17470557656E+04  0.17470557656E+04  0.00000000000E+00 0.  1.
    9000010    2    1    2  502    0  0.28363524399E+02 -0.55955346889E+02 -0.12108347635E+04  0.15652580902E+04  0.98993766166E+03 0.  0.
        -13    1    3    3    0    0 -0.47837665315E+03 -0.47711320838E+02 -0.66290851930E+03  0.81888235330E+03  0.10566000000E+00 0.  1.
         13    1    1    2    0    0 -0.17048500040E+03  0.44257539507E+02 -0.32849717026E+03  0.37273887267E+03  0.10566000000E+00 0. -1.
          2    1    1    2  501    0  0.14212147600E+03  0.11697807383E+02  0.59745374837E+03  0.61423638290E+03  0.00000000000E+00 0.  1.
          4    1    3    3  502    0  0.50674017755E+03 -0.82440260516E+01 -0.54792624418E+03  0.74637573686E+03  0.00000000000E+00 0.  1.
</event>
<event>
 7    1  0.4894942E-006  0.1159014E+04  0.7818608E-02  0.8793642E-01
          2   -1    0    0  502    0  0.00000000000E+00  0.00000000000E+00  0.14242589444E+04  0.14242589444E+04  0.00000000000E+00 0.  1.
          4   -1    0    0  501    0 -0.00000000000E+00 -0.00000000000E+00 -0.17278922486E+04  0.17278922486E+04  0.00000000000E+00 0.  1.
    9000010    2    1    2  502    0  0.38568974247E+03 -0.38603056183E+03 -0.95490674587E+03  0.14839290005E+04  0.99620390134E+03 0.  0.
        -13    1    3    3    0    0  0.50587374728E+03 -0.49667343357E+03 -0.23674609344E+03  0.74742322129E+03  0.10566000000E+00 0.  1.
         13    1    1    2    0    0 -0.38314359161E+03  0.49881633956E+03 -0.30939109781E+03  0.70095621473E+03  0.10566000000E+00 0. -1.
          2    1    1    2  501    0 -0.25461508585E+01 -0.11278577773E+03  0.96066453945E+03  0.96726597785E+03  0.00000000000E+00 0.  1.
          4    1    3    3  502    0 -0.12018400481E+03  0.11064287174E+03 -0.71816065243E+03  0.73650577919E+03  0.00000000000E+00 0.  1.
</event>
<event>
 7    1  0.4894942E-006  0.1029090E+04  0.7818608E-02  0.9187515E-01
          2   -1    0    0  502    0  0.00000000000E+00  0.00000000000E+00  0.13082080865E+04  0.13082080865E+04  0.00000000000E+00 0.  1.
          4   -1    0    0  501    0 -0.00000000000E+00 -0.00000000000E+00 -0.11490896615E+04  0.11490896615E+04  0.00000000000E+00 0.  1.
    9000010    2    1    2  502    0 -0.16124548111E+03  0.23616976617E+03  0.42650026394E+01  0.10435938397E+04  0.10036401987E+04 0.  0.
        -13    1    3    3    0    0 -0.53292070653E+03  0.25996022547E+03  0.19626150236E+03  0.62458176946E+03  0.10566000000E+00 0.  1.
         13    1    1    2    0    0 -0.53810542906E+02 -0.16247540724E+03 -0.60074373285E+03  0.62464940263E+03  0.10566000000E+00 0. -1.
          2    1    1    2  501    0  0.21505602402E+03 -0.73694358934E+02  0.75559715517E+03  0.78905450566E+03  0.00000000000E+00 0.  1.
          4    1    3    3  502    0  0.37167522541E+03 -0.23790459304E+02 -0.19199649972E+03  0.41901207028E+03  0.00000000000E+00 0.  1.
</event>
<event>
 7    1  0.4894942E-006  0.1350010E+04  0.7818608E-02  0.8749893E-01
         -4   -1    0    0    0  501 -0.00000000000E+00  0.00000000000E+00  0.27231758625E+04  0.27231758625E+04  0.00000000000E+00 0. -1.
          4   -1    0    0  501    0  0.00000000000E+00 -0.00000000000E+00 -0.87093773366E+03  0.87093773366E+03  0.00000000000E+00 0.  1.
   -9000010    2    1    2    0  502  0.13711149632E+03 -0.48207112506E+03  0.16793303528E+04  0.20563790854E+04  0.10758031312E+04 0.  0.
        -13    1    1    2    0    0 -0.29868663111E+02 -0.45063712084E+03 -0.24075482832E+03  0.51178984968E+03  0.10566000000E+00 0.  1.
         13    1    3    3    0    0 -0.36158296850E+03  0.11447610542E+03  0.78146021313E+03  0.86863519252E+03  0.10566000000E+00 0. -1.
          4    1    1    2  502    0 -0.10724283321E+03  0.93270824590E+03  0.41366260433E+03  0.10259446610E+04  0.00000000000E+00 0.  1.
         -4    1    3    3    0  502  0.49869446482E+03 -0.59654723048E+03  0.89787013968E+03  0.11877438929E+04  0.00000000000E+00 0. -1.
</event>
<event>
 7    1  0.4894942E-006  0.1080093E+04  0.7818608E-02  0.8948936E-01
          4   -1    0    0  501    0 -0.00000000000E+00  0.00000000000E+00  0.14242990785E+04  0.14242990785E+04  0.00000000000E+00 0.  1.
          2   -1    0    0  502    0  0.00000000000E+00 -0.00000000000E+00 -0.81494602524E+03  0.81494602524E+03  0.00000000000E+00 0. -1.
    9000010    2    1    2  502    0 -0.63986740387E+02 -0.37204545949E+03  0.10681697660E+04  0.15176413118E+04  0.10098199718E+04 0.  0.
        -13    1    3    3    0    0  0.26418198985E+03 -0.58053223157E+03  0.42617312709E+03  0.76709408880E+03  0.10566000000E+00 0.  1.
         13    1    1    2    0    0  0.70664621183E+02  0.38419944857E+03 -0.15947645824E+03  0.42194248052E+03  0.10566000000E+00 0. -1.
          2    1    1    2  501    0 -0.66778807967E+01 -0.12153989078E+02 -0.29934025453E+03  0.29966131136E+03  0.00000000000E+00 0. -1.
          4    1    3    3  502    0 -0.32816873024E+03  0.20848677208E+03  0.64199663892E+03  0.75054722304E+03  0.00000000000E+00 0.  1.
</event>
<event>
 7    1  0.4894942E-006  0.1271708E+04  0.7818608E-02  0.8728258E-01
         -4   -1    0    0    0  501 -0.00000000000E+00  0.00000000000E+00  0.11951892563E+04  0.11951892563E+04  0.00000000000E+00 0. -1.
          2   -1    0    0  501    0  0.00000000000E+00 -0.00000000000E+00 -0.10424273792E+04  0.10424273792E+04  0.00000000000E+00 0. -1.
   -9000010    2    1    2    0  502  0.31254984827E+03  0.52177313768E+03 -0.46991129599E+03  0.13625438955E+04  0.11250664986E+04 0.  0.
        -13    1    1    2    0    0 -0.29395097650E+03 -0.51246192270E+03  0.58155767617E+03  0.82899562163E+03  0.10566000000E+00 0.  1.
         13    1    3    3    0    0  0.13876429401E+03 -0.35557595404E+03 -0.99261984072E+02  0.39438907317E+03  0.10566000000E+00 0. -1.
          2    1    1    2  502    0 -0.18598871773E+02 -0.93112149833E+01  0.41115496883E+02  0.46077118395E+02  0.00000000000E+00 0. -1.
         -4    1    3    3    0  502  0.17378555426E+03  0.87734909173E+03 -0.37064931192E+03  0.96815482235E+03  0.00000000000E+00 0. -1.
</event>
<event>
 7    1  0.4894942E-006  0.1569634E+04  0.7818608E-02  0.8692746E-01
         -4   -1    0    0    0  501 -0.00000000000E+00  0.00000000000E+00  0.13263843382E+04  0.13263843382E+04  0.00000000000E+00 0. -1.
          2   -1    0    0  501    0  0.00000000000E+00 -0.00000000000E+00 -0.30116484786E+04  0.30116484786E+04  0.00000000000E+00 0.  1.
   -9000010    2    1    2    0  502 -0.98586172899E+03  0.26014556530E+03  0.91457443588E+02  0.13515207898E+04  0.88240858871E+03 0.  0.
        -13    1    1    2    0    0 -0.32051726529E+03  0.17989808405E+03  0.31320736699E+03  0.48290113263E+03  0.10566000000E+00 0.  1.
         13    1    3    3    0    0 -0.55803368840E+03  0.57988695852E+03  0.13343069363E+03  0.81576604686E+03  0.10566000000E+00 0. -1.
          2    1    1    2  502    0  0.13063789943E+04 -0.44004364935E+03 -0.20899289510E+04  0.25036108943E+04  0.00000000000E+00 0.  1.
         -4    1    3    3    0  502 -0.42782804059E+03 -0.31974139322E+03 -0.41973250038E+02  0.53575474293E+03  0.00000000000E+00 0. -1.
</event>
<event>
 7    1  0.4894942E-006  0.1075900E+04  0.7818608E-02  0.8900835E-01
         -4   -1    0    0    0  501 -0.00000000000E+00  0.00000000000E+00  0.23051184495E+04  0.23051184495E+04  0.00000000000E+00 0. -1.
          1   -1    0    0  501    0  0.00000000000E+00 -0.00000000000E+00 -0.60373822143E+03  0.60373822143E+03  0.00000000000E+00 0. -1.
   -9000010    2    1    2    0  502  0.78633393114E+02 -0.47488772422E+03  0.13847142822E+04  0.17559390614E+04  0.96653338426E+03 0.  0.
        -13    1    1    2    0    0 -0.87809052562E+02  0.46085187679E+03  0.65968265322E+03  0.80949125763E+03  0.10566000000E+00 0.  1.
         13    1    3    3    0    0 -0.57960347335E+02 -0.63814857152E+03  0.41566793976E+03  0.76378848414E+03  0.10566000000E+00 0. -1.
          1    1    1    2  502    0  0.91756594484E+01  0.14035847438E+02 -0.34301670729E+03  0.34342635196E+03  0.00000000000E+00 0. -1.
         -4    1    3    3    0  502  0.13659374045E+03  0.16326084729E+03  0.96904634239E+03  0.99215057722E+03  0.00000000000E+00 0. -1.
</event>
<event>
 7    1  0.4894942E-006  0.1376621E+04  0.7818608E-02  0.8566811E-01
          2   -1    0    0  502    0  0.00000000000E+00  0.00000000000E+00  0.45348210761E+04  0.45348210761E+04  0.00000000000E+00 0. -1.
          4   -1    0    0  501    0 -0.00000000000E+00 -0.00000000000E+00 -0.80511976734E+03  0.80511976734E+03  0.00000000000E+00 0.  1.
    9000010    2    1    2  502    0  0.57020487800E+03 -0.72898255842E+03 -0.53071331629E+02  0.13618762612E+04  0.99766788624E+03 0.  0.
        -13    1    3    3    0    0 -0.63638224166E+01 -0.29223280267E+03  0.40963192945E+03  0.50322841532E+03  0.10566000000E+00 0.  1.
         13    1    1    2    0    0 -0.72164157924E+03  0.78503945230E+03  0.31790723422E+04  0.33531409869E+04  0.10566000000E+00 0. -1.
          2    1    1    2  501    0  0.15143670124E+03 -0.56056893878E+02  0.60370029829E+03  0.62492359532E+03  0.00000000000E+00 0. -1.
          4    1    3    3  502    0  0.57656870042E+03 -0.43674975575E+03 -0.46270326108E+03  0.85864784590E+03  0.00000000000E+00 0.  1.
</event>
<event>
 7    1  0.4894942E-006  0.1045613E+04  0.7818608E-02  0.9055185E-01
          4   -1    0    0  501    0 -0.00000000000E+00  0.00000000000E+00  0.18196886372E+04  0.18196886372E+04  0.00000000000E+00 0.  1.
          2   -1    0    0  502    0  0.00000000000E+00 -0.00000000000E+00 -0.40597511683E+03  0.40597511683E+03  0.00000000000E+00 0.  1.
    9000010    2    1    2  502    0  0.24673361614E+03 -0.14529218488E+03  0.54592701633E+03  0.11822796214E+04  0.10088416623E+04 0.  0.
        -13    1    3    3    0    0  0.43375652228E+03  0.20076164379E+03  0.61913950369E+03  0.78216602741E+03  0.10566000000E+00 0.  1.
         13    1    1    2    0    0 -0.23638992249E+03  0.13883212187E+03  0.93536639082E+03  0.97471270113E+03  0.10566000000E+00 0. -1.
          2    1    1    2  501    0 -0.10343693649E+02  0.64600630134E+01 -0.67579886782E+02  0.68671431541E+02  0.00000000000E+00 0.  1.
          4    1    3    3  502    0 -0.18702290615E+03 -0.34605382867E+03 -0.73212487361E+02  0.40011359395E+03  0.00000000000E+00 0.  1.
</event>
<event>
 7    1  0.4894942E-006  0.1152178E+04  0.7818608E-02  0.8814306E-01
          1   -1    0    0  501    0  0.00000000000E+00  0.00000000000E+00  0.11706171258E+04  0.11706171258E+04  0.00000000000E+00 0.  1.
         -4   -1    0    0    0  501 -0.00000000000E+00 -0.00000000000E+00 -0.19995143859E+04  0.19995143859E+04  0.00000000000E+00 0. -1.
   -9000010    2    1    2    0  502 -0.60760011090E+03  0.40029083108E+03  0.30554211996E+03  0.12825849370E+04  0.10110674999E+04 0.  0.
        -13    1    1    2    0    0  0.30384857111E+03 -0.45185058874E+03 -0.13864295767E+04  0.14895233771E+04  0.10566000000E+00 0.  1.
         13    1    3    3    0    0 -0.83821150964E+03  0.73595741429E+02  0.15675455379E+03  0.85591288654E+03  0.10566000000E+00 0. -1.
          1    1    1    2  502    0  0.30375153979E+03  0.51559757661E+02  0.25199019662E+03  0.39802319748E+03  0.00000000000E+00 0.  1.
         -4    1    3    3    0  502  0.23061139874E+03  0.32669508965E+03  0.14878756617E+03  0.42667205049E+03  0.00000000000E+00 0. -1.
</event>
<event>
 7    1  0.4894942E-006  0.1077277E+04  0.7818608E-02  0.8974517E-01
         -4   -1    0    0    0  501 -0.00000000000E+00  0.00000000000E+00  0.13342362214E+04  0.13342362214E+04  0.00000000000E+00 0. -1.
          2   -1    0    0  501    0  0.00000000000E+00 -0.00000000000E+00 -0.96162238187E+03  0.96162238187E+03  0.00000000000E+00 0. -1.
   -9000010    2    1    2    0  502 -0.31897266466E+03 -0.82529342361E+02  0.17311503786E+03  0.10853494403E+04  0.10195390811E+04 0.  0.
        -13    1    1    2    0    0  0.34989684799E+03  0.17142683950E+02  0.65847819901E+03  0.74586542056E+03  0.10566000000E+00 0.  1.
         13    1    3    3    0    0 -0.12254318945E+03 -0.17184981981E+02  0.59909030900E+03  0.61173635366E+03  0.10566000000E+00 0. -1.
          2    1    1    2  502    0 -0.30924183330E+02  0.65386658411E+02 -0.45897939735E+03  0.46464374246E+03  0.00000000000E+00 0. -1.
         -4    1    3    3    0  502 -0.19642947521E+03 -0.65344360380E+02 -0.42597527114E+03  0.47361308659E+03  0.00000000000E+00 0. -1.
</event>
<event>
 7    1  0.4894942E-006  0.1070022E+04  0.7818608E-02  0.8944331E-01
          2   -1    0    0  502    0  0.00000000000E+00  0.00000000000E+00  0.11760012281E+04  0.11760012281E+04  0.00000000000E+00 0. -1.
          4   -1    0    0  501    0 -0.00000000000E+00 -0.00000000000E+00 -0.23556783440E+04  0.23556783440E+04  0.00000000000E+00 0.  1.
    9000010    2    1    2  502    0  0.24884496516E+03  0.15351205725E+03 -0.91873431161E+03  0.13831770686E+04  0.99177431878E+03 0.  0.
        -13    1    3    3    0    0 -0.12717166569E+03  0.49097324885E+03 -0.60069842189E+03  0.78617171716E+03  0.10566000000E+00 0.  1.
         13    1    1    2    0    0 -0.39723270977E+03 -0.13639620435E+03 -0.11617793545E+04  0.12353659499E+04  0.10566000000E+00 0. -1.
          2    1    1    2  501    0  0.14838774461E+03 -0.17115852901E+02  0.90083655032E+03  0.91313655363E+03  0.00000000000E+00 0. -1.
          4    1    3    3  502    0  0.37601663085E+03 -0.33746119160E+03 -0.31803588972E+03  0.59700535146E+03  0.00000000000E+00 0.  1.
</event>
<event>
 7    1  0.4894942E-006  0.1114442E+04  0.7818608E-02  0.8868290E-01
          2   -1    0    0  501    0  0.00000000000E+00  0.00000000000E+00  0.10134247062E+04  0.10134247062E+04  0.00000000000E+00 0.  1.
         -4   -1    0    0    0  501 -0.00000000000E+00 -0.00000000000E+00 -0.40693112038E+04  0.40693112038E+04  0.00000000000E+00 0. -1.
   -9000010    2    1    2    0  502 -0.33695218137E+03  0.36140064633E+03 -0.21937451590E+04  0.24620405587E+04  0.10024862543E+04 0.  0.
        -13    1    1    2    0    0  0.31120155152E+03 -0.37217121030E+03 -0.17073952661E+04  0.17749806820E+04  0.10566000000E+00 0.  1.
         13    1    3    3    0    0 -0.92931238695E+02  0.55522708945E+03 -0.20367086886E+04  0.21130772890E+04  0.10566000000E+00 0. -1.
          2    1    1    2  502    0  0.25750629846E+02  0.10770563971E+02  0.84525392758E+03  0.84571466942E+03  0.00000000000E+00 0.  1.
         -4    1    3    3    0  502 -0.24402094267E+03 -0.19382644312E+03 -0.15703647041E+03  0.34896326963E+03  0.00000000000E+00 0. -1.
</event>
<event>
 7    1  0.4894942E-006  0.1002071E+04  0.7818608E-02  0.9277511E-01
          1   -1    0    0  501    0  0.00000000000E+00  0.00000000000E+00  0.94329769171E+03  0.94329769171E+03  0.00000000000E+00 0. -1.
         -4   -1    0    0    0  501 -0.00000000000E+00 -0.00000000000E+00 -0.10875789734E+04  0.10875789734E+04  0.00000000000E+00 0. -1.
   -9000010    2    1    2    0  502  0.10905236996E+03  0.93106781112E+02  0.41987920592E+03  0.10880308886E+04  0.99345426412E+03 0.  0.
        -13    1    1    2    0    0 -0.10530104632E+03 -0.77995981817E+02 -0.74747334855E+03  0.75887291524E+03  0.10566000000E+00 0.  1.
         13    1    3    3    0    0  0.13861711471E+03 -0.38887689573E+02 -0.31207525044E+03  0.34368289162E+03  0.10566000000E+00 0. -1.
          1    1    1    2  502    0 -0.37513236388E+01 -0.15110799295E+02  0.18331286095E+03  0.18397286125E+03  0.00000000000E+00 0. -1.
         -4    1    3    3    0  502 -0.29564744746E+02  0.13199447068E+03  0.73195445636E+03  0.74434799698E+03  0.00000000000E+00 0. -1.
</event>
<event>
 7    1  0.4894942E-006  0.1007967E+04  0.7818608E-02  0.9275037E-01
          4   -1    0    0  501    0  0.00000000000E+00  0.00000000000E+00  0.89449438528E+03  0.89449438528E+03  0.00000000000E+00 0. -1.
         -4   -1    0    0    0  501 -0.00000000000E+00 -0.00000000000E+00 -0.44819327605E+03  0.44819327605E+03  0.00000000000E+00 0. -1.
   -9000010    2    1    2    0  502 -0.10552239362E+03 -0.11733678458E+03  0.28566772016E+03  0.10514704192E+04  0.99954044420E+03 0.  0.
        -13    1    1    2    0    0  0.49263999925E+02  0.11292000239E+03  0.19088444563E+03  0.22718880117E+03  0.10566000000E+00 0.  1.
         13    1    3    3    0    0  0.40369666813E+03  0.15092890143E+03  0.68990133223E+02  0.43647472182E+03  0.10566000000E+00 0. -1.
          4    1    1    2  502    0  0.56258393692E+02  0.44167821916E+01 -0.30251056560E+02  0.64028440936E+02  0.00000000000E+00 0. -1.
         -4    1    3    3    0  502 -0.50921906175E+03 -0.26826568601E+03  0.21667758694E+03  0.61499569740E+03  0.00000000000E+00 0. -1.
</event>
<event>
 7    1  0.4894942E-006  0.1291017E+04  0.7818608E-02  0.8645117E-01
          2   -1    0    0  501    0  0.00000000000E+00  0.00000000000E+00  0.10931867101E+04  0.10931867101E+04  0.00000000000E+00 0.  1.
         -4   -1    0    0    0  501 -0.00000000000E+00 -0.00000000000E+00 -0.20023421239E+04  0.20023421239E+04  0.00000000000E+00 0. -1.
   -9000010    2    1    2    0  502  0.13930696917E+02 -0.81766722742E+03 -0.29553807840E+03  0.13272936531E+04  0.10027920655E+04 0.  0.
        -13    1    1    2    0    0 -0.27422262180E+03  0.77406288123E+03 -0.10039641986E+04  0.12970410609E+04  0.10566000000E+00 0.  1.
         13    1    3    3    0    0  0.29735794323E+03 -0.59930904097E+03 -0.56796404595E+03  0.87759685599E+03  0.10566000000E+00 0. -1.
          2    1    1    2  502    0  0.26029192488E+03  0.43604346185E+02  0.39034686317E+03  0.47119412003E+03  0.00000000000E+00 0.  1.
         -4    1    3    3    0  502 -0.28342724632E+03 -0.21835818645E+03  0.27242596754E+03  0.44969679711E+03  0.00000000000E+00 0. -1.
</event>
<event>
 7    1  0.4894942E-006  0.1097015E+04  0.7818608E-02  0.9155770E-01
          4   -1    0    0  501    0 -0.00000000000E+00  0.00000000000E+00  0.22346053701E+04  0.22346053701E+04  0.00000000000E+00 0.  1.
          2   -1    0    0  502    0  0.00000000000E+00 -0.00000000000E+00 -0.10388092693E+04  0.10388092693E+04  0.00000000000E+00 0. -1.
    9000010    2    1    2  502    0 -0.54123879349E+03  0.23859618954E+03  0.19568919918E+04  0.22730212808E+04  0.99364576281E+03 0.  0.
        -13    1    3    3    0    0 -0.74110951285E+03  0.43498288035E+03  0.12940941452E+04  0.15534262403E+04  0.10566000000E+00 0.  1.
         13    1    1    2    0    0  0.15910210816E+03  0.15965617834E+02 -0.34706223541E+03  0.38212640341E+03  0.10566000000E+00 0. -1.
          2    1    1    2  501    0  0.38213668532E+03 -0.25456180737E+03 -0.41403365561E+03  0.61826695530E+03  0.00000000000E+00 0. -1.
          4    1    3    3  502    0  0.19987071936E+03 -0.19638669081E+03  0.66279784662E+03  0.71959504047E+03  0.00000000000E+00 0.  1.
</event>
<event>
 7    1  0.4894942E-006  0.1046034E+04  0.7818608E-02  0.9081443E-01
         -4   -1    0    0    0  501 -0.00000000000E+00  0.00000000000E+00  0.43618634841E+03  0.43618634841E+03  0.00000000000E+00 0. -1.
          2   -1    0    0  501    0  0.00000000000E+00 -0.00000000000E+00 -0.19677880194E+04  0.19677880194E+04  0.00000000000E+00 0. -1.
   -9000010    2    1    2    0  502 -0.11166079595E+03 -0.22414410319E+03 -0.50459260671E+03  0.11446464299E+04  0.99644018302E+03 0.  0.
        -13    1    1    2    0    0  0.23246769964E+03 -0.84196867357E+02 -0.86045202989E+02  0.26179024423E+03  0.10566000000E+00 0.  1.
         13    1    3    3    0    0 -0.57031339463E+02 -0.40666371116E+03 -0.73727197153E+03  0.84391819439E+03  0.10566000000E+00 0. -1.
          2    1    1    2  502    0 -0.12080690369E+03  0.30834097054E+03 -0.94096386134E+03  0.99753769374E+03  0.00000000000E+00 0. -1.
         -4    1    3    3    0  502 -0.54629456492E+02  0.18251960797E+03  0.23267936482E+03  0.30072823549E+03  0.00000000000E+00 0. -1.
</event>
<event>
 7    1  0.4894942E-006  0.1019164E+04  0.7818608E-02  0.9478710E-01
          2   -1    0    0  501    0  0.00000000000E+00  0.00000000000E+00  0.78513629583E+03  0.78513629583E+03  0.00000000000E+00 0. -1.
         -4   -1    0    0    0  501 -0.00000000000E+00 -0.00000000000E+00 -0.65337460452E+03  0.65337460452E+03  0.00000000000E+00 0. -1.
   -9000010    2    1    2    0  502  0.50948360963E+02  0.28411974162E+02 -0.89033267663E+02  0.10230143179E+04  0.10174617418E+04 0.  0.
        -13    1    1    2    0    0 -0.57188954459E+02 -0.14218256359E+02 -0.88220474185E+02  0.10609240574E+03  0.10566000000E+00 0.  1.
         13    1    3    3    0    0  0.29557704604E+02  0.11364575983E+03 -0.54558671900E+03  0.55808054593E+03  0.10566000000E+00 0. -1.
          2    1    1    2  502    0  0.62405934957E+01 -0.14193717803E+02  0.30901543316E+03  0.30940417670E+03  0.00000000000E+00 0. -1.
         -4    1    3    3    0  502  0.21390656360E+02 -0.85233785665E+02  0.45655345134E+03  0.46493377198E+03  0.00000000000E+00 0. -1.
</event>
<event>
 7    1  0.4894942E-006  0.1188306E+04  0.7818608E-02  0.8923483E-01
          2   -1    0    0  502    0  0.00000000000E+00  0.00000000000E+00  0.33752249502E+04  0.33752249502E+04  0.00000000000E+00 0.  1.
          4   -1    0    0  501    0 -0.00000000000E+00 -0.00000000000E+00 -0.22717844290E+03  0.22717844290E+03  0.00000000000E+00 0.  1.
    9000010    2    1    2  502    0  0.87710354562E+02 -0.27148593360E+03  0.24916401051E+04  0.27567501946E+04  0.11445538447E+04 0.  0.
        -13    1    3    3    0    0  0.14717456451E+03  0.35879070379E+03  0.34618632654E+03  0.51984238516E+03  0.10566000000E+00 0.  1.
         13    1    1    2    0    0  0.89433985900E+01  0.32497898047E+03  0.21293343184E+03  0.38862833104E+03  0.10566000000E+00 0. -1.
          2    1    1    2  501    0 -0.96653753152E+02 -0.53493046870E+02  0.44347297038E+03  0.45702486750E+03  0.00000000000E+00 0.  1.
          4    1    3    3  502    0 -0.59464209949E+02 -0.63027663739E+03  0.21454537785E+04  0.22369078094E+04  0.00000000000E+00 0.  1.
</event>
<event>
 7    1  0.4894942E-006  0.1059617E+04  0.7818608E-02  0.9245548E-01
          2   -1    0    0  501    0  0.00000000000E+00  0.00000000000E+00  0.17477736084E+04  0.17477736084E+04  0.00000000000E+00 0.  1.
         -4   -1    0    0    0  501 -0.00000000000E+00 -0.00000000000E+00 -0.46771367137E+03  0.46771367137E+03  0.00000000000E+00 0. -1.
   -9000010    2    1    2    0  502  0.30876853925E+03  0.19442908784E+03  0.39025427422E+03  0.11239232096E+04  0.98881965065E+03 0.  0.
        -13    1    1    2    0    0 -0.67917006247E+02  0.10531772687E+03  0.34173803764E+01  0.12536440078E+03  0.10566000000E+00 0.  1.
         13    1    3    3    0    0  0.33904003864E+03 -0.69822589715E+02  0.65989441262E+03  0.74517379772E+03  0.10566000000E+00 0. -1.
          2    1    1    2  502    0 -0.24085153300E+03 -0.29974681471E+03  0.88638828240E+03  0.96619966935E+03  0.00000000000E+00 0.  1.
         -4    1    3    3    0  502 -0.30271499396E+02  0.26425167756E+03 -0.26964013840E+03  0.37874941188E+03  0.00000000000E+00 0. -1.
</event>
<event>
 7    1  0.4894942E-006  0.1036704E+04  0.7818608E-02  0.9060051E-01
         -4   -1    0    0    0  501 -0.00000000000E+00  0.00000000000E+00  0.11527738727E+04  0.11527738727E+04  0.00000000000E+00 0. -1.
          2   -1    0    0  501    0  0.00000000000E+00 -0.00000000000E+00 -0.15325464386E+04  0.15325464386E+04  0.00000000000E+00 0. -1.
   -9000010    2    1    2    0  502  0.10433868613E+03 -0.19183821321E+03  0.59571856591E+03  0.11835676083E+04  0.99913122875E+03 0.  0.
        -13    1    1    2    0    0 -0.26288158773E+03  0.14948402682E+03  0.16840913283E+03  0.34614137376E+03  0.10566000000E+00 0.  1.
         13    1    3    3    0    0  0.30619877005E+03 -0.12725700639E+03 -0.18147006354E+03  0.37799924283E+03  0.10566000000E+00 0. -1.
          2    1    1    2  502    0  0.15854290160E+03  0.42354186389E+02 -0.11439002647E+04  0.11556113293E+04  0.00000000000E+00 0. -1.
         -4    1    3    3    0  502 -0.20186008392E+03 -0.64581206822E+02  0.77718862945E+03  0.80556836550E+03  0.00000000000E+00 0. -1.
</event>
<event>
 7    1  0.4894942E-006  0.1224715E+04  0.7818608E-02  0.8707362E-01
         -4   -1    0    0    0  501 -0.00000000000E+00  0.00000000000E+00  0.24425111552E+04  0.24425111552E+04  0.00000000000E+00 0. -1.
          2   -1    0    0  501    0  0.00000000000E+00 -0.00000000000E+00 -0.12584565679E+04  0.12584565679E+04  0.00000000000E+00 0. -1.
   -9000010    2    1    2    0  502  0.41928652627E+02 -0.74451156867E+03  0.16530889625E+04  0.20642552665E+04  0.98609898050E+03 0.  0.
        -13    1    1    2    0    0 -0.65616069667E+02  0.70335235469E+03  0.36924459204E+03  0.79708944502E+03  0.10566000000E+00 0.  1.
         13    1    3    3    0    0 -0.41898091519E+03 -0.22696053803E+03  0.10190196718E+04  0.11249254179E+04  0.10566000000E+00 0. -1.
          2    1    1    2  502    0  0.23687417040E+02  0.41159213982E+02 -0.83827896728E+03  0.83962301160E+03  0.00000000000E+00 0. -1.
         -4    1    3    3    0  502  0.46090956782E+03 -0.51755103064E+03  0.63406929074E+03  0.93932984860E+03  0.00000000000E+00 0. -1.
</event>
<event>
 7    1  0.4894942E-006  0.1102132E+04  0.7818608E-02  0.9009408E-01
          4   -1    0    0  501    0 -0.00000000000E+00  0.00000000000E+00  0.10195616044E+04  0.10195616044E+04  0.00000000000E+00 0.  1.
          2   -1    0    0  502    0  0.00000000000E+00 -0.00000000000E+00 -0.19506176067E+04  0.19506176067E+04  0.00000000000E+00 0. -1.
    9000010    2    1    2  502    0  0.48588084167E+02 -0.32308267414E+03  0.35662658096E+03  0.11700658506E+04  0.10654240283E+04 0.  0.
        -13    1    3    3    0    0  0.28938296167E+03 -0.43303710205E+03 -0.19665554332E+03  0.55671989738E+03  0.10566000000E+00 0.  1.
         13    1    1    2    0    0  0.48744721762E+02  0.27212249771E+03  0.17898521949E+03  0.32933633510E+03  0.10566000000E+00 0. -1.
          2    1    1    2  501    0 -0.97332805929E+02  0.50960176430E+02 -0.14666678028E+04  0.14707770254E+04  0.00000000000E+00 0. -1.
          4    1    3    3  502    0 -0.24079487751E+03  0.10995442791E+03  0.55328212428E+03  0.61334595319E+03  0.00000000000E+00 0.  1.
</event>
<event>
 7    1  0.4894942E-006  0.1070619E+04  0.7818608E-02  0.9040314E-01
         -4   -1    0    0    0  501 -0.00000000000E+00  0.00000000000E+00  0.14057835910E+04  0.14057835910E+04  0.00000000000E+00 0. -1.
          1   -1    0    0  501    0  0.00000000000E+00 -0.00000000000E+00 -0.24186593215E+04  0.24186593215E+04  0.00000000000E+00 0. -1.
   -9000010    2    1    2    0  502  0.13933805135E+03 -0.18297279544E+03  0.62277493484E+03  0.12300909554E+04  0.10355583049E+04 0.  0.
        -13    1    1    2    0    0 -0.15909312820E+03  0.22710124799E+03  0.43894658218E+03  0.51919140348E+03  0.10566000000E+00 0.  1.
         13    1    3    3    0    0  0.15532701259E+03  0.42402038472E+03  0.22834289223E+03  0.50602396691E+03  0.10566000000E+00 0. -1.
          1    1    1    2  502    0  0.19755076848E+02 -0.44128452545E+02 -0.20745972476E+04  0.20751605536E+04  0.00000000000E+00 0. -1.
         -4    1    3    3    0  502 -0.15988961237E+02 -0.60699318016E+03  0.39443204261E+03  0.72406698853E+03  0.00000000000E+00 0. -1.
</event>
<event>
 7    1  0.4894942E-006  0.1136459E+04  0.7818608E-02  0.8822781E-01
          2   -1    0    0  502    0  0.00000000000E+00  0.00000000000E+00  0.21482004863E+04  0.21482004863E+04  0.00000000000E+00 0. -1.
          4   -1    0    0  501    0 -0.00000000000E+00 -0.00000000000E+00 -0.44342499687E+03  0.44342499687E+03  0.00000000000E+00 0.  1.
    9000010    2    1    2  502    0 -0.19614228417E+03  0.52426262399E+03  0.46673145417E+03  0.12304789898E+04  0.99142180709E+03 0.  0.
        -13    1    3    3    0    0  0.17081005676E+03  0.51156948827E+03 -0.10649057735E+03  0.54974509643E+03  0.10566000000E+00 0.  1.
         13    1    1    2    0    0  0.19197558833E+03 -0.51477397508E+03  0.11730953776E+04  0.12953762573E+04  0.10566000000E+00 0. -1.
          2    1    1    2  501    0  0.41666958381E+01 -0.94886489050E+01  0.64948657669E+02  0.65770236014E+02  0.00000000000E+00 0. -1.
          4    1    3    3  502    0 -0.36695234093E+03  0.12693135714E+02  0.57322203152E+03  0.68073389340E+03  0.00000000000E+00 0.  1.
</event>
<event>
 7    1  0.4894942E-006  0.1074407E+04  0.7818608E-02  0.9070618E-01
          2   -1    0    0  502    0  0.00000000000E+00  0.00000000000E+00  0.24670218510E+04  0.24670218510E+04  0.00000000000E+00 0.  1.
          4   -1    0    0  501    0 -0.00000000000E+00 -0.00000000000E+00 -0.50318052845E+03  0.50318052845E+03  0.00000000000E+00 0.  1.
    9000010    2    1    2  502    0 -0.10495282894E+03  0.52383988232E+03  0.33848715933E+03  0.11805935244E+04  0.99689728372E+03 0.  0.
        -13    1    3    3    0    0 -0.39762739368E+03  0.89049305109E+02  0.48782060241E+03  0.63561487888E+03  0.10566000000E+00 0.  1.
         13    1    1    2    0    0 -0.12502582000E+03 -0.20276491596E+03  0.20152962883E+03  0.31202446902E+03  0.10566000000E+00 0. -1.
          2    1    1    2  501    0  0.22997864893E+03 -0.32107496637E+03  0.14238245344E+04  0.14775843860E+04  0.00000000000E+00 0.  1.
          4    1    3    3  502    0  0.29267456475E+03  0.43479057722E+03 -0.14933344308E+03  0.54497864555E+03  0.00000000000E+00 0.  1.
</event>
<event>
 7    1  0.4894942E-006  0.9692613E+03  0.7818608E-02  0.9567251E-01
          5   -1    0    0  501    0  0.00000000000E+00  0.00000000000E+00  0.21449124630E+03  0.21449124630E+03  0.00000000000E+00 0.  1.
         -4   -1    0    0    0  501 -0.00000000000E+00 -0.00000000000E+00 -0.22257269150E+04  0.22257269150E+04  0.00000000000E+00 0. -1.
   -9000010    2    1    2    0  502 -0.99769716276E+01 -0.52096739044E+02 -0.19675311723E+04  0.21933968987E+04  0.96798627644E+03 0.  0.
        -13    1    1    2    0    0  0.20743112338E+02  0.45086379883E+02 -0.14058742494E+03  0.14909021958E+03  0.10566000000E+00 0.  1.
         13    1    3    3    0    0  0.22138252156E+03  0.37972709530E+03 -0.62345018512E+03  0.76281913468E+03  0.10566000000E+00 0. -1.
          5    1    1    2  502    0 -0.10766140711E+02  0.70103591612E+01  0.96882928515E+02  0.97731042965E+02  0.00000000000E+00 0.  1.
         -4    1    3    3    0  502 -0.23135949318E+03 -0.43182383434E+03 -0.13440809871E+04  0.14305777641E+04  0.00000000000E+00 0. -1.
</event>
<event>
 7    1  0.4894942E-006  0.1369472E+04  0.7818608E-02  0.8572628E-01
         -4   -1    0    0    0  501 -0.00000000000E+00  0.00000000000E+00  0.73257201162E+03  0.73257201162E+03  0.00000000000E+00 0. -1.
          2   -1    0    0  501    0  0.00000000000E+00 -0.00000000000E+00 -0.20232463574E+04  0.20232463574E+04  0.00000000000E+00 0.  1.
   -9000010    2    1    2    0  502  0.72524777638E+03 -0.58874005280E+03 -0.40073528390E+03  0.14238457390E+04  0.99707007464E+03 0.  0.
        -13    1    1    2    0    0 -0.72479350014E+03  0.60478281042E+03 -0.79051126335E+03  0.12312578667E+04  0.10566000000E+00 0.  1.
         13    1    3    3    0    0 -0.32909497709E+02  0.16296750309E+03  0.14875728086E+03  0.22309231693E+03  0.10566000000E+00 0. -1.
          2    1    1    2  502    0 -0.45427623468E+00 -0.16042757617E+02 -0.99427798569E+02  0.10071476340E+03  0.00000000000E+00 0.  1.
         -4    1    3    3    0  502  0.75815727409E+03 -0.75170755589E+03 -0.54949256476E+03  0.12007534220E+04  0.00000000000E+00 0. -1.
</event>
<event>
 7    1  0.4894942E-006  0.1835628E+04  0.7818608E-02  0.8408646E-01
         -4   -1    0    0    0  501 -0.00000000000E+00  0.00000000000E+00  0.31121822778E+04  0.31121822778E+04  0.00000000000E+00 0. -1.
          2   -1    0    0  501    0  0.00000000000E+00 -0.00000000000E+00 -0.29289853570E+04  0.29289853570E+04  0.00000000000E+00 0. -1.
   -9000010    2    1    2    0  502  0.76893000353E+03  0.45172903558E+03  0.72765942286E+03  0.15263705790E+04  0.10025000931E+04 0.  0.
        -13    1    1    2    0    0  0.75225071165E+03  0.33068889339E+03  0.15838052731E+04  0.17842856923E+04  0.10566000000E+00 0.  1.
         13    1    3    3    0    0  0.15143403139E+01 -0.14887435527E+03  0.50536276562E+03  0.52683716927E+03  0.10566000000E+00 0. -1.
          2    1    1    2  502    0 -0.15211807152E+04 -0.78241792897E+03 -0.21282677751E+04  0.27305113636E+04  0.00000000000E+00 0. -1.
         -4    1    3    3    0  502  0.76741566322E+03  0.60060339085E+03  0.22229665724E+03  0.99953340968E+03  0.00000000000E+00 0. -1.
</event>
<event>
 7    1  0.4894942E-006  0.1018274E+04  0.7818608E-02  0.9153960E-01
         -4   -1    0    0    0  501 -0.00000000000E+00  0.00000000000E+00  0.11049261487E+04  0.11049261487E+04  0.00000000000E+00 0. -1.
          1   -1    0    0  501    0  0.00000000000E+00 -0.00000000000E+00 -0.13554582764E+04  0.13554582764E+04  0.00000000000E+00 0.  1.
   -9000010    2    1    2    0  502  0.12359248742E+03 -0.26698446148E+03  0.17222640127E+03  0.10528150398E+04  0.99609325322E+03 0.  0.
        -13    1    1    2    0    0 -0.19008039109E+03  0.66443673220E+02  0.45880285868E+03  0.50104430052E+03  0.10566000000E+00 0.  1.
         13    1    3    3    0    0  0.12835995462E+01  0.15088176859E+03  0.49069935794E+03  0.51337396386E+03  0.10566000000E+00 0. -1.
          1    1    1    2  502    0  0.66487903669E+02  0.20054078826E+03 -0.88156138765E+03  0.90652508476E+03  0.00000000000E+00 0.  1.
         -4    1    3    3    0  502  0.12230888787E+03 -0.41786623007E+03 -0.31847295667E+03  0.53944107594E+03  0.00000000000E+00 0. -1.
</event>
<event>
 7    1  0.4894942E-006  0.1077276E+04  0.7818608E-02  0.8964054E-01
          2   -1    0    0  501    0  0.00000000000E+00  0.00000000000E+00  0.94582186365E+03  0.94582186365E+03  0.00000000000E+00 0. -1.
         -4   -1    0    0    0  501 -0.00000000000E+00 -0.00000000000E+00 -0.21996663953E+04  0.21996663953E+04  0.00000000000E+00 0. -1.
   -9000010    2    1    2    0  502  0.31506613981E+03  0.35638606513E+03 -0.86358574377E+03  0.14144744294E+04  0.10142385689E+04 0.  0.
        -13    1    1    2    0    0 -0.27790252273E+03 -0.21580150287E+03 -0.10229796549E+04  0.10817982651E+04  0.10566000000E+00 0.  1.
         13    1    3    3    0    0  0.68615039277E+03  0.24768161373E+03 -0.50599344844E+03  0.88779385237E+03  0.10566000000E+00 0. -1.
          2    1    1    2  502    0 -0.37163617083E+02 -0.14058456226E+03  0.63272086703E+03  0.64921556448E+03  0.00000000000E+00 0. -1.
         -4    1    3    3    0  502 -0.37108425296E+03  0.10870445141E+03 -0.35759229533E+03  0.52668057704E+03  0.00000000000E+00 0. -1.
</event>
<event>
 7    1  0.4894942E-006  0.1043667E+04  0.7818608E-02  0.8926930E-01
         -4   -1    0    0    0  501 -0.00000000000E+00  0.00000000000E+00  0.17560758015E+04  0.17560758015E+04  0.00000000000E+00 0. -1.
          2   -1    0    0  501    0  0.00000000000E+00 -0.00000000000E+00 -0.53851259605E+03  0.53851259605E+03  0.00000000000E+00 0. -1.
   -9000010    2    1    2    0  502 -0.56675201541E+03 -0.22707019425E+03  0.42003352339E+03  0.11925950632E+04  0.93439076616E+03 0.  0.
        -13    1    1    2    0    0  0.41895685633E+03  0.14641980881E+03  0.81973834702E+03  0.93216660346E+03  0.10566000000E+00 0.  1.
         13    1    3    3    0    0 -0.81193693223E+03 -0.17238044320E+03  0.44207710027E+03  0.94041946645E+03  0.10566000000E+00 0. -1.
          2    1    1    2  502    0  0.14779515908E+03  0.80650385434E+02 -0.22208664998E+02  0.16982673087E+03  0.00000000000E+00 0. -1.
         -4    1    3    3    0  502  0.24518491683E+03 -0.54689751051E+02 -0.22043576876E+02  0.25217559674E+03  0.00000000000E+00 0. -1.
</event>
<event>
 7    1  0.4894942E-006  0.1071070E+04  0.7818608E-02  0.8869365E-01
          2   -1    0    0  501    0  0.00000000000E+00  0.00000000000E+00  0.99394356266E+03  0.99394356266E+03  0.00000000000E+00 0.  1.
         -4   -1    0    0    0  501 -0.00000000000E+00 -0.00000000000E+00 -0.38252377848E+04  0.38252377848E+04  0.00000000000E+00 0. -1.
   -9000010    2    1    2    0  502  0.86525020473E+01  0.55649748861E+03 -0.22627229295E+04  0.25057566227E+04  0.92148623221E+03 0.  0.
        -13    1    1    2    0    0 -0.29138139093E+02 -0.54082947583E+03 -0.13898956693E+04  0.14916955238E+04  0.10566000000E+00 0.  1.
         13    1    3    3    0    0  0.27505347006E+03  0.71493199157E+03 -0.15740569139E+04  0.17505534391E+04  0.10566000000E+00 0. -1.
          2    1    1    2  502    0  0.20485637045E+02 -0.15668012782E+02  0.82132437665E+03  0.82172920091E+03  0.00000000000E+00 0.  1.
         -4    1    3    3    0  502 -0.26640096801E+03 -0.15843450296E+03 -0.68866601560E+03  0.75520318361E+03  0.00000000000E+00 0. -1.
</event>
<event>
 7    1  0.4894942E-006  0.9902115E+03  0.7818608E-02  0.9055970E-01
          2   -1    0    0  501    0  0.00000000000E+00  0.00000000000E+00  0.12416070404E+04  0.12416070404E+04  0.00000000000E+00 0. -1.
         -4   -1    0    0    0  501 -0.00000000000E+00 -0.00000000000E+00 -0.97972403786E+03  0.97972403786E+03  0.00000000000E+00 0. -1.
   -9000010    2    1    2    0  502  0.22822960924E+03 -0.10633326335E+02 -0.46507350444E+03  0.10700193765E+04  0.93618709636E+03 0.  0.
        -13    1    1    2    0    0 -0.33260643779E+03  0.24801675354E+03  0.39738494549E+02  0.41679552734E+03  0.10566000000E+00 0.  1.
         13    1    3    3    0    0  0.64564819291E+02  0.27850541635E+03  0.18460592881E+03  0.34031344807E+03  0.10566000000E+00 0. -1.
          2    1    1    2  502    0  0.10437682855E+03 -0.23738342721E+03  0.68721801241E+03  0.73451617438E+03  0.00000000000E+00 0. -1.
         -4    1    3    3    0  502  0.16366478995E+03 -0.28913874268E+03 -0.64967943325E+03  0.72970592843E+03  0.00000000000E+00 0. -1.
</event>
<event>
 7    1  0.4894942E-006  0.1110178E+04  0.7818608E-02  0.8933962E-01
         -4   -1    0    0    0  501 -0.00000000000E+00  0.00000000000E+00  0.74930121361E+03  0.74930121361E+03  0.00000000000E+00 0. -1.
          1   -1    0    0  501    0  0.00000000000E+00 -0.00000000000E+00 -0.24437937952E+04  0.24437937952E+04  0.00000000000E+00 0. -1.
   -9000010    2    1    2    0  502  0.22204840296E+03 -0.38530385617E+03  0.10964657379E+03  0.11408160150E+04  0.10448321655E+04 0.  0.
        -13    1    1    2    0    0 -0.19393538396E+03  0.28320157214E+03 -0.11820812373E+03  0.36302511662E+03  0.10566000000E+00 0.  1.
         13    1    3    3    0    0  0.59849850729E+03 -0.39970755497E+02  0.17734172542E+03  0.62549837991E+03  0.10566000000E+00 0. -1.
          1    1    1    2  502    0 -0.28113019001E+02  0.10210228403E+03 -0.16859310316E+04  0.16892538772E+04  0.00000000000E+00 0. -1.
         -4    1    3    3    0  502 -0.37645010433E+03 -0.34533310067E+03 -0.67695151637E+02  0.51531763508E+03  0.00000000000E+00 0. -1.
</event>
<event>
 7    1  0.4894942E-006  0.1304525E+04  0.7818608E-02  0.8652489E-01
          1   -1    0    0  501    0  0.00000000000E+00  0.00000000000E+00  0.80389824200E+03  0.80389824200E+03  0.00000000000E+00 0. -1.
         -4   -1    0    0    0  501 -0.00000000000E+00 -0.00000000000E+00 -0.19673294211E+04  0.19673294211E+04  0.00000000000E+00 0. -1.
   -9000010    2    1    2    0  502 -0.52123220141E+03  0.26273220078E+03 -0.34381641383E+03  0.12563689437E+04  0.10580841077E+04 0.  0.
        -13    1    1    2    0    0  0.87229582147E+03 -0.12168415765E+03 -0.46338378710E+03  0.99520429043E+03  0.10566000000E+00 0.  1.
         13    1    3    3    0    0 -0.22985540826E+02  0.24213125242E+03  0.33505524584E+03  0.41402645739E+03  0.10566000000E+00 0. -1.
          1    1    1    2  502    0 -0.35106362005E+03 -0.14104804313E+03 -0.35623097817E+03  0.51965442902E+03  0.00000000000E+00 0. -1.
         -4    1    3    3    0  502 -0.49824666059E+03  0.20600948363E+02 -0.67887165968E+03  0.84234248627E+03  0.00000000000E+00 0. -1.
</event>
<event>
 7    1  0.4894942E-006  0.1067898E+04  0.7818608E-02  0.8990868E-01
          2   -1    0    0  501    0  0.00000000000E+00  0.00000000000E+00  0.14779556044E+04  0.14779556044E+04  0.00000000000E+00 0.  1.
         -4   -1    0    0    0  501 -0.00000000000E+00 -0.00000000000E+00 -0.58943791105E+03  0.58943791105E+03  0.00000000000E+00 0. -1.
   -9000010    2    1    2    0  502  0.28473990647E+03  0.53149666235E+02  0.88643813672E+02  0.10585137203E+04  0.10142444819E+04 0.  0.
        -13    1    1    2    0    0 -0.35484196102E+03 -0.52653047028E+02  0.21168543093E+03  0.41652838257E+03  0.10566000000E+00 0.  1.
         13    1    3    3    0    0  0.42888436844E+02  0.29992070842E+03  0.46029504440E+03  0.55105661090E+03  0.10566000000E+00 0. -1.
          2    1    1    2  502    0  0.70102054544E+02 -0.49661920621E+00  0.58818844873E+03  0.59235141251E+03  0.00000000000E+00 0.  1.
         -4    1    3    3    0  502  0.24185146963E+03 -0.24677104219E+03 -0.37165123073E+03  0.50745710944E+03  0.00000000000E+00 0. -1.
</event>
<event>
 7    1  0.4894942E-006  0.1284553E+04  0.7818608E-02  0.8654363E-01
          4   -1    0    0  501    0 -0.00000000000E+00  0.00000000000E+00  0.94543036965E+03  0.94543036965E+03  0.00000000000E+00 0.  1.
          2   -1    0    0  502    0  0.00000000000E+00 -0.00000000000E+00 -0.18532492057E+04  0.18532492057E+04  0.00000000000E+00 0. -1.
    9000010    2    1    2  502    0 -0.56821957051E+03  0.57662840339E+03  0.13748027574E+03  0.13023186643E+04  0.10108210926E+04 0.  0.
        -13    1    3    3    0    0 -0.25468991650E+03  0.79412209737E+03  0.30175539173E+03  0.88687833816E+03  0.10566000000E+00 0.  1.
         13    1    1    2    0    0  0.52080781691E+03 -0.57213079528E+03 -0.44169512330E+03  0.89088103705E+03  0.10566000000E+00 0. -1.
          2    1    1    2  501    0  0.47411753602E+02 -0.44976081069E+01 -0.60360398851E+03  0.60547987399E+03  0.00000000000E+00 0. -1.
          4    1    3    3  502    0 -0.31352965402E+03 -0.21749369398E+03 -0.16427511599E+03  0.41544032616E+03  0.00000000000E+00 0.  1.
</event>
<event>
 7    1  0.4894942E-006  0.1121482E+04  0.7818608E-02  0.8870705E-01
          4   -1    0    0  501    0 -0.00000000000E+00  0.00000000000E+00  0.90382678438E+03  0.90382678438E+03  0.00000000000E+00 0.  1.
          2   -1    0    0  502    0  0.00000000000E+00 -0.00000000000E+00 -0.14583103797E+04  0.14583103797E+04  0.00000000000E+00 0.  1.
    9000010    2    1    2  502    0  0.20971791100E+02 -0.59499982849E+03 -0.96767829901E+02  0.11823216240E+04  0.10168853415E+04 0.  0.
        -13    1    3    3    0    0  0.24716659400E+03 -0.21358629938E+02 -0.41872657842E+03  0.48670265554E+03  0.10566000000E+00 0.  1.
         13    1    1    2    0    0 -0.17524896757E+03  0.41586288606E+03  0.19049422791E+03  0.48983895585E+03  0.10566000000E+00 0. -1.
          2    1    1    2  501    0  0.15427717647E+03  0.17913694243E+03 -0.64820999337E+03  0.68997658426E+03  0.00000000000E+00 0.  1.
          4    1    3    3  502    0 -0.22619480290E+03 -0.57364119856E+03  0.32195874852E+03  0.69561896847E+03  0.00000000000E+00 0.  1.
</event>
<event>
 7    1  0.4894942E-006  0.1021701E+04  0.7818608E-02  0.9249028E-01
         -4   -1    0    0    0  501 -0.00000000000E+00  0.00000000000E+00  0.83261999180E+03  0.83261999180E+03  0.00000000000E+00 0. -1.
          4   -1    0    0  501    0  0.00000000000E+00 -0.00000000000E+00 -0.17813369638E+04  0.17813369638E+04  0.00000000000E+00 0.  1.
   -9000010    2    1    2    0  502  0.19951885396E+03 -0.16435700757E+03  0.31552210319E+03  0.10780059043E+04  0.99785847345E+03 0.  0.
        -13    1    1    2    0    0 -0.13072880344E+03 -0.44019471703E+02  0.89571711459E+02  0.16447138534E+03  0.10566000000E+00 0.  1.
         13    1    3    3    0    0  0.35464795478E+03 -0.50422826521E+03  0.33926934869E+03  0.70365120435E+03  0.10566000000E+00 0. -1.
          4    1    1    2  502    0 -0.68790050528E+02  0.20837647927E+03 -0.13538107866E+04  0.13714796659E+04  0.00000000000E+00 0.  1.
         -4    1    3    3    0  502 -0.15512910081E+03  0.33987125764E+03 -0.23747245496E+02  0.37435469993E+03  0.00000000000E+00 0. -1.
</event>
<event>
 7    1  0.4894942E-006  0.1201386E+04  0.7818608E-02  0.8747783E-01
          2   -1    0    0  501    0  0.00000000000E+00  0.00000000000E+00  0.10492165599E+04  0.10492165599E+04  0.00000000000E+00 0. -1.
         -4   -1    0    0    0  501 -0.00000000000E+00 -0.00000000000E+00 -0.25930297849E+04  0.25930297849E+04  0.00000000000E+00 0. -1.
   -9000010    2    1    2    0  502  0.56357181225E+03  0.33310974244E+03 -0.16935135272E+04  0.20788809568E+04  0.10125130506E+04 0.  0.
        -13    1    1    2    0    0 -0.55010789407E+03 -0.32826691805E+03 -0.56159903586E+03  0.85192215188E+03  0.10566000000E+00 0.  1.
         13    1    3    3    0    0  0.48406513693E+03  0.15199649392E+03 -0.15903763799E+03  0.53170948122E+03  0.10566000000E+00 0. -1.
          2    1    1    2  502    0 -0.13463918172E+02 -0.48428243871E+01  0.71129933804E+03  0.71144323620E+03  0.00000000000E+00 0. -1.
         -4    1    3    3    0  502  0.79506675313E+02  0.18111324852E+03 -0.15344758892E+04  0.15471714756E+04  0.00000000000E+00 0. -1.
</event>
<event>
 7    1  0.4894942E-006  0.1025892E+04  0.7818608E-02  0.8961806E-01
          4   -1    0    0  501    0 -0.00000000000E+00  0.00000000000E+00  0.12254285026E+04  0.12254285026E+04  0.00000000000E+00 0.  1.
          2   -1    0    0  502    0  0.00000000000E+00 -0.00000000000E+00 -0.16504150951E+04  0.16504150951E+04  0.00000000000E+00 0.  1.
    9000010    2    1    2  502    0  0.27033461778E+03 -0.33628050272E+03  0.93778538746E+03  0.13921269241E+04  0.93402920602E+03 0.  0.
        -13    1    3    3    0    0  0.42259586434E+03 -0.58658901945E+03  0.56245596308E+03  0.91598617013E+03  0.10566000000E+00 0.  1.
         13    1    1    2    0    0 -0.24808229257E+03  0.31771041226E+03 -0.61467142141E+03  0.73505489414E+03  0.10566000000E+00 0. -1.
          2    1    1    2  501    0 -0.22252325203E+02  0.18570090463E+02 -0.74810055863E+03  0.74866177948E+03  0.00000000000E+00 0.  1.
          4    1    3    3  502    0 -0.15226124657E+03  0.25030851673E+03  0.37532942439E+03  0.47614075394E+03  0.00000000000E+00 0.  1.
</event>
<event>
 7    1  0.4894942E-006  0.1015225E+04  0.7818608E-02  0.9113770E-01
         -4   -1    0    0    0  501 -0.00000000000E+00  0.00000000000E+00  0.13482991225E+04  0.13482991225E+04  0.00000000000E+00 0. -1.
          2   -1    0    0  501    0  0.00000000000E+00 -0.00000000000E+00 -0.97286770302E+03  0.97286770302E+03  0.00000000000E+00 0.  1.
   -9000010    2    1    2    0  502 -0.24319755126E+03 -0.23777667260E+03  0.54271671048E+03  0.11176057856E+04  0.91587033432E+03 0.  0.
        -13    1    1    2    0    0  0.12994200100E+03 -0.19932941395E+03  0.40795009405E+03  0.47227156307E+03  0.10566000000E+00 0.  1.
         13    1    3    3    0    0  0.33458600640E+03 -0.21153151302E+03  0.26204712209E+03  0.47472316358E+03  0.10566000000E+00 0. -1.
          2    1    1    2  502    0  0.11325555026E+03  0.43710608655E+03 -0.57523538509E+03  0.73128947676E+03  0.00000000000E+00 0.  1.
         -4    1    3    3    0  502 -0.57778355766E+03 -0.26245159579E+02  0.28066958839E+03  0.64288262206E+03  0.00000000000E+00 0. -1.
</event>
<event>
 7    1  0.4894942E-006  0.1244500E+04  0.7818608E-02  0.8844089E-01
         -4   -1    0    0    0  501 -0.00000000000E+00  0.00000000000E+00  0.18524534368E+04  0.18524534368E+04  0.00000000000E+00 0. -1.
          4   -1    0    0  501    0  0.00000000000E+00 -0.00000000000E+00 -0.20854370717E+04  0.20854370717E+04  0.00000000000E+00 0.  1.
   -9000010    2    1    2    0  502  0.51227690329E+03 -0.77590697772E+02  0.89895798264E+03  0.14477455236E+04  0.10096502883E+04 0.  0.
        -13    1    1    2    0    0  0.77800920297E+02 -0.37891092680E+03  0.53713462286E+03  0.66192151188E+03  0.10566000000E+00 0.  1.
         13    1    3    3    0    0  0.28256404325E+03 -0.22682645222E+03 -0.12845642144E+03  0.38443951584E+03  0.10566000000E+00 0. -1.
          4    1    1    2  502    0 -0.59007782359E+03  0.45650162457E+03 -0.16690762404E+04  0.18282234730E+04  0.00000000000E+00 0.  1.
         -4    1    3    3    0  502  0.22971286004E+03  0.14923575445E+03  0.10274144041E+04  0.10633060078E+04  0.00000000000E+00 0. -1.
</event>
<event>
 7    1  0.4894942E-006  0.9840273E+03  0.7818608E-02  0.9354814E-01
          2   -1    0    0  501    0  0.00000000000E+00  0.00000000000E+00  0.17202403840E+04  0.17202403840E+04  0.00000000000E+00 0. -1.
         -4   -1    0    0    0  501 -0.00000000000E+00 -0.00000000000E+00 -0.24924327748E+03  0.24924327748E+03  0.00000000000E+00 0. -1.
   -9000010    2    1    2    0  502  0.52272651379E+02 -0.31915307461E+02  0.10301442749E+04  0.14221683254E+04  0.97857779539E+03 0.  0.
        -13    1    1    2    0    0 -0.67624244101E+02  0.80848654631E+02  0.19433488563E+01  0.10541978521E+03  0.10566000000E+00 0.  1.
         13    1    3    3    0    0 -0.27929057767E+02  0.45854950392E+03  0.33919707581E+03  0.57105371658E+03  0.10566000000E+00 0. -1.
          2    1    1    2  502    0  0.15351592722E+02 -0.48933347170E+02  0.43890948267E+03  0.44189555083E+03  0.00000000000E+00 0. -1.
         -4    1    3    3    0  502  0.80201709146E+02 -0.49046481138E+03  0.69094719913E+03  0.85111460881E+03  0.00000000000E+00 0. -1.
</event>
<event>
 7    1  0.4894942E-006  0.1143886E+04  0.7818608E-02  0.8821567E-01
         -4   -1    0    0    0  501 -0.00000000000E+00  0.00000000000E+00  0.16484380443E+04  0.16484380443E+04  0.00000000000E+00 0. -1.
          2   -1    0    0  501    0  0.00000000000E+00 -0.00000000000E+00 -0.78333556374E+03  0.78333556374E+03  0.00000000000E+00 0.  1.
   -9000010    2    1    2    0  502 -0.91185166422E+02  0.54708786317E+03  0.10998629488E+04  0.15893243207E+04  0.10043074358E+04 0.  0.
        -13    1    1    2    0    0  0.10820643103E+03 -0.52987202280E+03  0.62317650706E+02  0.54438634536E+03  0.10566000000E+00 0.  1.
         13    1    3    3    0    0  0.23955745978E+03 -0.21159471192E+03  0.30281970615E+03  0.44029522396E+03  0.10566000000E+00 0. -1.
          2    1    1    2  502    0 -0.17021264611E+02 -0.17215840369E+02 -0.29707811895E+03  0.29806294196E+03  0.00000000000E+00 0.  1.
         -4    1    3    3    0  502 -0.33074262620E+03  0.75868257509E+03  0.79704324267E+03  0.11490290968E+04  0.00000000000E+00 0. -1.
</event>
<event>
 7    1  0.4894942E-006  0.1046601E+04  0.7818608E-02  0.9023373E-01
          4   -1    0    0  501    0 -0.00000000000E+00  0.00000000000E+00  0.23557447093E+03  0.23557447093E+03  0.00000000000E+00 0.  1.
          2   -1    0    0  502    0  0.00000000000E+00 -0.00000000000E+00 -0.38422990887E+04  0.38422990887E+04  0.00000000000E+00 0.  1.
    9000010    2    1    2  502    0 -0.99657220181E+02 -0.24244411690E+03 -0.15619456484E+04  0.18726473140E+04  0.99921121015E+03 0.  0.
        -13    1    3    3    0    0  0.88624466831E+02 -0.61193726588E+03 -0.93350234079E+03  0.11197089554E+04  0.10566000000E+00 0.  1.
         13    1    1    2    0    0  0.24048414422E+03  0.21939321637E+03 -0.26504244294E+03  0.41977793502E+03  0.10566000000E+00 0. -1.
          2    1    1    2  501    0 -0.14082692404E+03  0.23050900534E+02 -0.17797365264E+04  0.17854483107E+04  0.00000000000E+00 0.  1.
          4    1    3    3  502    0 -0.18828168701E+03  0.36949314897E+03 -0.62844330765E+03  0.75293835853E+03  0.00000000000E+00 0.  1.
</event>
<event>
 7    1  0.4894942E-006  0.9993889E+03  0.7818608E-02  0.9259796E-01
          2   -1    0    0  502    0  0.00000000000E+00  0.00000000000E+00  0.14992561589E+04  0.14992561589E+04  0.00000000000E+00 0.  1.
          4   -1    0    0  501    0 -0.00000000000E+00 -0.00000000000E+00 -0.60388554804E+03  0.60388554804E+03  0.00000000000E+00 0.  1.
    9000010    2    1    2  502    0 -0.71149788314E+02 -0.10679240071E+03  0.20679199040E+03  0.10188248622E+04  0.98933020941E+03 0.  0.
        -13    1    3    3    0    0 -0.35238042318E+03  0.18847481951E+03 -0.19649524489E+03  0.44531462210E+03  0.10566000000E+00 0.  1.
         13    1    1    2    0    0  0.84739147134E+02  0.11392837009E+03 -0.17231999491E+03  0.22328141073E+03  0.10566000000E+00 0. -1.
          2    1    1    2  501    0 -0.13589358821E+02 -0.71359693851E+01  0.86089861536E+03  0.86103543403E+03  0.00000000000E+00 0.  1.
          4    1    3    3  502    0  0.28123063486E+03 -0.29526722022E+03  0.40328723529E+03  0.57351024007E+03  0.00000000000E+00 0.  1.
</event>
<event>
 7    1  0.4894942E-006  0.1174590E+04  0.7818608E-02  0.8767126E-01
          2   -1    0    0  502    0  0.00000000000E+00  0.00000000000E+00  0.17571983353E+04  0.17571983353E+04  0.00000000000E+00 0.  1.
          4   -1    0    0  501    0 -0.00000000000E+00 -0.00000000000E+00 -0.89423313570E+03  0.89423313570E+03  0.00000000000E+00 0.  1.
    9000010    2    1    2  502    0 -0.27268114384E+03  0.57659722341E+03 -0.24032354322E+03  0.11993495371E+04  0.98684575412E+03 0.  0.
        -13    1    3    3    0    0 -0.31561728731E+03  0.50280847216E+02  0.30391578232E+03  0.44102976039E+03  0.10566000000E+00 0.  1.
         13    1    1    2    0    0  0.28196306598E+03 -0.57019884370E+03  0.40584323027E+03  0.75454531385E+03  0.10566000000E+00 0. -1.
          2    1    1    2  501    0 -0.92819221341E+01 -0.63983797038E+01  0.69744551255E+03  0.69753662006E+03  0.00000000000E+00 0.  1.
          4    1    3    3  502    0  0.42936143469E+02  0.52631637619E+03 -0.54423932554E+03  0.75831977669E+03  0.00000000000E+00 0.  1.
</event>
<event>
 7    1  0.4894942E-006  0.1099090E+04  0.7818608E-02  0.9022123E-01
          4   -1    0    0  501    0  0.00000000000E+00  0.00000000000E+00  0.85129326188E+03  0.85129326188E+03  0.00000000000E+00 0.  1.
         -4   -1    0    0    0  501 -0.00000000000E+00 -0.00000000000E+00 -0.13054006110E+04  0.13054006110E+04  0.00000000000E+00 0. -1.
   -9000010    2    1    2    0  502 -0.32175529418E+03  0.23871345676E+02 -0.73536177167E+03  0.12655497862E+04  0.97814263564E+03 0.  0.
        -13    1    1    2    0    0 -0.17598162086E+03  0.20504737190E+03  0.20247396905E+03  0.33765318733E+03  0.10566000000E+00 0.  1.
         13    1    3    3    0    0 -0.64947334120E+03 -0.10092649354E+03 -0.59907524062E+03  0.88932161399E+03  0.10566000000E+00 0. -1.
          4    1    1    2  502    0  0.49773691504E+03 -0.22891871758E+03  0.78780453459E+02  0.55349089938E+03  0.00000000000E+00 0.  1.
         -4    1    3    3    0  502  0.32771804703E+03  0.12479783921E+03 -0.13628653105E+03  0.37622817221E+03  0.00000000000E+00 0. -1.
</event>
<event>
 7    1  0.4894942E-006  0.1050053E+04  0.7818608E-02  0.9669986E-01
         -4   -1    0    0    0  501 -0.00000000000E+00  0.00000000000E+00  0.29483367234E+03  0.29483367234E+03  0.00000000000E+00 0. -1.
          2   -1    0    0  501    0  0.00000000000E+00 -0.00000000000E+00 -0.24005579434E+04  0.24005579434E+04  0.00000000000E+00 0. -1.
   -9000010    2    1    2    0  502  0.10595333043E+02  0.94853842900E+01 -0.87638966023E+03  0.13675289495E+04  0.10497020328E+04 0.  0.
        -13    1    1    2    0    0 -0.63586862302E+01 -0.26459386995E+02  0.45441390643E+02  0.52966623438E+02  0.10566000000E+00 0.  1.
         13    1    3    3    0    0  0.27396323406E+03  0.43083990227E+03 -0.25146251647E+03  0.56913292240E+03  0.10566000000E+00 0. -1.
          2    1    1    2  502    0 -0.42366468128E+01  0.16974002705E+02 -0.12747760015E+04  0.12748960428E+04  0.00000000000E+00 0. -1.
         -4    1    3    3    0  502 -0.26336790102E+03 -0.42135451798E+03 -0.62492714376E+03  0.79839602712E+03  0.00000000000E+00 0. -1.
</event>
<event>
 7    1  0.4894942E-006  0.1347325E+04  0.7818608E-02  0.8951539E-01
          2   -1    0    0  501    0  0.00000000000E+00  0.00000000000E+00  0.10432808412E+04  0.10432808412E+04  0.00000000000E+00 0. -1.
         -4   -1    0    0    0  501 -0.00000000000E+00 -0.00000000000E+00 -0.24177087411E+04  0.24177087411E+04  0.00000000000E+00 0. -1.
   -9000010    2    1    2    0  502 -0.30585469885E+03 -0.66425887442E+03 -0.12504449951E+04  0.17638437873E+04  0.10063524588E+04 0.  0.
        -13    1    1    2    0    0 -0.94611970549E+02 -0.17090205266E+03 -0.61749705273E+03  0.64765851949E+03  0.10566000000E+00 0.  1.
         13    1    3    3    0    0  0.13138076274E+03 -0.19557362567E+03  0.10995923906E+03  0.26000191017E+03  0.10566000000E+00 0. -1.
          2    1    1    2  502    0  0.40046666940E+03  0.83516092708E+03  0.49351414787E+03  0.10494872756E+04  0.00000000000E+00 0. -1.
         -4    1    3    3    0  502 -0.43723546159E+03 -0.46868524876E+03 -0.13604042341E+04  0.15038418771E+04  0.00000000000E+00 0. -1.
</event>
<event>
 7    1  0.4894942E-006  0.1030518E+04  0.7818608E-02  0.9099490E-01
         -4   -1    0    0    0  501 -0.00000000000E+00  0.00000000000E+00  0.29880503235E+04  0.29880503235E+04  0.00000000000E+00 0. -1.
          1   -1    0    0  501    0  0.00000000000E+00 -0.00000000000E+00 -0.51036488054E+03  0.51036488054E+03  0.00000000000E+00 0.  1.
   -9000010    2    1    2    0  502 -0.19353701329E+03  0.12348719646E+03  0.24808333836E+04  0.26853794199E+04  0.10020093257E+04 0.  0.
        -13    1    1    2    0    0  0.21809397142E+03 -0.11171003530E+03  0.36732884027E+03  0.44155928301E+03  0.10566000000E+00 0.  1.
         13    1    3    3    0    0 -0.13854858793E+03  0.40267118703E+03  0.39695098462E+03  0.58215967864E+03  0.10566000000E+00 0. -1.
          1    1    1    2  502    0 -0.24556958135E+02 -0.11777161163E+02 -0.37047678086E+03  0.37147650111E+03  0.00000000000E+00 0.  1.
         -4    1    3    3    0  502 -0.54988425363E+02 -0.27918399057E+03  0.20838823989E+04  0.21032197413E+04  0.00000000000E+00 0. -1.
</event>
<event>
 7    1  0.4894942E-006  0.1164462E+04  0.7818608E-02  0.8749125E-01
          4   -1    0    0  501    0  0.00000000000E+00  0.00000000000E+00  0.86338724839E+03  0.86338724839E+03  0.00000000000E+00 0.  1.
          4   -1    0    0  502    0 -0.00000000000E+00 -0.00000000000E+00 -0.31001922167E+04  0.31001922167E+04  0.00000000000E+00 0.  1.
    9000010    2    1    2  501    0 -0.55891833434E+03  0.33174705883E+03 -0.99434870706E+02  0.11356859591E+04  0.92598568496E+03 0.  0.
        -13    1    3    3    0    0 -0.47169182457E+03 -0.71780343794E+02  0.29807178767E+03  0.56257656981E+03  0.10566000000E+00 0.  1.
         13    1    1    2    0    0  0.59005857561E+03 -0.39791405186E+03 -0.24269885278E+04  0.25291852524E+04  0.10566000000E+00 0. -1.
          4    1    3    3  501    0 -0.87226509770E+02  0.40352740262E+03 -0.39750665838E+03  0.57310938932E+03  0.00000000000E+00 0.  1.
          4    1    1    2  502    0 -0.31140241270E+02  0.66166993031E+02  0.28961843027E+03  0.29870825356E+03  0.00000000000E+00 0.  1.
</event>
<event>
 7    1  0.4894942E-006  0.1000554E+04  0.7818608E-02  0.9154425E-01
          2   -1    0    0  501    0  0.00000000000E+00  0.00000000000E+00  0.12091201635E+04  0.12091201635E+04  0.00000000000E+00 0.  1.
         -4   -1    0    0    0  501 -0.00000000000E+00 -0.00000000000E+00 -0.13116016997E+04  0.13116016997E+04  0.00000000000E+00 0. -1.
   -9000010    2    1    2    0  502 -0.13115902164E+03  0.16700159113E+03  0.14710634070E+03  0.10114120046E+04  0.97786591471E+03 0.  0.
        -13    1    1    2    0    0  0.11712334827E+03 -0.17654881411E+03 -0.86657035197E+03  0.89209391241E+03  0.10566000000E+00 0.  1.
         13    1    3    3    0    0  0.94272765009E+02 -0.16473431404E+03 -0.33454086789E+03  0.38463274938E+03  0.10566000000E+00 0. -1.
          2    1    1    2  502    0  0.14035673374E+02  0.95472229857E+01  0.61698247515E+03  0.61721594619E+03  0.00000000000E+00 0.  1.
         -4    1    3    3    0  502 -0.22543178665E+03  0.33173590516E+03  0.48164720859E+03  0.62677925520E+03  0.00000000000E+00 0. -1.
</event>
<event>
 7    1  0.4894942E-006  0.1132821E+04  0.7818608E-02  0.8837552E-01
         -4   -1    0    0    0  501 -0.00000000000E+00  0.00000000000E+00  0.11489430069E+04  0.11489430069E+04  0.00000000000E+00 0. -1.
          2   -1    0    0  501    0  0.00000000000E+00 -0.00000000000E+00 -0.75121680273E+03  0.75121680273E+03  0.00000000000E+00 0. -1.
   -9000010    2    1    2    0  502 -0.12202049955E+03  0.50816502322E+03  0.19270049111E+03  0.11470286398E+04  0.10027066012E+04 0.  0.
        -13    1    1    2    0    0  0.20056679682E+03 -0.49059974714E+03  0.31522414350E+03  0.61666962280E+03  0.10566000000E+00 0.  1.
         13    1    3    3    0    0 -0.16102903122E+03  0.79434904863E+03  0.25862772872E+03  0.85076969456E+03  0.10566000000E+00 0. -1.
          2    1    1    2  502    0 -0.78546297262E+02 -0.17565276074E+02 -0.11019843049E+03  0.13646154703E+03  0.00000000000E+00 0. -1.
         -4    1    3    3    0  502  0.39008531669E+02 -0.28618402542E+03 -0.65927237609E+02  0.29625894519E+03  0.00000000000E+00 0. -1.
</event>
<event>
 7    1  0.4894942E-006  0.1114969E+04  0.7818608E-02  0.8872945E-01
          2   -1    0    0  502    0  0.00000000000E+00  0.00000000000E+00  0.11626934572E+04  0.11626934572E+04  0.00000000000E+00 0.  1.
          4   -1    0    0  501    0 -0.00000000000E+00 -0.00000000000E+00 -0.11872442212E+04  0.11872442212E+04  0.00000000000E+00 0.  1.
    9000010    2    1    2  502    0 -0.38631009008E+03 -0.27809761202E+03 -0.13231923508E+03  0.11224537924E+04  0.10078791439E+04 0.  0.
        -13    1    3    3    0    0 -0.18564901084E+02 -0.18037715725E+03  0.41671246832E+03  0.45445557190E+03  0.10566000000E+00 0.  1.
         13    1    1    2    0    0  0.36449416332E+03  0.30801014440E+03 -0.45745262656E+03  0.66105155689E+03  0.10566000000E+00 0. -1.
          2    1    1    2  501    0  0.21815926766E+02 -0.29912532385E+02  0.56522109760E+03  0.56643232908E+03  0.00000000000E+00 0.  1.
          4    1    3    3  502    0 -0.36774518900E+03 -0.97720454766E+02 -0.54903170340E+03  0.66799822054E+03  0.00000000000E+00 0.  1.
</event>
<event>
 7    1  0.4894942E-006  0.1045326E+04  0.7818608E-02  0.9123878E-01
         -4   -1    0    0    0  501 -0.00000000000E+00  0.00000000000E+00  0.14533158992E+04  0.14533158992E+04  0.00000000000E+00 0. -1.
          2   -1    0    0  501    0  0.00000000000E+00 -0.00000000000E+00 -0.17005663723E+04  0.17005663723E+04  0.00000000000E+00 0.  1.
   -9000010    2    1    2    0  502 -0.92589964964E+01  0.87316463533E+02 -0.52531502551E+03  0.11421044301E+04  0.10103151782E+04 0.  0.
        -13    1    1    2    0    0 -0.14987671659E+03  0.14632038736E+03  0.11118333030E+04  0.11313911749E+04  0.10566000000E+00 0.  1.
         13    1    3    3    0    0 -0.23409964140E+03 -0.38842111660E+03 -0.39160196269E+03  0.59918754516E+03  0.10566000000E+00 0. -1.
          2    1    1    2  502    0  0.15913571309E+03 -0.23363685089E+03 -0.83376875050E+03  0.88038666652E+03  0.00000000000E+00 0.  1.
         -4    1    3    3    0  502  0.22484064491E+03  0.47573758013E+03 -0.13371306282E+03  0.54291688491E+03  0.00000000000E+00 0. -1.
</event>
<event>
 7    1  0.4894942E-006  0.1035938E+04  0.7818608E-02  0.9076520E-01
          2   -1    0    0  501    0  0.00000000000E+00  0.00000000000E+00  0.23906709948E+04  0.23906709948E+04  0.00000000000E+00 0. -1.
         -4   -1    0    0    0  501 -0.00000000000E+00 -0.00000000000E+00 -0.25776047414E+03  0.25776047414E+03  0.00000000000E+00 0. -1.
   -9000010    2    1    2    0  502  0.25114312813E+03 -0.10510035150E+03  0.13824993103E+04  0.17295116665E+04  0.10028894790E+04 0.  0.
        -13    1    1    2    0    0 -0.23521931362E+03  0.10594521838E+03  0.11355487483E+03  0.28186385997E+03  0.10566000000E+00 0.  1.
         13    1    3    3    0    0  0.56115745637E+03  0.18684433632E+03  0.97341964726E+03  0.11390146258E+04  0.10566000000E+00 0. -1.
          2    1    1    2  502    0 -0.15923814512E+02 -0.84486687475E+00  0.63685633556E+03  0.63705594245E+03  0.00000000000E+00 0. -1.
         -4    1    3    3    0  502 -0.31001432824E+03 -0.29194468783E+03  0.40907966302E+03  0.59049704077E+03  0.00000000000E+00 0. -1.
</event>
<event>
 7    1  0.4894942E-006  0.9868674E+03  0.7818608E-02  0.9296933E-01
         -4   -1    0    0    0  501 -0.00000000000E+00  0.00000000000E+00  0.14192547931E+04  0.14192547931E+04  0.00000000000E+00 0. -1.
          1   -1    0    0  501    0  0.00000000000E+00 -0.00000000000E+00 -0.68577581083E+03  0.68577581083E+03  0.00000000000E+00 0. -1.
   -9000010    2    1    2    0  502 -0.16801334462E+03  0.91040299652E+01  0.11788028862E+04  0.15412768530E+04  0.97859425997E+03 0.  0.
        -13    1    1    2    0    0  0.11436623775E+03 -0.86296985559E+01  0.52101020909E+00  0.11469259196E+03  0.10566000000E+00 0.  1.
         13    1    3    3    0    0 -0.10075269914E+03 -0.47506189251E+03  0.73565068121E+03  0.88148558924E+03  0.10566000000E+00 0. -1.
          1    1    1    2  502    0  0.53647106864E+02 -0.47433140930E+00 -0.44584491414E+03  0.44906115900E+03  0.00000000000E+00 0. -1.
         -4    1    3    3    0  502 -0.67260645472E+02  0.48416592248E+03  0.44315220502E+03  0.65979126375E+03  0.00000000000E+00 0. -1.
</event>
<event>
 7    1  0.4894942E-006  0.1296863E+04  0.7818608E-02  0.8632956E-01
         -4   -1    0    0    0  501 -0.00000000000E+00  0.00000000000E+00  0.24255750335E+04  0.24255750335E+04  0.00000000000E+00 0. -1.
          2   -1    0    0  501    0  0.00000000000E+00 -0.00000000000E+00 -0.71583738860E+03  0.71583738860E+03  0.00000000000E+00 0.  1.
   -9000010    2    1    2    0  502  0.74208702985E+03 -0.41224531075E+03  0.17255622101E+04  0.21596407047E+04  0.98277346145E+03 0.  0.
        -13    1    1    2    0    0 -0.74679044799E+03  0.38838691870E+03  0.11422942537E+03  0.84946379829E+03  0.10566000000E+00 0.  1.
         13    1    3    3    0    0  0.13972254956E+03 -0.34052108854E+03  0.14452574884E+04  0.14913907005E+04  0.10566000000E+00 0. -1.
          2    1    1    2  502    0  0.47034181380E+01  0.23858392048E+02 -0.13005399052E+03  0.13230791912E+03  0.00000000000E+00 0.  1.
         -4    1    3    3    0  502  0.60236448028E+03 -0.71724222217E+02  0.28030472170E+03  0.66825000424E+03  0.00000000000E+00 0. -1.
</event>
<event>
 7    1  0.4894942E-006  0.1321593E+04  0.7818608E-02  0.8616111E-01
          2   -1    0    0  502    0  0.00000000000E+00  0.00000000000E+00  0.10893822415E+04  0.10893822415E+04  0.00000000000E+00 0.  1.
          4   -1    0    0  501    0 -0.00000000000E+00 -0.00000000000E+00 -0.11848578734E+04  0.11848578734E+04  0.00000000000E+00 0.  1.
    9000010    2    1    2  502    0  0.86035180582E+03 -0.17483107493E+03 -0.57291964349E+02  0.13338005286E+04  0.10024820927E+04 0.  0.
        -13    1    3    3    0    0  0.10373374019E+04 -0.56757461699E+02  0.13424732429E+03  0.10475269209E+04  0.10566000000E+00 0.  1.
         13    1    1    2    0    0 -0.84515794038E+03  0.10752908729E+03 -0.86288723473E+02  0.85632949486E+03  0.10566000000E+00 0. -1.
          2    1    1    2  501    0 -0.15193865440E+02  0.67301987639E+02  0.48105055975E+02  0.84110091532E+02  0.00000000000E+00 0.  1.
          4    1    3    3  502    0 -0.17698559605E+03 -0.11807361323E+03 -0.19153928864E+03  0.28627360766E+03  0.00000000000E+00 0.  1.
</event>
<event>
 7    1  0.4894942E-006  0.1068908E+04  0.7818608E-02  0.8967097E-01
          2   -1    0    0  501    0  0.00000000000E+00  0.00000000000E+00  0.11083360753E+04  0.11083360753E+04  0.00000000000E+00 0. -1.
         -4   -1    0    0    0  501 -0.00000000000E+00 -0.00000000000E+00 -0.12037388798E+04  0.12037388798E+04  0.00000000000E+00 0. -1.
   -9000010    2    1    2    0  502  0.27043834534E+03 -0.23027334941E+03 -0.72721919206E+03  0.12894978788E+04  0.10038895915E+04 0.  0.
        -13    1    1    2    0    0 -0.27738947708E+03  0.25207179501E+03 -0.15233408013E+02  0.37512288615E+03  0.10566000000E+00 0.  1.
         13    1    3    3    0    0  0.26488394726E+03 -0.27343528288E+03  0.15147583921E+03  0.40972588455E+03  0.10566000000E+00 0. -1.
          2    1    1    2  502    0  0.69511317373E+01 -0.21798445597E+02  0.64704979553E+03  0.64745419017E+03  0.00000000000E+00 0. -1.
         -4    1    3    3    0  502  0.55543980767E+01  0.43161933469E+02 -0.87869503127E+03  0.87977199422E+03  0.00000000000E+00 0. -1.
</event>
<event>
 7    1  0.4894942E-006  0.1099255E+04  0.7818608E-02  0.8952412E-01
          2   -1    0    0  502    0  0.00000000000E+00  0.00000000000E+00  0.37983777192E+03  0.37983777192E+03  0.00000000000E+00 0.  1.
          4   -1    0    0  501    0 -0.00000000000E+00 -0.00000000000E+00 -0.21674719175E+04  0.21674719175E+04  0.00000000000E+00 0.  1.
    9000010    2    1    2  502    0  0.33232215520E+03  0.45794667064E+01 -0.10008386965E+04  0.14805563733E+04  0.10391872265E+04 0.  0.
        -13    1    3    3    0    0  0.90062732271E+02 -0.51457759939E+02  0.21544543555E+03  0.23911491728E+03  0.10566000000E+00 0.  1.
         13    1    1    2    0    0 -0.36223405280E+03  0.53509103594E+01 -0.88890367806E+03  0.95989160913E+03  0.10566000000E+00 0. -1.
          2    1    1    2  501    0  0.29911897600E+02 -0.99303770658E+01  0.10210822896E+03  0.10686170703E+03  0.00000000000E+00 0.  1.
          4    1    3    3  502    0  0.24225942293E+03  0.56037226645E+02 -0.12162841321E+04  0.12414414560E+04  0.00000000000E+00 0.  1.
</event>
<event>
 7    1  0.4894942E-006  0.1016954E+04  0.7818608E-02  0.9160541E-01
         -4   -1    0    0    0  501 -0.00000000000E+00  0.00000000000E+00  0.44170433659E+03  0.44170433659E+03  0.00000000000E+00 0. -1.
          1   -1    0    0  501    0  0.00000000000E+00 -0.00000000000E+00 -0.22280778397E+04  0.22280778397E+04  0.00000000000E+00 0.  1.
   -9000010    2    1    2    0  502  0.88522207386E+02 -0.30078318406E+03 -0.14146556583E+04  0.17592445438E+04  0.99768934463E+03 0.  0.
        -13    1    1    2    0    0 -0.21437961050E+02  0.19328667499E+03  0.22679641874E+03  0.29875734572E+03  0.10566000000E+00 0.  1.
         13    1    3    3    0    0  0.30447946838E+03 -0.16250434547E+03 -0.14587716614E+04  0.14990430882E+04  0.10566000000E+00 0. -1.
          1    1    1    2  502    0 -0.67084246336E+02  0.10749650907E+03 -0.59851426359E+03  0.61178028677E+03  0.00000000000E+00 0.  1.
         -4    1    3    3    0  502 -0.21595726099E+03 -0.13827883858E+03  0.44116003122E+02  0.26020145562E+03  0.00000000000E+00 0. -1.
</event>
<event>
 7    1  0.4894942E-006  0.1332809E+04  0.7818608E-02  0.8601655E-01
          2   -1    0    0  502    0  0.00000000000E+00  0.00000000000E+00  0.14876600435E+04  0.14876600435E+04  0.00000000000E+00 0.  1.
          4   -1    0    0  501    0 -0.00000000000E+00 -0.00000000000E+00 -0.19568124664E+04  0.19568124664E+04  0.00000000000E+00 0.  1.
    9000010    2    1    2  502    0  0.17917756007E+02  0.89085713453E+03 -0.12746200754E+04  0.18422315198E+04  0.98752881272E+03 0.  0.
        -13    1    3    3    0    0 -0.23192516808E+02  0.10216744129E+04 -0.66937246998E+03  0.12216447985E+04  0.10566000000E+00 0.  1.
         13    1    1    2    0    0 -0.20160818081E+02 -0.90213319604E+03  0.11268984309E+03  0.90936778802E+03  0.10566000000E+00 0. -1.
          2    1    1    2  501    0  0.22430620742E+01  0.11276061516E+02  0.69277780939E+03  0.69287320202E+03  0.00000000000E+00 0.  1.
          4    1    3    3  502    0  0.41110272815E+02 -0.13081727842E+03 -0.60524760542E+03  0.62058672136E+03  0.00000000000E+00 0.  1.
</event>
<event>
 7    1  0.4894942E-006  0.1015429E+04  0.7818608E-02  0.9182598E-01
         -4   -1    0    0    0  501 -0.00000000000E+00  0.00000000000E+00  0.86859930131E+03  0.86859930131E+03  0.00000000000E+00 0. -1.
          1   -1    0    0  501    0  0.00000000000E+00 -0.00000000000E+00 -0.98747494379E+03  0.98747494379E+03  0.00000000000E+00 0.  1.
   -9000010    2    1    2    0  502  0.69298416048E+01 -0.13588994785E+03  0.15459966780E+03  0.10200664116E+04  0.99905972104E+03 0.  0.
        -13    1    1    2    0    0 -0.17405203964E+03  0.78185574781E+02  0.23206907042E+03  0.30043828188E+03  0.10566000000E+00 0.  1.
         13    1    3    3    0    0 -0.20312341343E+03  0.39050683925E+03  0.93763992249E+02  0.45005156370E+03  0.10566000000E+00 0. -1.
          1    1    1    2  502    0  0.16712219803E+03  0.57704373070E+02 -0.50554438070E+03  0.53556955161E+03  0.00000000000E+00 0.  1.
         -4    1    3    3    0  502  0.21005325503E+03 -0.52639678710E+03  0.60835675551E+02  0.57001484791E+03  0.00000000000E+00 0. -1.
</event>
<event>
 7    1  0.4894942E-006  0.1124317E+04  0.7818608E-02  0.8781026E-01
          1   -1    0    0  501    0  0.00000000000E+00  0.00000000000E+00  0.93482211983E+03  0.93482211983E+03  0.00000000000E+00 0.  1.
         -4   -1    0    0    0  501 -0.00000000000E+00 -0.00000000000E+00 -0.23588309177E+04  0.23588309177E+04  0.00000000000E+00 0. -1.
   -9000010    2    1    2    0  502 -0.81448812473E+03  0.33183820146E+03 -0.74462840290E+03  0.14571799050E+04  0.89184882115E+03 0.  0.
        -13    1    1    2    0    0  0.63900060578E+03  0.21254743217E+03 -0.98095948771E+03  0.11898654179E+04  0.10566000000E+00 0.  1.
         13    1    3    3    0    0 -0.65732401690E+03 -0.19470924500E+03 -0.29154194043E+03  0.74497199107E+03  0.10566000000E+00 0. -1.
          1    1    1    2  502    0  0.17548751895E+03 -0.54438563363E+03  0.30157909274E+03  0.64660771461E+03  0.00000000000E+00 0.  1.
         -4    1    3    3    0  502 -0.15716410783E+03  0.52654744646E+03 -0.45308646246E+03  0.71220791391E+03  0.00000000000E+00 0. -1.
</event>
<event>
 7    1  0.4894942E-006  0.1024805E+04  0.7818608E-02  0.9164135E-01
          2   -1    0    0  501    0  0.00000000000E+00  0.00000000000E+00  0.18920275670E+04  0.18920275670E+04  0.00000000000E+00 0. -1.
         -4   -1    0    0    0  501 -0.00000000000E+00 -0.00000000000E+00 -0.37691435605E+03  0.37691435605E+03  0.00000000000E+00 0. -1.
   -9000010    2    1    2    0  502 -0.13582130836E+03  0.13299916508E+03  0.67280885916E+03  0.12259679840E+04  0.10070697747E+04 0.  0.
        -13    1    1    2    0    0  0.12087905979E+03 -0.14645745234E+03 -0.10256885018E+02  0.19017556966E+03  0.10566000000E+00 0.  1.
         13    1    3    3    0    0  0.10892313270E+01 -0.15738004008E+03 -0.22381065105E+03  0.27360716754E+03  0.10566000000E+00 0. -1.
          2    1    1    2  502    0  0.14942248565E+02  0.13458287263E+02  0.85256123677E+03  0.85279836933E+03  0.00000000000E+00 0. -1.
         -4    1    3    3    0  502 -0.13691053968E+03  0.29037920516E+03  0.89661951021E+03  0.95236081648E+03  0.00000000000E+00 0. -1.
</event>
<event>
 7    1  0.4894942E-006  0.1239491E+04  0.7818608E-02  0.8837861E-01
          2   -1    0    0  501    0  0.00000000000E+00  0.00000000000E+00  0.15541319790E+04  0.15541319790E+04  0.00000000000E+00 0. -1.
         -4   -1    0    0    0  501 -0.00000000000E+00 -0.00000000000E+00 -0.22327503697E+04  0.22327503697E+04  0.00000000000E+00 0. -1.
   -9000010    2    1    2    0  502  0.12176828419E+03 -0.70854073537E+03  0.26912476968E+03  0.12449430282E+04  0.98010076675E+03 0.  0.
        -13    1    1    2    0    0  0.39224708663E+03  0.87497480320E+02 -0.15077237022E+04  0.15603667387E+04  0.10566000000E+00 0.  1.
         13    1    3    3    0    0 -0.91702880394E+02  0.23282797867E+03  0.55691062104E+02  0.25635871642E+03  0.10566000000E+00 0. -1.
          2    1    1    2  502    0 -0.51401537082E+03  0.62104325505E+03  0.55998054188E+03  0.98157258181E+03  0.00000000000E+00 0. -1.
         -4    1    3    3    0  502  0.21347116458E+03 -0.94136871404E+03  0.21343370758E+03  0.98858431173E+03  0.00000000000E+00 0. -1.
</event>
<event>
 7    1  0.4894942E-006  0.1027932E+04  0.7818608E-02  0.9016771E-01
         -4   -1    0    0    0  501 -0.00000000000E+00  0.00000000000E+00  0.47908068969E+03  0.47908068969E+03  0.00000000000E+00 0. -1.
          2   -1    0    0  501    0  0.00000000000E+00 -0.00000000000E+00 -0.18607357099E+04  0.18607357099E+04  0.00000000000E+00 0. -1.
   -9000010    2    1    2    0  502  0.23521663747E+03 -0.34850040255E+03 -0.22738972277E+03  0.10822303878E+04  0.97094651194E+03 0.  0.
        -13    1    1    2    0    0 -0.50296960598E+02  0.27795248510E+03 -0.50269741014E+03  0.57662124965E+03  0.10566000000E+00 0.  1.
         13    1    3    3    0    0 -0.18915747531E+03 -0.46681755236E+03  0.12397091315E+03  0.51871762659E+03  0.10566000000E+00 0. -1.
          2    1    1    2  502    0 -0.18491967687E+03  0.70547917450E+02 -0.65156788728E+03  0.68096476215E+03  0.00000000000E+00 0. -1.
         -4    1    3    3    0  502  0.42437411278E+03  0.11831714981E+03 -0.35136063592E+03  0.56351276118E+03  0.00000000000E+00 0. -1.
</event>
<event>
 7    1  0.4894942E-006  0.1012645E+04  0.7818608E-02  0.9190678E-01
         -4   -1    0    0    0  501 -0.00000000000E+00  0.00000000000E+00  0.39976323429E+03  0.39976323429E+03  0.00000000000E+00 0. -1.
          2   -1    0    0  501    0  0.00000000000E+00 -0.00000000000E+00 -0.27805926531E+04  0.27805926531E+04  0.00000000000E+00 0. -1.
   -9000010    2    1    2    0  502  0.22463057782E+02 -0.18069202548E+03 -0.11900859742E+04  0.15631455991E+04  0.99697810455E+03 0.  0.
        -13    1    1    2    0    0  0.11866670508E+03  0.13399074024E+03  0.17090280615E+03  0.24747340398E+03  0.10566000000E+00 0.  1.
         13    1    3    3    0    0 -0.41357337215E+03 -0.30308299555E+03 -0.86540934093E+03  0.10059003802E+04  0.10566000000E+00 0. -1.
          2    1    1    2  502    0 -0.14112976286E+03  0.46701285239E+02 -0.13616462508E+04  0.13697368844E+04  0.00000000000E+00 0. -1.
         -4    1    3    3    0  502  0.43603642994E+03  0.12239097007E+03 -0.32467663322E+03  0.55724521886E+03  0.00000000000E+00 0. -1.
</event>
<event>
 7    1  0.4894942E-006  0.1003117E+04  0.7818608E-02  0.9318905E-01
         -4   -1    0    0    0  501 -0.00000000000E+00  0.00000000000E+00  0.41144757799E+03  0.41144757799E+03  0.00000000000E+00 0. -1.
          1   -1    0    0  501    0  0.00000000000E+00 -0.00000000000E+00 -0.91551302727E+03  0.91551302727E+03  0.00000000000E+00 0.  1.
   -9000010    2    1    2    0  502 -0.55376349257E+02  0.14849525225E+03 -0.30780040425E+03  0.10552806287E+04  0.99687448382E+03 0.  0.
        -13    1    1    2    0    0 -0.69566937019E+01 -0.10269255897E+03 -0.14878824139E+03  0.18092017354E+03  0.10566000000E+00 0.  1.
         13    1    3    3    0    0 -0.27387334498E+03  0.15922607656E+03  0.28330375954E+03  0.42499480453E+03  0.10566000000E+00 0. -1.
          1    1    1    2  502    0  0.62333042959E+02 -0.45802693283E+02 -0.47476803640E+02  0.90759802998E+02  0.00000000000E+00 0.  1.
         -4    1    3    3    0  502  0.21849699572E+03 -0.10730824306E+02 -0.59110416378E+03  0.63028582419E+03  0.00000000000E+00 0. -1.
</event>
<event>
 7    1  0.4894942E-006  0.1062274E+04  0.7818608E-02  0.9015787E-01
          2   -1    0    0  501    0  0.00000000000E+00  0.00000000000E+00  0.18582670799E+04  0.18582670799E+04  0.00000000000E+00 0. -1.
         -4   -1    0    0    0  501 -0.00000000000E+00 -0.00000000000E+00 -0.23710806813E+04  0.23710806813E+04  0.00000000000E+00 0. -1.
   -9000010    2    1    2    0  502  0.51978772430E+02  0.67437531033E+02 -0.79896582424E+03  0.12860361010E+04  0.10041378648E+04 0.  0.
        -13    1    1    2    0    0 -0.13918841239E+03  0.27366686031E+03 -0.12911704035E+04  0.13271729302E+04  0.10566000000E+00 0.  1.
         13    1    3    3    0    0 -0.70187682596E+02  0.32863723419E+03 -0.91534293277E+03  0.97508022143E+03  0.10566000000E+00 0. -1.
          2    1    1    2  502    0  0.87209639965E+02 -0.34110439134E+03  0.15773226263E+04  0.16161387300E+04  0.00000000000E+00 0. -1.
         -4    1    3    3    0  502  0.12216645503E+03 -0.26119970316E+03  0.11637710853E+03  0.31095587959E+03  0.00000000000E+00 0. -1.
</event>
<event>
 7    1  0.4894942E-006  0.1029497E+04  0.7818608E-02  0.9093983E-01
          2   -1    0    0  502    0  0.00000000000E+00  0.00000000000E+00  0.12028083415E+04  0.12028083415E+04  0.00000000000E+00 0. -1.
          4   -1    0    0  501    0 -0.00000000000E+00 -0.00000000000E+00 -0.17683821537E+04  0.17683821537E+04  0.00000000000E+00 0.  1.
    9000010    2    1    2  502    0  0.27408225822E+03 -0.27335630064E+02 -0.39758545230E+03  0.11103680964E+04  0.99948726690E+03 0.  0.
        -13    1    3    3    0    0 -0.36889033194E+03 -0.10566254841E+03 -0.20262594814E+03  0.43393771115E+03  0.10566000000E+00 0.  1.
         13    1    1    2    0    0 -0.24472595468E+03 -0.22530342092E+02 -0.99849869734E+03  0.10282986283E+04  0.10566000000E+00 0. -1.
          2    1    1    2  501    0 -0.29356303544E+02  0.49865972156E+02  0.83051033749E+03  0.83252377048E+03  0.00000000000E+00 0. -1.
          4    1    3    3  502    0  0.64297259016E+03  0.78326918350E+02 -0.19495950416E+03  0.67643038526E+03  0.00000000000E+00 0.  1.
</event>
<event>
 7    1  0.4894942E-006  0.1083351E+04  0.7818608E-02  0.9024441E-01
          4   -1    0    0  502    0  0.00000000000E+00  0.00000000000E+00  0.16496302635E+04  0.16496302635E+04  0.00000000000E+00 0.  1.
          4   -1    0    0  501    0 -0.00000000000E+00 -0.00000000000E+00 -0.28886391943E+03  0.28886391943E+03  0.00000000000E+00 0.  1.
    9000010    2    1    2  502    0  0.18400510082E+03 -0.19438213592E+03  0.10686088199E+04  0.15195640654E+04  0.10466651074E+04 0.  0.
        -13    1    3    3    0    0 -0.28515716798E+03  0.25184313712E+03  0.63519011653E+03  0.74040939450E+03  0.10566000000E+00 0.  1.
         13    1    1    2    0    0 -0.18743088516E+03  0.21152456101E+03  0.27196593566E+03  0.39222245977E+03  0.10566000000E+00 0. -1.
          4    1    1    2  501    0  0.34257843376E+01 -0.17142425093E+02  0.20191588596E+02  0.26707657823E+02  0.00000000000E+00 0.  1.
          4    1    3    3  502    0  0.46916226880E+03 -0.44622527303E+03  0.43341870333E+03  0.77915467088E+03  0.00000000000E+00 0.  1.
</event>
<event>
 7    1  0.4894942E-006  0.1010817E+04  0.7818608E-02  0.9109505E-01
          2   -1    0    0  501    0  0.00000000000E+00  0.00000000000E+00  0.54851892894E+03  0.54851892894E+03  0.00000000000E+00 0. -1.
         -4   -1    0    0    0  501 -0.00000000000E+00 -0.00000000000E+00 -0.27154936211E+04  0.27154936211E+04  0.00000000000E+00 0. -1.
   -9000010    2    1    2    0  502  0.21139270325E+03  0.13637077977E+03 -0.15827393534E+04  0.18788275181E+04  0.98063505825E+03 0.  0.
        -13    1    1    2    0    0 -0.21454893881E+03 -0.11739887084E+03 -0.96928084578E+03  0.99965949762E+03  0.10566000000E+00 0.  1.
         13    1    3    3    0    0 -0.91959737972E+02 -0.16259828510E+03  0.48423184933E+02  0.19297567652E+03  0.10566000000E+00 0. -1.
          2    1    1    2  502    0  0.31562355522E+01 -0.18971908932E+02  0.38504550701E+03  0.38552553433E+03  0.00000000000E+00 0. -1.
         -4    1    3    3    0  502  0.30335244123E+03  0.29896906487E+03 -0.16311625384E+04  0.16858518416E+04  0.00000000000E+00 0. -1.
</event>
<event>
 7    1  0.4894942E-006  0.9982346E+03  0.7818608E-02  0.9274287E-01
          2   -1    0    0  501    0  0.00000000000E+00  0.00000000000E+00  0.65299547293E+03  0.65299547293E+03  0.00000000000E+00 0. -1.
         -4   -1    0    0    0  501 -0.00000000000E+00 -0.00000000000E+00 -0.34753163347E+04  0.34753163347E+04  0.00000000000E+00 0. -1.
   -9000010    2    1    2    0  502 -0.21302821543E+02  0.11739708719E+03 -0.26660199803E+04  0.28461091821E+04  0.98916078325E+03 0.  0.
        -13    1    1    2    0    0  0.31995088602E+02 -0.13152575074E+03 -0.71274081616E+03  0.72548066204E+03  0.10566000000E+00 0.  1.
         13    1    3    3    0    0  0.11507143547E+03 -0.42266417813E+03 -0.12453258120E+04  0.13201222791E+04  0.10566000000E+00 0. -1.
          2    1    1    2  502    0 -0.10692267059E+02  0.14128663554E+02  0.55643993466E+03  0.55672196346E+03  0.00000000000E+00 0. -1.
         -4    1    3    3    0  502 -0.13637425701E+03  0.54006126532E+03 -0.14206941683E+04  0.15259869030E+04  0.00000000000E+00 0. -1.
</event>
<event>
 6    1  0.4894942E-006  0.4202866E+03  0.7818608E-02  0.9815202E-01
         -4   -1    0    0    0  501 -0.00000000000E+00  0.00000000000E+00  0.51010655590E+03  0.51010655590E+03  0.00000000000E+00 0. -1.
          1   -1    0    0  501    0  0.00000000000E+00 -0.00000000000E+00 -0.12988144637E+04  0.12988144637E+04  0.00000000000E+00 0.  1.
        -13    1    1    2    0    0  0.20539533090E+03  0.16825568563E+03 -0.61043235488E+03  0.66567626422E+03  0.10566000000E+00 0.  1.
         13    1    1    2    0    0 -0.83551253625E+02 -0.19765278059E+03  0.38598739752E+03  0.44162621737E+03  0.10566000000E+00 0. -1.
          1    1    1    2  502    0  0.11249648383E+01 -0.18152138860E+02 -0.56938662546E+03  0.56967700931E+03  0.00000000000E+00 0.  1.
         -4    1    1    2    0  502 -0.12296904211E+03  0.47549233815E+02  0.51236749971E+01  0.13194152872E+03  0.00000000000E+00 0. -1.
</event>
<event>
 7    1  0.4894942E-006  0.9009115E+03  0.7818608E-02  0.9103807E-01
         -4   -1    0    0    0  501 -0.00000000000E+00  0.00000000000E+00  0.26121096285E+04  0.26121096285E+04  0.00000000000E+00 0. -1.
          1   -1    0    0  501    0  0.00000000000E+00 -0.00000000000E+00 -0.38412006767E+03  0.38412006767E+03  0.00000000000E+00 0. -1.
   -9000010    2    1    2    0  502  0.16261241407E+02  0.39088455651E+03  0.74257352382E+03  0.11281195590E+04  0.75377923595E+03 0.  0.
        -13    1    1    2    0    0 -0.34260998072E+03  0.89746562001E+02  0.11365497577E+04  0.11904542861E+04  0.10566000000E+00 0.  1.
         13    1    3    3    0    0 -0.12519771489E+03  0.33679510952E+03 -0.10997571612E+02  0.35948069678E+03  0.10566000000E+00 0. -1.
          1    1    1    2  502    0  0.32634873931E+03 -0.48063111851E+03  0.34886627925E+03  0.67765585110E+03  0.00000000000E+00 0. -1.
         -4    1    3    3    0  502  0.14145895629E+03  0.54089446991E+02  0.75357109544E+03  0.76863886219E+03  0.00000000000E+00 0. -1.
</event>
<event>
 7    1  0.4894942E-006  0.1023334E+04  0.7818608E-02  0.9438211E-01
          2   -1    0    0  502    0  0.00000000000E+00  0.00000000000E+00  0.16271986385E+04  0.16271986385E+04  0.00000000000E+00 0. -1.
          4   -1    0    0  501    0 -0.00000000000E+00 -0.00000000000E+00 -0.74837543082E+03  0.74837543082E+03  0.00000000000E+00 0.  1.
    9000010    2    1    2  502    0 -0.77156026370E+02 -0.18849098263E+03 -0.19758511221E+03  0.10528130117E+04  0.10138508066E+04 0.  0.
        -13    1    3    3    0    0  0.21258069393E+02  0.72550034934E+02  0.39270687381E+03  0.39991763275E+03  0.10566000000E+00 0.  1.
         13    1    1    2    0    0  0.11410557746E+02  0.66499324392E+02 -0.10958952025E+03  0.12869434753E+03  0.10566000000E+00 0. -1.
          2    1    1    2  501    0  0.65745468624E+02  0.12199165824E+03  0.11859978401E+04  0.11940667101E+04  0.00000000000E+00 0. -1.
          4    1    3    3  502    0 -0.98414095762E+02 -0.26104101756E+03 -0.59029198602E+03  0.65289537895E+03  0.00000000000E+00 0.  1.
</event>
<event>
 7    1  0.4894942E-006  0.1031352E+04  0.7818608E-02  0.9059289E-01
          4   -1    0    0  501    0  0.00000000000E+00  0.00000000000E+00  0.64034665520E+03  0.64034665520E+03  0.00000000000E+00 0. -1.
         -4   -1    0    0    0  501 -0.00000000000E+00 -0.00000000000E+00 -0.10101108085E+04  0.10101108085E+04  0.00000000000E+00 0. -1.
   -9000010    2    1    2    0  502 -0.27874458170E+03  0.13675165233E+03 -0.62073523897E+02  0.10414183435E+04  0.99211868619E+03 0.  0.
        -13    1    1    2    0    0  0.24574193502E+03 -0.13266644885E+03 -0.41302667581E+03  0.49857851074E+03  0.10566000000E+00 0.  1.
         13    1    3    3    0    0 -0.20730052235E+02 -0.24447244965E+03 -0.40077360474E+03  0.46991063738E+03  0.10566000000E+00 0. -1.
          4    1    1    2  502    0  0.33002646678E+02 -0.40852034727E+01  0.10533604642E+03  0.11046060949E+03  0.00000000000E+00 0. -1.
         -4    1    3    3    0  502 -0.25801452947E+03  0.38122410198E+03  0.33870008084E+03  0.57150770608E+03  0.00000000000E+00 0. -1.
</event>
<event>
 7    1  0.4894942E-006  0.1313982E+04  0.7818608E-02  0.8643272E-01
         -4   -1    0    0    0  502 -0.00000000000E+00  0.00000000000E+00  0.38329348467E+04  0.38329348467E+04  0.00000000000E+00 0. -1.
         -2   -1    0    0    0  501  0.00000000000E+00 -0.00000000000E+00 -0.57701935571E+03  0.57701935571E+03  0.00000000000E+00 0. -1.
   -9000010    2    1    2    0  501 -0.72751334050E+03 -0.33153163268E+03  0.54143463700E+03  0.14333225267E+04  0.10592795265E+04 0.  0.
        -13    1    1    2    0    0  0.70913913143E+03  0.31234785427E+03  0.27905085652E+04  0.28960969517E+04  0.10566000000E+00 0.  1.
         13    1    3    3    0    0  0.12609179187E+03  0.25063184217E+03  0.20219625333E+03  0.34583058904E+03  0.10566000000E+00 0. -1.
         -2    1    1    2    0  502  0.18374209072E+02  0.19183778409E+02 -0.76027711209E+02  0.80534724093E+02  0.00000000000E+00 0. -1.
         -4    1    3    3    0  501 -0.85360513237E+03 -0.58216347485E+03  0.33923838367E+03  0.10874919376E+04  0.00000000000E+00 0. -1.
</event>
<event>
 7    1  0.4894942E-006  0.1045789E+04  0.7818608E-02  0.9072875E-01
          1   -1    0    0  501    0  0.00000000000E+00  0.00000000000E+00  0.13677142171E+04  0.13677142171E+04  0.00000000000E+00 0.  1.
         -4   -1    0    0    0  501 -0.00000000000E+00 -0.00000000000E+00 -0.93525881217E+03  0.93525881217E+03  0.00000000000E+00 0. -1.
   -9000010    2    1    2    0  502 -0.27673720036E+03 -0.68338161447E+02  0.89104818821E+02  0.10570405522E+04  0.10139731150E+04 0.  0.
        -13    1    1    2    0    0  0.24831019070E+03 -0.62885646437E+02 -0.40851105605E+03  0.48217616014E+03  0.10566000000E+00 0.  1.
         13    1    3    3    0    0 -0.86084694752E+02 -0.51860885472E+03  0.18773767785E+03  0.55822143072E+03  0.10566000000E+00 0. -1.
          1    1    1    2  502    0  0.28427009664E+02  0.13122380788E+03  0.75186164221E+03  0.76375631694E+03  0.00000000000E+00 0.  1.
         -4    1    3    3    0  502 -0.19065250561E+03  0.45027069327E+03 -0.98632859027E+02  0.49881912152E+03  0.00000000000E+00 0. -1.
</event>
<event>
 7    1  0.4894942E-006  0.1428862E+04  0.7818608E-02  0.8525555E-01
          2   -1    0    0  502    0  0.00000000000E+00  0.00000000000E+00  0.17488962208E+04  0.17488962208E+04  0.00000000000E+00 0. -1.
          4   -1    0    0  501    0 -0.00000000000E+00 -0.00000000000E+00 -0.23028721811E+04  0.23028721811E+04  0.00000000000E+00 0.  1.
    9000010    2    1    2  502    0 -0.81711041733E+03 -0.77882227392E+03 -0.13455547152E+04  0.20209440762E+04  0.99973191369E+03 0.  0.
        -13    1    3    3    0    0 -0.14284547054E+03  0.11560245981E+03  0.86303884356E+02  0.20302002066E+03  0.10566000000E+00 0.  1.
         13    1    1    2    0    0  0.42715792837E+03  0.82757716446E+03 -0.21018100361E+03  0.95473762068E+03  0.10566000000E+00 0. -1.
          2    1    1    2  501    0  0.38995248896E+03 -0.48754890532E+02  0.10017597584E+04  0.10760867050E+04  0.00000000000E+00 0. -1.
          4    1    3    3  502    0 -0.67426494679E+03 -0.89442473373E+03 -0.14318585995E+04  0.18179240556E+04  0.00000000000E+00 0.  1.
</event>
<event>
 7    1  0.4894942E-006  0.9991862E+03  0.7818608E-02  0.8880903E-01
          1   -1    0    0  501    0  0.00000000000E+00  0.00000000000E+00  0.14496985136E+04  0.14496985136E+04  0.00000000000E+00 0.  1.
         -4   -1    0    0    0  501 -0.00000000000E+00 -0.00000000000E+00 -0.13839503781E+04  0.13839503781E+04  0.00000000000E+00 0. -1.
   -9000010    2    1    2    0  502 -0.55634075283E+03 -0.35133893493E+01 -0.65473244196E+03  0.11514341517E+04  0.76654984046E+03 0.  0.
        -13    1    1    2    0    0  0.73355225583E+03  0.18857604865E+03 -0.15233156510E+03  0.77257022661E+03  0.10566000000E+00 0.  1.
         13    1    3    3    0    0 -0.60070198473E+03 -0.26642269453E+03 -0.34311129442E+03  0.74131592330E+03  0.10566000000E+00 0. -1.
          1    1    1    2  502    0 -0.17721150300E+03 -0.18506265930E+03  0.87281214254E+03  0.90964451343E+03  0.00000000000E+00 0.  1.
         -4    1    3    3    0  502  0.44361231894E+02  0.26290930518E+03 -0.31162114753E+03  0.41011822837E+03  0.00000000000E+00 0. -1.
</event>
<event>
 7    1  0.4894942E-006  0.1069452E+04  0.7818608E-02  0.8871850E-01
          4   -1    0    0  501    0 -0.00000000000E+00  0.00000000000E+00  0.14918734210E+04  0.14918734210E+04  0.00000000000E+00 0.  1.
          2   -1    0    0  502    0  0.00000000000E+00 -0.00000000000E+00 -0.95482686675E+03  0.95482686675E+03  0.00000000000E+00 0.  1.
    9000010    2    1    2  502    0  0.49742003806E+03  0.27312079867E+03  0.81810986619E+03  0.13566310845E+04  0.92147842159E+03 0.  0.
        -13    1    3    3    0    0  0.39187142440E+02  0.49736528178E+03  0.65019158571E+03  0.81954680461E+03  0.10566000000E+00 0.  1.
         13    1    1    2    0    0 -0.45317252098E+03 -0.26922562437E+03  0.23141171450E+03  0.57567279192E+03  0.10566000000E+00 0. -1.
          2    1    1    2  501    0 -0.44247517085E+02 -0.38951743022E+01 -0.51247502647E+03  0.51439641125E+03  0.00000000000E+00 0.  1.
          4    1    3    3  502    0  0.45823289563E+03 -0.22424448311E+03  0.16791828048E+03  0.53708427994E+03  0.00000000000E+00 0.  1.
</event>
<event>
 7    1  0.4894942E-006  0.1024531E+04  0.7818608E-02  0.9072495E-01
         -4   -1    0    0    0  502 -0.00000000000E+00  0.00000000000E+00  0.13494258996E+04  0.13494258996E+04  0.00000000000E+00 0. -1.
         -2   -1    0    0    0  501  0.00000000000E+00 -0.00000000000E+00 -0.14343539809E+04  0.14343539809E+04  0.00000000000E+00 0. -1.
   -9000010    2    1    2    0  501 -0.48354890972E+01 -0.27130671389E+03  0.10813948841E+04  0.14894145075E+04  0.98757782724E+03 0.  0.
        -13    1    1    2    0    0 -0.86664623590E+01  0.27465938509E+03 -0.23114357609E+03  0.35908251046E+03  0.10566000000E+00 0.  1.
         13    1    3    3    0    0  0.35146762422E+03  0.19220508016E+03  0.24710611248E+03  0.47067369345E+03  0.10566000000E+00 0. -1.
         -2    1    1    2    0  502  0.13501951456E+02 -0.33526711924E+01 -0.93517938919E+03  0.93528286260E+03  0.00000000000E+00 0. -1.
         -4    1    3    3    0  501 -0.35630311332E+03 -0.46351179405E+03  0.83428877157E+03  0.10187408140E+04  0.00000000000E+00 0. -1.
</event>
<event>
 7    1  0.4894942E-006  0.1325055E+04  0.7818608E-02  0.8776650E-01
          4   -1    0    0  501    0 -0.00000000000E+00  0.00000000000E+00  0.15714937262E+04  0.15714937262E+04  0.00000000000E+00 0.  1.
          2   -1    0    0  502    0  0.00000000000E+00 -0.00000000000E+00 -0.15340588508E+04  0.15340588508E+04  0.00000000000E+00 0. -1.
    9000010    2    1    2  502    0  0.45345994735E+03 -0.53815785329E+03  0.72837371611E+03  0.14680254795E+04  0.10626997408E+04 0.  0.
        -13    1    3    3    0    0 -0.22217405508E+03  0.14390350505E+03  0.29441052374E+01  0.26472288990E+03  0.10566000000E+00 0.  1.
         13    1    1    2    0    0  0.32259919160E+03  0.27834535609E+03  0.16164973377E+03  0.45571594582E+03  0.10566000000E+00 0. -1.
          2    1    1    2  501    0 -0.77605913895E+03  0.25981249719E+03 -0.85258857445E+03  0.11818111516E+04  0.00000000000E+00 0. -1.
          4    1    3    3  502    0  0.67563400242E+03 -0.68206135834E+03  0.72542961087E+03  0.12033025896E+04  0.00000000000E+00 0.  1.
</event>
<event>
 7    1  0.4894942E-006  0.1008066E+04  0.7818608E-02  0.9165252E-01
          2   -1    0    0  502    0  0.00000000000E+00  0.00000000000E+00  0.88496110872E+03  0.88496110872E+03  0.00000000000E+00 0.  1.
          4   -1    0    0  501    0 -0.00000000000E+00 -0.00000000000E+00 -0.85387684764E+03  0.85387684764E+03  0.00000000000E+00 0.  1.
    9000010    2    1    2  502    0 -0.12818183510E+02  0.20986005839E+03  0.19101034171E+03  0.10283257723E+04  0.98831340851E+03 0.  0.
        -13    1    3    3    0    0 -0.19072191592E+03  0.92231005835E+02 -0.37099006838E+03  0.42721780119E+03  0.10566000000E+00 0.  1.
         13    1    1    2    0    0  0.98913685572E+01 -0.19790040348E+03 -0.41250814986E+03  0.45763019321E+03  0.10566000000E+00 0. -1.
          2    1    1    2  501    0  0.29268149524E+01 -0.11959654911E+02  0.25258206923E+03  0.25288199083E+03  0.00000000000E+00 0.  1.
          4    1    3    3  502    0  0.17790373241E+03  0.11762905256E+03  0.56200041010E+03  0.60110797113E+03  0.00000000000E+00 0.  1.
</event>
<event>
 7    1  0.4894942E-006  0.9968370E+03  0.7818608E-02  0.9203411E-01
          1   -1    0    0  501    0  0.00000000000E+00  0.00000000000E+00  0.11371595909E+04  0.11371595909E+04  0.00000000000E+00 0. -1.
         -4   -1    0    0    0  501 -0.00000000000E+00 -0.00000000000E+00 -0.40981614991E+03  0.40981614991E+03  0.00000000000E+00 0. -1.
   -9000010    2    1    2    0  502  0.63244784772E+02  0.88855942099E+02  0.75721187833E+03  0.12440262265E+04  0.98098733032E+03 0.  0.
        -13    1    1    2    0    0 -0.14125057135E+03 -0.11334640469E+03 -0.89248081743E+02  0.20190186384E+03  0.10566000000E+00 0.  1.
         13    1    3    3    0    0  0.17031472723E+03  0.18525868868E+03  0.96158833096E+03  0.99397183936E+03  0.10566000000E+00 0. -1.
          1    1    1    2  502    0  0.78005786579E+02  0.24490462590E+02  0.59379644398E+02  0.10104765047E+03  0.00000000000E+00 0. -1.
         -4    1    3    3    0  502 -0.10706994246E+03 -0.96402746585E+02 -0.20437645263E+03  0.25005438712E+03  0.00000000000E+00 0. -1.
</event>
<event>
 7    1  0.4894942E-006  0.1140973E+04  0.7818608E-02  0.8811102E-01
         -4   -1    0    0    0  501 -0.00000000000E+00  0.00000000000E+00  0.92607655847E+03  0.92607655847E+03  0.00000000000E+00 0. -1.
          2   -1    0    0  501    0  0.00000000000E+00 -0.00000000000E+00 -0.21262889055E+04  0.21262889055E+04  0.00000000000E+00 0. -1.
   -9000010    2    1    2    0  502  0.55203966430E+03  0.17753913230E+02 -0.86615149248E+03  0.14228597407E+04  0.98450416018E+03 0.  0.
        -13    1    1    2    0    0 -0.57612300771E+03 -0.63607958819E+02  0.51710629022E+03  0.77676419780E+03  0.10566000000E+00 0.  1.
         13    1    3    3    0    0  0.61677662665E+03  0.39695771730E+03 -0.65850098796E+03  0.98570401177E+03  0.10566000000E+00 0. -1.
          2    1    1    2  502    0  0.24083343413E+02  0.45854045589E+02 -0.85116714474E+03  0.85274152544E+03  0.00000000000E+00 0. -1.
         -4    1    3    3    0  502 -0.64736962352E+02 -0.37920380407E+03 -0.20765050452E+03  0.43715572894E+03  0.00000000000E+00 0. -1.
</event>
<event>
 7    1  0.4894942E-006  0.1039948E+04  0.7818608E-02  0.9060518E-01
          4   -1    0    0  501    0 -0.00000000000E+00  0.00000000000E+00  0.48615839498E+03  0.48615839498E+03  0.00000000000E+00 0.  1.
          2   -1    0    0  502    0  0.00000000000E+00 -0.00000000000E+00 -0.23245531239E+04  0.23245531239E+04  0.00000000000E+00 0.  1.
    9000010    2    1    2  502    0  0.39992338489E+02 -0.27326254962E+03 -0.59356994612E+03  0.11980382992E+04  0.10033437483E+04 0.  0.
        -13    1    3    3    0    0 -0.11124021681E+03 -0.61088243338E+03 -0.18727949946E+03  0.64855636249E+03  0.10566000000E+00 0.  1.
         13    1    1    2    0    0 -0.19414971584E+03  0.20018678897E+03  0.69436753858E+02  0.28738534512E+03  0.10566000000E+00 0. -1.
          2    1    1    2  501    0  0.15415737735E+03  0.73075760651E+02 -0.13142615366E+04  0.13252878746E+04  0.00000000000E+00 0.  1.
          4    1    3    3  502    0  0.15123255530E+03  0.33761988376E+03 -0.40629044666E+03  0.54948193668E+03  0.00000000000E+00 0.  1.
</event>
<event>
 7    1  0.4894942E-006  0.9283555E+03  0.7818608E-02  0.9322104E-01
         -4   -1    0    0    0  501  0.00000000000E+00  0.00000000000E+00  0.25348059713E+03  0.25348059713E+03  0.00000000000E+00 0. -1.
         -4   -1    0    0    0  502 -0.00000000000E+00 -0.00000000000E+00 -0.22867856422E+04  0.22867856422E+04  0.00000000000E+00 0. -1.
   -9000010    2    1    2    0  501  0.74248321046E+02  0.33474424037E+03 -0.16707037200E+04  0.19295680108E+04  0.90244959348E+03 0.  0.
        -13    1    1    2    0    0  0.51758015845E+01 -0.13917296920E+03 -0.37422000916E+03  0.39929504216E+03  0.10566000000E+00 0.  1.
         13    1    3    3    0    0  0.45875741678E+03  0.20654416721E+03 -0.12398064641E+04  0.13379981091E+04  0.10566000000E+00 0. -1.
         -4    1    3    3    0  501 -0.38450909573E+03  0.12820007316E+03 -0.43089725590E+03  0.59156990170E+03  0.00000000000E+00 0. -1.
         -4    1    1    2    0  502 -0.79424122631E+02 -0.19557127117E+03  0.11618684113E+02  0.21140318631E+03  0.00000000000E+00 0. -1.
</event>
<event>
 7    1  0.4894942E-006  0.1037859E+04  0.7818608E-02  0.9079371E-01
          4   -1    0    0  502    0  0.00000000000E+00  0.00000000000E+00  0.81090233031E+03  0.81090233031E+03  0.00000000000E+00 0.  1.
          4   -1    0    0  501    0 -0.00000000000E+00 -0.00000000000E+00 -0.42703740973E+04  0.42703740973E+04  0.00000000000E+00 0.  1.
    9000010    2    1    2  502    0 -0.30179724325E+03 -0.43078038710E+02 -0.34775429073E+04  0.36329399052E+04  0.10059872708E+04 0.  0.
        -13    1    3    3    0    0  0.15741712459E+03 -0.82260192516E+02 -0.64567173297E+02  0.18898629955E+03  0.10566000000E+00 0.  1.
         13    1    1    2    0    0  0.24126125013E+03  0.21210045537E+02 -0.69313204518E+03  0.73422673615E+03  0.10566000000E+00 0. -1.
          4    1    1    2  501    0  0.60535993114E+02  0.21867993173E+02  0.71120318557E+03  0.71410978621E+03  0.00000000000E+00 0.  1.
          4    1    3    3  502    0 -0.45921436783E+03  0.39182153806E+02 -0.34129757341E+04  0.34439536057E+04  0.00000000000E+00 0.  1.
</event>
<event>
 7    1  0.4894942E-006  0.1087417E+04  0.7818608E-02  0.8917490E-01
         -4   -1    0    0    0  501 -0.00000000000E+00  0.00000000000E+00  0.34157122833E+04  0.34157122833E+04  0.00000000000E+00 0. -1.
          2   -1    0    0  501    0  0.00000000000E+00 -0.00000000000E+00 -0.34070356079E+03  0.34070356079E+03  0.00000000000E+00 0. -1.
   -9000010    2    1    2    0  502  0.20129390466E+03 -0.24207984180E+03  0.11475324012E+04  0.15583602688E+04  0.10062475987E+04 0.  0.
        -13    1    1    2    0    0  0.30663790394E+03  0.29763042720E+03  0.13996265182E+04  0.14634087183E+04  0.10566000000E+00 0.  1.
         13    1    3    3    0    0  0.99645284156E+02 -0.34610822555E+03  0.12992145705E+04  0.13482131129E+04  0.10566000000E+00 0. -1.
          2    1    1    2  502    0 -0.50793180860E+03 -0.55550585403E+02  0.52784980318E+03  0.73464685696E+03  0.00000000000E+00 0. -1.
         -4    1    3    3    0  502  0.10164862051E+03  0.10402838375E+03 -0.15168216928E+03  0.21014715595E+03  0.00000000000E+00 0. -1.
</event>
<event>
 7    1  0.4894942E-006  0.1039409E+04  0.7818608E-02  0.9253749E-01
          2   -1    0    0  502    0  0.00000000000E+00  0.00000000000E+00  0.17522280174E+04  0.17522280174E+04  0.00000000000E+00 0.  1.
          4   -1    0    0  501    0 -0.00000000000E+00 -0.00000000000E+00 -0.32850530827E+03  0.32850530827E+03  0.00000000000E+00 0.  1.
    9000010    2    1    2  502    0  0.18283002671E+03 -0.19239837061E+03  0.65904477953E+03  0.12394682888E+04  0.10156267355E+04 0.  0.
        -13    1    3    3    0    0 -0.24014637495E+03 -0.35008267460E+03 -0.18936420047E+02  0.42495500894E+03  0.10566000000E+00 0.  1.
         13    1    1    2    0    0 -0.12703214710E+03 -0.20412721761E+02  0.23960214598E+03  0.27196147729E+03  0.10566000000E+00 0. -1.
          2    1    1    2  501    0 -0.55797879615E+02  0.21281109237E+03  0.52507578361E+03  0.56930355957E+03  0.00000000000E+00 0.  1.
          4    1    3    3  502    0  0.42297640166E+03  0.15768430399E+03  0.67798119958E+03  0.81451327986E+03  0.00000000000E+00 0.  1.
</event>
<event>
 7    1  0.4894942E-006  0.1084579E+04  0.7818608E-02  0.9082897E-01
         -4   -1    0    0    0  501 -0.00000000000E+00  0.00000000000E+00  0.15040762809E+04  0.15040762809E+04  0.00000000000E+00 0. -1.
          2   -1    0    0  501    0  0.00000000000E+00 -0.00000000000E+00 -0.27034262154E+04  0.27034262154E+04  0.00000000000E+00 0.  1.
   -9000010    2    1    2    0  502 -0.13947050036E+03 -0.14605548151E+03  0.88581030497E+03  0.13975409565E+04  0.10619211857E+04 0.  0.
        -13    1    1    2    0    0  0.13230239617E+03  0.17979646006E+03  0.32789026658E+03  0.39666450454E+03  0.10566000000E+00 0.  1.
         13    1    3    3    0    0 -0.59755178141E+03  0.77286803307E+01  0.50118709782E+03  0.77994639698E+03  0.10566000000E+00 0. -1.
          2    1    1    2  502    0  0.71681041967E+01 -0.33740978543E+02 -0.24130505061E+04  0.24132970352E+04  0.00000000000E+00 0.  1.
         -4    1    3    3    0  502  0.45808128105E+03 -0.15378416184E+03  0.38462320715E+03  0.61759455953E+03  0.00000000000E+00 0. -1.
</event>
<event>
 7    1  0.4894942E-006  0.1098005E+04  0.7818608E-02  0.8866595E-01
          4   -1    0    0  502    0  0.00000000000E+00  0.00000000000E+00  0.22406258427E+04  0.22406258427E+04  0.00000000000E+00 0. -1.
          4   -1    0    0  501    0 -0.00000000000E+00 -0.00000000000E+00 -0.74233660249E+03  0.74233660249E+03  0.00000000000E+00 0.  1.
    9000010    2    1    2  502    0 -0.41838105862E+03  0.33634348113E+03  0.29411857581E+03  0.11478248872E+04  0.97099257855E+03 0.  0.
        -13    1    3    3    0    0 -0.52084079226E+03 -0.17802123379E+03  0.82068086236E+01  0.55048528903E+03  0.10566000000E+00 0.  1.
         13    1    1    2    0    0  0.41182768753E+03 -0.29400705736E+03 -0.11201384241E+03  0.51825602365E+03  0.10566000000E+00 0. -1.
          4    1    1    2  501    0  0.65533710915E+01 -0.42336423768E+02  0.13161845068E+04  0.13168815343E+04  0.00000000000E+00 0. -1.
          4    1    3    3  502    0  0.10245973364E+03  0.51436471492E+03  0.28591176719E+03  0.59733959821E+03  0.00000000000E+00 0.  1.
</event>
<event>
 7    1  0.4894942E-006  0.9942345E+03  0.7818608E-02  0.9233348E-01
          4   -1    0    0  501    0 -0.00000000000E+00  0.00000000000E+00  0.15334547741E+04  0.15334547741E+04  0.00000000000E+00 0.  1.
          2   -1    0    0  502    0  0.00000000000E+00 -0.00000000000E+00 -0.87042955150E+03  0.87042955150E+03  0.00000000000E+00 0. -1.
    9000010    2    1    2  502    0 -0.15187635874E+03 -0.36244667830E+02  0.12048114549E+04  0.15617869290E+04  0.98144162605E+03 0.  0.
        -13    1    3    3    0    0  0.37777427226E+02  0.26921977279E+03  0.11692992528E+04  0.12004862239E+04  0.10566000000E+00 0.  1.
         13    1    1    2    0    0  0.15818896283E+03  0.22534991825E+02  0.10753449294E+03  0.19260127765E+03  0.10566000000E+00 0. -1.
          2    1    1    2  501    0 -0.63126040956E+01  0.13709676004E+02 -0.64932072530E+03  0.64949611892E+03  0.00000000000E+00 0. -1.
          4    1    3    3  502    0 -0.18965378596E+03 -0.30546444062E+03  0.35512202178E+02  0.36130070511E+03  0.00000000000E+00 0.  1.
</event>
<event>
 7    1  0.4894942E-006  0.1496695E+04  0.7818608E-02  0.8537567E-01
         -4   -1    0    0    0  501 -0.00000000000E+00  0.00000000000E+00  0.24908435190E+04  0.24908435190E+04  0.00000000000E+00 0. -1.
          2   -1    0    0  501    0  0.00000000000E+00 -0.00000000000E+00 -0.19658488967E+04  0.19658488967E+04  0.00000000000E+00 0. -1.
   -9000010    2    1    2    0  502  0.81211890228E+03  0.77248808643E+02  0.94487634030E+03  0.17579269688E+04  0.12377444968E+04 0.  0.
        -13    1    1    2    0    0 -0.74827607914E+03 -0.45960781177E+03  0.93901709369E+03  0.12856552978E+04  0.10566000000E+00 0.  1.
         13    1    3    3    0    0  0.40920337374E+03  0.26854791770E+03 -0.20037999766E+03  0.52888329507E+03  0.10566000000E+00 0. -1.
          2    1    1    2  502    0 -0.63842823142E+02  0.38235900313E+03 -0.13588988117E+04  0.14131101492E+04  0.00000000000E+00 0. -1.
         -4    1    3    3    0  502  0.40291552854E+03 -0.19129910906E+03  0.11452563380E+04  0.12290436737E+04  0.00000000000E+00 0. -1.
</event>
<event>
 7    1  0.4894942E-006  0.1066489E+04  0.7818608E-02  0.8966406E-01
          4   -1    0    0  501    0 -0.00000000000E+00  0.00000000000E+00  0.19997559729E+04  0.19997559729E+04  0.00000000000E+00 0.  1.
          2   -1    0    0  502    0  0.00000000000E+00 -0.00000000000E+00 -0.81877307127E+03  0.81877307127E+03  0.00000000000E+00 0. -1.
    9000010    2    1    2  502    0  0.31362787687E+03 -0.21657917467E+03  0.14301121574E+04  0.17861968820E+04  0.10000047672E+04 0.  0.
        -13    1    3    3    0    0  0.20234340245E+03  0.39646084568E+03  0.65028687300E+03  0.78803368141E+03  0.10566000000E+00 0.  1.
         13    1    1    2    0    0 -0.20254220584E+03  0.31602158034E+03  0.28913178249E+03  0.47380395017E+03  0.10566000000E+00 0. -1.
          2    1    1    2  501    0 -0.11108567103E+03 -0.99442405670E+02 -0.53826103824E+03  0.55852821204E+03  0.00000000000E+00 0. -1.
          4    1    3    3  502    0  0.11128447442E+03 -0.61304002035E+03  0.77982528443E+03  0.99816320060E+03  0.00000000000E+00 0.  1.
</event>
<event>
 7    1  0.4894942E-006  0.1003620E+04  0.7818608E-02  0.9243690E-01
          2   -1    0    0  501    0  0.00000000000E+00  0.00000000000E+00  0.93702244704E+03  0.93702244704E+03  0.00000000000E+00 0. -1.
         -4   -1    0    0    0  501 -0.00000000000E+00 -0.00000000000E+00 -0.12403937929E+04  0.12403937929E+04  0.00000000000E+00 0. -1.
   -9000010    2    1    2    0  502 -0.13488914600E+03 -0.27405201744E+03 -0.59886984086E+03  0.11961528083E+04  0.98936184710E+03 0.  0.
        -13    1    1    2    0    0  0.98632055054E+02  0.11106826075E+03 -0.31504167590E+03  0.34830404756E+03  0.10566000000E+00 0.  1.
         13    1    3    3    0    0  0.28228681414E+03 -0.45431785366E+03 -0.49760760998E+03  0.73055041049E+03  0.10566000000E+00 0. -1.
          2    1    1    2  502    0  0.36257090944E+02  0.16298375669E+03  0.61054017092E+03  0.63295938408E+03  0.00000000000E+00 0. -1.
         -4    1    3    3    0  502 -0.41717596014E+03  0.18026583622E+03 -0.10126223088E+03  0.46560239779E+03  0.00000000000E+00 0. -1.
</event>
<event>
 7    1  0.4894942E-006  0.1041995E+04  0.7818608E-02  0.9066752E-01
         -4   -1    0    0    0  501 -0.00000000000E+00  0.00000000000E+00  0.36979100723E+03  0.36979100723E+03  0.00000000000E+00 0. -1.
          1   -1    0    0  501    0  0.00000000000E+00 -0.00000000000E+00 -0.12092147662E+04  0.12092147662E+04  0.00000000000E+00 0. -1.
   -9000010    2    1    2    0  502 -0.92516474776E+02  0.23839829448E+03 -0.57527756091E+03  0.11881760405E+04  0.10076829790E+04 0.  0.
        -13    1    1    2    0    0  0.88219488190E+02 -0.25346202809E+03 -0.23072844971E+03  0.35392274079E+03  0.10566000000E+00 0.  1.
         13    1    3    3    0    0  0.38008756523E+03 -0.13094704120E+03 -0.39075118509E+03  0.56062481630E+03  0.10566000000E+00 0. -1.
          1    1    1    2  502    0  0.42969865859E+01  0.15063733606E+02 -0.33417748368E+02  0.36906992155E+02  0.00000000000E+00 0. -1.
         -4    1    3    3    0  502 -0.47260404000E+03  0.36934533568E+03 -0.18452637581E+03  0.62755122420E+03  0.00000000000E+00 0. -1.
</event>
<event>
 7    1  0.4894942E-006  0.1467099E+04  0.7818608E-02  0.8499651E-01
         -4   -1    0    0    0  501 -0.00000000000E+00  0.00000000000E+00  0.33213350802E+04  0.33213350802E+04  0.00000000000E+00 0. -1.
          2   -1    0    0  501    0  0.00000000000E+00 -0.00000000000E+00 -0.13805221915E+04  0.13805221915E+04  0.00000000000E+00 0.  1.
   -9000010    2    1    2    0  502 -0.80080695884E+03  0.73003206131E+03  0.10800140575E+04  0.18353813222E+04  0.10138814712E+04 0.  0.
        -13    1    1    2    0    0  0.78165183618E+03 -0.70298961085E+03  0.17150355798E+04  0.20115966388E+04  0.10566000000E+00 0.  1.
         13    1    3    3    0    0 -0.40528473996E+03 -0.31249629403E+02 -0.57598253362E+02  0.41054820635E+03  0.10566000000E+00 0. -1.
          2    1    1    2  502    0  0.19155122662E+02 -0.27042450459E+02 -0.85423674870E+03  0.85487931059E+03  0.00000000000E+00 0.  1.
         -4    1    3    3    0  502 -0.39552221888E+03  0.76128169071E+03  0.11376123109E+04  0.14248331159E+04  0.00000000000E+00 0. -1.
</event>
<event>
 7    1  0.4894942E-006  0.1053993E+04  0.7818608E-02  0.8989023E-01
          2   -1    0    0  501    0  0.00000000000E+00  0.00000000000E+00  0.13173685937E+04  0.13173685937E+04  0.00000000000E+00 0. -1.
         -4   -1    0    0    0  501 -0.00000000000E+00 -0.00000000000E+00 -0.94878992596E+03  0.94878992596E+03  0.00000000000E+00 0. -1.
   -9000010    2    1    2    0  502 -0.15935008105E+03 -0.14927233773E+03 -0.58743943333E+02  0.10194852105E+04  0.99409484680E+03 0.  0.
        -13    1    1    2    0    0  0.50126347922E+02  0.38233783659E+03 -0.29134908732E+03  0.48330029370E+03  0.10566000000E+00 0.  1.
         13    1    3    3    0    0  0.23672739285E+03 -0.25901596612E+02  0.35896603698E+03  0.43077532207E+03  0.10566000000E+00 0. -1.
          2    1    1    2  502    0  0.10922373313E+03 -0.23306549885E+03  0.71867169841E+03  0.76337301546E+03  0.00000000000E+00 0. -1.
         -4    1    3    3    0  502 -0.39607747390E+03 -0.12337074112E+03 -0.41770998031E+03  0.58870988845E+03  0.00000000000E+00 0. -1.
</event>
<event>
 7    1  0.4894942E-006  0.1135000E+04  0.7818608E-02  0.8822910E-01
          2   -1    0    0  502    0  0.00000000000E+00  0.00000000000E+00  0.14477756016E+04  0.14477756016E+04  0.00000000000E+00 0. -1.
          4   -1    0    0  501    0 -0.00000000000E+00 -0.00000000000E+00 -0.48425397738E+04  0.48425397738E+04  0.00000000000E+00 0.  1.
    9000010    2    1    2  502    0  0.32960813019E+03 -0.20431314890E+03 -0.17361985072E+04  0.20352701613E+04  0.98871330059E+03 0.  0.
        -13    1    3    3    0    0 -0.23798389659E+03  0.21066332990E+03 -0.82663541651E+03  0.88563056440E+03  0.10566000000E+00 0.  1.
         13    1    1    2    0    0 -0.37766901441E+03  0.46003373977E+03 -0.29133694952E+04  0.29735478393E+04  0.10566000000E+00 0. -1.
          2    1    1    2  501    0  0.48060884213E+02 -0.25572059087E+03  0.12548038302E+04  0.12814973748E+04  0.00000000000E+00 0. -1.
          4    1    3    3  502    0  0.56759202678E+03 -0.41497647879E+03 -0.90956309068E+03  0.11496395969E+04  0.00000000000E+00 0.  1.
</event>
<event>
 7    1  0.4894942E-006  0.1050925E+04  0.7818608E-02  0.8977924E-01
          2   -1    0    0  502    0  0.00000000000E+00  0.00000000000E+00  0.71933238268E+03  0.71933238268E+03  0.00000000000E+00 0.  1.
          4   -1    0    0  501    0 -0.00000000000E+00 -0.00000000000E+00 -0.18724570230E+04  0.18724570230E+04  0.00000000000E+00 0.  1.
    9000010    2    1    2  502    0 -0.32826431727E+03  0.15607670940E+03 -0.14982052779E+04  0.18288136333E+04  0.98377987840E+03 0.  0.
        -13    1    3    3    0    0  0.24260595708E+03  0.34299208041E+03 -0.41693564158E+03  0.59189235340E+03  0.10566000000E+00 0.  1.
         13    1    1    2    0    0  0.34895022689E+03 -0.14076429185E+03 -0.38768979830E+02  0.37826431456E+03  0.10566000000E+00 0. -1.
          2    1    1    2  501    0 -0.20685909622E+02 -0.15312417552E+02  0.38384961745E+03  0.38471145786E+03  0.00000000000E+00 0.  1.
          4    1    3    3  502    0 -0.57087027434E+03 -0.18691537101E+03 -0.10812696364E+04  0.12369212799E+04  0.00000000000E+00 0.  1.
</event>
<event>
 7    1  0.4894942E-006  0.1113368E+04  0.7818608E-02  0.8909064E-01
          2   -1    0    0  501    0  0.00000000000E+00  0.00000000000E+00  0.11728335579E+04  0.11728335579E+04  0.00000000000E+00 0.  1.
         -4   -1    0    0    0  501 -0.00000000000E+00 -0.00000000000E+00 -0.23494111072E+04  0.23494111072E+04  0.00000000000E+00 0. -1.
   -9000010    2    1    2    0  502  0.34367330399E+03 -0.92643543441E+02 -0.10827143859E+04  0.15390321710E+04  0.10342414689E+04 0.  0.
        -13    1    1    2    0    0 -0.35979917887E+03  0.22750564984E+03 -0.98957962237E+03  0.10772567521E+04  0.10566000000E+00 0.  1.
         13    1    3    3    0    0  0.32387292538E+03  0.39699005065E+03 -0.24359253988E+03  0.56730248436E+03  0.10566000000E+00 0. -1.
          2    1    1    2  502    0  0.16125874882E+02 -0.13486210640E+03  0.89571645896E+03  0.90595574198E+03  0.00000000000E+00 0.  1.
         -4    1    3    3    0  502  0.19800378612E+02 -0.48963359409E+03 -0.83912184598E+03  0.97172968662E+03  0.00000000000E+00 0. -1.
</event>
<event>
 7    1  0.4894942E-006  0.1003617E+04  0.7818608E-02  0.9278296E-01
         -4   -1    0    0    0  501 -0.00000000000E+00  0.00000000000E+00  0.13783703073E+04  0.13783703073E+04  0.00000000000E+00 0. -1.
          1   -1    0    0  501    0  0.00000000000E+00 -0.00000000000E+00 -0.56071707205E+03  0.56071707205E+03  0.00000000000E+00 0. -1.
   -9000010    2    1    2    0  502  0.10019311517E+03  0.85407669692E+02  0.89935872825E+03  0.13477727973E+04  0.99514434158E+03 0.  0.
        -13    1    1    2    0    0 -0.89415585126E+02 -0.94469778682E+02  0.23803882786E+03  0.27126035589E+03  0.10566000000E+00 0.  1.
         13    1    3    3    0    0 -0.28619753548E+03 -0.11568776861E+03  0.85608444392E+03  0.91004026032E+03  0.10566000000E+00 0. -1.
          1    1    1    2  502    0 -0.10777530041E+02  0.90621089894E+01 -0.31974432086E+03  0.32005422618E+03  0.00000000000E+00 0. -1.
         -4    1    3    3    0  502  0.38639065065E+03  0.20109543830E+03  0.43274284329E+02  0.43773253694E+03  0.00000000000E+00 0. -1.
</event>
<event>
 7    1  0.4894942E-006  0.1005619E+04  0.7818608E-02  0.9194723E-01
          2   -1    0    0  502    0  0.00000000000E+00  0.00000000000E+00  0.67217264246E+03  0.67217264246E+03  0.00000000000E+00 0. -1.
          4   -1    0    0  501    0 -0.00000000000E+00 -0.00000000000E+00 -0.15965684840E+04  0.15965684840E+04  0.00000000000E+00 0.  1.
    9000010    2    1    2  502    0 -0.18025418139E+03 -0.52216829244E+01 -0.92151182202E+03  0.13642438584E+04  0.98967592226E+03 0.  0.
        -13    1    3    3    0    0 -0.31524578348E+03 -0.30123335530E+03 -0.56006440290E+02  0.43961138619E+03  0.10566000000E+00 0.  1.
         13    1    1    2    0    0  0.17656452220E+03  0.24697480077E+02 -0.43594048444E+03  0.47098738111E+03  0.10566000000E+00 0. -1.
          2    1    1    2  501    0  0.36896591851E+01 -0.19475797153E+02  0.43305646495E+03  0.43350988696E+03  0.00000000000E+00 0. -1.
          4    1    3    3  502    0  0.13499160209E+03  0.29601167238E+03 -0.86550538173E+03  0.92463247218E+03  0.00000000000E+00 0.  1.
</event>
<event>
 7    1  0.4894942E-006  0.1271698E+04  0.7818608E-02  0.8666717E-01
         -4   -1    0    0    0  501 -0.00000000000E+00  0.00000000000E+00  0.65420418220E+03  0.65420418220E+03  0.00000000000E+00 0. -1.
          2   -1    0    0  501    0  0.00000000000E+00 -0.00000000000E+00 -0.22330134517E+04  0.22330134517E+04  0.00000000000E+00 0. -1.
   -9000010    2    1    2    0  502 -0.35753217556E+03 -0.67794247532E+03 -0.83306501027E+03  0.15164299239E+04  0.10090228670E+04 0.  0.
        -13    1    1    2    0    0  0.38908422294E+03  0.67290479107E+03 -0.17192735477E+03  0.79608191593E+03  0.10566000000E+00 0.  1.
         13    1    3    3    0    0 -0.16533867994E+03 -0.87276852163E+03 -0.86626065288E+03  0.12407535216E+04  0.10566000000E+00 0. -1.
          2    1    1    2  502    0 -0.31552047372E+02  0.50376842408E+01 -0.57381690442E+03  0.57470579408E+03  0.00000000000E+00 0. -1.
         -4    1    3    3    0  502 -0.19219349562E+03  0.19482604631E+03  0.33195642609E+02  0.27567640227E+03  0.00000000000E+00 0. -1.
</event>
<event>
 7    1  0.4894942E-006  0.1114359E+04  0.7818608E-02  0.8897461E-01
          2   -1    0    0  502    0  0.00000000000E+00  0.00000000000E+00  0.84589597688E+03  0.84589597688E+03  0.00000000000E+00 0. -1.
          4   -1    0    0  501    0 -0.00000000000E+00 -0.00000000000E+00 -0.20102140261E+04  0.20102140261E+04  0.00000000000E+00 0.  1.
    9000010    2    1    2  502    0  0.31881724628E+02  0.42959289580E+03 -0.10856742560E+04  0.15556318909E+04  0.10274898975E+04 0.  0.
        -13    1    3    3    0    0 -0.39637718624E+03 -0.65115007373E+02 -0.66765348075E+03  0.77917650086E+03  0.10566000000E+00 0.  1.
         13    1    1    2    0    0 -0.68320915503E+01 -0.43161985577E+03 -0.62168351120E+03  0.75685717056E+03  0.10566000000E+00 0. -1.
          2    1    1    2  501    0 -0.25049633078E+02  0.20269599622E+01  0.54303971801E+03  0.54362094148E+03  0.00000000000E+00 0. -1.
          4    1    3    3  502    0  0.42825891087E+03  0.49470790318E+03 -0.41802077527E+03  0.77645539007E+03  0.00000000000E+00 0.  1.
</event>
<event>
 7    1  0.4894942E-006  0.1011123E+04  0.7818608E-02  0.9328630E-01
          1   -1    0    0  501    0  0.00000000000E+00  0.00000000000E+00  0.15912385932E+04  0.15912385932E+04  0.00000000000E+00 0.  1.
         -4   -1    0    0    0  501 -0.00000000000E+00 -0.00000000000E+00 -0.41075883978E+03  0.41075883978E+03  0.00000000000E+00 0. -1.
   -9000010    2    1    2    0  502  0.43586709558E+02  0.28273150357E+02  0.37491423823E+03  0.10745083463E+04  0.10056382690E+04 0.  0.
        -13    1    1    2    0    0 -0.10567636939E+03  0.31396309459E+02 -0.69144400030E+01  0.11045833576E+03  0.10566000000E+00 0.  1.
         13    1    3    3    0    0  0.27329449944E+03 -0.38756719177E+03  0.36652792046E+03  0.59936711555E+03  0.10566000000E+00 0. -1.
          1    1    1    2  502    0  0.62089659829E+02 -0.59669459815E+02  0.81247995523E+03  0.81703075092E+03  0.00000000000E+00 0.  1.
         -4    1    3    3    0  502 -0.22970778988E+03  0.41584034212E+03  0.83863177731E+01  0.47514123079E+03  0.00000000000E+00 0. -1.
</event>
<event>
 7    1  0.4894942E-006  0.1012691E+04  0.7818608E-02  0.9101126E-01
         -4   -1    0    0    0  501 -0.00000000000E+00  0.00000000000E+00  0.89676644485E+03  0.89676644485E+03  0.00000000000E+00 0. -1.
          2   -1    0    0  501    0  0.00000000000E+00 -0.00000000000E+00 -0.68491009087E+03  0.68491009087E+03  0.00000000000E+00 0. -1.
   -9000010    2    1    2    0  502  0.20639747622E+03  0.13681287513E+03  0.15735904933E+02  0.10117290269E+04  0.98083144531E+03 0.  0.
        -13    1    1    2    0    0 -0.19747216761E+03 -0.15729153232E+03  0.34048199259E+03  0.42386776424E+03  0.10566000000E+00 0.  1.
         13    1    3    3    0    0  0.25930749749E+03  0.29323780387E+03 -0.40287407753E+03  0.56172619788E+03  0.10566000000E+00 0. -1.
          2    1    1    2  502    0 -0.89253086065E+01  0.20478657191E+02 -0.14436154354E+03  0.14607974462E+03  0.00000000000E+00 0. -1.
         -4    1    3    3    0  502 -0.52910021272E+02 -0.15642492874E+03  0.41860998246E+03  0.45000282899E+03  0.00000000000E+00 0. -1.
</event>
<event>
 7    1  0.4894942E-006  0.1378289E+04  0.7818608E-02  0.8567352E-01
          4   -1    0    0  501    0 -0.00000000000E+00  0.00000000000E+00  0.31332429246E+04  0.31332429246E+04  0.00000000000E+00 0.  1.
          2   -1    0    0  502    0  0.00000000000E+00 -0.00000000000E+00 -0.15244013678E+04  0.15244013678E+04  0.00000000000E+00 0.  1.
    9000010    2    1    2  502    0 -0.53902582160E+03 -0.69826065028E+03  0.10934993522E+04  0.17276045021E+04  0.10053654610E+04 0.  0.
        -13    1    3    3    0    0 -0.16961185425E+03 -0.64583569182E+03  0.11696188779E+04  0.13468037172E+04  0.10566000000E+00 0.  1.
         13    1    1    2    0    0 -0.35112928030E+03  0.11235950977E+04  0.12370817662E+04  0.17076677143E+04  0.10566000000E+00 0. -1.
          2    1    1    2  501    0  0.89015510189E+03 -0.42533444742E+03 -0.72173956161E+03  0.12223720761E+04  0.00000000000E+00 0.  1.
          4    1    3    3  502    0 -0.36941396735E+03 -0.52424958461E+02 -0.76119525751E+02  0.38080078485E+03  0.00000000000E+00 0.  1.
</event>
<event>
 7    1  0.4894942E-006  0.1055812E+04  0.7818608E-02  0.8997655E-01
          4   -1    0    0  501    0 -0.00000000000E+00  0.00000000000E+00  0.25463350897E+04  0.25463350897E+04  0.00000000000E+00 0.  1.
          2   -1    0    0  502    0  0.00000000000E+00 -0.00000000000E+00 -0.13594053012E+04  0.13594053012E+04  0.00000000000E+00 0. -1.
    9000010    2    1    2  502    0 -0.30751018982E+03 -0.10115114089E+03  0.14457045551E+04  0.17878435392E+04  0.10007641031E+04 0.  0.
        -13    1    3    3    0    0 -0.32580851561E+03  0.92355090372E+02  0.97414811995E+01  0.33878541761E+03  0.10566000000E+00 0.  1.
         13    1    1    2    0    0  0.31982299885E+03  0.11172649964E+03  0.89863564762E+03  0.96037263583E+03  0.10566000000E+00 0. -1.
          2    1    1    2  501    0 -0.12312809025E+02 -0.10575358746E+02 -0.11574104142E+04  0.11575242159E+04  0.00000000000E+00 0. -1.
          4    1    3    3  502    0  0.18298325788E+02 -0.19350623126E+03  0.14359630739E+04  0.14490581216E+04  0.00000000000E+00 0.  1.
</event>
<event>
 7    1  0.4894942E-006  0.1218600E+04  0.7818608E-02  0.8722726E-01
         -4   -1    0    0    0  501 -0.00000000000E+00  0.00000000000E+00  0.11874954255E+04  0.11874954255E+04  0.00000000000E+00 0. -1.
          2   -1    0    0  501    0  0.00000000000E+00 -0.00000000000E+00 -0.15568117756E+04  0.15568117756E+04  0.00000000000E+00 0. -1.
   -9000010    2    1    2    0  502 -0.90777210364E+02 -0.60029827750E+03 -0.90009909090E+03  0.14790668892E+04  0.10044212091E+04 0.  0.
        -13    1    1    2    0    0  0.14881059376E+03  0.68376318050E+03  0.74868249108E+03  0.10247937175E+04  0.10566000000E+00 0.  1.
         13    1    3    3    0    0  0.32940200793E+03  0.23505962897E+02 -0.34009161483E+02  0.33198621560E+03  0.10566000000E+00 0. -1.
          2    1    1    2  502    0 -0.58033383400E+02 -0.83464903002E+02 -0.21789975026E+03  0.24044659446E+03  0.00000000000E+00 0. -1.
         -4    1    3    3    0  502 -0.42017921829E+03 -0.62380424040E+03 -0.86608992942E+03  0.11470806736E+04  0.00000000000E+00 0. -1.
</event>
<event>
 7    1  0.4894942E-006  0.1224334E+04  0.7818608E-02  0.8719542E-01
         -4   -1    0    0    0  501 -0.00000000000E+00  0.00000000000E+00  0.16901596773E+04  0.16901596773E+04  0.00000000000E+00 0. -1.
          2   -1    0    0  501    0  0.00000000000E+00 -0.00000000000E+00 -0.93115592353E+03  0.93115592353E+03  0.00000000000E+00 0. -1.
   -9000010    2    1    2    0  502 -0.77398981859E+03  0.31893920997E+02  0.41672253380E+03  0.13405037635E+04  0.10115410067E+04 0.  0.
        -13    1    1    2    0    0  0.66363687835E+03  0.48005234304E+02  0.65872293311E+03  0.93628752132E+03  0.10566000000E+00 0.  1.
         13    1    3    3    0    0 -0.36255912740E+03  0.39219453116E+03  0.56131828769E+03  0.77481862548E+03  0.10566000000E+00 0. -1.
          2    1    1    2  502    0  0.11035294025E+03 -0.79899155301E+02 -0.31644171318E+03  0.34452431595E+03  0.00000000000E+00 0. -1.
         -4    1    3    3    0  502 -0.41143069119E+03 -0.36030061016E+03 -0.14459575389E+03  0.56568513802E+03  0.00000000000E+00 0. -1.
</event>
<event>
 7    1  0.4894942E-006  0.1053204E+04  0.7818608E-02  0.9003778E-01
          2   -1    0    0  502    0  0.00000000000E+00  0.00000000000E+00  0.33442169989E+04  0.33442169989E+04  0.00000000000E+00 0. -1.
          4   -1    0    0  501    0 -0.00000000000E+00 -0.00000000000E+00 -0.28535585133E+03  0.28535585133E+03  0.00000000000E+00 0.  1.
    9000010    2    1    2  502    0  0.15633063058E+03  0.34835110343E+03  0.15345675503E+04  0.18709825802E+04  0.99994524444E+03 0.  0.
        -13    1    3    3    0    0  0.34100960793E+03  0.45653666426E+03  0.15548590592E+04  0.16559891255E+04  0.10566000000E+00 0.  1.
         13    1    1    2    0    0 -0.81475141643E+02 -0.31408609125E+03  0.11106098774E+03  0.34296184275E+03  0.10566000000E+00 0. -1.
          2    1    1    2  501    0 -0.74855488935E+02 -0.34265012185E+02  0.14132326096E+04  0.14156284272E+04  0.00000000000E+00 0. -1.
          4    1    3    3  502    0 -0.18467897735E+03 -0.10818556083E+03 -0.20291508951E+02  0.21499345475E+03  0.00000000000E+00 0.  1.
</event>
<event>
 7    1  0.4894942E-006  0.1052225E+04  0.7818608E-02  0.8984295E-01
          2   -1    0    0  502    0  0.00000000000E+00  0.00000000000E+00  0.14785331533E+04  0.14785331533E+04  0.00000000000E+00 0.  1.
          4   -1    0    0  501    0 -0.00000000000E+00 -0.00000000000E+00 -0.29777220219E+04  0.29777220219E+04  0.00000000000E+00 0.  1.
    9000010    2    1    2  502    0  0.38088469735E+03 -0.13421242589E+03 -0.12522512137E+04  0.16460954717E+04  0.98914663809E+03 0.  0.
        -13    1    3    3    0    0  0.15960170118E+03  0.25413889412E+03 -0.11487442828E+04  0.11872963905E+04  0.10566000000E+00 0.  1.
         13    1    1    2    0    0 -0.34862894212E+03 -0.93077364782E+02 -0.14966512352E+04  0.15395357956E+04  0.10566000000E+00 0. -1.
          2    1    1    2  501    0 -0.32255755234E+02  0.22728979067E+03  0.12497135803E+04  0.12706239079E+04  0.00000000000E+00 0.  1.
          4    1    3    3  502    0  0.22128299617E+03 -0.38835132001E+03 -0.10350693099E+03  0.45879908120E+03  0.00000000000E+00 0.  1.
</event>
<event>
 7    1  0.4894942E-006  0.1318407E+04  0.7818608E-02  0.8723118E-01
          2   -1    0    0  501    0  0.00000000000E+00  0.00000000000E+00  0.16083367493E+04  0.16083367493E+04  0.00000000000E+00 0. -1.
         -4   -1    0    0    0  501 -0.00000000000E+00 -0.00000000000E+00 -0.11657512162E+04  0.11657512162E+04  0.00000000000E+00 0. -1.
   -9000010    2    1    2    0  502  0.10481544173E+03 -0.53412019714E+03 -0.53684776408E+03  0.14236533769E+04  0.12009632609E+04 0.  0.
        -13    1    1    2    0    0 -0.89275398289E+02  0.53636241443E+03  0.21320775303E+03  0.58404819448E+03  0.10566000000E+00 0.  1.
         13    1    3    3    0    0 -0.22686124771E+03  0.18385909879E+01 -0.72999541849E+03  0.76443621599E+03  0.10566000000E+00 0. -1.
          2    1    1    2  502    0 -0.15540043445E+02 -0.22422172879E+01  0.76622554419E+03  0.76638639409E+03  0.00000000000E+00 0. -1.
         -4    1    3    3    0  502  0.33167668945E+03 -0.53595878813E+03  0.19314765441E+03  0.65921716096E+03  0.00000000000E+00 0. -1.
</event>
<event>
 7    1  0.4894942E-006  0.1253332E+04  0.7818608E-02  0.8686801E-01
          2   -1    0    0  502    0  0.00000000000E+00  0.00000000000E+00  0.17919296625E+04  0.17919296625E+04  0.00000000000E+00 0. -1.
          4   -1    0    0  501    0 -0.00000000000E+00 -0.00000000000E+00 -0.16399807637E+04  0.16399807637E+04  0.00000000000E+00 0.  1.
    9000010    2    1    2  502    0 -0.74465439771E+03  0.39800385761E+03 -0.51673751031E+03  0.14148985665E+04  0.10109416680E+04 0.  0.
        -13    1    3    3    0    0 -0.65142595451E+03 -0.17700799172E+03 -0.65822913724E+02  0.67824794174E+03  0.10566000000E+00 0.  1.
         13    1    1    2    0    0  0.29309431395E+03 -0.69055378523E+03 -0.37807564882E+03  0.84006548231E+03  0.10566000000E+00 0. -1.
          2    1    1    2  501    0  0.45156008376E+03  0.29254992762E+03  0.10467620579E+04  0.11769463774E+04  0.00000000000E+00 0. -1.
          4    1    3    3  502    0 -0.93228443201E+02  0.57501184933E+03 -0.45091459659E+03  0.73665062472E+03  0.00000000000E+00 0.  1.
</event>
<event>
 7    1  0.4894942E-006  0.1012369E+04  0.7818608E-02  0.9382037E-01
          2   -1    0    0  501    0  0.00000000000E+00  0.00000000000E+00  0.99796232598E+03  0.99796232598E+03  0.00000000000E+00 0. -1.
         -4   -1    0    0    0  501 -0.00000000000E+00 -0.00000000000E+00 -0.17307680295E+04  0.17307680295E+04  0.00000000000E+00 0. -1.
   -9000010    2    1    2    0  502 -0.82517290145E+02  0.10267614413E+03 -0.15069126517E+04  0.18153682977E+04  0.10037055458E+04 0.  0.
        -13    1    1    2    0    0 -0.46198583132E+02 -0.72293707251E+02 -0.35627809271E+02  0.92898014774E+02  0.10566000000E+00 0.  1.
         13    1    3    3    0    0 -0.31810837717E+02 -0.30186888542E+03 -0.13414471036E+04  0.13753607150E+04  0.10566000000E+00 0. -1.
          2    1    1    2  502    0  0.12871587328E+03 -0.30382436880E+02  0.80973475744E+03  0.82046404304E+03  0.00000000000E+00 0. -1.
         -4    1    3    3    0  502 -0.50706452429E+02  0.40454502955E+03 -0.16546554815E+03  0.44000758275E+03  0.00000000000E+00 0. -1.
</event>
<event>
 7    1  0.4894942E-006  0.1311526E+04  0.7818608E-02  0.8625890E-01
          2   -1    0    0  502    0  0.00000000000E+00  0.00000000000E+00  0.21221880770E+04  0.21221880770E+04  0.00000000000E+00 0. -1.
          4   -1    0    0  501    0 -0.00000000000E+00 -0.00000000000E+00 -0.15078440640E+04  0.15078440640E+04  0.00000000000E+00 0.  1.
    9000010    2    1    2  502    0 -0.87198220375E+03  0.63886517227E+01 -0.46495206159E+03  0.14086892522E+04  0.10039079695E+04 0.  0.
        -13    1    3    3    0    0 -0.93154167608E+03  0.93211529372E+02 -0.43468683480E+01  0.93620360494E+03  0.10566000000E+00 0.  1.
         13    1    1    2    0    0  0.81943109631E+03 -0.13023792203E+03 -0.26447939817E+03  0.87084935617E+03  0.10566000000E+00 0. -1.
          2    1    1    2  501    0  0.52551107441E+02  0.12384927031E+03  0.13437754727E+04  0.13504935326E+04  0.00000000000E+00 0. -1.
          4    1    3    3  502    0  0.59559472330E+02 -0.86822877649E+02 -0.46060519324E+03  0.47248564726E+03  0.00000000000E+00 0.  1.
</event>
<event>
 7    1  0.4894942E-006  0.1065937E+04  0.7818608E-02  0.9149783E-01
         -4   -1    0    0    0  501 -0.00000000000E+00  0.00000000000E+00  0.16986920367E+04  0.16986920367E+04  0.00000000000E+00 0. -1.
          2   -1    0    0  501    0  0.00000000000E+00 -0.00000000000E+00 -0.23231792046E+04  0.23231792046E+04  0.00000000000E+00 0. -1.
   -9000010    2    1    2    0  502 -0.11894657518E+03 -0.19823809427E+03  0.14247534074E+04  0.17577547768E+04  0.10031614794E+04 0.  0.
        -13    1    1    2    0    0 -0.17824073135E+03 -0.82596706427E+01  0.47445356086E+01  0.17849510428E+03  0.10566000000E+00 0.  1.
         13    1    3    3    0    0 -0.50416609353E+03  0.41025232884E+01  0.11148266466E+04  0.12235353464E+04  0.10566000000E+00 0. -1.
          2    1    1    2  502    0  0.29718730653E+03  0.20649776491E+03 -0.20539851110E+04  0.20856213602E+04  0.00000000000E+00 0. -1.
         -4    1    3    3    0  502  0.38521951836E+03 -0.20234061756E+03  0.30992676080E+03  0.53421943048E+03  0.00000000000E+00 0. -1.
</event>
<event>
 7    1  0.4894942E-006  0.1161553E+04  0.7818608E-02  0.8771341E-01
         -4   -1    0    0    0  501 -0.00000000000E+00  0.00000000000E+00  0.49805861704E+03  0.49805861704E+03  0.00000000000E+00 0. -1.
          2   -1    0    0  501    0  0.00000000000E+00 -0.00000000000E+00 -0.23107105062E+04  0.23107105062E+04  0.00000000000E+00 0. -1.
   -9000010    2    1    2    0  502 -0.63248006492E+03  0.75741098669E+02 -0.17009342135E+04  0.20565897209E+04  0.96468457803E+03 0.  0.
        -13    1    1    2    0    0  0.64591801248E+03 -0.60742902004E+02 -0.10370352548E+02  0.64885077974E+03  0.10566000000E+00 0.  1.
         13    1    3    3    0    0 -0.42445123991E+03  0.45773111615E+03 -0.13844383938E+04  0.15186659630E+04  0.10566000000E+00 0. -1.
          2    1    1    2  502    0 -0.13437947558E+02 -0.14998196666E+02 -0.10134732309E+03  0.10332862253E+03  0.00000000000E+00 0. -1.
         -4    1    3    3    0  502 -0.20802882502E+03 -0.38199001748E+03 -0.31649581970E+03  0.53792375796E+03  0.00000000000E+00 0. -1.
</event>
<event>
 7    1  0.4894942E-006  0.1388327E+04  0.7818608E-02  0.9409442E-01
         -4   -1    0    0    0  501 -0.00000000000E+00  0.00000000000E+00  0.72943519202E+03  0.72943519202E+03  0.00000000000E+00 0. -1.
          1   -1    0    0  501    0  0.00000000000E+00 -0.00000000000E+00 -0.21783122463E+04  0.21783122463E+04  0.00000000000E+00 0. -1.
   -9000010    2    1    2    0  502  0.25878700262E+03  0.94999193683E+03 -0.39644358035E+03  0.14392041758E+04  0.97194946090E+03 0.  0.
        -13    1    1    2    0    0 -0.25264715316E+02  0.16265234459E+02 -0.34163638205E+02  0.45497571710E+02  0.10566000000E+00 0.  1.
         13    1    3    3    0    0  0.13971254385E+03  0.11452042354E+04 -0.35261844405E+03  0.12063797553E+04  0.10566000000E+00 0. -1.
          1    1    1    2  502    0 -0.23352228731E+03 -0.96625717129E+03 -0.10182698357E+04  0.14230456908E+04  0.00000000000E+00 0. -1.
         -4    1    3    3    0  502  0.11907445877E+03 -0.19521229856E+03 -0.43825136301E+02  0.23282442056E+03  0.00000000000E+00 0. -1.
</event>
<event>
 7    1  0.4894942E-006  0.1512342E+04  0.7818608E-02  0.8467180E-01
          1   -1    0    0  501    0  0.00000000000E+00  0.00000000000E+00  0.23961170345E+04  0.23961170345E+04  0.00000000000E+00 0.  1.
         -4   -1    0    0    0  501 -0.00000000000E+00 -0.00000000000E+00 -0.12424865024E+04  0.12424865024E+04  0.00000000000E+00 0. -1.
   -9000010    2    1    2    0  502  0.82631719180E+03  0.74839843516E+03 -0.10981639550E+03  0.15107850589E+04  0.10136624361E+04 0.  0.
        -13    1    1    2    0    0 -0.85818051131E+03 -0.73586882705E+03  0.30789759920E+03  0.11716559492E+04  0.10566000000E+00 0.  1.
         13    1    3    3    0    0  0.86848740692E+03  0.12735928539E+03  0.51334333867E+01  0.87779104966E+03  0.10566000000E+00 0. -1.
          1    1    1    2  502    0  0.31863319511E+02 -0.12529608105E+02  0.95554932848E+03  0.95616252874E+03  0.00000000000E+00 0.  1.
         -4    1    3    3    0  502 -0.42170215120E+02  0.62103914976E+03 -0.11494982888E+03  0.63299400924E+03  0.00000000000E+00 0. -1.
</event>
<event>
 7    1  0.4894942E-006  0.1114032E+04  0.7818608E-02  0.8858769E-01
          2   -1    0    0  502    0  0.00000000000E+00  0.00000000000E+00  0.13562261453E+04  0.13562261453E+04  0.00000000000E+00 0. -1.
          4   -1    0    0  501    0 -0.00000000000E+00 -0.00000000000E+00 -0.64702921804E+03  0.64702921804E+03  0.00000000000E+00 0.  1.
    9000010    2    1    2  502    0  0.29393886062E+02 -0.49481032847E+03  0.71082688616E+03  0.13171453447E+04  0.99191518552E+03 0.  0.
        -13    1    3    3    0    0  0.40970690194E+03 -0.73186697610E+02  0.11524043549E+02  0.41635183793E+03  0.10566000000E+00 0.  1.
         13    1    1    2    0    0 -0.77726376506E+01  0.50927259519E+03 -0.15355381959E+03  0.53197535354E+03  0.10566000000E+00 0. -1.
          2    1    1    2  501    0 -0.21621248412E+02 -0.14462266719E+02  0.15192386065E+03  0.15413466507E+03  0.00000000000E+00 0. -1.
          4    1    3    3  502    0 -0.38031301588E+03 -0.42162363086E+03  0.69930284262E+03  0.90079350677E+03  0.00000000000E+00 0.  1.
</event>
<event>
 7    1  0.4894942E-006  0.1099838E+04  0.7818608E-02  0.9018852E-01
          4   -1    0    0  501    0 -0.00000000000E+00  0.00000000000E+00  0.16805812467E+04  0.16805812467E+04  0.00000000000E+00 0.  1.
          2   -1    0    0  502    0  0.00000000000E+00 -0.00000000000E+00 -0.13755362342E+04  0.13755362342E+04  0.00000000000E+00 0. -1.
    9000010    2    1    2  502    0 -0.80793132237E+02  0.19008548304E+03  0.11339473081E+04  0.15695481979E+04  0.10653567604E+04 0.  0.
        -13    1    3    3    0    0 -0.16812463156E+03  0.52959253582E+03  0.23247191682E+03  0.60231001071E+03  0.10566000000E+00 0.  1.
         13    1    1    2    0    0  0.90930764790E+01 -0.29762135758E+03  0.25679966806E+03  0.39320126806E+03  0.10566000000E+00 0. -1.
          2    1    1    2  501    0  0.71700055758E+02  0.10753587455E+03 -0.10857019637E+04  0.10933680150E+04  0.00000000000E+00 0. -1.
          4    1    3    3  502    0  0.87331499325E+02 -0.33950705278E+03  0.90147539125E+03  0.96723818716E+03  0.00000000000E+00 0.  1.
</event>
<event>
 7    1  0.4894942E-006  0.1785329E+04  0.7818608E-02  0.8301502E-01
         -4   -1    0    0    0  501 -0.00000000000E+00  0.00000000000E+00  0.20575901830E+04  0.20575901830E+04  0.00000000000E+00 0. -1.
          2   -1    0    0  501    0  0.00000000000E+00 -0.00000000000E+00 -0.14357792953E+04  0.14357792953E+04  0.00000000000E+00 0.  1.
   -9000010    2    1    2    0  502  0.13885823552E+04 -0.54986575207E+03  0.28243221448E+03  0.18208356457E+04  0.10025772740E+04 0.  0.
        -13    1    1    2    0    0 -0.13650741826E+04  0.53438509797E+03  0.46958512078E+03  0.15393197049E+04  0.10566000000E+00 0.  1.
         13    1    3    3    0    0  0.10905335938E+04 -0.65821502600E+03  0.56744025682E+03  0.13944529379E+04  0.10566000000E+00 0. -1.
          2    1    1    2  502    0 -0.23508172622E+02  0.15480654094E+02 -0.13020644762E+03  0.13321412775E+03  0.00000000000E+00 0.  1.
         -4    1    3    3    0  502  0.29804876141E+03  0.10834927393E+03 -0.28500804234E+03  0.42638270783E+03  0.00000000000E+00 0. -1.
</event>
<event>
 7    1  0.4894942E-006  0.1005892E+04  0.7818608E-02  0.9167610E-01
          4   -1    0    0  501    0 -0.00000000000E+00  0.00000000000E+00  0.24276832966E+03  0.24276832966E+03  0.00000000000E+00 0.  1.
          2   -1    0    0  502    0  0.00000000000E+00 -0.00000000000E+00 -0.21861685047E+04  0.21861685047E+04  0.00000000000E+00 0.  1.
    9000010    2    1    2  502    0  0.78733887676E+02 -0.10303895024E+03 -0.15133067362E+04  0.18124827193E+04  0.98902996891E+03 0.  0.
        -13    1    3    3    0    0 -0.33232792136E+03 -0.36230771753E+03 -0.58091345088E+03  0.76103165379E+03  0.10566000000E+00 0.  1.
         13    1    1    2    0    0 -0.18216102943E+03 -0.77695748182E+02 -0.89672989222E+02  0.21739486215E+03  0.10566000000E+00 0. -1.
          2    1    1    2  501    0  0.10342714176E+03  0.18073469842E+03 -0.34042044961E+03  0.39905925297E+03  0.00000000000E+00 0.  1.
          4    1    3    3  502    0  0.41106180903E+03  0.25926876729E+03 -0.93239328534E+03  0.10514510655E+04  0.00000000000E+00 0.  1.
</event>
<event>
 7    1  0.4894942E-006  0.1021295E+04  0.7818608E-02  0.9165965E-01
          4   -1    0    0  501    0 -0.00000000000E+00  0.00000000000E+00  0.42767874635E+03  0.42767874635E+03  0.00000000000E+00 0.  1.
          2   -1    0    0  502    0  0.00000000000E+00 -0.00000000000E+00 -0.18963690646E+04  0.18963690646E+04  0.00000000000E+00 0. -1.
    9000010    2    1    2  502    0  0.14883630317E+03  0.10002873780E+03 -0.64843083308E+03  0.12080562426E+04  0.10033839477E+04 0.  0.
        -13    1    3    3    0    0  0.18229298341E+03  0.37355138810E+03  0.85270577140E+02  0.42431409809E+03  0.10566000000E+00 0.  1.
         13    1    1    2    0    0 -0.15561092558E+03 -0.11105377754E+03  0.86008613803E+02  0.20963109140E+03  0.10566000000E+00 0. -1.
          2    1    1    2  501    0  0.67746224122E+01  0.11025039745E+02 -0.90626809897E+03  0.90636047698E+03  0.00000000000E+00 0. -1.
          4    1    3    3  502    0 -0.33456680237E+02 -0.27352265030E+03 -0.73370141022E+03  0.78374214448E+03  0.00000000000E+00 0.  1.
</event>
<event>
 7    1  0.4894942E-006  0.1175635E+04  0.7818608E-02  0.8970454E-01
          1   -1    0    0  501    0  0.00000000000E+00  0.00000000000E+00  0.74442727289E+03  0.74442727289E+03  0.00000000000E+00 0.  1.
         -4   -1    0    0    0  501 -0.00000000000E+00 -0.00000000000E+00 -0.14440196567E+04  0.14440196567E+04  0.00000000000E+00 0. -1.
   -9000010    2    1    2    0  502 -0.16959495590E+03 -0.26370067504E+03 -0.24572844744E+03  0.12110805225E+04  0.11436927328E+04 0.  0.
        -13    1    1    2    0    0  0.16024746202E+03  0.21733539097E+03 -0.68769026400E+03  0.73880432567E+03  0.10566000000E+00 0.  1.
         13    1    3    3    0    0  0.15916033913E+03  0.26377726662E+03  0.26519535562E+03  0.40649606117E+03  0.10566000000E+00 0. -1.
          1    1    1    2  502    0  0.93474938823E+01  0.46365284068E+02  0.23382632761E+03  0.23856208142E+03  0.00000000000E+00 0.  1.
         -4    1    3    3    0  502 -0.32875529503E+03 -0.52747794166E+03 -0.51092380306E+03  0.80458446138E+03  0.00000000000E+00 0. -1.
</event>
<event>
 7    1  0.4894942E-006  0.1080648E+04  0.7818608E-02  0.8928794E-01
         -4   -1    0    0    0  501 -0.00000000000E+00  0.00000000000E+00  0.53872292493E+03  0.53872292493E+03  0.00000000000E+00 0. -1.
          2   -1    0    0  501    0  0.00000000000E+00 -0.00000000000E+00 -0.21042363270E+04  0.21042363270E+04  0.00000000000E+00 0. -1.
   -9000010    2    1    2    0  502  0.51213348532E+03 -0.64195124037E+02 -0.14939725575E+04  0.18690707292E+04  0.99753178767E+03 0.  0.
        -13    1    1    2    0    0 -0.28200310228E+03  0.30653934374E+03  0.47266718499E+02  0.41919717651E+03  0.10566000000E+00 0.  1.
         13    1    3    3    0    0  0.43511401437E+03 -0.50804770291E+03 -0.81682228316E+03  0.10557629125E+04  0.10566000000E+00 0. -1.
          2    1    1    2  502    0 -0.23013038305E+03 -0.24234421970E+03 -0.11880756300E+03  0.35469134617E+03  0.00000000000E+00 0. -1.
         -4    1    3    3    0  502  0.77019470953E+02  0.44385257888E+03 -0.67715027439E+03  0.81330781675E+03  0.00000000000E+00 0. -1.
</event>
<event>
 7    1  0.4894942E-006  0.1089044E+04  0.7818608E-02  0.8918366E-01
          1   -1    0    0  501    0  0.00000000000E+00  0.00000000000E+00  0.10921495814E+04  0.10921495814E+04  0.00000000000E+00 0. -1.
         -4   -1    0    0    0  501 -0.00000000000E+00 -0.00000000000E+00 -0.25217828644E+04  0.25217828644E+04  0.00000000000E+00 0. -1.
   -9000010    2    1    2    0  502  0.14218634091E+03  0.18578360331E+03 -0.27784694520E+03  0.10241940398E+04  0.95762310092E+03 0.  0.
        -13    1    1    2    0    0  0.42141836689E+03 -0.45668916669E+02 -0.17234583214E+04  0.17748204660E+04  0.10566000000E+00 0.  1.
         13    1    3    3    0    0  0.24629899148E+03 -0.33271252376E+03 -0.27198728208E+03  0.49531596931E+03  0.10566000000E+00 0. -1.
          1    1    1    2  502    0 -0.56360470780E+03 -0.14011468664E+03  0.57167198358E+03  0.81491793997E+03  0.00000000000E+00 0. -1.
         -4    1    3    3    0  502 -0.10411265057E+03  0.51849612707E+03 -0.58596631166E+01  0.52887807049E+03  0.00000000000E+00 0. -1.
</event>
<event>
 7    1  0.4894942E-006  0.8874804E+03  0.7818608E-02  0.9293334E-01
         -4   -1    0    0    0  501 -0.00000000000E+00  0.00000000000E+00  0.87417407676E+03  0.87417407676E+03  0.00000000000E+00 0. -1.
          2   -1    0    0  501    0  0.00000000000E+00 -0.00000000000E+00 -0.26460684365E+04  0.26460684365E+04  0.00000000000E+00 0.  1.
   -9000010    2    1    2    0  502 -0.20208589039E+03 -0.15204382675E+03  0.53304275475E+03  0.10292403077E+04  0.84335342548E+03 0.  0.
        -13    1    1    2    0    0 -0.74968915921E+02  0.16116096442E+03 -0.85562097711E+01  0.17795059623E+03  0.10566000000E+00 0.  1.
         13    1    3    3    0    0 -0.14454498859E+03 -0.33378394580E+03  0.69151347532E+03  0.78134235384E+03  0.10566000000E+00 0. -1.
          2    1    1    2  502    0  0.27705480632E+03 -0.91171376737E+01 -0.22963809047E+04  0.23130516093E+04  0.00000000000E+00 0.  1.
         -4    1    3    3    0  502 -0.57540901800E+02  0.18174011905E+03 -0.15847072057E+03  0.24789795386E+03  0.00000000000E+00 0. -1.
</event>
<event>
 7    1  0.4894942E-006  0.1010842E+04  0.7818608E-02  0.9169181E-01
         -4   -1    0    0    0  501 -0.00000000000E+00  0.00000000000E+00  0.14980349369E+04  0.14980349369E+04  0.00000000000E+00 0. -1.
          1   -1    0    0  501    0  0.00000000000E+00 -0.00000000000E+00 -0.10014685991E+04  0.10014685991E+04  0.00000000000E+00 0.  1.
   -9000010    2    1    2    0  502  0.25389990665E+02  0.16560080478E+03  0.12548441755E+04  0.16083799068E+04  0.99206035186E+03 0.  0.
        -13    1    1    2    0    0 -0.45190799283E+01 -0.29905736744E+03 -0.65833609993E+03  0.72309208455E+03  0.10566000000E+00 0.  1.
         13    1    3    3    0    0  0.34104951308E+03 -0.63587912558E+02  0.11546321607E+04  0.12056258254E+04  0.10566000000E+00 0. -1.
          1    1    1    2  502    0 -0.20870910736E+02  0.13345656266E+03 -0.99941737811E+02  0.16803154463E+03  0.00000000000E+00 0.  1.
         -4    1    3    3    0  502 -0.31565952241E+03  0.22918871733E+03  0.10021201477E+03  0.40275408148E+03  0.00000000000E+00 0. -1.
</event>
<event>
 7    1  0.4894942E-006  0.1038196E+04  0.7818608E-02  0.8929222E-01
          2   -1    0    0  501    0  0.00000000000E+00  0.00000000000E+00  0.22162708264E+04  0.22162708264E+04  0.00000000000E+00 0. -1.
         -4   -1    0    0    0  501 -0.00000000000E+00 -0.00000000000E+00 -0.64138878538E+03  0.64138878538E+03  0.00000000000E+00 0. -1.
   -9000010    2    1    2    0  502  0.46785353794E+01  0.72487146416E+02  0.62355745403E+03  0.11193928882E+04  0.92679030243E+03 0.  0.
        -13    1    1    2    0    0 -0.48497827398E+03 -0.56847454214E+03  0.36098527702E+03  0.82986602093E+03  0.10566000000E+00 0.  1.
         13    1    3    3    0    0 -0.98101534696E+02 -0.82142332396E+02 -0.22061983735E+03  0.25503803183E+03  0.10566000000E+00 0. -1.
          2    1    1    2  502    0  0.48029973860E+03  0.49598739573E+03  0.59033930996E+03  0.90840070261E+03  0.00000000000E+00 0. -1.
         -4    1    3    3    0  502  0.10278007008E+03  0.15462947881E+03  0.84417729138E+03  0.86435485641E+03  0.00000000000E+00 0. -1.
</event>
<event>
 7    1  0.4894942E-006  0.1017926E+04  0.7818608E-02  0.9261558E-01
          1   -1    0    0  501    0  0.00000000000E+00  0.00000000000E+00  0.19106409956E+04  0.19106409956E+04  0.00000000000E+00 0. -1.
         -4   -1    0    0    0  501 -0.00000000000E+00 -0.00000000000E+00 -0.41486841194E+03  0.41486841194E+03  0.00000000000E+00 0. -1.
   -9000010    2    1    2    0  502  0.47410390234E+02 -0.74336869472E+02  0.72431177393E+03  0.12447368599E+04  0.10084486052E+04 0.  0.
        -13    1    1    2    0    0  0.91623082862E+02  0.96337358912E+02 -0.11949903231E+03  0.17876158962E+03  0.10566000000E+00 0.  1.
         13    1    3    3    0    0 -0.14944693140E+03  0.28934538288E+03 -0.84403354362E+02  0.33642097630E+03  0.10566000000E+00 0. -1.
          1    1    1    2  502    0 -0.13903347310E+03 -0.22000489440E+02  0.89095984207E+03  0.90201095801E+03  0.00000000000E+00 0. -1.
         -4    1    3    3    0  502  0.19685732163E+03 -0.36368225236E+03  0.80871512829E+03  0.90831588365E+03  0.00000000000E+00 0. -1.
</event>
<event>
 7    1  0.4894942E-006  0.1054136E+04  0.7818608E-02  0.9074411E-01
          4   -1    0    0  501    0 -0.00000000000E+00  0.00000000000E+00  0.96128301425E+03  0.96128301425E+03  0.00000000000E+00 0.  1.
          2   -1    0    0  502    0  0.00000000000E+00 -0.00000000000E+00 -0.63508569861E+03  0.63508569861E+03  0.00000000000E+00 0.  1.
    9000010    2    1    2  502    0  0.22119875250E+03 -0.18390719124E+03  0.23209653254E+03  0.10890821587E+04  0.10244415087E+04 0.  0.
        -13    1    3    3    0    0 -0.62738729983E+02  0.39560701894E+03  0.18734277791E+03  0.44219722893E+03  0.10566000000E+00 0.  1.
         13    1    1    2    0    0 -0.21310093529E+03  0.11944295655E+03  0.24316094667E+03  0.34468229668E+03  0.10566000000E+00 0. -1.
          2    1    1    2  501    0 -0.80978172163E+01  0.64464234688E+02 -0.14906016358E+03  0.16260425752E+03  0.00000000000E+00 0.  1.
          4    1    3    3  502    0  0.28393748249E+03 -0.57951421018E+03  0.44753754638E+02  0.64688492973E+03  0.00000000000E+00 0.  1.
</event>
<event>
 7    1  0.4894942E-006  0.1025433E+04  0.7818608E-02  0.9112471E-01
         -4   -1    0    0    0  501 -0.00000000000E+00  0.00000000000E+00  0.14866214410E+04  0.14866214410E+04  0.00000000000E+00 0. -1.
          2   -1    0    0  501    0  0.00000000000E+00 -0.00000000000E+00 -0.17098426982E+04  0.17098426982E+04  0.00000000000E+00 0.  1.
   -9000010    2    1    2    0  502 -0.18784233247E+03 -0.22637656670E+03  0.12527909052E+04  0.16290060185E+04  0.99882153787E+03 0.  0.
        -13    1    1    2    0    0  0.89471072233E+02  0.14998691469E+03 -0.13517047423E+03  0.22084432438E+03  0.10566000000E+00 0.  1.
         13    1    3    3    0    0 -0.17948917795E+03  0.12594182448E+03 -0.92751955178E+02  0.23807697181E+03  0.10566000000E+00 0. -1.
          2    1    1    2  502    0  0.98371260233E+02  0.76389652016E+02 -0.13408416881E+04  0.13466137963E+04  0.00000000000E+00 0.  1.
         -4    1    3    3    0  502 -0.83531545115E+01 -0.35231839118E+03  0.13455428604E+04  0.13909290467E+04  0.00000000000E+00 0. -1.
</event>
<event>
 7    1  0.4894942E-006  0.1055337E+04  0.7818608E-02  0.9010769E-01
          2   -1    0    0  502    0  0.00000000000E+00  0.00000000000E+00  0.10783675005E+04  0.10783675005E+04  0.00000000000E+00 0. -1.
          4   -1    0    0  501    0 -0.00000000000E+00 -0.00000000000E+00 -0.70951063998E+03  0.70951063998E+03  0.00000000000E+00 0.  1.
    9000010    2    1    2  502    0  0.15819148344E+03  0.29359160785E+03  0.43848739599E+03  0.11467917632E+04  0.10058029499E+04 0.  0.
        -13    1    3    3    0    0 -0.29859988401E+03  0.10901127371E+03 -0.17269787973E+03  0.36175947445E+03  0.10566000000E+00 0.  1.
         13    1    1    2    0    0 -0.67828423982E+02 -0.31204353113E+03 -0.27149984961E+03  0.41914679997E+03  0.10566000000E+00 0. -1.
          2    1    1    2  501    0 -0.90363059461E+02  0.18451923290E+02  0.20186931413E+03  0.22193957731E+03  0.00000000000E+00 0. -1.
          4    1    3    3  502    0  0.45679136745E+03  0.18458033413E+03  0.61118527572E+03  0.78503228875E+03  0.00000000000E+00 0.  1.
</event>
<event>
 7    1  0.4894942E-006  0.1226504E+04  0.7818608E-02  0.8710425E-01
          3   -1    0    0  501    0  0.00000000000E+00  0.00000000000E+00  0.58235518468E+03  0.58235518468E+03  0.00000000000E+00 0.  1.
         -4   -1    0    0    0  501 -0.00000000000E+00 -0.00000000000E+00 -0.21957343283E+04  0.21957343283E+04  0.00000000000E+00 0. -1.
   -9000010    2    1    2    0  502 -0.74324006401E+02  0.69595200116E+03 -0.10329740686E+04  0.15974815367E+04  0.99751620934E+03 0.  0.
        -13    1    1    2    0    0  0.62803432834E+02 -0.71812081837E+03 -0.73177016670E+03  0.10271949031E+04  0.10566000000E+00 0.  1.
         13    1    3    3    0    0 -0.17979293729E+03 -0.14390072266E+03  0.36933186873E+02  0.23323162251E+03  0.10566000000E+00 0. -1.
          3    1    1    2  502    0  0.11520573567E+02  0.22168817211E+02  0.15136509161E+03  0.15341307321E+03  0.00000000000E+00 0.  1.
         -4    1    3    3    0  502  0.10546893089E+03  0.83985272383E+03 -0.10699072554E+04  0.13642499142E+04  0.00000000000E+00 0. -1.
</event>
<event>
 7    1  0.4894942E-006  0.1074797E+04  0.7818608E-02  0.8936965E-01
          4   -1    0    0  501    0  0.00000000000E+00  0.00000000000E+00  0.63280103786E+03  0.63280103786E+03  0.00000000000E+00 0.  1.
         -4   -1    0    0    0  501 -0.00000000000E+00 -0.00000000000E+00 -0.17998780187E+04  0.17998780187E+04  0.00000000000E+00 0. -1.
   -9000010    2    1    2    0  502  0.31855710630E+03 -0.13773189216E+03 -0.42422618129E+03  0.11352285943E+04  0.99414657086E+03 0.  0.
        -13    1    1    2    0    0 -0.38415313827E+03  0.15923898819E+03 -0.97248415052E+03  0.10576654117E+04  0.10566000000E+00 0.  1.
         13    1    3    3    0    0 -0.19115276650E+03 -0.26145985589E+03 -0.50959881330E+03  0.60381420824E+03  0.10566000000E+00 0. -1.
          4    1    1    2  502    0  0.65596031962E+02 -0.21507096022E+02  0.22963335096E+03  0.23978505053E+03  0.00000000000E+00 0.  1.
         -4    1    3    3    0  502  0.50970987280E+03  0.12372796373E+03  0.85372632009E+02  0.53141438608E+03  0.00000000000E+00 0. -1.
</event>
<event>
 7    1  0.4894942E-006  0.1045677E+04  0.7818608E-02  0.9111004E-01
         -4   -1    0    0    0  501 -0.00000000000E+00  0.00000000000E+00  0.21066828251E+04  0.21066828251E+04  0.00000000000E+00 0. -1.
          2   -1    0    0  501    0  0.00000000000E+00 -0.00000000000E+00 -0.67610587355E+03  0.67610587355E+03  0.00000000000E+00 0. -1.
   -9000010    2    1    2    0  502 -0.10278455173E+03  0.27438179914E+03  0.90863048559E+03  0.13987263409E+04  0.10222406672E+04 0.  0.
        -13    1    1    2    0    0  0.31666461423E+02 -0.21444574592E+03  0.93544518846E+03  0.96023302094E+03  0.10566000000E+00 0.  1.
         13    1    3    3    0    0 -0.35196813784E+03 -0.23765396274E+01  0.96028024565E+03  0.10227538215E+04  0.10566000000E+00 0. -1.
          2    1    1    2  502    0  0.71118090304E+02 -0.59936053217E+02 -0.41349872247E+03  0.42382933680E+03  0.00000000000E+00 0. -1.
         -4    1    3    3    0  502  0.24918358611E+03  0.27675833877E+03 -0.51649760069E+02  0.37597251945E+03  0.00000000000E+00 0. -1.
</event>
<event>
 7    1  0.4894942E-006  0.1049734E+04  0.7818608E-02  0.9185572E-01
          4   -1    0    0  501    0 -0.00000000000E+00  0.00000000000E+00  0.64139970219E+03  0.64139970219E+03  0.00000000000E+00 0.  1.
          2   -1    0    0  502    0  0.00000000000E+00 -0.00000000000E+00 -0.10707891869E+04  0.10707891869E+04  0.00000000000E+00 0. -1.
    9000010    2    1    2  502    0  0.61567076602E+02  0.77438163315E+02  0.12976028119E+03  0.10498422274E+04  0.10370842771E+04 0.  0.
        -13    1    3    3    0    0 -0.44942993686E+03  0.49696865693E+02  0.26025341183E+03  0.52171725690E+03  0.10566000000E+00 0.  1.
         13    1    1    2    0    0 -0.19707483378E+03 -0.93446512562E+02 -0.32695610821E+03  0.39302805076E+03  0.10566000000E+00 0. -1.
          2    1    1    2  501    0  0.13550775718E+03  0.16008349247E+02 -0.23219365772E+03  0.26931861092E+03  0.00000000000E+00 0. -1.
          4    1    3    3  502    0  0.51099701347E+03  0.27741297622E+02 -0.13049313064E+03  0.52812497054E+03  0.00000000000E+00 0.  1.
</event>
<event>
 7    1  0.4894942E-006  0.1049678E+04  0.7818608E-02  0.9042273E-01
         -4   -1    0    0    0  501 -0.00000000000E+00  0.00000000000E+00  0.52222848788E+03  0.52222848788E+03  0.00000000000E+00 0. -1.
          1   -1    0    0  501    0  0.00000000000E+00 -0.00000000000E+00 -0.12841901416E+04  0.12841901416E+04  0.00000000000E+00 0. -1.
   -9000010    2    1    2    0  502  0.63503641730E+02  0.14688851863E+03 -0.48103836216E+03  0.11300395305E+04  0.10099418227E+04 0.  0.
        -13    1    1    2    0    0 -0.13804876151E+02 -0.30845811072E+03  0.42271376771E+02  0.31164701368E+03  0.10566000000E+00 0.  1.
         13    1    3    3    0    0  0.48019443732E+02  0.12169311743E+03  0.31102769964E+03  0.33742158039E+03  0.10566000000E+00 0. -1.
          1    1    1    2  502    0 -0.49698765579E+02  0.16156959209E+03 -0.32319466832E+03  0.36473208527E+03  0.00000000000E+00 0. -1.
         -4    1    3    3    0  502  0.15484197998E+02  0.25195401195E+02 -0.79206606180E+03  0.79261795014E+03  0.00000000000E+00 0. -1.
</event>
<event>
 7    1  0.4894942E-006  0.1083250E+04  0.7818608E-02  0.8944994E-01
          2   -1    0    0  501    0  0.00000000000E+00  0.00000000000E+00  0.12542843878E+04  0.12542843878E+04  0.00000000000E+00 0.  1.
         -4   -1    0    0    0  501 -0.00000000000E+00 -0.00000000000E+00 -0.18889090630E+04  0.18889090630E+04  0.00000000000E+00 0. -1.
   -9000010    2    1    2    0  502  0.36567870264E+03  0.12601463022E+03 -0.16128919886E+04  0.19430390203E+04  0.10121163308E+04 0.  0.
        -13    1    1    2    0    0 -0.36745526759E+03 -0.11407928497E+03  0.22283691413E+03  0.44462766266E+03  0.10566000000E+00 0.  1.
         13    1    3    3    0    0  0.36889456281E+02  0.43227143446E+03 -0.23429647481E+03  0.49306619668E+03  0.10566000000E+00 0. -1.
          2    1    1    2  502    0  0.17765649494E+01 -0.11935345251E+02  0.75543039932E+03  0.75552676780E+03  0.00000000000E+00 0.  1.
         -4    1    3    3    0  502  0.32878924636E+03 -0.30625680424E+03 -0.13785955138E+04  0.14499728237E+04  0.00000000000E+00 0. -1.
</event>
<event>
 7    1  0.4894942E-006  0.1322176E+04  0.7818608E-02  0.8734175E-01
          2   -1    0    0  501    0  0.00000000000E+00  0.00000000000E+00  0.13910934202E+04  0.13910934202E+04  0.00000000000E+00 0.  1.
         -4   -1    0    0    0  501 -0.00000000000E+00 -0.00000000000E+00 -0.32015351767E+04  0.32015351767E+04  0.00000000000E+00 0. -1.
   -9000010    2    1    2    0  502  0.15253792546E+03  0.43786082854E+03 -0.11638375893E+04  0.16049845314E+04  0.10032285323E+04 0.  0.
        -13    1    1    2    0    0 -0.18352989513E+03  0.48040686258E+03 -0.15897990664E+04  0.16709084532E+04  0.10566000000E+00 0.  1.
         13    1    3    3    0    0 -0.37879554822E+03  0.24182703144E+03 -0.83981767248E+03  0.95250202869E+03  0.10566000000E+00 0. -1.
          2    1    1    2  502    0  0.30991969669E+02 -0.91826769112E+03  0.94319489927E+03  0.13167356123E+04  0.00000000000E+00 0.  1.
         -4    1    3    3    0  502  0.53133347368E+03  0.19603379710E+03 -0.32401991681E+03  0.65248250271E+03  0.00000000000E+00 0. -1.
</event>
<event>
 7    1  0.4894942E-006  0.1731661E+04  0.7818608E-02  0.8334362E-01
         -4   -1    0    0    0  501 -0.00000000000E+00  0.00000000000E+00  0.28377612016E+04  0.28377612016E+04  0.00000000000E+00 0. -1.
          2   -1    0    0  501    0  0.00000000000E+00 -0.00000000000E+00 -0.16956563493E+04  0.16956563493E+04  0.00000000000E+00 0.  1.
   -9000010    2    1    2    0  502 -0.11537690142E+04 -0.66389367832E+03 -0.61140916076E+03  0.17958195025E+04  0.10388497338E+04 0.  0.
        -13    1    1    2    0    0  0.12253477631E+04  0.66735837909E+03  0.20236888123E+04  0.24580807080E+04  0.10566000000E+00 0.  1.
         13    1    3    3    0    0 -0.86945905556E+03 -0.26589110640E+03 -0.85617340133E+03  0.12488755078E+04  0.10566000000E+00 0. -1.
          2    1    1    2  502    0 -0.71578748983E+02 -0.34647007742E+01 -0.27017479926E+03  0.27951734045E+03  0.00000000000E+00 0.  1.
         -4    1    3    3    0  502 -0.28430995859E+03 -0.39800257191E+03  0.24476424057E+03  0.54694399463E+03  0.00000000000E+00 0. -1.
</event>
<event>
 7    1  0.4894942E-006  0.9005526E+03  0.7818608E-02  0.9108137E-01
          4   -1    0    0  501    0 -0.00000000000E+00  0.00000000000E+00  0.58070148459E+03  0.58070148459E+03  0.00000000000E+00 0.  1.
          2   -1    0    0  502    0  0.00000000000E+00 -0.00000000000E+00 -0.74801010067E+03  0.74801010067E+03  0.00000000000E+00 0.  1.
    9000010    2    1    2  502    0 -0.36726560880E+03  0.30850808884E+02 -0.83449734044E+02  0.91229960545E+03  0.83035589489E+03 0.  0.
        -13    1    3    3    0    0 -0.14460348995E+02 -0.10334342724E+03 -0.40389572958E+03  0.41715792834E+03  0.10566000000E+00 0.  1.
         13    1    1    2    0    0  0.34049882988E+03 -0.25223036021E+02 -0.14370333146E+02  0.34173406668E+03  0.10566000000E+00 0. -1.
          2    1    1    2  501    0  0.26766778928E+02 -0.56277728633E+01 -0.69488548890E+02  0.74677913123E+02  0.00000000000E+00 0.  1.
          4    1    3    3  502    0 -0.35280525981E+03  0.13419423612E+03  0.32044599553E+03  0.49514167711E+03  0.00000000000E+00 0.  1.
</event>
<event>
 7    1  0.4894942E-006  0.1151217E+04  0.7818608E-02  0.8800219E-01
          2   -1    0    0  501    0  0.00000000000E+00  0.00000000000E+00  0.97513983954E+03  0.97513983954E+03  0.00000000000E+00 0.  1.
         -4   -1    0    0    0  501 -0.00000000000E+00 -0.00000000000E+00 -0.28571144620E+04  0.28571144620E+04  0.00000000000E+00 0. -1.
   -9000010    2    1    2    0  502  0.22720155740E+03 -0.54865086480E+03 -0.12609355400E+04  0.17094758505E+04  0.98980347960E+03 0.  0.
        -13    1    1    2    0    0 -0.13655717171E+03  0.57173275312E+03 -0.13056176404E+04  0.14318392495E+04  0.10566000000E+00 0.  1.
         13    1    3    3    0    0 -0.35513674458E+03 -0.11233228352E+02 -0.30900252457E+03  0.47088306842E+03  0.10566000000E+00 0. -1.
          2    1    1    2  502    0 -0.90644385689E+02 -0.23081888328E+02  0.68457855799E+03  0.69093920158E+03  0.00000000000E+00 0.  1.
         -4    1    3    3    0  502  0.58233830198E+03 -0.53741763644E+03 -0.95193301544E+03  0.12385927821E+04  0.00000000000E+00 0. -1.
</event>
<event>
 7    1  0.4894942E-006  0.1014814E+04  0.7818608E-02  0.9131794E-01
          4   -1    0    0  501    0 -0.00000000000E+00  0.00000000000E+00  0.84797584212E+03  0.84797584212E+03  0.00000000000E+00 0.  1.
          2   -1    0    0  502    0  0.00000000000E+00 -0.00000000000E+00 -0.13354490549E+04  0.13354490549E+04  0.00000000000E+00 0.  1.
    9000010    2    1    2  502    0 -0.47347473000E+02  0.53231163491E+02  0.32343203616E+03  0.10441698428E+04  0.99025604703E+03 0.  0.
        -13    1    3    3    0    0  0.14253999384E+03  0.24662827293E+03 -0.26955543701E+03  0.39217763786E+03  0.10566000000E+00 0.  1.
         13    1    1    2    0    0  0.15817255382E+03 -0.22299398760E+03  0.29277628050E+02  0.27495829858E+03  0.10566000000E+00 0. -1.
          2    1    1    2  501    0 -0.11082508082E+03  0.16976282411E+03 -0.84018287698E+03  0.86429675562E+03  0.00000000000E+00 0.  1.
          4    1    3    3  502    0 -0.18988746684E+03 -0.19339710944E+03  0.59298747317E+03  0.65199220496E+03  0.00000000000E+00 0.  1.
</event>
<event>
 7    1  0.4894942E-006  0.1021227E+04  0.7818608E-02  0.9112027E-01
          4   -1    0    0  501    0  0.00000000000E+00  0.00000000000E+00  0.12142020368E+04  0.12142020368E+04  0.00000000000E+00 0. -1.
          4   -1    0    0  502    0 -0.00000000000E+00 -0.00000000000E+00 -0.89914637797E+03  0.89914637797E+03  0.00000000000E+00 0.  1.
    9000010    2    1    2  501    0 -0.23567012426E+03  0.10436699778E+03 -0.65023825551E+02  0.10286685859E+04  0.99372938167E+03 0.  0.
        -13    1    3    3    0    0  0.84118954400E+02  0.38845836389E+03 -0.33756794696E+03  0.52146718876E+03  0.10566000000E+00 0.  1.
         13    1    1    2    0    0  0.23358973836E+03 -0.21483721752E+02 -0.31049633587E+03  0.38914483411E+03  0.10566000000E+00 0. -1.
          4    1    3    3  501    0 -0.31978907866E+03 -0.28409136611E+03  0.27254412141E+03  0.50720139712E+03  0.00000000000E+00 0.  1.
          4    1    1    2  502    0  0.20803859011E+01 -0.82883276032E+02  0.69057582026E+03  0.69553499479E+03  0.00000000000E+00 0. -1.
</event>
<event>
 7    1  0.4894942E-006  0.1059214E+04  0.7818608E-02  0.8997147E-01
          5   -1    0    0  501    0  0.00000000000E+00  0.00000000000E+00  0.16336748536E+04  0.16336748536E+04  0.00000000000E+00 0. -1.
         -4   -1    0    0    0  501 -0.00000000000E+00 -0.00000000000E+00 -0.97666457942E+03  0.97666457942E+03  0.00000000000E+00 0. -1.
   -9000010    2    1    2    0  502 -0.21157126104E+03 -0.18907862703E+03 -0.69289178723E+02  0.10467773869E+04  0.10052008664E+04 0.  0.
        -13    1    1    2    0    0  0.27533890903E+03  0.20159421844E+03 -0.34794277677E+03  0.48735606163E+03  0.10566000000E+00 0.  1.
         13    1    3    3    0    0  0.22429780750E+03 -0.28749045177E+03  0.29597720858E+03  0.46964112413E+03  0.10566000000E+00 0. -1.
          5    1    1    2  502    0 -0.63767647991E+02 -0.12515591409E+02  0.10742422297E+04  0.10762059845E+04  0.00000000000E+00 0. -1.
         -4    1    3    3    0  502 -0.43586906854E+03  0.98411824737E+02 -0.36526638731E+03  0.57713626281E+03  0.00000000000E+00 0. -1.
</event>
<event>
 7    1  0.4894942E-006  0.1006097E+04  0.7818608E-02  0.9169241E-01
          1   -1    0    0  501    0  0.00000000000E+00  0.00000000000E+00  0.82284614844E+03  0.82284614844E+03  0.00000000000E+00 0. -1.
         -4   -1    0    0    0  501 -0.00000000000E+00 -0.00000000000E+00 -0.59722605483E+03  0.59722605483E+03  0.00000000000E+00 0. -1.
   -9000010    2    1    2    0  502  0.28468664972E+02  0.20986415283E+03  0.15006541530E+03  0.10202589671E+04  0.98668906119E+03 0.  0.
        -13    1    1    2    0    0 -0.22547950280E+02 -0.19383659815E+03 -0.10285273611E+03  0.22058951320E+03  0.10566000000E+00 0.  1.
         13    1    3    3    0    0  0.35296177310E+03 -0.14707505740E+03 -0.19299250020E+03  0.42832137710E+03  0.10566000000E+00 0. -1.
          1    1    1    2  502    0 -0.59207146917E+01 -0.16027554678E+02  0.17840741442E+03  0.17922372301E+03  0.00000000000E+00 0. -1.
         -4    1    3    3    0  502 -0.32449310813E+03  0.35693921023E+03  0.34305791550E+03  0.59193758996E+03  0.00000000000E+00 0. -1.
</event>
<event>
 7    1  0.4894942E-006  0.1170860E+04  0.7818608E-02  0.8774980E-01
         -4   -1    0    0    0  501 -0.00000000000E+00  0.00000000000E+00  0.20196925987E+04  0.20196925987E+04  0.00000000000E+00 0. -1.
          2   -1    0    0  501    0  0.00000000000E+00 -0.00000000000E+00 -0.16726516083E+04  0.16726516083E+04  0.00000000000E+00 0.  1.
   -9000010    2    1    2    0  502 -0.54076128421E+03  0.24006148258E+03  0.11936811430E+04  0.16610232328E+04  0.99200364251E+03 0.  0.
        -13    1    1    2    0    0  0.60232013338E+03 -0.23109705528E+03  0.41568984349E+03  0.76745908633E+03  0.10566000000E+00 0.  1.
         13    1    3    3    0    0 -0.35432043967E+03  0.46554272913E+03  0.12340186560E+04  0.13656775099E+04  0.10566000000E+00 0. -1.
          2    1    1    2  502    0 -0.61558849172E+02 -0.89644272992E+01 -0.12623299961E+04  0.12638618880E+04  0.00000000000E+00 0.  1.
         -4    1    3    3    0  502 -0.18644084454E+03 -0.22548124655E+03 -0.40337512986E+02  0.29534572286E+03  0.00000000000E+00 0. -1.
</event>
<event>
 7    1  0.4894942E-006  0.9938927E+03  0.7818608E-02  0.9589127E-01
         -2   -1    0    0    0  501  0.00000000000E+00  0.00000000000E+00  0.28670850160E+03  0.28670850160E+03  0.00000000000E+00 0.  1.
         -4   -1    0    0    0  502 -0.00000000000E+00 -0.00000000000E+00 -0.23402410525E+04  0.23402410525E+04  0.00000000000E+00 0. -1.
   -9000010    2    1    2    0  501  0.13064245269E+02  0.32284887553E+02 -0.22177020088E+04  0.24301071562E+04  0.99297814775E+03 0.  0.
        -13    1    1    2    0    0 -0.16901930487E+02 -0.41619385828E+02  0.15039576127E+02  0.47371389519E+02  0.10566000000E+00 0.  1.
         13    1    3    3    0    0 -0.32833579263E+03 -0.35077771418E+03 -0.10748480433E+04  0.11773477502E+04  0.10566000000E+00 0. -1.
         -2    1    1    2    0  502  0.38376852181E+01  0.93344982748E+01  0.14912988185E+03  0.14947100839E+03  0.00000000000E+00 0.  1.
         -4    1    3    3    0  501  0.34140003790E+03  0.38306260173E+03 -0.11428539656E+04  0.12527594060E+04  0.00000000000E+00 0. -1.
</event>
<event>
 7    1  0.4894942E-006  0.1023712E+04  0.7818608E-02  0.9091883E-01
          1   -1    0    0  501    0  0.00000000000E+00  0.00000000000E+00  0.59243702797E+03  0.59243702797E+03  0.00000000000E+00 0. -1.
         -4   -1    0    0    0  501 -0.00000000000E+00 -0.00000000000E+00 -0.18546362138E+04  0.18546362138E+04  0.00000000000E+00 0. -1.
   -9000010    2    1    2    0  502 -0.20599493758E+03 -0.21091660851E+03 -0.87195473031E+03  0.13532070232E+04  0.99193974910E+03 0.  0.
        -13    1    1    2    0    0  0.20464424635E+03  0.14326264605E+03 -0.71747131604E+03  0.75971610081E+03  0.10566000000E+00 0.  1.
         13    1    3    3    0    0 -0.43218537521E+03 -0.50119504423E+03 -0.62301321834E+03  0.90891482125E+03  0.10566000000E+00 0. -1.
          1    1    1    2  502    0  0.13506912273E+01  0.67653962460E+02  0.32722686049E+03  0.33415011781E+03  0.00000000000E+00 0. -1.
         -4    1    3    3    0  502  0.22619043763E+03  0.29027843572E+03 -0.24894151197E+03  0.44429220194E+03  0.00000000000E+00 0. -1.
</event>
<event>
 7    1  0.4894942E-006  0.1443944E+04  0.7818608E-02  0.8523261E-01
          1   -1    0    0  501    0  0.00000000000E+00  0.00000000000E+00  0.12480445128E+04  0.12480445128E+04  0.00000000000E+00 0. -1.
         -4   -1    0    0    0  501 -0.00000000000E+00 -0.00000000000E+00 -0.19302923548E+04  0.19302923548E+04  0.00000000000E+00 0. -1.
   -9000010    2    1    2    0  502  0.95213031382E+03 -0.34353391411E+03 -0.51303510638E+03  0.15406923864E+04  0.10420942013E+04 0.  0.
        -13    1    1    2    0    0 -0.84825713731E+03  0.53070413520E+03 -0.59282004544E+03  0.11630230727E+04  0.10566000000E+00 0.  1.
         13    1    3    3    0    0  0.54559103086E+03  0.11069766191E+03 -0.70802167135E+03  0.90067654770E+03  0.10566000000E+00 0. -1.
          1    1    1    2  502    0 -0.10387317651E+03 -0.18717022110E+03  0.42360730989E+03  0.47462140855E+03  0.00000000000E+00 0. -1.
         -4    1    3    3    0  502  0.40653928296E+03 -0.45423157602E+03  0.19498656497E+03  0.64001583868E+03  0.00000000000E+00 0. -1.
</event>
<event>
 7    1  0.4894942E-006  0.1902063E+04  0.7818608E-02  0.8432095E-01
         -4   -1    0    0    0  501 -0.00000000000E+00  0.00000000000E+00  0.38670415607E+04  0.38670415607E+04  0.00000000000E+00 0. -1.
          2   -1    0    0  501    0  0.00000000000E+00 -0.00000000000E+00 -0.18350325739E+04  0.18350325739E+04  0.00000000000E+00 0. -1.
   -9000010    2    1    2    0  502  0.13409776007E+04 -0.29952217489E+03  0.18102500755E+04  0.24823604445E+04  0.99858579072E+03 0.  0.
        -13    1    1    2    0    0  0.33389302463E+03  0.57248941147E+03  0.11187066646E+04  0.13002820043E+04  0.10566000000E+00 0.  1.
         13    1    3    3    0    0  0.63740887285E+03  0.10841287407E+03  0.14602095132E+04  0.15969518640E+04  0.10566000000E+00 0. -1.
          2    1    1    2  502    0 -0.16748706254E+04 -0.27296723658E+03 -0.89694775340E+03  0.19194316858E+04  0.00000000000E+00 0. -1.
         -4    1    3    3    0  502  0.70356872788E+03 -0.40793504896E+03  0.35004056231E+03  0.88540858043E+03  0.00000000000E+00 0. -1.
</event>
<event>
 7    1  0.4894942E-006  0.1235170E+04  0.7818608E-02  0.8706156E-01
         -4   -1    0    0    0  501 -0.00000000000E+00  0.00000000000E+00  0.33196569082E+04  0.33196569082E+04  0.00000000000E+00 0. -1.
          2   -1    0    0  501    0  0.00000000000E+00 -0.00000000000E+00 -0.58760199390E+03  0.58760199390E+03  0.00000000000E+00 0. -1.
   -9000010    2    1    2    0  502 -0.45837081303E+02  0.85388562185E+03  0.14019317346E+04  0.19276201574E+04  0.10094974935E+04 0.  0.
        -13    1    1    2    0    0  0.60197183686E+03 -0.43842986324E+03  0.87758892231E+03  0.11509792201E+04  0.10566000000E+00 0.  1.
         13    1    3    3    0    0  0.86220588499E+02 -0.14798442839E+02 -0.13287925245E+03  0.15909082528E+03  0.10566000000E+00 0. -1.
          2    1    1    2  502    0 -0.55613475555E+03 -0.41545575861E+03  0.45253425735E+03  0.82865952464E+03  0.00000000000E+00 0. -1.
         -4    1    3    3    0  502 -0.13205766980E+03  0.86868406469E+03  0.15348109871E+04  0.17685293321E+04  0.00000000000E+00 0. -1.
</event>
<event>
 7    1  0.4894942E-006  0.1000000E+04  0.7818608E-02  0.9065202E-01
          2   -1    0    0  502    0  0.00000000000E+00  0.00000000000E+00  0.79066550915E+03  0.79066550915E+03  0.00000000000E+00 0.  1.
          4   -1    0    0  501    0 -0.00000000000E+00 -0.00000000000E+00 -0.64282676652E+03  0.64282676652E+03  0.00000000000E+00 0.  1.
    9000010    2    1    2  502    0  0.32206928641E+03  0.83497176530E+01  0.16562446859E+03  0.10198502867E+04  0.95334400911E+03 0.  0.
        -13    1    3    3    0    0 -0.11657007550E+03 -0.16512836473E+02 -0.33423012774E+03  0.35436005097E+03  0.10566000000E+00 0.  1.
         13    1    1    2    0    0 -0.29827451215E+03 -0.58899885734E+01 -0.11031148623E+03  0.31807390921E+03  0.10566000000E+00 0. -1.
          2    1    1    2  501    0 -0.23794774264E+02 -0.24597290797E+01  0.92525760274E+02  0.95568079732E+02  0.00000000000E+00 0.  1.
          4    1    3    3  502    0  0.43863936192E+03  0.24862554126E+02  0.49985459632E+03  0.66549023576E+03  0.00000000000E+00 0.  1.
</event>
<event>
 7    1  0.4894942E-006  0.1227279E+04  0.7818608E-02  0.8714560E-01
          2   -1    0    0  502    0  0.00000000000E+00  0.00000000000E+00  0.95993316221E+03  0.95993316221E+03  0.00000000000E+00 0.  1.
          4   -1    0    0  501    0 -0.00000000000E+00 -0.00000000000E+00 -0.11971729176E+04  0.11971729176E+04  0.00000000000E+00 0.  1.
    9000010    2    1    2  502    0 -0.45312118716E+03  0.52654491199E+03 -0.44177101805E+03  0.13016871895E+04  0.10082953696E+04 0.  0.
        -13    1    3    3    0    0 -0.63574027982E+03 -0.13524798393E+02 -0.34492623464E+03  0.72341049347E+03  0.10566000000E+00 0.  1.
         13    1    1    2    0    0  0.47300446551E+03 -0.52174792901E+03  0.57073167935E+02  0.70654899581E+03  0.10566000000E+00 0. -1.
          2    1    1    2  501    0 -0.19883278351E+02 -0.47969829854E+01  0.14745809471E+03  0.14886989453E+03  0.00000000000E+00 0.  1.
          4    1    3    3  502    0  0.18261909266E+03  0.54006971038E+03 -0.96844783404E+02  0.57827669601E+03  0.00000000000E+00 0.  1.
</event>
<event>
 7    1  0.4894942E-006  0.1232844E+04  0.7818608E-02  0.8774547E-01
          4   -1    0    0  501    0 -0.00000000000E+00  0.00000000000E+00  0.95138053486E+03  0.95138053486E+03  0.00000000000E+00 0.  1.
          2   -1    0    0  502    0  0.00000000000E+00 -0.00000000000E+00 -0.93480788623E+03  0.93480788623E+03  0.00000000000E+00 0.  1.
    9000010    2    1    2  502    0  0.81494572291E+02  0.51291614778E+03 -0.90753143162E+02  0.12300196171E+04  0.11113000429E+04 0.  0.
        -13    1    3    3    0    0  0.33772403607E+03  0.12340397650E+03  0.41033046499E+03  0.54557966203E+03  0.10566000000E+00 0.  1.
         13    1    1    2    0    0 -0.91785514737E+02 -0.53005024918E+03  0.19046435588E+03  0.57066148406E+03  0.10566000000E+00 0. -1.
          2    1    1    2  501    0  0.10290942445E+02  0.17134101397E+02 -0.83138564095E+02  0.85507319961E+02  0.00000000000E+00 0.  1.
          4    1    3    3  502    0 -0.25622946378E+03  0.38951217128E+03 -0.50108360816E+03  0.68443995503E+03  0.00000000000E+00 0.  1.
</event>
<event>
 7    1  0.4894942E-006  0.9801786E+03  0.7818608E-02  0.9215175E-01
          2   -1    0    0  502    0  0.00000000000E+00  0.00000000000E+00  0.16457326961E+04  0.16457326961E+04  0.00000000000E+00 0.  1.
          4   -1    0    0  501    0 -0.00000000000E+00 -0.00000000000E+00 -0.17319263680E+04  0.17319263680E+04  0.00000000000E+00 0.  1.
    9000010    2    1    2  502    0 -0.71133566236E+02  0.13206392671E+03 -0.13607389832E+04  0.16742741124E+04  0.96388918355E+03 0.  0.
        -13    1    3    3    0    0 -0.39889031468E+03  0.36074552330E+03 -0.54387524503E+03  0.76488633733E+03  0.10566000000E+00 0.  1.
         13    1    1    2    0    0 -0.75348873752E+02 -0.18563460853E+03 -0.16246251375E+03  0.25793747343E+03  0.10566000000E+00 0. -1.
          2    1    1    2  501    0  0.14648243999E+03  0.53570681817E+02  0.14370078250E+04  0.14454474782E+04  0.00000000000E+00 0.  1.
          4    1    3    3  502    0  0.32775674844E+03 -0.22868159658E+03 -0.81686373813E+03  0.90938777507E+03  0.00000000000E+00 0.  1.
</event>
<event>
 7    1  0.4894942E-006  0.1171935E+04  0.7818608E-02  0.8785393E-01
          2   -1    0    0  502    0  0.00000000000E+00  0.00000000000E+00  0.22352270837E+04  0.22352270837E+04  0.00000000000E+00 0.  1.
          4   -1    0    0  501    0 -0.00000000000E+00 -0.00000000000E+00 -0.76865427436E+03  0.76865427436E+03  0.00000000000E+00 0.  1.
    9000010    2    1    2  502    0  0.36699109434E+03 -0.26670474401E+03  0.54656637621E+03  0.12352598776E+04  0.10106029278E+04 0.  0.
        -13    1    3    3    0    0  0.22388716607E+03 -0.41358240045E+03 -0.16215787018E+03  0.49746462298E+03  0.10566000000E+00 0.  1.
         13    1    1    2    0    0 -0.67712876041E+03 -0.14508019080E+03 -0.24127171007E+02  0.69291684313E+03  0.10566000000E+00 0. -1.
          2    1    1    2  501    0  0.31013766607E+03  0.41178493481E+03  0.94413360415E+03  0.10757046374E+04  0.00000000000E+00 0.  1.
          4    1    3    3  502    0  0.14310392827E+03  0.14687765644E+03  0.70872424639E+03  0.73779525458E+03  0.00000000000E+00 0.  1.
</event>
<event>
 7    1  0.4894942E-006  0.1073008E+04  0.7818608E-02  0.8985591E-01
         -4   -1    0    0    0  501 -0.00000000000E+00  0.00000000000E+00  0.28731124791E+04  0.28731124791E+04  0.00000000000E+00 0. -1.
          2   -1    0    0  501    0  0.00000000000E+00 -0.00000000000E+00 -0.36355806408E+03  0.36355806408E+03  0.00000000000E+00 0. -1.
   -9000010    2    1    2    0  502  0.32617251199E+03  0.34338041553E+02  0.19957748485E+04  0.22646678271E+04  0.10188402780E+04 0.  0.
        -13    1    1    2    0    0 -0.33219879497E+03 -0.70070622275E+02  0.70228547360E+03  0.78004540194E+03  0.10566000000E+00 0.  1.
         13    1    3    3    0    0 -0.11169227374E+03  0.42913053580E+03  0.11600825240E+04  0.12419418885E+04  0.10566000000E+00 0. -1.
          2    1    1    2  502    0  0.60262829870E+01  0.35732580722E+02 -0.18850590717E+03  0.19195731414E+03  0.00000000000E+00 0. -1.
         -4    1    3    3    0  502  0.43786478573E+03 -0.39479249425E+03  0.83569232454E+03  0.10227259386E+04  0.00000000000E+00 0. -1.
</event>
<event>
 7    1  0.4894942E-006  0.1195748E+04  0.7818608E-02  0.8884064E-01
          4   -1    0    0  501    0  0.00000000000E+00  0.00000000000E+00  0.15085093964E+04  0.15085093964E+04  0.00000000000E+00 0.  1.
         -4   -1    0    0    0  501 -0.00000000000E+00 -0.00000000000E+00 -0.10199454929E+04  0.10199454929E+04  0.00000000000E+00 0. -1.
   -9000010    2    1    2    0  502 -0.16750890964E+03  0.53800129519E+03 -0.26129263756E+03  0.11812489792E+04  0.10047739447E+04 0.  0.
        -13    1    1    2    0    0 -0.35444918986E+03 -0.10287523737E+03  0.51253806331E+02  0.37261844624E+03  0.10566000000E+00 0.  1.
         13    1    3    3    0    0 -0.20670156987E+03  0.57655374499E+03 -0.58853588743E+03  0.84941995609E+03  0.10566000000E+00 0. -1.
          4    1    1    2  502    0  0.52195809949E+03 -0.43512605781E+03  0.69860273473E+03  0.97458746389E+03  0.00000000000E+00 0.  1.
         -4    1    3    3    0  502  0.39192660234E+02 -0.38552449801E+02  0.32724324987E+03  0.33182902313E+03  0.00000000000E+00 0. -1.
</event>
<event>
 7    1  0.4894942E-006  0.1091310E+04  0.7818608E-02  0.9351897E-01
          2   -1    0    0  502    0  0.00000000000E+00  0.00000000000E+00  0.36468836163E+04  0.36468836163E+04  0.00000000000E+00 0.  1.
          4   -1    0    0  501    0 -0.00000000000E+00 -0.00000000000E+00 -0.18965470743E+03  0.18965470743E+03  0.00000000000E+00 0.  1.
    9000010    2    1    2  502    0 -0.30519117283E+03 -0.27834192379E+03  0.17896525011E+04  0.20933053515E+04  0.10042187717E+04 0.  0.
        -13    1    3    3    0    0 -0.67684126918E+03 -0.16338556193E+03  0.11797184471E+04  0.13698702752E+04  0.10566000000E+00 0.  1.
         13    1    1    2    0    0 -0.59607092151E+02  0.48190483119E+02  0.25391014497E+03  0.26522763992E+03  0.10566000000E+00 0. -1.
          2    1    1    2  501    0  0.36479826498E+03  0.23015144067E+03  0.14136662628E+04  0.14780053323E+04  0.00000000000E+00 0.  1.
          4    1    3    3  502    0  0.37165009635E+03 -0.11495636186E+03  0.60993405401E+03  0.72343507621E+03  0.00000000000E+00 0.  1.
</event>
<event>
 7    1  0.4894942E-006  0.1206234E+04  0.7818608E-02  0.8737114E-01
         -4   -1    0    0    0  501 -0.00000000000E+00  0.00000000000E+00  0.28035789785E+04  0.28035789785E+04  0.00000000000E+00 0. -1.
          1   -1    0    0  501    0  0.00000000000E+00 -0.00000000000E+00 -0.42938087955E+03  0.42938087955E+03  0.00000000000E+00 0. -1.
   -9000010    2    1    2    0  502  0.58089256703E+03 -0.34843144010E+03  0.10146003171E+04  0.15798686784E+04  0.10038578557E+04 0.  0.
        -13    1    1    2    0    0 -0.58409692815E+03  0.32129351987E+03  0.14299023272E+04  0.15776626457E+04  0.10566000000E+00 0.  1.
         13    1    3    3    0    0  0.47870279246E+03 -0.18921814585E+03  0.12056881702E+04  0.13109705737E+04  0.10566000000E+00 0. -1.
          1    1    1    2  502    0  0.32043611213E+01  0.27137920233E+02 -0.70304545322E+02  0.75428533975E+02  0.00000000000E+00 0. -1.
         -4    1    3    3    0  502  0.10218977457E+03 -0.15921329425E+03 -0.19108785306E+03  0.26889810464E+03  0.00000000000E+00 0. -1.
</event>
<event>
 7    1  0.4894942E-006  0.9989731E+03  0.7818608E-02  0.9132913E-01
          4   -1    0    0  501    0 -0.00000000000E+00  0.00000000000E+00  0.61091824853E+03  0.61091824853E+03  0.00000000000E+00 0.  1.
          2   -1    0    0  502    0  0.00000000000E+00 -0.00000000000E+00 -0.20082516371E+04  0.20082516371E+04  0.00000000000E+00 0.  1.
    9000010    2    1    2  502    0 -0.20600809123E+03 -0.10035001970E+03 -0.43955597328E+02  0.99937315425E+03  0.97175364511E+03 0.  0.
        -13    1    3    3    0    0 -0.28629771455E+03  0.26944110843E+03  0.29487113175E+03  0.49144062487E+03  0.10566000000E+00 0.  1.
         13    1    1    2    0    0  0.22656234684E+03  0.54314262333E+02  0.30527555085E+02  0.23497335782E+03  0.10566000000E+00 0. -1.
          2    1    1    2  501    0 -0.20554255610E+02  0.46035757371E+02 -0.13839053463E+04  0.13848233736E+04  0.00000000000E+00 0.  1.
          4    1    3    3  502    0  0.80289623318E+02 -0.36979112814E+03 -0.33882672908E+03  0.50793252938E+03  0.00000000000E+00 0.  1.
</event>
<event>
 7    1  0.4894942E-006  0.1172951E+04  0.7818608E-02  0.8763609E-01
          4   -1    0    0  501    0 -0.00000000000E+00  0.00000000000E+00  0.18985020741E+04  0.18985020741E+04  0.00000000000E+00 0.  1.
          2   -1    0    0  502    0  0.00000000000E+00 -0.00000000000E+00 -0.87375053807E+03  0.87375053807E+03  0.00000000000E+00 0. -1.
    9000010    2    1    2  502    0 -0.67056722233E+03 -0.17386898285E+03  0.11828215191E+04  0.16831805053E+04  0.97680041184E+03 0.  0.
        -13    1    3    3    0    0 -0.21336769690E+03  0.15900868196E+03  0.10750076321E+04  0.11074524619E+04  0.10566000000E+00 0.  1.
         13    1    1    2    0    0  0.58551106716E+03  0.18590566746E+03  0.25648579158E+03  0.66570947072E+03  0.10566000000E+00 0. -1.
          2    1    1    2  501    0  0.85056155171E+02 -0.12036684619E+02 -0.41455577469E+03  0.42336263609E+03  0.00000000000E+00 0. -1.
          4    1    3    3  502    0 -0.45719952543E+03 -0.33287766481E+03  0.10781388698E+03  0.57572804344E+03  0.00000000000E+00 0.  1.
</event>
<event>
 7    1  0.4894942E-006  0.1130194E+04  0.7818608E-02  0.9002000E-01
          4   -1    0    0  501    0 -0.00000000000E+00  0.00000000000E+00  0.46005985992E+03  0.46005985992E+03  0.00000000000E+00 0.  1.
          2   -1    0    0  502    0  0.00000000000E+00 -0.00000000000E+00 -0.31807509439E+04  0.31807509439E+04  0.00000000000E+00 0. -1.
    9000010    2    1    2  502    0  0.28543732894E+02 -0.40487068071E+03 -0.78497531100E+03  0.13401123380E+04  0.10074620721E+04 0.  0.
        -13    1    3    3    0    0 -0.16976278981E+03 -0.55926222386E+03 -0.89243067071E+03  0.10667830862E+04  0.10566000000E+00 0.  1.
         13    1    1    2    0    0 -0.25897655818E+03 -0.74683227267E+02  0.23475321218E+02  0.27055044630E+03  0.10566000000E+00 0. -1.
          2    1    1    2  501    0  0.23043282529E+03  0.47955390797E+03 -0.19591910942E+04  0.20301480195E+04  0.00000000000E+00 0. -1.
          4    1    3    3  502    0  0.19830652270E+03  0.15439154316E+03  0.10745535971E+03  0.27332925178E+03  0.00000000000E+00 0.  1.
</event>
<event>
 7    1  0.4894942E-006  0.1099045E+04  0.7818608E-02  0.8879213E-01
          4   -1    0    0  501    0 -0.00000000000E+00  0.00000000000E+00  0.23303497954E+03  0.23303497954E+03  0.00000000000E+00 0.  1.
          2   -1    0    0  502    0  0.00000000000E+00 -0.00000000000E+00 -0.30200894035E+04  0.30200894035E+04  0.00000000000E+00 0.  1.
    9000010    2    1    2  502    0  0.30644151579E+03 -0.36071205316E+03 -0.21724151288E+04  0.24322984775E+04  0.98623972959E+03 0.  0.
        -13    1    3    3    0    0 -0.32006831978E+03 -0.96809968111E+02 -0.12006466314E+04  0.12463419450E+04  0.10566000000E+00 0.  1.
         13    1    1    2    0    0 -0.32396509362E+03  0.36492675572E+03 -0.47829064669E+03  0.68329120645E+03  0.10566000000E+00 0. -1.
          2    1    1    2  501    0  0.17523577834E+02 -0.42147025644E+01 -0.13634864848E+03  0.13753469904E+03  0.00000000000E+00 0.  1.
          4    1    3    3  502    0  0.62650983557E+03 -0.26390208505E+03 -0.97176849742E+03  0.11859565326E+04  0.00000000000E+00 0.  1.
</event>
<event>
 7    1  0.4894942E-006  0.1030530E+04  0.7818608E-02  0.8984826E-01
          4   -1    0    0  501    0 -0.00000000000E+00  0.00000000000E+00  0.12771597341E+04  0.12771597341E+04  0.00000000000E+00 0.  1.
          2   -1    0    0  502    0  0.00000000000E+00 -0.00000000000E+00 -0.66638610715E+03  0.66638610715E+03  0.00000000000E+00 0.  1.
    9000010    2    1    2  502    0 -0.26969594520E+03  0.25468960388E+03  0.37416631542E+03  0.10928447342E+04  0.95744790155E+03 0.  0.
        -13    1    3    3    0    0  0.30410601294E+03 -0.11004189339E+03  0.14649809268E+02  0.32373494325E+03  0.10566000000E+00 0.  1.
         13    1    1    2    0    0  0.27883392238E+03 -0.26268467574E+03  0.47599735526E+03  0.61100334575E+03  0.10566000000E+00 0. -1.
          2    1    1    2  501    0 -0.91379771753E+01  0.79950718577E+01 -0.23939004369E+03  0.23969776139E+03  0.00000000000E+00 0.  1.
          4    1    3    3  502    0 -0.57380195814E+03  0.36473149728E+03  0.35951650615E+03  0.76910979091E+03  0.00000000000E+00 0.  1.
</event>
<event>
 7    1  0.4894942E-006  0.1007383E+04  0.7818608E-02  0.9298907E-01
         -4   -1    0    0    0  501 -0.00000000000E+00  0.00000000000E+00  0.13828543555E+04  0.13828543555E+04  0.00000000000E+00 0. -1.
          2   -1    0    0  501    0  0.00000000000E+00 -0.00000000000E+00 -0.11427535059E+04  0.11427535059E+04  0.00000000000E+00 0.  1.
   -9000010    2    1    2    0  502  0.88659138284E+02  0.33236339654E+02  0.93269261674E+03  0.13709645069E+04  0.10003314775E+04 0.  0.
        -13    1    1    2    0    0 -0.11245970883E+03 -0.43945126165E+02  0.21504970256E+03  0.24662673407E+03  0.10566000000E+00 0.  1.
         13    1    3    3    0    0 -0.26607649839E+02 -0.42571055536E+03  0.14212174674E+03  0.44959542484E+03  0.10566000000E+00 0. -1.
          2    1    1    2  502    0  0.23800570549E+02  0.10708786512E+02 -0.90764146973E+03  0.90801662036E+03  0.00000000000E+00 0.  1.
         -4    1    3    3    0  502  0.11526678812E+03  0.45894689501E+03  0.79057087001E+03  0.92136908207E+03  0.00000000000E+00 0. -1.
</event>
<event>
 7    1  0.4894942E-006  0.1046779E+04  0.7818608E-02  0.9058368E-01
          4   -1    0    0  501    0 -0.00000000000E+00  0.00000000000E+00  0.23846587469E+04  0.23846587469E+04  0.00000000000E+00 0.  1.
          2   -1    0    0  502    0  0.00000000000E+00 -0.00000000000E+00 -0.23447931503E+03  0.23447931503E+03  0.00000000000E+00 0.  1.
    9000010    2    1    2  502    0  0.27874858143E+03 -0.29230716703E+02  0.16538505588E+04  0.19586645815E+04  0.10112319543E+04 0.  0.
        -13    1    3    3    0    0 -0.97241540422E+01 -0.49452465706E+03  0.90052279620E+03  0.10274193463E+04  0.10566000000E+00 0.  1.
         13    1    1    2    0    0 -0.26847413649E+03  0.79525640724E+01  0.54431988587E+03  0.60698085189E+03  0.10566000000E+00 0. -1.
          2    1    1    2  501    0 -0.10274444937E+02  0.21278152631E+02 -0.47991012824E+02  0.53492628558E+02  0.00000000000E+00 0.  1.
          4    1    3    3  502    0  0.28847273547E+03  0.46529394035E+03  0.75332776264E+03  0.93124523516E+03  0.00000000000E+00 0.  1.
</event>
<event>
 7    1  0.4894942E-006  0.1060212E+04  0.7818608E-02  0.8959580E-01
          2   -1    0    0  502    0  0.00000000000E+00  0.00000000000E+00  0.39614038125E+04  0.39614038125E+04  0.00000000000E+00 0.  1.
          4   -1    0    0  501    0 -0.00000000000E+00 -0.00000000000E+00 -0.79291952507E+03  0.79291952507E+03  0.00000000000E+00 0.  1.
    9000010    2    1    2  502    0 -0.20605374977E+03  0.37298915936E+03 -0.18187198032E+03  0.10900499831E+04  0.98668763423E+03 0.  0.
        -13    1    3    3    0    0 -0.47100006335E+03  0.13199719766E+03 -0.43248499983E+03  0.65292235840E+03  0.10566000000E+00 0.  1.
         13    1    1    2    0    0  0.23479749736E+03 -0.28791799263E+03  0.64362967200E+02  0.37705336222E+03  0.10566000000E+00 0. -1.
          2    1    1    2  501    0 -0.28743747596E+02 -0.85071166724E+02  0.32859933005E+04  0.32872199923E+04  0.00000000000E+00 0.  1.
          4    1    3    3  502    0  0.26494631359E+03  0.24099196170E+03  0.25061301951E+03  0.43712762465E+03  0.00000000000E+00 0.  1.
</event>
<event>
 7    1  0.4894942E-006  0.9937530E+03  0.7818608E-02  0.9572154E-01
          4   -1    0    0  501    0 -0.00000000000E+00  0.00000000000E+00  0.39033349868E+03  0.39033349868E+03  0.00000000000E+00 0.  1.
          2   -1    0    0  502    0  0.00000000000E+00 -0.00000000000E+00 -0.10102386631E+04  0.10102386631E+04  0.00000000000E+00 0.  1.
    9000010    2    1    2  502    0  0.42433454557E+02  0.28415084643E+02 -0.46596462724E+03  0.10971260572E+04  0.99194482527E+03 0.  0.
        -13    1    3    3    0    0 -0.46913705565E+03  0.39995748342E+02 -0.30380291111E+03  0.56034405220E+03  0.10566000000E+00 0.  1.
         13    1    1    2    0    0  0.16185636161E+02 -0.42322572536E+02  0.63389981137E+02  0.77919675542E+02  0.10566000000E+00 0. -1.
          2    1    1    2  501    0 -0.58619090718E+02  0.13907487893E+02 -0.21733051830E+03  0.22552642905E+03  0.00000000000E+00 0.  1.
          4    1    3    3  502    0  0.51157051020E+03 -0.11580663699E+02 -0.16216171612E+03  0.53678200497E+03  0.00000000000E+00 0.  1.
</event>
<event>
 7    1  0.4894942E-006  0.1019749E+04  0.7818608E-02  0.9352367E-01
          2   -1    0    0  502    0  0.00000000000E+00  0.00000000000E+00  0.16746992051E+04  0.16746992051E+04  0.00000000000E+00 0.  1.
          4   -1    0    0  501    0 -0.00000000000E+00 -0.00000000000E+00 -0.58482655805E+03  0.58482655805E+03  0.00000000000E+00 0.  1.
    9000010    2    1    2  502    0  0.71425211555E+02 -0.68653130816E+02  0.50729575325E+03  0.11394104178E+04  0.10154271543E+04 0.  0.
        -13    1    3    3    0    0  0.52756363696E+03  0.91193389201E+02  0.23546498303E+03  0.58487895729E+03  0.10566000000E+00 0.  1.
         13    1    1    2    0    0 -0.78134751618E+02  0.51797587468E+02 -0.26049433353E+03  0.27684894517E+03  0.10566000000E+00 0. -1.
          2    1    1    2  501    0  0.67095400630E+01  0.16855543348E+02  0.84307122737E+03  0.84326640018E+03  0.00000000000E+00 0.  1.
          4    1    3    3  502    0 -0.45613842540E+03 -0.15984652002E+03  0.27183077022E+03  0.55453146054E+03  0.00000000000E+00 0.  1.
</event>
<event>
 6    1  0.4894942E-006  0.1810161E+04  0.7818608E-02  0.8429910E-01
         -4   -1    0    0    0  501 -0.00000000000E+00  0.00000000000E+00  0.21669166266E+04  0.21669166266E+04  0.00000000000E+00 0. -1.
          2   -1    0    0  501    0  0.00000000000E+00 -0.00000000000E+00 -0.88965272224E+03  0.88965272224E+03  0.00000000000E+00 0. -1.
        -13    1    1    2    0    0  0.38353797740E+03 -0.66781562010E+03  0.59372032787E+03  0.97241088098E+03  0.10566000000E+00 0.  1.
         13    1    1    2    0    0 -0.32127424148E+03 -0.19286205191E+03  0.10120451217E+04  0.10791886994E+04  0.10566000000E+00 0. -1.
          2    1    1    2  502    0  0.71566156342E+02  0.10172038349E+02 -0.82198424053E+02  0.10946125349E+03  0.00000000000E+00 0. -1.
         -4    1    1    2    0  502 -0.13382989227E+03  0.85050563367E+03 -0.24630312116E+03  0.89550851502E+03  0.00000000000E+00 0. -1.
</event>
<event>
 7    1  0.4894942E-006  0.9941618E+03  0.7818608E-02  0.9323458E-01
          2   -1    0    0  501    0  0.00000000000E+00  0.00000000000E+00  0.89670610258E+03  0.89670610258E+03  0.00000000000E+00 0. -1.
         -4   -1    0    0    0  501 -0.00000000000E+00 -0.00000000000E+00 -0.27218903236E+04  0.27218903236E+04  0.00000000000E+00 0. -1.
   -9000010    2    1    2    0  502  0.76032777525E+02  0.93752434548E+02 -0.22598063755E+04  0.24691948844E+04  0.98773884200E+03 0.  0.
        -13    1    1    2    0    0 -0.96252960360E+02 -0.58628512581E+02 -0.34796705295E+03  0.36576360668E+03  0.10566000000E+00 0.  1.
         13    1    3    3    0    0 -0.29985939525E+03 -0.18319486660E+03 -0.32429952216E+03  0.47816964281E+03  0.10566000000E+00 0. -1.
          2    1    1    2  502    0  0.20220182835E+02 -0.35123921966E+02  0.78258920747E+03  0.78363793510E+03  0.00000000000E+00 0. -1.
         -4    1    3    3    0  502  0.37589217278E+03  0.27694730115E+03 -0.19355068534E+04  0.19910252416E+04  0.00000000000E+00 0. -1.
</event>
<event>
 7    1  0.4894942E-006  0.1048792E+04  0.7818608E-02  0.9099057E-01
          2   -1    0    0  501    0  0.00000000000E+00  0.00000000000E+00  0.39039869170E+03  0.39039869170E+03  0.00000000000E+00 0.  1.
         -4   -1    0    0    0  501 -0.00000000000E+00 -0.00000000000E+00 -0.21414975650E+04  0.21414975650E+04  0.00000000000E+00 0. -1.
   -9000010    2    1    2    0  502  0.46484624247E+02  0.21520749920E+03 -0.15584780516E+04  0.18774902597E+04  0.10235432330E+04 0.  0.
        -13    1    1    2    0    0 -0.51328329679E+02 -0.22464381228E+03 -0.39201740545E+03  0.45472749770E+03  0.10566000000E+00 0.  1.
         13    1    3    3    0    0  0.59439655709E+02 -0.36516534320E+03 -0.25142032395E+03  0.44731531497E+03  0.10566000000E+00 0. -1.
          2    1    1    2  502    0  0.48437054317E+01  0.94363130755E+01  0.19939658375E+03  0.19967849933E+03  0.00000000000E+00 0.  1.
         -4    1    3    3    0  502 -0.12955031462E+02  0.58037284241E+03 -0.13070577277E+04  0.14301749447E+04  0.00000000000E+00 0. -1.
</event>
<event>
 7    1  0.4894942E-006  0.2174990E+04  0.7818608E-02  0.8127638E-01
          4   -1    0    0  501    0 -0.00000000000E+00  0.00000000000E+00  0.25640417723E+04  0.25640417723E+04  0.00000000000E+00 0.  1.
          2   -1    0    0  502    0  0.00000000000E+00 -0.00000000000E+00 -0.17325329584E+04  0.17325329584E+04  0.00000000000E+00 0. -1.
    9000010    2    1    2  502    0 -0.11990643927E+04 -0.14925247652E+04  0.49537400485E+03  0.22417425151E+04  0.10557596824E+04 0.  0.
        -13    1    3    3    0    0 -0.90247116353E+03 -0.13154877996E+04 -0.50124883004E+02  0.15960810966E+04  0.10566000000E+00 0.  1.
         13    1    1    2    0    0  0.11982163675E+04  0.14622827416E+04  0.44472571719E+03  0.19421056239E+04  0.10566000000E+00 0. -1.
          2    1    1    2  501    0  0.84802521454E+00  0.30242023569E+02 -0.10859090816E+03  0.11272659168E+03  0.00000000000E+00 0. -1.
          4    1    3    3  502    0 -0.29659322916E+03 -0.17703696565E+03  0.54549888786E+03  0.64566141858E+03  0.00000000000E+00 0.  1.
</event>
<event>
 7    1  0.4894942E-006  0.1044972E+04  0.7818608E-02  0.9040621E-01
          2   -1    0    0  501    0  0.00000000000E+00  0.00000000000E+00  0.19934567322E+04  0.19934567322E+04  0.00000000000E+00 0. -1.
         -4   -1    0    0    0  501 -0.00000000000E+00 -0.00000000000E+00 -0.41780876270E+03  0.41780876270E+03  0.00000000000E+00 0. -1.
   -9000010    2    1    2    0  502  0.30937224797E+03  0.22887389255E+03  0.59203738789E+03  0.12269349284E+04  0.10033775975E+04 0.  0.
        -13    1    1    2    0    0 -0.17372365291E+03 -0.21149134523E+03  0.10185470388E+03  0.29203234163E+03  0.10566000000E+00 0.  1.
         13    1    3    3    0    0 -0.31850954998E+03 -0.62238432885E+02  0.13375763555E+02  0.32480898721E+03  0.10566000000E+00 0. -1.
          2    1    1    2  502    0 -0.13564859506E+03 -0.17382547312E+02  0.88175587775E+03  0.89229822495E+03  0.00000000000E+00 0. -1.
         -4    1    3    3    0  502  0.62788179795E+03  0.29111232543E+03  0.57866162433E+03  0.90212594115E+03  0.00000000000E+00 0. -1.
</event>
<event>
 7    1  0.4894942E-006  0.1138870E+04  0.7818608E-02  0.8991408E-01
          4   -1    0    0  501    0  0.00000000000E+00  0.00000000000E+00  0.18519406469E+04  0.18519406469E+04  0.00000000000E+00 0. -1.
         -4   -1    0    0    0  501 -0.00000000000E+00 -0.00000000000E+00 -0.10121900218E+04  0.10121900218E+04  0.00000000000E+00 0. -1.
   -9000010    2    1    2    0  502 -0.34105251879E+02  0.26160423581E+03  0.23672417139E+02  0.10702969316E+04  0.10370029865E+04 0.  0.
        -13    1    1    2    0    0 -0.22693210176E+03  0.15525948505E+03 -0.39809486837E+03  0.48382147730E+03  0.10566000000E+00 0.  1.
         13    1    3    3    0    0  0.35350538503E+03  0.44595774699E+03  0.20428070719E+03  0.60462797474E+03  0.10566000000E+00 0. -1.
          4    1    1    2  502    0  0.26103735364E+03 -0.41686372086E+03  0.12141730763E+04  0.13100122598E+04  0.00000000000E+00 0. -1.
         -4    1    3    3    0  502 -0.38761063691E+03 -0.18435351117E+03 -0.18060829006E+03  0.46566895684E+03  0.00000000000E+00 0. -1.
</event>
<event>
 7    1  0.4894942E-006  0.1006606E+04  0.7818608E-02  0.9172596E-01
          4   -1    0    0  501    0 -0.00000000000E+00  0.00000000000E+00  0.12579375556E+04  0.12579375556E+04  0.00000000000E+00 0.  1.
          2   -1    0    0  502    0  0.00000000000E+00 -0.00000000000E+00 -0.15768632839E+04  0.15768632839E+04  0.00000000000E+00 0.  1.
    9000010    2    1    2  502    0  0.16464998947E+03  0.28834827243E+02  0.72897211565E+03  0.12389646361E+04  0.98777120723E+03 0.  0.
        -13    1    3    3    0    0  0.34057460106E+03  0.43237343360E+03  0.31232069548E+03  0.63283652942E+03  0.10566000000E+00 0.  1.
         13    1    1    2    0    0 -0.19072914475E+03  0.60539235348E+02  0.23551733300E+03  0.30904859000E+03  0.10566000000E+00 0. -1.
          2    1    1    2  501    0  0.26079155279E+02 -0.89374062591E+02 -0.12834151770E+04  0.12867876134E+04  0.00000000000E+00 0.  1.
          4    1    3    3  502    0 -0.17592461159E+03 -0.40353860636E+03  0.41665142017E+03  0.60612810669E+03  0.00000000000E+00 0.  1.
</event>
<event>
 7    1  0.4894942E-006  0.1045462E+04  0.7818608E-02  0.9092160E-01
          1   -1    0    0  501    0  0.00000000000E+00  0.00000000000E+00  0.14095581237E+04  0.14095581237E+04  0.00000000000E+00 0. -1.
         -4   -1    0    0    0  501 -0.00000000000E+00 -0.00000000000E+00 -0.10453081465E+04  0.10453081465E+04  0.00000000000E+00 0. -1.
   -9000010    2    1    2    0  502  0.98950853582E+02 -0.19848778307E+03 -0.70221645924E+03  0.12565659528E+04  0.10181656872E+04 0.  0.
        -13    1    1    2    0    0 -0.63250424252E+02  0.24569451332E+03  0.18291507873E+03  0.31276883993E+03  0.10566000000E+00 0.  1.
         13    1    3    3    0    0  0.41066727174E+03 -0.46644876493E+03 -0.50431679846E+03  0.80034836338E+03  0.10566000000E+00 0. -1.
          1    1    1    2  502    0 -0.35700429330E+02 -0.47206730247E+02  0.88355135770E+03  0.88553147755E+03  0.00000000000E+00 0. -1.
         -4    1    3    3    0  502 -0.31171641816E+03  0.26796098186E+03 -0.19789966079E+03  0.45621758942E+03  0.00000000000E+00 0. -1.
</event>
<event>
 7    1  0.4894942E-006  0.1015310E+04  0.7818608E-02  0.9220749E-01
          4   -1    0    0  501    0 -0.00000000000E+00  0.00000000000E+00  0.43546588163E+04  0.43546588163E+04  0.00000000000E+00 0.  1.
          2   -1    0    0  502    0  0.00000000000E+00 -0.00000000000E+00 -0.12443633794E+03  0.12443633794E+03  0.00000000000E+00 0.  1.
    9000010    2    1    2  502    0 -0.11632680382E+03 -0.18643210186E+02  0.38117766404E+04  0.39433258534E+04  0.10031441249E+04 0.  0.
        -13    1    3    3    0    0 -0.32742649702E+03  0.38260681455E+03  0.26254985782E+04  0.26733572303E+04  0.10566000000E+00 0.  1.
         13    1    1    2    0    0  0.16578200317E+03  0.88686227700E+00  0.44644229251E+03  0.47623018678E+03  0.10566000000E+00 0. -1.
          2    1    1    2  501    0 -0.49455199350E+02  0.17756347909E+02 -0.27996454549E+02  0.59539114044E+02  0.00000000000E+00 0.  1.
          4    1    3    3  502    0  0.21109969320E+03 -0.40125002473E+03  0.11862780622E+04  0.12699686231E+04  0.00000000000E+00 0.  1.
</event>
<event>
 7    1  0.4894942E-006  0.1015578E+04  0.7818608E-02  0.9269326E-01
          2   -1    0    0  502    0  0.00000000000E+00  0.00000000000E+00  0.10895684772E+04  0.10895684772E+04  0.00000000000E+00 0. -1.
          4   -1    0    0  501    0 -0.00000000000E+00 -0.00000000000E+00 -0.13422744046E+04  0.13422744046E+04  0.00000000000E+00 0.  1.
    9000010    2    1    2  502    0 -0.17782436374E+03  0.77466217139E+02 -0.10362682207E+04  0.14580751672E+04  0.10072283002E+04 0.  0.
        -13    1    3    3    0    0  0.33214228719E+02 -0.34997078552E+03 -0.40225225314E+02  0.35383727280E+03  0.10566000000E+00 0.  1.
         13    1    1    2    0    0  0.87557891496E+02 -0.81757178308E+02 -0.53958608221E+02  0.13138555146E+03  0.10566000000E+00 0. -1.
          2    1    1    2  501    0  0.90266472240E+02  0.42909611691E+01  0.83752090154E+03  0.84238216320E+03  0.00000000000E+00 0. -1.
          4    1    3    3  502    0 -0.21103859246E+03  0.42743700266E+03 -0.99604299535E+03  0.11042378944E+04  0.00000000000E+00 0.  1.
</event>
<event>
 7    1  0.4894942E-006  0.1330726E+04  0.7818608E-02  0.8603206E-01
         -4   -1    0    0    0  501 -0.00000000000E+00  0.00000000000E+00  0.10267317566E+04  0.10267317566E+04  0.00000000000E+00 0. -1.
          1   -1    0    0  501    0  0.00000000000E+00 -0.00000000000E+00 -0.16242622904E+04  0.16242622904E+04  0.00000000000E+00 0. -1.
   -9000010    2    1    2    0  502 -0.84604320093E+03 -0.14983787526E+03 -0.53857769597E+03  0.14147304636E+04  0.98648662603E+03 0.  0.
        -13    1    1    2    0    0  0.89530022296E+03  0.13446512616E+03  0.23699808992E+03  0.93584799256E+03  0.10566000000E+00 0.  1.
         13    1    3    3    0    0  0.70789010435E+02  0.17153964825E+03  0.13763148630E+03  0.23103976304E+03  0.10566000000E+00 0. -1.
          1    1    1    2  502    0 -0.49257022031E+02  0.15372749104E+02 -0.29595092772E+03  0.30041559089E+03  0.00000000000E+00 0. -1.
         -4    1    3    3    0  502 -0.91683221137E+03 -0.32137752351E+03 -0.67620918227E+03  0.11836907006E+04  0.00000000000E+00 0. -1.
</event>
<event>
 7    1  0.4894942E-006  0.1069833E+04  0.7818608E-02  0.8978174E-01
          2   -1    0    0  502    0  0.00000000000E+00  0.00000000000E+00  0.32702714956E+04  0.32702714956E+04  0.00000000000E+00 0.  1.
          4   -1    0    0  501    0 -0.00000000000E+00 -0.00000000000E+00 -0.15829220592E+04  0.15829220592E+04  0.00000000000E+00 0.  1.
    9000010    2    1    2  502    0 -0.19678720194E+03 -0.76376800768E+02  0.33508660570E+03  0.10857596343E+04  0.10109561472E+04 0.  0.
        -13    1    3    3    0    0 -0.48693039093E+03  0.26593974100E+03  0.31177531243E+03  0.63641889355E+03  0.10566000000E+00 0.  1.
         13    1    1    2    0    0  0.31944195064E+03  0.15521390020E+03 -0.11793294676E+04  0.12316462637E+04  0.10566000000E+00 0. -1.
          2    1    1    2  501    0 -0.12265474870E+03 -0.78837099431E+02  0.25315922983E+04  0.25357876568E+04  0.00000000000E+00 0.  1.
          4    1    3    3  502    0  0.29014318900E+03 -0.34231654177E+03  0.23311293273E+02  0.44934074074E+03  0.00000000000E+00 0.  1.
</event>
<event>
 7    1  0.4894942E-006  0.1060871E+04  0.7818608E-02  0.9231829E-01
          4   -1    0    0  502    0  0.00000000000E+00  0.00000000000E+00  0.82180377337E+03  0.82180377337E+03  0.00000000000E+00 0.  1.
          4   -1    0    0  501    0 -0.00000000000E+00 -0.00000000000E+00 -0.69912606432E+03  0.69912606432E+03  0.00000000000E+00 0.  1.
    9000010    2    1    2  502    0  0.91495047055E+02  0.20652643374E+03  0.28983634845E+02  0.10770256022E+04  0.10526725917E+04 0.  0.
        -13    1    3    3    0    0 -0.44554015114E+01  0.63620871751E+03  0.25852943900E+02  0.63674937669E+03  0.10566000000E+00 0.  1.
         13    1    1    2    0    0 -0.57670016606E+02 -0.11365843863E+03 -0.14050791359E+03  0.18970122939E+03  0.10566000000E+00 0. -1.
          4    1    1    2  501    0 -0.33825030449E+02 -0.92867995113E+02  0.23420198779E+03  0.25420300605E+03  0.00000000000E+00 0.  1.
          4    1    3    3  502    0  0.95950448567E+02 -0.42968228377E+03  0.31306909458E+01  0.44027622556E+03  0.00000000000E+00 0.  1.
</event>
<event>
 7    1  0.4894942E-006  0.1065250E+04  0.7818608E-02  0.8952854E-01
          2   -1    0    0  502    0  0.00000000000E+00  0.00000000000E+00  0.16635462524E+04  0.16635462524E+04  0.00000000000E+00 0.  1.
          4   -1    0    0  501    0 -0.00000000000E+00 -0.00000000000E+00 -0.16821419545E+04  0.16821419545E+04  0.00000000000E+00 0.  1.
    9000010    2    1    2  502    0 -0.60757097512E+03 -0.35084189543E+03 -0.11536085071E+04  0.16623121329E+04  0.96965793663E+03 0.  0.
        -13    1    3    3    0    0 -0.12245884889E+02  0.26119824085E+03 -0.48752290349E+02  0.26599112711E+03  0.10566000000E+00 0.  1.
         13    1    1    2    0    0  0.17109506198E+03  0.35393538687E+03 -0.72183262787E+02  0.39969264805E+03  0.10566000000E+00 0. -1.
          2    1    1    2  501    0  0.43647591314E+03 -0.30934914437E+01  0.12071960677E+04  0.12836834260E+04  0.00000000000E+00 0.  1.
          4    1    3    3  502    0 -0.59532509023E+03 -0.61204013628E+03 -0.11048562167E+04  0.13963210057E+04  0.00000000000E+00 0.  1.
</event>
<event>
 7    1  0.4894942E-006  0.1480595E+04  0.7818608E-02  0.8494311E-01
          2   -1    0    0  501    0  0.00000000000E+00  0.00000000000E+00  0.37076327129E+04  0.37076327129E+04  0.00000000000E+00 0.  1.
         -4   -1    0    0    0  501 -0.00000000000E+00 -0.00000000000E+00 -0.14107965261E+04  0.14107965261E+04  0.00000000000E+00 0. -1.
   -9000010    2    1    2    0  502  0.80349100809E+03  0.89840886010E+03 -0.48058910308E+03  0.16609244816E+04  0.10368066201E+04 0.  0.
        -13    1    1    2    0    0 -0.64051745669E+03 -0.63638672657E+03  0.28611882028E+03  0.94716137409E+03  0.10566000000E+00 0.  1.
         13    1    3    3    0    0  0.86892033554E+02  0.79880952860E+03 -0.48284022995E+03  0.93743351086E+03  0.10566000000E+00 0. -1.
          2    1    1    2  502    0 -0.16297355140E+03 -0.26202213353E+03  0.24913064696E+04  0.25103433834E+04  0.00000000000E+00 0.  1.
         -4    1    3    3    0  502  0.71659897454E+03  0.99599331509E+02  0.22511268692E+01  0.72349097072E+03  0.00000000000E+00 0. -1.
</event>
