<event>
 6    1  0.1412458E-005  0.1162702E+04  0.7818608E-02  0.9336121E-01
         21   -1    0    0  501  502  0.00000000000E+00  0.00000000000E+00  0.33816439052E+03  0.33816439052E+03  0.00000000000E+00 0.  1.
          4   -1    0    0  502    0 -0.00000000000E+00 -0.00000000000E+00 -0.22974969968E+04  0.22974969968E+04  0.00000000000E+00 0.  1.
    9000010    2    1    2  501    0 -0.57550401038E+03  0.42986448939E+00 -0.10942727194E+04  0.15966552902E+04  0.10102822777E+04 0.  0.
        -13    1    3    3    0    0 -0.29247829438E+03 -0.88319918522E+02 -0.12322205218E+04  0.12695319555E+04  0.10566000000E+00 0.  1.
          4    1    3    3  501    0 -0.28302571600E+03  0.88749783012E+02  0.13794780239E+03  0.32712333467E+03  0.00000000000E+00 0.  1.
         13    1    1    2    0    0  0.57550401038E+03 -0.42986448939E+00 -0.86505988691E+03  0.10390060971E+04  0.10566000000E+00 0. -1.
<mgrwt>
<rscale>  1 0.97524417E+03</rscale>
<asrwt>0</asrwt>
<pdfrwt beam="1">  1       21 0.52025289E-01 0.11627017E+04</pdfrwt>
<pdfrwt beam="2">  1        4 0.35346109E+00 0.11627017E+04</pdfrwt>
<totfact> 0.19217660E+00</totfact>
</mgrwt>
</event>
<event>
 6    1  0.1412458E-005  0.1009461E+04  0.7818608E-02  0.9821953E-01
          4   -1    0    0  502    0 -0.00000000000E+00  0.00000000000E+00  0.18793497157E+03  0.18793497157E+03  0.00000000000E+00 0.  1.
         21   -1    0    0  501  502  0.00000000000E+00 -0.00000000000E+00 -0.37787019999E+04  0.37787019999E+04  0.00000000000E+00 0.  1.
    9000010    2    1    2  501    0  0.16350317931E+03 -0.23067026254E+02 -0.36532019167E+04  0.37901050939E+04  0.99586495130E+03 0.  0.
        -13    1    3    3    0    0 -0.39859446429E+02 -0.48689196054E+03 -0.14747177076E+04  0.15535265962E+04  0.10566000000E+00 0.  1.
          4    1    3    3  501    0  0.20336262573E+03  0.46382493429E+03 -0.21784842091E+04  0.22365784977E+04  0.00000000000E+00 0.  1.
         13    1    1    2    0    0 -0.16350317931E+03  0.23067026254E+02  0.62434888384E+02  0.17653187756E+03  0.10566000000E+00 0. -1.
<mgrwt>
<rscale>  1 0.64197595E+03</rscale>
<asrwt>0</asrwt>
<pdfrwt beam="2">  1       21 0.58133876E+00 0.10094614E+04</pdfrwt>
<pdfrwt beam="1">  1        4 0.28913073E-01 0.10094614E+04</pdfrwt>
<totfact> 0.14533793E-01</totfact>
</mgrwt>
</event>
<event>
 6    1  0.1412458E-005  0.1002682E+04  0.7818608E-02  0.1033733E+00
          4   -1    0    0  502    0 -0.00000000000E+00  0.00000000000E+00  0.11721766397E+04  0.11721766397E+04  0.00000000000E+00 0.  1.
         21   -1    0    0  501  502  0.00000000000E+00 -0.00000000000E+00 -0.24024266789E+03  0.24024266789E+03  0.00000000000E+00 0.  1.
    9000010    2    1    2  501    0  0.23813793775E+02 -0.24325806678E+02  0.81958147350E+03  0.12950228141E+04  0.10021035154E+04 0.  0.
        -13    1    3    3    0    0 -0.65970827074E+01 -0.70140593026E+02 -0.23176669498E+03  0.24223756182E+03  0.10566000000E+00 0.  1.
          4    1    3    3  501    0  0.30410876483E+02  0.45814786348E+02  0.10513481685E+04  0.10527852523E+04  0.00000000000E+00 0.  1.
         13    1    1    2    0    0 -0.23813793775E+02  0.24325806678E+02  0.11235249831E+03  0.11739649350E+03  0.10566000000E+00 0. -1.
<mgrwt>
<rscale>  1 0.43040351E+03</rscale>
<asrwt>0</asrwt>
<pdfrwt beam="2">  1       21 0.36960411E-01 0.10026816E+04</pdfrwt>
<pdfrwt beam="1">  1        4 0.18033486E+00 0.10026816E+04</pdfrwt>
<totfact> 0.50937503E+01</totfact>
</mgrwt>
</event>
<event>
 6    1  0.1412458E-005  0.1039760E+04  0.7818608E-02  0.9621526E-01
         21   -1    0    0  501  502  0.00000000000E+00  0.00000000000E+00  0.86864340817E+03  0.86864340817E+03  0.00000000000E+00 0.  1.
          4   -1    0    0  502    0 -0.00000000000E+00 -0.00000000000E+00 -0.64275404461E+03  0.64275404461E+03  0.00000000000E+00 0.  1.
    9000010    2    1    2  501    0  0.19742327462E+03 -0.21925891711E+03  0.45783731914E+03  0.11360971898E+04  0.99702125949E+03 0.  0.
        -13    1    3    3    0    0  0.67475906337E+02  0.27916267842E+03  0.54275775548E+03  0.61406090191E+03  0.10566000000E+00 0.  1.
          4    1    3    3  501    0  0.12994736828E+03 -0.49842159553E+03 -0.84920436340E+02  0.52203628793E+03  0.00000000000E+00 0.  1.
         13    1    1    2    0    0 -0.19742327462E+03  0.21925891711E+03 -0.23194795558E+03  0.37530026293E+03  0.10566000000E+00 0. -1.
<mgrwt>
<rscale>  1 0.75887691E+03</rscale>
<asrwt>0</asrwt>
<pdfrwt beam="1">  1       21 0.13363745E+00 0.10397605E+04</pdfrwt>
<pdfrwt beam="2">  1        4 0.98885237E-01 0.10397605E+04</pdfrwt>
<totfact> 0.12335990E+01</totfact>
</mgrwt>
</event>
<event>
 6    1  0.1412458E-005  0.9591987E+03  0.7818608E-02  0.9739484E-01
         21   -1    0    0  501  502  0.00000000000E+00  0.00000000000E+00  0.88113656216E+03  0.88113656216E+03  0.00000000000E+00 0.  1.
          4   -1    0    0  502    0 -0.00000000000E+00 -0.00000000000E+00 -0.43040625779E+03  0.43040625779E+03  0.00000000000E+00 0.  1.
    9000010    2    1    2  501    0  0.38070406383E+01  0.25258159716E+03  0.44861708662E+03  0.10589236725E+04  0.92533782863E+03 0.  0.
        -13    1    3    3    0    0  0.30218771459E+03  0.36583548392E+03 -0.39048646454E+02  0.47610694607E+03  0.10566000000E+00 0.  1.
          4    1    3    3  501    0 -0.29838067395E+03 -0.11325388676E+03  0.48766573307E+03  0.58281672648E+03  0.00000000000E+00 0.  1.
         13    1    1    2    0    0 -0.38070406383E+01 -0.25258159716E+03  0.21132177579E+01  0.25261914740E+03  0.10566000000E+00 0. -1.
<mgrwt>
<rscale>  1 0.68713835E+03</rscale>
<asrwt>0</asrwt>
<pdfrwt beam="1">  1       21 0.13555947E+00 0.95919865E+03</pdfrwt>
<pdfrwt beam="2">  1        4 0.66216347E-01 0.95919865E+03</pdfrwt>
<totfact> 0.30177329E+01</totfact>
</mgrwt>
</event>
<event>
 6    1  0.1412458E-005  0.1091639E+04  0.7818608E-02  0.9456540E-01
         21   -1    0    0  501  502  0.00000000000E+00  0.00000000000E+00  0.89809286860E+03  0.89809286860E+03  0.00000000000E+00 0. -1.
          4   -1    0    0  502    0 -0.00000000000E+00 -0.00000000000E+00 -0.67098295617E+03  0.67098295617E+03  0.00000000000E+00 0.  1.
    9000010    2    1    2  501    0 -0.15549232664E+03 -0.42435671042E+03  0.83358257218E+02  0.10948174238E+04  0.99369014847E+03 0.  0.
        -13    1    3    3    0    0 -0.35186541172E+03  0.17912981070E+03 -0.14460393451E+03  0.42048432323E+03  0.10566000000E+00 0.  1.
          4    1    3    3  501    0  0.19637308507E+03 -0.60348652112E+03  0.22796219172E+03  0.67433310060E+03  0.00000000000E+00 0.  1.
         13    1    1    2    0    0  0.15549232664E+03  0.42435671042E+03  0.14375165521E+03  0.47425840094E+03  0.10566000000E+00 0. -1.
<mgrwt>
<rscale>  1 0.87565179E+03</rscale>
<asrwt>0</asrwt>
<pdfrwt beam="1">  1       21 0.13816813E+00 0.10916394E+04</pdfrwt>
<pdfrwt beam="2">  1        4 0.10322815E+00 0.10916394E+04</pdfrwt>
<totfact> 0.10103511E+01</totfact>
</mgrwt>
</event>
<event>
 6    1  0.1412458E-005  0.1079143E+04  0.7818608E-02  0.9479771E-01
          4   -1    0    0  502    0 -0.00000000000E+00  0.00000000000E+00  0.84382512151E+03  0.84382512151E+03  0.00000000000E+00 0.  1.
         21   -1    0    0  501  502  0.00000000000E+00 -0.00000000000E+00 -0.10067705648E+04  0.10067705648E+04  0.00000000000E+00 0.  1.
    9000010    2    1    2  501    0 -0.33494055199E+03  0.27135713044E+03 -0.60166698314E+03  0.12355375864E+04  0.98930789095E+03 0.  0.
        -13    1    3    3    0    0 -0.37445292535E+03  0.49074975035E+03 -0.25578774210E+02  0.61782246287E+03  0.10566000000E+00 0.  1.
          4    1    3    3  501    0  0.39512373366E+02 -0.21939261991E+03 -0.57608820893E+03  0.61771512349E+03  0.00000000000E+00 0.  1.
         13    1    1    2    0    0  0.33494055199E+03 -0.27135713044E+03  0.43872153987E+03  0.61505809995E+03  0.10566000000E+00 0. -1.
<mgrwt>
<rscale>  1 0.85791808E+03</rscale>
<asrwt>0</asrwt>
<pdfrwt beam="2">  1       21 0.15488778E+00 0.10791432E+04</pdfrwt>
<pdfrwt beam="1">  1        4 0.12981925E+00 0.10791432E+04</pdfrwt>
<totfact> 0.41585085E+00</totfact>
</mgrwt>
</event>
<event>
 6    1  0.1412458E-005  0.1201306E+04  0.7818608E-02  0.9269679E-01
         21   -1    0    0  501  502  0.00000000000E+00  0.00000000000E+00  0.20160012521E+04  0.20160012521E+04  0.00000000000E+00 0. -1.
          4   -1    0    0  502    0 -0.00000000000E+00 -0.00000000000E+00 -0.14696081749E+04  0.14696081749E+04  0.00000000000E+00 0.  1.
    9000010    2    1    2  501    0 -0.66324052503E+03  0.49164416786E+02  0.17428374588E+04  0.21167470150E+04  0.10004151058E+04 0.  0.
        -13    1    3    3    0    0 -0.30506023288E+03 -0.46315050929E+03  0.62169519553E+03  0.83311167753E+03  0.10566000000E+00 0.  1.
          4    1    3    3  501    0 -0.35818029215E+03  0.51231492607E+03  0.11211422632E+04  0.12836353375E+04  0.00000000000E+00 0.  1.
         13    1    1    2    0    0  0.66324052503E+03 -0.49164416786E+02 -0.11964443815E+04  0.13688624120E+04  0.10566000000E+00 0. -1.
<mgrwt>
<rscale>  1 0.10362282E+04</rscale>
<asrwt>0</asrwt>
<pdfrwt beam="1">  1       21 0.31015404E+00 0.12013058E+04</pdfrwt>
<pdfrwt beam="2">  1        4 0.22609356E+00 0.12013058E+04</pdfrwt>
<totfact> 0.75402341E-02</totfact>
</mgrwt>
</event>
<event>
 6    1  0.1412458E-005  0.9334755E+03  0.7818608E-02  0.9937643E-01
         21   -1    0    0  501  502  0.00000000000E+00  0.00000000000E+00  0.99458898859E+03  0.99458898859E+03  0.00000000000E+00 0.  1.
          4   -1    0    0  502    0 -0.00000000000E+00 -0.00000000000E+00 -0.39796777756E+03  0.39796777756E+03  0.00000000000E+00 0.  1.
    9000010    2    1    2  501    0 -0.14361446752E+03  0.49630055488E+01  0.73875770431E+03  0.11904366519E+04  0.92234848609E+03 0.  0.
        -13    1    3    3    0    0 -0.22780264293E+03 -0.14054566591E+03  0.91114637887E+03  0.94964986349E+03  0.10566000000E+00 0.  1.
          4    1    3    3  501    0  0.84188175411E+02  0.14550867146E+03 -0.17238867457E+03  0.24078678840E+03  0.00000000000E+00 0.  1.
         13    1    1    2    0    0  0.14361446752E+03 -0.49630055488E+01 -0.14213649328E+03  0.20212011426E+03  0.10566000000E+00 0. -1.
<mgrwt>
<rscale>  1 0.58471139E+03</rscale>
<asrwt>0</asrwt>
<pdfrwt beam="1">  1       21 0.15301369E+00 0.93347548E+03</pdfrwt>
<pdfrwt beam="2">  1        4 0.61225812E-01 0.93347548E+03</pdfrwt>
<totfact> 0.25782012E+01</totfact>
</mgrwt>
</event>
<event>
 6    1  0.1412458E-005  0.1059168E+04  0.7818608E-02  0.9565538E-01
         21   -1    0    0  501  502  0.00000000000E+00  0.00000000000E+00  0.64246752632E+03  0.64246752632E+03  0.00000000000E+00 0.  1.
          4   -1    0    0  502    0 -0.00000000000E+00 -0.00000000000E+00 -0.15975031673E+04  0.15975031673E+04  0.00000000000E+00 0.  1.
    9000010    2    1    2  501    0  0.26874691210E+03  0.20533247967E+03  0.16323655738E+03  0.10716731927E+04  0.10037185503E+04 0.  0.
        -13    1    3    3    0    0 -0.22969349239E+03  0.34899626828E+03  0.32388123871E+03  0.52863651375E+03  0.10566000000E+00 0.  1.
          4    1    3    3  501    0  0.49844040449E+03 -0.14366378861E+03 -0.16064468133E+03  0.54303667890E+03  0.00000000000E+00 0.  1.
         13    1    1    2    0    0 -0.26874691210E+03 -0.20533247967E+03 -0.11182721984E+04  0.11682975010E+04  0.10566000000E+00 0. -1.
<mgrwt>
<rscale>  1 0.79619687E+03</rscale>
<asrwt>0</asrwt>
<pdfrwt beam="1">  1       21 0.98841158E-01 0.10591682E+04</pdfrwt>
<pdfrwt beam="2">  1        4 0.24576972E+00 0.10591682E+04</pdfrwt>
<totfact> 0.20880808E+00</totfact>
</mgrwt>
</event>
<event>
 6    1  0.1412458E-005  0.1017864E+04  0.7818608E-02  0.9764077E-01
          4   -1    0    0  502    0 -0.00000000000E+00  0.00000000000E+00  0.59139277812E+03  0.59139277812E+03  0.00000000000E+00 0.  1.
         21   -1    0    0  501  502  0.00000000000E+00 -0.00000000000E+00 -0.69776172756E+03  0.69776172756E+03  0.00000000000E+00 0.  1.
    9000010    2    1    2  501    0 -0.15298048276E+03 -0.12066081931E+03 -0.24877105047E+03  0.10478239627E+04  0.99904252155E+03 0.  0.
        -13    1    3    3    0    0  0.90658718240E+02 -0.53110067178E+03 -0.16276169587E+03  0.56283062067E+03  0.10566000000E+00 0.  1.
          4    1    3    3  501    0 -0.24363920100E+03  0.41043985246E+03 -0.86009354595E+02  0.48499334205E+03  0.00000000000E+00 0.  1.
         13    1    1    2    0    0  0.15298048276E+03  0.12066081931E+03  0.14240210103E+03  0.24133054296E+03  0.10566000000E+00 0. -1.
<mgrwt>
<rscale>  1 0.67326525E+03</rscale>
<asrwt>0</asrwt>
<pdfrwt beam="2">  1       21 0.10734796E+00 0.10178644E+04</pdfrwt>
<pdfrwt beam="1">  1        4 0.90983504E-01 0.10178644E+04</pdfrwt>
<totfact> 0.26622290E+01</totfact>
</mgrwt>
</event>
<event>
 6    1  0.1412458E-005  0.1094162E+04  0.7818608E-02  0.9450300E-01
         21   -1    0    0  501  502  0.00000000000E+00  0.00000000000E+00  0.35541181838E+03  0.35541181838E+03  0.00000000000E+00 0.  1.
          4   -1    0    0  502    0 -0.00000000000E+00 -0.00000000000E+00 -0.18098723890E+04  0.18098723890E+04  0.00000000000E+00 0.  1.
    9000010    2    1    2  501    0  0.33699042691E+03 -0.31139763850E+03 -0.12549191999E+04  0.16649365214E+04  0.99330779963E+03 0.  0.
        -13    1    3    3    0    0 -0.33055419189E+03  0.44899237006E+02 -0.45040722327E+03  0.56048969054E+03  0.10566000000E+00 0.  1.
          4    1    3    3  501    0  0.66754461880E+03 -0.35629687550E+03 -0.80451197662E+03  0.11044468308E+04  0.00000000000E+00 0.  1.
         13    1    1    2    0    0 -0.33699042691E+03  0.31139763850E+03 -0.19954137069E+03  0.50034768599E+03  0.10566000000E+00 0. -1.
<mgrwt>
<rscale>  1 0.88049303E+03</rscale>
<asrwt>0</asrwt>
<pdfrwt beam="1">  1       21 0.54678743E-01 0.10941624E+04</pdfrwt>
<pdfrwt beam="2">  1        4 0.27844190E+00 0.10941624E+04</pdfrwt>
<totfact> 0.51641504E+00</totfact>
</mgrwt>
</event>
<event>
 6    1  0.1412458E-005  0.9731200E+03  0.7818608E-02  0.1019303E+00
          4   -1    0    0  502    0 -0.00000000000E+00  0.00000000000E+00  0.28472436229E+03  0.28472436229E+03  0.00000000000E+00 0.  1.
         21   -1    0    0  501  502  0.00000000000E+00 -0.00000000000E+00 -0.93713156706E+03  0.93713156706E+03  0.00000000000E+00 0.  1.
    9000010    2    1    2  501    0 -0.10271570309E+02 -0.56385798537E+02 -0.59432294441E+03  0.11402553417E+04  0.97143070710E+03 0.  0.
        -13    1    3    3    0    0  0.51688638411E+02 -0.22407494105E+03 -0.82041019539E+03  0.85202945631E+03  0.10566000000E+00 0.  1.
          4    1    3    3  501    0 -0.61960208720E+02  0.16768914252E+03  0.22608725098E+03  0.28822588544E+03  0.00000000000E+00 0.  1.
         13    1    1    2    0    0  0.10271570309E+02  0.56385798537E+02 -0.58084260352E+02  0.81600587608E+02  0.10566000000E+00 0. -1.
<mgrwt>
<rscale>  1 0.47939080E+03</rscale>
<asrwt>0</asrwt>
<pdfrwt beam="2">  1       21 0.14417409E+00 0.97311997E+03</pdfrwt>
<pdfrwt beam="1">  1        4 0.43803748E-01 0.97311997E+03</pdfrwt>
<totfact> 0.61645443E+01</totfact>
</mgrwt>
</event>
<event>
 6    1  0.1412458E-005  0.9773425E+03  0.7818608E-02  0.1003432E+00
          4   -1    0    0  502    0 -0.00000000000E+00  0.00000000000E+00  0.36152672408E+03  0.36152672408E+03  0.00000000000E+00 0.  1.
         21   -1    0    0  501  502  0.00000000000E+00 -0.00000000000E+00 -0.80318817208E+03  0.80318817208E+03  0.00000000000E+00 0.  1.
    9000010    2    1    2  501    0 -0.86687548469E+02  0.31514273540E+02 -0.44159683533E+03  0.10724766403E+04  0.97298021491E+03 0.  0.
        -13    1    3    3    0    0 -0.21589417666E+03  0.89408975533E+02  0.26414597800E+03  0.35267175855E+03  0.10566000000E+00 0.  1.
          4    1    3    3  501    0  0.12920662819E+03 -0.57894701993E+02 -0.70574281333E+03  0.71980488179E+03  0.00000000000E+00 0.  1.
         13    1    1    2    0    0  0.86687548469E+02 -0.31514273540E+02 -0.64612675887E-01  0.92238255811E+02  0.10566000000E+00 0. -1.
<mgrwt>
<rscale>  1 0.54170499E+03</rscale>
<asrwt>0</asrwt>
<pdfrwt beam="2">  1       21 0.12356741E+00 0.97734251E+03</pdfrwt>
<pdfrwt beam="1">  1        4 0.55619496E-01 0.97734251E+03</pdfrwt>
<totfact> 0.56328406E+01</totfact>
</mgrwt>
</event>
<event>
 6    1  0.1412458E-005  0.1083757E+04  0.7818608E-02  0.9518094E-01
         21   -1    0    0  501  502  0.00000000000E+00  0.00000000000E+00  0.12904322370E+04  0.12904322370E+04  0.00000000000E+00 0. -1.
          4   -1    0    0  502    0 -0.00000000000E+00 -0.00000000000E+00 -0.41373992344E+03  0.41373992344E+03  0.00000000000E+00 0.  1.
    9000010    2    1    2  501    0 -0.20723329486E+03  0.30913342374E+03  0.58678781118E+03  0.12324161389E+04  0.10178509184E+04 0.  0.
        -13    1    3    3    0    0 -0.60719738371E+03  0.28900660061E+03  0.45036592754E+03  0.80934724181E+03  0.10566000000E+00 0.  1.
          4    1    3    3  501    0  0.39996408885E+03  0.20126823130E+02  0.13642188364E+03  0.42306889713E+03  0.00000000000E+00 0.  1.
         13    1    1    2    0    0  0.20723329486E+03 -0.30913342374E+03  0.28990450241E+03  0.47175602153E+03  0.10566000000E+00 0. -1.
<mgrwt>
<rscale>  1 0.82962884E+03</rscale>
<asrwt>0</asrwt>
<pdfrwt beam="1">  1       21 0.19852803E+00 0.10837572E+04</pdfrwt>
<pdfrwt beam="2">  1        4 0.63652296E-01 0.10837572E+04</pdfrwt>
<totfact> 0.10732122E+01</totfact>
</mgrwt>
</event>
<event>
 6    1  0.1412458E-005  0.1031208E+04  0.7818608E-02  0.9700223E-01
         21   -1    0    0  501  502  0.00000000000E+00  0.00000000000E+00  0.31545212168E+03  0.31545212168E+03  0.00000000000E+00 0.  1.
          4   -1    0    0  502    0 -0.00000000000E+00 -0.00000000000E+00 -0.13414797536E+04  0.13414797536E+04  0.00000000000E+00 0.  1.
    9000010    2    1    2  501    0  0.13134970439E+03 -0.19097272768E+03 -0.97592569178E+03  0.14197957474E+04  0.10048212184E+04 0.  0.
        -13    1    3    3    0    0 -0.38762060738E+03 -0.98405130505E+01 -0.71044754128E+03  0.80937154079E+03  0.10566000000E+00 0.  1.
          4    1    3    3  501    0  0.51897031177E+03 -0.18113221463E+03 -0.26547815050E+03  0.61042420666E+03  0.00000000000E+00 0.  1.
         13    1    1    2    0    0 -0.13134970439E+03  0.19097272768E+03 -0.50101940164E+02  0.23713612786E+03  0.10566000000E+00 0. -1.
<mgrwt>
<rscale>  1 0.71003538E+03</rscale>
<asrwt>0</asrwt>
<pdfrwt beam="1">  1       21 0.48531095E-01 0.10312075E+04</pdfrwt>
<pdfrwt beam="2">  1        4 0.20638150E+00 0.10312075E+04</pdfrwt>
<totfact> 0.19086524E+01</totfact>
</mgrwt>
</event>
<event>
 6    1  0.1412458E-005  0.8705084E+03  0.7818608E-02  0.9844871E-01
         21   -1    0    0  501  502  0.00000000000E+00  0.00000000000E+00  0.65416537335E+03  0.65416537335E+03  0.00000000000E+00 0.  1.
          4   -1    0    0  502    0 -0.00000000000E+00 -0.00000000000E+00 -0.11141518140E+04  0.11141518140E+04  0.00000000000E+00 0.  1.
    9000010    2    1    2  501    0 -0.16910790065E+03 -0.16880825061E+03  0.33913599934E+03  0.93423662002E+03  0.83707295298E+03 0.  0.
        -13    1    3    3    0    0 -0.48578261310E+03 -0.58175599087E+02  0.50767450228E+02  0.49188056750E+03  0.10566000000E+00 0.  1.
          4    1    3    3  501    0  0.31667471245E+03 -0.11063265152E+03  0.28836854911E+03  0.44235605252E+03  0.00000000000E+00 0.  1.
         13    1    1    2    0    0  0.16910790065E+03  0.16880825061E+03 -0.79912243997E+03  0.83408056731E+03  0.10566000000E+00 0. -1.
<mgrwt>
<rscale>  1 0.63009097E+03</rscale>
<asrwt>0</asrwt>
<pdfrwt beam="1">  1       21 0.10064083E+00 0.87050838E+03</pdfrwt>
<pdfrwt beam="2">  1        4 0.17140797E+00 0.87050838E+03</pdfrwt>
<totfact> 0.63073175E+00</totfact>
</mgrwt>
</event>
<event>
 6    1  0.1412458E-005  0.9456544E+03  0.7818608E-02  0.1000954E+00
         21   -1    0    0  501  502  0.00000000000E+00  0.00000000000E+00  0.54368834014E+03  0.54368834014E+03  0.00000000000E+00 0.  1.
          4   -1    0    0  502    0 -0.00000000000E+00 -0.00000000000E+00 -0.59141271100E+03  0.59141271100E+03  0.00000000000E+00 0.  1.
    9000010    2    1    2  501    0 -0.10990772125E+03 -0.57821324594E+01  0.99953435067E+02  0.95092210073E+03  0.93922788089E+03 0.  0.
        -13    1    3    3    0    0 -0.67184148275E+02 -0.23293795551E+03  0.46179126670E+03  0.52156014616E+03  0.10566000000E+00 0.  1.
          4    1    3    3  501    0 -0.42723572977E+02  0.22715582305E+03 -0.36183783163E+03  0.42936195457E+03  0.00000000000E+00 0.  1.
         13    1    1    2    0    0  0.10990772125E+03  0.57821324594E+01 -0.14767780592E+03  0.18417895040E+03  0.10566000000E+00 0. -1.
<mgrwt>
<rscale>  1 0.55233996E+03</rscale>
<asrwt>0</asrwt>
<pdfrwt beam="1">  1       21 0.83644360E-01 0.94565435E+03</pdfrwt>
<pdfrwt beam="2">  1        4 0.90986571E-01 0.94565435E+03</pdfrwt>
<totfact> 0.49323015E+01</totfact>
</mgrwt>
</event>
<event>
 6    1  0.1412458E-005  0.1014164E+04  0.7818608E-02  0.9748163E-01
         21   -1    0    0  501  502  0.00000000000E+00  0.00000000000E+00  0.97551339803E+03  0.97551339803E+03  0.00000000000E+00 0.  1.
          4   -1    0    0  502    0 -0.00000000000E+00 -0.00000000000E+00 -0.51903827397E+03  0.51903827397E+03  0.00000000000E+00 0.  1.
    9000010    2    1    2  501    0 -0.12741955645E+03 -0.16395696303E+03  0.65498399863E+03  0.12072827848E+04  0.99267822329E+03 0.  0.
        -13    1    3    3    0    0  0.38355977467E+02 -0.12683549115E+03  0.89968644045E+03  0.90939217344E+03  0.10566000000E+00 0.  1.
          4    1    3    3  501    0 -0.16577553392E+03 -0.37121471885E+02 -0.24470244182E+03  0.29789061139E+03  0.00000000000E+00 0.  1.
         13    1    1    2    0    0  0.12741955645E+03  0.16395696303E+03 -0.19850887456E+03  0.28726888717E+03  0.10566000000E+00 0. -1.
<mgrwt>
<rscale>  1 0.68220181E+03</rscale>
<asrwt>0</asrwt>
<pdfrwt beam="1">  1       21 0.15007898E+00 0.10141635E+04</pdfrwt>
<pdfrwt beam="2">  1        4 0.79852042E-01 0.10141635E+04</pdfrwt>
<totfact> 0.14879250E+01</totfact>
</mgrwt>
</event>
<event>
 6    1  0.1412458E-005  0.1269762E+04  0.7818608E-02  0.9180156E-01
          4   -1    0    0  502    0 -0.00000000000E+00  0.00000000000E+00  0.11010311145E+04  0.11010311145E+04  0.00000000000E+00 0.  1.
         21   -1    0    0  501  502  0.00000000000E+00 -0.00000000000E+00 -0.97662431966E+03  0.97662431966E+03  0.00000000000E+00 0.  1.
    9000010    2    1    2  501    0 -0.58291081343E+03  0.52634678833E+03 -0.59035222560E+02  0.12711339261E+04  0.99773260073E+03 0.  0.
        -13    1    3    3    0    0 -0.35910358366E+03 -0.21122561304E+03  0.19442026543E+03  0.45975090448E+03  0.10566000000E+00 0.  1.
          4    1    3    3  501    0 -0.22380722977E+03  0.73757240137E+03 -0.25345548799E+03  0.81138302161E+03  0.00000000000E+00 0.  1.
         13    1    1    2    0    0  0.58291081343E+03 -0.52634678833E+03  0.18344201735E+03  0.80652150802E+03  0.10566000000E+00 0. -1.
<mgrwt>
<rscale>  1 0.11260616E+04</rscale>
<asrwt>0</asrwt>
<pdfrwt beam="2">  1       21 0.15024990E+00 0.12697623E+04</pdfrwt>
<pdfrwt beam="1">  1        4 0.16938940E+00 0.12697623E+04</pdfrwt>
<totfact> 0.21624663E+00</totfact>
</mgrwt>
</event>
<event>
 6    1  0.1412458E-005  0.1214521E+04  0.7818608E-02  0.9229061E-01
         21   -1    0    0  501  502  0.00000000000E+00  0.00000000000E+00  0.12255807976E+04  0.12255807976E+04  0.00000000000E+00 0. -1.
          4   -1    0    0  502    0 -0.00000000000E+00 -0.00000000000E+00 -0.87618831399E+03  0.87618831399E+03  0.00000000000E+00 0.  1.
    9000010    2    1    2  501    0  0.69586427360E+03 -0.27380429888E+03  0.54138631289E+03  0.13297214946E+04  0.95700795815E+03 0.  0.
        -13    1    3    3    0    0  0.29190718071E+03  0.15384940694E+03 -0.19803467842E+03  0.38483397354E+03  0.10566000000E+00 0.  1.
          4    1    3    3  501    0  0.40395709289E+03 -0.42765370582E+03  0.73942099131E+03  0.94488752103E+03  0.00000000000E+00 0.  1.
         13    1    1    2    0    0 -0.69586427360E+03  0.27380429888E+03 -0.19199382925E+03  0.77204761705E+03  0.10566000000E+00 0. -1.
<mgrwt>
<rscale>  1 0.10758436E+04</rscale>
<asrwt>0</asrwt>
<pdfrwt beam="1">  1       21 0.18855089E+00 0.12145205E+04</pdfrwt>
<pdfrwt beam="2">  1        4 0.13479820E+00 0.12145205E+04</pdfrwt>
<totfact> 0.20739295E+00</totfact>
</mgrwt>
</event>
<event>
 6    1  0.1412458E-005  0.1014971E+04  0.7818608E-02  0.9867616E-01
         21   -1    0    0  501  502  0.00000000000E+00  0.00000000000E+00  0.14403741692E+03  0.14403741692E+03  0.00000000000E+00 0.  1.
          4   -1    0    0  502    0 -0.00000000000E+00 -0.00000000000E+00 -0.23390389765E+04  0.23390389765E+04  0.00000000000E+00 0.  1.
    9000010    2    1    2  501    0  0.28545182795E+02  0.13707868194E+03 -0.18384154303E+04  0.20999849275E+04  0.10052661383E+04 0.  0.
        -13    1    3    3    0    0  0.50875533626E+03  0.14131369631E+03 -0.10827379334E+04  0.12046256666E+04  0.10566000000E+00 0.  1.
          4    1    3    3  501    0 -0.48021015346E+03 -0.42350143718E+01 -0.75567749685E+03  0.89535926090E+03  0.00000000000E+00 0.  1.
         13    1    1    2    0    0 -0.28545182795E+02 -0.13707868194E+03 -0.35658612932E+03  0.38309146596E+03  0.10566000000E+00 0. -1.
<mgrwt>
<rscale>  1 0.61856748E+03</rscale>
<asrwt>0</asrwt>
<pdfrwt beam="1">  1       21 0.22159603E-01 0.10149706E+04</pdfrwt>
<pdfrwt beam="2">  1        4 0.35985215E+00 0.10149706E+04</pdfrwt>
<totfact> 0.10307154E+01</totfact>
</mgrwt>
</event>
<event>
 6    1  0.1412458E-005  0.1133131E+04  0.7818608E-02  0.9353438E-01
         21   -1    0    0  501  502  0.00000000000E+00  0.00000000000E+00  0.70370168650E+03  0.70370168650E+03  0.00000000000E+00 0.  1.
          4   -1    0    0  502    0 -0.00000000000E+00 -0.00000000000E+00 -0.11363032375E+04  0.11363032375E+04  0.00000000000E+00 0.  1.
    9000010    2    1    2  501    0 -0.58232033579E+03 -0.44054357789E+02 -0.35289514346E+02  0.11336801931E+04  0.97105492656E+03 0.  0.
        -13    1    3    3    0    0 -0.61424330706E+03 -0.33040571422E+03 -0.28398576511E+03  0.75306752831E+03  0.10566000000E+00 0.  1.
          4    1    3    3  501    0  0.31922971266E+02  0.28635135643E+03  0.24869625076E+03  0.38061266475E+03  0.00000000000E+00 0.  1.
         13    1    1    2    0    0  0.58232033579E+03  0.44054357789E+02 -0.39731203668E+03  0.70632473097E+03  0.10566000000E+00 0. -1.
<mgrwt>
<rscale>  1 0.96008646E+03</rscale>
<asrwt>0</asrwt>
<pdfrwt beam="1">  1       21 0.10826180E+00 0.11331308E+04</pdfrwt>
<pdfrwt beam="2">  1        4 0.17481588E+00 0.11331308E+04</pdfrwt>
<totfact> 0.48024074E+00</totfact>
</mgrwt>
</event>
<event>
 6    1  0.1412458E-005  0.1075116E+04  0.7818608E-02  0.9519438E-01
          4   -1    0    0  502    0 -0.00000000000E+00  0.00000000000E+00  0.87366613866E+03  0.87366613866E+03  0.00000000000E+00 0.  1.
         21   -1    0    0  501  502  0.00000000000E+00 -0.00000000000E+00 -0.71955386289E+03  0.71955386289E+03  0.00000000000E+00 0.  1.
    9000010    2    1    2  501    0 -0.37349743629E+03 -0.66851295986E+02 -0.17704784930E+03  0.10895966599E+04  0.10059351418E+04 0.  0.
        -13    1    3    3    0    0 -0.38218086485E+03 -0.14753128186E+03 -0.56240285831E+03  0.69579068604E+03  0.10566000000E+00 0.  1.
          4    1    3    3  501    0  0.86834285585E+01  0.80679985878E+02  0.38535500901E+03  0.39380597383E+03  0.00000000000E+00 0.  1.
         13    1    1    2    0    0  0.37349743629E+03  0.66851295986E+02  0.33116012507E+03  0.50362334168E+03  0.10566000000E+00 0. -1.
<mgrwt>
<rscale>  1 0.82865806E+03</rscale>
<asrwt>0</asrwt>
<pdfrwt beam="2">  1       21 0.11070059E+00 0.10751162E+04</pdfrwt>
<pdfrwt beam="1">  1        4 0.13441017E+00 0.10751162E+04</pdfrwt>
<totfact> 0.93349017E+00</totfact>
</mgrwt>
</event>
<event>
 6    1  0.1412458E-005  0.9942929E+03  0.7818608E-02  0.9870133E-01
         21   -1    0    0  501  502  0.00000000000E+00  0.00000000000E+00  0.39347656948E+03  0.39347656948E+03  0.00000000000E+00 0.  1.
          4   -1    0    0  502    0 -0.00000000000E+00 -0.00000000000E+00 -0.13455256333E+04  0.13455256333E+04  0.00000000000E+00 0.  1.
    9000010    2    1    2  501    0 -0.10099800665E+02 -0.14738343269E+03 -0.25500104675E+03  0.10264716200E+04  0.98325712330E+03 0.  0.
        -13    1    3    3    0    0  0.88017677868E+02  0.30848028030E+03 -0.42295219449E+03  0.53084438862E+03  0.10566000000E+00 0.  1.
          4    1    3    3  501    0 -0.98117478533E+02 -0.45586371299E+03  0.16795114773E+03  0.49562723133E+03  0.00000000000E+00 0.  1.
         13    1    1    2    0    0  0.10099800665E+02  0.14738343269E+03 -0.69704801705E+03  0.71253058281E+03  0.10566000000E+00 0. -1.
<mgrwt>
<rscale>  1 0.61730856E+03</rscale>
<asrwt>0</asrwt>
<pdfrwt beam="1">  1       21 0.60534855E-01 0.99429294E+03</pdfrwt>
<pdfrwt beam="2">  1        4 0.20700395E+00 0.99429294E+03</pdfrwt>
<totfact> 0.11696505E+01</totfact>
</mgrwt>
</event>
<event>
 6    1  0.1412458E-005  0.1047087E+04  0.7818608E-02  0.9740896E-01
         21   -1    0    0  501  502  0.00000000000E+00  0.00000000000E+00  0.59209272919E+03  0.59209272919E+03  0.00000000000E+00 0.  1.
          4   -1    0    0  502    0 -0.00000000000E+00 -0.00000000000E+00 -0.75880147845E+03  0.75880147845E+03  0.00000000000E+00 0.  1.
    9000010    2    1    2  501    0 -0.19241854385E+03 -0.18237654736E+02  0.65063205411E+02  0.10491066032E+04  0.10290937450E+04 0.  0.
        -13    1    3    3    0    0 -0.14790071979E+03 -0.17244814924E+03  0.51958237978E+03  0.56707922518E+03  0.10566000000E+00 0.  1.
          4    1    3    3  501    0 -0.44517824066E+02  0.15421049450E+03 -0.45451917437E+03  0.48202737800E+03  0.00000000000E+00 0.  1.
         13    1    1    2    0    0  0.19241854385E+03  0.18237654736E+02 -0.23177195467E+03  0.30178760446E+03  0.10566000000E+00 0. -1.
<mgrwt>
<rscale>  1 0.68633219E+03</rscale>
<asrwt>0</asrwt>
<pdfrwt beam="1">  1       21 0.91091189E-01 0.10470871E+04</pdfrwt>
<pdfrwt beam="2">  1        4 0.11673869E+00 0.10470871E+04</pdfrwt>
<totfact> 0.21761561E+01</totfact>
</mgrwt>
</event>
<event>
 6    1  0.1412458E-005  0.1023056E+04  0.7818608E-02  0.9723022E-01
         21   -1    0    0  501  502  0.00000000000E+00  0.00000000000E+00  0.99371635279E+03  0.99371635279E+03  0.00000000000E+00 0.  1.
          4   -1    0    0  502    0 -0.00000000000E+00 -0.00000000000E+00 -0.41016097191E+03  0.41016097191E+03  0.00000000000E+00 0.  1.
    9000010    2    1    2  501    0 -0.74236198789E+02  0.20702847614E+03  0.59526127843E+03  0.11836300947E+04  0.99913583072E+03 0.  0.
        -13    1    3    3    0    0 -0.89253008021E+02 -0.60020639973E+02  0.82442599899E+03  0.83141254238E+03  0.10566000000E+00 0.  1.
          4    1    3    3  501    0  0.15016809231E+02  0.26704911612E+03 -0.22916472056E+03  0.35221755227E+03  0.00000000000E+00 0.  1.
         13    1    1    2    0    0  0.74236198789E+02 -0.20702847614E+03 -0.11705897545E+02  0.22024723005E+03  0.10566000000E+00 0. -1.
<mgrwt>
<rscale>  1 0.69662443E+03</rscale>
<asrwt>0</asrwt>
<pdfrwt beam="1">  1       21 0.15287944E+00 0.10230563E+04</pdfrwt>
<pdfrwt beam="2">  1        4 0.63101688E-01 0.10230563E+04</pdfrwt>
<totfact> 0.23956187E+01</totfact>
</mgrwt>
</event>
<event>
 6    1  0.1412458E-005  0.1038661E+04  0.7818608E-02  0.9678283E-01
         21   -1    0    0  501  502  0.00000000000E+00  0.00000000000E+00  0.60916815410E+03  0.60916815410E+03  0.00000000000E+00 0.  1.
          4   -1    0    0  502    0 -0.00000000000E+00 -0.00000000000E+00 -0.85282877505E+03  0.85282877505E+03  0.00000000000E+00 0.  1.
    9000010    2    1    2  501    0 -0.10157010230E+03 -0.22206158387E+03  0.96643854742E+02  0.10431473379E+04  0.10095486622E+04 0.  0.
        -13    1    3    3    0    0  0.45059812446E+03 -0.21277403446E+02  0.45178853373E+02  0.45335696490E+03  0.10566000000E+00 0.  1.
          4    1    3    3  501    0 -0.55216822676E+03 -0.20078418043E+03  0.51465001369E+02  0.58979037303E+03  0.00000000000E+00 0.  1.
         13    1    1    2    0    0  0.10157010230E+03  0.22206158387E+03 -0.34030447570E+03  0.41884959121E+03  0.10566000000E+00 0. -1.
<mgrwt>
<rscale>  1 0.72324669E+03</rscale>
<asrwt>0</asrwt>
<pdfrwt beam="1">  1       21 0.93718178E-01 0.10386608E+04</pdfrwt>
<pdfrwt beam="2">  1        4 0.13120443E+00 0.10386608E+04</pdfrwt>
<totfact> 0.15106631E+01</totfact>
</mgrwt>
</event>
<event>
 6    1  0.1412458E-005  0.1252399E+04  0.7818608E-02  0.9205417E-01
          4   -1    0    0  502    0 -0.00000000000E+00  0.00000000000E+00  0.22211748047E+04  0.22211748047E+04  0.00000000000E+00 0.  1.
         21   -1    0    0  501  502  0.00000000000E+00 -0.00000000000E+00 -0.50131435059E+03  0.50131435059E+03  0.00000000000E+00 0. -1.
    9000010    2    1    2  501    0  0.24888237468E+03  0.70187157466E+03  0.14829037188E+04  0.19410068143E+04  0.10069448199E+04 0.  0.
        -13    1    3    3    0    0 -0.20915582076E+03 -0.31033881906E+02  0.83364170520E+03  0.86003939618E+03  0.10566000000E+00 0.  1.
          4    1    3    3  501    0  0.45803819543E+03  0.73290545656E+03  0.64926201360E+03  0.10809674181E+04  0.00000000000E+00 0.  1.
         13    1    1    2    0    0 -0.24888237468E+03 -0.70187157466E+03  0.23695673534E+03  0.78148234102E+03  0.10566000000E+00 0. -1.
<mgrwt>
<rscale>  1 0.10997687E+04</rscale>
<asrwt>0</asrwt>
<pdfrwt beam="2">  1       21 0.77125286E-01 0.12523993E+04</pdfrwt>
<pdfrwt beam="1">  1        4 0.34171919E+00 0.12523993E+04</pdfrwt>
<totfact> 0.92864059E-01</totfact>
</mgrwt>
</event>
<event>
 6    1  0.1412458E-005  0.9796995E+03  0.7818608E-02  0.9928444E-01
          4   -1    0    0  502    0 -0.00000000000E+00  0.00000000000E+00  0.54334691201E+03  0.54334691201E+03  0.00000000000E+00 0.  1.
         21   -1    0    0  501  502  0.00000000000E+00 -0.00000000000E+00 -0.61097524178E+03  0.61097524178E+03  0.00000000000E+00 0.  1.
    9000010    2    1    2  501    0  0.78697702895E+02  0.10096473444E+03 -0.16498514931E+03  0.99349439649E+03  0.97130006194E+03 0.  0.
        -13    1    3    3    0    0  0.25770895550E+03  0.60193006610E+02 -0.52580584098E+03  0.58865006359E+03  0.10566000000E+00 0.  1.
          4    1    3    3  501    0 -0.17901125260E+03  0.40771727829E+02  0.36082069167E+03  0.40484433290E+03  0.00000000000E+00 0.  1.
         13    1    1    2    0    0 -0.78697702895E+02 -0.10096473444E+03  0.97356819547E+02  0.16082775730E+03  0.10566000000E+00 0. -1.
<mgrwt>
<rscale>  1 0.58902374E+03</rscale>
<asrwt>0</asrwt>
<pdfrwt beam="2">  1       21 0.93996191E-01 0.97969945E+03</pdfrwt>
<pdfrwt beam="1">  1        4 0.83591833E-01 0.97969945E+03</pdfrwt>
<totfact> 0.45281821E+01</totfact>
</mgrwt>
</event>
<event>
 6    1  0.1412458E-005  0.1096831E+04  0.7818608E-02  0.9460047E-01
          4   -1    0    0  502    0 -0.00000000000E+00  0.00000000000E+00  0.73011796897E+03  0.73011796897E+03  0.00000000000E+00 0.  1.
         21   -1    0    0  501  502  0.00000000000E+00 -0.00000000000E+00 -0.99487552382E+03  0.99487552382E+03  0.00000000000E+00 0.  1.
    9000010    2    1    2  501    0 -0.43808723561E+03  0.41822061555E+02 -0.52257173424E+03  0.12149565597E+04  0.10046734364E+04 0.  0.
        -13    1    3    3    0    0  0.18546996989E+01  0.47759196127E+03 -0.22963823289E+03  0.52993513806E+03  0.10566000000E+00 0.  1.
          4    1    3    3  501    0 -0.43994193531E+03 -0.43576989971E+03 -0.29293350134E+03  0.68502142167E+03  0.00000000000E+00 0.  1.
         13    1    1    2    0    0  0.43808723561E+03 -0.41822061555E+02  0.25781417939E+03  0.51003693307E+03  0.10566000000E+00 0. -1.
<mgrwt>
<rscale>  1 0.87294613E+03</rscale>
<asrwt>0</asrwt>
<pdfrwt beam="2">  1       21 0.15305777E+00 0.10968310E+04</pdfrwt>
<pdfrwt beam="1">  1        4 0.11232584E+00 0.10968310E+04</pdfrwt>
<totfact> 0.61824460E+00</totfact>
</mgrwt>
</event>
<event>
 6    1  0.1412458E-005  0.1010847E+04  0.7818608E-02  0.9852083E-01
          4   -1    0    0  502    0 -0.00000000000E+00  0.00000000000E+00  0.23800881031E+03  0.23800881031E+03  0.00000000000E+00 0.  1.
         21   -1    0    0  501  502  0.00000000000E+00 -0.00000000000E+00 -0.14236122698E+04  0.14236122698E+04  0.00000000000E+00 0.  1.
    9000010    2    1    2  501    0  0.17653991124E+02  0.14801517352E+03 -0.10778315971E+04  0.14776783160E+04  0.99979602861E+03 0.  0.
        -13    1    3    3    0    0 -0.42596954042E+03  0.81245398991E+01 -0.17212010251E+03  0.45950124958E+03  0.10566000000E+00 0.  1.
          4    1    3    3  501    0  0.44362353154E+03  0.13989063362E+03 -0.90571149464E+03  0.10181770664E+04  0.00000000000E+00 0.  1.
         13    1    1    2    0    0 -0.17653991124E+02 -0.14801517352E+03 -0.10777186238E+03  0.18394276414E+03  0.10566000000E+00 0. -1.
<mgrwt>
<rscale>  1 0.62640841E+03</rscale>
<asrwt>0</asrwt>
<pdfrwt beam="2">  1       21 0.21901727E+00 0.10108473E+04</pdfrwt>
<pdfrwt beam="1">  1        4 0.36616741E-01 0.10108473E+04</pdfrwt>
<totfact> 0.25179818E+01</totfact>
</mgrwt>
</event>
<event>
 6    1  0.1412458E-005  0.1040111E+04  0.7818608E-02  0.9675214E-01
         21   -1    0    0  501  502  0.00000000000E+00  0.00000000000E+00  0.10219878215E+04  0.10219878215E+04  0.00000000000E+00 0.  1.
          4   -1    0    0  502    0 -0.00000000000E+00 -0.00000000000E+00 -0.45377617297E+03  0.45377617297E+03  0.00000000000E+00 0.  1.
    9000010    2    1    2  501    0 -0.78016767313E+02  0.23298041095E+03  0.63819330144E+03  0.12202959323E+04  0.10106755090E+04 0.  0.
        -13    1    3    3    0    0  0.61002002254E+02  0.34656604385E+03 -0.17113175612E+03  0.39129957340E+03  0.10566000000E+00 0.  1.
          4    1    3    3  501    0 -0.13901876957E+03 -0.11358563289E+03  0.80932505756E+03  0.82899635891E+03  0.00000000000E+00 0.  1.
         13    1    1    2    0    0  0.78016767313E+02 -0.23298041095E+03 -0.69981652912E+02  0.25546806215E+03  0.10566000000E+00 0. -1.
<mgrwt>
<rscale>  1 0.72511911E+03</rscale>
<asrwt>0</asrwt>
<pdfrwt beam="1">  1       21 0.15722890E+00 0.10401113E+04</pdfrwt>
<pdfrwt beam="2">  1        4 0.69811719E-01 0.10401113E+04</pdfrwt>
<totfact> 0.17653367E+01</totfact>
</mgrwt>
</event>
<event>
 6    1  0.1425070E-005  0.7867122E+03  0.7818608E-02  0.1012760E+00
          4   -1    0    0  502    0 -0.00000000000E+00  0.00000000000E+00  0.32002540110E+03  0.32002540110E+03  0.00000000000E+00 0.  1.
         21   -1    0    0  501  502  0.00000000000E+00 -0.00000000000E+00 -0.77344543930E+03  0.77344543930E+03  0.00000000000E+00 0.  1.
    9000010    2    1    2  501    0  0.13197214160E+03  0.11096499848E+02 -0.52218761513E+03  0.94424360003E+03  0.77548455325E+03 0.  0.
        -13    1    3    3    0    0  0.25473791293E+03  0.30862673317E+03 -0.98420655279E+02  0.41210253732E+03  0.10566000000E+00 0.  1.
          4    1    3    3  501    0 -0.12276577133E+03 -0.29753023333E+03 -0.42376695985E+03  0.53214106271E+03  0.00000000000E+00 0.  1.
         13    1    1    2    0    0 -0.13197214160E+03 -0.11096499848E+02  0.68767576940E+02  0.14922724038E+03  0.10566000000E+00 0. -1.
<mgrwt>
<rscale>  1 0.50392390E+03</rscale>
<asrwt>0</asrwt>
<pdfrwt beam="2">  1       21 0.11899161E+00 0.78671219E+03</pdfrwt>
<pdfrwt beam="1">  1        4 0.49234677E-01 0.78671219E+03</pdfrwt>
<totfact> 0.81955658E+01</totfact>
</mgrwt>
</event>
<event>
 6    1  0.1412458E-005  0.1040707E+04  0.7818608E-02  0.9590838E-01
         21   -1    0    0  501  502  0.00000000000E+00  0.00000000000E+00  0.79791489395E+03  0.79791489395E+03  0.00000000000E+00 0.  1.
          4   -1    0    0  502    0 -0.00000000000E+00 -0.00000000000E+00 -0.58595199476E+03  0.58595199476E+03  0.00000000000E+00 0.  1.
    9000010    2    1    2  501    0  0.76152448875E+02  0.31780830445E+03  0.15765567485E+03  0.10525806082E+04  0.98806341455E+03 0.  0.
        -13    1    3    3    0    0  0.20708024668E+03 -0.32138537943E+03  0.11261119367E+03  0.39856252054E+03  0.10566000000E+00 0.  1.
          4    1    3    3  501    0 -0.13092779780E+03  0.63919368388E+03  0.45044481172E+02  0.65401808770E+03  0.00000000000E+00 0.  1.
         13    1    1    2    0    0 -0.76152448875E+02 -0.31780830445E+03  0.54307224348E+02  0.33128628047E+03  0.10566000000E+00 0. -1.
<mgrwt>
<rscale>  1 0.77905555E+03</rscale>
<asrwt>0</asrwt>
<pdfrwt beam="1">  1       21 0.12275614E+00 0.10407068E+04</pdfrwt>
<pdfrwt beam="2">  1        4 0.90146461E-01 0.10407068E+04</pdfrwt>
<totfact> 0.19248664E+01</totfact>
</mgrwt>
</event>
<event>
 6    1  0.1412458E-005  0.1069988E+04  0.7818608E-02  0.9589927E-01
          4   -1    0    0  502    0 -0.00000000000E+00  0.00000000000E+00  0.32917491711E+03  0.32917491711E+03  0.00000000000E+00 0.  1.
         21   -1    0    0  501  502  0.00000000000E+00 -0.00000000000E+00 -0.15249303081E+04  0.15249303081E+04  0.00000000000E+00 0.  1.
    9000010    2    1    2  501    0 -0.18700174964E+03 -0.23668483389E+03 -0.11072031568E+04  0.15397314440E+04  0.10265888779E+04 0.  0.
        -13    1    3    3    0    0 -0.46586435091E+02  0.37008083077E+03 -0.70720371539E+03  0.79954188349E+03  0.10566000000E+00 0.  1.
          4    1    3    3  501    0 -0.14041531455E+03 -0.60676566466E+03 -0.39999944145E+03  0.74018956054E+03  0.00000000000E+00 0.  1.
         13    1    1    2    0    0  0.18700174964E+03  0.23668483389E+03 -0.88552234164E+02  0.31437378119E+03  0.10566000000E+00 0. -1.
<mgrwt>
<rscale>  1 0.77966490E+03</rscale>
<asrwt>0</asrwt>
<pdfrwt beam="2">  1       21 0.23460466E+00 0.10699879E+04</pdfrwt>
<pdfrwt beam="1">  1        4 0.50642295E-01 0.10699879E+04</pdfrwt>
<totfact> 0.10115989E+01</totfact>
</mgrwt>
</event>
<event>
 6    1  0.1412458E-005  0.1145582E+04  0.7818608E-02  0.9353748E-01
         21   -1    0    0  501  502  0.00000000000E+00  0.00000000000E+00  0.59194674696E+03  0.59194674696E+03  0.00000000000E+00 0. -1.
          4   -1    0    0  502    0 -0.00000000000E+00 -0.00000000000E+00 -0.12923656734E+04  0.12923656734E+04  0.00000000000E+00 0.  1.
    9000010    2    1    2  501    0 -0.33760780927E+03  0.45243678661E+03 -0.65100942647E+03  0.13176384501E+04  0.99683485745E+03 0.  0.
        -13    1    3    3    0    0 -0.26843185771E+03  0.11201245880E+03  0.22987273749E+03  0.37073432504E+03  0.10566000000E+00 0.  1.
          4    1    3    3  501    0 -0.69175951566E+02  0.34042432781E+03 -0.88088216396E+03  0.94690412504E+03  0.00000000000E+00 0.  1.
         13    1    1    2    0    0  0.33760780927E+03 -0.45243678661E+03 -0.49409500000E+02  0.56667397030E+03  0.10566000000E+00 0. -1.
<mgrwt>
<rscale>  1 0.95981753E+03</rscale>
<asrwt>0</asrwt>
<pdfrwt beam="1">  1       21 0.91068730E-01 0.11455819E+04</pdfrwt>
<pdfrwt beam="2">  1        4 0.19882549E+00 0.11455819E+04</pdfrwt>
<totfact> 0.50383919E+00</totfact>
</mgrwt>
</event>
<event>
 6    1  0.1412458E-005  0.1006588E+04  0.7818608E-02  0.9830672E-01
         21   -1    0    0  501  502  0.00000000000E+00  0.00000000000E+00  0.10026472862E+04  0.10026472862E+04  0.00000000000E+00 0.  1.
          4   -1    0    0  502    0 -0.00000000000E+00 -0.00000000000E+00 -0.34930234187E+03  0.34930234187E+03  0.00000000000E+00 0.  1.
    9000010    2    1    2  501    0 -0.15824096826E+03  0.34057066431E+02  0.48132274992E+03  0.11157468882E+04  0.99348852084E+03 0.  0.
        -13    1    3    3    0    0 -0.22625360251E+03 -0.38358743472E+03 -0.36717320711E+02  0.44685365113E+03  0.10566000000E+00 0.  1.
          4    1    3    3  501    0  0.68012634252E+02  0.41764450115E+03  0.51804007063E+03  0.66889323703E+03  0.00000000000E+00 0.  1.
         13    1    1    2    0    0  0.15824096826E+03 -0.34057066431E+02  0.17202219443E+03  0.23620273993E+03  0.10566000000E+00 0. -1.
<mgrwt>
<rscale>  1 0.63742157E+03</rscale>
<asrwt>0</asrwt>
<pdfrwt beam="1">  1       21 0.15425343E+00 0.10065881E+04</pdfrwt>
<pdfrwt beam="2">  1        4 0.53738822E-01 0.10065881E+04</pdfrwt>
<totfact> 0.33144275E+01</totfact>
</mgrwt>
</event>
<event>
 6    1  0.1412458E-005  0.9282684E+03  0.7818608E-02  0.9755008E-01
         21   -1    0    0  501  502  0.00000000000E+00  0.00000000000E+00  0.67463486121E+03  0.67463486121E+03  0.00000000000E+00 0.  1.
          4   -1    0    0  502    0 -0.00000000000E+00 -0.00000000000E+00 -0.83713547746E+03  0.83713547746E+03  0.00000000000E+00 0.  1.
    9000010    2    1    2  501    0  0.24134526632E+03 -0.10873432595E+03  0.30283079146E+03  0.97641623028E+03  0.88972550558E+03 0.  0.
        -13    1    3    3    0    0 -0.28972641770E+03  0.15288713830E+03  0.17246588497E+03  0.37021664848E+03  0.10566000000E+00 0.  1.
          4    1    3    3  501    0  0.53107168402E+03 -0.26162146425E+03  0.13036490649E+03  0.60619958180E+03  0.00000000000E+00 0.  1.
         13    1    1    2    0    0 -0.24134526632E+03  0.10873432595E+03 -0.46533140770E+03  0.53535410839E+03  0.10566000000E+00 0. -1.
<mgrwt>
<rscale>  1 0.67833968E+03</rscale>
<asrwt>0</asrwt>
<pdfrwt beam="1">  1       21 0.10378998E+00 0.92826837E+03</pdfrwt>
<pdfrwt beam="2">  1        4 0.12879007E+00 0.92826837E+03</pdfrwt>
<totfact> 0.12463326E+01</totfact>
</mgrwt>
</event>
<event>
 6    1  0.1412458E-005  0.9957460E+03  0.7818608E-02  0.9876506E-01
          4   -1    0    0  502    0 -0.00000000000E+00  0.00000000000E+00  0.60896350573E+03  0.60896350573E+03  0.00000000000E+00 0.  1.
         21   -1    0    0  501  502  0.00000000000E+00 -0.00000000000E+00 -0.58920117436E+03  0.58920117436E+03  0.00000000000E+00 0.  1.
    9000010    2    1    2  501    0 -0.14081098539E+03 -0.30528013446E+02 -0.11313302067E+03  0.10021522341E+04  0.98526662725E+03 0.  0.
        -13    1    3    3    0    0  0.73600903325E+02 -0.26303929806E+03 -0.45859429662E+03  0.53377477024E+03  0.10566000000E+00 0.  1.
          4    1    3    3  501    0 -0.21441188872E+03  0.23251128461E+03  0.34546127595E+03  0.46837746388E+03  0.00000000000E+00 0.  1.
         13    1    1    2    0    0  0.14081098539E+03  0.30528013446E+02  0.13289535205E+03  0.19601244597E+03  0.10566000000E+00 0. -1.
<mgrwt>
<rscale>  1 0.61413530E+03</rscale>
<asrwt>0</asrwt>
<pdfrwt beam="2">  1       21 0.90646334E-01 0.99574596E+03</pdfrwt>
<pdfrwt beam="1">  1        4 0.93686693E-01 0.99574596E+03</pdfrwt>
<totfact> 0.37802040E+01</totfact>
</mgrwt>
</event>
<event>
 6    1  0.1412458E-005  0.1038844E+04  0.7818608E-02  0.9627410E-01
          4   -1    0    0  502    0 -0.00000000000E+00  0.00000000000E+00  0.15623356099E+04  0.15623356099E+04  0.00000000000E+00 0.  1.
         21   -1    0    0  501  502  0.00000000000E+00 -0.00000000000E+00 -0.47202499593E+03  0.47202499593E+03  0.00000000000E+00 0.  1.
    9000010    2    1    2  501    0  0.27222285328E+03  0.99834434397E+02  0.14908660210E+03  0.10494875948E+04  0.99755962259E+03 0.  0.
        -13    1    3    3    0    0  0.41978740289E+03  0.47270465442E+03  0.37803111772E+02  0.63332475110E+03  0.10566000000E+00 0.  1.
          4    1    3    3  501    0 -0.14756454961E+03 -0.37287022002E+03  0.11128349033E+03  0.41616284373E+03  0.00000000000E+00 0.  1.
         13    1    1    2    0    0 -0.27222285328E+03 -0.99834434397E+02  0.94122401187E+03  0.98487301101E+03  0.10566000000E+00 0. -1.
<mgrwt>
<rscale>  1 0.75508247E+03</rscale>
<asrwt>0</asrwt>
<pdfrwt beam="2">  1       21 0.72619231E-01 0.10388443E+04</pdfrwt>
<pdfrwt beam="1">  1        4 0.24035932E+00 0.10388443E+04</pdfrwt>
<totfact> 0.47219244E+00</totfact>
</mgrwt>
</event>
<event>
 6    1  0.1412458E-005  0.1004000E+04  0.7818608E-02  0.9853011E-01
         21   -1    0    0  501  502  0.00000000000E+00  0.00000000000E+00  0.13314110342E+04  0.13314110342E+04  0.00000000000E+00 0.  1.
          4   -1    0    0  502    0 -0.00000000000E+00 -0.00000000000E+00 -0.28078812379E+03  0.28078812379E+03  0.00000000000E+00 0.  1.
    9000010    2    1    2  501    0  0.22791966058E+02 -0.14995428871E+03  0.10602881069E+04  0.14602149825E+04  0.99247728585E+03 0.  0.
        -13    1    3    3    0    0  0.47374434356E+03 -0.39383510442E+02  0.79270401504E+03  0.92431835997E+03  0.10566000000E+00 0.  1.
          4    1    3    3  501    0 -0.45095237750E+03 -0.11057077827E+03  0.26758409191E+03  0.53589662252E+03  0.00000000000E+00 0.  1.
         13    1    1    2    0    0 -0.22791966058E+02  0.14995428871E+03 -0.96651965189E+01  0.15198417552E+03  0.10566000000E+00 0. -1.
<mgrwt>
<rscale>  1 0.62593616E+03</rscale>
<asrwt>0</asrwt>
<pdfrwt beam="1">  1       21 0.20483246E+00 0.10040005E+04</pdfrwt>
<pdfrwt beam="2">  1        4 0.43198174E-01 0.10040005E+04</pdfrwt>
<totfact> 0.22405496E+01</totfact>
</mgrwt>
</event>
<event>
 6    1  0.1412458E-005  0.1126942E+04  0.7818608E-02  0.9367914E-01
         21   -1    0    0  501  502  0.00000000000E+00  0.00000000000E+00  0.69917006204E+03  0.69917006204E+03  0.00000000000E+00 0.  1.
          4   -1    0    0  502    0 -0.00000000000E+00 -0.00000000000E+00 -0.10287916563E+04  0.10287916563E+04  0.00000000000E+00 0.  1.
    9000010    2    1    2  501    0  0.11442280574E+03 -0.55172668682E+03 -0.28683791849E+03  0.11628729027E+04  0.97596233583E+03 0.  0.
        -13    1    3    3    0    0  0.38814448294E+03 -0.58720159518E+03  0.74895702028E+02  0.70786385016E+03  0.10566000000E+00 0.  1.
          4    1    3    3  501    0 -0.27372167720E+03  0.35474908354E+02 -0.36173362052E+03  0.45500905255E+03  0.00000000000E+00 0.  1.
         13    1    1    2    0    0 -0.11442280574E+03  0.55172668682E+03 -0.42783675723E+02  0.56508881559E+03  0.10566000000E+00 0. -1.
<mgrwt>
<rscale>  1 0.94763963E+03</rscale>
<asrwt>0</asrwt>
<pdfrwt beam="1">  1       21 0.10756462E+00 0.11269416E+04</pdfrwt>
<pdfrwt beam="2">  1        4 0.15827564E+00 0.11269416E+04</pdfrwt>
<totfact> 0.64541982E+00</totfact>
</mgrwt>
</event>
<event>
 6    1  0.1412458E-005  0.1007402E+04  0.7818608E-02  0.9840915E-01
          4   -1    0    0  502    0 -0.00000000000E+00  0.00000000000E+00  0.14410763806E+04  0.14410763806E+04  0.00000000000E+00 0.  1.
         21   -1    0    0  501  502  0.00000000000E+00 -0.00000000000E+00 -0.28108734691E+03  0.28108734691E+03  0.00000000000E+00 0.  1.
    9000010    2    1    2  501    0  0.14085989543E+03 -0.67435797534E+02  0.67495979033E+03  0.12126124788E+04  0.99522319525E+03 0.  0.
        -13    1    3    3    0    0  0.12450933935E+03 -0.21749191647E+03 -0.20254106375E+03  0.32222383987E+03  0.10566000000E+00 0.  1.
          4    1    3    3  501    0  0.16350556079E+02  0.15005611893E+03  0.87750085407E+03  0.89038863897E+03  0.00000000000E+00 0.  1.
         13    1    1    2    0    0 -0.14085989543E+03  0.67435797534E+02  0.48502924338E+03  0.50955124868E+03  0.10566000000E+00 0. -1.
<mgrwt>
<rscale>  1 0.63212289E+03</rscale>
<asrwt>0</asrwt>
<pdfrwt beam="2">  1       21 0.43244208E-01 0.10074018E+04</pdfrwt>
<pdfrwt beam="1">  1        4 0.22170406E+00 0.10074018E+04</pdfrwt>
<totfact> 0.19498047E+01</totfact>
</mgrwt>
</event>
<event>
 6    1  0.1412458E-005  0.1064737E+04  0.7818608E-02  0.9513819E-01
         21   -1    0    0  501  502  0.00000000000E+00  0.00000000000E+00  0.39534303959E+03  0.39534303959E+03  0.00000000000E+00 0.  1.
          4   -1    0    0  502    0 -0.00000000000E+00 -0.00000000000E+00 -0.14771044373E+04  0.14771044373E+04  0.00000000000E+00 0.  1.
    9000010    2    1    2  501    0  0.38976374129E+03  0.82334268053E+02 -0.52308836308E+03  0.11862913164E+04  0.98740617082E+03 0.  0.
        -13    1    3    3    0    0  0.60317756277E+03 -0.22607374222E+03 -0.15878194794E+03  0.66343366459E+03  0.10566000000E+00 0.  1.
          4    1    3    3  501    0 -0.21341382148E+03  0.30840801027E+03 -0.36430641515E+03  0.52285765186E+03  0.00000000000E+00 0.  1.
         13    1    1    2    0    0 -0.38976374129E+03 -0.82334268053E+02 -0.55867303461E+03  0.68615616042E+03  0.10566000000E+00 0. -1.
<mgrwt>
<rscale>  1 0.83272610E+03</rscale>
<asrwt>0</asrwt>
<pdfrwt beam="1">  1       21 0.60822006E-01 0.10647374E+04</pdfrwt>
<pdfrwt beam="2">  1        4 0.22724684E+00 0.10647374E+04</pdfrwt>
<totfact> 0.85128491E+00</totfact>
</mgrwt>
</event>
<event>
 6    1  0.1412458E-005  0.1009306E+04  0.7818608E-02  0.9768879E-01
         21   -1    0    0  501  502  0.00000000000E+00  0.00000000000E+00  0.97797194655E+03  0.97797194655E+03  0.00000000000E+00 0.  1.
          4   -1    0    0  502    0 -0.00000000000E+00 -0.00000000000E+00 -0.71210323543E+03  0.71210323543E+03  0.00000000000E+00 0.  1.
    9000010    2    1    2  501    0  0.19610420887E+03 -0.15146690128E+02  0.68995722081E+03  0.12225953876E+04  0.98995567184E+03 0.  0.
        -13    1    3    3    0    0 -0.55816339112E+02 -0.47842815410E+03  0.31481071889E+03  0.57542572260E+03  0.10566000000E+00 0.  1.
          4    1    3    3  501    0  0.25192054799E+03  0.46328146397E+03  0.37514650192E+03  0.64716966497E+03  0.00000000000E+00 0.  1.
         13    1    1    2    0    0 -0.19610420887E+03  0.15146690128E+02 -0.42408850969E+03  0.46747979440E+03  0.10566000000E+00 0. -1.
<mgrwt>
<rscale>  1 0.67059725E+03</rscale>
<asrwt>0</asrwt>
<pdfrwt beam="1">  1       21 0.15045722E+00 0.10093060E+04</pdfrwt>
<pdfrwt beam="2">  1        4 0.10955434E+00 0.10093060E+04</pdfrwt>
<totfact> 0.69726856E+00</totfact>
</mgrwt>
</event>
<event>
 6    1  0.1412458E-005  0.1163912E+04  0.7818608E-02  0.9339156E-01
          4   -1    0    0  502    0 -0.00000000000E+00  0.00000000000E+00  0.26839561143E+04  0.26839561143E+04  0.00000000000E+00 0.  1.
         21   -1    0    0  501  502  0.00000000000E+00 -0.00000000000E+00 -0.30764211898E+03  0.30764211898E+03  0.00000000000E+00 0.  1.
    9000010    2    1    2  501    0 -0.47690704699E+03 -0.30747930986E+03  0.11301379525E+04  0.16223142604E+04  0.10162223725E+04 0.  0.
        -13    1    3    3    0    0  0.42008748745E+02 -0.83848783919E+02  0.10469841892E+04  0.10511761304E+04  0.10566000000E+00 0.  1.
          4    1    3    3  501    0 -0.51891579574E+03 -0.22363052595E+03  0.83153763292E+02  0.57113813001E+03  0.00000000000E+00 0.  1.
         13    1    1    2    0    0  0.47690704699E+03  0.30747930986E+03  0.12461760429E+04  0.13692839729E+04  0.10566000000E+00 0. -1.
<mgrwt>
<rscale>  1 0.97256682E+03</rscale>
<asrwt>0</asrwt>
<pdfrwt beam="2">  1       21 0.47329559E-01 0.11639123E+04</pdfrwt>
<pdfrwt beam="1">  1        4 0.41291631E+00 0.11639123E+04</pdfrwt>
<totfact> 0.93155977E-01</totfact>
</mgrwt>
</event>
<event>
 6    1  0.1412458E-005  0.1083521E+04  0.7818608E-02  0.9535602E-01
         21   -1    0    0  501  502  0.00000000000E+00  0.00000000000E+00  0.51833677635E+03  0.51833677635E+03  0.00000000000E+00 0.  1.
          4   -1    0    0  502    0 -0.00000000000E+00 -0.00000000000E+00 -0.11078085670E+04  0.11078085670E+04  0.00000000000E+00 0.  1.
    9000010    2    1    2  501    0  0.68252083294E+02 -0.34369405685E+03 -0.19925339173E+03  0.11016890901E+04  0.10252965354E+04 0.  0.
        -13    1    3    3    0    0  0.43984435286E+03 -0.38517674195E+03 -0.36867900124E+03  0.69119345657E+03  0.10566000000E+00 0.  1.
          4    1    3    3  501    0 -0.37159226956E+03  0.41482685100E+02  0.16942560951E+03  0.41049563350E+03  0.00000000000E+00 0.  1.
         13    1    1    2    0    0 -0.68252083294E+02  0.34369405685E+03 -0.39021839895E+03  0.52445625331E+03  0.10566000000E+00 0. -1.
<mgrwt>
<rscale>  1 0.81709131E+03</rscale>
<asrwt>0</asrwt>
<pdfrwt beam="1">  1       21 0.79744120E-01 0.10835206E+04</pdfrwt>
<pdfrwt beam="2">  1        4 0.17043209E+00 0.10835206E+04</pdfrwt>
<totfact> 0.10947922E+01</totfact>
</mgrwt>
</event>
<event>
 6    1  0.1412458E-005  0.8980622E+03  0.7818608E-02  0.9816373E-01
          4   -1    0    0  502    0 -0.00000000000E+00  0.00000000000E+00  0.28077387699E+03  0.28077387699E+03  0.00000000000E+00 0.  1.
         21   -1    0    0  501  502  0.00000000000E+00 -0.00000000000E+00 -0.12324733803E+04  0.12324733803E+04  0.00000000000E+00 0.  1.
    9000010    2    1    2  501    0  0.23135226617E+03  0.59282317450E+02 -0.89477636633E+03  0.12677304169E+04  0.86572362793E+03 0.  0.
        -13    1    3    3    0    0 -0.25022507661E+03 -0.22692932461E+03 -0.34323286532E+03  0.48157898452E+03  0.10566000000E+00 0.  1.
          4    1    3    3  501    0  0.48157734278E+03  0.28621164206E+03 -0.55154350101E+03  0.78615143238E+03  0.00000000000E+00 0.  1.
         13    1    1    2    0    0 -0.23135226617E+03 -0.59282317450E+02 -0.56923136990E+02  0.24551684039E+03  0.10566000000E+00 0. -1.
<mgrwt>
<rscale>  1 0.64491221E+03</rscale>
<asrwt>0</asrwt>
<pdfrwt beam="2">  1       21 0.18961129E+00 0.89806217E+03</pdfrwt>
<pdfrwt beam="1">  1        4 0.43195982E-01 0.89806217E+03</pdfrwt>
<totfact> 0.28935215E+01</totfact>
</mgrwt>
</event>
<event>
 6    1  0.1412458E-005  0.9966455E+03  0.7818608E-02  0.1000794E+00
         21   -1    0    0  501  502  0.00000000000E+00  0.00000000000E+00  0.91292458113E+03  0.91292458113E+03  0.00000000000E+00 0.  1.
          4   -1    0    0  502    0 -0.00000000000E+00 -0.00000000000E+00 -0.51234052666E+03  0.51234052666E+03  0.00000000000E+00 0.  1.
    9000010    2    1    2  501    0  0.71291464657E+02 -0.62013490214E+02  0.62868614321E+03  0.11783669102E+04  0.99215631962E+03 0.  0.
        -13    1    3    3    0    0  0.19421410395E+03  0.20637848400E+03 -0.16751677411E+03  0.32920066465E+03  0.10566000000E+00 0.  1.
          4    1    3    3  501    0 -0.12292263929E+03 -0.26839197422E+03  0.79620291733E+03  0.84916624558E+03  0.00000000000E+00 0.  1.
         13    1    1    2    0    0 -0.71291464657E+02  0.62013490214E+02 -0.22810208875E+03  0.24689819755E+03  0.10566000000E+00 0. -1.
<mgrwt>
<rscale>  1 0.55303265E+03</rscale>
<asrwt>0</asrwt>
<pdfrwt beam="1">  1       21 0.14044994E+00 0.99664553E+03</pdfrwt>
<pdfrwt beam="2">  1        4 0.78821620E-01 0.99664553E+03</pdfrwt>
<totfact> 0.18441477E+01</totfact>
</mgrwt>
</event>
<event>
 6    1  0.1412458E-005  0.1002692E+04  0.7818608E-02  0.9997344E-01
          4   -1    0    0  502    0 -0.00000000000E+00  0.00000000000E+00  0.31271524572E+03  0.31271524572E+03  0.00000000000E+00 0.  1.
         21   -1    0    0  501  502  0.00000000000E+00 -0.00000000000E+00 -0.10311225038E+04  0.10311225038E+04  0.00000000000E+00 0.  1.
    9000010    2    1    2  501    0 -0.87668726474E+02  0.38971136353E+02 -0.73914316711E+03  0.12456820357E+04  0.99809145754E+03 0.  0.
        -13    1    3    3    0    0 -0.23648071471E+03  0.36927133975E+03 -0.76576645690E+03  0.88243001336E+03  0.10566000000E+00 0.  1.
          4    1    3    3  501    0  0.14881198824E+03 -0.33030020340E+03  0.26623289783E+02  0.36325202239E+03  0.00000000000E+00 0.  1.
         13    1    1    2    0    0  0.87668726474E+02 -0.38971136353E+02  0.20735908994E+02  0.98155713823E+02  0.10566000000E+00 0. -1.
<mgrwt>
<rscale>  1 0.55766843E+03</rscale>
<asrwt>0</asrwt>
<pdfrwt beam="2">  1       21 0.15863423E+00 0.10026919E+04</pdfrwt>
<pdfrwt beam="1">  1        4 0.48110038E-01 0.10026919E+04</pdfrwt>
<totfact> 0.38709948E+01</totfact>
</mgrwt>
</event>
<event>
 6    1  0.1412458E-005  0.1005498E+04  0.7818608E-02  0.9777958E-01
         21   -1    0    0  501  502  0.00000000000E+00  0.00000000000E+00  0.17707966772E+04  0.17707966772E+04  0.00000000000E+00 0.  1.
          4   -1    0    0  502    0 -0.00000000000E+00 -0.00000000000E+00 -0.25579992505E+03  0.25579992505E+03  0.00000000000E+00 0.  1.
    9000010    2    1    2  501    0 -0.19167351785E+03  0.23064439956E+02  0.15323188329E+04  0.18327647899E+04  0.98679028360E+03 0.  0.
        -13    1    3    3    0    0 -0.39287019372E+03  0.15294360149E+03  0.17832060405E+03  0.45775209813E+03  0.10566000000E+00 0.  1.
          4    1    3    3  501    0  0.20119667586E+03 -0.12987916153E+03  0.13539982288E+04  0.13750126918E+04  0.00000000000E+00 0.  1.
         13    1    1    2    0    0  0.19167351785E+03 -0.23064439956E+02 -0.17322080681E+02  0.19383181235E+03  0.10566000000E+00 0. -1.
<mgrwt>
<rscale>  1 0.66559002E+03</rscale>
<asrwt>0</asrwt>
<pdfrwt beam="1">  1       21 0.27243025E+00 0.10054978E+04</pdfrwt>
<pdfrwt beam="2">  1        4 0.39353836E-01 0.10054978E+04</pdfrwt>
<totfact> 0.99116348E+00</totfact>
</mgrwt>
</event>
<event>
 6    1  0.1412458E-005  0.1081665E+04  0.7818608E-02  0.9496344E-01
         21   -1    0    0  501  502  0.00000000000E+00  0.00000000000E+00  0.28345650960E+03  0.28345650960E+03  0.00000000000E+00 0.  1.
          4   -1    0    0  502    0 -0.00000000000E+00 -0.00000000000E+00 -0.20092519672E+04  0.20092519672E+04  0.00000000000E+00 0.  1.
    9000010    2    1    2  501    0 -0.32570526973E+03  0.23882536567E+03 -0.14254671212E+04  0.17894008186E+04  0.10034327570E+04 0.  0.
        -13    1    3    3    0    0  0.30877472345E+03  0.24612556797E+03 -0.29449942399E+03  0.49259470861E+03  0.10566000000E+00 0.  1.
          4    1    3    3  501    0 -0.63447999318E+03 -0.73002023024E+01 -0.11309676972E+04  0.12968061100E+04  0.00000000000E+00 0.  1.
         13    1    1    2    0    0  0.32570526973E+03 -0.23882536567E+03 -0.30032833638E+03  0.50330765821E+03  0.10566000000E+00 0. -1.
<mgrwt>
<rscale>  1 0.84553868E+03</rscale>
<asrwt>0</asrwt>
<pdfrwt beam="1">  1       21 0.43608695E-01 0.10816648E+04</pdfrwt>
<pdfrwt beam="2">  1        4 0.30911568E+00 0.10816648E+04</pdfrwt>
<totfact> 0.54418550E+00</totfact>
</mgrwt>
</event>
<event>
 6    1  0.1412458E-005  0.1038994E+04  0.7818608E-02  0.9639241E-01
         21   -1    0    0  501  502  0.00000000000E+00  0.00000000000E+00  0.24568082431E+03  0.24568082431E+03  0.00000000000E+00 0.  1.
          4   -1    0    0  502    0 -0.00000000000E+00 -0.00000000000E+00 -0.20151343879E+04  0.20151343879E+04  0.00000000000E+00 0.  1.
    9000010    2    1    2  501    0  0.21436898023E+03 -0.17762591277E+03 -0.99799281746E+03  0.14406586914E+04  0.10010008876E+04 0.  0.
        -13    1    3    3    0    0  0.33166125824E+03  0.35743309879E+03 -0.53022664640E+03  0.72034569343E+03  0.10566000000E+00 0.  1.
          4    1    3    3  501    0 -0.11729227801E+03 -0.53505901155E+03 -0.46776617105E+03  0.72031299801E+03  0.00000000000E+00 0.  1.
         13    1    1    2    0    0 -0.21436898023E+03  0.17762591277E+03 -0.77146074617E+03  0.82015652080E+03  0.10566000000E+00 0. -1.
<mgrwt>
<rscale>  1 0.74752532E+03</rscale>
<asrwt>0</asrwt>
<pdfrwt beam="1">  1       21 0.37797051E-01 0.10389936E+04</pdfrwt>
<pdfrwt beam="2">  1        4 0.31002066E+00 0.10389936E+04</pdfrwt>
<totfact> 0.72941286E+00</totfact>
</mgrwt>
</event>
<event>
 6    1  0.1412458E-005  0.1069732E+04  0.7818608E-02  0.9520423E-01
         21   -1    0    0  501  502  0.00000000000E+00  0.00000000000E+00  0.11005138464E+04  0.11005138464E+04  0.00000000000E+00 0.  1.
          4   -1    0    0  502    0 -0.00000000000E+00 -0.00000000000E+00 -0.48014070939E+03  0.48014070939E+03  0.00000000000E+00 0.  1.
    9000010    2    1    2  501    0 -0.20838556827E+03  0.32238534646E+03  0.46867338751E+03  0.11678959316E+04  0.99848350326E+03 0.  0.
        -13    1    3    3    0    0 -0.16303831305E+03  0.67966221949E+03  0.38576094548E+03  0.79833184976E+03  0.10566000000E+00 0.  1.
          4    1    3    3  501    0 -0.45347255217E+02 -0.35727687303E+03  0.82912442024E+02  0.36956408186E+03  0.00000000000E+00 0.  1.
         13    1    1    2    0    0  0.20838556827E+03 -0.32238534646E+03  0.15169974953E+03  0.41275862419E+03  0.10566000000E+00 0. -1.
<mgrwt>
<rscale>  1 0.82794690E+03</rscale>
<asrwt>0</asrwt>
<pdfrwt beam="1">  1       21 0.16930982E+00 0.10697318E+04</pdfrwt>
<pdfrwt beam="2">  1        4 0.73867801E-01 0.10697318E+04</pdfrwt>
<totfact> 0.12512397E+01</totfact>
</mgrwt>
</event>
<event>
 6    1  0.1412458E-005  0.1011724E+04  0.7818608E-02  0.9919143E-01
          4   -1    0    0  502    0 -0.00000000000E+00  0.00000000000E+00  0.70117764748E+03  0.70117764748E+03  0.00000000000E+00 0.  1.
         21   -1    0    0  501  502  0.00000000000E+00 -0.00000000000E+00 -0.50622142712E+03  0.50622142712E+03  0.00000000000E+00 0.  1.
    9000010    2    1    2  501    0  0.11453305208E+03  0.34960061235E+02  0.41267854363E+02  0.10125654253E+04  0.10046122032E+04 0.  0.
        -13    1    3    3    0    0 -0.12422119007E+02  0.16805983925E+03 -0.45398784437E+03  0.48425550344E+03  0.10566000000E+00 0.  1.
          4    1    3    3  501    0  0.12695517109E+03 -0.13309977802E+03  0.49525569874E+03  0.52830992183E+03  0.00000000000E+00 0.  1.
         13    1    1    2    0    0 -0.11453305208E+03 -0.34960061235E+02  0.15368836600E+03  0.19483364932E+03  0.10566000000E+00 0. -1.
<mgrwt>
<rscale>  1 0.59342435E+03</rscale>
<asrwt>0</asrwt>
<pdfrwt beam="2">  1       21 0.77880220E-01 0.10117241E+04</pdfrwt>
<pdfrwt beam="1">  1        4 0.10787348E+00 0.10117241E+04</pdfrwt>
<totfact> 0.38530901E+01</totfact>
</mgrwt>
</event>
<event>
 6    1  0.1412458E-005  0.1013736E+04  0.7818608E-02  0.9912679E-01
         21   -1    0    0  501  502  0.00000000000E+00  0.00000000000E+00  0.54793411442E+03  0.54793411442E+03  0.00000000000E+00 0.  1.
          4   -1    0    0  502    0 -0.00000000000E+00 -0.00000000000E+00 -0.59037588683E+03  0.59037588683E+03  0.00000000000E+00 0.  1.
    9000010    2    1    2  501    0 -0.28565229409E+02  0.11812655930E+03 -0.60033946974E+02  0.10155119878E+04  0.10064246947E+04 0.  0.
        -13    1    3    3    0    0 -0.35035134038E+02 -0.34051359440E+03 -0.33645141716E+03  0.47997555756E+03  0.10566000000E+00 0.  1.
          4    1    3    3  501    0  0.64699046291E+01  0.45864015370E+03  0.27641747019E+03  0.53553643020E+03  0.00000000000E+00 0.  1.
         13    1    1    2    0    0  0.28565229409E+02 -0.11812655930E+03  0.17592174564E+02  0.12279801348E+03  0.10566000000E+00 0. -1.
<mgrwt>
<rscale>  1 0.59650729E+03</rscale>
<asrwt>0</asrwt>
<pdfrwt beam="1">  1       21 0.84297556E-01 0.10137359E+04</pdfrwt>
<pdfrwt beam="2">  1        4 0.90827059E-01 0.10137359E+04</pdfrwt>
<totfact> 0.48345544E+01</totfact>
</mgrwt>
</event>
<event>
 6    1  0.1412458E-005  0.1061758E+04  0.7818608E-02  0.9561454E-01
          4   -1    0    0  502    0 -0.00000000000E+00  0.00000000000E+00  0.10628442718E+04  0.10628442718E+04  0.00000000000E+00 0.  1.
         21   -1    0    0  501  502  0.00000000000E+00 -0.00000000000E+00 -0.48958527195E+03  0.48958527195E+03  0.00000000000E+00 0.  1.
    9000010    2    1    2  501    0 -0.24505452567E+03  0.23641989261E+03  0.26784714121E+03  0.10950210822E+04  0.10056753915E+04 0.  0.
        -13    1    3    3    0    0  0.15774490177E+03  0.19069738918E+03  0.54864646496E+03  0.60188196763E+03  0.10566000000E+00 0.  1.
          4    1    3    3  501    0 -0.40279942744E+03  0.45722503427E+02 -0.28079932375E+03  0.49313911453E+03  0.00000000000E+00 0.  1.
         13    1    1    2    0    0  0.24505452567E+03 -0.23641989261E+03  0.30541185861E+03  0.45740846157E+03  0.10566000000E+00 0. -1.
<mgrwt>
<rscale>  1 0.79900783E+03</rscale>
<asrwt>0</asrwt>
<pdfrwt beam="2">  1       21 0.75320811E-01 0.10617575E+04</pdfrwt>
<pdfrwt beam="1">  1        4 0.16351450E+00 0.10617575E+04</pdfrwt>
<totfact> 0.14083345E+01</totfact>
</mgrwt>
</event>
<event>
 6    1  0.1412458E-005  0.9904259E+03  0.7818608E-02  0.1002272E+00
         21   -1    0    0  501  502  0.00000000000E+00  0.00000000000E+00  0.35335447999E+03  0.35335447999E+03  0.00000000000E+00 0.  1.
          4   -1    0    0  502    0 -0.00000000000E+00 -0.00000000000E+00 -0.93403825362E+03  0.93403825362E+03  0.00000000000E+00 0.  1.
    9000010    2    1    2  501    0  0.70183459309E+02  0.59349105141E+02 -0.36955662818E+03  0.10571261122E+04  0.98615185512E+03 0.  0.
        -13    1    3    3    0    0  0.36428234037E+03  0.86324148181E+02  0.19342179607E+03  0.42138519720E+03  0.10566000000E+00 0.  1.
          4    1    3    3  501    0 -0.29409888106E+03 -0.26975043040E+02 -0.56297842425E+03  0.63574091496E+03  0.00000000000E+00 0.  1.
         13    1    1    2    0    0 -0.70183459309E+02 -0.59349105141E+02 -0.21112714545E+03  0.23026662145E+03  0.10566000000E+00 0. -1.
<mgrwt>
<rscale>  1 0.54665211E+03</rscale>
<asrwt>0</asrwt>
<pdfrwt beam="1">  1       21 0.54362228E-01 0.99042593E+03</pdfrwt>
<pdfrwt beam="2">  1        4 0.14369819E+00 0.99042593E+03</pdfrwt>
<totfact> 0.41996588E+01</totfact>
</mgrwt>
</event>
<event>
 6    1  0.1412458E-005  0.1040631E+04  0.7818608E-02  0.9641043E-01
         21   -1    0    0  501  502  0.00000000000E+00  0.00000000000E+00  0.14019892089E+04  0.14019892089E+04  0.00000000000E+00 0.  1.
          4   -1    0    0  502    0 -0.00000000000E+00 -0.00000000000E+00 -0.31328052525E+03  0.31328052525E+03  0.00000000000E+00 0.  1.
    9000010    2    1    2  501    0  0.21834525196E+03 -0.16783184640E+03  0.93982512006E+03  0.14022066344E+04  0.10035287797E+04 0.  0.
        -13    1    3    3    0    0  0.17378397073E+03  0.32838222321E+03  0.40018758616E+02  0.37368069954E+03  0.10566000000E+00 0.  1.
          4    1    3    3  501    0  0.44561281231E+02 -0.49621406962E+03  0.89980636144E+03  0.10285259349E+04  0.00000000000E+00 0.  1.
         13    1    1    2    0    0 -0.21834525196E+03  0.16783184640E+03  0.14888356357E+03  0.31306309969E+03  0.10566000000E+00 0. -1.
<mgrwt>
<rscale>  1 0.74638229E+03</rscale>
<asrwt>0</asrwt>
<pdfrwt beam="1">  1       21 0.21569064E+00 0.10406307E+04</pdfrwt>
<pdfrwt beam="2">  1        4 0.48197005E-01 0.10406307E+04</pdfrwt>
<totfact> 0.15005103E+01</totfact>
</mgrwt>
</event>
<event>
 6    1  0.1412458E-005  0.1073878E+04  0.7818608E-02  0.9880251E-01
         21   -1    0    0  501  502  0.00000000000E+00  0.00000000000E+00  0.43904518771E+03  0.43904518771E+03  0.00000000000E+00 0.  1.
          4   -1    0    0  502    0 -0.00000000000E+00 -0.00000000000E+00 -0.10835803599E+04  0.10835803599E+04  0.00000000000E+00 0.  1.
    9000010    2    1    2  501    0 -0.16103848048E+02 -0.11233605225E+03 -0.23718004841E+03  0.10997580381E+04  0.10678645253E+04 0.  0.
        -13    1    3    3    0    0 -0.40018728310E+02  0.47799780878E+03 -0.14977491799E+03  0.50250964273E+03  0.10566000000E+00 0.  1.
          4    1    3    3  501    0  0.23914880262E+02 -0.59033386103E+03 -0.87405130419E+02  0.59724839539E+03  0.00000000000E+00 0.  1.
         13    1    1    2    0    0  0.16103848048E+02  0.11233605225E+03 -0.40735512379E+03  0.42286750951E+03  0.10566000000E+00 0. -1.
<mgrwt>
<rscale>  1 0.61228028E+03</rscale>
<asrwt>0</asrwt>
<pdfrwt beam="1">  1       21 0.67545414E-01 0.10738777E+04</pdfrwt>
<pdfrwt beam="2">  1        4 0.16670467E+00 0.10738777E+04</pdfrwt>
<totfact> 0.17129979E+01</totfact>
</mgrwt>
</event>
<event>
 6    1  0.1412458E-005  0.1198462E+04  0.7818608E-02  0.9275071E-01
          4   -1    0    0  502    0 -0.00000000000E+00  0.00000000000E+00  0.92194791999E+03  0.92194791999E+03  0.00000000000E+00 0.  1.
         21   -1    0    0  501  502  0.00000000000E+00 -0.00000000000E+00 -0.93871639576E+03  0.93871639576E+03  0.00000000000E+00 0. -1.
    9000010    2    1    2  501    0  0.42395955328E+01  0.65664658507E+03  0.57353165011E+02  0.11998339739E+04  0.10025514788E+04 0.  0.
        -13    1    3    3    0    0 -0.46956282674E+03  0.49337772816E+03 -0.64291156577E+02  0.68413755553E+03  0.10566000000E+00 0.  1.
          4    1    3    3  501    0  0.47380242228E+03  0.16326885691E+03  0.12164432159E+03  0.51569641842E+03  0.00000000000E+00 0.  1.
         13    1    1    2    0    0 -0.42395955328E+01 -0.65664658507E+03 -0.74121640779E+02  0.66083034181E+03  0.10566000000E+00 0. -1.
<mgrwt>
<rscale>  1 0.10311066E+04</rscale>
<asrwt>0</asrwt>
<pdfrwt beam="2">  1       21 0.14441791E+00 0.11984624E+04</pdfrwt>
<pdfrwt beam="1">  1        4 0.14183814E+00 0.11984624E+04</pdfrwt>
<totfact> 0.39563382E+00</totfact>
</mgrwt>
</event>
<event>
 6    1  0.1412458E-005  0.1066392E+04  0.7818608E-02  0.9535503E-01
          4   -1    0    0  502    0 -0.00000000000E+00  0.00000000000E+00  0.10978572218E+04  0.10978572218E+04  0.00000000000E+00 0.  1.
         21   -1    0    0  501  502  0.00000000000E+00 -0.00000000000E+00 -0.68780501774E+03  0.68780501774E+03  0.00000000000E+00 0. -1.
    9000010    2    1    2  501    0 -0.93934687223E+02  0.35548772935E+03  0.73484636919E+03  0.12950641229E+04  0.10009978246E+04 0.  0.
        -13    1    3    3    0    0  0.17954262611E+03  0.36249113512E+03  0.89209390874E+03  0.97952382861E+03  0.10566000000E+00 0.  1.
          4    1    3    3  501    0 -0.27347731334E+03 -0.70034057689E+01 -0.15724753956E+03  0.31554029426E+03  0.00000000000E+00 0.  1.
         13    1    1    2    0    0  0.93934687223E+02 -0.35548772935E+03 -0.32479416515E+03  0.49059811665E+03  0.10566000000E+00 0. -1.
<mgrwt>
<rscale>  1 0.81716150E+03</rscale>
<asrwt>0</asrwt>
<pdfrwt beam="2">  1       21 0.10581616E+00 0.10663920E+04</pdfrwt>
<pdfrwt beam="1">  1        4 0.16890111E+00 0.10663920E+04</pdfrwt>
<totfact> 0.56532406E+00</totfact>
</mgrwt>
</event>
<event>
 6    1  0.1412458E-005  0.1145817E+04  0.7818608E-02  0.9363310E-01
         21   -1    0    0  501  502  0.00000000000E+00  0.00000000000E+00  0.13578362292E+04  0.13578362292E+04  0.00000000000E+00 0.  1.
          4   -1    0    0  502    0 -0.00000000000E+00 -0.00000000000E+00 -0.56836431457E+03  0.56836431457E+03  0.00000000000E+00 0.  1.
    9000010    2    1    2  501    0 -0.99703959517E+02  0.53584192511E+03  0.77058837224E+03  0.13808345680E+04  0.10078840293E+04 0.  0.
        -13    1    3    3    0    0 -0.24914628593E+03 -0.12394198964E+03  0.63163296908E+03  0.69021424745E+03  0.10566000000E+00 0.  1.
          4    1    3    3  501    0  0.14944232642E+03  0.65978391474E+03  0.13895540315E+03  0.69062032054E+03  0.00000000000E+00 0.  1.
         13    1    1    2    0    0  0.99703959517E+02 -0.53584192511E+03  0.18883542434E+02  0.54536597582E+03  0.10566000000E+00 0. -1.
<mgrwt>
<rscale>  1 0.95157596E+03</rscale>
<asrwt>0</asrwt>
<pdfrwt beam="1">  1       21 0.20889788E+00 0.11458175E+04</pdfrwt>
<pdfrwt beam="2">  1        4 0.87440664E-01 0.11458175E+04</pdfrwt>
<totfact> 0.43960346E+00</totfact>
</mgrwt>
</event>
<event>
 6    1  0.1412458E-005  0.1017655E+04  0.7818608E-02  0.9696585E-01
          4   -1    0    0  502    0 -0.00000000000E+00  0.00000000000E+00  0.20072049431E+04  0.20072049431E+04  0.00000000000E+00 0.  1.
         21   -1    0    0  501  502  0.00000000000E+00 -0.00000000000E+00 -0.20559056446E+03  0.20559056446E+03  0.00000000000E+00 0.  1.
    9000010    2    1    2  501    0 -0.23867502533E+03 -0.51312109568E+02  0.12670714557E+04  0.16251435290E+04  0.98793861937E+03 0.  0.
        -13    1    3    3    0    0 -0.31222982972E+03  0.30229202147E+03  0.11744570253E+04  0.12522848112E+04  0.10566000000E+00 0.  1.
          4    1    3    3  501    0  0.73554804389E+02 -0.35360413104E+03  0.92614430394E+02  0.37285871782E+03  0.00000000000E+00 0.  1.
         13    1    1    2    0    0  0.23867502533E+03  0.51312109568E+02  0.53454292292E+03  0.58765197857E+03  0.10566000000E+00 0. -1.
<mgrwt>
<rscale>  1 0.71220496E+03</rscale>
<asrwt>0</asrwt>
<pdfrwt beam="2">  1       21 0.31629319E-01 0.10176549E+04</pdfrwt>
<pdfrwt beam="1">  1        4 0.30880075E+00 0.10176549E+04</pdfrwt>
<totfact> 0.10732616E+01</totfact>
</mgrwt>
</event>
<event>
 6    1  0.1412458E-005  0.1018378E+04  0.7818608E-02  0.9757399E-01
         21   -1    0    0  501  502  0.00000000000E+00  0.00000000000E+00  0.29499785650E+03  0.29499785650E+03  0.00000000000E+00 0.  1.
          4   -1    0    0  502    0 -0.00000000000E+00 -0.00000000000E+00 -0.12569865254E+04  0.12569865254E+04  0.00000000000E+00 0.  1.
    9000010    2    1    2  501    0  0.17587059054E+02  0.19811474756E+03 -0.78632992267E+03  0.12866265779E+04  0.99876646215E+03 0.  0.
        -13    1    3    3    0    0  0.49989142810E+03  0.19277535735E+03 -0.39900426675E+03  0.66802559408E+03  0.10566000000E+00 0.  1.
          4    1    3    3  501    0 -0.48230436905E+03  0.53393902129E+01 -0.38732565593E+03  0.61860098386E+03  0.00000000000E+00 0.  1.
         13    1    1    2    0    0 -0.17587059054E+02 -0.19811474756E+03 -0.17565874627E+03  0.26535780402E+03  0.10566000000E+00 0. -1.
<mgrwt>
<rscale>  1 0.67699742E+03</rscale>
<asrwt>0</asrwt>
<pdfrwt beam="1">  1       21 0.45384286E-01 0.10183777E+04</pdfrwt>
<pdfrwt beam="2">  1        4 0.19338254E+00 0.10183777E+04</pdfrwt>
<totfact> 0.26905418E+01</totfact>
</mgrwt>
</event>
<event>
 6    1  0.1412458E-005  0.1043489E+04  0.7818608E-02  0.9588825E-01
          4   -1    0    0  502    0 -0.00000000000E+00  0.00000000000E+00  0.71408606666E+03  0.71408606666E+03  0.00000000000E+00 0.  1.
         21   -1    0    0  501  502  0.00000000000E+00 -0.00000000000E+00 -0.66593153997E+03  0.66593153997E+03  0.00000000000E+00 0.  1.
    9000010    2    1    2  501    0 -0.28995197502E+03 -0.14998143541E+03 -0.31613803773E+02  0.10439676453E+04  0.99111171575E+03 0.  0.
        -13    1    3    3    0    0 -0.13090637386E+03 -0.52656434824E+03  0.19499705559E+03  0.57656773618E+03  0.10566000000E+00 0.  1.
          4    1    3    3  501    0 -0.15904560116E+03  0.37658291283E+03 -0.22661085936E+03  0.46739990914E+03  0.00000000000E+00 0.  1.
         13    1    1    2    0    0  0.28995197502E+03  0.14998143541E+03  0.79768330467E+02  0.33604996131E+03  0.10566000000E+00 0. -1.
<mgrwt>
<rscale>  1 0.78040222E+03</rscale>
<asrwt>0</asrwt>
<pdfrwt beam="2">  1       21 0.10245101E+00 0.10434889E+04</pdfrwt>
<pdfrwt beam="1">  1        4 0.10985940E+00 0.10434889E+04</pdfrwt>
<totfact> 0.18950017E+01</totfact>
</mgrwt>
</event>
<event>
 6    1  0.1412458E-005  0.1041585E+04  0.7818608E-02  0.9577588E-01
          4   -1    0    0  502    0 -0.00000000000E+00  0.00000000000E+00  0.17088225533E+04  0.17088225533E+04  0.00000000000E+00 0.  1.
         21   -1    0    0  501  502  0.00000000000E+00 -0.00000000000E+00 -0.29565803448E+03  0.29565803448E+03  0.00000000000E+00 0.  1.
    9000010    2    1    2  501    0  0.35207831874E+02 -0.33934379404E+03  0.12476710283E+04  0.16252947382E+04  0.98412712040E+03 0.  0.
        -13    1    3    3    0    0 -0.45487078021E+03 -0.59425890816E+02  0.71322820821E+03  0.84801730604E+03  0.10566000000E+00 0.  1.
          4    1    3    3  501    0  0.49007861208E+03 -0.27991790322E+03  0.53444282008E+03  0.77727743213E+03  0.00000000000E+00 0.  1.
         13    1    1    2    0    0 -0.35207831874E+02  0.33934379404E+03  0.16549349053E+03  0.37918584961E+03  0.10566000000E+00 0. -1.
<mgrwt>
<rscale>  1 0.78797499E+03</rscale>
<asrwt>0</asrwt>
<pdfrwt beam="2">  1       21 0.45485852E-01 0.10415853E+04</pdfrwt>
<pdfrwt beam="1">  1        4 0.26289577E+00 0.10415853E+04</pdfrwt>
<totfact> 0.96530892E+00</totfact>
</mgrwt>
</event>
<event>
 6    1  0.1412458E-005  0.9724674E+03  0.7818608E-02  0.9900346E-01
         21   -1    0    0  501  502  0.00000000000E+00  0.00000000000E+00  0.98454498260E+03  0.98454498260E+03  0.00000000000E+00 0.  1.
          4   -1    0    0  502    0 -0.00000000000E+00 -0.00000000000E+00 -0.36539085506E+03  0.36539085506E+03  0.00000000000E+00 0.  1.
    9000010    2    1    2  501    0  0.12197808097E+03 -0.75081030430E+02  0.68778469267E+03  0.11911089539E+04  0.96186118710E+03 0.  0.
        -13    1    3    3    0    0 -0.27929900137E+03 -0.22611769114E+03  0.67200899710E+03  0.76205855796E+03  0.10566000000E+00 0.  1.
          4    1    3    3  501    0  0.40127708234E+03  0.15103666071E+03  0.15775695569E+02  0.42905039595E+03  0.00000000000E+00 0.  1.
         13    1    1    2    0    0 -0.12197808097E+03  0.75081030430E+02 -0.68630565131E+02  0.15882688375E+03  0.10566000000E+00 0. -1.
<mgrwt>
<rscale>  1 0.60244499E+03</rscale>
<asrwt>0</asrwt>
<pdfrwt beam="1">  1       21 0.15146846E+00 0.97246736E+03</pdfrwt>
<pdfrwt beam="2">  1        4 0.56213978E-01 0.97246736E+03</pdfrwt>
<totfact> 0.31781617E+01</totfact>
</mgrwt>
</event>
<event>
 6    1  0.1412458E-005  0.1174223E+04  0.7818608E-02  0.9293458E-01
         21   -1    0    0  501  502  0.00000000000E+00  0.00000000000E+00  0.18691615331E+04  0.18691615331E+04  0.00000000000E+00 0. -1.
          4   -1    0    0  502    0 -0.00000000000E+00 -0.00000000000E+00 -0.44738299539E+03  0.44738299539E+03  0.00000000000E+00 0.  1.
    9000010    2    1    2  501    0 -0.59176336289E+03 -0.27527301755E+03  0.96575368546E+03  0.15203549852E+04  0.97613523043E+03 0.  0.
        -13    1    3    3    0    0 -0.60529321492E+03  0.12301365711E+03  0.18666244630E+03  0.64525585304E+03  0.10566000000E+00 0.  1.
          4    1    3    3  501    0  0.13529852029E+02 -0.39828667465E+03  0.77909123916E+03  0.87509913212E+03  0.00000000000E+00 0.  1.
         13    1    1    2    0    0  0.59176336289E+03  0.27527301755E+03  0.45602485223E+03  0.79618954331E+03  0.10566000000E+00 0. -1.
<mgrwt>
<rscale>  1 0.10138737E+04</rscale>
<asrwt>0</asrwt>
<pdfrwt beam="1">  1       21 0.28756331E+00 0.11742228E+04</pdfrwt>
<pdfrwt beam="2">  1        4 0.68828154E-01 0.11742228E+04</pdfrwt>
<totfact> 0.23586246E+00</totfact>
</mgrwt>
</event>
<event>
 6    1  0.1412458E-005  0.1046684E+04  0.7818608E-02  0.9592036E-01
         21   -1    0    0  501  502  0.00000000000E+00  0.00000000000E+00  0.57883767144E+03  0.57883767144E+03  0.00000000000E+00 0.  1.
          4   -1    0    0  502    0 -0.00000000000E+00 -0.00000000000E+00 -0.83645490887E+03  0.83645490887E+03  0.00000000000E+00 0.  1.
    9000010    2    1    2  501    0 -0.26500310408E+03  0.17922576340E+03 -0.30884204022E+03  0.10912979646E+04  0.99659386021E+03 0.  0.
        -13    1    3    3    0    0  0.11691813876E+03  0.91939575376E+02  0.31858995017E+03  0.35159963624E+03  0.10566000000E+00 0.  1.
          4    1    3    3  501    0 -0.38192124284E+03  0.87286188024E+02 -0.62743199040E+03  0.73969832832E+03  0.00000000000E+00 0.  1.
         13    1    1    2    0    0  0.26500310408E+03 -0.17922576340E+03  0.51224802797E+02  0.32399461574E+03  0.10566000000E+00 0. -1.
<mgrwt>
<rscale>  1 0.77825516E+03</rscale>
<asrwt>0</asrwt>
<pdfrwt beam="1">  1       21 0.89051949E-01 0.10466842E+04</pdfrwt>
<pdfrwt beam="2">  1        4 0.12868537E+00 0.10466842E+04</pdfrwt>
<totfact> 0.17957178E+01</totfact>
</mgrwt>
</event>
<event>
 6    1  0.1412458E-005  0.1001073E+04  0.7818608E-02  0.9941185E-01
          4   -1    0    0  502    0 -0.00000000000E+00  0.00000000000E+00  0.21512582098E+04  0.21512582098E+04  0.00000000000E+00 0.  1.
         21   -1    0    0  501  502  0.00000000000E+00 -0.00000000000E+00 -0.14495873962E+03  0.14495873962E+03  0.00000000000E+00 0.  1.
    9000010    2    1    2  501    0  0.55994478558E+02  0.10067824720E+03  0.18210263272E+04  0.20780481162E+04  0.99442224334E+03 0.  0.
        -13    1    3    3    0    0  0.64543886986E+02 -0.44598225679E+03  0.91247398106E+03  0.10176811210E+04  0.10566000000E+00 0.  1.
          4    1    3    3  501    0 -0.85494084279E+01  0.54666050399E+03  0.90855234611E+03  0.10603669953E+04  0.00000000000E+00 0.  1.
         13    1    1    2    0    0 -0.55994478558E+02 -0.10067824720E+03  0.18527314300E+03  0.21816883318E+03  0.10566000000E+00 0. -1.
<mgrwt>
<rscale>  1 0.58306150E+03</rscale>
<asrwt>0</asrwt>
<pdfrwt beam="2">  1       21 0.22301346E-01 0.10010730E+04</pdfrwt>
<pdfrwt beam="1">  1        4 0.33096278E+00 0.10010730E+04</pdfrwt>
<totfact> 0.15652417E+01</totfact>
</mgrwt>
</event>
<event>
 6    1  0.1412458E-005  0.1002536E+04  0.7818608E-02  0.9896945E-01
          4   -1    0    0  502    0 -0.00000000000E+00  0.00000000000E+00  0.88974705943E+03  0.88974705943E+03  0.00000000000E+00 0.  1.
         21   -1    0    0  501  502  0.00000000000E+00 -0.00000000000E+00 -0.63631205997E+03  0.63631205997E+03  0.00000000000E+00 0.  1.
    9000010    2    1    2  501    0 -0.68649793197E+02  0.11293928192E+03 -0.22688326610E+03  0.10278887440E+04  0.99378628395E+03 0.  0.
        -13    1    3    3    0    0  0.29194618304E+03  0.41665640505E+03 -0.98009541766E+01  0.50885283091E+03  0.10566000000E+00 0.  1.
          4    1    3    3  501    0 -0.36059597623E+03 -0.30371712313E+03 -0.21708231193E+03  0.51903591312E+03  0.00000000000E+00 0.  1.
         13    1    1    2    0    0  0.68649793197E+02 -0.11293928192E+03  0.48031826556E+03  0.49817037537E+03  0.10566000000E+00 0. -1.
<mgrwt>
<rscale>  1 0.60409575E+03</rscale>
<asrwt>0</asrwt>
<pdfrwt beam="2">  1       21 0.97894163E-01 0.10025364E+04</pdfrwt>
<pdfrwt beam="1">  1        4 0.13688416E+00 0.10025364E+04</pdfrwt>
<totfact> 0.12213024E+01</totfact>
</mgrwt>
</event>
<event>
 6    1  0.1412458E-005  0.1033160E+04  0.7818608E-02  0.9819518E-01
          4   -1    0    0  502    0 -0.00000000000E+00  0.00000000000E+00  0.11053038375E+04  0.11053038375E+04  0.00000000000E+00 0.  1.
         21   -1    0    0  501  502  0.00000000000E+00 -0.00000000000E+00 -0.33224819602E+03  0.33224819602E+03  0.00000000000E+00 0.  1.
    9000010    2    1    2  501    0 -0.11328307874E+03  0.10615758252E+03  0.56376610424E+03  0.11769669038E+04  0.10214285996E+04 0.  0.
        -13    1    3    3    0    0 -0.51209832907E+03  0.19466121124E+03  0.96464789893E+02  0.55627614783E+03  0.10566000000E+00 0.  1.
          4    1    3    3  501    0  0.39881525032E+03 -0.88503628716E+02  0.46730131435E+03  0.62069075599E+03  0.00000000000E+00 0.  1.
         13    1    1    2    0    0  0.11328307874E+03 -0.10615758252E+03  0.20928953722E+03  0.26058512968E+03  0.10566000000E+00 0. -1.
<mgrwt>
<rscale>  1 0.64325525E+03</rscale>
<asrwt>0</asrwt>
<pdfrwt beam="2">  1       21 0.51115108E-01 0.10331597E+04</pdfrwt>
<pdfrwt beam="1">  1        4 0.17004674E+00 0.10331597E+04</pdfrwt>
<totfact> 0.30222282E+01</totfact>
</mgrwt>
</event>
<event>
 6    1  0.1412458E-005  0.1138377E+04  0.7818608E-02  0.9339755E-01
         21   -1    0    0  501  502  0.00000000000E+00  0.00000000000E+00  0.91247929990E+03  0.91247929990E+03  0.00000000000E+00 0.  1.
          4   -1    0    0  502    0 -0.00000000000E+00 -0.00000000000E+00 -0.94221591068E+03  0.94221591068E+03  0.00000000000E+00 0.  1.
    9000010    2    1    2  501    0  0.89805815996E+02  0.59846666241E+03 -0.32144591884E+03  0.11828903563E+04  0.96419639378E+03 0.  0.
        -13    1    3    3    0    0  0.30307055283E+03 -0.18670977034E+02 -0.42443816737E+03  0.52186984437E+03  0.10566000000E+00 0.  1.
          4    1    3    3  501    0 -0.21326473683E+03  0.61713763944E+03  0.10299224853E+03  0.66102051197E+03  0.00000000000E+00 0.  1.
         13    1    1    2    0    0 -0.89805815996E+02 -0.59846666241E+03  0.29170930806E+03  0.67180485424E+03  0.10566000000E+00 0. -1.
<mgrwt>
<rscale>  1 0.97203855E+03</rscale>
<asrwt>0</asrwt>
<pdfrwt beam="1">  1       21 0.14038143E+00 0.11383770E+04</pdfrwt>
<pdfrwt beam="2">  1        4 0.14495630E+00 0.11383770E+04</pdfrwt>
<totfact> 0.40657156E+00</totfact>
</mgrwt>
</event>
<event>
 6    1  0.1412458E-005  0.1028565E+04  0.7818608E-02  0.9812069E-01
         21   -1    0    0  501  502  0.00000000000E+00  0.00000000000E+00  0.43146314338E+03  0.43146314338E+03  0.00000000000E+00 0.  1.
          4   -1    0    0  502    0 -0.00000000000E+00 -0.00000000000E+00 -0.82473322065E+03  0.82473322065E+03  0.00000000000E+00 0.  1.
    9000010    2    1    2  501    0  0.42968644420E+02  0.15539182567E+03 -0.37106367593E+03  0.10934509822E+04  0.10158513055E+04 0.  0.
        -13    1    3    3    0    0  0.23363988369E+03 -0.38729366303E+03 -0.13887955680E+03  0.47315063049E+03  0.10566000000E+00 0.  1.
          4    1    3    3  501    0 -0.19067123927E+03  0.54268548870E+03 -0.23218411914E+03  0.62030035169E+03  0.00000000000E+00 0.  1.
         13    1    1    2    0    0 -0.42968644420E+02 -0.15539182567E+03 -0.22206401336E+02  0.16274538185E+03  0.10566000000E+00 0. -1.
<mgrwt>
<rscale>  1 0.64718867E+03</rscale>
<asrwt>0</asrwt>
<pdfrwt beam="1">  1       21 0.66378947E-01 0.10285654E+04</pdfrwt>
<pdfrwt beam="2">  1        4 0.12688203E+00 0.10285654E+04</pdfrwt>
<totfact> 0.37059651E+01</totfact>
</mgrwt>
</event>
<event>
 6    1  0.1412458E-005  0.9962626E+03  0.7818608E-02  0.1005332E+00
         21   -1    0    0  501  502  0.00000000000E+00  0.00000000000E+00  0.33544213554E+03  0.33544213554E+03  0.00000000000E+00 0.  1.
          4   -1    0    0  502    0 -0.00000000000E+00 -0.00000000000E+00 -0.97512285467E+03  0.97512285467E+03  0.00000000000E+00 0.  1.
    9000010    2    1    2  501    0 -0.30643621503E+02  0.76128168231E+02 -0.42944249111E+03  0.10848779210E+04  0.99287699173E+03 0.  0.
        -13    1    3    3    0    0 -0.49081367681E+02 -0.13288198632E+02  0.32296917425E+03  0.32694748135E+03  0.10566000000E+00 0.  1.
          4    1    3    3  501    0  0.18437746178E+02  0.89416366863E+02 -0.75241166536E+03  0.75793043963E+03  0.00000000000E+00 0.  1.
         13    1    1    2    0    0  0.30643621503E+02 -0.76128168231E+02 -0.21023822802E+03  0.22568706924E+03  0.10566000000E+00 0. -1.
<mgrwt>
<rscale>  1 0.53372664E+03</rscale>
<asrwt>0</asrwt>
<pdfrwt beam="1">  1       21 0.51606483E-01 0.99626264E+03</pdfrwt>
<pdfrwt beam="2">  1        4 0.15001890E+00 0.99626264E+03</pdfrwt>
<totfact> 0.41919881E+01</totfact>
</mgrwt>
</event>
<event>
 6    1  0.1412458E-005  0.1015239E+04  0.7818608E-02  0.9932258E-01
          4   -1    0    0  502    0 -0.00000000000E+00  0.00000000000E+00  0.32909874785E+03  0.32909874785E+03  0.00000000000E+00 0.  1.
         21   -1    0    0  501  502  0.00000000000E+00 -0.00000000000E+00 -0.10048323395E+04  0.10048323395E+04  0.00000000000E+00 0.  1.
    9000010    2    1    2  501    0 -0.10202069684E+03 -0.50058096612E+02 -0.67703910370E+03  0.12202836010E+04  0.10088588025E+04 0.  0.
        -13    1    3    3    0    0  0.40336220500E+03 -0.97672549498E+02 -0.56937689591E+02  0.41890679991E+03  0.10566000000E+00 0.  1.
          4    1    3    3  501    0 -0.50538290184E+03  0.47614452886E+02 -0.62010141411E+03  0.80137680112E+03  0.00000000000E+00 0.  1.
         13    1    1    2    0    0  0.10202069684E+03  0.50058096612E+02  0.13055120584E+01  0.11364748632E+03  0.10566000000E+00 0. -1.
<mgrwt>
<rscale>  1 0.58723103E+03</rscale>
<asrwt>0</asrwt>
<pdfrwt beam="2">  1       21 0.15458959E+00 0.10152389E+04</pdfrwt>
<pdfrwt beam="1">  1        4 0.50630577E-01 0.10152389E+04</pdfrwt>
<totfact> 0.37358233E+01</totfact>
</mgrwt>
</event>
<event>
 6    1  0.1412458E-005  0.1087527E+04  0.7818608E-02  0.9466287E-01
          4   -1    0    0  502    0 -0.00000000000E+00  0.00000000000E+00  0.15151822213E+04  0.15151822213E+04  0.00000000000E+00 0.  1.
         21   -1    0    0  501  502  0.00000000000E+00 -0.00000000000E+00 -0.68492456953E+03  0.68492456953E+03  0.00000000000E+00 0.  1.
    9000010    2    1    2  501    0  0.37073167356E+03 -0.24001547430E+03 -0.17555401326E+03  0.11016048480E+04  0.99381317556E+03 0.  0.
        -13    1    3    3    0    0 -0.96243877303E+02 -0.44231973926E+03  0.17318454057E+03  0.48466744466E+03  0.10566000000E+00 0.  1.
          4    1    3    3  501    0  0.46697555086E+03  0.20230426496E+03 -0.34873855383E+03  0.61693740335E+03  0.00000000000E+00 0.  1.
         13    1    1    2    0    0 -0.37073167356E+03  0.24001547430E+03  0.10058116650E+04  0.10985019428E+04  0.10566000000E+00 0. -1.
<mgrwt>
<rscale>  1 0.86815643E+03</rscale>
<asrwt>0</asrwt>
<pdfrwt beam="2">  1       21 0.10537301E+00 0.10875266E+04</pdfrwt>
<pdfrwt beam="1">  1        4 0.23310496E+00 0.10875266E+04</pdfrwt>
<totfact> 0.21266589E+00</totfact>
</mgrwt>
</event>
<event>
 6    1  0.1412458E-005  0.1036535E+04  0.7818608E-02  0.9798581E-01
          4   -1    0    0  502    0 -0.00000000000E+00  0.00000000000E+00  0.64639812752E+03  0.64639812752E+03  0.00000000000E+00 0.  1.
         21   -1    0    0  501  502  0.00000000000E+00 -0.00000000000E+00 -0.65268802003E+03  0.65268802003E+03  0.00000000000E+00 0.  1.
    9000010    2    1    2  501    0 -0.13223801583E+03 -0.98112193704E+02 -0.18845911838E+03  0.10535285506E+04  0.10233731833E+04 0.  0.
        -13    1    3    3    0    0  0.18869905073E+03  0.18195987793E+03  0.30465734195E+03  0.40191147793E+03  0.10566000000E+00 0.  1.
          4    1    3    3  501    0 -0.32093706655E+03 -0.28007207164E+03 -0.49311646033E+03  0.65161707271E+03  0.00000000000E+00 0.  1.
         13    1    1    2    0    0  0.13223801583E+03  0.98112193704E+02  0.18216922587E+03  0.24555759691E+03  0.10566000000E+00 0. -1.
<mgrwt>
<rscale>  1 0.65438766E+03</rscale>
<asrwt>0</asrwt>
<pdfrwt beam="2">  1       21 0.10041354E+00 0.10365354E+04</pdfrwt>
<pdfrwt beam="1">  1        4 0.99445866E-01 0.10365354E+04</pdfrwt>
<totfact> 0.25422579E+01</totfact>
</mgrwt>
</event>
<event>
 6    1  0.1412458E-005  0.1026608E+04  0.7818608E-02  0.9647297E-01
         21   -1    0    0  501  502  0.00000000000E+00  0.00000000000E+00  0.49338484595E+03  0.49338484595E+03  0.00000000000E+00 0.  1.
          4   -1    0    0  502    0 -0.00000000000E+00 -0.00000000000E+00 -0.12598741943E+04  0.12598741943E+04  0.00000000000E+00 0.  1.
    9000010    2    1    2  501    0 -0.11119400811E+03  0.25785903178E+03 -0.10174741641E+03  0.10316377858E+04  0.98745561750E+03 0.  0.
        -13    1    3    3    0    0 -0.12482678380E+03  0.69828098377E+02  0.43755205176E+03  0.46033628842E+03  0.10566000000E+00 0.  1.
          4    1    3    3  501    0  0.13632775685E+02  0.18803093340E+03 -0.53929946817E+03  0.57130149733E+03  0.00000000000E+00 0.  1.
         13    1    1    2    0    0  0.11119400811E+03 -0.25785903178E+03 -0.66474193198E+03  0.72162125454E+03  0.10566000000E+00 0. -1.
<mgrwt>
<rscale>  1 0.74243325E+03</rscale>
<asrwt>0</asrwt>
<pdfrwt beam="1">  1       21 0.75905361E-01 0.10266080E+04</pdfrwt>
<pdfrwt beam="2">  1        4 0.19382680E+00 0.10266080E+04</pdfrwt>
<totfact> 0.85051970E+00</totfact>
</mgrwt>
</event>
<event>
 6    1  0.1412458E-005  0.1022474E+04  0.7818608E-02  0.9600615E-01
          4   -1    0    0  502    0 -0.00000000000E+00  0.00000000000E+00  0.45772142888E+03  0.45772142888E+03  0.00000000000E+00 0.  1.
         21   -1    0    0  501  502  0.00000000000E+00 -0.00000000000E+00 -0.10067937521E+04  0.10067937521E+04  0.00000000000E+00 0. -1.
    9000010    2    1    2  501    0  0.27254058857E+03  0.19176252734E+03 -0.44770642882E+03  0.11161959380E+04  0.96664423983E+03 0.  0.
        -13    1    3    3    0    0 -0.20229040603E+03  0.43766318992E+03 -0.27063877250E+03  0.55291575536E+03  0.10566000000E+00 0.  1.
          4    1    3    3  501    0  0.47483099459E+03 -0.24590066258E+03 -0.17706765632E+03  0.56328018268E+03  0.00000000000E+00 0.  1.
         13    1    1    2    0    0 -0.27254058857E+03 -0.19176252734E+03 -0.10136589445E+03  0.34831924298E+03  0.10566000000E+00 0. -1.
<mgrwt>
<rscale>  1 0.77255520E+03</rscale>
<asrwt>0</asrwt>
<pdfrwt beam="2">  1       21 0.15489135E+00 0.10224736E+04</pdfrwt>
<pdfrwt beam="1">  1        4 0.70418682E-01 0.10224736E+04</pdfrwt>
<totfact> 0.18101108E+01</totfact>
</mgrwt>
</event>
<event>
 6    1  0.1412458E-005  0.1096560E+04  0.7818608E-02  0.9449887E-01
         21   -1    0    0  501  502  0.00000000000E+00  0.00000000000E+00  0.18835842910E+04  0.18835842910E+04  0.00000000000E+00 0. -1.
          4   -1    0    0  502    0 -0.00000000000E+00 -0.00000000000E+00 -0.35142003248E+03  0.35142003248E+03  0.00000000000E+00 0.  1.
    9000010    2    1    2  501    0  0.38410245481E+03  0.24669237923E+03  0.13602555163E+04  0.17472088207E+04  0.99702144792E+03 0.  0.
        -13    1    3    3    0    0  0.55364763940E+03 -0.17729471983E+03  0.10332511913E+04  0.11855661777E+04  0.10566000000E+00 0.  1.
          4    1    3    3  501    0 -0.16954518459E+03  0.42398709906E+03  0.32700432497E+03  0.56164264291E+03  0.00000000000E+00 0.  1.
         13    1    1    2    0    0 -0.38410245481E+03 -0.24669237923E+03  0.17190874225E+03  0.48779550284E+03  0.10566000000E+00 0. -1.
<mgrwt>
<rscale>  1 0.88081430E+03</rscale>
<asrwt>0</asrwt>
<pdfrwt beam="1">  1       21 0.28978219E+00 0.10965599E+04</pdfrwt>
<pdfrwt beam="2">  1        4 0.54064622E-01 0.10965599E+04</pdfrwt>
<totfact> 0.39232616E+00</totfact>
</mgrwt>
</event>
<event>
 6    1  0.1412458E-005  0.1020384E+04  0.7818608E-02  0.9741324E-01
          4   -1    0    0  502    0 -0.00000000000E+00  0.00000000000E+00  0.23239286693E+03  0.23239286693E+03  0.00000000000E+00 0.  1.
         21   -1    0    0  501  502  0.00000000000E+00 -0.00000000000E+00 -0.16887895604E+04  0.16887895604E+04  0.00000000000E+00 0.  1.
    9000010    2    1    2  501    0  0.15916117358E+03  0.13477510336E+03 -0.10484836855E+04  0.14630452853E+04  0.99884276064E+03 0.  0.
        -13    1    3    3    0    0 -0.29188870641E+03 -0.28099180765E+03 -0.37510071641E+03  0.55213763820E+03  0.10566000000E+00 0.  1.
          4    1    3    3  501    0  0.45104987999E+03  0.41576691101E+03 -0.67338296911E+03  0.91090764714E+03  0.00000000000E+00 0.  1.
         13    1    1    2    0    0 -0.15916117358E+03 -0.13477510336E+03 -0.40791300799E+03  0.45813714203E+03  0.10566000000E+00 0. -1.
<mgrwt>
<rscale>  1 0.68608783E+03</rscale>
<asrwt>0</asrwt>
<pdfrwt beam="2">  1       21 0.25981378E+00 0.10203840E+04</pdfrwt>
<pdfrwt beam="1">  1        4 0.35752749E-01 0.10203840E+04</pdfrwt>
<totfact> 0.14406106E+01</totfact>
</mgrwt>
</event>
<event>
 6    1  0.1412458E-005  0.1021627E+04  0.7818608E-02  0.9808658E-01
          4   -1    0    0  502    0 -0.00000000000E+00  0.00000000000E+00  0.42741900704E+03  0.42741900704E+03  0.00000000000E+00 0.  1.
         21   -1    0    0  501  502  0.00000000000E+00 -0.00000000000E+00 -0.11737929166E+04  0.11737929166E+04  0.00000000000E+00 0.  1.
    9000010    2    1    2  501    0 -0.13112856092E+03  0.10240862221E+03 -0.90978692219E+03  0.13680037565E+04  0.10079880002E+04 0.  0.
        -13    1    3    3    0    0 -0.12969241222E+03 -0.25671200335E+03 -0.96293374804E+03  0.10049689491E+04  0.10566000000E+00 0.  1.
          4    1    3    3  501    0 -0.14361487005E+01  0.35912062556E+03  0.53146825850E+02  0.36303480732E+03  0.00000000000E+00 0.  1.
         13    1    1    2    0    0  0.13112856092E+03 -0.10240862221E+03  0.16341301261E+03  0.23320816720E+03  0.10566000000E+00 0. -1.
<mgrwt>
<rscale>  1 0.64899966E+03</rscale>
<asrwt>0</asrwt>
<pdfrwt beam="2">  1       21 0.18058352E+00 0.10216272E+04</pdfrwt>
<pdfrwt beam="1">  1        4 0.65756771E-01 0.10216272E+04</pdfrwt>
<totfact> 0.13481062E+01</totfact>
</mgrwt>
</event>
<event>
 6    1  0.1412458E-005  0.1006338E+04  0.7818608E-02  0.1007234E+00
         21   -1    0    0  501  502  0.00000000000E+00  0.00000000000E+00  0.42261524524E+03  0.42261524524E+03  0.00000000000E+00 0.  1.
          4   -1    0    0  502    0 -0.00000000000E+00 -0.00000000000E+00 -0.84702041743E+03  0.84702041743E+03  0.00000000000E+00 0.  1.
    9000010    2    1    2  501    0 -0.50814225221E+01 -0.74875861647E+02 -0.19079321659E+03  0.10242649789E+04  0.10035359883E+04 0.  0.
        -13    1    3    3    0    0  0.16531820209E+03 -0.51144882196E+03 -0.92108676540E+02  0.54533844985E+03  0.10566000000E+00 0.  1.
          4    1    3    3  501    0 -0.17039962461E+03  0.43657296031E+03 -0.98684540049E+02  0.47892652901E+03  0.00000000000E+00 0.  1.
         13    1    1    2    0    0  0.50814225221E+01  0.74875861647E+02 -0.23361195560E+03  0.24537068382E+03  0.10566000000E+00 0. -1.
<mgrwt>
<rscale>  1 0.52588769E+03</rscale>
<asrwt>0</asrwt>
<pdfrwt beam="1">  1       21 0.65017731E-01 0.10063383E+04</pdfrwt>
<pdfrwt beam="2">  1        4 0.13031083E+00 0.10063383E+04</pdfrwt>
<totfact> 0.36343746E+01</totfact>
</mgrwt>
</event>
<event>
 6    1  0.1412458E-005  0.9321619E+03  0.7818608E-02  0.9821255E-01
          4   -1    0    0  502    0 -0.00000000000E+00  0.00000000000E+00  0.10804102100E+04  0.10804102100E+04  0.00000000000E+00 0.  1.
         21   -1    0    0  501  502  0.00000000000E+00 -0.00000000000E+00 -0.31271145793E+03  0.31271145793E+03  0.00000000000E+00 0.  1.
    9000010    2    1    2  501    0 -0.10903707827E+03 -0.17968496024E+03  0.51685746169E+03  0.10658646841E+04  0.90815754121E+03 0.  0.
        -13    1    3    3    0    0  0.20906848578E+03  0.23265078053E+03 -0.25665469672E+02  0.31383872438E+03  0.10566000000E+00 0.  1.
          4    1    3    3  501    0 -0.31810556405E+03 -0.41233574076E+03  0.54252293136E+03  0.75202595968E+03  0.00000000000E+00 0.  1.
         13    1    1    2    0    0  0.10903707827E+03  0.17968496024E+03  0.25084129042E+03  0.32725698391E+03  0.10566000000E+00 0. -1.
<mgrwt>
<rscale>  1 0.64234235E+03</rscale>
<asrwt>0</asrwt>
<pdfrwt beam="2">  1       21 0.48109456E-01 0.93216194E+03</pdfrwt>
<pdfrwt beam="1">  1        4 0.16621695E+00 0.93216194E+03</pdfrwt>
<totfact> 0.37056068E+01</totfact>
</mgrwt>
</event>
<event>
 6    1  0.1412458E-005  0.1042937E+04  0.7818608E-02  0.9586538E-01
          4   -1    0    0  502    0 -0.00000000000E+00  0.00000000000E+00  0.15327691316E+04  0.15327691316E+04  0.00000000000E+00 0.  1.
         21   -1    0    0  501  502  0.00000000000E+00 -0.00000000000E+00 -0.30843026505E+03  0.30843026505E+03  0.00000000000E+00 0.  1.
    9000010    2    1    2  501    0 -0.32794040579E+02  0.32790619521E+03  0.97807403967E+03  0.14298062780E+04  0.98950454447E+03 0.  0.
        -13    1    3    3    0    0  0.29438155565E+03  0.15379390347E+03  0.10047548259E+04  0.10582274502E+04  0.10566000000E+00 0.  1.
          4    1    3    3  501    0 -0.32717559623E+03  0.17411229174E+03 -0.26680786219E+02  0.37157882778E+03  0.00000000000E+00 0.  1.
         13    1    1    2    0    0  0.32794040579E+02 -0.32790619521E+03  0.24626482687E+03  0.41139311865E+03  0.10566000000E+00 0. -1.
<mgrwt>
<rscale>  1 0.78193606E+03</rscale>
<asrwt>0</asrwt>
<pdfrwt beam="2">  1       21 0.47450811E-01 0.10429368E+04</pdfrwt>
<pdfrwt beam="1">  1        4 0.23581063E+00 0.10429368E+04</pdfrwt>
<totfact> 0.12981917E+01</totfact>
</mgrwt>
</event>
<event>
 6    1  0.1412458E-005  0.1068877E+04  0.7818608E-02  0.9528269E-01
          4   -1    0    0  502    0 -0.00000000000E+00  0.00000000000E+00  0.28334866133E+03  0.28334866133E+03  0.00000000000E+00 0.  1.
         21   -1    0    0  501  502  0.00000000000E+00 -0.00000000000E+00 -0.19289749199E+04  0.19289749199E+04  0.00000000000E+00 0.  1.
    9000010    2    1    2  501    0 -0.34942191610E+03  0.13453619251E+03 -0.14121657055E+04  0.17710759143E+04  0.10011504642E+04 0.  0.
        -13    1    3    3    0    0 -0.24659176809E+02 -0.12411970771E+03 -0.13444720788E+04  0.13504143655E+04  0.10566000000E+00 0.  1.
          4    1    3    3  501    0 -0.32476273929E+03  0.25865590022E+03 -0.67693626707E+02  0.42066154881E+03  0.00000000000E+00 0.  1.
         13    1    1    2    0    0  0.34942191610E+03 -0.13453619251E+03 -0.23346055314E+03  0.44124766694E+03  0.10566000000E+00 0. -1.
<mgrwt>
<rscale>  1 0.82231385E+03</rscale>
<asrwt>0</asrwt>
<pdfrwt beam="2">  1       21 0.29676538E+00 0.10688769E+04</pdfrwt>
<pdfrwt beam="1">  1        4 0.43592101E-01 0.10688769E+04</pdfrwt>
<totfact> 0.56072166E+00</totfact>
</mgrwt>
</event>
<event>
 6    1  0.1412458E-005  0.1056691E+04  0.7818608E-02  0.9562254E-01
         21   -1    0    0  501  502  0.00000000000E+00  0.00000000000E+00  0.92791020653E+03  0.92791020653E+03  0.00000000000E+00 0.  1.
          4   -1    0    0  502    0 -0.00000000000E+00 -0.00000000000E+00 -0.60740996748E+03  0.60740996748E+03  0.00000000000E+00 0.  1.
    9000010    2    1    2  501    0  0.34130018232E+03  0.46675620403E+02  0.47407030272E+03  0.11581621122E+04  0.99896566416E+03 0.  0.
        -13    1    3    3    0    0  0.41061170423E+03 -0.85949509699E+02  0.74136543911E+03  0.85182863026E+03  0.10566000000E+00 0.  1.
          4    1    3    3  501    0 -0.69311521910E+02  0.13262513010E+03 -0.26729513639E+03  0.30633348191E+03  0.00000000000E+00 0.  1.
         13    1    1    2    0    0 -0.34130018232E+03 -0.46675620403E+02 -0.15357006367E+03  0.37715806184E+03  0.10566000000E+00 0. -1.
<mgrwt>
<rscale>  1 0.79845642E+03</rscale>
<asrwt>0</asrwt>
<pdfrwt beam="1">  1       21 0.14275542E+00 0.10566915E+04</pdfrwt>
<pdfrwt beam="2">  1        4 0.93447688E-01 0.10566915E+04</pdfrwt>
<totfact> 0.11782369E+01</totfact>
</mgrwt>
</event>
<event>
 6    1  0.1412458E-005  0.1030118E+04  0.7818608E-02  0.9761468E-01
          4   -1    0    0  502    0 -0.00000000000E+00  0.00000000000E+00  0.14498968846E+04  0.14498968846E+04  0.00000000000E+00 0.  1.
         21   -1    0    0  501  502  0.00000000000E+00 -0.00000000000E+00 -0.26460646928E+03  0.26460646928E+03  0.00000000000E+00 0.  1.
    9000010    2    1    2  501    0  0.13670617402E+03  0.13137315747E+03  0.87847231333E+03  0.13538305889E+04  0.10125197152E+04 0.  0.
        -13    1    3    3    0    0 -0.19822661576E+03 -0.34945262900E+03  0.55297852982E+03  0.68351751749E+03  0.10566000000E+00 0.  1.
          4    1    3    3  501    0  0.33493278978E+03  0.48082578647E+03  0.32549378351E+03  0.67031307141E+03  0.00000000000E+00 0.  1.
         13    1    1    2    0    0 -0.13670617402E+03 -0.13137315747E+03  0.30681810203E+03  0.36067276501E+03  0.10566000000E+00 0. -1.
<mgrwt>
<rscale>  1 0.67472049E+03</rscale>
<asrwt>0</asrwt>
<pdfrwt beam="2">  1       21 0.40708689E-01 0.10301183E+04</pdfrwt>
<pdfrwt beam="1">  1        4 0.22306105E+00 0.10301183E+04</pdfrwt>
<totfact> 0.21661399E+01</totfact>
</mgrwt>
</event>
<event>
 6    1  0.1412458E-005  0.1018628E+04  0.7818608E-02  0.9830001E-01
         21   -1    0    0  501  502  0.00000000000E+00  0.00000000000E+00  0.77428945424E+03  0.77428945424E+03  0.00000000000E+00 0.  1.
          4   -1    0    0  502    0 -0.00000000000E+00 -0.00000000000E+00 -0.44902020442E+03  0.44902020442E+03  0.00000000000E+00 0.  1.
    9000010    2    1    2  501    0  0.13173939177E+03  0.84545014555E+02  0.31592947220E+03  0.10664964914E+04  0.10065287914E+04 0.  0.
        -13    1    3    3    0    0  0.16225973849E+03  0.38405763689E+03  0.54643188082E+03  0.68732547074E+03  0.10566000000E+00 0.  1.
          4    1    3    3  501    0 -0.30520346724E+02 -0.29951262233E+03 -0.23050240862E+03  0.37917102062E+03  0.00000000000E+00 0.  1.
         13    1    1    2    0    0 -0.13173939177E+03 -0.84545014555E+02  0.93397776180E+01  0.15681316730E+03  0.10566000000E+00 0. -1.
<mgrwt>
<rscale>  1 0.63777057E+03</rscale>
<asrwt>0</asrwt>
<pdfrwt beam="1">  1       21 0.11912145E+00 0.10186282E+04</pdfrwt>
<pdfrwt beam="2">  1        4 0.69080032E-01 0.10186282E+04</pdfrwt>
<totfact> 0.38413135E+01</totfact>
</mgrwt>
</event>
<event>
 6    1  0.1412458E-005  0.1051932E+04  0.7818608E-02  0.9536654E-01
          4   -1    0    0  502    0 -0.00000000000E+00  0.00000000000E+00  0.17629976395E+03  0.17629976395E+03  0.00000000000E+00 0.  1.
         21   -1    0    0  501  502  0.00000000000E+00 -0.00000000000E+00 -0.29139858183E+04  0.29139858183E+04  0.00000000000E+00 0.  1.
    9000010    2    1    2  501    0 -0.14820540756E+03  0.35157331518E+03 -0.19988343414E+04  0.22587385278E+04  0.98030218511E+03 0.  0.
        -13    1    3    3    0    0 -0.11106214088E+03 -0.15251110859E+03  0.83906081988E+01  0.18885139886E+03  0.10566000000E+00 0.  1.
          4    1    3    3  501    0 -0.37143266681E+02  0.50408442377E+03 -0.20072249496E+04  0.20698871290E+04  0.00000000000E+00 0.  1.
         13    1    1    2    0    0  0.14820540756E+03 -0.35157331518E+03 -0.73885171298E+03  0.83154705442E+03  0.10566000000E+00 0. -1.
<mgrwt>
<rscale>  1 0.81634605E+03</rscale>
<asrwt>0</asrwt>
<pdfrwt beam="2">  1       21 0.44830550E+00 0.10519320E+04</pdfrwt>
<pdfrwt beam="1">  1        4 0.27123041E-01 0.10519320E+04</pdfrwt>
<totfact> 0.15206192E+00</totfact>
</mgrwt>
</event>
<event>
 6    1  0.1412458E-005  0.1120650E+04  0.7818608E-02  0.9428088E-01
          4   -1    0    0  502    0 -0.00000000000E+00  0.00000000000E+00  0.14537438789E+04  0.14537438789E+04  0.00000000000E+00 0.  1.
         21   -1    0    0  501  502  0.00000000000E+00 -0.00000000000E+00 -0.49061889612E+03  0.49061889612E+03  0.00000000000E+00 0.  1.
    9000010    2    1    2  501    0  0.41886463023E+03 -0.19505004297E+03  0.34484705257E+03  0.11725080556E+04  0.10209620723E+04 0.  0.
        -13    1    3    3    0    0 -0.11454092431E+03 -0.21861648199E+03  0.54817842154E+03  0.60117583330E+03  0.10566000000E+00 0.  1.
          4    1    3    3  501    0  0.53340555454E+03  0.23566439024E+02 -0.20333136897E+03  0.57133222233E+03  0.00000000000E+00 0.  1.
         13    1    1    2    0    0 -0.41886463023E+03  0.19505004297E+03  0.61827793026E+03  0.77185471944E+03  0.10566000000E+00 0. -1.
<mgrwt>
<rscale>  1 0.89799749E+03</rscale>
<asrwt>0</asrwt>
<pdfrwt beam="2">  1       21 0.75479831E-01 0.11206497E+04</pdfrwt>
<pdfrwt beam="1">  1        4 0.22365290E+00 0.11206497E+04</pdfrwt>
<totfact> 0.54455671E+00</totfact>
</mgrwt>
</event>
<event>
 6    1  0.1412458E-005  0.9762493E+03  0.7818608E-02  0.9722080E-01
         21   -1    0    0  501  502  0.00000000000E+00  0.00000000000E+00  0.26461430728E+03  0.26461430728E+03  0.00000000000E+00 0.  1.
          4   -1    0    0  502    0 -0.00000000000E+00 -0.00000000000E+00 -0.15511586048E+04  0.15511586048E+04  0.00000000000E+00 0.  1.
    9000010    2    1    2  501    0 -0.12818270395E+02  0.25358552875E+03 -0.78160199754E+03  0.12505856281E+04  0.94265200486E+03 0.  0.
        -13    1    3    3    0    0 -0.41617306711E+03 -0.14429288106E+02 -0.12513466321E+03  0.43481826231E+03  0.10566000000E+00 0.  1.
          4    1    3    3  501    0  0.40335479671E+03  0.26801481686E+03 -0.65646733433E+03  0.81576736581E+03  0.00000000000E+00 0.  1.
         13    1    1    2    0    0  0.12818270395E+02 -0.25358552875E+03 -0.50494229994E+03  0.56518728390E+03  0.10566000000E+00 0. -1.
<mgrwt>
<rscale>  1 0.69717245E+03</rscale>
<asrwt>0</asrwt>
<pdfrwt beam="1">  1       21 0.40709893E-01 0.97624932E+03</pdfrwt>
<pdfrwt beam="2">  1        4 0.23863979E+00 0.97624932E+03</pdfrwt>
<totfact> 0.17383292E+01</totfact>
</mgrwt>
</event>
<event>
 6    1  0.1412458E-005  0.1014624E+04  0.7818608E-02  0.9983044E-01
         21   -1    0    0  501  502  0.00000000000E+00  0.00000000000E+00  0.34167284743E+03  0.34167284743E+03  0.00000000000E+00 0.  1.
          4   -1    0    0  502    0 -0.00000000000E+00 -0.00000000000E+00 -0.90414298361E+03  0.90414298361E+03  0.00000000000E+00 0.  1.
    9000010    2    1    2  501    0  0.90070835271E+02  0.35658970690E+02 -0.50829782093E+03  0.11348249825E+04  0.10099884893E+04 0.  0.
        -13    1    3    3    0    0 -0.25807359490E+03  0.29807597298E+02 -0.69341370764E+03  0.74048163674E+03  0.10566000000E+00 0.  1.
          4    1    3    3  501    0  0.34814443017E+03  0.58513733922E+01  0.18511588671E+03  0.39434334576E+03  0.00000000000E+00 0.  1.
         13    1    1    2    0    0 -0.90070835271E+02 -0.35658970690E+02 -0.54172315247E+02  0.11099084854E+03  0.10566000000E+00 0. -1.
<mgrwt>
<rscale>  1 0.56400003E+03</rscale>
<asrwt>0</asrwt>
<pdfrwt beam="1">  1       21 0.52565053E-01 0.10146236E+04</pdfrwt>
<pdfrwt beam="2">  1        4 0.13909892E+00 0.10146236E+04</pdfrwt>
<totfact> 0.49153564E+01</totfact>
</mgrwt>
</event>
<event>
 6    1  0.1412458E-005  0.9533481E+03  0.7818608E-02  0.1010370E+00
         21   -1    0    0  501  502  0.00000000000E+00  0.00000000000E+00  0.59419069575E+03  0.59419069575E+03  0.00000000000E+00 0.  1.
          4   -1    0    0  502    0 -0.00000000000E+00 -0.00000000000E+00 -0.45738349495E+03  0.45738349495E+03  0.00000000000E+00 0.  1.
    9000010    2    1    2  501    0  0.89234953037E+01 -0.79606330630E+02  0.16323583897E+03  0.96722206729E+03  0.94997673218E+03 0.  0.
        -13    1    3    3    0    0  0.46880574137E+03  0.59971698884E+02  0.73112672949E+02  0.47824774115E+03  0.10566000000E+00 0.  1.
          4    1    3    3  501    0 -0.45988224606E+03 -0.13957802951E+03  0.90123166018E+02  0.48897432614E+03  0.00000000000E+00 0.  1.
         13    1    1    2    0    0 -0.89234953037E+01  0.79606330630E+02 -0.26428638166E+02  0.84352123412E+02  0.10566000000E+00 0. -1.
<mgrwt>
<rscale>  1 0.51327901E+03</rscale>
<asrwt>0</asrwt>
<pdfrwt beam="1">  1       21 0.91413953E-01 0.95334809E+03</pdfrwt>
<pdfrwt beam="2">  1        4 0.70366691E-01 0.95334809E+03</pdfrwt>
<totfact> 0.71881323E+01</totfact>
</mgrwt>
</event>
<event>
 6    1  0.1412458E-005  0.9972522E+03  0.7818608E-02  0.9889701E-01
         21   -1    0    0  501  502  0.00000000000E+00  0.00000000000E+00  0.43981858976E+03  0.43981858976E+03  0.00000000000E+00 0.  1.
          4   -1    0    0  502    0 -0.00000000000E+00 -0.00000000000E+00 -0.73888938428E+03  0.73888938428E+03  0.00000000000E+00 0.  1.
    9000010    2    1    2  501    0  0.73179452874E+02 -0.11634865356E+03 -0.22402161314E+03  0.10221045504E+04  0.98773467453E+03 0.  0.
        -13    1    3    3    0    0  0.50258906477E+03  0.80850705402E+02 -0.20624604995E+03  0.54924498074E+03  0.10566000000E+00 0.  1.
          4    1    3    3  501    0 -0.42940961189E+03 -0.19719935897E+03 -0.17775563191E+02  0.47285956965E+03  0.00000000000E+00 0.  1.
         13    1    1    2    0    0 -0.73179452874E+02  0.11634865356E+03 -0.75049181368E+02  0.15660342364E+03  0.10566000000E+00 0. -1.
<mgrwt>
<rscale>  1 0.60763004E+03</rscale>
<asrwt>0</asrwt>
<pdfrwt beam="1">  1       21 0.67664399E-01 0.99725224E+03</pdfrwt>
<pdfrwt beam="2">  1        4 0.11367529E+00 0.99725224E+03</pdfrwt>
<totfact> 0.46903759E+01</totfact>
</mgrwt>
</event>
<event>
 6    1  0.1412458E-005  0.9894441E+03  0.7818608E-02  0.9919839E-01
          4   -1    0    0  502    0 -0.00000000000E+00  0.00000000000E+00  0.37688766085E+03  0.37688766085E+03  0.00000000000E+00 0.  1.
         21   -1    0    0  501  502  0.00000000000E+00 -0.00000000000E+00 -0.84610533467E+03  0.84610533467E+03  0.00000000000E+00 0.  1.
    9000010    2    1    2  501    0  0.63912065182E+02  0.11059886877E+03 -0.35368351239E+03  0.10507576464E+04  0.98116397344E+03 0.  0.
        -13    1    3    3    0    0  0.15330703402E+03 -0.54916094645E+02 -0.66629775939E+03  0.68590927932E+03  0.10566000000E+00 0.  1.
          4    1    3    3  501    0 -0.89394968835E+02  0.16551496342E+03  0.31261424699E+03  0.36484836712E+03  0.00000000000E+00 0.  1.
         13    1    1    2    0    0 -0.63912065182E+02 -0.11059886877E+03 -0.11553416142E+03  0.17223534907E+03  0.10566000000E+00 0. -1.
<mgrwt>
<rscale>  1 0.59309343E+03</rscale>
<asrwt>0</asrwt>
<pdfrwt beam="2">  1       21 0.13017005E+00 0.98944409E+03</pdfrwt>
<pdfrwt beam="1">  1        4 0.57982718E-01 0.98944409E+03</pdfrwt>
<totfact> 0.44837518E+01</totfact>
</mgrwt>
</event>
<event>
 6    1  0.1412458E-005  0.1030914E+04  0.7818608E-02  0.9816368E-01
         21   -1    0    0  501  502  0.00000000000E+00  0.00000000000E+00  0.51795661744E+03  0.51795661744E+03  0.00000000000E+00 0.  1.
          4   -1    0    0  502    0 -0.00000000000E+00 -0.00000000000E+00 -0.95380496362E+03  0.95380496362E+03  0.00000000000E+00 0.  1.
    9000010    2    1    2  501    0 -0.91687541142E+02  0.12853526114E+03 -0.24556517028E+02  0.10312063649E+04  0.10187519944E+04 0.  0.
        -13    1    3    3    0    0 -0.16214402742E+03 -0.28842813689E+03  0.33887193016E+03  0.47361975465E+03  0.10566000000E+00 0.  1.
          4    1    3    3  501    0  0.70456486278E+02  0.41696339803E+03 -0.36342844719E+03  0.55758661030E+03  0.00000000000E+00 0.  1.
         13    1    1    2    0    0  0.91687541142E+02 -0.12853526114E+03 -0.41129182915E+03  0.44055521612E+03  0.10566000000E+00 0. -1.
<mgrwt>
<rscale>  1 0.64491516E+03</rscale>
<asrwt>0</asrwt>
<pdfrwt beam="1">  1       21 0.79685634E-01 0.10309139E+04</pdfrwt>
<pdfrwt beam="2">  1        4 0.14673922E+00 0.10309139E+04</pdfrwt>
<totfact> 0.16624752E+01</totfact>
</mgrwt>
</event>
<event>
 6    1  0.1412458E-005  0.1074605E+04  0.7818608E-02  0.9522441E-01
         21   -1    0    0  501  502  0.00000000000E+00  0.00000000000E+00  0.17077549541E+04  0.17077549541E+04  0.00000000000E+00 0.  1.
          4   -1    0    0  502    0 -0.00000000000E+00 -0.00000000000E+00 -0.32499223717E+03  0.32499223717E+03  0.00000000000E+00 0.  1.
    9000010    2    1    2  501    0 -0.32564912445E+03 -0.18799947386E+03  0.12119359591E+04  0.16197424131E+04  0.10066705327E+04 0.  0.
        -13    1    3    3    0    0 -0.29844279666E+03  0.29087992000E+03  0.13049113180E+03  0.43670032903E+03  0.10566000000E+00 0.  1.
          4    1    3    3  501    0 -0.27206327789E+02 -0.47887939385E+03  0.10814448273E+04  0.11830420841E+04  0.00000000000E+00 0.  1.
         13    1    1    2    0    0  0.32564912445E+03  0.18799947386E+03  0.17082675777E+03  0.41300477813E+03  0.10566000000E+00 0. -1.
<mgrwt>
<rscale>  1 0.82649369E+03</rscale>
<asrwt>0</asrwt>
<pdfrwt beam="1">  1       21 0.26273153E+00 0.10746054E+04</pdfrwt>
<pdfrwt beam="2">  1        4 0.49998807E-01 0.10746054E+04</pdfrwt>
<totfact> 0.68692591E+00</totfact>
</mgrwt>
</event>
<event>
 6    1  0.1412458E-005  0.1006097E+04  0.7818608E-02  0.9923374E-01
         21   -1    0    0  501  502  0.00000000000E+00  0.00000000000E+00  0.10484576375E+04  0.10484576375E+04  0.00000000000E+00 0.  1.
          4   -1    0    0  502    0 -0.00000000000E+00 -0.00000000000E+00 -0.33495371671E+03  0.33495371671E+03  0.00000000000E+00 0.  1.
    9000010    2    1    2  501    0 -0.10349053088E+01 -0.12012698704E+03  0.75330199771E+03  0.12568591432E+04  0.99889911501E+03 0.  0.
        -13    1    3    3    0    0  0.94641484791E+02  0.32055375639E+03  0.73282563337E+03  0.80544716864E+03  0.10566000000E+00 0.  1.
          4    1    3    3  501    0 -0.95676390100E+02 -0.44068074343E+03  0.20476364340E+02  0.45141197453E+03  0.00000000000E+00 0.  1.
         13    1    1    2    0    0  0.10349053088E+01  0.12012698704E+03 -0.39798076880E+02  0.12655221109E+03  0.10566000000E+00 0. -1.
<mgrwt>
<rscale>  1 0.59141738E+03</rscale>
<asrwt>0</asrwt>
<pdfrwt beam="1">  1       21 0.16130117E+00 0.10060969E+04</pdfrwt>
<pdfrwt beam="2">  1        4 0.51531341E-01 0.10060969E+04</pdfrwt>
<totfact> 0.31915167E+01</totfact>
</mgrwt>
</event>
<event>
 6    1  0.1412458E-005  0.9203439E+03  0.7818608E-02  0.9801139E-01
          4   -1    0    0  502    0 -0.00000000000E+00  0.00000000000E+00  0.22725876918E+04  0.22725876918E+04  0.00000000000E+00 0.  1.
         21   -1    0    0  501  502  0.00000000000E+00 -0.00000000000E+00 -0.17152168961E+03  0.17152168961E+03  0.00000000000E+00 0.  1.
    9000010    2    1    2  501    0 -0.17951487340E+02 -0.23256877609E+03  0.11940365615E+04  0.15075663183E+04  0.89029343618E+03 0.  0.
        -13    1    3    3    0    0  0.23577238912E+03 -0.41007784772E+03  0.29687215624E+03  0.55846714226E+03  0.10566000000E+00 0.  1.
          4    1    3    3  501    0 -0.25372387646E+03  0.17750907164E+03  0.89716440524E+03  0.94909917607E+03  0.00000000000E+00 0.  1.
         13    1    1    2    0    0  0.17951487340E+02  0.23256877609E+03  0.90702944067E+03  0.93654306304E+03  0.10566000000E+00 0. -1.
<mgrwt>
<rscale>  1 0.65301468E+03</rscale>
<asrwt>0</asrwt>
<pdfrwt beam="2">  1       21 0.26387954E-01 0.92034390E+03</pdfrwt>
<pdfrwt beam="1">  1        4 0.34962885E+00 0.92034390E+03</pdfrwt>
<totfact> 0.86329624E+00</totfact>
</mgrwt>
</event>
<event>
 6    1  0.1412458E-005  0.1058990E+04  0.7818608E-02  0.9547949E-01
          4   -1    0    0  502    0 -0.00000000000E+00  0.00000000000E+00  0.66698583647E+03  0.66698583647E+03  0.00000000000E+00 0.  1.
         21   -1    0    0  501  502  0.00000000000E+00 -0.00000000000E+00 -0.75626336438E+03  0.75626336438E+03  0.00000000000E+00 0.  1.
    9000010    2    1    2  501    0  0.17590453826E+03  0.31363208599E+03 -0.98300759554E+02  0.10635424845E+04  0.99606831341E+03 0.  0.
        -13    1    3    3    0    0 -0.12484198211E+03 -0.23711200379E+02 -0.46468496653E+03  0.48174668738E+03  0.10566000000E+00 0.  1.
          4    1    3    3  501    0  0.30074652037E+03  0.33734328637E+03  0.36638420698E+03  0.58179579708E+03  0.00000000000E+00 0.  1.
         13    1    1    2    0    0 -0.17590453826E+03 -0.31363208599E+03  0.90232316439E+01  0.35970671639E+03  0.10566000000E+00 0. -1.
<mgrwt>
<rscale>  1 0.80839166E+03</rscale>
<asrwt>0</asrwt>
<pdfrwt beam="2">  1       21 0.11634821E+00 0.10589899E+04</pdfrwt>
<pdfrwt beam="1">  1        4 0.10261321E+00 0.10589899E+04</pdfrwt>
<totfact> 0.16202072E+01</totfact>
</mgrwt>
</event>
<event>
 6    1  0.1412458E-005  0.1774682E+04  0.7818608E-02  0.8765472E-01
         21   -1    0    0  501  502  0.00000000000E+00  0.00000000000E+00  0.13738811157E+04  0.13738811157E+04  0.00000000000E+00 0. -1.
          4   -1    0    0  502    0 -0.00000000000E+00 -0.00000000000E+00 -0.19553746129E+04  0.19553746129E+04  0.00000000000E+00 0.  1.
    9000010    2    1    2  501    0  0.91476956843E+03  0.11496591907E+04 -0.78749219185E+02  0.17764288102E+04  0.99547890998E+03 0.  0.
        -13    1    3    3    0    0  0.82600040638E+02 -0.17253706326E+03 -0.96063261884E+02  0.21405598884E+03  0.10566000000E+00 0.  1.
          4    1    3    3  501    0  0.83216952779E+03  0.13221962539E+04  0.17314042699E+02  0.15623728214E+04  0.00000000000E+00 0.  1.
         13    1    1    2    0    0 -0.91476956843E+03 -0.11496591907E+04 -0.50274427804E+03  0.15528269183E+04  0.10566000000E+00 0. -1.
<mgrwt>
<rscale>  1 0.16928169E+04</rscale>
<asrwt>0</asrwt>
<pdfrwt beam="1">  1       21 0.21136633E+00 0.17746825E+04</pdfrwt>
<pdfrwt beam="2">  1        4 0.30082686E+00 0.17746825E+04</pdfrwt>
<totfact> 0.10109824E-01</totfact>
</mgrwt>
</event>
<event>
 6    1  0.1412458E-005  0.1061671E+04  0.7818608E-02  0.9533144E-01
         21   -1    0    0  501  502  0.00000000000E+00  0.00000000000E+00  0.45290516463E+03  0.45290516463E+03  0.00000000000E+00 0.  1.
          4   -1    0    0  502    0 -0.00000000000E+00 -0.00000000000E+00 -0.12157839440E+04  0.12157839440E+04  0.00000000000E+00 0.  1.
    9000010    2    1    2  501    0  0.33112924500E+03  0.17745752192E+03 -0.36797558725E+03  0.11236328810E+04  0.99297888670E+03 0.  0.
        -13    1    3    3    0    0  0.24513851617E+03 -0.37048669156E+03  0.23306136144E+02  0.44485555845E+03  0.10566000000E+00 0.  1.
          4    1    3    3  501    0  0.85990728834E+02  0.54794421348E+03 -0.39128172339E+03  0.67877732254E+03  0.00000000000E+00 0.  1.
         13    1    1    2    0    0 -0.33112924500E+03 -0.17745752192E+03 -0.39490319211E+03  0.54505622764E+03  0.10566000000E+00 0. -1.
<mgrwt>
<rscale>  1 0.81883764E+03</rscale>
<asrwt>0</asrwt>
<pdfrwt beam="1">  1       21 0.69677717E-01 0.10616708E+04</pdfrwt>
<pdfrwt beam="2">  1        4 0.18704369E+00 0.10616708E+04</pdfrwt>
<totfact> 0.11478177E+01</totfact>
</mgrwt>
</event>
<event>
 6    1  0.1412458E-005  0.1017811E+04  0.7818608E-02  0.9693370E-01
         21   -1    0    0  501  502  0.00000000000E+00  0.00000000000E+00  0.76836802946E+03  0.76836802946E+03  0.00000000000E+00 0.  1.
          4   -1    0    0  502    0 -0.00000000000E+00 -0.00000000000E+00 -0.58708509944E+03  0.58708509944E+03  0.00000000000E+00 0.  1.
    9000010    2    1    2  501    0  0.93759296696E+02  0.22814968499E+03  0.32689353567E+03  0.10690171952E+04  0.98746913647E+03 0.  0.
        -13    1    3    3    0    0 -0.91644408245E+01  0.56080705210E+03 -0.41102389860E+02  0.56238594779E+03  0.10566000000E+00 0.  1.
          4    1    3    3  501    0  0.10292373752E+03 -0.33265736710E+03  0.36799592553E+03  0.50663124740E+03  0.00000000000E+00 0.  1.
         13    1    1    2    0    0 -0.93759296696E+02 -0.22814968499E+03 -0.14561060565E+03  0.28643593371E+03  0.10566000000E+00 0. -1.
<mgrwt>
<rscale>  1 0.71412894E+03</rscale>
<asrwt>0</asrwt>
<pdfrwt beam="1">  1       21 0.11821047E+00 0.10178106E+04</pdfrwt>
<pdfrwt beam="2">  1        4 0.90320784E-01 0.10178106E+04</pdfrwt>
<totfact> 0.21191302E+01</totfact>
</mgrwt>
</event>
<event>
 6    1  0.1412458E-005  0.9713994E+03  0.7818608E-02  0.1015029E+00
          4   -1    0    0  502    0 -0.00000000000E+00  0.00000000000E+00  0.37733551536E+03  0.37733551536E+03  0.00000000000E+00 0.  1.
         21   -1    0    0  501  502  0.00000000000E+00 -0.00000000000E+00 -0.10825862550E+04  0.10825862550E+04  0.00000000000E+00 0.  1.
    9000010    2    1    2  501    0  0.26166521270E+01 -0.65573003135E+02 -0.85648603351E+03  0.12950618574E+04  0.96918018105E+03 0.  0.
        -13    1    3    3    0    0  0.46793689500E+03 -0.15781555728E+03 -0.38435420134E+03  0.62577859588E+03  0.10566000000E+00 0.  1.
          4    1    3    3  501    0 -0.46532024287E+03  0.92242554148E+02 -0.47213183218E+03  0.66928326154E+03  0.00000000000E+00 0.  1.
         13    1    1    2    0    0 -0.26166521270E+01  0.65573003135E+02  0.15123529389E+03  0.16485991293E+03  0.10566000000E+00 0. -1.
<mgrwt>
<rscale>  1 0.49524052E+03</rscale>
<asrwt>0</asrwt>
<pdfrwt beam="2">  1       21 0.16655173E+00 0.97139945E+03</pdfrwt>
<pdfrwt beam="1">  1        4 0.58051618E-01 0.97139945E+03</pdfrwt>
<totfact> 0.22628031E+01</totfact>
</mgrwt>
</event>
<event>
 6    1  0.1412458E-005  0.1104375E+04  0.7818608E-02  0.9440749E-01
         21   -1    0    0  501  502  0.00000000000E+00  0.00000000000E+00  0.45996495541E+03  0.45996495541E+03  0.00000000000E+00 0. -1.
          4   -1    0    0  502    0 -0.00000000000E+00 -0.00000000000E+00 -0.14748264266E+04  0.14748264266E+04  0.00000000000E+00 0.  1.
    9000010    2    1    2  501    0 -0.23460386212E+03  0.39750142239E+03 -0.97206390879E+03  0.14712420368E+04  0.10032938429E+04 0.  0.
        -13    1    3    3    0    0  0.17646464965E+03 -0.66627582430E+02  0.11419740250E+03  0.22049958099E+03  0.10566000000E+00 0.  1.
          4    1    3    3  501    0 -0.41106851177E+03  0.46412900482E+03 -0.10862613113E+04  0.12507424559E+04  0.00000000000E+00 0.  1.
         13    1    1    2    0    0  0.23460386212E+03 -0.39750142239E+03 -0.42797562433E+02  0.46354934520E+03  0.10566000000E+00 0. -1.
<mgrwt>
<rscale>  1 0.88796704E+03</rscale>
<asrwt>0</asrwt>
<pdfrwt beam="1">  1       21 0.70763840E-01 0.11043753E+04</pdfrwt>
<pdfrwt beam="2">  1        4 0.22689637E+00 0.11043753E+04</pdfrwt>
<totfact> 0.60416869E+00</totfact>
</mgrwt>
</event>
<event>
 6    1  0.1412458E-005  0.1137110E+04  0.7818608E-02  0.9554203E-01
          4   -1    0    0  502    0 -0.00000000000E+00  0.00000000000E+00  0.43799226131E+03  0.43799226131E+03  0.00000000000E+00 0.  1.
         21   -1    0    0  501  502  0.00000000000E+00 -0.00000000000E+00 -0.14389827373E+04  0.14389827373E+04  0.00000000000E+00 0.  1.
    9000010    2    1    2  501    0 -0.24453561943E+03  0.14488881266E+03 -0.10939801044E+04  0.15779139357E+04  0.11010129348E+04 0.  0.
        -13    1    3    3    0    0 -0.12957434279E+03  0.17856111324E+03  0.18829876318E+03  0.29005174857E+03  0.10566000000E+00 0.  1.
          4    1    3    3  501    0 -0.11496127665E+03 -0.33672300580E+02 -0.12822788675E+04  0.12878621871E+04  0.00000000000E+00 0.  1.
         13    1    1    2    0    0  0.24453561943E+03 -0.14488881266E+03  0.92989628350E+02  0.29906106291E+03  0.10566000000E+00 0. -1.
<mgrwt>
<rscale>  1 0.80402945E+03</rscale>
<asrwt>0</asrwt>
<pdfrwt beam="2">  1       21 0.22138196E+00 0.11371103E+04</pdfrwt>
<pdfrwt beam="1">  1        4 0.67383424E-01 0.11371103E+04</pdfrwt>
<totfact> 0.65830392E+00</totfact>
</mgrwt>
</event>
<event>
 6    1  0.1412458E-005  0.1049836E+04  0.7818608E-02  0.9635956E-01
          4   -1    0    0  502    0 -0.00000000000E+00  0.00000000000E+00  0.44332619168E+03  0.44332619168E+03  0.00000000000E+00 0.  1.
         21   -1    0    0  501  502  0.00000000000E+00 -0.00000000000E+00 -0.13938894522E+04  0.13938894522E+04  0.00000000000E+00 0.  1.
    9000010    2    1    2  501    0  0.24241523452E+03  0.12531458445E+03 -0.11045544937E+04  0.15238752506E+04  0.10137486172E+04 0.  0.
        -13    1    3    3    0    0 -0.19223801184E+02 -0.42774126563E+03 -0.55904940482E+03  0.70417923360E+03  0.10566000000E+00 0.  1.
          4    1    3    3  501    0  0.26163903571E+03  0.55305585008E+03 -0.54550508886E+03  0.81969601700E+03  0.00000000000E+00 0.  1.
         13    1    1    2    0    0 -0.24241523452E+03 -0.12531458445E+03  0.15399123315E+03  0.31334039327E+03  0.10566000000E+00 0. -1.
<mgrwt>
<rscale>  1 0.74961435E+03</rscale>
<asrwt>0</asrwt>
<pdfrwt beam="2">  1       21 0.21444453E+00 0.10498358E+04</pdfrwt>
<pdfrwt beam="1">  1        4 0.68204030E-01 0.10498358E+04</pdfrwt>
<totfact> 0.72090024E+00</totfact>
</mgrwt>
</event>
<event>
 6    1  0.1412458E-005  0.1024667E+04  0.7818608E-02  0.9693698E-01
         21   -1    0    0  501  502  0.00000000000E+00  0.00000000000E+00  0.45335800043E+03  0.45335800043E+03  0.00000000000E+00 0.  1.
          4   -1    0    0  502    0 -0.00000000000E+00 -0.00000000000E+00 -0.89840046299E+03  0.89840046299E+03  0.00000000000E+00 0.  1.
    9000010    2    1    2  501    0  0.10169284265E+03  0.21902275071E+03 -0.29046468868E+03  0.10650413574E+04  0.99580668703E+03 0.  0.
        -13    1    3    3    0    0  0.46451869024E+03  0.36306971189E+03 -0.19600003572E+02  0.58989948345E+03  0.10566000000E+00 0.  1.
          4    1    3    3  501    0 -0.36282584758E+03 -0.14404696118E+03 -0.27086468511E+03  0.47514187390E+03  0.00000000000E+00 0.  1.
         13    1    1    2    0    0 -0.10169284265E+03 -0.21902275071E+03 -0.15457777388E+03  0.28671710607E+03  0.10566000000E+00 0. -1.
<mgrwt>
<rscale>  1 0.71393278E+03</rscale>
<asrwt>0</asrwt>
<pdfrwt beam="1">  1       21 0.69747384E-01 0.10246674E+04</pdfrwt>
<pdfrwt beam="2">  1        4 0.13821546E+00 0.10246674E+04</pdfrwt>
<totfact> 0.26550487E+01</totfact>
</mgrwt>
</event>
<event>
 6    1  0.1412458E-005  0.1013195E+04  0.7818608E-02  0.9845268E-01
         21   -1    0    0  501  502  0.00000000000E+00  0.00000000000E+00  0.27661895745E+04  0.27661895745E+04  0.00000000000E+00 0.  1.
          4   -1    0    0  502    0 -0.00000000000E+00 -0.00000000000E+00 -0.14171145413E+03  0.14171145413E+03  0.00000000000E+00 0.  1.
    9000010    2    1    2  501    0 -0.11874724211E+03 -0.93834524393E+02  0.25398873365E+04  0.27345186842E+04  0.10018277929E+04 0.  0.
        -13    1    3    3    0    0 -0.62709829784E+02 -0.54383289231E+03  0.11749368142E+04  0.12962111194E+04  0.10566000000E+00 0.  1.
          4    1    3    3  501    0 -0.56037412329E+02  0.44999836791E+03  0.13649505223E+04  0.14383075648E+04  0.00000000000E+00 0.  1.
         13    1    1    2    0    0  0.11874724211E+03  0.93834524393E+02  0.84590783892E+02  0.17338234443E+03  0.10566000000E+00 0. -1.
<mgrwt>
<rscale>  1 0.62988773E+03</rscale>
<asrwt>0</asrwt>
<pdfrwt beam="1">  1       21 0.42556759E+00 0.10131953E+04</pdfrwt>
<pdfrwt beam="2">  1        4 0.21801764E-01 0.10131953E+04</pdfrwt>
<totfact> 0.33181108E+00</totfact>
</mgrwt>
</event>
<event>
 6    1  0.1412458E-005  0.9434257E+03  0.7818608E-02  0.9780253E-01
         21   -1    0    0  501  502  0.00000000000E+00  0.00000000000E+00  0.45229972738E+03  0.45229972738E+03  0.00000000000E+00 0.  1.
          4   -1    0    0  502    0 -0.00000000000E+00 -0.00000000000E+00 -0.12132976672E+04  0.12132976672E+04  0.00000000000E+00 0.  1.
    9000010    2    1    2  501    0  0.21094596274E+03 -0.96478186756E+02 -0.80735378354E+02  0.94687394052E+03  0.91446477143E+03 0.  0.
        -13    1    3    3    0    0  0.31467084705E+03 -0.46264124768E+03 -0.89061607709E+01  0.55958377112E+03  0.10566000000E+00 0.  1.
          4    1    3    3  501    0 -0.10372488431E+03  0.36616306093E+03 -0.71829217583E+02  0.38729016939E+03  0.00000000000E+00 0.  1.
         13    1    1    2    0    0 -0.21094596274E+03  0.96478186756E+02 -0.68026256151E+03  0.71872345410E+03  0.10566000000E+00 0. -1.
<mgrwt>
<rscale>  1 0.66433154E+03</rscale>
<asrwt>0</asrwt>
<pdfrwt beam="1">  1       21 0.69584574E-01 0.94342570E+03</pdfrwt>
<pdfrwt beam="2">  1        4 0.18666118E+00 0.94342570E+03</pdfrwt>
<totfact> 0.11737073E+01</totfact>
</mgrwt>
</event>
<event>
 6    1  0.1412458E-005  0.9927863E+03  0.7818608E-02  0.1008705E+00
          4   -1    0    0  502    0 -0.00000000000E+00  0.00000000000E+00  0.87586754453E+03  0.87586754453E+03  0.00000000000E+00 0.  1.
         21   -1    0    0  501  502  0.00000000000E+00 -0.00000000000E+00 -0.32666875506E+03  0.32666875506E+03  0.00000000000E+00 0.  1.
    9000010    2    1    2  501    0 -0.52079856121E+02  0.53521351369E+02  0.53013367781E+03  0.11254627236E+04  0.98997362563E+03 0.  0.
        -13    1    3    3    0    0  0.33166198334E+03  0.29957169885E+03  0.28777189486E+02  0.44785155102E+03  0.10566000000E+00 0.  1.
          4    1    3    3  501    0 -0.38374183946E+03 -0.24605034749E+03  0.50135648832E+03  0.67761117260E+03  0.00000000000E+00 0.  1.
         13    1    1    2    0    0  0.52079856121E+02 -0.53521351369E+02  0.19065111661E+02  0.77073575969E+02  0.10566000000E+00 0. -1.
<mgrwt>
<rscale>  1 0.51992485E+03</rscale>
<asrwt>0</asrwt>
<pdfrwt beam="2">  1       21 0.50256732E-01 0.99278629E+03</pdfrwt>
<pdfrwt beam="1">  1        4 0.13474885E+00 0.99278629E+03</pdfrwt>
<totfact> 0.58971577E+01</totfact>
</mgrwt>
</event>
<event>
 6    1  0.1412458E-005  0.1001812E+04  0.7818608E-02  0.9812743E-01
         21   -1    0    0  501  502  0.00000000000E+00  0.00000000000E+00  0.17474501390E+04  0.17474501390E+04  0.00000000000E+00 0.  1.
          4   -1    0    0  502    0 -0.00000000000E+00 -0.00000000000E+00 -0.19995720358E+03  0.19995720358E+03  0.00000000000E+00 0.  1.
    9000010    2    1    2  501    0  0.90822112436E+02  0.14853651737E+03  0.12408249775E+04  0.15947644628E+04  0.98656744007E+03 0.  0.
        -13    1    3    3    0    0  0.27775599283E+03  0.27281655297E+03  0.61368111966E+02  0.39413616868E+03  0.10566000000E+00 0.  1.
          4    1    3    3  501    0 -0.18693388040E+03 -0.12428003560E+03  0.11794568656E+04  0.12006282941E+04  0.00000000000E+00 0.  1.
         13    1    1    2    0    0 -0.90822112436E+02 -0.14853651737E+03  0.30666795786E+03  0.35264287975E+03  0.10566000000E+00 0. -1.
<mgrwt>
<rscale>  1 0.64683140E+03</rscale>
<asrwt>0</asrwt>
<pdfrwt beam="1">  1       21 0.26883847E+00 0.10018119E+04</pdfrwt>
<pdfrwt beam="2">  1        4 0.30762648E-01 0.10018119E+04</pdfrwt>
<totfact> 0.17084485E+01</totfact>
</mgrwt>
</event>
<event>
 6    1  0.1412458E-005  0.1239277E+04  0.7818608E-02  0.9217995E-01
         21   -1    0    0  501  502  0.00000000000E+00  0.00000000000E+00  0.56708625834E+03  0.56708625834E+03  0.00000000000E+00 0. -1.
          4   -1    0    0  502    0 -0.00000000000E+00 -0.00000000000E+00 -0.17180256172E+04  0.17180256172E+04  0.00000000000E+00 0.  1.
    9000010    2    1    2  501    0 -0.40176278216E+03 -0.61358495426E+03 -0.76452811039E+03  0.14561284660E+04  0.99895297620E+03 0.  0.
        -13    1    3    3    0    0 -0.69389077935E+03 -0.21744950751E+03 -0.32594890360E+03  0.79687602606E+03  0.10566000000E+00 0.  1.
          4    1    3    3  501    0  0.29212799720E+03 -0.39613544676E+03 -0.43857920679E+03  0.65925243993E+03  0.00000000000E+00 0.  1.
         13    1    1    2    0    0  0.40176278216E+03  0.61358495426E+03 -0.38641124850E+03  0.82898340958E+03  0.10566000000E+00 0. -1.
<mgrwt>
<rscale>  1 0.10869610E+04</rscale>
<asrwt>0</asrwt>
<pdfrwt beam="1">  1       21 0.87244039E-01 0.12392768E+04</pdfrwt>
<pdfrwt beam="2">  1        4 0.26431164E+00 0.12392768E+04</pdfrwt>
<totfact> 0.21207857E+00</totfact>
</mgrwt>
</event>
<event>
 6    1  0.1412458E-005  0.1017830E+04  0.7818608E-02  0.9769284E-01
         21   -1    0    0  501  502  0.00000000000E+00  0.00000000000E+00  0.61176087534E+03  0.61176087534E+03  0.00000000000E+00 0.  1.
          4   -1    0    0  502    0 -0.00000000000E+00 -0.00000000000E+00 -0.62210115626E+03  0.62210115626E+03  0.00000000000E+00 0.  1.
    9000010    2    1    2  501    0  0.15372415914E+03 -0.11425121802E+03  0.82203553152E+02  0.10211443071E+04  0.99964684458E+03 0.  0.
        -13    1    3    3    0    0 -0.19170547395E+03  0.32632118842E+03  0.22902547735E+03  0.44236770586E+03  0.10566000000E+00 0.  1.
          4    1    3    3  501    0  0.34542963309E+03 -0.44057240644E+03 -0.14682192420E+03  0.57877660125E+03  0.00000000000E+00 0.  1.
         13    1    1    2    0    0 -0.15372415914E+03  0.11425121802E+03 -0.92543834075E+02  0.21271772449E+03  0.10566000000E+00 0. -1.
<mgrwt>
<rscale>  1 0.67037340E+03</rscale>
<asrwt>0</asrwt>
<pdfrwt beam="1">  1       21 0.94117058E-01 0.10178302E+04</pdfrwt>
<pdfrwt beam="2">  1        4 0.95707870E-01 0.10178302E+04</pdfrwt>
<totfact> 0.32733218E+01</totfact>
</mgrwt>
</event>
<event>
 6    1  0.1412458E-005  0.1099602E+04  0.7818608E-02  0.9420846E-01
         21   -1    0    0  501  502  0.00000000000E+00  0.00000000000E+00  0.41730136551E+03  0.41730136551E+03  0.00000000000E+00 0. -1.
          4   -1    0    0  502    0 -0.00000000000E+00 -0.00000000000E+00 -0.15562990921E+04  0.15562990921E+04  0.00000000000E+00 0.  1.
    9000010    2    1    2  501    0  0.30335958179E+03  0.39978970933E+03 -0.67588386199E+03  0.12907144420E+04  0.97839967722E+03 0.  0.
        -13    1    3    3    0    0 -0.29183616615E+03  0.23273483401E+03 -0.54214033855E+03  0.65821729595E+03  0.10566000000E+00 0.  1.
          4    1    3    3  501    0  0.59519574793E+03  0.16705487532E+03 -0.13374352344E+03  0.63249714607E+03  0.00000000000E+00 0.  1.
         13    1    1    2    0    0 -0.30335958179E+03 -0.39978970933E+03 -0.46311386464E+03  0.68288601563E+03  0.10566000000E+00 0. -1.
<mgrwt>
<rscale>  1 0.90379789E+03</rscale>
<asrwt>0</asrwt>
<pdfrwt beam="1">  1       21 0.64200210E-01 0.10996021E+04</pdfrwt>
<pdfrwt beam="2">  1        4 0.23943063E+00 0.10996021E+04</pdfrwt>
<totfact> 0.62936545E+00</totfact>
</mgrwt>
</event>
<event>
 6    1  0.1412458E-005  0.9730480E+03  0.7818608E-02  0.9766027E-01
         21   -1    0    0  501  502  0.00000000000E+00  0.00000000000E+00  0.16406565050E+04  0.16406565050E+04  0.00000000000E+00 0.  1.
          4   -1    0    0  502    0 -0.00000000000E+00 -0.00000000000E+00 -0.22946000908E+03  0.22946000908E+03  0.00000000000E+00 0.  1.
    9000010    2    1    2  501    0  0.59375547637E+02 -0.21348193148E+03  0.12952501477E+04  0.16200294141E+04  0.94748211951E+03 0.  0.
        -13    1    3    3    0    0 -0.58131340530E+02  0.37017110152E+03  0.43956095359E+03  0.57759825159E+03  0.10566000000E+00 0.  1.
          4    1    3    3  501    0  0.11750688817E+03 -0.58365303301E+03  0.85568919412E+03  0.10424311625E+04  0.00000000000E+00 0.  1.
         13    1    1    2    0    0 -0.59375547637E+02  0.21348193148E+03  0.11594634819E+03  0.25008709992E+03  0.10566000000E+00 0. -1.
<mgrwt>
<rscale>  1 0.67218045E+03</rscale>
<asrwt>0</asrwt>
<pdfrwt beam="1">  1       21 0.25240869E+00 0.97304797E+03</pdfrwt>
<pdfrwt beam="2">  1        4 0.35301541E-01 0.97304797E+03</pdfrwt>
<totfact> 0.16575583E+01</totfact>
</mgrwt>
</event>
<event>
 6    1  0.1412458E-005  0.1093602E+04  0.7818608E-02  0.9461684E-01
         21   -1    0    0  501  502  0.00000000000E+00  0.00000000000E+00  0.10910803639E+04  0.10910803639E+04  0.00000000000E+00 0.  1.
          4   -1    0    0  502    0 -0.00000000000E+00 -0.00000000000E+00 -0.55841741448E+03  0.55841741448E+03  0.00000000000E+00 0.  1.
    9000010    2    1    2  501    0  0.20826568581E+03  0.38921327840E+03  0.51216255066E+03  0.12075907186E+04  0.10005514947E+04 0.  0.
        -13    1    3    3    0    0  0.25374386788E+03 -0.21405664236E+03 -0.10021710578E+03  0.34677035064E+03  0.10566000000E+00 0.  1.
          4    1    3    3  501    0 -0.45478182077E+02  0.60326992076E+03  0.61237965644E+03  0.86082036800E+03  0.00000000000E+00 0.  1.
         13    1    1    2    0    0 -0.20826568581E+03 -0.38921327840E+03  0.20500398797E+02  0.44190705978E+03  0.10566000000E+00 0. -1.
<mgrwt>
<rscale>  1 0.87168623E+03</rscale>
<asrwt>0</asrwt>
<pdfrwt beam="1">  1       21 0.16785852E+00 0.10936018E+04</pdfrwt>
<pdfrwt beam="2">  1        4 0.85910371E-01 0.10936018E+04</pdfrwt>
<totfact> 0.90432109E+00</totfact>
</mgrwt>
</event>
<event>
 6    1  0.1412458E-005  0.1426595E+04  0.7818608E-02  0.9018518E-01
          4   -1    0    0  502    0 -0.00000000000E+00  0.00000000000E+00  0.85039393304E+03  0.85039393304E+03  0.00000000000E+00 0.  1.
         21   -1    0    0  501  502  0.00000000000E+00 -0.00000000000E+00 -0.21813828251E+04  0.21813828251E+04  0.00000000000E+00 0. -1.
    9000010    2    1    2  501    0 -0.35130526715E+03  0.96489486425E+03 -0.14049438976E+04  0.20022589857E+04  0.99032126136E+03 0.  0.
        -13    1    3    3    0    0  0.30724344553E+03  0.80804397694E+02 -0.39752430986E+03  0.50887471307E+03  0.10566000000E+00 0.  1.
          4    1    3    3  501    0 -0.65854871268E+03  0.88409046655E+03 -0.10074195877E+04  0.14933842726E+04  0.00000000000E+00 0.  1.
         13    1    1    2    0    0  0.35130526715E+03 -0.96489486425E+03  0.73955005507E+02  0.10295177724E+04  0.10566000000E+00 0. -1.
<mgrwt>
<rscale>  1 0.13140236E+04</rscale>
<asrwt>0</asrwt>
<pdfrwt beam="2">  1       21 0.33559736E+00 0.14265951E+04</pdfrwt>
<pdfrwt beam="1">  1        4 0.13082984E+00 0.14265951E+04</pdfrwt>
<totfact> 0.24205234E-01</totfact>
</mgrwt>
</event>
<event>
 6    1  0.1412458E-005  0.1013421E+04  0.7818608E-02  0.9794891E-01
          4   -1    0    0  502    0 -0.00000000000E+00  0.00000000000E+00  0.97142072764E+03  0.97142072764E+03  0.00000000000E+00 0.  1.
         21   -1    0    0  501  502  0.00000000000E+00 -0.00000000000E+00 -0.37645036488E+03  0.37645036488E+03  0.00000000000E+00 0.  1.
    9000010    2    1    2  501    0 -0.16188681042E+03 -0.74806587199E+02  0.41680414462E+03  0.10957866279E+04  0.99760677320E+03 0.  0.
        -13    1    3    3    0    0  0.27931214274E+01  0.39848021591E+03  0.44063852659E+03  0.59410151176E+03  0.10566000000E+00 0.  1.
          4    1    3    3  501    0 -0.16467993184E+03 -0.47328680311E+03 -0.23834381972E+02  0.50168511609E+03  0.00000000000E+00 0.  1.
         13    1    1    2    0    0  0.16188681042E+03  0.74806587199E+02  0.17816621814E+03  0.25208446467E+03  0.10566000000E+00 0. -1.
<mgrwt>
<rscale>  1 0.65637444E+03</rscale>
<asrwt>0</asrwt>
<pdfrwt beam="2">  1       21 0.57915441E-01 0.10134213E+04</pdfrwt>
<pdfrwt beam="1">  1        4 0.14944934E+00 0.10134213E+04</pdfrwt>
<totfact> 0.32836513E+01</totfact>
</mgrwt>
</event>
<event>
 6    1  0.1412458E-005  0.1111110E+04  0.7818608E-02  0.9445871E-01
          4   -1    0    0  502    0 -0.00000000000E+00  0.00000000000E+00  0.59753824172E+03  0.59753824172E+03  0.00000000000E+00 0.  1.
         21   -1    0    0  501  502  0.00000000000E+00 -0.00000000000E+00 -0.10862707859E+04  0.10862707859E+04  0.00000000000E+00 0.  1.
    9000010    2    1    2  501    0 -0.44262015323E+03 -0.46728709709E+02 -0.54073424535E+03  0.12357014954E+04  0.10180709647E+04 0.  0.
        -13    1    3    3    0    0  0.21203802380E+03 -0.31852068671E+03 -0.81863378033E+02  0.39130189780E+03  0.10566000000E+00 0.  1.
          4    1    3    3  501    0 -0.65465817703E+03  0.27179197700E+03 -0.45887086732E+03  0.84439959757E+03  0.00000000000E+00 0.  1.
         13    1    1    2    0    0  0.44262015323E+03  0.46728709709E+02  0.52001701176E+02  0.44810753223E+03  0.10566000000E+00 0. -1.
<mgrwt>
<rscale>  1 0.88394899E+03</rscale>
<asrwt>0</asrwt>
<pdfrwt beam="2">  1       21 0.16711858E+00 0.11111097E+04</pdfrwt>
<pdfrwt beam="1">  1        4 0.91928962E-01 0.11111097E+04</pdfrwt>
<totfact> 0.77970815E+00</totfact>
</mgrwt>
</event>
<event>
 6    1  0.1412458E-005  0.1068960E+04  0.7818608E-02  0.9551575E-01
          4   -1    0    0  502    0 -0.00000000000E+00  0.00000000000E+00  0.10176756354E+04  0.10176756354E+04  0.00000000000E+00 0.  1.
         21   -1    0    0  501  502  0.00000000000E+00 -0.00000000000E+00 -0.10337494588E+04  0.10337494588E+04  0.00000000000E+00 0.  1.
    9000010    2    1    2  501    0 -0.15839909014E+03 -0.30678570937E+03 -0.70521842714E+03  0.12806280785E+04  0.10116657068E+04 0.  0.
        -13    1    3    3    0    0 -0.22168092243E+03  0.28036015145E+03  0.43808471761E+01  0.35744013327E+03  0.10566000000E+00 0.  1.
          4    1    3    3  501    0  0.63281832287E+02 -0.58714586081E+03 -0.70959927431E+03  0.92318794526E+03  0.00000000000E+00 0.  1.
         13    1    1    2    0    0  0.15839909014E+03  0.30678570937E+03  0.68914460382E+03  0.77079701567E+03  0.10566000000E+00 0. -1.
<mgrwt>
<rscale>  1 0.80585911E+03</rscale>
<asrwt>0</asrwt>
<pdfrwt beam="2">  1       21 0.15903838E+00 0.10689599E+04</pdfrwt>
<pdfrwt beam="1">  1        4 0.15656548E+00 0.10689599E+04</pdfrwt>
<totfact> 0.23520280E+00</totfact>
</mgrwt>
</event>
<event>
 6    1  0.1412458E-005  0.9824683E+03  0.7818608E-02  0.1000751E+00
         21   -1    0    0  501  502  0.00000000000E+00  0.00000000000E+00  0.19188628386E+03  0.19188628386E+03  0.00000000000E+00 0.  1.
          4   -1    0    0  502    0 -0.00000000000E+00 -0.00000000000E+00 -0.16429874388E+04  0.16429874388E+04  0.00000000000E+00 0.  1.
    9000010    2    1    2  501    0  0.96154882458E+02 -0.22590358682E+02 -0.14281786796E+04  0.17334758096E+04  0.97749064237E+03 0.  0.
        -13    1    3    3    0    0 -0.23686706601E+03  0.12811194229E+03 -0.13272088470E+04  0.13542533040E+04  0.10566000000E+00 0.  1.
          4    1    3    3  501    0  0.33302194847E+03 -0.15070230098E+03 -0.10096983266E+03  0.37922250565E+03  0.00000000000E+00 0.  1.
         13    1    1    2    0    0 -0.96154882458E+02  0.22590358682E+02 -0.22922475303E+02  0.10139791302E+03  0.10566000000E+00 0. -1.
<mgrwt>
<rscale>  1 0.55322079E+03</rscale>
<asrwt>0</asrwt>
<pdfrwt beam="1">  1       21 0.29520967E-01 0.98246834E+03</pdfrwt>
<pdfrwt beam="2">  1        4 0.25276730E+00 0.98246834E+03</pdfrwt>
<totfact> 0.27467782E+01</totfact>
</mgrwt>
</event>
<event>
 6    1  0.1412458E-005  0.1035636E+04  0.7818608E-02  0.9647144E-01
         21   -1    0    0  501  502  0.00000000000E+00  0.00000000000E+00  0.11074310290E+04  0.11074310290E+04  0.00000000000E+00 0. -1.
          4   -1    0    0  502    0 -0.00000000000E+00 -0.00000000000E+00 -0.40717089991E+03  0.40717089991E+03  0.00000000000E+00 0.  1.
    9000010    2    1    2  501    0 -0.63039322017E+02  0.26631435935E+03  0.40498704826E+03  0.11120059807E+04  0.99882205506E+03 0.  0.
        -13    1    3    3    0    0 -0.13581987901E+03  0.12175074612E+03 -0.32045412282E+03  0.36872908715E+03  0.10566000000E+00 0.  1.
          4    1    3    3  501    0  0.72780556996E+02  0.14456361323E+03  0.72544117108E+03  0.74327689352E+03  0.00000000000E+00 0.  1.
         13    1    1    2    0    0  0.63039322017E+02 -0.26631435935E+03  0.29527308083E+03  0.40259594825E+03  0.10566000000E+00 0. -1.
<mgrwt>
<rscale>  1 0.74252967E+03</rscale>
<asrwt>0</asrwt>
<pdfrwt beam="1">  1       21 0.17037400E+00 0.10356364E+04</pdfrwt>
<pdfrwt beam="2">  1        4 0.62641677E-01 0.10356364E+04</pdfrwt>
<totfact> 0.17810035E+01</totfact>
</mgrwt>
</event>
<event>
 6    1  0.1412458E-005  0.1008550E+04  0.7818608E-02  0.9923970E-01
         21   -1    0    0  501  502  0.00000000000E+00  0.00000000000E+00  0.27803095920E+03  0.27803095920E+03  0.00000000000E+00 0.  1.
          4   -1    0    0  502    0 -0.00000000000E+00 -0.00000000000E+00 -0.12236751680E+04  0.12236751680E+04  0.00000000000E+00 0.  1.
    9000010    2    1    2  501    0 -0.29836315895E+02 -0.11522947005E+03 -0.94584414935E+03  0.13826763509E+04  0.10015012231E+04 0.  0.
        -13    1    3    3    0    0 -0.45489484188E+03 -0.17932130613E+03 -0.21360491315E+03  0.53358459319E+03  0.10566000000E+00 0.  1.
          4    1    3    3  501    0  0.42505852598E+03  0.64091836080E+02 -0.73223923620E+03  0.84909175770E+03  0.00000000000E+00 0.  1.
         13    1    1    2    0    0  0.29836315895E+02  0.11522947005E+03  0.19994051556E+00  0.11902977634E+03  0.10566000000E+00 0. -1.
<mgrwt>
<rscale>  1 0.59113520E+03</rscale>
<asrwt>0</asrwt>
<pdfrwt beam="1">  1       21 0.42773993E-01 0.10085498E+04</pdfrwt>
<pdfrwt beam="2">  1        4 0.18825772E+00 0.10085498E+04</pdfrwt>
<totfact> 0.33077298E+01</totfact>
</mgrwt>
</event>
<event>
 6    1  0.1412458E-005  0.1045249E+04  0.7818608E-02  0.9645528E-01
          4   -1    0    0  502    0 -0.00000000000E+00  0.00000000000E+00  0.26349048987E+03  0.26349048987E+03  0.00000000000E+00 0.  1.
         21   -1    0    0  501  502  0.00000000000E+00 -0.00000000000E+00 -0.25139653495E+04  0.25139653495E+04  0.00000000000E+00 0.  1.
    9000010    2    1    2  501    0  0.20343379992E+03 -0.17393649403E+03 -0.22800013504E+04  0.25081770995E+04  0.10103994208E+04 0.  0.
        -13    1    3    3    0    0  0.18047607889E+03 -0.59590556409E+03 -0.13504372873E+04  0.14870628549E+04  0.10566000000E+00 0.  1.
          4    1    3    3  501    0  0.22957721030E+02  0.42196907006E+03 -0.92956406313E+03  0.10211142446E+04  0.00000000000E+00 0.  1.
         13    1    1    2    0    0 -0.20343379992E+03  0.17393649403E+03  0.29526490827E+02  0.26927873984E+03  0.10566000000E+00 0. -1.
<mgrwt>
<rscale>  1 0.74354762E+03</rscale>
<asrwt>0</asrwt>
<pdfrwt beam="2">  1       21 0.38676389E+00 0.10452494E+04</pdfrwt>
<pdfrwt beam="1">  1        4 0.40536999E-01 0.10452494E+04</pdfrwt>
<totfact> 0.17644968E+00</totfact>
</mgrwt>
</event>
<event>
 6    1  0.1412458E-005  0.1042778E+04  0.7818608E-02  0.9720844E-01
         21   -1    0    0  501  502  0.00000000000E+00  0.00000000000E+00  0.48629022055E+03  0.48629022055E+03  0.00000000000E+00 0.  1.
          4   -1    0    0  502    0 -0.00000000000E+00 -0.00000000000E+00 -0.81194134703E+03  0.81194134703E+03  0.00000000000E+00 0.  1.
    9000010    2    1    2  501    0 -0.20613891045E+03 -0.35699347037E+02 -0.31256680430E+03  0.10886154794E+04  0.10215762140E+04 0.  0.
        -13    1    3    3    0    0  0.12549113882E+03  0.44246701109E+03 -0.11498010411E+03  0.47407332484E+03  0.10566000000E+00 0.  1.
          4    1    3    3  501    0 -0.33163004927E+03 -0.47816635812E+03 -0.19758670018E+03  0.61454215454E+03  0.00000000000E+00 0.  1.
         13    1    1    2    0    0  0.20613891045E+03  0.35699347037E+02 -0.13084322185E+02  0.20961608819E+03  0.10566000000E+00 0. -1.
<mgrwt>
<rscale>  1 0.69789185E+03</rscale>
<asrwt>0</asrwt>
<pdfrwt beam="1">  1       21 0.74813880E-01 0.10427779E+04</pdfrwt>
<pdfrwt beam="2">  1        4 0.12491405E+00 0.10427779E+04</pdfrwt>
<totfact> 0.29268806E+01</totfact>
</mgrwt>
</event>
<event>
 6    1  0.1412458E-005  0.1004321E+04  0.7818608E-02  0.9976619E-01
          4   -1    0    0  502    0 -0.00000000000E+00  0.00000000000E+00  0.10429144621E+04  0.10429144621E+04  0.00000000000E+00 0.  1.
         21   -1    0    0  501  502  0.00000000000E+00 -0.00000000000E+00 -0.29672045082E+03  0.29672045082E+03  0.00000000000E+00 0.  1.
    9000010    2    1    2  501    0 -0.88098709104E+01  0.10155491156E+03  0.63230890300E+03  0.11867923700E+04  0.99913490916E+03 0.  0.
        -13    1    3    3    0    0 -0.27855230798E+03 -0.33310238321E+03  0.94183212660E+02  0.44431866345E+03  0.10566000000E+00 0.  1.
          4    1    3    3  501    0  0.26974243707E+03  0.43465729477E+03  0.53812569034E+03  0.74247370651E+03  0.00000000000E+00 0.  1.
         13    1    1    2    0    0  0.88098709104E+01 -0.10155491156E+03  0.11388510831E+03  0.15284254299E+03  0.10566000000E+00 0. -1.
<mgrwt>
<rscale>  1 0.56687441E+03</rscale>
<asrwt>0</asrwt>
<pdfrwt beam="2">  1       21 0.45649301E-01 0.10043215E+04</pdfrwt>
<pdfrwt beam="1">  1        4 0.16044838E+00 0.10043215E+04</pdfrwt>
<totfact> 0.45439038E+01</totfact>
</mgrwt>
</event>
<event>
 6    1  0.1412458E-005  0.1127683E+04  0.7818608E-02  0.9388112E-01
          4   -1    0    0  502    0 -0.00000000000E+00  0.00000000000E+00  0.11189829598E+04  0.11189829598E+04  0.00000000000E+00 0.  1.
         21   -1    0    0  501  502  0.00000000000E+00 -0.00000000000E+00 -0.65114094863E+03  0.65114094863E+03  0.00000000000E+00 0. -1.
    9000010    2    1    2  501    0 -0.96695488258E+02  0.51398281036E+03  0.52520324339E+03  0.12439883091E+04  0.99906962693E+03 0.  0.
        -13    1    3    3    0    0  0.20022051617E+03  0.54162720345E+03  0.69281595188E+03  0.90191032645E+03  0.10566000000E+00 0.  1.
          4    1    3    3  501    0 -0.29691600443E+03 -0.27644393084E+02 -0.16761270849E+03  0.34207798263E+03  0.00000000000E+00 0.  1.
         13    1    1    2    0    0  0.96695488258E+02 -0.51398281036E+03 -0.57361232206E+02  0.52613559937E+03  0.10566000000E+00 0. -1.
<mgrwt>
<rscale>  1 0.93060539E+03</rscale>
<asrwt>0</asrwt>
<pdfrwt beam="2">  1       21 0.10017553E+00 0.11276828E+04</pdfrwt>
<pdfrwt beam="1">  1        4 0.17215122E+00 0.11276828E+04</pdfrwt>
<totfact> 0.61028743E+00</totfact>
</mgrwt>
</event>
<event>
 6    1  0.1412458E-005  0.1076398E+04  0.7818608E-02  0.9520836E-01
         21   -1    0    0  501  502  0.00000000000E+00  0.00000000000E+00  0.13318752913E+04  0.13318752913E+04  0.00000000000E+00 0.  1.
          4   -1    0    0  502    0 -0.00000000000E+00 -0.00000000000E+00 -0.43713702012E+03  0.43713702012E+03  0.00000000000E+00 0.  1.
    9000010    2    1    2  501    0  0.22547492572E+03 -0.30119608868E+03  0.88358114856E+03  0.13926049277E+04  0.10085012706E+04 0.  0.
        -13    1    3    3    0    0  0.43649672776E+03  0.15043610276E+03  0.11380352487E+03  0.47551200594E+03  0.10566000000E+00 0.  1.
          4    1    3    3  501    0 -0.21102180204E+03 -0.45163219144E+03  0.76977762369E+03  0.91709292180E+03  0.00000000000E+00 0.  1.
         13    1    1    2    0    0 -0.22547492572E+03  0.30119608868E+03  0.11157122644E+02  0.37640738371E+03  0.10566000000E+00 0. -1.
<mgrwt>
<rscale>  1 0.82764959E+03</rscale>
<asrwt>0</asrwt>
<pdfrwt beam="1">  1       21 0.20490389E+00 0.10763981E+04</pdfrwt>
<pdfrwt beam="2">  1        4 0.67251850E-01 0.10763981E+04</pdfrwt>
<totfact> 0.85975397E+00</totfact>
</mgrwt>
</event>
<event>
 6    1  0.1412458E-005  0.1238211E+04  0.7818608E-02  0.9221911E-01
         21   -1    0    0  501  502  0.00000000000E+00  0.00000000000E+00  0.13389346365E+04  0.13389346365E+04  0.00000000000E+00 0. -1.
          4   -1    0    0  502    0 -0.00000000000E+00 -0.00000000000E+00 -0.87055072313E+03  0.87055072313E+03  0.00000000000E+00 0.  1.
    9000010    2    1    2  501    0  0.47186731264E+03 -0.55000198336E+03  0.73193892290E+03  0.14383678610E+04  0.10039953060E+04 0.  0.
        -13    1    3    3    0    0  0.18667650842E+03  0.29095191237E+03  0.26149801822E+03  0.43345398695E+03  0.10566000000E+00 0.  1.
          4    1    3    3  501    0  0.28519080421E+03 -0.84095389573E+03  0.47044090468E+03  0.10049138741E+04  0.00000000000E+00 0.  1.
         13    1    1    2    0    0 -0.47186731264E+03  0.55000198336E+03 -0.26355500952E+03  0.77111749860E+03  0.10566000000E+00 0. -1.
<mgrwt>
<rscale>  1 0.10830105E+04</rscale>
<asrwt>0</asrwt>
<pdfrwt beam="1">  1       21 0.20598994E+00 0.12382114E+04</pdfrwt>
<pdfrwt beam="2">  1        4 0.13393088E+00 0.12382114E+04</pdfrwt>
<totfact> 0.15887383E+00</totfact>
</mgrwt>
</event>
<event>
 6    1  0.1412458E-005  0.1047363E+04  0.7818608E-02  0.9602572E-01
         21   -1    0    0  501  502  0.00000000000E+00  0.00000000000E+00  0.23145455635E+03  0.23145455635E+03  0.00000000000E+00 0.  1.
          4   -1    0    0  502    0 -0.00000000000E+00 -0.00000000000E+00 -0.28226063869E+04  0.28226063869E+04  0.00000000000E+00 0.  1.
    9000010    2    1    2  501    0 -0.78566181187E+02  0.29778571373E+03 -0.10522863783E+04  0.14846802159E+04  0.10010593116E+04 0.  0.
        -13    1    3    3    0    0  0.41385504999E+03 -0.82226296888E+02 -0.48476777146E+03  0.64267952333E+03  0.10566000000E+00 0.  1.
          4    1    3    3  501    0 -0.49242123117E+03  0.38001201062E+03 -0.56751860683E+03  0.84200069253E+03  0.00000000000E+00 0.  1.
         13    1    1    2    0    0  0.78566181187E+02 -0.29778571373E+03 -0.15388654522E+04  0.15693807274E+04  0.10566000000E+00 0. -1.
<mgrwt>
<rscale>  1 0.77126199E+03</rscale>
<asrwt>0</asrwt>
<pdfrwt beam="1">  1       21 0.35608394E-01 0.10473627E+04</pdfrwt>
<pdfrwt beam="2">  1        4 0.43424713E+00 0.10473627E+04</pdfrwt>
<totfact> 0.12145794E+00</totfact>
</mgrwt>
</event>
<event>
 6    1  0.1412458E-005  0.1065137E+04  0.7818608E-02  0.9564098E-01
         21   -1    0    0  501  502  0.00000000000E+00  0.00000000000E+00  0.26159980307E+04  0.26159980307E+04  0.00000000000E+00 0.  1.
          4   -1    0    0  502    0 -0.00000000000E+00 -0.00000000000E+00 -0.23973744416E+03  0.23973744416E+03  0.00000000000E+00 0.  1.
    9000010    2    1    2  501    0  0.33812976613E+02  0.33249863317E+03  0.22659186501E+04  0.25037780733E+04  0.10113449723E+04 0.  0.
        -13    1    3    3    0    0  0.63583382175E+01 -0.52080171385E+02 -0.96640895411E+02  0.10996475138E+03  0.10566000000E+00 0.  1.
          4    1    3    3  501    0  0.27454638396E+02  0.38457880455E+03  0.23625595455E+04  0.23938133219E+04  0.00000000000E+00 0.  1.
         13    1    1    2    0    0 -0.33812976613E+02 -0.33249863317E+03  0.11034193649E+03  0.35195740163E+03  0.10566000000E+00 0. -1.
<mgrwt>
<rscale>  1 0.79718694E+03</rscale>
<asrwt>0</asrwt>
<pdfrwt beam="1">  1       21 0.40246122E+00 0.10651372E+04</pdfrwt>
<pdfrwt beam="2">  1        4 0.36882685E-01 0.10651372E+04</pdfrwt>
<totfact> 0.16808316E+00</totfact>
</mgrwt>
</event>
<event>
 6    1  0.1412458E-005  0.1040897E+04  0.7818608E-02  0.9532328E-01
          4   -1    0    0  502    0 -0.00000000000E+00  0.00000000000E+00  0.15309122119E+04  0.15309122119E+04  0.00000000000E+00 0.  1.
         21   -1    0    0  501  502  0.00000000000E+00 -0.00000000000E+00 -0.33982888468E+03  0.33982888468E+03  0.00000000000E+00 0. -1.
    9000010    2    1    2  501    0 -0.39784603850E+01 -0.39974025535E+03  0.81679621682E+03  0.13231107906E+04  0.96107127957E+03 0.  0.
        -13    1    3    3    0    0  0.30064409700E+03  0.20480803970E+03  0.27442911740E+03  0.45568032416E+03  0.10566000000E+00 0.  1.
          4    1    3    3  501    0 -0.30462255739E+03 -0.60454829505E+03  0.54236709942E+03  0.86743046641E+03  0.00000000000E+00 0.  1.
         13    1    1    2    0    0  0.39784603850E+01  0.39974025535E+03  0.37428711042E+03  0.54763030603E+03  0.10566000000E+00 0. -1.
<mgrwt>
<rscale>  1 0.81941819E+03</rscale>
<asrwt>0</asrwt>
<pdfrwt beam="2">  1       21 0.52281368E-01 0.10408968E+04</pdfrwt>
<pdfrwt beam="1">  1        4 0.23552495E+00 0.10408968E+04</pdfrwt>
<totfact> 0.10572159E+01</totfact>
</mgrwt>
</event>
<event>
 6    1  0.1412458E-005  0.1062039E+04  0.7818608E-02  0.9510245E-01
         21   -1    0    0  501  502  0.00000000000E+00  0.00000000000E+00  0.32965896697E+03  0.32965896697E+03  0.00000000000E+00 0.  1.
          4   -1    0    0  502    0 -0.00000000000E+00 -0.00000000000E+00 -0.21824174041E+04  0.21824174041E+04  0.00000000000E+00 0.  1.
    9000010    2    1    2  501    0 -0.39385601095E+03 -0.10038315656E+03 -0.65629086105E+03  0.12484569635E+04  0.98118691383E+03 0.  0.
        -13    1    3    3    0    0 -0.60718995167E+03 -0.10637540390E+03 -0.78586105924E+03  0.99878575258E+03  0.10566000000E+00 0.  1.
          4    1    3    3  501    0  0.21333394072E+03  0.59922473402E+01  0.12957019819E+03  0.24967121090E+03  0.00000000000E+00 0.  1.
         13    1    1    2    0    0  0.39385601095E+03  0.10038315656E+03 -0.11964675761E+04  0.12636194076E+04  0.10566000000E+00 0. -1.
<mgrwt>
<rscale>  1 0.83532682E+03</rscale>
<asrwt>0</asrwt>
<pdfrwt beam="1">  1       21 0.50716763E-01 0.10620391E+04</pdfrwt>
<pdfrwt beam="2">  1        4 0.33575653E+00 0.10620391E+04</pdfrwt>
<totfact> 0.26807950E+00</totfact>
</mgrwt>
</event>
<event>
 6    1  0.1412458E-005  0.1046714E+04  0.7818608E-02  0.9652506E-01
          4   -1    0    0  502    0 -0.00000000000E+00  0.00000000000E+00  0.11543602615E+04  0.11543602615E+04  0.00000000000E+00 0.  1.
         21   -1    0    0  501  502  0.00000000000E+00 -0.00000000000E+00 -0.37733665303E+03  0.37733665303E+03  0.00000000000E+00 0.  1.
    9000010    2    1    2  501    0  0.13230500855E+03  0.22417140681E+03  0.53173625771E+03  0.11740332030E+04  0.10138308928E+04 0.  0.
        -13    1    3    3    0    0 -0.19745008531E+03  0.39662683329E+03  0.64726927424E+03  0.78438313700E+03  0.10566000000E+00 0.  1.
          4    1    3    3  501    0  0.32975509387E+03 -0.17245542648E+03 -0.11553301653E+03  0.38965006603E+03  0.00000000000E+00 0.  1.
         13    1    1    2    0    0 -0.13230500855E+03 -0.22417140681E+03  0.24528735075E+03  0.35766371150E+03  0.10566000000E+00 0. -1.
<mgrwt>
<rscale>  1 0.73916382E+03</rscale>
<asrwt>0</asrwt>
<pdfrwt beam="2">  1       21 0.58051793E-01 0.10467142E+04</pdfrwt>
<pdfrwt beam="1">  1        4 0.17759388E+00 0.10467142E+04</pdfrwt>
<totfact> 0.20176377E+01</totfact>
</mgrwt>
</event>
<event>
 6    1  0.1412458E-005  0.1045102E+04  0.7818608E-02  0.9537012E-01
         21   -1    0    0  501  502  0.00000000000E+00  0.00000000000E+00  0.56332208109E+03  0.56332208109E+03  0.00000000000E+00 0.  1.
          4   -1    0    0  502    0 -0.00000000000E+00 -0.00000000000E+00 -0.94633373972E+03  0.94633373972E+03  0.00000000000E+00 0.  1.
    9000010    2    1    2  501    0 -0.38779539512E+03 -0.24686344816E+02 -0.40409228041E+03  0.11205040665E+04  0.97017735898E+03 0.  0.
        -13    1    3    3    0    0 -0.82720729365E+02  0.41509521519E+03 -0.40421659282E+03  0.58526730800E+03  0.10566000000E+00 0.  1.
          4    1    3    3  501    0 -0.30507466575E+03 -0.43978156001E+03  0.12431240596E+00  0.53523675851E+03  0.00000000000E+00 0.  1.
         13    1    1    2    0    0  0.38779539512E+03  0.24686344816E+02  0.21080621784E+02  0.38915175430E+03  0.10566000000E+00 0. -1.
<mgrwt>
<rscale>  1 0.81609246E+03</rscale>
<asrwt>0</asrwt>
<pdfrwt beam="1">  1       21 0.86664936E-01 0.10451023E+04</pdfrwt>
<pdfrwt beam="2">  1        4 0.14558981E+00 0.10451023E+04</pdfrwt>
<totfact> 0.13889101E+01</totfact>
</mgrwt>
</event>
<event>
 6    1  0.1412458E-005  0.1021118E+04  0.7818608E-02  0.9666537E-01
         21   -1    0    0  501  502  0.00000000000E+00  0.00000000000E+00  0.20702685234E+04  0.20702685234E+04  0.00000000000E+00 0.  1.
          4   -1    0    0  502    0 -0.00000000000E+00 -0.00000000000E+00 -0.22048511015E+03  0.22048511015E+03  0.00000000000E+00 0.  1.
    9000010    2    1    2  501    0  0.20737927989E+03 -0.16877412192E+03  0.17031697885E+04  0.19858168596E+04  0.98548992975E+03 0.  0.
        -13    1    3    3    0    0  0.27032910299E+03 -0.44442769442E+03  0.41068008331E+03  0.66276084788E+03  0.10566000000E+00 0.  1.
          4    1    3    3  501    0 -0.62949823094E+02  0.27565357251E+03  0.12924897052E+04  0.13230560117E+04  0.00000000000E+00 0.  1.
         13    1    1    2    0    0 -0.20737927989E+03  0.16877412192E+03  0.14661362478E+03  0.30493677393E+03  0.10566000000E+00 0. -1.
<mgrwt>
<rscale>  1 0.73044609E+03</rscale>
<asrwt>0</asrwt>
<pdfrwt beam="1">  1       21 0.31850284E+00 0.10211177E+04</pdfrwt>
<pdfrwt beam="2">  1        4 0.33920788E-01 0.10211177E+04</pdfrwt>
<totfact> 0.68839741E+00</totfact>
</mgrwt>
</event>
<event>
 6    1  0.1412458E-005  0.1357409E+04  0.7818608E-02  0.9090286E-01
         21   -1    0    0  501  502  0.00000000000E+00  0.00000000000E+00  0.10096077546E+04  0.10096077546E+04  0.00000000000E+00 0. -1.
          4   -1    0    0  502    0 -0.00000000000E+00 -0.00000000000E+00 -0.12676854375E+04  0.12676854375E+04  0.00000000000E+00 0.  1.
    9000010    2    1    2  501    0 -0.34522951547E+03 -0.83514158633E+03 -0.19591000240E+03  0.13714732766E+04  0.10128737986E+04 0.  0.
        -13    1    3    3    0    0 -0.48310186626E+03 -0.95978843790E+03  0.34961270935E+02  0.10750830481E+04  0.10566000000E+00 0.  1.
          4    1    3    3  501    0  0.13787235079E+03  0.12464685157E+03 -0.23087127333E+03  0.29639022853E+03  0.00000000000E+00 0.  1.
         13    1    1    2    0    0  0.34522951547E+03  0.83514158633E+03 -0.62167680474E+02  0.90581991545E+03  0.10566000000E+00 0. -1.
<mgrwt>
<rscale>  1 0.12261318E+04</rscale>
<asrwt>0</asrwt>
<pdfrwt beam="1">  1       21 0.15532427E+00 0.13574086E+04</pdfrwt>
<pdfrwt beam="2">  1        4 0.19502853E+00 0.13574086E+04</pdfrwt>
<totfact> 0.12901124E+00</totfact>
</mgrwt>
</event>
<event>
 6    1  0.1412458E-005  0.1003621E+04  0.7818608E-02  0.1018032E+00
         21   -1    0    0  501  502  0.00000000000E+00  0.00000000000E+00  0.49808870081E+03  0.49808870081E+03  0.00000000000E+00 0.  1.
          4   -1    0    0  502    0 -0.00000000000E+00 -0.00000000000E+00 -0.60252811902E+03  0.60252811902E+03  0.00000000000E+00 0.  1.
    9000010    2    1    2  501    0 -0.10854670516E+02 -0.53203641786E+02 -0.24426142241E+02  0.10039183872E+04  0.10021512064E+04 0.  0.
        -13    1    3    3    0    0 -0.21122599040E+03 -0.40387518524E+03  0.24593901443E+03  0.51789728157E+03  0.10566000000E+00 0.  1.
          4    1    3    3  501    0  0.20037131989E+03  0.35067154345E+03 -0.27036515667E+03  0.48602110567E+03  0.00000000000E+00 0.  1.
         13    1    1    2    0    0  0.10854670516E+02  0.53203641786E+02 -0.80013275964E+02  0.96698432593E+02  0.10566000000E+00 0. -1.
<mgrwt>
<rscale>  1 0.48403506E+03</rscale>
<asrwt>0</asrwt>
<pdfrwt beam="1">  1       21 0.76629031E-01 0.10036212E+04</pdfrwt>
<pdfrwt beam="2">  1        4 0.92696634E-01 0.10036212E+04</pdfrwt>
<totfact> 0.57725240E+01</totfact>
</mgrwt>
</event>
<event>
 6    1  0.1412458E-005  0.1056809E+04  0.7818608E-02  0.9663879E-01
          4   -1    0    0  502    0 -0.00000000000E+00  0.00000000000E+00  0.14255756909E+04  0.14255756909E+04  0.00000000000E+00 0.  1.
         21   -1    0    0  501  502  0.00000000000E+00 -0.00000000000E+00 -0.51748631870E+03  0.51748631870E+03  0.00000000000E+00 0.  1.
    9000010    2    1    2  501    0 -0.18489213778E+03 -0.15824808119E+03  0.57533763820E+02  0.10583742613E+04  0.10284057493E+04 0.  0.
        -13    1    3    3    0    0 -0.16590933901E+03  0.43376427402E+03  0.18744542171E+02  0.46478890177E+03  0.10566000000E+00 0.  1.
          4    1    3    3  501    0 -0.18982798777E+02 -0.59201235521E+03  0.38789221649E+02  0.59358535957E+03  0.00000000000E+00 0.  1.
         13    1    1    2    0    0  0.18489213778E+03  0.15824808119E+03  0.85055560834E+03  0.88468774822E+03  0.10566000000E+00 0. -1.
<mgrwt>
<rscale>  1 0.73208746E+03</rscale>
<asrwt>0</asrwt>
<pdfrwt beam="2">  1       21 0.79613280E-01 0.10568093E+04</pdfrwt>
<pdfrwt beam="1">  1        4 0.21931934E+00 0.10568093E+04</pdfrwt>
<totfact> 0.51616668E+00</totfact>
</mgrwt>
</event>
<event>
 6    1  0.1412458E-005  0.1022279E+04  0.7818608E-02  0.9798937E-01
          4   -1    0    0  502    0 -0.00000000000E+00  0.00000000000E+00  0.11939325723E+04  0.11939325723E+04  0.00000000000E+00 0.  1.
         21   -1    0    0  501  502  0.00000000000E+00 -0.00000000000E+00 -0.79488770963E+03  0.79488770963E+03  0.00000000000E+00 0.  1.
    9000010    2    1    2  501    0  0.63823404500E+02  0.15912210710E+03 -0.45411558520E+03  0.11186041979E+04  0.10078001364E+04 0.  0.
        -13    1    3    3    0    0 -0.22105043880E+03 -0.15215076419E+03  0.20382561647E+03  0.33698374535E+03  0.10566000000E+00 0.  1.
          4    1    3    3  501    0  0.28487384330E+03  0.31127287128E+03 -0.65794120167E+03  0.78162045255E+03  0.00000000000E+00 0.  1.
         13    1    1    2    0    0 -0.63823404500E+02 -0.15912210710E+03  0.85316044790E+03  0.87021608406E+03  0.10566000000E+00 0. -1.
<mgrwt>
<rscale>  1 0.65419632E+03</rscale>
<asrwt>0</asrwt>
<pdfrwt beam="2">  1       21 0.12229042E+00 0.10222790E+04</pdfrwt>
<pdfrwt beam="1">  1        4 0.18368193E+00 0.10222790E+04</pdfrwt>
<totfact> 0.30869070E+00</totfact>
</mgrwt>
</event>
<event>
 6    1  0.1412458E-005  0.1084107E+04  0.7818608E-02  0.9460641E-01
          4   -1    0    0  502    0 -0.00000000000E+00  0.00000000000E+00  0.18342729658E+04  0.18342729658E+04  0.00000000000E+00 0.  1.
         21   -1    0    0  501  502  0.00000000000E+00 -0.00000000000E+00 -0.39141395545E+03  0.39141395545E+03  0.00000000000E+00 0.  1.
    9000010    2    1    2  501    0 -0.32122087735E+03 -0.32196576137E+03  0.53202116081E+03  0.12076150167E+04  0.98409486811E+03 0.  0.
        -13    1    3    3    0    0 -0.59575925535E+03 -0.38821517553E+03  0.14044795282E+03  0.72482118586E+03  0.10566000000E+00 0.  1.
          4    1    3    3  501    0  0.27453837800E+03  0.66249414161E+02  0.39157320800E+03  0.48279383084E+03  0.00000000000E+00 0.  1.
         13    1    1    2    0    0  0.32122087735E+03  0.32196576137E+03  0.91083784950E+03  0.10180719045E+04  0.10566000000E+00 0. -1.
<mgrwt>
<rscale>  1 0.87248833E+03</rscale>
<asrwt>0</asrwt>
<pdfrwt beam="2">  1       21 0.60217532E-01 0.10841068E+04</pdfrwt>
<pdfrwt beam="1">  1        4 0.28219584E+00 0.10841068E+04</pdfrwt>
<totfact> 0.39590655E+00</totfact>
</mgrwt>
</event>
<event>
 6    1  0.1412458E-005  0.1041820E+04  0.7818608E-02  0.9628178E-01
         21   -1    0    0  501  502  0.00000000000E+00  0.00000000000E+00  0.45953678880E+03  0.45953678880E+03  0.00000000000E+00 0.  1.
          4   -1    0    0  502    0 -0.00000000000E+00 -0.00000000000E+00 -0.10081956079E+04  0.10081956079E+04  0.00000000000E+00 0.  1.
    9000010    2    1    2  501    0  0.17407219373E+03  0.22783660793E+03 -0.28962984214E+03  0.10813301832E+04  0.10015881744E+04 0.  0.
        -13    1    3    3    0    0 -0.20778268877E+03 -0.19013050290E+02 -0.52815032750E+03  0.56787139515E+03  0.10566000000E+00 0.  1.
          4    1    3    3  501    0  0.38185488250E+03  0.24684965822E+03  0.23852048536E+03  0.51345878801E+03  0.00000000000E+00 0.  1.
         13    1    1    2    0    0 -0.17407219373E+03 -0.22783660793E+03 -0.25902897691E+03  0.38640221349E+03  0.10566000000E+00 0. -1.
<mgrwt>
<rscale>  1 0.75458927E+03</rscale>
<asrwt>0</asrwt>
<pdfrwt beam="1">  1       21 0.70697969E-01 0.10418203E+04</pdfrwt>
<pdfrwt beam="2">  1        4 0.15510701E+00 0.10418203E+04</pdfrwt>
<totfact> 0.18892253E+01</totfact>
</mgrwt>
</event>
<event>
 6    1  0.1412458E-005  0.9957764E+03  0.7818608E-02  0.9557608E-01
         21   -1    0    0  501  502  0.00000000000E+00  0.00000000000E+00  0.11633889116E+04  0.11633889116E+04  0.00000000000E+00 0.  1.
          4   -1    0    0  502    0 -0.00000000000E+00 -0.00000000000E+00 -0.43230979385E+03  0.43230979385E+03  0.00000000000E+00 0.  1.
    9000010    2    1    2  501    0 -0.13219307076E+03 -0.39686489635E+03  0.57056830602E+03  0.11476579866E+04  0.90365585730E+03 0.  0.
        -13    1    3    3    0    0 -0.22504273076E+03 -0.12291865001E+03  0.75986762558E+03  0.80196760830E+03  0.10566000000E+00 0.  1.
          4    1    3    3  501    0  0.92849660006E+02 -0.27394624635E+03 -0.18929931957E+03  0.34569037828E+03  0.00000000000E+00 0.  1.
         13    1    1    2    0    0  0.13219307076E+03  0.39686489635E+03  0.16051081174E+03  0.44804071887E+03  0.10566000000E+00 0. -1.
<mgrwt>
<rscale>  1 0.80166685E+03</rscale>
<asrwt>0</asrwt>
<pdfrwt beam="1">  1       21 0.17898291E+00 0.99577641E+03</pdfrwt>
<pdfrwt beam="2">  1        4 0.66509200E-01 0.99577641E+03</pdfrwt>
<totfact> 0.13545319E+01</totfact>
</mgrwt>
</event>
<event>
 6    1  0.1412458E-005  0.9832175E+03  0.7818608E-02  0.9697164E-01
          4   -1    0    0  502    0 -0.00000000000E+00  0.00000000000E+00  0.38647622688E+03  0.38647622688E+03  0.00000000000E+00 0.  1.
         21   -1    0    0  501  502  0.00000000000E+00 -0.00000000000E+00 -0.10363488691E+04  0.10363488691E+04  0.00000000000E+00 0.  1.
    9000010    2    1    2  501    0  0.58982040942E+02  0.26364660058E+03 -0.42426502655E+03  0.10708489340E+04  0.94537199855E+03 0.  0.
        -13    1    3    3    0    0 -0.41912273998E+03  0.22325478755E+03 -0.33915274301E+03  0.58355048247E+03  0.10566000000E+00 0.  1.
          4    1    3    3  501    0  0.47810478092E+03  0.40391813034E+02 -0.85112283541E+02  0.48729845158E+03  0.00000000000E+00 0.  1.
         13    1    1    2    0    0 -0.58982040942E+02 -0.26364660058E+03 -0.22560761565E+03  0.35197616191E+03  0.10566000000E+00 0. -1.
<mgrwt>
<rscale>  1 0.71185903E+03</rscale>
<asrwt>0</asrwt>
<pdfrwt beam="2">  1       21 0.15943829E+00 0.98321749E+03</pdfrwt>
<pdfrwt beam="1">  1        4 0.59457880E-01 0.98321749E+03</pdfrwt>
<totfact> 0.24327128E+01</totfact>
</mgrwt>
</event>
<event>
 6    1  0.1412458E-005  0.1049115E+04  0.7818608E-02  0.9584340E-01
         21   -1    0    0  501  502  0.00000000000E+00  0.00000000000E+00  0.29750406713E+03  0.29750406713E+03  0.00000000000E+00 0.  1.
          4   -1    0    0  502    0 -0.00000000000E+00 -0.00000000000E+00 -0.17822357407E+04  0.17822357407E+04  0.00000000000E+00 0.  1.
    9000010    2    1    2  501    0  0.14616498115E+03  0.29162933962E+03 -0.79350501313E+03  0.13154059929E+04  0.99711125094E+03 0.  0.
        -13    1    3    3    0    0  0.11434547820E+03  0.41133000653E+03  0.78981428457E+02  0.43417201645E+03  0.10566000000E+00 0.  1.
          4    1    3    3  501    0  0.31819502952E+02 -0.11970066691E+03 -0.87248644159E+03  0.88123397641E+03  0.00000000000E+00 0.  1.
         13    1    1    2    0    0 -0.14616498115E+03 -0.29162933962E+03 -0.69122666049E+03  0.76433381501E+03  0.10566000000E+00 0. -1.
<mgrwt>
<rscale>  1 0.78341369E+03</rscale>
<asrwt>0</asrwt>
<pdfrwt beam="1">  1       21 0.45769857E-01 0.10491152E+04</pdfrwt>
<pdfrwt beam="2">  1        4 0.27419011E+00 0.10491152E+04</pdfrwt>
<totfact> 0.81078119E+00</totfact>
</mgrwt>
</event>
<event>
 6    1  0.1412458E-005  0.9189378E+03  0.7818608E-02  0.9630241E-01
          4   -1    0    0  502    0 -0.00000000000E+00  0.00000000000E+00  0.53302095289E+03  0.53302095289E+03  0.00000000000E+00 0.  1.
         21   -1    0    0  501  502  0.00000000000E+00 -0.00000000000E+00 -0.84004930099E+03  0.84004930099E+03  0.00000000000E+00 0.  1.
    9000010    2    1    2  501    0  0.33948221753E+03  0.23850959508E+03 -0.26309803316E+03  0.95585941187E+03  0.81994611850E+03 0.  0.
        -13    1    3    3    0    0  0.24855349472E+03  0.38079625294E+03 -0.49294256292E+03  0.67065416385E+03  0.10566000000E+00 0.  1.
          4    1    3    3  501    0  0.90928722807E+02 -0.14228665786E+03  0.22984452976E+03  0.28520524802E+03  0.00000000000E+00 0.  1.
         13    1    1    2    0    0 -0.33948221753E+03 -0.23850959508E+03 -0.43930314939E+02  0.41721084202E+03  0.10566000000E+00 0. -1.
<mgrwt>
<rscale>  1 0.75326577E+03</rscale>
<asrwt>0</asrwt>
<pdfrwt beam="2">  1       21 0.12923835E+00 0.91893778E+03</pdfrwt>
<pdfrwt beam="1">  1        4 0.82003223E-01 0.91893778E+03</pdfrwt>
<totfact> 0.21229676E+01</totfact>
</mgrwt>
</event>
<event>
 6    1  0.1412458E-005  0.9252634E+03  0.7818608E-02  0.1032234E+00
         21   -1    0    0  501  502  0.00000000000E+00  0.00000000000E+00  0.13493492810E+04  0.13493492810E+04  0.00000000000E+00 0.  1.
          4   -1    0    0  502    0 -0.00000000000E+00 -0.00000000000E+00 -0.18865954908E+03  0.18865954908E+03  0.00000000000E+00 0.  1.
    9000010    2    1    2  501    0  0.28491757734E+02 -0.35191218081E+02  0.11701364615E+04  0.14917545984E+04  0.92415487940E+03 0.  0.
        -13    1    3    3    0    0  0.15791325995E+03  0.15201683445E+03 -0.70626971627E+02  0.23029089411E+03  0.10566000000E+00 0.  1.
          4    1    3    3  501    0 -0.12942150221E+03 -0.18720805253E+03  0.12407634331E+04  0.12614637043E+04  0.00000000000E+00 0.  1.
         13    1    1    2    0    0 -0.28491757734E+02  0.35191218081E+02 -0.94467295742E+01  0.46254231725E+02  0.10566000000E+00 0. -1.
<mgrwt>
<rscale>  1 0.43518502E+03</rscale>
<asrwt>0</asrwt>
<pdfrwt beam="1">  1       21 0.20759219E+00 0.92526345E+03</pdfrwt>
<pdfrwt beam="2">  1        4 0.29024547E-01 0.92526345E+03</pdfrwt>
<totfact> 0.48053259E+01</totfact>
</mgrwt>
</event>
<event>
 6    1  0.1412458E-005  0.1027191E+04  0.7818608E-02  0.9986269E-01
         21   -1    0    0  501  502  0.00000000000E+00  0.00000000000E+00  0.34302245515E+03  0.34302245515E+03  0.00000000000E+00 0.  1.
          4   -1    0    0  502    0 -0.00000000000E+00 -0.00000000000E+00 -0.99912497157E+03  0.99912497157E+03  0.00000000000E+00 0.  1.
    9000010    2    1    2  501    0 -0.80403767522E+02  0.45557594599E+02 -0.46025499443E+03  0.11255913756E+04  0.10230254271E+04 0.  0.
        -13    1    3    3    0    0 -0.22420270740E+03  0.33042056881E+03 -0.64372009548E+03  0.75750919386E+03  0.10566000000E+00 0.  1.
          4    1    3    3  501    0  0.14379893988E+03 -0.28486297421E+03  0.18346510104E+03  0.36808218170E+03  0.00000000000E+00 0.  1.
         13    1    1    2    0    0  0.80403767522E+02 -0.45557594599E+02 -0.19584752199E+03  0.21655605115E+03  0.10566000000E+00 0. -1.
<mgrwt>
<rscale>  1 0.56256454E+03</rscale>
<asrwt>0</asrwt>
<pdfrwt beam="1">  1       21 0.52772686E-01 0.10271910E+04</pdfrwt>
<pdfrwt beam="2">  1        4 0.15371153E+00 0.10271910E+04</pdfrwt>
<totfact> 0.37300071E+01</totfact>
</mgrwt>
</event>
<event>
 6    1  0.1412458E-005  0.1029473E+04  0.7818608E-02  0.9660368E-01
         21   -1    0    0  501  502  0.00000000000E+00  0.00000000000E+00  0.10770797645E+04  0.10770797645E+04  0.00000000000E+00 0.  1.
          4   -1    0    0  502    0 -0.00000000000E+00 -0.00000000000E+00 -0.41346375815E+03  0.41346375815E+03  0.00000000000E+00 0.  1.
    9000010    2    1    2  501    0 -0.17508701605E+03 -0.20080430168E+03  0.66231756318E+03  0.12241236888E+04  0.99440254439E+03 0.  0.
        -13    1    3    3    0    0 -0.43748401910E+03  0.15983793293E+03  0.52647541008E+02  0.46873468670E+03  0.10566000000E+00 0.  1.
          4    1    3    3  501    0  0.26239700306E+03 -0.36064223461E+03  0.60967002217E+03  0.75538900213E+03  0.00000000000E+00 0.  1.
         13    1    1    2    0    0  0.17508701605E+03  0.20080430168E+03  0.12984432168E+01  0.26641983387E+03  0.10566000000E+00 0. -1.
<mgrwt>
<rscale>  1 0.73426277E+03</rscale>
<asrwt>0</asrwt>
<pdfrwt beam="1">  1       21 0.16570458E+00 0.10294728E+04</pdfrwt>
<pdfrwt beam="2">  1        4 0.63609809E-01 0.10294728E+04</pdfrwt>
<totfact> 0.18686195E+01</totfact>
</mgrwt>
</event>
<event>
 6    1  0.1412458E-005  0.1124344E+04  0.7818608E-02  0.9399900E-01
          4   -1    0    0  502    0 -0.00000000000E+00  0.00000000000E+00  0.76167718319E+03  0.76167718319E+03  0.00000000000E+00 0.  1.
         21   -1    0    0  501  502  0.00000000000E+00 -0.00000000000E+00 -0.97246518991E+03  0.97246518991E+03  0.00000000000E+00 0.  1.
    9000010    2    1    2  501    0 -0.24932236940E+03  0.44016130805E+03 -0.40097338107E+03  0.11937035618E+04  0.10041139976E+04 0.  0.
        -13    1    3    3    0    0  0.39130756813E+02  0.68527418536E+03 -0.43662990600E+03  0.81349714888E+03  0.10566000000E+00 0.  1.
          4    1    3    3  501    0 -0.28845312622E+03 -0.24511287731E+03  0.35656524932E+02  0.38020641291E+03  0.00000000000E+00 0.  1.
         13    1    1    2    0    0  0.24932236940E+03 -0.44016130805E+03  0.19018537435E+03  0.54043881131E+03  0.10566000000E+00 0. -1.
<mgrwt>
<rscale>  1 0.92083930E+03</rscale>
<asrwt>0</asrwt>
<pdfrwt beam="2">  1       21 0.14961003E+00 0.11243436E+04</pdfrwt>
<pdfrwt beam="1">  1        4 0.11718110E+00 0.11243436E+04</pdfrwt>
<totfact> 0.59135785E+00</totfact>
</mgrwt>
</event>
<event>
 6    1  0.1412458E-005  0.1027565E+04  0.7818608E-02  0.9673479E-01
          4   -1    0    0  502    0 -0.00000000000E+00  0.00000000000E+00  0.11971125928E+04  0.11971125928E+04  0.00000000000E+00 0.  1.
         21   -1    0    0  501  502  0.00000000000E+00 -0.00000000000E+00 -0.36847907060E+03  0.36847907060E+03  0.00000000000E+00 0.  1.
    9000010    2    1    2  501    0 -0.13317364760E+03  0.21898633630E+03  0.48332278401E+03  0.11355570683E+04  0.99508728559E+03 0.  0.
        -13    1    3    3    0    0 -0.19698288164E+03  0.54323296967E+03  0.55076798496E+03  0.79827921144E+03  0.10566000000E+00 0.  1.
          4    1    3    3  501    0  0.63809234041E+02 -0.32424663337E+03 -0.67445200950E+02  0.33727785686E+03  0.00000000000E+00 0.  1.
         13    1    1    2    0    0  0.13317364760E+03 -0.21898633630E+03  0.34531073817E+03  0.43003459508E+03  0.10566000000E+00 0. -1.
<mgrwt>
<rscale>  1 0.72618028E+03</rscale>
<asrwt>0</asrwt>
<pdfrwt beam="2">  1       21 0.56689088E-01 0.10275646E+04</pdfrwt>
<pdfrwt beam="1">  1        4 0.18417117E+00 0.10275646E+04</pdfrwt>
<totfact> 0.19171868E+01</totfact>
</mgrwt>
</event>
<event>
 6    1  0.1412458E-005  0.1083929E+04  0.7818608E-02  0.9485334E-01
          4   -1    0    0  502    0 -0.00000000000E+00  0.00000000000E+00  0.95278522876E+03  0.95278522876E+03  0.00000000000E+00 0.  1.
         21   -1    0    0  501  502  0.00000000000E+00 -0.00000000000E+00 -0.72949047681E+03  0.72949047681E+03  0.00000000000E+00 0. -1.
    9000010    2    1    2  501    0  0.41673293539E+03  0.18707093441E+02  0.48748169646E+03  0.11885034427E+04  0.10004427690E+04 0.  0.
        -13    1    3    3    0    0 -0.13313593326E+03 -0.38130154162E+03  0.18864769493E+03  0.44576227558E+03  0.10566000000E+00 0.  1.
          4    1    3    3  501    0  0.54986886865E+03  0.40000863506E+03  0.29883400153E+03  0.74274116710E+03  0.00000000000E+00 0.  1.
         13    1    1    2    0    0 -0.41673293539E+03 -0.18707093441E+02 -0.26418694451E+03  0.49377226289E+03  0.10566000000E+00 0. -1.
<mgrwt>
<rscale>  1 0.85373762E+03</rscale>
<asrwt>0</asrwt>
<pdfrwt beam="2">  1       21 0.11222930E+00 0.10839290E+04</pdfrwt>
<pdfrwt beam="1">  1        4 0.14658234E+00 0.10839290E+04</pdfrwt>
<totfact> 0.71665170E+00</totfact>
</mgrwt>
</event>
<event>
 6    1  0.1412458E-005  0.1057057E+04  0.7818608E-02  0.9540647E-01
         21   -1    0    0  501  502  0.00000000000E+00  0.00000000000E+00  0.25005350907E+04  0.25005350907E+04  0.00000000000E+00 0. -1.
          4   -1    0    0  502    0 -0.00000000000E+00 -0.00000000000E+00 -0.30628023848E+03  0.30628023848E+03  0.00000000000E+00 0.  1.
    9000010    2    1    2  501    0 -0.34850074422E+03 -0.12675798977E+03  0.21946795562E+04  0.24359776986E+04  0.98987304099E+03 0.  0.
        -13    1    3    3    0    0  0.36363198142E+01 -0.52166073620E+03  0.95709169410E+03  0.10900310402E+04  0.10566000000E+00 0.  1.
          4    1    3    3  501    0 -0.35213706403E+03  0.39490274643E+03  0.12375878621E+04  0.13459466584E+04  0.00000000000E+00 0.  1.
         13    1    1    2    0    0  0.34850074422E+03  0.12675798977E+03 -0.42470395376E+00  0.37083763055E+03  0.10566000000E+00 0. -1.
<mgrwt>
<rscale>  1 0.81352258E+03</rscale>
<asrwt>0</asrwt>
<pdfrwt beam="1">  1       21 0.38469769E+00 0.10570568E+04</pdfrwt>
<pdfrwt beam="2">  1        4 0.47120038E-01 0.10570568E+04</pdfrwt>
<totfact> 0.13298997E+00</totfact>
</mgrwt>
</event>
<event>
 6    1  0.1412458E-005  0.1011660E+04  0.7818608E-02  0.9882575E-01
         21   -1    0    0  501  502  0.00000000000E+00  0.00000000000E+00  0.16104539556E+04  0.16104539556E+04  0.00000000000E+00 0.  1.
          4   -1    0    0  502    0 -0.00000000000E+00 -0.00000000000E+00 -0.49383645544E+03  0.49383645544E+03  0.00000000000E+00 0.  1.
    9000010    2    1    2  501    0 -0.30288391055E+02  0.13127281822E+03  0.14366224092E+04  0.17570828471E+04  0.10026496124E+04 0.  0.
        -13    1    3    3    0    0 -0.37603020661E+03  0.29700630474E+03  0.12332522398E+04  0.13230731497E+04  0.10566000000E+00 0.  1.
          4    1    3    3  501    0  0.34574181556E+03 -0.16573348652E+03  0.20337016943E+03  0.43400969735E+03  0.00000000000E+00 0.  1.
         13    1    1    2    0    0  0.30288391055E+02 -0.13127281822E+03 -0.32000490911E+03  0.34720756394E+03  0.10566000000E+00 0. -1.
<mgrwt>
<rscale>  1 0.61113253E+03</rscale>
<asrwt>0</asrwt>
<pdfrwt beam="1">  1       21 0.24776214E+00 0.10116601E+04</pdfrwt>
<pdfrwt beam="2">  1        4 0.75974840E-01 0.10116601E+04</pdfrwt>
<totfact> 0.34510596E+00</totfact>
</mgrwt>
</event>
<event>
 6    1  0.1412458E-005  0.1032749E+04  0.7818608E-02  0.1009554E+00
         21   -1    0    0  501  502  0.00000000000E+00  0.00000000000E+00  0.20877749950E+04  0.20877749950E+04  0.00000000000E+00 0.  1.
          4   -1    0    0  502    0 -0.00000000000E+00 -0.00000000000E+00 -0.16419166986E+03  0.16419166986E+03  0.00000000000E+00 0.  1.
    9000010    2    1    2  501    0 -0.64527590391E+02  0.34879433916E+01  0.19280151137E+04  0.21871930006E+04  0.10307254570E+04 0.  0.
        -13    1    3    3    0    0 -0.28586737813E+03 -0.40771741412E+03  0.60144948545E+03  0.78082977810E+03  0.10566000000E+00 0.  1.
          4    1    3    3  501    0  0.22133978774E+03  0.41120535751E+03  0.13265656282E+04  0.14063632225E+04  0.00000000000E+00 0.  1.
         13    1    1    2    0    0  0.64527590391E+02 -0.34879433916E+01 -0.44317884896E+01  0.64773664278E+02  0.10566000000E+00 0. -1.
<mgrwt>
<rscale>  1 0.51652464E+03</rscale>
<asrwt>0</asrwt>
<pdfrwt beam="1">  1       21 0.32119613E+00 0.10327492E+04</pdfrwt>
<pdfrwt beam="2">  1        4 0.25260258E-01 0.10327492E+04</pdfrwt>
<totfact> 0.11751856E+01</totfact>
</mgrwt>
</event>
<event>
 6    1  0.1412458E-005  0.1012002E+04  0.7818608E-02  0.9807920E-01
         21   -1    0    0  501  502  0.00000000000E+00  0.00000000000E+00  0.56311240684E+03  0.56311240684E+03  0.00000000000E+00 0.  1.
          4   -1    0    0  502    0 -0.00000000000E+00 -0.00000000000E+00 -0.65335589070E+03  0.65335589070E+03  0.00000000000E+00 0.  1.
    9000010    2    1    2  501    0 -0.17031853542E+03 -0.20825908495E+02  0.20567177109E+02  0.10122107745E+04  0.99734924739E+03 0.  0.
        -13    1    3    3    0    0 -0.56038906118E+03  0.10252091999E+03  0.13881118478E+03  0.58635739537E+03  0.10566000000E+00 0.  1.
          4    1    3    3  501    0  0.39007052576E+03 -0.12334682849E+03 -0.11824400767E+03  0.42585337913E+03  0.00000000000E+00 0.  1.
         13    1    1    2    0    0  0.17031853542E+03  0.20825908495E+02 -0.11081066097E+03  0.20425752304E+03  0.10566000000E+00 0. -1.
<mgrwt>
<rscale>  1 0.64939228E+03</rscale>
<asrwt>0</asrwt>
<pdfrwt beam="1">  1       21 0.86632678E-01 0.10120018E+04</pdfrwt>
<pdfrwt beam="2">  1        4 0.10051629E+00 0.10120018E+04</pdfrwt>
<totfact> 0.35573352E+01</totfact>
</mgrwt>
</event>
<event>
 6    1  0.1412458E-005  0.1204578E+04  0.7818608E-02  0.9245757E-01
          4   -1    0    0  502    0 -0.00000000000E+00  0.00000000000E+00  0.11889416618E+04  0.11889416618E+04  0.00000000000E+00 0.  1.
         21   -1    0    0  501  502  0.00000000000E+00 -0.00000000000E+00 -0.86096838482E+03  0.86096838482E+03  0.00000000000E+00 0. -1.
    9000010    2    1    2  501    0  0.15519789209E+03 -0.70358347207E+03 -0.10529953536E+03  0.12091714256E+04  0.96534525242E+03 0.  0.
        -13    1    3    3    0    0  0.43619138179E+03 -0.11953439665E+02 -0.14970224913E+03  0.46132047519E+03  0.10566000000E+00 0.  1.
          4    1    3    3  501    0 -0.28099348970E+03 -0.69163003241E+03  0.44402713773E+02  0.74785095037E+03  0.00000000000E+00 0.  1.
         13    1    1    2    0    0 -0.15519789209E+03  0.70358347207E+03  0.43327281235E+03  0.84073862108E+03  0.10566000000E+00 0. -1.
<mgrwt>
<rscale>  1 0.10593371E+04</rscale>
<asrwt>0</asrwt>
<pdfrwt beam="2">  1       21 0.13245667E+00 0.12045777E+04</pdfrwt>
<pdfrwt beam="1">  1        4 0.18291410E+00 0.12045777E+04</pdfrwt>
<totfact> 0.24700159E+00</totfact>
</mgrwt>
</event>
<event>
 6    1  0.1412458E-005  0.1357817E+04  0.7818608E-02  0.9079337E-01
          4   -1    0    0  502    0 -0.00000000000E+00  0.00000000000E+00  0.14847708277E+04  0.14847708277E+04  0.00000000000E+00 0.  1.
         21   -1    0    0  501  502  0.00000000000E+00 -0.00000000000E+00 -0.10055968616E+04  0.10055968616E+04  0.00000000000E+00 0. -1.
    9000010    2    1    2  501    0  0.93557446686E+02 -0.93690000814E+03 -0.13761568998E+03  0.13647726857E+04  0.97833112203E+03 0.  0.
        -13    1    3    3    0    0 -0.10596431451E+03 -0.75329850459E+03  0.32605162631E+03  0.82764530274E+03  0.10566000000E+00 0.  1.
          4    1    3    3  501    0  0.19952176119E+03 -0.18360150356E+03 -0.46366731629E+03  0.53712738293E+03  0.00000000000E+00 0.  1.
         13    1    1    2    0    0 -0.93557446686E+02  0.93690000814E+03  0.61678965608E+03  0.11255950036E+04  0.10566000000E+00 0. -1.
<mgrwt>
<rscale>  1 0.12390614E+04</rscale>
<asrwt>0</asrwt>
<pdfrwt beam="2">  1       21 0.15470721E+00 0.13578168E+04</pdfrwt>
<pdfrwt beam="1">  1        4 0.22842628E+00 0.13578168E+04</pdfrwt>
<totfact> 0.78961380E-01</totfact>
</mgrwt>
</event>
<event>
 6    1  0.1412458E-005  0.9966932E+03  0.7818608E-02  0.9680506E-01
         21   -1    0    0  501  502  0.00000000000E+00  0.00000000000E+00  0.46624469400E+03  0.46624469400E+03  0.00000000000E+00 0.  1.
          4   -1    0    0  502    0 -0.00000000000E+00 -0.00000000000E+00 -0.14662071945E+04  0.14662071945E+04  0.00000000000E+00 0.  1.
    9000010    2    1    2  501    0  0.17430210727E+03  0.21178631671E+03 -0.11185242901E+03  0.10029497751E+04  0.95820802386E+03 0.  0.
        -13    1    3    3    0    0  0.67362982239E+02  0.18929550484E+03  0.41702299674E+03  0.46290252808E+03  0.10566000000E+00 0.  1.
          4    1    3    3  501    0  0.10693912503E+03  0.22490811871E+02 -0.52887542574E+03  0.54004724704E+03  0.00000000000E+00 0.  1.
         13    1    1    2    0    0 -0.17430210727E+03 -0.21178631671E+03 -0.88811007149E+03  0.92950211339E+03  0.10566000000E+00 0. -1.
<mgrwt>
<rscale>  1 0.72189390E+03</rscale>
<asrwt>0</asrwt>
<pdfrwt beam="1">  1       21 0.71729954E-01 0.99669318E+03</pdfrwt>
<pdfrwt beam="2">  1        4 0.22557033E+00 0.99669318E+03</pdfrwt>
<totfact> 0.60497757E+00</totfact>
</mgrwt>
</event>
<event>
 6    1  0.1412458E-005  0.1102810E+04  0.7818608E-02  0.9429578E-01
          4   -1    0    0  502    0 -0.00000000000E+00  0.00000000000E+00  0.55322364607E+03  0.55322364607E+03  0.00000000000E+00 0.  1.
         21   -1    0    0  501  502  0.00000000000E+00 -0.00000000000E+00 -0.15617109757E+04  0.15617109757E+04  0.00000000000E+00 0. -1.
    9000010    2    1    2  501    0  0.45572047717E+03  0.15783770258E+03 -0.11685692642E+04  0.16067809732E+04  0.99176462775E+03 0.  0.
        -13    1    3    3    0    0  0.20354936600E+03 -0.41376718117E+03 -0.36024747831E+03  0.58516141484E+03  0.10566000000E+00 0.  1.
          4    1    3    3  501    0  0.25217111117E+03  0.57160488375E+03 -0.80832178591E+03  0.10216195584E+04  0.00000000000E+00 0.  1.
         13    1    1    2    0    0 -0.45572047717E+03 -0.15783770258E+03  0.16008193455E+03  0.50815364862E+03  0.10566000000E+00 0. -1.
<mgrwt>
<rscale>  1 0.89681003E+03</rscale>
<asrwt>0</asrwt>
<pdfrwt beam="2">  1       21 0.24026322E+00 0.11028105E+04</pdfrwt>
<pdfrwt beam="1">  1        4 0.85111332E-01 0.11028105E+04</pdfrwt>
<totfact> 0.29255226E+00</totfact>
</mgrwt>
</event>
<event>
 6    1  0.1412458E-005  0.1173864E+04  0.7818608E-02  0.9523529E-01
         21   -1    0    0  501  502  0.00000000000E+00  0.00000000000E+00  0.51937652629E+03  0.51937652629E+03  0.00000000000E+00 0.  1.
          4   -1    0    0  502    0 -0.00000000000E+00 -0.00000000000E+00 -0.10329946528E+04  0.10329946528E+04  0.00000000000E+00 0.  1.
    9000010    2    1    2  501    0 -0.27630135950E+03  0.79030662384E+02 -0.36795693602E+03  0.12301826001E+04  0.11381426255E+04 0.  0.
        -13    1    3    3    0    0 -0.23782868833E+03  0.56125436267E+03 -0.42496737202E+03  0.74307888077E+03  0.10566000000E+00 0.  1.
          4    1    3    3  501    0 -0.38472671170E+02 -0.48222370028E+03  0.57010436008E+02  0.48710371930E+03  0.00000000000E+00 0.  1.
         13    1    1    2    0    0  0.27630135950E+03 -0.79030662384E+02 -0.14566119048E+03  0.32218857900E+03  0.10566000000E+00 0. -1.
<mgrwt>
<rscale>  1 0.82571121E+03</rscale>
<asrwt>0</asrwt>
<pdfrwt beam="1">  1       21 0.79904081E-01 0.11738641E+04</pdfrwt>
<pdfrwt beam="2">  1        4 0.15892225E+00 0.11738641E+04</pdfrwt>
<totfact> 0.13128338E+01</totfact>
</mgrwt>
</event>
<event>
 6    1  0.1412458E-005  0.1004247E+04  0.7818608E-02  0.1001875E+00
          4   -1    0    0  502    0 -0.00000000000E+00  0.00000000000E+00  0.67481290646E+03  0.67481290646E+03  0.00000000000E+00 0.  1.
         21   -1    0    0  501  502  0.00000000000E+00 -0.00000000000E+00 -0.60858552648E+03  0.60858552648E+03  0.00000000000E+00 0.  1.
    9000010    2    1    2  501    0  0.47910614002E+02  0.75328624609E+02 -0.18110602966E+03  0.10204466212E+04  0.10002710053E+04 0.  0.
        -13    1    3    3    0    0  0.90560938833E+02  0.29145395972E+03  0.33867929914E+03  0.45590610120E+03  0.10566000000E+00 0.  1.
          4    1    3    3  501    0 -0.42650324831E+02 -0.21612533511E+03 -0.51978532880E+03  0.56454051999E+03  0.00000000000E+00 0.  1.
         13    1    1    2    0    0 -0.47910614002E+02 -0.75328624609E+02  0.24733340963E+03  0.26295181175E+03  0.10566000000E+00 0. -1.
<mgrwt>
<rscale>  1 0.54835472E+03</rscale>
<asrwt>0</asrwt>
<pdfrwt beam="2">  1       21 0.93628542E-01 0.10042469E+04</pdfrwt>
<pdfrwt beam="1">  1        4 0.10381737E+00 0.10042469E+04</pdfrwt>
<totfact> 0.27282064E+01</totfact>
</mgrwt>
</event>
<event>
 6    1  0.1412458E-005  0.9262364E+03  0.7818608E-02  0.1010103E+00
         21   -1    0    0  501  502  0.00000000000E+00  0.00000000000E+00  0.10425096280E+04  0.10425096280E+04  0.00000000000E+00 0.  1.
          4   -1    0    0  502    0 -0.00000000000E+00 -0.00000000000E+00 -0.69150267937E+03  0.69150267937E+03  0.00000000000E+00 0.  1.
    9000010    2    1    2  501    0  0.62940746058E+02 -0.61601328851E+02  0.83198646751E+03  0.12450362650E+04  0.92203988946E+03 0.  0.
        -13    1    3    3    0    0  0.25156305365E+03 -0.33692498215E+03  0.80748005502E+03  0.91039906853E+03  0.10566000000E+00 0.  1.
          4    1    3    3  501    0 -0.18862230759E+03  0.27532365330E+03  0.24506412487E+02  0.33463719644E+03  0.00000000000E+00 0.  1.
         13    1    1    2    0    0 -0.62940746058E+02  0.61601328851E+02 -0.48097951891E+03  0.48897604236E+03  0.10566000000E+00 0. -1.
<mgrwt>
<rscale>  1 0.51433728E+03</rscale>
<asrwt>0</asrwt>
<pdfrwt beam="1">  1       21 0.16038610E+00 0.92623637E+03</pdfrwt>
<pdfrwt beam="2">  1        4 0.10638503E+00 0.92623637E+03</pdfrwt>
<totfact> 0.63266511E+00</totfact>
</mgrwt>
</event>
<event>
 6    1  0.1412458E-005  0.1043481E+04  0.7818608E-02  0.9604118E-01
         21   -1    0    0  501  502  0.00000000000E+00  0.00000000000E+00  0.11782720306E+04  0.11782720306E+04  0.00000000000E+00 0.  1.
          4   -1    0    0  502    0 -0.00000000000E+00 -0.00000000000E+00 -0.64280916019E+03  0.64280916019E+03  0.00000000000E+00 0.  1.
    9000010    2    1    2  501    0 -0.30922105286E+03 -0.18632867552E+02  0.87476053331E+03  0.13616383123E+04  0.99643768478E+03 0.  0.
        -13    1    3    3    0    0 -0.35789197151E+03 -0.44211850204E+03  0.29136086556E+03  0.63909826964E+03  0.10566000000E+00 0.  1.
          4    1    3    3  501    0  0.48670918655E+02  0.42348563449E+03  0.58339966776E+03  0.72254004268E+03  0.00000000000E+00 0.  1.
         13    1    1    2    0    0  0.30922105286E+03  0.18632867552E+02 -0.33929766295E+03  0.45944287842E+03  0.10566000000E+00 0. -1.
<mgrwt>
<rscale>  1 0.77024251E+03</rscale>
<asrwt>0</asrwt>
<pdfrwt beam="1">  1       21 0.18127262E+00 0.10434811E+04</pdfrwt>
<pdfrwt beam="2">  1        4 0.98893717E-01 0.10434811E+04</pdfrwt>
<totfact> 0.51894052E+00</totfact>
</mgrwt>
</event>
<event>
 6    1  0.1412458E-005  0.1013539E+04  0.7818608E-02  0.9889488E-01
         21   -1    0    0  501  502  0.00000000000E+00  0.00000000000E+00  0.12440571155E+04  0.12440571155E+04  0.00000000000E+00 0.  1.
          4   -1    0    0  502    0 -0.00000000000E+00 -0.00000000000E+00 -0.38203201658E+03  0.38203201658E+03  0.00000000000E+00 0.  1.
    9000010    2    1    2  501    0 -0.54575101746E+00  0.13101773810E+03  0.10083379850E+04  0.14296879678E+04  0.10050354460E+04 0.  0.
        -13    1    3    3    0    0  0.12465417025E+02  0.49601719925E+03  0.93305558097E+03  0.10567786792E+04  0.10566000000E+00 0.  1.
          4    1    3    3  501    0 -0.13011168042E+02 -0.36499946115E+03  0.75282404021E+02  0.37290928856E+03  0.00000000000E+00 0.  1.
         13    1    1    2    0    0  0.54575101746E+00 -0.13101773810E+03 -0.14631288606E+03  0.19640116428E+03  0.10566000000E+00 0. -1.
<mgrwt>
<rscale>  1 0.60773464E+03</rscale>
<asrwt>0</asrwt>
<pdfrwt beam="1">  1       21 0.19139340E+00 0.10135394E+04</pdfrwt>
<pdfrwt beam="2">  1        4 0.58774157E-01 0.10135394E+04</pdfrwt>
<totfact> 0.14453430E+01</totfact>
</mgrwt>
</event>
<event>
 6    1  0.1412458E-005  0.1170991E+04  0.7818608E-02  0.9369074E-01
         21   -1    0    0  501  502  0.00000000000E+00  0.00000000000E+00  0.12242817697E+04  0.12242817697E+04  0.00000000000E+00 0. -1.
          4   -1    0    0  502    0 -0.00000000000E+00 -0.00000000000E+00 -0.80195431737E+03  0.80195431737E+03  0.00000000000E+00 0.  1.
    9000010    2    1    2  501    0 -0.45407884696E+03  0.20966876839E+03 -0.24094885102E+03  0.11955231057E+04  0.10588061937E+04 0.  0.
        -13    1    3    3    0    0 -0.37970431620E+02  0.59847108983E+03 -0.90171754977E+02  0.60641599220E+03  0.10566000000E+00 0.  1.
          4    1    3    3  501    0 -0.41610841534E+03 -0.38880232144E+03 -0.15077709604E+03  0.58910711349E+03  0.00000000000E+00 0.  1.
         13    1    1    2    0    0  0.45407884696E+03 -0.20966876839E+03  0.66327630339E+03  0.83071298142E+03  0.10566000000E+00 0. -1.
<mgrwt>
<rscale>  1 0.94665098E+03</rscale>
<asrwt>0</asrwt>
<pdfrwt beam="1">  1       21 0.18835104E+00 0.11709907E+04</pdfrwt>
<pdfrwt beam="2">  1        4 0.12337759E+00 0.11709907E+04</pdfrwt>
<totfact> 0.26278659E+00</totfact>
</mgrwt>
</event>
<event>
 6    1  0.1412458E-005  0.1041311E+04  0.7818608E-02  0.9578971E-01
          4   -1    0    0  502    0 -0.00000000000E+00  0.00000000000E+00  0.90410765178E+03  0.90410765178E+03  0.00000000000E+00 0.  1.
         21   -1    0    0  501  502  0.00000000000E+00 -0.00000000000E+00 -0.52855939314E+03  0.52855939314E+03  0.00000000000E+00 0.  1.
    9000010    2    1    2  501    0 -0.23370290154E+03 -0.24669078266E+03  0.31115703682E+03  0.10868063373E+04  0.98430479266E+03 0.  0.
        -13    1    3    3    0    0 -0.25187515714E+03 -0.61153876506E+03  0.11216072802E+03  0.67082098657E+03  0.10566000000E+00 0.  1.
          4    1    3    3  501    0  0.18172255602E+02  0.36484798239E+03  0.19899630880E+03  0.41598535076E+03  0.00000000000E+00 0.  1.
         13    1    1    2    0    0  0.23370290154E+03  0.24669078266E+03  0.64391221824E+02  0.34586070759E+03  0.10566000000E+00 0. -1.
<mgrwt>
<rscale>  1 0.78703808E+03</rscale>
<asrwt>0</asrwt>
<pdfrwt beam="2">  1       21 0.81316830E-01 0.10413113E+04</pdfrwt>
<pdfrwt beam="1">  1        4 0.13909348E+00 0.10413113E+04</pdfrwt>
<totfact> 0.18245031E+01</totfact>
</mgrwt>
</event>
<event>
 6    1  0.1412458E-005  0.1184594E+04  0.7818608E-02  0.9288235E-01
         21   -1    0    0  501  502  0.00000000000E+00  0.00000000000E+00  0.45963349888E+03  0.45963349888E+03  0.00000000000E+00 0.  1.
          4   -1    0    0  502    0 -0.00000000000E+00 -0.00000000000E+00 -0.18598053493E+04  0.18598053493E+04  0.00000000000E+00 0.  1.
    9000010    2    1    2  501    0 -0.56419925188E+03 -0.31859090700E+03 -0.75302592683E+03  0.14036775149E+04  0.99168621933E+03 0.  0.
        -13    1    3    3    0    0 -0.21369099285E+03 -0.59998855364E+03 -0.70740629521E+03  0.95187907982E+03  0.10566000000E+00 0.  1.
          4    1    3    3  501    0 -0.35050825904E+03  0.28139764664E+03 -0.45619631624E+02  0.45179843512E+03  0.00000000000E+00 0.  1.
         13    1    1    2    0    0  0.56419925188E+03  0.31859090700E+03 -0.64714592356E+03  0.91576133320E+03  0.10566000000E+00 0. -1.
<mgrwt>
<rscale>  1 0.10187324E+04</rscale>
<asrwt>0</asrwt>
<pdfrwt beam="1">  1       21 0.70712848E-01 0.11845938E+04</pdfrwt>
<pdfrwt beam="2">  1        4 0.28612389E+00 0.11845938E+04</pdfrwt>
<totfact> 0.25665998E+00</totfact>
</mgrwt>
</event>
<event>
 6    1  0.1412458E-005  0.1068488E+04  0.7818608E-02  0.9561096E-01
         21   -1    0    0  501  502  0.00000000000E+00  0.00000000000E+00  0.10141000142E+04  0.10141000142E+04  0.00000000000E+00 0.  1.
          4   -1    0    0  502    0 -0.00000000000E+00 -0.00000000000E+00 -0.56234702667E+03  0.56234702667E+03  0.00000000000E+00 0.  1.
    9000010    2    1    2  501    0  0.28644571125E+03 -0.17279572395E+03  0.58288328162E+03  0.12171356538E+04  0.10147693196E+04 0.  0.
        -13    1    3    3    0    0  0.54242697709E+03  0.20475344174E+03  0.47221675129E+03  0.74775642341E+03  0.10566000000E+00 0.  1.
          4    1    3    3  501    0 -0.25598126584E+03 -0.37754916569E+03  0.11066653032E+03  0.46937923037E+03  0.00000000000E+00 0.  1.
         13    1    1    2    0    0 -0.28644571125E+03  0.17279572395E+03 -0.13113029408E+03  0.35931138710E+03  0.10566000000E+00 0. -1.
<mgrwt>
<rscale>  1 0.79925538E+03</rscale>
<asrwt>0</asrwt>
<pdfrwt beam="1">  1       21 0.15601539E+00 0.10684878E+04</pdfrwt>
<pdfrwt beam="2">  1        4 0.86514927E-01 0.10684878E+04</pdfrwt>
<totfact> 0.11015053E+01</totfact>
</mgrwt>
</event>
<event>
 6    1  0.1412458E-005  0.1060813E+04  0.7818608E-02  0.9530719E-01
          4   -1    0    0  502    0 -0.00000000000E+00  0.00000000000E+00  0.29081785107E+03  0.29081785107E+03  0.00000000000E+00 0.  1.
         21   -1    0    0  501  502  0.00000000000E+00 -0.00000000000E+00 -0.18594918792E+04  0.18594918792E+04  0.00000000000E+00 0.  1.
    9000010    2    1    2  501    0  0.70017567829E+02  0.37327190821E+03 -0.13320462269E+04  0.17028422960E+04  0.99050005405E+03 0.  0.
        -13    1    3    3    0    0  0.14659169112E+03 -0.20143350628E+03  0.10441534446E+01  0.24912985124E+03  0.10566000000E+00 0.  1.
          4    1    3    3  501    0 -0.76574123287E+02  0.57470541449E+03 -0.13330903803E+04  0.14537124447E+04  0.00000000000E+00 0.  1.
         13    1    1    2    0    0 -0.70017567829E+02 -0.37327190821E+03 -0.23662780121E+03  0.44746743427E+03  0.10566000000E+00 0. -1.
<mgrwt>
<rscale>  1 0.82056465E+03</rscale>
<asrwt>0</asrwt>
<pdfrwt beam="2">  1       21 0.28607569E+00 0.10608132E+04</pdfrwt>
<pdfrwt beam="1">  1        4 0.44741206E-01 0.10608132E+04</pdfrwt>
<totfact> 0.62022813E+00</totfact>
</mgrwt>
</event>
<event>
 6    1  0.1412458E-005  0.9877568E+03  0.7818608E-02  0.1004284E+00
          4   -1    0    0  502    0 -0.00000000000E+00  0.00000000000E+00  0.19740252454E+03  0.19740252454E+03  0.00000000000E+00 0.  1.
         21   -1    0    0  501  502  0.00000000000E+00 -0.00000000000E+00 -0.16280716084E+04  0.16280716084E+04  0.00000000000E+00 0.  1.
    9000010    2    1    2  501    0  0.84209280921E+02 -0.21871872388E+02 -0.14306001486E+04  0.17384706978E+04  0.98391767961E+03 0.  0.
        -13    1    3    3    0    0  0.20563251569E+02 -0.46588038606E+03 -0.10548629494E+04  0.11533443695E+04  0.10566000000E+00 0.  1.
          4    1    3    3  501    0  0.63646029352E+02  0.44400851367E+03 -0.37573719918E+03  0.58512632833E+03  0.00000000000E+00 0.  1.
         13    1    1    2    0    0 -0.84209280921E+02  0.21871872388E+02 -0.68935198447E-01  0.87003435054E+02  0.10566000000E+00 0. -1.
<mgrwt>
<rscale>  1 0.53811067E+03</rscale>
<asrwt>0</asrwt>
<pdfrwt beam="2">  1       21 0.25047255E+00 0.98775684E+03</pdfrwt>
<pdfrwt beam="1">  1        4 0.30369620E-01 0.98775684E+03</pdfrwt>
<totfact> 0.22921226E+01</totfact>
</mgrwt>
</event>
<event>
 6    1  0.1412458E-005  0.1023162E+04  0.7818608E-02  0.9703813E-01
         21   -1    0    0  501  502  0.00000000000E+00  0.00000000000E+00  0.56917777871E+03  0.56917777871E+03  0.00000000000E+00 0.  1.
          4   -1    0    0  502    0 -0.00000000000E+00 -0.00000000000E+00 -0.74880769199E+03  0.74880769199E+03  0.00000000000E+00 0.  1.
    9000010    2    1    2  501    0 -0.16179623393E+03  0.16967986559E+03 -0.87976590421E+00  0.10231619566E+04  0.99593691436E+03 0.  0.
        -13    1    3    3    0    0 -0.10568595824E+03  0.10729796397E+03 -0.49734925820E+03  0.51965245178E+03  0.10566000000E+00 0.  1.
          4    1    3    3  501    0 -0.56110275694E+02  0.62381901626E+02  0.49646949230E+03  0.50350950485E+03  0.00000000000E+00 0.  1.
         13    1    1    2    0    0  0.16179623393E+03 -0.16967986559E+03 -0.17875014738E+03  0.29482351408E+03  0.10566000000E+00 0. -1.
<mgrwt>
<rscale>  1 0.70790207E+03</rscale>
<asrwt>0</asrwt>
<pdfrwt beam="1">  1       21 0.87565812E-01 0.10231616E+04</pdfrwt>
<pdfrwt beam="2">  1        4 0.11520118E+00 0.10231616E+04</pdfrwt>
<totfact> 0.24791721E+01</totfact>
</mgrwt>
</event>
<event>
 6    1  0.1412458E-005  0.1014977E+04  0.7818608E-02  0.9929486E-01
         21   -1    0    0  501  502  0.00000000000E+00  0.00000000000E+00  0.78150407365E+03  0.78150407365E+03  0.00000000000E+00 0.  1.
          4   -1    0    0  502    0 -0.00000000000E+00 -0.00000000000E+00 -0.41765122643E+03  0.41765122643E+03  0.00000000000E+00 0.  1.
    9000010    2    1    2  501    0 -0.11174483481E+03  0.26044051038E+02  0.26830365600E+03  0.10498406665E+04  0.10084708089E+04 0.  0.
        -13    1    3    3    0    0 -0.49979233520E+03 -0.17942019326E+01 -0.10495326244E+03  0.51069638333E+03  0.10566000000E+00 0.  1.
          4    1    3    3  501    0  0.38804750039E+03  0.27838252970E+02  0.37325691844E+03  0.53914428315E+03  0.00000000000E+00 0.  1.
         13    1    1    2    0    0  0.11174483481E+03 -0.26044051038E+02  0.95549191211E+02  0.14931463360E+03  0.10566000000E+00 0. -1.
<mgrwt>
<rscale>  1 0.58853288E+03</rscale>
<asrwt>0</asrwt>
<pdfrwt beam="1">  1       21 0.12023140E+00 0.10149771E+04</pdfrwt>
<pdfrwt beam="2">  1        4 0.64254035E-01 0.10149771E+04</pdfrwt>
<totfact> 0.44050420E+01</totfact>
</mgrwt>
</event>
<event>
 6    1  0.1412458E-005  0.1009655E+04  0.7818608E-02  0.9890308E-01
         21   -1    0    0  501  502  0.00000000000E+00  0.00000000000E+00  0.68588575636E+03  0.68588575636E+03  0.00000000000E+00 0.  1.
          4   -1    0    0  502    0 -0.00000000000E+00 -0.00000000000E+00 -0.53905899035E+03  0.53905899035E+03  0.00000000000E+00 0.  1.
    9000010    2    1    2  501    0 -0.62089414780E+01  0.13204104097E+03  0.26907503361E+03  0.10448946494E+04  0.10009645684E+04 0.  0.
        -13    1    3    3    0    0  0.31904664141E+03 -0.12965944649E+03  0.46913166600E+03  0.58196809420E+03  0.10566000000E+00 0.  1.
          4    1    3    3  501    0 -0.32525558289E+03  0.26170048746E+03 -0.20005663239E+03  0.46292655519E+03  0.00000000000E+00 0.  1.
         13    1    1    2    0    0  0.62089414780E+01 -0.13204104097E+03 -0.12224826760E+03  0.18005009733E+03  0.10566000000E+00 0. -1.
<mgrwt>
<rscale>  1 0.60733311E+03</rscale>
<asrwt>0</asrwt>
<pdfrwt beam="1">  1       21 0.10552089E+00 0.10096551E+04</pdfrwt>
<pdfrwt beam="2">  1        4 0.82932152E-01 0.10096551E+04</pdfrwt>
<totfact> 0.34542581E+01</totfact>
</mgrwt>
</event>
<event>
 6    1  0.1412458E-005  0.1083694E+04  0.7818608E-02  0.9887748E-01
         21   -1    0    0  501  502  0.00000000000E+00  0.00000000000E+00  0.47959213851E+03  0.47959213851E+03  0.00000000000E+00 0.  1.
          4   -1    0    0  502    0 -0.00000000000E+00 -0.00000000000E+00 -0.74126387670E+03  0.74126387670E+03  0.00000000000E+00 0.  1.
    9000010    2    1    2  501    0  0.79082648003E+02  0.73241141753E+02 -0.22344704024E+03  0.11064905101E+04  0.10783201469E+04 0.  0.
        -13    1    3    3    0    0 -0.31470258639E+03  0.35932395195E+03 -0.36324047719E+03  0.60007922457E+03  0.10566000000E+00 0.  1.
          4    1    3    3  501    0  0.39378523439E+03 -0.28608281020E+03  0.13979343695E+03  0.50641128554E+03  0.00000000000E+00 0.  1.
         13    1    1    2    0    0 -0.79082648003E+02 -0.73241141753E+02 -0.38224697943E+02  0.11436550510E+03  0.10566000000E+00 0. -1.
<mgrwt>
<rscale>  1 0.60858748E+03</rscale>
<asrwt>0</asrwt>
<pdfrwt beam="1">  1       21 0.73783406E-01 0.10836940E+04</pdfrwt>
<pdfrwt beam="2">  1        4 0.11404060E+00 0.10836940E+04</pdfrwt>
<totfact> 0.37877100E+01</totfact>
</mgrwt>
</event>
<event>
 6    1  0.1412458E-005  0.1120110E+04  0.7818608E-02  0.9397672E-01
         21   -1    0    0  501  502  0.00000000000E+00  0.00000000000E+00  0.64457134570E+03  0.64457134570E+03  0.00000000000E+00 0.  1.
          4   -1    0    0  502    0 -0.00000000000E+00 -0.00000000000E+00 -0.10447104134E+04  0.10447104134E+04  0.00000000000E+00 0.  1.
    9000010    2    1    2  501    0 -0.12297757557E+03  0.50084205087E+03 -0.20998198335E+03  0.11396218898E+04  0.99432357628E+03 0.  0.
        -13    1    3    3    0    0 -0.12831327329E+03 -0.22471271350E+03  0.18064048464E+03  0.31558056906E+03  0.10566000000E+00 0.  1.
          4    1    3    3  501    0  0.53356977209E+01  0.72555476437E+03 -0.39062246799E+03  0.82404132073E+03  0.00000000000E+00 0.  1.
         13    1    1    2    0    0  0.12297757557E+03 -0.50084205087E+03 -0.19015708432E+03  0.54965986928E+03  0.10566000000E+00 0. -1.
<mgrwt>
<rscale>  1 0.92267493E+03</rscale>
<asrwt>0</asrwt>
<pdfrwt beam="1">  1       21 0.99164825E-01 0.11201096E+04</pdfrwt>
<pdfrwt beam="2">  1        4 0.16072468E+00 0.11201096E+04</pdfrwt>
<totfact> 0.75920768E+00</totfact>
</mgrwt>
</event>
<event>
 6    1  0.1412458E-005  0.1148537E+04  0.7818608E-02  0.9344639E-01
         21   -1    0    0  501  502  0.00000000000E+00  0.00000000000E+00  0.17451528741E+04  0.17451528741E+04  0.00000000000E+00 0. -1.
          4   -1    0    0  502    0 -0.00000000000E+00 -0.00000000000E+00 -0.45996467329E+03  0.45996467329E+03  0.00000000000E+00 0.  1.
    9000010    2    1    2  501    0  0.50148340218E+03  0.28925160577E+03  0.56174073610E+03  0.12785495038E+04  0.99195971938E+03 0.  0.
        -13    1    3    3    0    0 -0.20350307758E+03 -0.19649191727E+03  0.21305208986E+03  0.35413808083E+03  0.10566000000E+00 0.  1.
          4    1    3    3  501    0  0.70498647976E+03  0.48574352304E+03  0.34868864624E+03  0.92441142292E+03  0.00000000000E+00 0.  1.
         13    1    1    2    0    0 -0.50148340218E+03 -0.28925160577E+03  0.72344746468E+03  0.92656804359E+03  0.10566000000E+00 0. -1.
<mgrwt>
<rscale>  1 0.96775163E+03</rscale>
<asrwt>0</asrwt>
<pdfrwt beam="1">  1       21 0.26848505E+00 0.11485365E+04</pdfrwt>
<pdfrwt beam="2">  1        4 0.70763797E-01 0.11485365E+04</pdfrwt>
<totfact> 0.29318099E+00</totfact>
</mgrwt>
</event>
<event>
 6    1  0.1412458E-005  0.1012713E+04  0.7818608E-02  0.9802850E-01
          4   -1    0    0  502    0 -0.00000000000E+00  0.00000000000E+00  0.84385520816E+03  0.84385520816E+03  0.00000000000E+00 0.  1.
         21   -1    0    0  501  502  0.00000000000E+00 -0.00000000000E+00 -0.43791879432E+03  0.43791879432E+03  0.00000000000E+00 0.  1.
    9000010    2    1    2  501    0  0.15041118117E+03  0.87672441165E+02  0.23891302995E+03  0.10405131431E+04  0.99763629878E+03 0.  0.
        -13    1    3    3    0    0  0.36916498944E+03  0.33693081374E+03  0.42864452725E+03  0.65843853516E+03  0.10566000000E+00 0.  1.
          4    1    3    3  501    0 -0.21875380828E+03 -0.24925837258E+03 -0.18973149730E+03  0.38207460790E+03  0.00000000000E+00 0.  1.
         13    1    1    2    0    0 -0.15041118117E+03 -0.87672441165E+02  0.16702338389E+03  0.24126085942E+03  0.10566000000E+00 0. -1.
<mgrwt>
<rscale>  1 0.65209835E+03</rscale>
<asrwt>0</asrwt>
<pdfrwt beam="2">  1       21 0.67372122E-01 0.10127133E+04</pdfrwt>
<pdfrwt beam="1">  1        4 0.12982388E+00 0.10127133E+04</pdfrwt>
<totfact> 0.33831665E+01</totfact>
</mgrwt>
</event>
<event>
 6    1  0.1412458E-005  0.9227100E+03  0.7818608E-02  0.1013293E+00
         21   -1    0    0  501  502  0.00000000000E+00  0.00000000000E+00  0.52231949500E+03  0.52231949500E+03  0.00000000000E+00 0.  1.
          4   -1    0    0  502    0 -0.00000000000E+00 -0.00000000000E+00 -0.75785434665E+03  0.75785434665E+03  0.00000000000E+00 0.  1.
    9000010    2    1    2  501    0  0.24265512898E+02  0.77021060832E+02  0.10640777289E+03  0.92882525611E+03  0.91916956179E+03 0.  0.
        -13    1    3    3    0    0 -0.16576942424E+03  0.34996335226E+03  0.34570506150E+03  0.51910100235E+03  0.10566000000E+00 0.  1.
          4    1    3    3  501    0  0.19003493713E+03 -0.27294229143E+03 -0.23929728860E+03  0.40972425375E+03  0.00000000000E+00 0.  1.
         13    1    1    2    0    0 -0.24265512898E+02 -0.77021060832E+02 -0.34194262454E+03  0.35134858555E+03  0.10566000000E+00 0. -1.
<mgrwt>
<rscale>  1 0.50186716E+03</rscale>
<asrwt>0</asrwt>
<pdfrwt beam="1">  1       21 0.80356846E-01 0.92271000E+03</pdfrwt>
<pdfrwt beam="2">  1        4 0.11659298E+00 0.92271000E+03</pdfrwt>
<totfact> 0.29794606E+01</totfact>
</mgrwt>
</event>
<event>
 6    1  0.1412458E-005  0.1100283E+04  0.7818608E-02  0.9442039E-01
         21   -1    0    0  501  502  0.00000000000E+00  0.00000000000E+00  0.62103099335E+03  0.62103099335E+03  0.00000000000E+00 0. -1.
          4   -1    0    0  502    0 -0.00000000000E+00 -0.00000000000E+00 -0.12696180463E+04  0.12696180463E+04  0.00000000000E+00 0.  1.
    9000010    2    1    2  501    0  0.46455470403E+03 -0.72837009970E+01 -0.92489926475E+01  0.11003217076E+04  0.99737565187E+03 0.  0.
        -13    1    3    3    0    0  0.65768344147E+03 -0.48336023568E+02 -0.31933887758E+03  0.73270813443E+03  0.10566000000E+00 0.  1.
          4    1    3    3  501    0 -0.19312873745E+03  0.41052322571E+02  0.31008988494E+03  0.36761357314E+03  0.00000000000E+00 0.  1.
         13    1    1    2    0    0 -0.46455470403E+03  0.72837009970E+01 -0.63933806035E+03  0.79032733212E+03  0.10566000000E+00 0. -1.
<mgrwt>
<rscale>  1 0.88695343E+03</rscale>
<asrwt>0</asrwt>
<pdfrwt beam="1">  1       21 0.95543231E-01 0.11002828E+04</pdfrwt>
<pdfrwt beam="2">  1        4 0.19532585E+00 0.11002828E+04</pdfrwt>
<totfact> 0.47549954E+00</totfact>
</mgrwt>
</event>
<event>
 6    1  0.1412458E-005  0.1119744E+04  0.7818608E-02  0.9404464E-01
          4   -1    0    0  502    0 -0.00000000000E+00  0.00000000000E+00  0.17967007733E+04  0.17967007733E+04  0.00000000000E+00 0.  1.
         21   -1    0    0  501  502  0.00000000000E+00 -0.00000000000E+00 -0.37612783463E+03  0.37612783463E+03  0.00000000000E+00 0.  1.
    9000010    2    1    2  501    0  0.31002171777E+03  0.39717165240E+03  0.81431323608E+03  0.13845332159E+04  0.99998369611E+03 0.  0.
        -13    1    3    3    0    0 -0.86026734438E+02 -0.26023871727E+01  0.81726851191E+03  0.82178780910E+03  0.10566000000E+00 0.  1.
          4    1    3    3  501    0  0.39604845221E+03  0.39977403957E+03 -0.29552758325E+01  0.56274540679E+03  0.00000000000E+00 0.  1.
         13    1    1    2    0    0 -0.31002171777E+03 -0.39717165240E+03  0.60625970254E+03  0.78829539200E+03  0.10566000000E+00 0. -1.
<mgrwt>
<rscale>  1 0.91709226E+03</rscale>
<asrwt>0</asrwt>
<pdfrwt beam="2">  1       21 0.57865822E-01 0.11197438E+04</pdfrwt>
<pdfrwt beam="1">  1        4 0.27641550E+00 0.11197438E+04</pdfrwt>
<totfact> 0.46751435E+00</totfact>
</mgrwt>
</event>
<event>
 6    1  0.1412458E-005  0.1081999E+04  0.7818608E-02  0.9455951E-01
         21   -1    0    0  501  502  0.00000000000E+00  0.00000000000E+00  0.61259302324E+03  0.61259302324E+03  0.00000000000E+00 0.  1.
          4   -1    0    0  502    0 -0.00000000000E+00 -0.00000000000E+00 -0.10931549859E+04  0.10931549859E+04  0.00000000000E+00 0.  1.
    9000010    2    1    2  501    0 -0.22377497772E+03  0.40773200064E+03 -0.68164894976E+02  0.10841436514E+04  0.97693417325E+03 0.  0.
        -13    1    3    3    0    0  0.27541241086E+03 -0.11601347338E+03 -0.18465394726E+03  0.35129505187E+03  0.10566000000E+00 0.  1.
          4    1    3    3  501    0 -0.49918738858E+03  0.52374547402E+03  0.11648905229E+03  0.73284859949E+03  0.00000000000E+00 0.  1.
         13    1    1    2    0    0  0.22377497772E+03 -0.40773200064E+03 -0.41239706764E+03  0.62160435774E+03  0.10566000000E+00 0. -1.
<mgrwt>
<rscale>  1 0.87610725E+03</rscale>
<asrwt>0</asrwt>
<pdfrwt beam="1">  1       21 0.94245081E-01 0.10819986E+04</pdfrwt>
<pdfrwt beam="2">  1        4 0.16817769E+00 0.10819986E+04</pdfrwt>
<totfact> 0.76143381E+00</totfact>
</mgrwt>
</event>
<event>
 6    1  0.1412458E-005  0.1032659E+04  0.7818608E-02  0.9733823E-01
         21   -1    0    0  501  502  0.00000000000E+00  0.00000000000E+00  0.24302955608E+04  0.24302955608E+04  0.00000000000E+00 0.  1.
          4   -1    0    0  502    0 -0.00000000000E+00 -0.00000000000E+00 -0.17125572354E+03  0.17125572354E+03  0.00000000000E+00 0.  1.
    9000010    2    1    2  501    0 -0.17761656935E+03  0.10492661898E+03  0.21031016297E+04  0.23429512519E+04  0.10118432994E+04 0.  0.
        -13    1    3    3    0    0 -0.15160683936E+03  0.12305331139E+02  0.22006757131E+04  0.22059260324E+04  0.10566000000E+00 0.  1.
          4    1    3    3  501    0 -0.26009729987E+02  0.92621287840E+02 -0.97574083388E+02  0.13702521945E+03  0.00000000000E+00 0.  1.
         13    1    1    2    0    0  0.17761656935E+03 -0.10492661898E+03  0.15593820751E+03  0.25860003249E+03  0.10566000000E+00 0. -1.
<mgrwt>
<rscale>  1 0.69038178E+03</rscale>
<asrwt>0</asrwt>
<pdfrwt beam="1">  1       21 0.37389160E+00 0.10326588E+04</pdfrwt>
<pdfrwt beam="2">  1        4 0.26347036E-01 0.10326588E+04</pdfrwt>
<totfact> 0.50335343E+00</totfact>
</mgrwt>
</event>
<event>
 6    1  0.1412458E-005  0.1080652E+04  0.7818608E-02  0.9514509E-01
          4   -1    0    0  502    0 -0.00000000000E+00  0.00000000000E+00  0.12485137694E+04  0.12485137694E+04  0.00000000000E+00 0.  1.
         21   -1    0    0  501  502  0.00000000000E+00 -0.00000000000E+00 -0.43033370049E+03  0.43033370049E+03  0.00000000000E+00 0.  1.
    9000010    2    1    2  501    0 -0.11580358895E+03  0.36203723722E+03  0.54168290861E+03  0.12088132975E+04  0.10115966501E+04 0.  0.
        -13    1    3    3    0    0  0.63561887157E+02 -0.21246705231E+03 -0.16804988938E+03  0.27825013620E+03  0.10566000000E+00 0.  1.
          4    1    3    3  501    0 -0.17936547610E+03  0.57450428953E+03  0.70973279798E+03  0.93056316134E+03  0.00000000000E+00 0.  1.
         13    1    1    2    0    0  0.11580358895E+03 -0.36203723722E+03  0.27649716027E+03  0.47003417233E+03  0.10566000000E+00 0. -1.
<mgrwt>
<rscale>  1 0.83222541E+03</rscale>
<asrwt>0</asrwt>
<pdfrwt beam="2">  1       21 0.66205185E-01 0.10806522E+04</pdfrwt>
<pdfrwt beam="1">  1        4 0.19207904E+00 0.10806522E+04</pdfrwt>
<totfact> 0.11897883E+01</totfact>
</mgrwt>
</event>
<event>
 6    1  0.1412458E-005  0.1011204E+04  0.7818608E-02  0.9848009E-01
          4   -1    0    0  502    0 -0.00000000000E+00  0.00000000000E+00  0.12933285849E+04  0.12933285849E+04  0.00000000000E+00 0.  1.
         21   -1    0    0  501  502  0.00000000000E+00 -0.00000000000E+00 -0.54980890435E+03  0.54980890435E+03  0.00000000000E+00 0.  1.
    9000010    2    1    2  501    0 -0.95771300146E+02 -0.11660203387E+03 -0.72011217810E+02  0.10137649351E+04  0.99988276908E+03 0.  0.
        -13    1    3    3    0    0 -0.14571828856E+03  0.14777123609E+03  0.41125451849E+03  0.46065219849E+03  0.10566000000E+00 0.  1.
          4    1    3    3  501    0  0.49946988409E+02 -0.26437326996E+03 -0.48326573630E+03  0.55311273661E+03  0.00000000000E+00 0.  1.
         13    1    1    2    0    0  0.95771300146E+02  0.11660203387E+03  0.81553089834E+03  0.82937255413E+03  0.10566000000E+00 0. -1.
<mgrwt>
<rscale>  1 0.62848537E+03</rscale>
<asrwt>0</asrwt>
<pdfrwt beam="2">  1       21 0.84585985E-01 0.10112041E+04</pdfrwt>
<pdfrwt beam="1">  1        4 0.19897363E+00 0.10112041E+04</pdfrwt>
<totfact> 0.61005644E+00</totfact>
</mgrwt>
</event>
<event>
 6    1  0.1412458E-005  0.1098569E+04  0.7818608E-02  0.9450475E-01
         21   -1    0    0  501  502  0.00000000000E+00  0.00000000000E+00  0.97204657268E+03  0.97204657268E+03  0.00000000000E+00 0.  1.
          4   -1    0    0  502    0 -0.00000000000E+00 -0.00000000000E+00 -0.85108960610E+03  0.85108960610E+03  0.00000000000E+00 0.  1.
    9000010    2    1    2  501    0 -0.32158210147E+03 -0.31913359746E+03  0.52364310252E+03  0.12169864974E+04  0.10007960506E+04 0.  0.
        -13    1    3    3    0    0 -0.27099816440E+03 -0.29648493448E+03  0.82127377779E+03  0.91423954779E+03  0.10566000000E+00 0.  1.
          4    1    3    3  501    0 -0.50583937068E+02 -0.22648662984E+02 -0.29763067527E+03  0.30274694959E+03  0.00000000000E+00 0.  1.
         13    1    1    2    0    0  0.32158210147E+03  0.31913359746E+03 -0.40268613595E+03  0.60614968140E+03  0.10566000000E+00 0. -1.
<mgrwt>
<rscale>  1 0.88035719E+03</rscale>
<asrwt>0</asrwt>
<pdfrwt beam="1">  1       21 0.14954563E+00 0.10985691E+04</pdfrwt>
<pdfrwt beam="2">  1        4 0.13093686E+00 0.10985691E+04</pdfrwt>
<totfact> 0.44777309E+00</totfact>
</mgrwt>
</event>
<event>
 6    1  0.1412458E-005  0.1016978E+04  0.7818608E-02  0.1011444E+00
          4   -1    0    0  502    0 -0.00000000000E+00  0.00000000000E+00  0.69858453558E+03  0.69858453558E+03  0.00000000000E+00 0.  1.
         21   -1    0    0  501  502  0.00000000000E+00 -0.00000000000E+00 -0.44994243728E+03  0.44994243728E+03  0.00000000000E+00 0.  1.
    9000010    2    1    2  501    0 -0.20200284509E+02  0.60561506875E+02  0.14565310978E+03  0.10273556457E+04  0.10149724364E+04 0.  0.
        -13    1    3    3    0    0 -0.22789189699E+03  0.45184604500E+03  0.26126990359E+03  0.56952746974E+03  0.10566000000E+00 0.  1.
          4    1    3    3  501    0  0.20769161248E+03 -0.39128453813E+03 -0.11561679382E+03  0.45782817594E+03  0.00000000000E+00 0.  1.
         13    1    1    2    0    0  0.20200284509E+02 -0.60561506875E+02  0.10298898852E+03  0.12117132718E+03  0.10566000000E+00 0. -1.
<mgrwt>
<rscale>  1 0.50904926E+03</rscale>
<asrwt>0</asrwt>
<pdfrwt beam="2">  1       21 0.69221914E-01 0.10169783E+04</pdfrwt>
<pdfrwt beam="1">  1        4 0.10747454E+00 0.10169783E+04</pdfrwt>
<totfact> 0.51047574E+01</totfact>
</mgrwt>
</event>
<event>
 6    1  0.1412458E-005  0.1042704E+04  0.7818608E-02  0.9595234E-01
         21   -1    0    0  501  502  0.00000000000E+00  0.00000000000E+00  0.21236743465E+03  0.21236743465E+03  0.00000000000E+00 0.  1.
          4   -1    0    0  502    0 -0.00000000000E+00 -0.00000000000E+00 -0.22071281949E+04  0.22071281949E+04  0.00000000000E+00 0.  1.
    9000010    2    1    2  501    0  0.20620326228E+02 -0.31940306167E+03 -0.14212973276E+04  0.17627583659E+04  0.99236457494E+03 0.  0.
        -13    1    3    3    0    0  0.49433645458E+03 -0.81977434121E+02 -0.55945421120E+03  0.75105116712E+03  0.10566000000E+00 0.  1.
          4    1    3    3  501    0 -0.47371612835E+03 -0.23742562754E+03 -0.86184311640E+03  0.10117071988E+04  0.00000000000E+00 0.  1.
         13    1    1    2    0    0 -0.20620326228E+02  0.31940306167E+03 -0.57346343261E+03  0.65673726357E+03  0.10566000000E+00 0. -1.
<mgrwt>
<rscale>  1 0.77612423E+03</rscale>
<asrwt>0</asrwt>
<pdfrwt beam="1">  1       21 0.32671913E-01 0.10427037E+04</pdfrwt>
<pdfrwt beam="2">  1        4 0.33955818E+00 0.10427037E+04</pdfrwt>
<totfact> 0.64058828E+00</totfact>
</mgrwt>
</event>
<event>
 6    1  0.1412458E-005  0.1056017E+04  0.7818608E-02  0.9553222E-01
         21   -1    0    0  501  502  0.00000000000E+00  0.00000000000E+00  0.38304425855E+03  0.38304425855E+03  0.00000000000E+00 0.  1.
          4   -1    0    0  502    0 -0.00000000000E+00 -0.00000000000E+00 -0.13715209557E+04  0.13715209557E+04  0.00000000000E+00 0.  1.
    9000010    2    1    2  501    0 -0.35518927057E+03  0.25178175395E+02 -0.55302650294E+03  0.11920616665E+04  0.99417269392E+03 0.  0.
        -13    1    3    3    0    0  0.29126305338E+03 -0.16518361868E+03 -0.24702275550E+02  0.33575289682E+03  0.10566000000E+00 0.  1.
          4    1    3    3  501    0 -0.64645232395E+03  0.19036179408E+03 -0.52832422739E+03  0.85630876968E+03  0.00000000000E+00 0.  1.
         13    1    1    2    0    0  0.35518927057E+03 -0.25178175395E+02 -0.43545019426E+03  0.56250354780E+03  0.10566000000E+00 0. -1.
<mgrwt>
<rscale>  1 0.80471179E+03</rscale>
<asrwt>0</asrwt>
<pdfrwt beam="1">  1       21 0.58929886E-01 0.10560174E+04</pdfrwt>
<pdfrwt beam="2">  1        4 0.21100322E+00 0.10560174E+04</pdfrwt>
<totfact> 0.11616859E+01</totfact>
</mgrwt>
</event>
<event>
 6    1  0.1412458E-005  0.1020155E+04  0.7818608E-02  0.9714585E-01
         21   -1    0    0  501  502  0.00000000000E+00  0.00000000000E+00  0.64945133783E+03  0.64945133783E+03  0.00000000000E+00 0.  1.
          4   -1    0    0  502    0 -0.00000000000E+00 -0.00000000000E+00 -0.96884985193E+03  0.96884985193E+03  0.00000000000E+00 0.  1.
    9000010    2    1    2  501    0 -0.20044098859E+03 -0.10899445024E+03  0.21025455031E+03  0.10415961006E+04  0.99431337149E+03 0.  0.
        -13    1    3    3    0    0  0.15021985037E+03 -0.14888691533E+03 -0.33257148911E+03  0.39412830846E+03  0.10566000000E+00 0.  1.
          4    1    3    3  501    0 -0.35066083896E+03  0.39892465096E+02  0.54282603942E+03  0.64746779211E+03  0.00000000000E+00 0.  1.
         13    1    1    2    0    0  0.20044098859E+03  0.10899445024E+03 -0.52965306441E+03  0.57670508919E+03  0.10566000000E+00 0. -1.
<mgrwt>
<rscale>  1 0.70155021E+03</rscale>
<asrwt>0</asrwt>
<pdfrwt beam="1">  1       21 0.99915590E-01 0.10201546E+04</pdfrwt>
<pdfrwt beam="2">  1        4 0.14905382E+00 0.10201546E+04</pdfrwt>
<totfact> 0.92492922E+00</totfact>
</mgrwt>
</event>
<event>
 6    1  0.1412458E-005  0.9908832E+03  0.7818608E-02  0.9886483E-01
          4   -1    0    0  502    0 -0.00000000000E+00  0.00000000000E+00  0.16323641065E+03  0.16323641065E+03  0.00000000000E+00 0.  1.
         21   -1    0    0  501  502  0.00000000000E+00 -0.00000000000E+00 -0.22623948385E+04  0.22623948385E+04  0.00000000000E+00 0.  1.
    9000010    2    1    2  501    0  0.32955359547E+02 -0.13768928302E+03 -0.20479596779E+04  0.22750798707E+04  0.98071666724E+03 0.  0.
        -13    1    3    3    0    0  0.80539594412E+02  0.26283381973E+03 -0.11081785380E+03  0.29639306832E+03  0.10566000000E+00 0.  1.
          4    1    3    3  501    0 -0.47584234865E+02 -0.40052310275E+03 -0.19371418241E+04  0.19786868024E+04  0.00000000000E+00 0.  1.
         13    1    1    2    0    0 -0.32955359547E+02  0.13768928302E+03 -0.51198749889E+02  0.15055137839E+03  0.10566000000E+00 0. -1.
<mgrwt>
<rscale>  1 0.60920857E+03</rscale>
<asrwt>0</asrwt>
<pdfrwt beam="2">  1       21 0.34806073E+00 0.99088323E+03</pdfrwt>
<pdfrwt beam="1">  1        4 0.25113295E-01 0.99088323E+03</pdfrwt>
<totfact> 0.81240930E+00</totfact>
</mgrwt>
</event>
<event>
 6    1  0.1412458E-005  0.1086340E+04  0.7818608E-02  0.9465597E-01
         21   -1    0    0  501  502  0.00000000000E+00  0.00000000000E+00  0.46565816520E+03  0.46565816520E+03  0.00000000000E+00 0.  1.
          4   -1    0    0  502    0 -0.00000000000E+00 -0.00000000000E+00 -0.12908646051E+04  0.12908646051E+04  0.00000000000E+00 0.  1.
    9000010    2    1    2  501    0  0.74342487132E+02 -0.43790530598E+03 -0.45295501700E+03  0.11769893412E+04  0.99138680620E+03 0.  0.
        -13    1    3    3    0    0  0.41783273927E+03  0.95720512364E+02 -0.66016605832E+02  0.43371052317E+03  0.10566000000E+00 0.  1.
          4    1    3    3  501    0 -0.34349025214E+03 -0.53362581834E+03 -0.38693841117E+03  0.74327881805E+03  0.00000000000E+00 0.  1.
         13    1    1    2    0    0 -0.74342487132E+02  0.43790530598E+03 -0.37225142286E+03  0.57953342905E+03  0.10566000000E+00 0. -1.
<mgrwt>
<rscale>  1 0.86868440E+03</rscale>
<asrwt>0</asrwt>
<pdfrwt beam="1">  1       21 0.71639718E-01 0.10863405E+04</pdfrwt>
<pdfrwt beam="2">  1        4 0.19859455E+00 0.10863405E+04</pdfrwt>
<totfact> 0.89758100E+00</totfact>
</mgrwt>
</event>
<event>
 6    1  0.1412458E-005  0.1051563E+04  0.7818608E-02  0.9609309E-01
          4   -1    0    0  502    0 -0.00000000000E+00  0.00000000000E+00  0.94660596168E+03  0.94660596168E+03  0.00000000000E+00 0.  1.
         21   -1    0    0  501  502  0.00000000000E+00 -0.00000000000E+00 -0.48572554632E+03  0.48572554632E+03  0.00000000000E+00 0.  1.
    9000010    2    1    2  501    0  0.13051301735E+03 -0.26719530117E+03  0.29654444685E+03  0.10925767459E+04  0.10086418393E+04 0.  0.
        -13    1    3    3    0    0  0.21527759690E+03  0.29989285071E+03  0.36006471844E+03  0.51568088801E+03  0.10566000000E+00 0.  1.
          4    1    3    3  501    0 -0.84764579548E+02 -0.56708815188E+03 -0.63520271584E+02  0.57689585789E+03  0.00000000000E+00 0.  1.
         13    1    1    2    0    0 -0.13051301735E+03  0.26719530117E+03  0.16433596850E+03  0.33975476211E+03  0.10566000000E+00 0. -1.
<mgrwt>
<rscale>  1 0.76683100E+03</rscale>
<asrwt>0</asrwt>
<pdfrwt beam="2">  1       21 0.74727007E-01 0.10515633E+04</pdfrwt>
<pdfrwt beam="1">  1        4 0.14563169E+00 0.10515633E+04</pdfrwt>
<totfact> 0.19673283E+01</totfact>
</mgrwt>
</event>
<event>
 6    1  0.1412458E-005  0.1030155E+04  0.7818608E-02  0.9712436E-01
         21   -1    0    0  501  502  0.00000000000E+00  0.00000000000E+00  0.53300108653E+03  0.53300108653E+03  0.00000000000E+00 0.  1.
          4   -1    0    0  502    0 -0.00000000000E+00 -0.00000000000E+00 -0.73979209154E+03  0.73979209154E+03  0.00000000000E+00 0.  1.
    9000010    2    1    2  501    0  0.21547273561E+03 -0.58131313959E+02 -0.13863603813E+03  0.10394418118E+04  0.10056896040E+04 0.  0.
        -13    1    3    3    0    0  0.60618891597E+03  0.22752078910E+02 -0.19340292501E+03  0.63670037028E+03  0.10566000000E+00 0.  1.
          4    1    3    3  501    0 -0.39071618036E+03 -0.80883392869E+02  0.54766886877E+02  0.40274144154E+03  0.00000000000E+00 0.  1.
         13    1    1    2    0    0 -0.21547273561E+03  0.58131313959E+02 -0.68154966877E+02  0.23335136625E+03  0.10566000000E+00 0. -1.
<mgrwt>
<rscale>  1 0.70281182E+03</rscale>
<asrwt>0</asrwt>
<pdfrwt beam="1">  1       21 0.82000167E-01 0.10301550E+04</pdfrwt>
<pdfrwt beam="2">  1        4 0.11381417E+00 0.10301550E+04</pdfrwt>
<totfact> 0.29857827E+01</totfact>
</mgrwt>
</event>
<event>
 6    1  0.1412458E-005  0.1011774E+04  0.7818608E-02  0.9895916E-01
          4   -1    0    0  502    0 -0.00000000000E+00  0.00000000000E+00  0.19401016496E+03  0.19401016496E+03  0.00000000000E+00 0.  1.
         21   -1    0    0  501  502  0.00000000000E+00 -0.00000000000E+00 -0.18469328161E+04  0.18469328161E+04  0.00000000000E+00 0.  1.
    9000010    2    1    2  501    0  0.67618847900E+02  0.10986500363E+03 -0.11980147375E+04  0.15680964429E+04  0.10035160763E+04 0.  0.
        -13    1    3    3    0    0  0.72861348731E+02  0.51338146003E+02  0.17364190795E+03  0.19518172234E+03  0.10566000000E+00 0.  1.
          4    1    3    3  501    0 -0.52425008306E+01  0.58526857629E+02 -0.13716566455E+04  0.13729147206E+04  0.00000000000E+00 0.  1.
         13    1    1    2    0    0 -0.67618847900E+02 -0.10986500363E+03 -0.45490791361E+03  0.47284653815E+03  0.10566000000E+00 0. -1.
<mgrwt>
<rscale>  1 0.60459638E+03</rscale>
<asrwt>0</asrwt>
<pdfrwt beam="2">  1       21 0.28414351E+00 0.10117743E+04</pdfrwt>
<pdfrwt beam="1">  1        4 0.29847717E-01 0.10117743E+04</pdfrwt>
<totfact> 0.14522213E+01</totfact>
</mgrwt>
</event>
<event>
 6    1  0.1412458E-005  0.1001518E+04  0.7818608E-02  0.9909411E-01
         21   -1    0    0  501  502  0.00000000000E+00  0.00000000000E+00  0.52363852920E+03  0.52363852920E+03  0.00000000000E+00 0.  1.
          4   -1    0    0  502    0 -0.00000000000E+00 -0.00000000000E+00 -0.61111411395E+03  0.61111411395E+03  0.00000000000E+00 0.  1.
    9000010    2    1    2  501    0  0.41320335755E+02  0.12047361733E+03 -0.53546847443E+02  0.10029481174E+04  0.99338632907E+03 0.  0.
        -13    1    3    3    0    0  0.41460483044E+03 -0.23977086242E+03 -0.69370157484E+02  0.48394158925E+03  0.10566000000E+00 0.  1.
          4    1    3    3  501    0 -0.37328449469E+03  0.36024447975E+03  0.15823310042E+02  0.51900652819E+03  0.00000000000E+00 0.  1.
         13    1    1    2    0    0 -0.41320335755E+02 -0.12047361733E+03 -0.33928737301E+02  0.13180452571E+03  0.10566000000E+00 0. -1.
<mgrwt>
<rscale>  1 0.59807353E+03</rscale>
<asrwt>0</asrwt>
<pdfrwt beam="1">  1       21 0.80559774E-01 0.10015177E+04</pdfrwt>
<pdfrwt beam="2">  1        4 0.94017556E-01 0.10015177E+04</pdfrwt>
<totfact> 0.49653313E+01</totfact>
</mgrwt>
</event>
<event>
 6    1  0.1412458E-005  0.1036537E+04  0.7818608E-02  0.9656479E-01
          4   -1    0    0  502    0 -0.00000000000E+00  0.00000000000E+00  0.35429951691E+03  0.35429951691E+03  0.00000000000E+00 0.  1.
         21   -1    0    0  501  502  0.00000000000E+00 -0.00000000000E+00 -0.12539275445E+04  0.12539275445E+04  0.00000000000E+00 0.  1.
    9000010    2    1    2  501    0 -0.87645691793E+02  0.24951748726E+03 -0.84697690378E+03  0.13385737734E+04  0.10022320727E+04 0.  0.
        -13    1    3    3    0    0 -0.51063052209E+03 -0.48319763357E+02 -0.34800285993E+03  0.61982604923E+03  0.10566000000E+00 0.  1.
          4    1    3    3  501    0  0.42298483030E+03  0.29783725062E+03 -0.49897404385E+03  0.71874772414E+03  0.00000000000E+00 0.  1.
         13    1    1    2    0    0  0.87645691793E+02 -0.24951748726E+03 -0.52651123797E+02  0.26965328802E+03  0.10566000000E+00 0. -1.
<mgrwt>
<rscale>  1 0.73668196E+03</rscale>
<asrwt>0</asrwt>
<pdfrwt beam="2">  1       21 0.19291192E+00 0.10365374E+04</pdfrwt>
<pdfrwt beam="1">  1        4 0.54507620E-01 0.10365374E+04</pdfrwt>
<totfact> 0.16544375E+01</totfact>
</mgrwt>
</event>
<event>
 6    1  0.1412458E-005  0.1086866E+04  0.7818608E-02  0.9473406E-01
          4   -1    0    0  502    0 -0.00000000000E+00  0.00000000000E+00  0.19537411840E+04  0.19537411840E+04  0.00000000000E+00 0.  1.
         21   -1    0    0  501  502  0.00000000000E+00 -0.00000000000E+00 -0.41284395340E+03  0.41284395340E+03  0.00000000000E+00 0. -1.
    9000010    2    1    2  501    0  0.89178948986E+02 -0.42217845431E+03  0.41946185623E+03  0.11650008323E+04  0.99754255959E+03 0.  0.
        -13    1    3    3    0    0 -0.32980449250E+03  0.10039535747E+03  0.35055038587E+03  0.49166636581E+03  0.10566000000E+00 0.  1.
          4    1    3    3  501    0  0.41898344148E+03 -0.52257381179E+03  0.68911470357E+02  0.67333446648E+03  0.00000000000E+00 0.  1.
         13    1    1    2    0    0 -0.89178948986E+02  0.42217845431E+03  0.11214353744E+04  0.12015843051E+04  0.10566000000E+00 0. -1.
<mgrwt>
<rscale>  1 0.86273212E+03</rscale>
<asrwt>0</asrwt>
<pdfrwt beam="2">  1       21 0.63514455E-01 0.10868665E+04</pdfrwt>
<pdfrwt beam="1">  1        4 0.30057556E+00 0.10868665E+04</pdfrwt>
<totfact> 0.27025031E+00</totfact>
</mgrwt>
</event>
<event>
 6    1  0.1412458E-005  0.1017264E+04  0.7818608E-02  0.9733990E-01
          4   -1    0    0  502    0 -0.00000000000E+00  0.00000000000E+00  0.36354526496E+03  0.36354526496E+03  0.00000000000E+00 0.  1.
         21   -1    0    0  501  502  0.00000000000E+00 -0.00000000000E+00 -0.13409798992E+04  0.13409798992E+04  0.00000000000E+00 0.  1.
    9000010    2    1    2  501    0 -0.21556004815E+03 -0.72651118101E+01 -0.10640660331E+04  0.14720946872E+04  0.99413647410E+03 0.  0.
        -13    1    3    3    0    0  0.67173339999E+02  0.44940597083E+03 -0.32583495231E+03  0.55914793350E+03  0.10566000000E+00 0.  1.
          4    1    3    3  501    0 -0.28273338814E+03 -0.45667108264E+03 -0.73823108075E+03  0.91294675369E+03  0.00000000000E+00 0.  1.
         13    1    1    2    0    0  0.21556004815E+03  0.72651118101E+01  0.86631398815E+02  0.23243047698E+03  0.10566000000E+00 0. -1.
<mgrwt>
<rscale>  1 0.69028590E+03</rscale>
<asrwt>0</asrwt>
<pdfrwt beam="2">  1       21 0.20630460E+00 0.10172641E+04</pdfrwt>
<pdfrwt beam="1">  1        4 0.55930041E-01 0.10172641E+04</pdfrwt>
<totfact> 0.12686796E+01</totfact>
</mgrwt>
</event>
<event>
 6    1  0.1412458E-005  0.1344255E+04  0.7818608E-02  0.9109186E-01
          4   -1    0    0  502    0 -0.00000000000E+00  0.00000000000E+00  0.19861837090E+04  0.19861837090E+04  0.00000000000E+00 0.  1.
         21   -1    0    0  501  502  0.00000000000E+00 -0.00000000000E+00 -0.87052594349E+03  0.87052594349E+03  0.00000000000E+00 0.  1.
    9000010    2    1    2  501    0  0.25734941360E+03  0.82653593841E+03 -0.11822304355E+03  0.13494431730E+04  0.10284113043E+04 0.  0.
        -13    1    3    3    0    0  0.88128131086E+02  0.79304434036E+03  0.33432253149E+03  0.86513435921E+03  0.10566000000E+00 0.  1.
          4    1    3    3  501    0  0.16922128251E+03  0.33491598046E+02 -0.45254557504E+03  0.48430881375E+03  0.00000000000E+00 0.  1.
         13    1    1    2    0    0 -0.25734941360E+03 -0.82653593841E+03  0.12338808090E+04  0.15072664795E+04  0.10566000000E+00 0. -1.
<mgrwt>
<rscale>  1 0.12042028E+04</rscale>
<asrwt>0</asrwt>
<pdfrwt beam="2">  1       21 0.13392707E+00 0.13442545E+04</pdfrwt>
<pdfrwt beam="1">  1        4 0.30556672E+00 0.13442545E+04</pdfrwt>
<totfact> 0.38942592E-01</totfact>
</mgrwt>
</event>
<event>
 6    1  0.1412458E-005  0.1026438E+04  0.7818608E-02  0.9710020E-01
         21   -1    0    0  501  502  0.00000000000E+00  0.00000000000E+00  0.11130069792E+04  0.11130069792E+04  0.00000000000E+00 0.  1.
          4   -1    0    0  502    0 -0.00000000000E+00 -0.00000000000E+00 -0.45578702517E+03  0.45578702517E+03  0.00000000000E+00 0.  1.
    9000010    2    1    2  501    0  0.21502568777E+03  0.74115727512E+02  0.79901872965E+03  0.13007714467E+04  0.10009226937E+04 0.  0.
        -13    1    3    3    0    0  0.31060889445E+03 -0.25687127053E+03  0.86104979055E+03  0.95071945804E+03  0.10566000000E+00 0.  1.
          4    1    3    3  501    0 -0.95583206678E+02  0.33098699804E+03 -0.62031060903E+02  0.35005198869E+03  0.00000000000E+00 0.  1.
         13    1    1    2    0    0 -0.21502568777E+03 -0.74115727512E+02 -0.14179877562E+03  0.26802255763E+03  0.10566000000E+00 0. -1.
<mgrwt>
<rscale>  1 0.70423334E+03</rscale>
<asrwt>0</asrwt>
<pdfrwt beam="1">  1       21 0.17123184E+00 0.10264382E+04</pdfrwt>
<pdfrwt beam="2">  1        4 0.70121081E-01 0.10264382E+04</pdfrwt>
<totfact> 0.13679551E+01</totfact>
</mgrwt>
</event>
<event>
 6    1  0.1412458E-005  0.1031503E+04  0.7818608E-02  0.9692570E-01
         21   -1    0    0  501  502  0.00000000000E+00  0.00000000000E+00  0.58076497378E+03  0.58076497378E+03  0.00000000000E+00 0.  1.
          4   -1    0    0  502    0 -0.00000000000E+00 -0.00000000000E+00 -0.77509626910E+03  0.77509626910E+03  0.00000000000E+00 0.  1.
    9000010    2    1    2  501    0  0.37868952947E+02 -0.23457155838E+03 -0.32905379435E+03  0.10827165257E+04  0.10037633197E+04 0.  0.
        -13    1    3    3    0    0 -0.42030381639E+03 -0.21384952294E+03 -0.40030761166E+03  0.61857344888E+03  0.10566000000E+00 0.  1.
          4    1    3    3  501    0  0.45817276934E+03 -0.20722035439E+02  0.71253817307E+02  0.46414307686E+03  0.00000000000E+00 0.  1.
         13    1    1    2    0    0 -0.37868952947E+02  0.23457155838E+03  0.13472249903E+03  0.27314471715E+03  0.10566000000E+00 0. -1.
<mgrwt>
<rscale>  1 0.71460909E+03</rscale>
<asrwt>0</asrwt>
<pdfrwt beam="1">  1       21 0.89348458E-01 0.10315031E+04</pdfrwt>
<pdfrwt beam="2">  1        4 0.11924558E+00 0.10315031E+04</pdfrwt>
<totfact> 0.21653615E+01</totfact>
</mgrwt>
</event>
<event>
 6    1  0.1412458E-005  0.1008257E+04  0.7818608E-02  0.1011250E+00
         21   -1    0    0  501  502  0.00000000000E+00  0.00000000000E+00  0.95664008392E+03  0.95664008392E+03  0.00000000000E+00 0.  1.
          4   -1    0    0  502    0 -0.00000000000E+00 -0.00000000000E+00 -0.65572852355E+03  0.65572852355E+03  0.00000000000E+00 0.  1.
    9000010    2    1    2  501    0 -0.37914378692E+02 -0.53905910683E+02  0.68740905206E+03  0.12202925057E+04  0.10061010125E+04 0.  0.
        -13    1    3    3    0    0  0.43623250476E+03  0.16946671593E+03  0.43342618563E+03  0.63786835285E+03  0.10566000000E+00 0.  1.
          4    1    3    3  501    0 -0.47414688345E+03 -0.22337262661E+03  0.25398286643E+03  0.58242415287E+03  0.00000000000E+00 0.  1.
         13    1    1    2    0    0  0.37914378692E+02  0.53905910683E+02 -0.38649749169E+03  0.39207610175E+03  0.10566000000E+00 0. -1.
<mgrwt>
<rscale>  1 0.50980808E+03</rscale>
<asrwt>0</asrwt>
<pdfrwt beam="1">  1       21 0.14717540E+00 0.10082572E+04</pdfrwt>
<pdfrwt beam="2">  1        4 0.10088131E+00 0.10082572E+04</pdfrwt>
<totfact> 0.90688030E+00</totfact>
</mgrwt>
</event>
<event>
 6    1  0.1412458E-005  0.1041701E+04  0.7818608E-02  0.9630672E-01
         21   -1    0    0  501  502  0.00000000000E+00  0.00000000000E+00  0.19812853140E+04  0.19812853140E+04  0.00000000000E+00 0.  1.
          4   -1    0    0  502    0 -0.00000000000E+00 -0.00000000000E+00 -0.22194495317E+03  0.22194495317E+03  0.00000000000E+00 0.  1.
    9000010    2    1    2  501    0 -0.19785176152E+03 -0.20429668693E+03  0.13956545614E+04  0.17415487452E+04  0.10021266993E+04 0.  0.
        -13    1    3    3    0    0 -0.51025769503E+03  0.18246082046E+03  0.66592776741E+03  0.85855382412E+03  0.10566000000E+00 0.  1.
          4    1    3    3  501    0  0.31240593351E+03 -0.38675750739E+03  0.72972679398E+03  0.88299492109E+03  0.00000000000E+00 0.  1.
         13    1    1    2    0    0  0.19785176152E+03  0.20429668693E+03  0.36368579941E+03  0.46168152193E+03  0.10566000000E+00 0. -1.
<mgrwt>
<rscale>  1 0.75298967E+03</rscale>
<asrwt>0</asrwt>
<pdfrwt beam="1">  1       21 0.30481311E+00 0.10417007E+04</pdfrwt>
<pdfrwt beam="2">  1        4 0.34145379E-01 0.10417007E+04</pdfrwt>
<totfact> 0.82383481E+00</totfact>
</mgrwt>
</event>
<event>
 6    1  0.1412458E-005  0.1107815E+04  0.7818608E-02  0.9479851E-01
          4   -1    0    0  502    0 -0.00000000000E+00  0.00000000000E+00  0.61910368425E+03  0.61910368425E+03  0.00000000000E+00 0.  1.
         21   -1    0    0  501  502  0.00000000000E+00 -0.00000000000E+00 -0.10393303498E+04  0.10393303498E+04  0.00000000000E+00 0.  1.
    9000010    2    1    2  501    0  0.39132875023E+03 -0.74434973317E+02 -0.55349140902E+03  0.12383884901E+04  0.10337187995E+04 0.  0.
        -13    1    3    3    0    0  0.40337785293E+03 -0.51834456229E+03 -0.39744460763E+03  0.76769590645E+03  0.10566000000E+00 0.  1.
          4    1    3    3  501    0 -0.12049102696E+02  0.44390958897E+03 -0.15604680138E+03  0.47069258362E+03  0.00000000000E+00 0.  1.
         13    1    1    2    0    0 -0.39132875023E+03  0.74434973317E+02  0.13326474346E+03  0.42004554399E+03  0.10566000000E+00 0. -1.
<mgrwt>
<rscale>  1 0.85785756E+03</rscale>
<asrwt>0</asrwt>
<pdfrwt beam="2">  1       21 0.15989698E+00 0.11078147E+04</pdfrwt>
<pdfrwt beam="1">  1        4 0.95246721E-01 0.11078147E+04</pdfrwt>
<totfact> 0.81473108E+00</totfact>
</mgrwt>
</event>
<event>
 6    1  0.1412458E-005  0.1024910E+04  0.7818608E-02  0.9717299E-01
          4   -1    0    0  502    0 -0.00000000000E+00  0.00000000000E+00  0.43197719128E+03  0.43197719128E+03  0.00000000000E+00 0.  1.
         21   -1    0    0  501  502  0.00000000000E+00 -0.00000000000E+00 -0.90588278360E+03  0.90588278360E+03  0.00000000000E+00 0.  1.
    9000010    2    1    2  501    0 -0.19567387090E+03  0.10689076955E+03 -0.42535136830E+03  0.11096683357E+04  0.10003629983E+04 0.  0.
        -13    1    3    3    0    0  0.24983765267E+03 -0.28996277588E+03 -0.33018907828E+03  0.50549194125E+03  0.10566000000E+00 0.  1.
          4    1    3    3  501    0 -0.44551152357E+03  0.39685354542E+03 -0.95162290021E+02  0.60417639443E+03  0.00000000000E+00 0.  1.
         13    1    1    2    0    0  0.19567387090E+03 -0.10689076955E+03 -0.48554224010E+02  0.22819163920E+03  0.10566000000E+00 0. -1.
<mgrwt>
<rscale>  1 0.69996120E+03</rscale>
<asrwt>0</asrwt>
<pdfrwt beam="2">  1       21 0.13936658E+00 0.10249098E+04</pdfrwt>
<pdfrwt beam="1">  1        4 0.66458030E-01 0.10249098E+04</pdfrwt>
<totfact> 0.27588211E+01</totfact>
</mgrwt>
</event>
<event>
 6    1  0.1412458E-005  0.1039957E+04  0.7818608E-02  0.9757218E-01
          4   -1    0    0  502    0 -0.00000000000E+00  0.00000000000E+00  0.47390518210E+03  0.47390518210E+03  0.00000000000E+00 0.  1.
         21   -1    0    0  501  502  0.00000000000E+00 -0.00000000000E+00 -0.93731358851E+03  0.93731358851E+03  0.00000000000E+00 0.  1.
    9000010    2    1    2  501    0  0.14696165855E+03  0.11543982583E+03 -0.58018754296E+03  0.11908521208E+04  0.10230283994E+04 0.  0.
        -13    1    3    3    0    0  0.15836839061E+03  0.29081758452E+03 -0.82529321462E+03  0.88924929906E+03  0.10566000000E+00 0.  1.
          4    1    3    3  501    0 -0.11406732062E+02 -0.17537775869E+03  0.24510567166E+03  0.30160282170E+03  0.00000000000E+00 0.  1.
         13    1    1    2    0    0 -0.14696165855E+03 -0.11543982583E+03  0.11677913655E+03  0.22036664985E+03  0.10566000000E+00 0. -1.
<mgrwt>
<rscale>  1 0.67709916E+03</rscale>
<asrwt>0</asrwt>
<pdfrwt beam="2">  1       21 0.14420209E+00 0.10399573E+04</pdfrwt>
<pdfrwt beam="1">  1        4 0.72908490E-01 0.10399573E+04</pdfrwt>
<totfact> 0.20389533E+01</totfact>
</mgrwt>
</event>
<event>
 6    1  0.1412458E-005  0.7394667E+03  0.7818608E-02  0.1004441E+00
         21   -1    0    0  501  502  0.00000000000E+00  0.00000000000E+00  0.34966881597E+03  0.34966881597E+03  0.00000000000E+00 0.  1.
          4   -1    0    0  502    0 -0.00000000000E+00 -0.00000000000E+00 -0.12051825749E+04  0.12051825749E+04  0.00000000000E+00 0.  1.
    9000010    2    1    2  501    0  0.16094445599E+03 -0.12913266196E+03 -0.70097393914E+02  0.74278166487E+03  0.71009337044E+03 0.  0.
        -13    1    3    3    0    0 -0.17168758338E+02  0.28369796642E+03  0.17333074455E+02  0.28474505974E+03  0.10566000000E+00 0.  1.
          4    1    3    3  501    0  0.17811321433E+03 -0.41283062838E+03 -0.87430468369E+02  0.45803660513E+03  0.00000000000E+00 0.  1.
         13    1    1    2    0    0 -0.16094445599E+03  0.12913266196E+03 -0.78541636504E+03  0.81206972603E+03  0.10566000000E+00 0. -1.
<mgrwt>
<rscale>  1 0.53744941E+03</rscale>
<asrwt>0</asrwt>
<pdfrwt beam="1">  1       21 0.53795203E-01 0.73946667E+03</pdfrwt>
<pdfrwt beam="2">  1        4 0.18541270E+00 0.73946667E+03</pdfrwt>
<totfact> 0.21793380E+01</totfact>
</mgrwt>
</event>
<event>
 6    1  0.1412458E-005  0.1120572E+04  0.7818608E-02  0.9390842E-01
         21   -1    0    0  501  502  0.00000000000E+00  0.00000000000E+00  0.11469224230E+04  0.11469224230E+04  0.00000000000E+00 0. -1.
          4   -1    0    0  502    0 -0.00000000000E+00 -0.00000000000E+00 -0.59856250594E+03  0.59856250594E+03  0.00000000000E+00 0.  1.
    9000010    2    1    2  501    0 -0.48262436223E+03 -0.21372386850E+03  0.28828588069E+03  0.11570610320E+04  0.98847221293E+03 0.  0.
        -13    1    3    3    0    0 -0.47980729058E+02 -0.54196590045E+03  0.71757812719E+01  0.54413297145E+03  0.10566000000E+00 0.  1.
          4    1    3    3  501    0 -0.43464363317E+03  0.32824203195E+03  0.28111009942E+03  0.61292806054E+03  0.00000000000E+00 0.  1.
         13    1    1    2    0    0  0.48262436223E+03  0.21372386850E+03  0.26007403641E+03  0.58842389700E+03  0.10566000000E+00 0. -1.
<mgrwt>
<rscale>  1 0.92833199E+03</rscale>
<asrwt>0</asrwt>
<pdfrwt beam="1">  1       21 0.17644960E+00 0.11205719E+04</pdfrwt>
<pdfrwt beam="2">  1        4 0.92086540E-01 0.11205719E+04</pdfrwt>
<totfact> 0.66073817E+00</totfact>
</mgrwt>
</event>
<event>
 6    1  0.1412458E-005  0.1023024E+04  0.7818608E-02  0.9974382E-01
          4   -1    0    0  502    0 -0.00000000000E+00  0.00000000000E+00  0.14245342754E+04  0.14245342754E+04  0.00000000000E+00 0.  1.
         21   -1    0    0  501  502  0.00000000000E+00 -0.00000000000E+00 -0.24311595409E+03  0.24311595409E+03  0.00000000000E+00 0.  1.
    9000010    2    1    2  501    0  0.96679516083E+02 -0.93764361779E+01  0.87492096093E+03  0.13461296400E+04  0.10184024123E+04 0.  0.
        -13    1    3    3    0    0  0.17428035331E+03 -0.49832399449E+03  0.45714844064E+03  0.69834458040E+03  0.10566000000E+00 0.  1.
          4    1    3    3  501    0 -0.77600837230E+02  0.48894755831E+03  0.41777252029E+03  0.64778505959E+03  0.00000000000E+00 0.  1.
         13    1    1    2    0    0 -0.96679516083E+02  0.93764361779E+01  0.30649736041E+03  0.32152058952E+03  0.10566000000E+00 0. -1.
<mgrwt>
<rscale>  1 0.56787967E+03</rscale>
<asrwt>0</asrwt>
<pdfrwt beam="2">  1       21 0.37402455E-01 0.10230241E+04</pdfrwt>
<pdfrwt beam="1">  1        4 0.21915911E+00 0.10230241E+04</pdfrwt>
<totfact> 0.27392044E+01</totfact>
</mgrwt>
</event>
<event>
 6    1  0.1412458E-005  0.1002399E+04  0.7818608E-02  0.9758420E-01
          4   -1    0    0  502    0 -0.00000000000E+00  0.00000000000E+00  0.68040167741E+03  0.68040167741E+03  0.00000000000E+00 0.  1.
         21   -1    0    0  501  502  0.00000000000E+00 -0.00000000000E+00 -0.63081437197E+03  0.63081437197E+03  0.00000000000E+00 0.  1.
    9000010    2    1    2  501    0  0.18054344367E+03 -0.10299119878E+03 -0.16109343994E+03  0.10152607999E+04  0.98061219311E+03 0.  0.
        -13    1    3    3    0    0  0.57661009769E+03 -0.89446117558E+02 -0.20053637958E+03  0.61700458945E+03  0.10566000000E+00 0.  1.
          4    1    3    3  501    0 -0.39606665402E+03 -0.13545081217E+02  0.39442939636E+02  0.39825621042E+03  0.00000000000E+00 0.  1.
         13    1    1    2    0    0 -0.18054344367E+03  0.10299119878E+03  0.21068074538E+03  0.29595524952E+03  0.10566000000E+00 0. -1.
<mgrwt>
<rscale>  1 0.67642526E+03</rscale>
<asrwt>0</asrwt>
<pdfrwt beam="2">  1       21 0.97048365E-01 0.10023988E+04</pdfrwt>
<pdfrwt beam="1">  1        4 0.10467718E+00 0.10023988E+04</pdfrwt>
<totfact> 0.24496502E+01</totfact>
</mgrwt>
</event>
<event>
 6    1  0.1412458E-005  0.1035940E+04  0.7818608E-02  0.9607395E-01
          4   -1    0    0  502    0 -0.00000000000E+00  0.00000000000E+00  0.52332330450E+03  0.52332330450E+03  0.00000000000E+00 0.  1.
         21   -1    0    0  501  502  0.00000000000E+00 -0.00000000000E+00 -0.88792236040E+03  0.88792236040E+03  0.00000000000E+00 0.  1.
    9000010    2    1    2  501    0 -0.15893423721E+03  0.26972301203E+03 -0.36445146930E+03  0.10981791737E+04  0.98750292611E+03 0.  0.
        -13    1    3    3    0    0 -0.24170797124E+03  0.43253585611E+03  0.17746473200E+03  0.52631145955E+03  0.10566000000E+00 0.  1.
          4    1    3    3  501    0  0.82773734033E+02 -0.16281284408E+03 -0.54191620130E+03  0.57186771414E+03  0.00000000000E+00 0.  1.
         13    1    1    2    0    0  0.15893423721E+03 -0.26972301203E+03 -0.14758660508E+00  0.31306649121E+03  0.10566000000E+00 0. -1.
<mgrwt>
<rscale>  1 0.76808667E+03</rscale>
<asrwt>0</asrwt>
<pdfrwt beam="2">  1       21 0.13660344E+00 0.10359405E+04</pdfrwt>
<pdfrwt beam="1">  1        4 0.80511278E-01 0.10359405E+04</pdfrwt>
<totfact> 0.18863596E+01</totfact>
</mgrwt>
</event>
<event>
 6    1  0.1412458E-005  0.9986740E+03  0.7818608E-02  0.9938956E-01
         21   -1    0    0  501  502  0.00000000000E+00  0.00000000000E+00  0.13974643953E+03  0.13974643953E+03  0.00000000000E+00 0.  1.
          4   -1    0    0  502    0 -0.00000000000E+00 -0.00000000000E+00 -0.22399995943E+04  0.22399995943E+04  0.00000000000E+00 0.  1.
    9000010    2    1    2  501    0 -0.32226790676E+02  0.11233107311E+03 -0.18176587496E+04  0.20739414475E+04  0.99181296708E+03 0.  0.
        -13    1    3    3    0    0  0.48699102280E+02  0.21668006252E+03 -0.19035189095E+04  0.19164305628E+04  0.10566000000E+00 0.  1.
          4    1    3    3  501    0 -0.80925892957E+02 -0.10434898941E+03  0.85860159901E+02  0.15751088470E+03  0.00000000000E+00 0.  1.
         13    1    1    2    0    0  0.32226790676E+02 -0.11233107311E+03 -0.28259440513E+03  0.30580458629E+03  0.10566000000E+00 0. -1.
<mgrwt>
<rscale>  1 0.58409921E+03</rscale>
<asrwt>0</asrwt>
<pdfrwt beam="1">  1       21 0.21499453E-01 0.99867402E+03</pdfrwt>
<pdfrwt beam="2">  1        4 0.34461530E+00 0.99867402E+03</pdfrwt>
<totfact> 0.13758493E+01</totfact>
</mgrwt>
</event>
<event>
 6    1  0.1412458E-005  0.1260754E+04  0.7818608E-02  0.9195285E-01
         21   -1    0    0  501  502  0.00000000000E+00  0.00000000000E+00  0.11352261795E+04  0.11352261795E+04  0.00000000000E+00 0. -1.
          4   -1    0    0  502    0 -0.00000000000E+00 -0.00000000000E+00 -0.10042119508E+04  0.10042119508E+04  0.00000000000E+00 0.  1.
    9000010    2    1    2  501    0 -0.75009982191E+03 -0.11011261630E+03 -0.25866576120E+03  0.12870150916E+04  0.10073357628E+04 0.  0.
        -13    1    3    3    0    0 -0.13117990226E+03  0.14275162512E+03 -0.53085588465E+03  0.56514969226E+03  0.10566000000E+00 0.  1.
          4    1    3    3  501    0 -0.61891991965E+03 -0.25286424142E+03  0.27219012344E+03  0.72186539939E+03  0.00000000000E+00 0.  1.
         13    1    1    2    0    0  0.75009982191E+03  0.11011261630E+03  0.38967998996E+03  0.85242303866E+03  0.10566000000E+00 0. -1.
<mgrwt>
<rscale>  1 0.11102223E+04</rscale>
<asrwt>0</asrwt>
<pdfrwt beam="1">  1       21 0.17465018E+00 0.12607537E+04</pdfrwt>
<pdfrwt beam="2">  1        4 0.15449415E+00 0.12607537E+04</pdfrwt>
<totfact> 0.18089332E+00</totfact>
</mgrwt>
</event>
<event>
 6    1  0.1412458E-005  0.1023597E+04  0.7818608E-02  0.9671625E-01
         21   -1    0    0  501  502  0.00000000000E+00  0.00000000000E+00  0.13425826980E+04  0.13425826980E+04  0.00000000000E+00 0.  1.
          4   -1    0    0  502    0 -0.00000000000E+00 -0.00000000000E+00 -0.51148017963E+03  0.51148017963E+03  0.00000000000E+00 0.  1.
    9000010    2    1    2  501    0 -0.26083388115E+03  0.66816867525E+01  0.10838505697E+04  0.14907991345E+04  0.98978333152E+03 0.  0.
        -13    1    3    3    0    0 -0.36462445798E+03  0.32892682483E+03  0.10391187996E+04  0.11493092457E+04  0.10566000000E+00 0.  1.
          4    1    3    3  501    0  0.10379057683E+03 -0.32224513807E+03  0.44731770107E+02  0.34148988874E+03  0.00000000000E+00 0.  1.
         13    1    1    2    0    0  0.26083388115E+03 -0.66816867525E+01 -0.25274805133E+03  0.36326374318E+03  0.10566000000E+00 0. -1.
<mgrwt>
<rscale>  1 0.72731618E+03</rscale>
<asrwt>0</asrwt>
<pdfrwt beam="1">  1       21 0.20655118E+00 0.10235966E+04</pdfrwt>
<pdfrwt beam="2">  1        4 0.78689259E-01 0.10235966E+04</pdfrwt>
<totfact> 0.59191962E+00</totfact>
</mgrwt>
</event>
<event>
 6    1  0.1412458E-005  0.9501816E+03  0.7818608E-02  0.9894197E-01
          4   -1    0    0  502    0 -0.00000000000E+00  0.00000000000E+00  0.57784324129E+03  0.57784324129E+03  0.00000000000E+00 0.  1.
         21   -1    0    0  501  502  0.00000000000E+00 -0.00000000000E+00 -0.56745016812E+03  0.56745016812E+03  0.00000000000E+00 0.  1.
    9000010    2    1    2  501    0  0.46131839848E+02 -0.14967129710E+03 -0.97405825093E+02  0.95516119894E+03  0.93718481496E+03 0.  0.
        -13    1    3    3    0    0  0.33428819313E+03 -0.15427325003E+03 -0.39563282708E+03  0.54043887422E+03  0.10566000000E+00 0.  1.
          4    1    3    3  501    0 -0.28815635329E+03  0.46019529298E+01  0.29822700199E+03  0.41472232472E+03  0.00000000000E+00 0.  1.
         13    1    1    2    0    0 -0.46131839848E+02  0.14967129710E+03  0.10779889826E+03  0.19013221046E+03  0.10566000000E+00 0. -1.
<mgrwt>
<rscale>  1 0.60543341E+03</rscale>
<asrwt>0</asrwt>
<pdfrwt beam="2">  1       21 0.87300026E-01 0.95018157E+03</pdfrwt>
<pdfrwt beam="1">  1        4 0.88898960E-01 0.95018157E+03</pdfrwt>
<totfact> 0.47019499E+01</totfact>
</mgrwt>
</event>
<event>
 6    1  0.1412458E-005  0.1424560E+04  0.7818608E-02  0.9021538E-01
          4   -1    0    0  502    0 -0.00000000000E+00  0.00000000000E+00  0.10321600976E+04  0.10321600976E+04  0.00000000000E+00 0.  1.
         21   -1    0    0  501  502  0.00000000000E+00 -0.00000000000E+00 -0.16032162434E+04  0.16032162434E+04  0.00000000000E+00 0. -1.
    9000010    2    1    2  501    0  0.95905339785E+03  0.34501658615E+03  0.78572565848E+02  0.14267253001E+04  0.99526457247E+03 0.  0.
        -13    1    3    3    0    0  0.71813511187E+03 -0.17341626497E+03  0.32134067437E+03  0.80563706471E+03  0.10566000000E+00 0.  1.
          4    1    3    3  501    0  0.24091828598E+03  0.51843285112E+03 -0.24276810852E+03  0.62108823540E+03  0.00000000000E+00 0.  1.
         13    1    1    2    0    0 -0.95905339785E+03 -0.34501658615E+03 -0.64962871164E+03  0.12086510410E+04  0.10566000000E+00 0. -1.
<mgrwt>
<rscale>  1 0.13101715E+04</rscale>
<asrwt>0</asrwt>
<pdfrwt beam="2">  1       21 0.24664865E+00 0.14245601E+04</pdfrwt>
<pdfrwt beam="1">  1        4 0.15879386E+00 0.14245601E+04</pdfrwt>
<totfact> 0.52787861E-01</totfact>
</mgrwt>
</event>
<event>
 6    1  0.1412458E-005  0.1150937E+04  0.7818608E-02  0.9342517E-01
         21   -1    0    0  501  502  0.00000000000E+00  0.00000000000E+00  0.55966399057E+03  0.55966399057E+03  0.00000000000E+00 0. -1.
          4   -1    0    0  502    0 -0.00000000000E+00 -0.00000000000E+00 -0.13410539449E+04  0.13410539449E+04  0.00000000000E+00 0.  1.
    9000010    2    1    2  501    0  0.49704562884E+03  0.29841121078E+03 -0.47632505236E+03  0.12456086213E+04  0.99425935959E+03 0.  0.
        -13    1    3    3    0    0  0.62945641752E+03  0.96843330367E+02  0.77491497854E+02  0.64155978334E+03  0.10566000000E+00 0.  1.
          4    1    3    3  501    0 -0.13241078868E+03  0.20156788041E+03 -0.55381655021E+03  0.60404883798E+03  0.00000000000E+00 0.  1.
         13    1    1    2    0    0 -0.49704562884E+03 -0.29841121078E+03 -0.30506490193E+03  0.65510931410E+03  0.10566000000E+00 0. -1.
<mgrwt>
<rscale>  1 0.96961143E+03</rscale>
<asrwt>0</asrwt>
<pdfrwt beam="1">  1       21 0.86102154E-01 0.11509367E+04</pdfrwt>
<pdfrwt beam="2">  1        4 0.20631599E+00 0.11509367E+04</pdfrwt>
<totfact> 0.51441546E+00</totfact>
</mgrwt>
</event>
<event>
 6    1  0.1412458E-005  0.1088620E+04  0.7818608E-02  0.9490756E-01
          4   -1    0    0  502    0 -0.00000000000E+00  0.00000000000E+00  0.35842303816E+03  0.35842303816E+03  0.00000000000E+00 0.  1.
         21   -1    0    0  501  502  0.00000000000E+00 -0.00000000000E+00 -0.15605125687E+04  0.15605125687E+04  0.00000000000E+00 0.  1.
    9000010    2    1    2  501    0 -0.39547447632E+03  0.82685635101E+02 -0.93057675455E+03  0.14321541627E+04  0.10108686730E+04 0.  0.
        -13    1    3    3    0    0  0.53730008913E+02  0.34754815583E+03  0.15346674060E+02  0.35201159931E+03  0.10566000000E+00 0.  1.
          4    1    3    3  501    0 -0.44920448524E+03 -0.26486252073E+03 -0.94592342861E+03  0.10801425634E+04  0.00000000000E+00 0.  1.
         13    1    1    2    0    0  0.39547447632E+03 -0.82685635101E+02 -0.27151277596E+03  0.48678144413E+03  0.10566000000E+00 0. -1.
<mgrwt>
<rscale>  1 0.84968785E+03</rscale>
<asrwt>0</asrwt>
<pdfrwt beam="2">  1       21 0.24007885E+00 0.10886195E+04</pdfrwt>
<pdfrwt beam="1">  1        4 0.55142007E-01 0.10886195E+04</pdfrwt>
<totfact> 0.77568659E+00</totfact>
</mgrwt>
</event>
<event>
 6    1  0.1412458E-005  0.1039512E+04  0.7818608E-02  0.9723286E-01
         21   -1    0    0  501  502  0.00000000000E+00  0.00000000000E+00  0.28335797917E+04  0.28335797917E+04  0.00000000000E+00 0.  1.
          4   -1    0    0  502    0 -0.00000000000E+00 -0.00000000000E+00 -0.17211344993E+03  0.17211344993E+03  0.00000000000E+00 0.  1.
    9000010    2    1    2  501    0  0.11041289804E+03 -0.17800841652E+03  0.25789246917E+04  0.27805463128E+04  0.10181882085E+04 0.  0.
        -13    1    3    3    0    0  0.41872726216E+02 -0.43736283860E+03  0.42940428609E+03  0.61435138957E+03  0.10566000000E+00 0.  1.
          4    1    3    3  501    0  0.68540171827E+02  0.25935442208E+03  0.21495204056E+04  0.21661949232E+04  0.00000000000E+00 0.  1.
         13    1    1    2    0    0 -0.11041289804E+03  0.17800841652E+03  0.82541650141E+02  0.22514692887E+03  0.10566000000E+00 0. -1.
<mgrwt>
<rscale>  1 0.69647095E+03</rscale>
<asrwt>0</asrwt>
<pdfrwt beam="1">  1       21 0.43593532E+00 0.10395120E+04</pdfrwt>
<pdfrwt beam="2">  1        4 0.26478994E-01 0.10395120E+04</pdfrwt>
<totfact> 0.19396703E+00</totfact>
</mgrwt>
</event>
<event>
 6    1  0.1412458E-005  0.1250675E+04  0.7818608E-02  0.9217898E-01
          4   -1    0    0  502    0 -0.00000000000E+00  0.00000000000E+00  0.65254739549E+03  0.65254739549E+03  0.00000000000E+00 0.  1.
         21   -1    0    0  501  502  0.00000000000E+00 -0.00000000000E+00 -0.14818656688E+04  0.14818656688E+04  0.00000000000E+00 0.  1.
    9000010    2    1    2  501    0  0.39686863937E+03 -0.59330460516E+03 -0.47881925247E+03  0.13391994790E+04  0.10269723933E+04 0.  0.
        -13    1    3    3    0    0 -0.34281645324E+03 -0.28963580322E+03 -0.13348418519E+03  0.46822009566E+03  0.10566000000E+00 0.  1.
          4    1    3    3  501    0  0.73968509261E+03 -0.30366880194E+03 -0.34533506728E+03  0.87097938334E+03  0.00000000000E+00 0.  1.
         13    1    1    2    0    0 -0.39686863937E+03  0.59330460516E+03 -0.35049902081E+03  0.79521358526E+03  0.10566000000E+00 0. -1.
<mgrwt>
<rscale>  1 0.10870586E+04</rscale>
<asrwt>0</asrwt>
<pdfrwt beam="2">  1       21 0.22797933E+00 0.12506748E+04</pdfrwt>
<pdfrwt beam="1">  1        4 0.10039191E+00 0.12506748E+04</pdfrwt>
<totfact> 0.23274638E+00</totfact>
</mgrwt>
</event>
<event>
 6    1  0.1412458E-005  0.9498141E+03  0.7818608E-02  0.9964652E-01
          4   -1    0    0  502    0 -0.00000000000E+00  0.00000000000E+00  0.70909941494E+03  0.70909941494E+03  0.00000000000E+00 0.  1.
         21   -1    0    0  501  502  0.00000000000E+00 -0.00000000000E+00 -0.40934351084E+03  0.40934351084E+03  0.00000000000E+00 0.  1.
    9000010    2    1    2  501    0  0.80814971107E+02 -0.95588479908E+02  0.28900399920E+03  0.99280920551E+03  0.94152991984E+03 0.  0.
        -13    1    3    3    0    0 -0.16576192031E+03 -0.46370550216E+03  0.23760505833E+03  0.54676867308E+03  0.10566000000E+00 0.  1.
          4    1    3    3  501    0  0.24657689142E+03  0.36811702225E+03  0.51398940870E+02  0.44604053243E+03  0.00000000000E+00 0.  1.
         13    1    1    2    0    0 -0.80814971107E+02  0.95588479908E+02  0.10751904903E+02  0.12563372027E+03  0.10566000000E+00 0. -1.
<mgrwt>
<rscale>  1 0.57227727E+03</rscale>
<asrwt>0</asrwt>
<pdfrwt beam="2">  1       21 0.62975925E-01 0.94981409E+03</pdfrwt>
<pdfrwt beam="1">  1        4 0.10909222E+00 0.94981409E+03</pdfrwt>
<totfact> 0.61295216E+01</totfact>
</mgrwt>
</event>
<event>
 6    1  0.1412458E-005  0.1010815E+04  0.7818608E-02  0.9818898E-01
          4   -1    0    0  502    0 -0.00000000000E+00  0.00000000000E+00  0.13788306536E+04  0.13788306536E+04  0.00000000000E+00 0.  1.
         21   -1    0    0  501  502  0.00000000000E+00 -0.00000000000E+00 -0.35333181627E+03  0.35333181627E+03  0.00000000000E+00 0.  1.
    9000010    2    1    2  501    0 -0.15555954488E+03 -0.58258817917E+02  0.40351679640E+03  0.10883810378E+04  0.99707302471E+03 0.  0.
        -13    1    3    3    0    0 -0.47153567623E+03  0.70610918274E+02  0.54043238470E+03  0.72069339482E+03  0.10566000000E+00 0.  1.
          4    1    3    3  501    0  0.31597613135E+03 -0.12886973619E+03 -0.13691558830E+03  0.36768764299E+03  0.00000000000E+00 0.  1.
         13    1    1    2    0    0  0.15555954488E+03  0.58258817917E+02  0.62198204088E+03  0.64378143202E+03  0.10566000000E+00 0. -1.
<mgrwt>
<rscale>  1 0.64358136E+03</rscale>
<asrwt>0</asrwt>
<pdfrwt beam="2">  1       21 0.54358742E-01 0.10108153E+04</pdfrwt>
<pdfrwt beam="1">  1        4 0.21212779E+00 0.10108153E+04</pdfrwt>
<totfact> 0.13719853E+01</totfact>
</mgrwt>
</event>
<event>
 6    1  0.1412458E-005  0.1287473E+04  0.7818608E-02  0.9173800E-01
         21   -1    0    0  501  502  0.00000000000E+00  0.00000000000E+00  0.14217595855E+04  0.14217595855E+04  0.00000000000E+00 0.  1.
          4   -1    0    0  502    0 -0.00000000000E+00 -0.00000000000E+00 -0.75572318684E+03  0.75572318684E+03  0.00000000000E+00 0.  1.
    9000010    2    1    2  501    0  0.72360436198E+03  0.26791588886E+03  0.53782797962E+03  0.13952937887E+04  0.10306326334E+04 0.  0.
        -13    1    3    3    0    0  0.12295961597E+03 -0.38254452946E+03  0.15429655540E+03  0.43042632627E+03  0.10566000000E+00 0.  1.
          4    1    3    3  501    0  0.60064474601E+03  0.65046041832E+03  0.38353142422E+03  0.96486746244E+03  0.00000000000E+00 0.  1.
         13    1    1    2    0    0 -0.72360436198E+03 -0.26791588886E+03  0.12820841899E+03  0.78218898358E+03  0.10566000000E+00 0. -1.
<mgrwt>
<rscale>  1 0.11327993E+04</rscale>
<asrwt>0</asrwt>
<pdfrwt beam="1">  1       21 0.21873224E+00 0.12874726E+04</pdfrwt>
<pdfrwt beam="2">  1        4 0.11626511E+00 0.12874726E+04</pdfrwt>
<totfact> 0.18577853E+00</totfact>
</mgrwt>
</event>
<event>
 6    1  0.1412458E-005  0.1038343E+04  0.7818608E-02  0.9649951E-01
         21   -1    0    0  501  502  0.00000000000E+00  0.00000000000E+00  0.35119865098E+03  0.35119865098E+03  0.00000000000E+00 0.  1.
          4   -1    0    0  502    0 -0.00000000000E+00 -0.00000000000E+00 -0.16101910452E+04  0.16101910452E+04  0.00000000000E+00 0.  1.
    9000010    2    1    2  501    0 -0.26698160381E+03 -0.32625264401E+02 -0.49278477979E+03  0.11493443131E+04  0.10029017530E+04 0.  0.
        -13    1    3    3    0    0 -0.17703546193E+03  0.35655008486E+03  0.12185630866E+03  0.41631537195E+03  0.10566000000E+00 0.  1.
          4    1    3    3  501    0 -0.89946141884E+02 -0.38917534926E+03 -0.61464108845E+03  0.73302894113E+03  0.00000000000E+00 0.  1.
         13    1    1    2    0    0  0.26698160381E+03  0.32625264401E+02 -0.76620761445E+03  0.81204538313E+03  0.10566000000E+00 0. -1.
<mgrwt>
<rscale>  1 0.74076514E+03</rscale>
<asrwt>0</asrwt>
<pdfrwt beam="1">  1       21 0.54030561E-01 0.10383427E+04</pdfrwt>
<pdfrwt beam="2">  1        4 0.24772170E+00 0.10383427E+04</pdfrwt>
<totfact> 0.82615827E+00</totfact>
</mgrwt>
</event>
<event>
 6    1  0.1412458E-005  0.1022637E+04  0.7818608E-02  0.9706535E-01
         21   -1    0    0  501  502  0.00000000000E+00  0.00000000000E+00  0.47695864967E+03  0.47695864967E+03  0.00000000000E+00 0.  1.
          4   -1    0    0  502    0 -0.00000000000E+00 -0.00000000000E+00 -0.84967110331E+03  0.84967110331E+03  0.00000000000E+00 0.  1.
    9000010    2    1    2  501    0  0.69938375248E+02  0.22192532749E+03 -0.21349341620E+03  0.10446848286E+04  0.99581359959E+03 0.  0.
        -13    1    3    3    0    0 -0.33836482542E+03  0.76294830538E+02 -0.43622237499E+03  0.55731645216E+03  0.10566000000E+00 0.  1.
          4    1    3    3  501    0  0.40830320067E+03  0.14563049695E+03  0.22272895878E+03  0.48736837648E+03  0.00000000000E+00 0.  1.
         13    1    1    2    0    0 -0.69938375248E+02 -0.22192532749E+03 -0.15921903743E+03  0.28194492434E+03  0.10566000000E+00 0. -1.
<mgrwt>
<rscale>  1 0.70629029E+03</rscale>
<asrwt>0</asrwt>
<pdfrwt beam="1">  1       21 0.73378255E-01 0.10226373E+04</pdfrwt>
<pdfrwt beam="2">  1        4 0.13071863E+00 0.10226373E+04</pdfrwt>
<totfact> 0.27301587E+01</totfact>
</mgrwt>
</event>
<event>
 6    1  0.1412458E-005  0.9134150E+03  0.7818608E-02  0.1016782E+00
          4   -1    0    0  502    0 -0.00000000000E+00  0.00000000000E+00  0.44326858502E+03  0.44326858502E+03  0.00000000000E+00 0.  1.
         21   -1    0    0  501  502  0.00000000000E+00 -0.00000000000E+00 -0.55777891613E+03  0.55777891613E+03  0.00000000000E+00 0.  1.
    9000010    2    1    2  501    0  0.43532209410E+02  0.60852808420E+02 -0.13532628139E+03  0.92338520335E+03  0.91034549144E+03 0.  0.
        -13    1    3    3    0    0 -0.21699510944E+03 -0.10305788274E+03 -0.43301071504E+03  0.49518289068E+03  0.10566000000E+00 0.  1.
          4    1    3    3  501    0  0.26052731885E+03  0.16391069116E+03  0.29768443364E+03  0.42820231267E+03  0.00000000000E+00 0.  1.
         13    1    1    2    0    0 -0.43532209410E+02 -0.60852808420E+02  0.20815950286E+02  0.77662297797E+02  0.10566000000E+00 0. -1.
<mgrwt>
<rscale>  1 0.48865965E+03</rscale>
<asrwt>0</asrwt>
<pdfrwt beam="2">  1       21 0.85812141E-01 0.91341504E+03</pdfrwt>
<pdfrwt beam="1">  1        4 0.68195167E-01 0.91341504E+03</pdfrwt>
<totfact> 0.90021328E+01</totfact>
</mgrwt>
</event>
<event>
 6    1  0.1412458E-005  0.1020659E+04  0.7818608E-02  0.1005781E+00
         21   -1    0    0  501  502  0.00000000000E+00  0.00000000000E+00  0.10017921301E+04  0.10017921301E+04  0.00000000000E+00 0.  1.
          4   -1    0    0  502    0 -0.00000000000E+00 -0.00000000000E+00 -0.38306623001E+03  0.38306623001E+03  0.00000000000E+00 0.  1.
    9000010    2    1    2  501    0 -0.61071299411E+02  0.43979100079E+02  0.72692289675E+03  0.12530612960E+04  0.10178810583E+04 0.  0.
        -13    1    3    3    0    0  0.27368046765E+03 -0.36494136986E+03  0.50321580428E+03  0.67919758440E+03  0.10566000000E+00 0.  1.
          4    1    3    3  501    0 -0.33475176706E+03  0.40892046994E+03  0.22370709247E+03  0.57386371161E+03  0.00000000000E+00 0.  1.
         13    1    1    2    0    0  0.61071299411E+02 -0.43979100079E+02 -0.10819699665E+03  0.13179706410E+03  0.10566000000E+00 0. -1.
<mgrwt>
<rscale>  1 0.53186310E+03</rscale>
<asrwt>0</asrwt>
<pdfrwt beam="1">  1       21 0.15412186E+00 0.10206595E+04</pdfrwt>
<pdfrwt beam="2">  1        4 0.58933267E-01 0.10206595E+04</pdfrwt>
<totfact> 0.27196080E+01</totfact>
</mgrwt>
</event>
<event>
 6    1  0.1412458E-005  0.9604536E+03  0.7818608E-02  0.9816052E-01
          4   -1    0    0  502    0 -0.00000000000E+00  0.00000000000E+00  0.11359427411E+04  0.11359427411E+04  0.00000000000E+00 0.  1.
         21   -1    0    0  501  502  0.00000000000E+00 -0.00000000000E+00 -0.35401448324E+03  0.35401448324E+03  0.00000000000E+00 0.  1.
    9000010    2    1    2  501    0  0.16601474889E+03  0.10314429863E+03  0.36134257964E+03  0.10261771395E+04  0.94035706975E+03 0.  0.
        -13    1    3    3    0    0  0.32669373446E+03  0.46245199192E+03  0.19458340758E+03  0.59870974156E+03  0.10566000000E+00 0.  1.
          4    1    3    3  501    0 -0.16067898557E+03 -0.35930769329E+03  0.16675917207E+03  0.42746739797E+03  0.00000000000E+00 0.  1.
         13    1    1    2    0    0 -0.16601474889E+03 -0.10314429863E+03  0.42058567824E+03  0.46378008484E+03  0.10566000000E+00 0. -1.
<mgrwt>
<rscale>  1 0.64508168E+03</rscale>
<asrwt>0</asrwt>
<pdfrwt beam="2">  1       21 0.54463767E-01 0.96045357E+03</pdfrwt>
<pdfrwt beam="1">  1        4 0.17476042E+00 0.96045357E+03</pdfrwt>
<totfact> 0.24523046E+01</totfact>
</mgrwt>
</event>
<event>
 6    1  0.1412458E-005  0.1061717E+04  0.7818608E-02  0.9827314E-01
          4   -1    0    0  502    0 -0.00000000000E+00  0.00000000000E+00  0.45756235443E+03  0.45756235443E+03  0.00000000000E+00 0.  1.
         21   -1    0    0  501  502  0.00000000000E+00 -0.00000000000E+00 -0.81350500130E+03  0.81350500130E+03  0.00000000000E+00 0.  1.
    9000010    2    1    2  501    0 -0.63232576345E+02 -0.12429799183E+03 -0.38360754345E+03  0.11288924383E+04  0.10525184276E+04 0.  0.
        -13    1    3    3    0    0  0.30842106199E+03 -0.21290116235E+03  0.20498731499E+03  0.42716538586E+03  0.10566000000E+00 0.  1.
          4    1    3    3  501    0 -0.37165363833E+03  0.88603170528E+02 -0.58859485844E+03  0.70172705242E+03  0.00000000000E+00 0.  1.
         13    1    1    2    0    0  0.63232576345E+02  0.12429799183E+03  0.27664896581E+02  0.14217491744E+03  0.10566000000E+00 0. -1.
<mgrwt>
<rscale>  1 0.63917093E+03</rscale>
<asrwt>0</asrwt>
<pdfrwt beam="2">  1       21 0.12515461E+00 0.10617172E+04</pdfrwt>
<pdfrwt beam="1">  1        4 0.70394209E-01 0.10617172E+04</pdfrwt>
<totfact> 0.32231678E+01</totfact>
</mgrwt>
</event>
<event>
 6    1  0.1412458E-005  0.1053586E+04  0.7818608E-02  0.9581089E-01
          4   -1    0    0  502    0 -0.00000000000E+00  0.00000000000E+00  0.58730076961E+03  0.58730076961E+03  0.00000000000E+00 0.  1.
         21   -1    0    0  501  502  0.00000000000E+00 -0.00000000000E+00 -0.97737117623E+03  0.97737117623E+03  0.00000000000E+00 0.  1.
    9000010    2    1    2  501    0  0.28123532825E+03 -0.16426426982E+03 -0.56442207488E+03  0.11952472910E+04  0.10019819100E+04 0.  0.
        -13    1    3    3    0    0 -0.34514044494E+03 -0.16938298274E+03 -0.56074529769E+02  0.38853170479E+03  0.10566000000E+00 0.  1.
          4    1    3    3  501    0  0.62637577319E+03  0.51187129248E+01 -0.50834754511E+03  0.80671558624E+03  0.00000000000E+00 0.  1.
         13    1    1    2    0    0 -0.28123532825E+03  0.16426426982E+03  0.17435166826E+03  0.36942465481E+03  0.10566000000E+00 0. -1.
<mgrwt>
<rscale>  1 0.78560588E+03</rscale>
<asrwt>0</asrwt>
<pdfrwt beam="2">  1       21 0.15036479E+00 0.10535862E+04</pdfrwt>
<pdfrwt beam="1">  1        4 0.90353966E-01 0.10535862E+04</pdfrwt>
<totfact> 0.11053517E+01</totfact>
</mgrwt>
</event>
<event>
 6    1  0.1412458E-005  0.1052656E+04  0.7818608E-02  0.9580159E-01
         21   -1    0    0  501  502  0.00000000000E+00  0.00000000000E+00  0.11642960003E+04  0.11642960003E+04  0.00000000000E+00 0.  1.
          4   -1    0    0  502    0 -0.00000000000E+00 -0.00000000000E+00 -0.41833634483E+03  0.41833634483E+03  0.00000000000E+00 0.  1.
    9000010    2    1    2  501    0 -0.28165023602E+03 -0.16732426631E+03  0.66520097696E+03  0.12452212593E+04  0.10003796176E+04 0.  0.
        -13    1    3    3    0    0 -0.41170968180E+03 -0.25279007754E+03 -0.74935653885E+02  0.48889983512E+03  0.10566000000E+00 0.  1.
          4    1    3    3  501    0  0.13005944579E+03  0.85465811224E+02  0.74013663085E+03  0.75632142416E+03  0.00000000000E+00 0.  1.
         13    1    1    2    0    0  0.28165023602E+03  0.16732426631E+03  0.80758678521E+02  0.33741108587E+03  0.10566000000E+00 0. -1.
<mgrwt>
<rscale>  1 0.78623424E+03</rscale>
<asrwt>0</asrwt>
<pdfrwt beam="1">  1       21 0.17912246E+00 0.10526555E+04</pdfrwt>
<pdfrwt beam="2">  1        4 0.64359438E-01 0.10526555E+04</pdfrwt>
<totfact> 0.14432900E+01</totfact>
</mgrwt>
</event>
<event>
 6    1  0.1412458E-005  0.9840567E+03  0.7818608E-02  0.9786018E-01
         21   -1    0    0  501  502  0.00000000000E+00  0.00000000000E+00  0.32020426884E+03  0.32020426884E+03  0.00000000000E+00 0.  1.
          4   -1    0    0  502    0 -0.00000000000E+00 -0.00000000000E+00 -0.13375151519E+04  0.13375151519E+04  0.00000000000E+00 0.  1.
    9000010    2    1    2  501    0 -0.16194747333E+03  0.11829639157E+03 -0.50188759528E+03  0.11046532428E+04  0.96340365800E+03 0.  0.
        -13    1    3    3    0    0  0.51024946037E+02  0.51900343301E+03 -0.34143136869E+03  0.62333257518E+03  0.10566000000E+00 0.  1.
          4    1    3    3  501    0 -0.21297241936E+03 -0.40070704144E+03 -0.16045622659E+03  0.48132066766E+03  0.00000000000E+00 0.  1.
         13    1    1    2    0    0  0.16194747333E+03 -0.11829639157E+03 -0.51542328783E+03  0.55306617793E+03  0.10566000000E+00 0. -1.
<mgrwt>
<rscale>  1 0.66118311E+03</rscale>
<asrwt>0</asrwt>
<pdfrwt beam="1">  1       21 0.49262196E-01 0.98405672E+03</pdfrwt>
<pdfrwt beam="2">  1        4 0.20577156E+00 0.98405672E+03</pdfrwt>
<totfact> 0.18742858E+01</totfact>
</mgrwt>
</event>
<event>
 6    1  0.1412458E-005  0.1029376E+04  0.7818608E-02  0.9574926E-01
          4   -1    0    0  502    0 -0.00000000000E+00  0.00000000000E+00  0.10611958862E+04  0.10611958862E+04  0.00000000000E+00 0.  1.
         21   -1    0    0  501  502  0.00000000000E+00 -0.00000000000E+00 -0.46976755279E+03  0.46976755279E+03  0.00000000000E+00 0.  1.
    9000010    2    1    2  501    0  0.34443326248E+03  0.92752824689E+02  0.56262525459E+03  0.11730989573E+04  0.96559651389E+03 0.  0.
        -13    1    3    3    0    0  0.28141253462E+03  0.45852372686E+03  0.50137971614E+02  0.54032476355E+03  0.10566000000E+00 0.  1.
          4    1    3    3  501    0  0.63020727852E+02 -0.36577090217E+03  0.51248728298E+03  0.63277419372E+03  0.00000000000E+00 0.  1.
         13    1    1    2    0    0 -0.34443326248E+03 -0.92752824689E+02  0.28803078848E+02  0.35786448176E+03  0.10566000000E+00 0. -1.
<mgrwt>
<rscale>  1 0.78978207E+03</rscale>
<asrwt>0</asrwt>
<pdfrwt beam="2">  1       21 0.72271932E-01 0.10293755E+04</pdfrwt>
<pdfrwt beam="1">  1        4 0.16326090E+00 0.10293755E+04</pdfrwt>
<totfact> 0.15615951E+01</totfact>
</mgrwt>
</event>
<event>
 6    1  0.1412458E-005  0.1089300E+04  0.7818608E-02  0.9930023E-01
         21   -1    0    0  501  502  0.00000000000E+00  0.00000000000E+00  0.14747533525E+04  0.14747533525E+04  0.00000000000E+00 0.  1.
          4   -1    0    0  502    0 -0.00000000000E+00 -0.00000000000E+00 -0.45625345951E+03  0.45625345951E+03  0.00000000000E+00 0.  1.
    9000010    2    1    2  501    0 -0.38188542757E+01  0.92581847369E+02  0.12639934453E+04  0.16686081125E+04  0.10853513815E+04 0.  0.
        -13    1    3    3    0    0 -0.45217322780E+03  0.23593534104E+03  0.10153738107E+04  0.11362702583E+04  0.10566000000E+00 0.  1.
          4    1    3    3  501    0  0.44835437353E+03 -0.14335349367E+03  0.24861963455E+03  0.53233785427E+03  0.00000000000E+00 0.  1.
         13    1    1    2    0    0  0.38188542757E+01 -0.92581847369E+02 -0.24549355230E+03  0.26239869949E+03  0.10566000000E+00 0. -1.
<mgrwt>
<rscale>  1 0.58828033E+03</rscale>
<asrwt>0</asrwt>
<pdfrwt beam="1">  1       21 0.22688513E+00 0.10892996E+04</pdfrwt>
<pdfrwt beam="2">  1        4 0.70192840E-01 0.10892996E+04</pdfrwt>
<totfact> 0.55628196E+00</totfact>
</mgrwt>
</event>
<event>
 6    1  0.1412458E-005  0.8982926E+03  0.7818608E-02  0.9936885E-01
         21   -1    0    0  501  502  0.00000000000E+00  0.00000000000E+00  0.40606257369E+03  0.40606257369E+03  0.00000000000E+00 0.  1.
          4   -1    0    0  502    0 -0.00000000000E+00 -0.00000000000E+00 -0.75767022136E+03  0.75767022136E+03  0.00000000000E+00 0.  1.
    9000010    2    1    2  501    0  0.15939935523E+03 -0.26853572493E+02 -0.15895401907E+03  0.91224780429E+03  0.88362911193E+03 0.  0.
        -13    1    3    3    0    0  0.73362513028E+02  0.21900467816E+03 -0.45965297367E+03  0.51441809332E+03  0.10566000000E+00 0.  1.
          4    1    3    3  501    0  0.86036842204E+02 -0.24585825065E+03  0.30069895460E+03  0.39782971097E+03  0.00000000000E+00 0.  1.
         13    1    1    2    0    0 -0.15939935523E+03  0.26853572493E+02 -0.19265362860E+03  0.25148499077E+03  0.10566000000E+00 0. -1.
<mgrwt>
<rscale>  1 0.58506526E+03</rscale>
<asrwt>0</asrwt>
<pdfrwt beam="1">  1       21 0.62471166E-01 0.89829265E+03</pdfrwt>
<pdfrwt beam="2">  1        4 0.11656465E+00 0.89829265E+03</pdfrwt>
<totfact> 0.53226139E+01</totfact>
</mgrwt>
</event>
<event>
 6    1  0.1412458E-005  0.1024277E+04  0.7818608E-02  0.9624313E-01
         21   -1    0    0  501  502  0.00000000000E+00  0.00000000000E+00  0.92185003554E+03  0.92185003554E+03  0.00000000000E+00 0.  1.
          4   -1    0    0  502    0 -0.00000000000E+00 -0.00000000000E+00 -0.51505095470E+03  0.51505095470E+03  0.00000000000E+00 0.  1.
    9000010    2    1    2  501    0 -0.24673681591E+03 -0.18049463128E+03  0.46635325321E+03  0.11254462120E+04  0.97759217017E+03 0.  0.
        -13    1    3    3    0    0 -0.54594312790E+03  0.15823026880E+03  0.30843013298E+03  0.64669921522E+03  0.10566000000E+00 0.  1.
          4    1    3    3  501    0  0.29920631199E+03 -0.33872490008E+03  0.15792312024E+03  0.47874699683E+03  0.00000000000E+00 0.  1.
         13    1    1    2    0    0  0.24673681591E+03  0.18049463128E+03 -0.59554172377E+02  0.31145477819E+03  0.10566000000E+00 0. -1.
<mgrwt>
<rscale>  1 0.75707662E+03</rscale>
<asrwt>0</asrwt>
<pdfrwt beam="1">  1       21 0.14182308E+00 0.10242772E+04</pdfrwt>
<pdfrwt beam="2">  1        4 0.79238608E-01 0.10242772E+04</pdfrwt>
<totfact> 0.17688263E+01</totfact>
</mgrwt>
</event>
<event>
 6    1  0.1412458E-005  0.1105175E+04  0.7818608E-02  0.9426165E-01
          4   -1    0    0  502    0 -0.00000000000E+00  0.00000000000E+00  0.49526856665E+03  0.49526856665E+03  0.00000000000E+00 0.  1.
         21   -1    0    0  501  502  0.00000000000E+00 -0.00000000000E+00 -0.14081093604E+04  0.14081093604E+04  0.00000000000E+00 0.  1.
    9000010    2    1    2  501    0  0.40336630293E+03  0.26936309520E+03 -0.88795832319E+03  0.14177031388E+04  0.99305153677E+03 0.  0.
        -13    1    3    3    0    0  0.14885344700E+03  0.58921077457E+03 -0.24380072314E+03  0.65480187028E+03  0.10566000000E+00 0.  1.
          4    1    3    3  501    0  0.25451285593E+03 -0.31984767937E+03 -0.64415760005E+03  0.76290126854E+03  0.00000000000E+00 0.  1.
         13    1    1    2    0    0 -0.40336630293E+03 -0.26936309520E+03 -0.24882470525E+02  0.48567478820E+03  0.10566000000E+00 0. -1.
<mgrwt>
<rscale>  1 0.89953291E+03</rscale>
<asrwt>0</asrwt>
<pdfrwt beam="2">  1       21 0.21663221E+00 0.11051752E+04</pdfrwt>
<pdfrwt beam="1">  1        4 0.76195164E-01 0.11051752E+04</pdfrwt>
<totfact> 0.53894181E+00</totfact>
</mgrwt>
</event>
<event>
 6    1  0.1412458E-005  0.1162196E+04  0.7818608E-02  0.9298595E-01
         21   -1    0    0  501  502  0.00000000000E+00  0.00000000000E+00  0.35852014981E+03  0.35852014981E+03  0.00000000000E+00 0. -1.
          4   -1    0    0  502    0 -0.00000000000E+00 -0.00000000000E+00 -0.23469614455E+04  0.23469614455E+04  0.00000000000E+00 0.  1.
    9000010    2    1    2  501    0  0.52066996354E+03 -0.40656505381E+03 -0.14116296269E+04  0.18284958107E+04  0.95619368982E+03 0.  0.
        -13    1    3    3    0    0  0.59725983061E+03 -0.47446118134E+03 -0.50204649316E+03  0.91317216905E+03  0.10566000000E+00 0.  1.
          4    1    3    3  501    0 -0.76589867074E+02  0.67896127530E+02 -0.90958313372E+03  0.91532364169E+03  0.00000000000E+00 0.  1.
         13    1    1    2    0    0 -0.52066996354E+03  0.40656505381E+03 -0.57681166878E+03  0.87698578456E+03  0.10566000000E+00 0. -1.
<mgrwt>
<rscale>  1 0.10091231E+04</rscale>
<asrwt>0</asrwt>
<pdfrwt beam="1">  1       21 0.55156948E-01 0.11621956E+04</pdfrwt>
<pdfrwt beam="2">  1        4 0.36107098E+00 0.11621956E+04</pdfrwt>
<totfact> 0.15073972E+00</totfact>
</mgrwt>
</event>
<event>
 6    1  0.1412458E-005  0.1094519E+04  0.7818608E-02  0.9434877E-01
          4   -1    0    0  502    0 -0.00000000000E+00  0.00000000000E+00  0.42119957269E+03  0.42119957269E+03  0.00000000000E+00 0.  1.
         21   -1    0    0  501  502  0.00000000000E+00 -0.00000000000E+00 -0.15192160176E+04  0.15192160176E+04  0.00000000000E+00 0.  1.
    9000010    2    1    2  501    0 -0.38383815803E+03  0.29504307110E+03 -0.90126376519E+03  0.14178318425E+04  0.98162549565E+03 0.  0.
        -13    1    3    3    0    0  0.19613695421E+03  0.44835295312E+03 -0.47431449362E+03  0.68151619600E+03  0.10566000000E+00 0.  1.
          4    1    3    3  501    0 -0.57997511224E+03 -0.15330988203E+03 -0.42694927156E+03  0.73631564647E+03  0.00000000000E+00 0.  1.
         13    1    1    2    0    0  0.38383815803E+03 -0.29504307110E+03 -0.19675267974E+03  0.52258374785E+03  0.10566000000E+00 0. -1.
<mgrwt>
<rscale>  1 0.89260209E+03</rscale>
<asrwt>0</asrwt>
<pdfrwt beam="2">  1       21 0.23372555E+00 0.10945185E+04</pdfrwt>
<pdfrwt beam="1">  1        4 0.64799933E-01 0.10945185E+04</pdfrwt>
<totfact> 0.59933141E+00</totfact>
</mgrwt>
</event>
<event>
 6    1  0.1412458E-005  0.1092322E+04  0.7818608E-02  0.9482129E-01
          4   -1    0    0  502    0 -0.00000000000E+00  0.00000000000E+00  0.96625088507E+03  0.96625088507E+03  0.00000000000E+00 0.  1.
         21   -1    0    0  501  502  0.00000000000E+00 -0.00000000000E+00 -0.59326790912E+03  0.59326790912E+03  0.00000000000E+00 0.  1.
    9000010    2    1    2  501    0  0.38899307101E+03  0.13643062210E+03  0.34849919291E+03  0.11465679609E+04  0.10115520142E+04 0.  0.
        -13    1    3    3    0    0  0.54362792075E+02 -0.19568154484E+03 -0.28927690556E+03  0.35345115562E+03  0.10566000000E+00 0.  1.
          4    1    3    3  501    0  0.33463027893E+03  0.33211216694E+03  0.63777609847E+03  0.79311680526E+03  0.00000000000E+00 0.  1.
         13    1    1    2    0    0 -0.38899307101E+03 -0.13643062210E+03  0.24483783041E+02  0.41295083332E+03  0.10566000000E+00 0. -1.
<mgrwt>
<rscale>  1 0.85614308E+03</rscale>
<asrwt>0</asrwt>
<pdfrwt beam="2">  1       21 0.91271986E-01 0.10923216E+04</pdfrwt>
<pdfrwt beam="1">  1        4 0.14865398E+00 0.10923216E+04</pdfrwt>
<totfact> 0.11539420E+01</totfact>
</mgrwt>
</event>
<event>
 6    1  0.1412458E-005  0.1021257E+04  0.7818608E-02  0.9717876E-01
          4   -1    0    0  502    0 -0.00000000000E+00  0.00000000000E+00  0.48691678924E+03  0.48691678924E+03  0.00000000000E+00 0.  1.
         21   -1    0    0  501  502  0.00000000000E+00 -0.00000000000E+00 -0.96201542394E+03  0.96201542394E+03  0.00000000000E+00 0.  1.
    9000010    2    1    2  501    0 -0.19586476499E+03  0.11059796174E+03 -0.60714564147E+03  0.11881040351E+04  0.99617792238E+03 0.  0.
        -13    1    3    3    0    0  0.34198136037E+03 -0.19116341241E+03 -0.14624271277E+03  0.41818852601E+03  0.10566000000E+00 0.  1.
          4    1    3    3  501    0 -0.53784612536E+03  0.30176137416E+03 -0.46090292870E+03  0.76991550912E+03  0.00000000000E+00 0.  1.
         13    1    1    2    0    0  0.19586476499E+03 -0.11059796174E+03  0.13204700677E+03  0.26082817805E+03  0.10566000000E+00 0. -1.
<mgrwt>
<rscale>  1 0.69962381E+03</rscale>
<asrwt>0</asrwt>
<pdfrwt beam="2">  1       21 0.14800237E+00 0.10212568E+04</pdfrwt>
<pdfrwt beam="1">  1        4 0.74910276E-01 0.10212568E+04</pdfrwt>
<totfact> 0.17881682E+01</totfact>
</mgrwt>
</event>
<event>
 6    1  0.1412458E-005  0.9937554E+03  0.7818608E-02  0.1024322E+00
          4   -1    0    0  502    0 -0.00000000000E+00  0.00000000000E+00  0.44584320402E+03  0.44584320402E+03  0.00000000000E+00 0.  1.
         21   -1    0    0  501  502  0.00000000000E+00 -0.00000000000E+00 -0.95288889297E+03  0.95288889297E+03  0.00000000000E+00 0.  1.
    9000010    2    1    2  501    0 -0.46256968125E+02 -0.17087386768E+00 -0.69013422368E+03  0.12098904728E+04  0.99267818213E+03 0.  0.
        -13    1    3    3    0    0 -0.38175533620E+02  0.47301977241E+03 -0.16369499982E+03  0.50199715198E+03  0.10566000000E+00 0.  1.
          4    1    3    3  501    0 -0.80814345052E+01 -0.47319064628E+03 -0.52643922385E+03  0.70789332086E+03  0.00000000000E+00 0.  1.
         13    1    1    2    0    0  0.46256968125E+02  0.17087386768E+00  0.18308853473E+03  0.18884162415E+03  0.10566000000E+00 0. -1.
<mgrwt>
<rscale>  1 0.46158844E+03</rscale>
<asrwt>0</asrwt>
<pdfrwt beam="2">  1       21 0.14659829E+00 0.99375536E+03</pdfrwt>
<pdfrwt beam="1">  1        4 0.68591262E-01 0.99375536E+03</pdfrwt>
<totfact> 0.22453121E+01</totfact>
</mgrwt>
</event>
<event>
 6    1  0.1412458E-005  0.1011650E+04  0.7818608E-02  0.9806203E-01
          4   -1    0    0  502    0 -0.00000000000E+00  0.00000000000E+00  0.54557986023E+03  0.54557986023E+03  0.00000000000E+00 0.  1.
         21   -1    0    0  501  502  0.00000000000E+00 -0.00000000000E+00 -0.64340705195E+03  0.64340705195E+03  0.00000000000E+00 0.  1.
    9000010    2    1    2  501    0  0.38538683398E+02 -0.16838183886E+03 -0.96542874534E+02  0.10162462557E+04  0.99679398663E+03 0.  0.
        -13    1    3    3    0    0  0.43027912580E+02 -0.17935403919E+03 -0.54102776656E+03  0.57160329599E+03  0.10566000000E+00 0.  1.
          4    1    3    3  501    0 -0.44892291825E+01  0.10972200325E+02  0.44448489203E+03  0.44464295969E+03  0.00000000000E+00 0.  1.
         13    1    1    2    0    0 -0.38538683398E+02  0.16838183886E+03 -0.12843171880E+01  0.17274065651E+03  0.10566000000E+00 0. -1.
<mgrwt>
<rscale>  1 0.65030694E+03</rscale>
<asrwt>0</asrwt>
<pdfrwt beam="2">  1       21 0.98985700E-01 0.10116501E+04</pdfrwt>
<pdfrwt beam="1">  1        4 0.83935363E-01 0.10116501E+04</pdfrwt>
<totfact> 0.39400777E+01</totfact>
</mgrwt>
</event>
<event>
 6    1  0.1412458E-005  0.9955644E+03  0.7818608E-02  0.9828402E-01
         21   -1    0    0  501  502  0.00000000000E+00  0.00000000000E+00  0.14385458962E+04  0.14385458962E+04  0.00000000000E+00 0.  1.
          4   -1    0    0  502    0 -0.00000000000E+00 -0.00000000000E+00 -0.40710899584E+03  0.40710899584E+03  0.00000000000E+00 0.  1.
    9000010    2    1    2  501    0 -0.49301008505E+02 -0.16117373302E+03  0.12318069145E+04  0.15838234283E+04  0.98119356694E+03 0.  0.
        -13    1    3    3    0    0  0.49855399923E+02  0.32542200558E+03  0.94012095529E+02  0.34237892442E+03  0.10566000000E+00 0.  1.
          4    1    3    3  501    0 -0.99156408428E+02 -0.48659573860E+03  0.11377948190E+04  0.12414445039E+04  0.00000000000E+00 0.  1.
         13    1    1    2    0    0  0.49301008505E+02  0.16117373302E+03 -0.20037001416E+03  0.26183146372E+03  0.10566000000E+00 0. -1.
<mgrwt>
<rscale>  1 0.63860346E+03</rscale>
<asrwt>0</asrwt>
<pdfrwt beam="1">  1       21 0.22131475E+00 0.99556435E+03</pdfrwt>
<pdfrwt beam="2">  1        4 0.62632154E-01 0.99556435E+03</pdfrwt>
<totfact> 0.78980536E+00</totfact>
</mgrwt>
</event>
<event>
 6    1  0.1412458E-005  0.1109732E+04  0.7818608E-02  0.9407902E-01
          4   -1    0    0  502    0 -0.00000000000E+00  0.00000000000E+00  0.11635098824E+04  0.11635098824E+04  0.00000000000E+00 0.  1.
         21   -1    0    0  501  502  0.00000000000E+00 -0.00000000000E+00 -0.75047380834E+03  0.75047380834E+03  0.00000000000E+00 0.  1.
    9000010    2    1    2  501    0 -0.48606047396E+03 -0.15862316565E+03 -0.18730116104E+03  0.11254274784E+04  0.98493105909E+03 0.  0.
        -13    1    3    3    0    0 -0.19862344418E+03 -0.51822329428E+03 -0.32722794165E+03  0.64427074454E+03  0.10566000000E+00 0.  1.
          4    1    3    3  501    0 -0.28743702978E+03  0.35960012863E+03  0.13992678061E+03  0.48115673385E+03  0.00000000000E+00 0.  1.
         13    1    1    2    0    0  0.48606047396E+03  0.15862316565E+03  0.60033723513E+03  0.78855621238E+03  0.10566000000E+00 0. -1.
<mgrwt>
<rscale>  1 0.91428195E+03</rscale>
<asrwt>0</asrwt>
<pdfrwt beam="2">  1       21 0.11545751E+00 0.11097321E+04</pdfrwt>
<pdfrwt beam="1">  1        4 0.17900152E+00 0.11097321E+04</pdfrwt>
<totfact> 0.38182495E+00</totfact>
</mgrwt>
</event>
<event>
 6    1  0.1412458E-005  0.1018381E+04  0.7818608E-02  0.9953092E-01
         21   -1    0    0  501  502  0.00000000000E+00  0.00000000000E+00  0.59052758161E+03  0.59052758161E+03  0.00000000000E+00 0.  1.
          4   -1    0    0  502    0 -0.00000000000E+00 -0.00000000000E+00 -0.53621289487E+03  0.53621289487E+03  0.00000000000E+00 0.  1.
    9000010    2    1    2  501    0 -0.10457158474E+03 -0.12815557805E+02  0.67230873360E+02  0.10205976769E+04  0.10129166663E+04 0.  0.
        -13    1    3    3    0    0  0.30610908560E+03 -0.22421683222E+03 -0.25521450413E+03  0.45728592196E+03  0.10566000000E+00 0.  1.
          4    1    3    3  501    0 -0.41068067034E+03  0.21140127442E+03  0.32244537749E+03  0.56331175496E+03  0.00000000000E+00 0.  1.
         13    1    1    2    0    0  0.10457158474E+03  0.12815557805E+02 -0.12916186624E+02  0.10614279955E+03  0.10566000000E+00 0. -1.
<mgrwt>
<rscale>  1 0.57755778E+03</rscale>
<asrwt>0</asrwt>
<pdfrwt beam="1">  1       21 0.90850397E-01 0.10183809E+04</pdfrwt>
<pdfrwt beam="2">  1        4 0.82494292E-01 0.10183809E+04</pdfrwt>
<totfact> 0.50548943E+01</totfact>
</mgrwt>
</event>
<event>
 6    1  0.1412458E-005  0.1799543E+04  0.7818608E-02  0.8751042E-01
          4   -1    0    0  502    0 -0.00000000000E+00  0.00000000000E+00  0.25894178893E+04  0.25894178893E+04  0.00000000000E+00 0.  1.
         21   -1    0    0  501  502  0.00000000000E+00 -0.00000000000E+00 -0.12440989519E+04  0.12440989519E+04  0.00000000000E+00 0. -1.
    9000010    2    1    2  501    0 -0.75104186972E+03  0.12933885230E+04 -0.32695127355E+02  0.17998402358E+04  0.10007188125E+04 0.  0.
        -13    1    3    3    0    0 -0.89009611154E+03  0.59115020841E+03  0.94752757679E+02  0.10727104702E+04  0.10566000000E+00 0.  1.
          4    1    3    3  501    0  0.13905424183E+03  0.70223831458E+03 -0.12744788503E+03  0.72712976561E+03  0.00000000000E+00 0.  1.
         13    1    1    2    0    0  0.75104186972E+03 -0.12933885230E+04  0.13780140648E+04  0.20336766054E+04  0.10566000000E+00 0. -1.
<mgrwt>
<rscale>  1 0.17182168E+04</rscale>
<asrwt>0</asrwt>
<pdfrwt beam="2">  1       21 0.19139984E+00 0.17995432E+04</pdfrwt>
<pdfrwt beam="1">  1        4 0.39837198E+00 0.17995432E+04</pdfrwt>
<totfact> 0.31666913E-02</totfact>
</mgrwt>
</event>
<event>
 6    1  0.1412458E-005  0.1027867E+04  0.7818608E-02  0.9718837E-01
         21   -1    0    0  501  502  0.00000000000E+00  0.00000000000E+00  0.11136539303E+04  0.11136539303E+04  0.00000000000E+00 0. -1.
          4   -1    0    0  502    0 -0.00000000000E+00 -0.00000000000E+00 -0.53887299269E+03  0.53887299269E+03  0.00000000000E+00 0.  1.
    9000010    2    1    2  501    0  0.34516554780E+02  0.21718820709E+03 -0.98380368911E+01  0.10279138697E+04  0.10040657482E+04 0.  0.
        -13    1    3    3    0    0  0.13270201050E+03 -0.26240060996E+03 -0.33075572523E+03  0.44256441863E+03  0.10566000000E+00 0.  1.
          4    1    3    3  501    0 -0.98185455720E+02  0.47958881705E+03  0.32091768834E+03  0.58534945105E+03  0.00000000000E+00 0.  1.
         13    1    1    2    0    0 -0.34516554780E+02 -0.21718820709E+03  0.58461897450E+03  0.62461305331E+03  0.10566000000E+00 0. -1.
<mgrwt>
<rscale>  1 0.69906224E+03</rscale>
<asrwt>0</asrwt>
<pdfrwt beam="1">  1       21 0.17133137E+00 0.10278668E+04</pdfrwt>
<pdfrwt beam="2">  1        4 0.82903538E-01 0.10278668E+04</pdfrwt>
<totfact> 0.93246648E+00</totfact>
</mgrwt>
</event>
<event>
 6    1  0.1412458E-005  0.1079784E+04  0.7818608E-02  0.9472677E-01
         21   -1    0    0  501  502  0.00000000000E+00  0.00000000000E+00  0.26116102646E+04  0.26116102646E+04  0.00000000000E+00 0.  1.
          4   -1    0    0  502    0 -0.00000000000E+00 -0.00000000000E+00 -0.38578762042E+03  0.38578762042E+03  0.00000000000E+00 0.  1.
    9000010    2    1    2  501    0 -0.43858546357E+03  0.47705085215E+02  0.23084961779E+04  0.25485461185E+04  0.98554539759E+03 0.  0.
        -13    1    3    3    0    0  0.31278704413E+03  0.95074533035E+02  0.70126483932E+03  0.77372300459E+03  0.10566000000E+00 0.  1.
          4    1    3    3  501    0 -0.75137250770E+03 -0.47369447820E+02  0.16072313386E+04  0.17748231139E+04  0.00000000000E+00 0.  1.
         13    1    1    2    0    0  0.43858546357E+03 -0.47705085215E+02 -0.82673533676E+02  0.44885176656E+03  0.10566000000E+00 0. -1.
<mgrwt>
<rscale>  1 0.86328584E+03</rscale>
<asrwt>0</asrwt>
<pdfrwt beam="1">  1       21 0.40178618E+00 0.10797836E+04</pdfrwt>
<pdfrwt beam="2">  1        4 0.59351943E-01 0.10797836E+04</pdfrwt>
<totfact> 0.62562710E-01</totfact>
</mgrwt>
</event>
<event>
 6    1  0.1412458E-005  0.1054449E+04  0.7818608E-02  0.9626876E-01
          4   -1    0    0  502    0 -0.00000000000E+00  0.00000000000E+00  0.15725669608E+03  0.15725669608E+03  0.00000000000E+00 0.  1.
         21   -1    0    0  501  502  0.00000000000E+00 -0.00000000000E+00 -0.28271588946E+04  0.28271588946E+04  0.00000000000E+00 0. -1.
    9000010    2    1    2  501    0 -0.13228315330E+03 -0.24425277634E+03 -0.21657991536E+04  0.24088479210E+04  0.10172040508E+04 0.  0.
        -13    1    3    3    0    0  0.44493774532E+03 -0.80922094800E+02 -0.10108067300E+04  0.11073609345E+04  0.10566000000E+00 0.  1.
          4    1    3    3  501    0 -0.57722089862E+03 -0.16333068154E+03 -0.11549924237E+04  0.13014869865E+04  0.00000000000E+00 0.  1.
         13    1    1    2    0    0  0.13228315330E+03  0.24425277634E+03 -0.50410304487E+03  0.57556766970E+03  0.10566000000E+00 0. -1.
<mgrwt>
<rscale>  1 0.75542601E+03</rscale>
<asrwt>0</asrwt>
<pdfrwt beam="2">  1       21 0.43494753E+00 0.10544488E+04</pdfrwt>
<pdfrwt beam="1">  1        4 0.24193338E-01 0.10544488E+04</pdfrwt>
<totfact> 0.23344751E+00</totfact>
</mgrwt>
</event>
<event>
 6    1  0.1412458E-005  0.1093877E+04  0.7818608E-02  0.9474327E-01
         21   -1    0    0  501  502  0.00000000000E+00  0.00000000000E+00  0.99134847713E+03  0.99134847713E+03  0.00000000000E+00 0.  1.
          4   -1    0    0  502    0 -0.00000000000E+00 -0.00000000000E+00 -0.58966753282E+03  0.58966753282E+03  0.00000000000E+00 0.  1.
    9000010    2    1    2  501    0  0.27213533936E+03 -0.32237586433E+03  0.19459928523E+03  0.11110514735E+04  0.10092485591E+04 0.  0.
        -13    1    3    3    0    0 -0.16255091532E+02 -0.27392923199E+03 -0.37858651324E+03  0.46757802698E+03  0.10566000000E+00 0.  1.
          4    1    3    3  501    0  0.28839043089E+03 -0.48446632336E+02  0.57318579846E+03  0.64347344652E+03  0.00000000000E+00 0.  1.
         13    1    1    2    0    0 -0.27213533936E+03  0.32237586433E+03  0.20708165909E+03  0.46996453646E+03  0.10566000000E+00 0. -1.
<mgrwt>
<rscale>  1 0.86203310E+03</rscale>
<asrwt>0</asrwt>
<pdfrwt beam="1">  1       21 0.15251515E+00 0.10938768E+04</pdfrwt>
<pdfrwt beam="2">  1        4 0.90718082E-01 0.10938768E+04</pdfrwt>
<totfact> 0.10475822E+01</totfact>
</mgrwt>
</event>
<event>
 6    1  0.1412458E-005  0.1043332E+04  0.7818608E-02  0.9675956E-01
         21   -1    0    0  501  502  0.00000000000E+00  0.00000000000E+00  0.88799126989E+03  0.88799126989E+03  0.00000000000E+00 0.  1.
          4   -1    0    0  502    0 -0.00000000000E+00 -0.00000000000E+00 -0.50818065932E+03  0.50818065932E+03  0.00000000000E+00 0.  1.
    9000010    2    1    2  501    0 -0.22468118964E+03  0.92086334382E+02  0.46030128262E+03  0.11403589323E+04  0.10146820653E+04 0.  0.
        -13    1    3    3    0    0  0.39765530143E+03  0.93323995893E+02  0.26978386360E+03  0.48951246275E+03  0.10566000000E+00 0.  1.
          4    1    3    3  501    0 -0.62233649107E+03 -0.12376615113E+01  0.19051741902E+03  0.65084646951E+03  0.00000000000E+00 0.  1.
         13    1    1    2    0    0  0.22468118964E+03 -0.92086334382E+02 -0.80490672054E+02  0.25581299695E+03  0.10566000000E+00 0. -1.
<mgrwt>
<rscale>  1 0.72466608E+03</rscale>
<asrwt>0</asrwt>
<pdfrwt beam="1">  1       21 0.13661404E+00 0.10433318E+04</pdfrwt>
<pdfrwt beam="2">  1        4 0.78181640E-01 0.10433318E+04</pdfrwt>
<totfact> 0.20159097E+01</totfact>
</mgrwt>
</event>
<event>
 6    1  0.1412458E-005  0.1004205E+04  0.7818608E-02  0.9901986E-01
          4   -1    0    0  502    0 -0.00000000000E+00  0.00000000000E+00  0.21180583621E+03  0.21180583621E+03  0.00000000000E+00 0.  1.
         21   -1    0    0  501  502  0.00000000000E+00 -0.00000000000E+00 -0.15795153504E+04  0.15795153504E+04  0.00000000000E+00 0.  1.
    9000010    2    1    2  501    0 -0.30830398034E+02  0.12566688569E+03 -0.10738288556E+04  0.14702160134E+04  0.99583333712E+03 0.  0.
        -13    1    3    3    0    0  0.17361237669E+03  0.50122970814E+03 -0.80851835638E+03  0.96699246193E+03  0.10566000000E+00 0.  1.
          4    1    3    3  501    0 -0.20444277473E+03 -0.37556282245E+03 -0.26531049917E+03  0.50322355143E+03  0.00000000000E+00 0.  1.
         13    1    1    2    0    0  0.30830398034E+02 -0.12566688569E+03 -0.29388065861E+03  0.32110517322E+03  0.10566000000E+00 0. -1.
<mgrwt>
<rscale>  1 0.60165127E+03</rscale>
<asrwt>0</asrwt>
<pdfrwt beam="2">  1       21 0.24300237E+00 0.10042045E+04</pdfrwt>
<pdfrwt beam="1">  1        4 0.32585513E-01 0.10042045E+04</pdfrwt>
<totfact> 0.22212257E+01</totfact>
</mgrwt>
</event>
<event>
 6    1  0.1412458E-005  0.9989636E+03  0.7818608E-02  0.9961218E-01
         21   -1    0    0  501  502  0.00000000000E+00  0.00000000000E+00  0.32453494902E+04  0.32453494902E+04  0.00000000000E+00 0.  1.
          4   -1    0    0  502    0 -0.00000000000E+00 -0.00000000000E+00 -0.22985584208E+03  0.22985584208E+03  0.00000000000E+00 0.  1.
    9000010    2    1    2  501    0 -0.62470094977E+02  0.89042754496E+02  0.31486208969E+04  0.33032925624E+04  0.99302420665E+03 0.  0.
        -13    1    3    3    0    0 -0.39684590720E+02 -0.42974462299E+03  0.93833913165E+03  0.10328289524E+04  0.10566000000E+00 0.  1.
          4    1    3    3  501    0 -0.22785504257E+02  0.51878737749E+03  0.22102817653E+04  0.22704636100E+04  0.00000000000E+00 0.  1.
         13    1    1    2    0    0  0.62470094977E+02 -0.89042754496E+02 -0.13312724886E+03  0.17191276988E+03  0.10566000000E+00 0. -1.
<mgrwt>
<rscale>  1 0.57383964E+03</rscale>
<asrwt>0</asrwt>
<pdfrwt beam="1">  1       21 0.49928451E+00 0.99896356E+03</pdfrwt>
<pdfrwt beam="2">  1        4 0.35362439E-01 0.99896356E+03</pdfrwt>
<totfact> 0.40054135E-01</totfact>
</mgrwt>
</event>
<event>
 6    1  0.1412458E-005  0.1020893E+04  0.7818608E-02  0.9650266E-01
         21   -1    0    0  501  502  0.00000000000E+00  0.00000000000E+00  0.16081843599E+04  0.16081843599E+04  0.00000000000E+00 0.  1.
          4   -1    0    0  502    0 -0.00000000000E+00 -0.00000000000E+00 -0.35959082941E+03  0.35959082941E+03  0.00000000000E+00 0.  1.
    9000010    2    1    2  501    0 -0.16515317728E+02  0.28221189591E+03  0.13271390015E+04  0.16743715219E+04  0.98097184161E+03 0.  0.
        -13    1    3    3    0    0 -0.19105452490E+03  0.48826433122E+03  0.13014708106E+04  0.14031144538E+04  0.10566000000E+00 0.  1.
          4    1    3    3  501    0  0.17453920717E+03 -0.20605243531E+03  0.25668190935E+02  0.27125706804E+03  0.00000000000E+00 0.  1.
         13    1    1    2    0    0  0.16515317728E+02 -0.28221189591E+03 -0.78545470966E+02  0.29340366747E+03  0.10566000000E+00 0. -1.
<mgrwt>
<rscale>  1 0.74056730E+03</rscale>
<asrwt>0</asrwt>
<pdfrwt beam="1">  1       21 0.24741297E+00 0.10208928E+04</pdfrwt>
<pdfrwt beam="2">  1        4 0.55321667E-01 0.10208928E+04</pdfrwt>
<totfact> 0.69815976E+00</totfact>
</mgrwt>
</event>
<event>
 6    1  0.1412458E-005  0.1069937E+04  0.7818608E-02  0.9521710E-01
          4   -1    0    0  502    0 -0.00000000000E+00  0.00000000000E+00  0.41492049632E+03  0.41492049632E+03  0.00000000000E+00 0.  1.
         21   -1    0    0  501  502  0.00000000000E+00 -0.00000000000E+00 -0.18053171149E+04  0.18053171149E+04  0.00000000000E+00 0.  1.
    9000010    2    1    2  501    0 -0.35129646411E+03  0.14988249418E+03 -0.14816235617E+04  0.18275592007E+04  0.99944498888E+03 0.  0.
        -13    1    3    3    0    0 -0.29325961203E+03  0.57119884262E+03 -0.82869430403E+03  0.10483337153E+04  0.10566000000E+00 0.  1.
          4    1    3    3  501    0 -0.58036852075E+02 -0.42131634844E+03 -0.65292925764E+03  0.77922548543E+03  0.00000000000E+00 0.  1.
         13    1    1    2    0    0  0.35129646411E+03 -0.14988249418E+03  0.91226943124E+02  0.39267841050E+03  0.10566000000E+00 0. -1.
<mgrwt>
<rscale>  1 0.82701950E+03</rscale>
<asrwt>0</asrwt>
<pdfrwt beam="2">  1       21 0.27774110E+00 0.10699366E+04</pdfrwt>
<pdfrwt beam="1">  1        4 0.63833922E-01 0.10699366E+04</pdfrwt>
<totfact> 0.32661208E+00</totfact>
</mgrwt>
</event>
<event>
 6    1  0.1412458E-005  0.9471797E+03  0.7818608E-02  0.1008375E+00
          4   -1    0    0  502    0 -0.00000000000E+00  0.00000000000E+00  0.13511251661E+04  0.13511251661E+04  0.00000000000E+00 0.  1.
         21   -1    0    0  501  502  0.00000000000E+00 -0.00000000000E+00 -0.19853639770E+03  0.19853639770E+03  0.00000000000E+00 0.  1.
    9000010    2    1    2  501    0  0.10587716637E+02 -0.86230729981E+02  0.10287019280E+04  0.13983479856E+04  0.94318693470E+03 0.  0.
        -13    1    3    3    0    0  0.35513922371E+03  0.19933775360E+03  0.79557558370E+03  0.89375607901E+03  0.10566000000E+00 0.  1.
          4    1    3    3  501    0 -0.34455150707E+03 -0.28556848358E+03  0.23312634426E+03  0.50459190662E+03  0.00000000000E+00 0.  1.
         13    1    1    2    0    0 -0.10587716637E+02  0.86230729981E+02  0.12388684043E+03  0.15131357815E+03  0.10566000000E+00 0. -1.
<mgrwt>
<rscale>  1 0.52125736E+03</rscale>
<asrwt>0</asrwt>
<pdfrwt beam="2">  1       21 0.30544062E-01 0.94717973E+03</pdfrwt>
<pdfrwt beam="1">  1        4 0.20786540E+00 0.94717973E+03</pdfrwt>
<totfact> 0.49383952E+01</totfact>
</mgrwt>
</event>
<event>
 6    1  0.1412458E-005  0.1060384E+04  0.7818608E-02  0.9626960E-01
          4   -1    0    0  502    0 -0.00000000000E+00  0.00000000000E+00  0.39117532574E+03  0.39117532574E+03  0.00000000000E+00 0.  1.
         21   -1    0    0  501  502  0.00000000000E+00 -0.00000000000E+00 -0.15199419140E+04  0.15199419140E+04  0.00000000000E+00 0.  1.
    9000010    2    1    2  501    0  0.37684909538E+01 -0.27303170986E+03 -0.12262844564E+04  0.16211685168E+04  0.10246234801E+04 0.  0.
        -13    1    3    3    0    0 -0.67117375364E+02 -0.48896432344E+03 -0.12932584102E+04  0.13842355935E+04  0.10566000000E+00 0.  1.
          4    1    3    3  501    0  0.70885866318E+02  0.21593261358E+03  0.66973953819E+02  0.23693292330E+03  0.00000000000E+00 0.  1.
         13    1    1    2    0    0 -0.37684909538E+01  0.27303170986E+03  0.97517868176E+02  0.28994872287E+03  0.10566000000E+00 0. -1.
<mgrwt>
<rscale>  1 0.75537209E+03</rscale>
<asrwt>0</asrwt>
<pdfrwt beam="2">  1       21 0.23383722E+00 0.10603838E+04</pdfrwt>
<pdfrwt beam="1">  1        4 0.60180819E-01 0.10603838E+04</pdfrwt>
<totfact> 0.70717126E+00</totfact>
</mgrwt>
</event>
<event>
 6    1  0.1412458E-005  0.1016336E+04  0.7818608E-02  0.9547053E-01
          4   -1    0    0  502    0 -0.00000000000E+00  0.00000000000E+00  0.62030776532E+03  0.62030776532E+03  0.00000000000E+00 0.  1.
         21   -1    0    0  501  502  0.00000000000E+00 -0.00000000000E+00 -0.87446135246E+03  0.87446135246E+03  0.00000000000E+00 0.  1.
    9000010    2    1    2  501    0  0.35277177633E+03 -0.20509688656E+03 -0.35124224828E+03  0.10753184314E+04  0.93082004319E+03 0.  0.
        -13    1    3    3    0    0  0.44305034159E+03 -0.51657393108E+03 -0.31200016015E+03  0.74865635812E+03  0.10566000000E+00 0.  1.
          4    1    3    3  501    0 -0.90278565262E+02  0.31147704453E+03 -0.39242088128E+02  0.32666207324E+03  0.00000000000E+00 0.  1.
         13    1    1    2    0    0 -0.35277177633E+03  0.20509688656E+03  0.97088661138E+02  0.41945068641E+03  0.10566000000E+00 0. -1.
<mgrwt>
<rscale>  1 0.80901924E+03</rscale>
<asrwt>0</asrwt>
<pdfrwt beam="2">  1       21 0.13453252E+00 0.10163359E+04</pdfrwt>
<pdfrwt beam="1">  1        4 0.95431964E-01 0.10163359E+04</pdfrwt>
<totfact> 0.13227628E+01</totfact>
</mgrwt>
</event>
<event>
 6    1  0.1412458E-005  0.9822707E+03  0.7818608E-02  0.1007296E+00
          4   -1    0    0  502    0 -0.00000000000E+00  0.00000000000E+00  0.94102764243E+03  0.94102764243E+03  0.00000000000E+00 0.  1.
         21   -1    0    0  501  502  0.00000000000E+00 -0.00000000000E+00 -0.30516021670E+03  0.30516021670E+03  0.00000000000E+00 0.  1.
    9000010    2    1    2  501    0 -0.80414605932E+02  0.46252331131E+01  0.53980035131E+03  0.11208212145E+04  0.97896265200E+03 0.  0.
        -13    1    3    3    0    0 -0.44569088710E+02 -0.10500525569E+03  0.81472991177E+03  0.82267694005E+03  0.10566000000E+00 0.  1.
          4    1    3    3  501    0 -0.35845517222E+02  0.10963048881E+03 -0.27492956046E+03  0.29814427447E+03  0.00000000000E+00 0.  1.
         13    1    1    2    0    0  0.80414605932E+02 -0.46252331131E+01  0.96067074425E+02  0.12536664461E+03  0.10566000000E+00 0. -1.
<mgrwt>
<rscale>  1 0.52563772E+03</rscale>
<asrwt>0</asrwt>
<pdfrwt beam="2">  1       21 0.46947726E-01 0.98227072E+03</pdfrwt>
<pdfrwt beam="1">  1        4 0.14477348E+00 0.98227072E+03</pdfrwt>
<totfact> 0.56598834E+01</totfact>
</mgrwt>
</event>
<event>
 6    1  0.1412458E-005  0.1011026E+04  0.7818608E-02  0.9913468E-01
         21   -1    0    0  501  502  0.00000000000E+00  0.00000000000E+00  0.22778268428E+04  0.22778268428E+04  0.00000000000E+00 0.  1.
          4   -1    0    0  502    0 -0.00000000000E+00 -0.00000000000E+00 -0.22320360849E+03  0.22320360849E+03  0.00000000000E+00 0.  1.
    9000010    2    1    2  501    0 -0.11252035706E+03  0.47669198250E+02  0.21297778015E+04  0.23575682495E+04  0.10036141610E+04 0.  0.
        -13    1    3    3    0    0 -0.36787629188E+03 -0.36629302441E+03  0.97643823084E+03  0.11058639951E+04  0.10566000000E+00 0.  1.
          4    1    3    3  501    0  0.25535593482E+03  0.41396222266E+03  0.11533395706E+04  0.12517042544E+04  0.00000000000E+00 0.  1.
         13    1    1    2    0    0  0.11252035706E+03 -0.47669198250E+02 -0.75154567176E+02  0.14346220180E+03  0.10566000000E+00 0. -1.
<mgrwt>
<rscale>  1 0.59613002E+03</rscale>
<asrwt>0</asrwt>
<pdfrwt beam="1">  1       21 0.35043488E+00 0.10110265E+04</pdfrwt>
<pdfrwt beam="2">  1        4 0.34339018E-01 0.10110265E+04</pdfrwt>
<totfact> 0.42440105E+00</totfact>
</mgrwt>
</event>
<event>
 6    1  0.1412458E-005  0.1012879E+04  0.7818608E-02  0.9838889E-01
          4   -1    0    0  502    0 -0.00000000000E+00  0.00000000000E+00  0.11081461024E+04  0.11081461024E+04  0.00000000000E+00 0.  1.
         21   -1    0    0  501  502  0.00000000000E+00 -0.00000000000E+00 -0.30775821990E+03  0.30775821990E+03  0.00000000000E+00 0.  1.
    9000010    2    1    2  501    0 -0.11828147438E+03 -0.99656666118E+02  0.68114684936E+03  0.12206086658E+04  0.10010007624E+04 0.  0.
        -13    1    3    3    0    0  0.82777347571E+02 -0.25949176951E+03  0.86361093351E+03  0.90554509736E+03  0.10566000000E+00 0.  1.
          4    1    3    3  501    0 -0.20105882195E+03  0.15983510340E+03 -0.18246408415E+03  0.31506356846E+03  0.00000000000E+00 0.  1.
         13    1    1    2    0    0  0.11828147438E+03  0.99656666118E+02  0.11924103310E+03  0.19529565643E+03  0.10566000000E+00 0. -1.
<mgrwt>
<rscale>  1 0.63316644E+03</rscale>
<asrwt>0</asrwt>
<pdfrwt beam="2">  1       21 0.47347419E-01 0.10128793E+04</pdfrwt>
<pdfrwt beam="1">  1        4 0.17048401E+00 0.10128793E+04</pdfrwt>
<totfact> 0.35458594E+01</totfact>
</mgrwt>
</event>
<event>
 6    1  0.1412458E-005  0.1053373E+04  0.7818608E-02  0.9964643E-01
          4   -1    0    0  502    0 -0.00000000000E+00  0.00000000000E+00  0.30655447485E+03  0.30655447485E+03  0.00000000000E+00 0.  1.
         21   -1    0    0  501  502  0.00000000000E+00 -0.00000000000E+00 -0.10764023634E+04  0.10764023634E+04  0.00000000000E+00 0.  1.
    9000010    2    1    2  501    0 -0.84329924649E+01  0.91379708566E+02 -0.73652415450E+03  0.12853256500E+04  0.10493678240E+04 0.  0.
        -13    1    3    3    0    0  0.13751076017E+03 -0.24867139409E+03  0.15240509359E+03  0.32244998855E+03  0.10566000000E+00 0.  1.
          4    1    3    3  501    0 -0.14594375264E+03  0.34005110265E+03 -0.88892924809E+03  0.96287566148E+03  0.00000000000E+00 0.  1.
         13    1    1    2    0    0  0.84329924649E+01 -0.91379708566E+02 -0.33323734053E+02  0.97631188228E+02  0.10566000000E+00 0. -1.
<mgrwt>
<rscale>  1 0.57228117E+03</rscale>
<asrwt>0</asrwt>
<pdfrwt beam="2">  1       21 0.16560036E+00 0.10533728E+04</pdfrwt>
<pdfrwt beam="1">  1        4 0.47162228E-01 0.10533728E+04</pdfrwt>
<totfact> 0.35480852E+01</totfact>
</mgrwt>
</event>
<event>
 6    1  0.1412458E-005  0.9762780E+03  0.7818608E-02  0.9744621E-01
         21   -1    0    0  501  502  0.00000000000E+00  0.00000000000E+00  0.10595020733E+03  0.10595020733E+03  0.00000000000E+00 0.  1.
          4   -1    0    0  502    0 -0.00000000000E+00 -0.00000000000E+00 -0.36562874144E+04  0.36562874144E+04  0.00000000000E+00 0.  1.
    9000010    2    1    2  501    0 -0.23535237107E+03 -0.90503441377E+01 -0.24577282558E+04  0.26445314980E+04  0.94744182811E+03 0.  0.
        -13    1    3    3    0    0 -0.20454290204E+03 -0.30122383007E+03 -0.22629059952E+04  0.22920115944E+04  0.10566000000E+00 0.  1.
          4    1    3    3  501    0 -0.30809469038E+02  0.29217348593E+03 -0.19482226059E+03  0.35251990367E+03  0.00000000000E+00 0.  1.
         13    1    1    2    0    0  0.23535237107E+03  0.90503441377E+01 -0.10926089513E+04  0.11177061237E+04  0.10566000000E+00 0. -1.
<mgrwt>
<rscale>  1 0.68421090E+03</rscale>
<asrwt>0</asrwt>
<pdfrwt beam="1">  1       21 0.16300030E-01 0.97627797E+03</pdfrwt>
<pdfrwt beam="2">  1        4 0.56250582E+00 0.97627797E+03</pdfrwt>
<totfact> 0.54391437E-01</totfact>
</mgrwt>
</event>
<event>
 6    1  0.1412458E-005  0.1010298E+04  0.7818608E-02  0.9818281E-01
          4   -1    0    0  502    0 -0.00000000000E+00  0.00000000000E+00  0.11525469410E+04  0.11525469410E+04  0.00000000000E+00 0.  1.
         21   -1    0    0  501  502  0.00000000000E+00 -0.00000000000E+00 -0.32310074270E+03  0.32310074270E+03  0.00000000000E+00 0.  1.
    9000010    2    1    2  501    0 -0.12439481829E+03 -0.11097621588E+03  0.55012959944E+03  0.11503669359E+04  0.99644955705E+03 0.  0.
        -13    1    3    3    0    0  0.21309375485E+03  0.36675096231E+03  0.25927122553E+03  0.49712855105E+03  0.10566000000E+00 0.  1.
          4    1    3    3  501    0 -0.33748857315E+03 -0.47772717819E+03  0.29085837390E+03  0.65323838486E+03  0.00000000000E+00 0.  1.
         13    1    1    2    0    0  0.12439481829E+03  0.11097621588E+03  0.27931659883E+03  0.32528074775E+03  0.10566000000E+00 0. -1.
<mgrwt>
<rscale>  1 0.64390636E+03</rscale>
<asrwt>0</asrwt>
<pdfrwt beam="2">  1       21 0.49707807E-01 0.10102977E+04</pdfrwt>
<pdfrwt beam="1">  1        4 0.17731491E+00 0.10102977E+04</pdfrwt>
<totfact> 0.28559946E+01</totfact>
</mgrwt>
</event>
<event>
 6    1  0.1412458E-005  0.1022234E+04  0.7818608E-02  0.9735994E-01
         21   -1    0    0  501  502  0.00000000000E+00  0.00000000000E+00  0.39896523392E+03  0.39896523392E+03  0.00000000000E+00 0.  1.
          4   -1    0    0  502    0 -0.00000000000E+00 -0.00000000000E+00 -0.96310121723E+03  0.96310121723E+03  0.00000000000E+00 0.  1.
    9000010    2    1    2  501    0 -0.20607824106E+03 -0.45947547398E+02 -0.51782756127E+03  0.11459093331E+04  0.10001916806E+04 0.  0.
        -13    1    3    3    0    0 -0.43622947672E+02 -0.13307366790E+03 -0.79818416160E+03  0.81037616552E+03  0.10566000000E+00 0.  1.
          4    1    3    3  501    0 -0.16245529339E+03  0.87126120503E+02  0.28035660033E+03  0.33553316762E+03  0.00000000000E+00 0.  1.
         13    1    1    2    0    0  0.20607824106E+03  0.45947547398E+02 -0.46308422039E+02  0.21615711801E+03  0.10566000000E+00 0. -1.
<mgrwt>
<rscale>  1 0.68913559E+03</rscale>
<asrwt>0</asrwt>
<pdfrwt beam="1">  1       21 0.61379267E-01 0.10222342E+04</pdfrwt>
<pdfrwt beam="2">  1        4 0.14816942E+00 0.10222342E+04</pdfrwt>
<totfact> 0.29500435E+01</totfact>
</mgrwt>
</event>
<event>
 6    1  0.1412458E-005  0.1016309E+04  0.7818608E-02  0.1003133E+00
          4   -1    0    0  502    0 -0.00000000000E+00  0.00000000000E+00  0.11168709836E+04  0.11168709836E+04  0.00000000000E+00 0.  1.
         21   -1    0    0  501  502  0.00000000000E+00 -0.00000000000E+00 -0.34843277046E+03  0.34843277046E+03  0.00000000000E+00 0.  1.
    9000010    2    1    2  501    0  0.18557048909E+02 -0.80696487682E+02  0.40745288067E+03  0.10949435124E+04  0.10129299868E+04 0.  0.
        -13    1    3    3    0    0 -0.19351853740E+03  0.41034075164E+03  0.61245733277E+02  0.45779909107E+03  0.10566000000E+00 0.  1.
          4    1    3    3  501    0  0.21207558631E+03 -0.49103723932E+03  0.34620714739E+03  0.63714442132E+03  0.00000000000E+00 0.  1.
         13    1    1    2    0    0 -0.18557048909E+02  0.80696487682E+02  0.36098533243E+03  0.37036024163E+03  0.10566000000E+00 0. -1.
<mgrwt>
<rscale>  1 0.54297578E+03</rscale>
<asrwt>0</asrwt>
<pdfrwt beam="2">  1       21 0.53605042E-01 0.10163087E+04</pdfrwt>
<pdfrwt beam="1">  1        4 0.17182630E+00 0.10163087E+04</pdfrwt>
<totfact> 0.26498758E+01</totfact>
</mgrwt>
</event>
<event>
 6    1  0.1412458E-005  0.1060135E+04  0.7818608E-02  0.9563865E-01
          4   -1    0    0  502    0 -0.00000000000E+00  0.00000000000E+00  0.15243790987E+04  0.15243790987E+04  0.00000000000E+00 0.  1.
         21   -1    0    0  501  502  0.00000000000E+00 -0.00000000000E+00 -0.42240159965E+03  0.42240159965E+03  0.00000000000E+00 0.  1.
    9000010    2    1    2  501    0 -0.90878483239E+02 -0.32683962602E+03  0.34102662673E+03  0.11136364845E+04  0.10043923634E+04 0.  0.
        -13    1    3    3    0    0 -0.50033594120E+02  0.34200326119E+03 -0.31295765622E+02  0.34705767145E+03  0.10566000000E+00 0.  1.
          4    1    3    3  501    0 -0.40844889119E+02 -0.66884288721E+03  0.37232239235E+03  0.76657881303E+03  0.00000000000E+00 0.  1.
         13    1    1    2    0    0  0.90878483239E+02  0.32683962602E+03  0.76095087233E+03  0.83314421388E+03  0.10566000000E+00 0. -1.
<mgrwt>
<rscale>  1 0.79734711E+03</rscale>
<asrwt>0</asrwt>
<pdfrwt beam="2">  1       21 0.64984862E-01 0.10601354E+04</pdfrwt>
<pdfrwt beam="1">  1        4 0.23451986E+00 0.10601354E+04</pdfrwt>
<totfact> 0.66034557E+00</totfact>
</mgrwt>
</event>
<event>
 6    1  0.1412458E-005  0.1169086E+04  0.7818608E-02  0.9450987E-01
         21   -1    0    0  501  502  0.00000000000E+00  0.00000000000E+00  0.10528103831E+04  0.10528103831E+04  0.00000000000E+00 0.  1.
          4   -1    0    0  502    0 -0.00000000000E+00 -0.00000000000E+00 -0.80622823599E+03  0.80622823599E+03  0.00000000000E+00 0.  1.
    9000010    2    1    2  501    0  0.35700281705E+03 -0.11556009722E+03  0.62538296962E+03  0.13258452003E+04  0.11072291945E+04 0.  0.
        -13    1    3    3    0    0  0.10365681866E+03  0.24175413044E+03  0.80915821341E+03  0.85083889258E+03  0.10566000000E+00 0.  1.
          4    1    3    3  501    0  0.25334599839E+03 -0.35731422765E+03 -0.18377524378E+03  0.47500630776E+03  0.00000000000E+00 0.  1.
         13    1    1    2    0    0 -0.35700281705E+03  0.11556009722E+03 -0.37880082253E+03  0.53319341872E+03  0.10566000000E+00 0. -1.
<mgrwt>
<rscale>  1 0.87995834E+03</rscale>
<asrwt>0</asrwt>
<pdfrwt beam="1">  1       21 0.16197083E+00 0.11690858E+04</pdfrwt>
<pdfrwt beam="2">  1        4 0.12403511E+00 0.11690858E+04</pdfrwt>
<totfact> 0.40667759E+00</totfact>
</mgrwt>
</event>
<event>
 6    1  0.1412458E-005  0.1169972E+04  0.7818608E-02  0.9316090E-01
          4   -1    0    0  502    0 -0.00000000000E+00  0.00000000000E+00  0.24063375725E+04  0.24063375725E+04  0.00000000000E+00 0.  1.
         21   -1    0    0  501  502  0.00000000000E+00 -0.00000000000E+00 -0.39416381552E+03  0.39416381552E+03  0.00000000000E+00 0.  1.
    9000010    2    1    2  501    0  0.60232565033E+03  0.78970187959E+02  0.18195049050E+04  0.21631994366E+04  0.99990060682E+03 0.  0.
        -13    1    3    3    0    0  0.21552503036E+03  0.10897994080E+03  0.17530233648E+04  0.17695814745E+04  0.10566000000E+00 0.  1.
          4    1    3    3  501    0  0.38680061997E+03 -0.30009752841E+02  0.66481540176E+02  0.39361796206E+03  0.00000000000E+00 0.  1.
         13    1    1    2    0    0 -0.60232565033E+03 -0.78970187959E+02  0.19266885199E+03  0.63730195145E+03  0.10566000000E+00 0. -1.
<mgrwt>
<rscale>  1 0.99314952E+03</rscale>
<asrwt>0</asrwt>
<pdfrwt beam="2">  1       21 0.60640589E-01 0.11699717E+04</pdfrwt>
<pdfrwt beam="1">  1        4 0.37020577E+00 0.11699717E+04</pdfrwt>
<totfact> 0.10612046E+00</totfact>
</mgrwt>
</event>
<event>
 6    1  0.1412458E-005  0.1101154E+04  0.7818608E-02  0.9444650E-01
          4   -1    0    0  502    0 -0.00000000000E+00  0.00000000000E+00  0.16370941734E+04  0.16370941734E+04  0.00000000000E+00 0.  1.
         21   -1    0    0  501  502  0.00000000000E+00 -0.00000000000E+00 -0.52029009295E+03  0.52029009295E+03  0.00000000000E+00 0.  1.
    9000010    2    1    2  501    0  0.35253263900E+03  0.29432300885E+03  0.18231136751E+03  0.11161436905E+04  0.10008166705E+04 0.  0.
        -13    1    3    3    0    0 -0.84110461036E+02 -0.53418849345E+02  0.47536664710E+03  0.48569702847E+03  0.10566000000E+00 0.  1.
          4    1    3    3  501    0  0.43664310004E+03  0.34774185819E+03 -0.29305527960E+03  0.63044666202E+03  0.00000000000E+00 0.  1.
         13    1    1    2    0    0 -0.35253263900E+03 -0.29432300885E+03  0.93449271292E+03  0.10412405758E+04  0.10566000000E+00 0. -1.
<mgrwt>
<rscale>  1 0.88490546E+03</rscale>
<asrwt>0</asrwt>
<pdfrwt beam="2">  1       21 0.80044631E-01 0.11011536E+04</pdfrwt>
<pdfrwt beam="1">  1        4 0.25186064E+00 0.11011536E+04</pdfrwt>
<totfact> 0.31654639E+00</totfact>
</mgrwt>
</event>
<event>
 6    1  0.1412458E-005  0.1008706E+04  0.7818608E-02  0.9823659E-01
         21   -1    0    0  501  502  0.00000000000E+00  0.00000000000E+00  0.14572847826E+04  0.14572847826E+04  0.00000000000E+00 0.  1.
          4   -1    0    0  502    0 -0.00000000000E+00 -0.00000000000E+00 -0.25299852849E+03  0.25299852849E+03  0.00000000000E+00 0.  1.
    9000010    2    1    2  501    0 -0.78020754117E+02  0.14490412234E+03  0.11651431830E+04  0.15411187937E+04  0.99519046257E+03 0.  0.
        -13    1    3    3    0    0 -0.69699505416E+02  0.15920780665E+03 -0.14775547989E+03  0.22811584722E+03  0.10566000000E+00 0.  1.
          4    1    3    3  501    0 -0.83212487016E+01 -0.14303684305E+02  0.13128986629E+04  0.13130029465E+04  0.00000000000E+00 0.  1.
         13    1    1    2    0    0  0.78020754117E+02 -0.14490412234E+03  0.39143071085E+02  0.16916451733E+03  0.10566000000E+00 0. -1.
<mgrwt>
<rscale>  1 0.64108199E+03</rscale>
<asrwt>0</asrwt>
<pdfrwt beam="1">  1       21 0.22419765E+00 0.10087063E+04</pdfrwt>
<pdfrwt beam="2">  1        4 0.38922851E-01 0.10087063E+04</pdfrwt>
<totfact> 0.20578897E+01</totfact>
</mgrwt>
</event>
<event>
 6    1  0.1412458E-005  0.9818933E+03  0.7818608E-02  0.9894452E-01
         21   -1    0    0  501  502  0.00000000000E+00  0.00000000000E+00  0.23513762591E+03  0.23513762591E+03  0.00000000000E+00 0.  1.
          4   -1    0    0  502    0 -0.00000000000E+00 -0.00000000000E+00 -0.14811937035E+04  0.14811937035E+04  0.00000000000E+00 0.  1.
    9000010    2    1    2  501    0 -0.11452694107E+03 -0.83632815326E+02 -0.86075672558E+03  0.13057628578E+04  0.97159849333E+03 0.  0.
        -13    1    3    3    0    0  0.29818173972E+03 -0.32493956252E+03 -0.18560156258E+03  0.47848304086E+03  0.10566000000E+00 0.  1.
          4    1    3    3  501    0 -0.41270868079E+03  0.24130674720E+03 -0.67515516300E+03  0.82727981697E+03  0.00000000000E+00 0.  1.
         13    1    1    2    0    0  0.11452694107E+03  0.83632815326E+02 -0.38529935200E+03  0.41056847157E+03  0.10566000000E+00 0. -1.
<mgrwt>
<rscale>  1 0.60530897E+03</rscale>
<asrwt>0</asrwt>
<pdfrwt beam="1">  1       21 0.36175020E-01 0.98189332E+03</pdfrwt>
<pdfrwt beam="2">  1        4 0.22787595E+00 0.98189332E+03</pdfrwt>
<totfact> 0.25946745E+01</totfact>
</mgrwt>
</event>
<event>
 6    1  0.1412458E-005  0.1102446E+04  0.7818608E-02  0.9568123E-01
         21   -1    0    0  501  502  0.00000000000E+00  0.00000000000E+00  0.42414551604E+03  0.42414551604E+03  0.00000000000E+00 0.  1.
          4   -1    0    0  502    0 -0.00000000000E+00 -0.00000000000E+00 -0.14101780143E+04  0.14101780143E+04  0.00000000000E+00 0.  1.
    9000010    2    1    2  501    0 -0.29620137217E+03 -0.25076667818E+02 -0.39199804406E+03  0.11700637648E+04  0.10616132323E+04 0.  0.
        -13    1    3    3    0    0  0.34448357828E+03 -0.18709557702E+03  0.17882919910E+02  0.39242005636E+03  0.10566000000E+00 0.  1.
          4    1    3    3  501    0 -0.64068495045E+03  0.16201890921E+03 -0.40988096397E+03  0.77764370845E+03  0.00000000000E+00 0.  1.
         13    1    1    2    0    0  0.29620137217E+03  0.25076667818E+02 -0.59403445417E+03  0.66425976549E+03  0.10566000000E+00 0. -1.
<mgrwt>
<rscale>  1 0.79442412E+03</rscale>
<asrwt>0</asrwt>
<pdfrwt beam="1">  1       21 0.65253155E-01 0.11024458E+04</pdfrwt>
<pdfrwt beam="2">  1        4 0.21695047E+00 0.11024458E+04</pdfrwt>
<totfact> 0.84156678E+00</totfact>
</mgrwt>
</event>
<event>
 6    1  0.1412458E-005  0.1050720E+04  0.7818608E-02  0.9594288E-01
         21   -1    0    0  501  502  0.00000000000E+00  0.00000000000E+00  0.12131680393E+04  0.12131680393E+04  0.00000000000E+00 0.  1.
          4   -1    0    0  502    0 -0.00000000000E+00 -0.00000000000E+00 -0.46920877152E+03  0.46920877152E+03  0.00000000000E+00 0.  1.
    9000010    2    1    2  501    0  0.24422617411E+03  0.19706016815E+03  0.84962607165E+03  0.13512505228E+04  0.10027633718E+04 0.  0.
        -13    1    3    3    0    0 -0.21556372932E+03  0.92454520699E+02 -0.12701289081E+03  0.26673553455E+03  0.10566000000E+00 0.  1.
          4    1    3    3  501    0  0.45978990343E+03  0.10460564745E+03  0.97663896247E+03  0.10845149883E+04  0.00000000000E+00 0.  1.
         13    1    1    2    0    0 -0.24422617411E+03 -0.19706016815E+03 -0.10566680388E+03  0.33112628799E+03  0.10566000000E+00 0. -1.
<mgrwt>
<rscale>  1 0.77675388E+03</rscale>
<asrwt>0</asrwt>
<pdfrwt beam="1">  1       21 0.18664124E+00 0.10507205E+04</pdfrwt>
<pdfrwt beam="2">  1        4 0.72185965E-01 0.10507205E+04</pdfrwt>
<totfact> 0.98655139E+00</totfact>
</mgrwt>
</event>
<event>
 6    1  0.1412458E-005  0.1064460E+04  0.7818608E-02  0.9562299E-01
         21   -1    0    0  501  502  0.00000000000E+00  0.00000000000E+00  0.82780634063E+03  0.82780634063E+03  0.00000000000E+00 0.  1.
          4   -1    0    0  502    0 -0.00000000000E+00 -0.00000000000E+00 -0.85737824365E+03  0.85737824365E+03  0.00000000000E+00 0.  1.
    9000010    2    1    2  501    0  0.26675786586E+03 -0.20583297107E+03  0.40184374449E+03  0.11377848738E+04  0.10097272171E+04 0.  0.
        -13    1    3    3    0    0  0.64109306449E+03 -0.53320271166E+02  0.14682167661E+03  0.65984845574E+03  0.10566000000E+00 0.  1.
          4    1    3    3  501    0 -0.37433519863E+03 -0.15251269991E+03  0.25502206788E+03  0.47793641803E+03  0.00000000000E+00 0.  1.
         13    1    1    2    0    0 -0.26675786586E+03  0.20583297107E+03 -0.43141564751E+03  0.54739971050E+03  0.10566000000E+00 0. -1.
<mgrwt>
<rscale>  1 0.79842574E+03</rscale>
<asrwt>0</asrwt>
<pdfrwt beam="1">  1       21 0.12735482E+00 0.10644604E+04</pdfrwt>
<pdfrwt beam="2">  1        4 0.13190435E+00 0.10644604E+04</pdfrwt>
<totfact> 0.68236113E+00</totfact>
</mgrwt>
</event>
<event>
 6    1  0.1412458E-005  0.1620181E+04  0.7818608E-02  0.8870362E-01
          4   -1    0    0  502    0 -0.00000000000E+00  0.00000000000E+00  0.17348111673E+04  0.17348111673E+04  0.00000000000E+00 0.  1.
         21   -1    0    0  501  502  0.00000000000E+00 -0.00000000000E+00 -0.17105994088E+04  0.17105994088E+04  0.00000000000E+00 0. -1.
    9000010    2    1    2  501    0  0.50467764325E+03  0.11541454736E+04 -0.92728402599E+03  0.18667733357E+04  0.10189385281E+04 0.  0.
        -13    1    3    3    0    0  0.72377859931E+03  0.11281252480E+04 -0.95304674595E+03  0.16446337426E+04  0.10566000000E+00 0.  1.
          4    1    3    3  501    0 -0.21910095606E+03  0.26020225551E+02  0.25762719954E+02  0.22213959310E+03  0.00000000000E+00 0.  1.
         13    1    1    2    0    0 -0.50467764325E+03 -0.11541454736E+04  0.95149578446E+03  0.15786372404E+04  0.10566000000E+00 0. -1.
<mgrwt>
<rscale>  1 0.15213751E+04</rscale>
<asrwt>0</asrwt>
<pdfrwt beam="2">  1       21 0.26316914E+00 0.16201812E+04</pdfrwt>
<pdfrwt beam="1">  1        4 0.26689403E+00 0.16201812E+04</pdfrwt>
<totfact> 0.76755113E-02</totfact>
</mgrwt>
</event>
<event>
 6    1  0.1412458E-005  0.1024428E+04  0.7818608E-02  0.9724930E-01
          4   -1    0    0  502    0 -0.00000000000E+00  0.00000000000E+00  0.92705362282E+03  0.92705362282E+03  0.00000000000E+00 0.  1.
         21   -1    0    0  501  502  0.00000000000E+00 -0.00000000000E+00 -0.42129920280E+03  0.42129920280E+03  0.00000000000E+00 0.  1.
    9000010    2    1    2  501    0 -0.12286845786E+03  0.17966814532E+03  0.35758436060E+03  0.10850437334E+04  0.10010374758E+04 0.  0.
        -13    1    3    3    0    0 -0.51245376114E+03  0.13104925255E+03  0.43504252007E+03  0.68486843213E+03  0.10566000000E+00 0.  1.
          4    1    3    3  501    0  0.38958530328E+03  0.48618892768E+02 -0.77458159468E+02  0.40017530125E+03  0.00000000000E+00 0.  1.
         13    1    1    2    0    0  0.12286845786E+03 -0.17966814532E+03  0.14817005943E+03  0.26330909224E+03  0.10566000000E+00 0. -1.
<mgrwt>
<rscale>  1 0.69551656E+03</rscale>
<asrwt>0</asrwt>
<pdfrwt beam="2">  1       21 0.64815262E-01 0.10244283E+04</pdfrwt>
<pdfrwt beam="1">  1        4 0.14262363E+00 0.10244283E+04</pdfrwt>
<totfact> 0.28881556E+01</totfact>
</mgrwt>
</event>
<event>
 6    1  0.1412458E-005  0.9187079E+03  0.7818608E-02  0.9943583E-01
         21   -1    0    0  501  502  0.00000000000E+00  0.00000000000E+00  0.64800787390E+03  0.64800787390E+03  0.00000000000E+00 0.  1.
          4   -1    0    0  502    0 -0.00000000000E+00 -0.00000000000E+00 -0.43892434357E+03  0.43892434357E+03  0.00000000000E+00 0.  1.
    9000010    2    1    2  501    0 -0.14789162981E+03  0.24439412931E+01  0.17822001680E+03  0.93583465082E+03  0.90672278689E+03 0.  0.
        -13    1    3    3    0    0  0.26456679842E+03 -0.17027026836E+03 -0.18036409315E+03  0.36265517007E+03  0.10566000000E+00 0.  1.
          4    1    3    3  501    0 -0.41245842824E+03  0.17271420966E+03  0.35858410995E+03  0.57317948075E+03  0.00000000000E+00 0.  1.
         13    1    1    2    0    0  0.14789162981E+03 -0.24439412931E+01  0.30863513524E+02  0.15109756665E+03  0.10566000000E+00 0. -1.
<mgrwt>
<rscale>  1 0.58194759E+03</rscale>
<asrwt>0</asrwt>
<pdfrwt beam="1">  1       21 0.99693519E-01 0.91870785E+03</pdfrwt>
<pdfrwt beam="2">  1        4 0.67526822E-01 0.91870785E+03</pdfrwt>
<totfact> 0.63939568E+01</totfact>
</mgrwt>
</event>
<event>
 6    1  0.1412458E-005  0.9994623E+03  0.7818608E-02  0.1001926E+00
          4   -1    0    0  502    0 -0.00000000000E+00  0.00000000000E+00  0.10129344565E+04  0.10129344565E+04  0.00000000000E+00 0.  1.
         21   -1    0    0  501  502  0.00000000000E+00 -0.00000000000E+00 -0.30465679580E+03  0.30465679580E+03  0.00000000000E+00 0.  1.
    9000010    2    1    2  501    0  0.51198883659E+02 -0.74525191553E+02  0.56482451989E+03  0.11480207813E+04  0.99536407718E+03 0.  0.
        -13    1    3    3    0    0  0.24471457380E+03  0.14796526401E+03 -0.18615637443E+03  0.34122301928E+03  0.10566000000E+00 0.  1.
          4    1    3    3  501    0 -0.19351569014E+03 -0.22249045556E+03  0.75098089432E+03  0.80679776201E+03  0.00000000000E+00 0.  1.
         13    1    1    2    0    0 -0.51198883659E+02  0.74525191553E+02  0.14345314083E+03  0.16957047102E+03  0.10566000000E+00 0. -1.
<mgrwt>
<rscale>  1 0.54813567E+03</rscale>
<asrwt>0</asrwt>
<pdfrwt beam="2">  1       21 0.46870277E-01 0.99946234E+03</pdfrwt>
<pdfrwt beam="1">  1        4 0.15583607E+00 0.99946234E+03</pdfrwt>
<totfact> 0.46542959E+01</totfact>
</mgrwt>
</event>
<event>
 6    1  0.1412458E-005  0.1029894E+04  0.7818608E-02  0.9630589E-01
          4   -1    0    0  502    0 -0.00000000000E+00  0.00000000000E+00  0.68215147696E+03  0.68215147696E+03  0.00000000000E+00 0.  1.
         21   -1    0    0  501  502  0.00000000000E+00 -0.00000000000E+00 -0.65952578570E+03  0.65952578570E+03  0.00000000000E+00 0.  1.
    9000010    2    1    2  501    0 -0.15661555193E+03  0.24925554739E+03 -0.72159238616E+02  0.10324185472E+04  0.98692671553E+03 0.  0.
        -13    1    3    3    0    0 -0.29328070836E+03  0.12841594617E+03 -0.48495627057E+03  0.58110827275E+03  0.10566000000E+00 0.  1.
          4    1    3    3  501    0  0.13666515643E+03  0.12083960122E+03  0.41279703196E+03  0.45131027442E+03  0.00000000000E+00 0.  1.
         13    1    1    2    0    0  0.15661555193E+03 -0.24925554739E+03  0.94784929869E+02  0.30925871549E+03  0.10566000000E+00 0. -1.
<mgrwt>
<rscale>  1 0.75304274E+03</rscale>
<asrwt>0</asrwt>
<pdfrwt beam="2">  1       21 0.10146551E+00 0.10298937E+04</pdfrwt>
<pdfrwt beam="1">  1        4 0.10494638E+00 0.10298937E+04</pdfrwt>
<totfact> 0.21747398E+01</totfact>
</mgrwt>
</event>
<event>
 6    1  0.1412458E-005  0.9893919E+03  0.7818608E-02  0.9806570E-01
         21   -1    0    0  501  502  0.00000000000E+00  0.00000000000E+00  0.29130016056E+03  0.29130016056E+03  0.00000000000E+00 0.  1.
          4   -1    0    0  502    0 -0.00000000000E+00 -0.00000000000E+00 -0.11972893750E+04  0.11972893750E+04  0.00000000000E+00 0.  1.
    9000010    2    1    2  501    0  0.35458870877E+02 -0.18099563778E+03 -0.82030089621E+03  0.12852197948E+04  0.97204917991E+03 0.  0.
        -13    1    3    3    0    0  0.23465674468E+03 -0.51592546120E+02  0.15201178703E+03  0.28431175353E+03  0.10566000000E+00 0.  1.
          4    1    3    3  501    0 -0.19919787380E+03 -0.12940309166E+03 -0.97231268323E+03  0.10009080412E+04  0.00000000000E+00 0.  1.
         13    1    1    2    0    0 -0.35458870877E+02  0.18099563778E+03 -0.85688318228E+02  0.20336974078E+03  0.10566000000E+00 0. -1.
<mgrwt>
<rscale>  1 0.65011165E+03</rscale>
<asrwt>0</asrwt>
<pdfrwt beam="1">  1       21 0.44815410E-01 0.98939191E+03</pdfrwt>
<pdfrwt beam="2">  1        4 0.18419836E+00 0.98939191E+03</pdfrwt>
<totfact> 0.31999517E+01</totfact>
</mgrwt>
</event>
<event>
 6    1  0.1412458E-005  0.9709768E+03  0.7818608E-02  0.9718394E-01
          4   -1    0    0  502    0 -0.00000000000E+00  0.00000000000E+00  0.41691279632E+03  0.41691279632E+03  0.00000000000E+00 0.  1.
         21   -1    0    0  501  502  0.00000000000E+00 -0.00000000000E+00 -0.12370579858E+04  0.12370579858E+04  0.00000000000E+00 0.  1.
    9000010    2    1    2  501    0  0.14912317213E+03 -0.21452539308E+03 -0.95330457326E+03  0.13607297594E+04  0.93516683223E+03 0.  0.
        -13    1    3    3    0    0 -0.13658710529E+03 -0.45668664729E+03 -0.19508015116E+03  0.51504854886E+03  0.10566000000E+00 0.  1.
          4    1    3    3  501    0  0.28571027742E+03  0.24216125421E+03 -0.75822442210E+03  0.84568121058E+03  0.00000000000E+00 0.  1.
         13    1    1    2    0    0 -0.14912317213E+03  0.21452539308E+03  0.13315938376E+03  0.29324102269E+03  0.10566000000E+00 0. -1.
<mgrwt>
<rscale>  1 0.69932092E+03</rscale>
<asrwt>0</asrwt>
<pdfrwt beam="2">  1       21 0.19031661E+00 0.97097676E+03</pdfrwt>
<pdfrwt beam="1">  1        4 0.64140432E-01 0.97097676E+03</pdfrwt>
<totfact> 0.12216702E+01</totfact>
</mgrwt>
</event>
<event>
 6    1  0.1412458E-005  0.1008529E+04  0.7818608E-02  0.1000796E+00
          4   -1    0    0  502    0 -0.00000000000E+00  0.00000000000E+00  0.14279013500E+04  0.14279013500E+04  0.00000000000E+00 0.  1.
         21   -1    0    0  501  502  0.00000000000E+00 -0.00000000000E+00 -0.21517629426E+03  0.21517629426E+03  0.00000000000E+00 0.  1.
    9000010    2    1    2  501    0  0.29505394655E+02 -0.86278097402E+02  0.10457851327E+04  0.14528582250E+04  0.10043983272E+04 0.  0.
        -13    1    3    3    0    0 -0.29026206636E+03 -0.19483819132E+03  0.10586924530E+04  0.11149187007E+04  0.10566000000E+00 0.  1.
          4    1    3    3  501    0  0.31976746102E+03  0.10856009392E+03 -0.12907320353E+02  0.33793952423E+03  0.00000000000E+00 0.  1.
         13    1    1    2    0    0 -0.29505394655E+02  0.86278097402E+02  0.16693992303E+03  0.19021941928E+03  0.10566000000E+00 0. -1.
<mgrwt>
<rscale>  1 0.55302619E+03</rscale>
<asrwt>0</asrwt>
<pdfrwt beam="2">  1       21 0.33104046E-01 0.10085289E+04</pdfrwt>
<pdfrwt beam="1">  1        4 0.21967713E+00 0.10085289E+04</pdfrwt>
<totfact> 0.34996984E+01</totfact>
</mgrwt>
</event>
<event>
 6    1  0.1412458E-005  0.1043131E+04  0.7818608E-02  0.9579537E-01
         21   -1    0    0  501  502  0.00000000000E+00  0.00000000000E+00  0.78976797853E+03  0.78976797853E+03  0.00000000000E+00 0.  1.
          4   -1    0    0  502    0 -0.00000000000E+00 -0.00000000000E+00 -0.62633079751E+03  0.62633079751E+03  0.00000000000E+00 0.  1.
    9000010    2    1    2  501    0  0.25982179918E+02  0.33637949496E+03  0.23944958368E+03  0.10702604687E+04  0.98706389329E+03 0.  0.
        -13    1    3    3    0    0 -0.37790788468E+03  0.32742835240E+03  0.39514294149E+03  0.63730812848E+03  0.10566000000E+00 0.  1.
          4    1    3    3  501    0  0.40389006460E+03  0.89511425618E+01 -0.15569335781E+03  0.43295234022E+03  0.00000000000E+00 0.  1.
         13    1    1    2    0    0 -0.25982179918E+02 -0.33637949496E+03 -0.76012402662E+02  0.34583830734E+03  0.10566000000E+00 0. -1.
<mgrwt>
<rscale>  1 0.78665500E+03</rscale>
<asrwt>0</asrwt>
<pdfrwt beam="1">  1       21 0.12150277E+00 0.10431306E+04</pdfrwt>
<pdfrwt beam="2">  1        4 0.96358584E-01 0.10431306E+04</pdfrwt>
<totfact> 0.16877852E+01</totfact>
</mgrwt>
</event>
<event>
 6    1  0.1412458E-005  0.9961918E+03  0.7818608E-02  0.1001220E+00
         21   -1    0    0  501  502  0.00000000000E+00  0.00000000000E+00  0.75069129096E+03  0.75069129096E+03  0.00000000000E+00 0.  1.
          4   -1    0    0  502    0 -0.00000000000E+00 -0.00000000000E+00 -0.42795480175E+03  0.42795480175E+03  0.00000000000E+00 0.  1.
    9000010    2    1    2  501    0  0.83480798725E+02 -0.41798323006E+02  0.38327155502E+03  0.10673777283E+04  0.99180743414E+03 0.  0.
        -13    1    3    3    0    0  0.32640575934E+02  0.39595492928E+03 -0.10369369452E+03  0.41060699783E+03  0.10566000000E+00 0.  1.
          4    1    3    3  501    0  0.50840222791E+02 -0.43775325229E+03  0.48696524954E+03  0.65677073047E+03  0.00000000000E+00 0.  1.
         13    1    1    2    0    0 -0.83480798725E+02  0.41798323006E+02 -0.60535065813E+02  0.11126836441E+03  0.10566000000E+00 0. -1.
<mgrwt>
<rscale>  1 0.55118557E+03</rscale>
<asrwt>0</asrwt>
<pdfrwt beam="1">  1       21 0.11549097E+00 0.99619181E+03</pdfrwt>
<pdfrwt beam="2">  1        4 0.65839200E-01 0.99619181E+03</pdfrwt>
<totfact> 0.46378509E+01</totfact>
</mgrwt>
</event>
<event>
 6    1  0.1412458E-005  0.1081189E+04  0.7818608E-02  0.9502783E-01
          4   -1    0    0  502    0 -0.00000000000E+00  0.00000000000E+00  0.60472842932E+03  0.60472842932E+03  0.00000000000E+00 0.  1.
         21   -1    0    0  501  502  0.00000000000E+00 -0.00000000000E+00 -0.11680113794E+04  0.11680113794E+04  0.00000000000E+00 0.  1.
    9000010    2    1    2  501    0  0.23122350902E+03 -0.32075307668E+03 -0.76923574682E+03  0.13269109032E+04  0.10062912419E+04 0.  0.
        -13    1    3    3    0    0  0.61589369896E+03 -0.91990200954E+02 -0.35353268499E+03  0.71608143113E+03  0.10566000000E+00 0.  1.
          4    1    3    3  501    0 -0.38467018994E+03 -0.22876287573E+03 -0.41570306183E+03  0.61082947207E+03  0.00000000000E+00 0.  1.
         13    1    1    2    0    0 -0.23122350902E+03  0.32075307668E+03  0.20595279676E+03  0.44582890550E+03  0.10566000000E+00 0. -1.
<mgrwt>
<rscale>  1 0.84078945E+03</rscale>
<asrwt>0</asrwt>
<pdfrwt beam="2">  1       21 0.17969406E+00 0.10811887E+04</pdfrwt>
<pdfrwt beam="1">  1        4 0.93035143E-01 0.10811887E+04</pdfrwt>
<totfact> 0.61347217E+00</totfact>
</mgrwt>
</event>
<event>
 6    1  0.1412458E-005  0.1078735E+04  0.7818608E-02  0.9503108E-01
          4   -1    0    0  502    0 -0.00000000000E+00  0.00000000000E+00  0.63341938087E+03  0.63341938087E+03  0.00000000000E+00 0.  1.
         21   -1    0    0  501  502  0.00000000000E+00 -0.00000000000E+00 -0.16190292402E+04  0.16190292402E+04  0.00000000000E+00 0.  1.
    9000010    2    1    2  501    0 -0.33647028927E+03  0.21194457664E+03 -0.13396796445E+04  0.17200031469E+04  0.10027644371E+04 0.  0.
        -13    1    3    3    0    0 -0.27468062430E+02  0.41063633351E+02 -0.13650918699E+04  0.13659855567E+04  0.10566000000E+00 0.  1.
          4    1    3    3  501    0 -0.30900222684E+03  0.17088094329E+03  0.25412225456E+02  0.35401759020E+03  0.00000000000E+00 0.  1.
         13    1    1    2    0    0  0.33647028927E+03 -0.21194457664E+03  0.35406978513E+03  0.53244547424E+03  0.10566000000E+00 0. -1.
<mgrwt>
<rscale>  1 0.84055052E+03</rscale>
<asrwt>0</asrwt>
<pdfrwt beam="2">  1       21 0.24908142E+00 0.10787350E+04</pdfrwt>
<pdfrwt beam="1">  1        4 0.97449136E-01 0.10787350E+04</pdfrwt>
<totfact> 0.18725864E+00</totfact>
</mgrwt>
</event>
<event>
 6    1  0.1412458E-005  0.1071033E+04  0.7818608E-02  0.9480360E-01
          4   -1    0    0  502    0 -0.00000000000E+00  0.00000000000E+00  0.74732956704E+03  0.74732956704E+03  0.00000000000E+00 0.  1.
         21   -1    0    0  501  502  0.00000000000E+00 -0.00000000000E+00 -0.11388412391E+04  0.11388412391E+04  0.00000000000E+00 0.  1.
    9000010    2    1    2  501    0  0.13743152065E+03  0.41801077547E+03 -0.75914001577E+03  0.13127852103E+04  0.97646864439E+03 0.  0.
        -13    1    3    3    0    0  0.51996158799E+03  0.38092432625E+03 -0.64502518318E+03  0.91187767460E+03  0.10566000000E+00 0.  1.
          4    1    3    3  501    0 -0.38253006735E+03  0.37086449218E+02 -0.11411483258E+03  0.40090753567E+03  0.00000000000E+00 0.  1.
         13    1    1    2    0    0 -0.13743152065E+03 -0.41801077547E+03  0.36762834372E+03  0.57338559586E+03  0.10566000000E+00 0. -1.
<mgrwt>
<rscale>  1 0.85747409E+03</rscale>
<asrwt>0</asrwt>
<pdfrwt beam="2">  1       21 0.17520635E+00 0.10710329E+04</pdfrwt>
<pdfrwt beam="1">  1        4 0.11497378E+00 0.10710329E+04</pdfrwt>
<totfact> 0.39595302E+00</totfact>
</mgrwt>
</event>
<event>
 6    1  0.1412458E-005  0.8666706E+03  0.7818608E-02  0.9787854E-01
         21   -1    0    0  501  502  0.00000000000E+00  0.00000000000E+00  0.74045494861E+03  0.74045494861E+03  0.00000000000E+00 0.  1.
          4   -1    0    0  502    0 -0.00000000000E+00 -0.00000000000E+00 -0.82840574392E+03  0.82840574392E+03  0.00000000000E+00 0.  1.
    9000010    2    1    2  501    0 -0.23754443788E+03 -0.16948605901E+03  0.43521960512E+03  0.96981130958E+03  0.81606677873E+03 0.  0.
        -13    1    3    3    0    0  0.18862651206E+03  0.19819019278E+03  0.27879492202E+02  0.27502107340E+03  0.10566000000E+00 0.  1.
          4    1    3    3  501    0 -0.42617094994E+03 -0.36767625180E+03  0.40734011291E+03  0.69479023618E+03  0.00000000000E+00 0.  1.
         13    1    1    2    0    0  0.23754443788E+03  0.16948605901E+03 -0.52317040043E+03  0.59904938295E+03  0.10566000000E+00 0. -1.
<mgrwt>
<rscale>  1 0.66018471E+03</rscale>
<asrwt>0</asrwt>
<pdfrwt beam="1">  1       21 0.11391615E+00 0.86667057E+03</pdfrwt>
<pdfrwt beam="2">  1        4 0.12744704E+00 0.86667057E+03</pdfrwt>
<totfact> 0.10200903E+01</totfact>
</mgrwt>
</event>
<event>
 6    1  0.1412458E-005  0.1041893E+04  0.7818608E-02  0.9629678E-01
         21   -1    0    0  501  502  0.00000000000E+00  0.00000000000E+00  0.64935858548E+03  0.64935858548E+03  0.00000000000E+00 0.  1.
          4   -1    0    0  502    0 -0.00000000000E+00 -0.00000000000E+00 -0.95631824887E+03  0.95631824887E+03  0.00000000000E+00 0.  1.
    9000010    2    1    2  501    0 -0.41210393418E+02  0.28221135680E+03  0.16436625844E+03  0.10547778580E+04  0.10020970593E+04 0.  0.
        -13    1    3    3    0    0 -0.26240838796E+03  0.47705501139E+03 -0.20537814878E+03  0.58191050955E+03  0.10566000000E+00 0.  1.
          4    1    3    3  501    0  0.22119799454E+03 -0.19484365459E+03  0.36974440722E+03  0.47286734841E+03  0.00000000000E+00 0.  1.
         13    1    1    2    0    0  0.41210393418E+02 -0.28221135680E+03 -0.47132592183E+03  0.55089897639E+03  0.10566000000E+00 0. -1.
<mgrwt>
<rscale>  1 0.75362667E+03</rscale>
<asrwt>0</asrwt>
<pdfrwt beam="1">  1       21 0.99901321E-01 0.10418925E+04</pdfrwt>
<pdfrwt beam="2">  1        4 0.14712588E+00 0.10418925E+04</pdfrwt>
<totfact> 0.95572415E+00</totfact>
</mgrwt>
</event>
<event>
 6    1  0.1412458E-005  0.9551162E+03  0.7818608E-02  0.9824891E-01
         21   -1    0    0  501  502  0.00000000000E+00  0.00000000000E+00  0.28260610198E+03  0.28260610198E+03  0.00000000000E+00 0.  1.
          4   -1    0    0  502    0 -0.00000000000E+00 -0.00000000000E+00 -0.11689925795E+04  0.11689925795E+04  0.00000000000E+00 0.  1.
    9000010    2    1    2  501    0 -0.42762924918E+02 -0.18828454121E+03 -0.76297846616E+03  0.12224496369E+04  0.93539683490E+03 0.  0.
        -13    1    3    3    0    0  0.15433176446E+03  0.28322124124E+03 -0.60828440295E+03  0.68850743718E+03  0.10566000000E+00 0.  1.
          4    1    3    3  501    0 -0.19709468938E+03 -0.47150578245E+03 -0.15469406321E+03  0.53394219973E+03  0.00000000000E+00 0.  1.
         13    1    1    2    0    0  0.42762924918E+02  0.18828454121E+03 -0.12340801139E+03  0.22914904461E+03  0.10566000000E+00 0. -1.
<mgrwt>
<rscale>  1 0.64043688E+03</rscale>
<asrwt>0</asrwt>
<pdfrwt beam="1">  1       21 0.43477862E-01 0.95511621E+03</pdfrwt>
<pdfrwt beam="2">  1        4 0.17984501E+00 0.95511621E+03</pdfrwt>
<totfact> 0.36695626E+01</totfact>
</mgrwt>
</event>
<event>
 6    1  0.1412458E-005  0.9997858E+03  0.7818608E-02  0.1044062E+00
         21   -1    0    0  501  502  0.00000000000E+00  0.00000000000E+00  0.68931027336E+03  0.68931027336E+03  0.00000000000E+00 0.  1.
          4   -1    0    0  502    0 -0.00000000000E+00 -0.00000000000E+00 -0.38227167214E+03  0.38227167214E+03  0.00000000000E+00 0.  1.
    9000010    2    1    2  501    0  0.17468419872E+02  0.18450879819E+02  0.30800751243E+03  0.10461549793E+04  0.99946287188E+03 0.  0.
        -13    1    3    3    0    0 -0.20637022884E+03  0.45457250334E+03  0.23045130459E+03  0.54984783995E+03  0.10566000000E+00 0.  1.
          4    1    3    3  501    0  0.22383864871E+03 -0.43612162352E+03  0.77556207837E+02  0.49630713931E+03  0.00000000000E+00 0.  1.
         13    1    1    2    0    0 -0.17468419872E+02 -0.18450879819E+02 -0.96891120242E+00  0.25426966234E+02  0.10566000000E+00 0. -1.
<mgrwt>
<rscale>  1 0.39918570E+03</rscale>
<asrwt>0</asrwt>
<pdfrwt beam="1">  1       21 0.10604773E+00 0.99978578E+03</pdfrwt>
<pdfrwt beam="2">  1        4 0.58811027E-01 0.99978578E+03</pdfrwt>
<totfact> 0.73723507E+01</totfact>
</mgrwt>
</event>
<event>
 6    1  0.1412458E-005  0.1011432E+04  0.7818608E-02  0.1004934E+00
          4   -1    0    0  502    0 -0.00000000000E+00  0.00000000000E+00  0.30853785809E+03  0.30853785809E+03  0.00000000000E+00 0.  1.
         21   -1    0    0  501  502  0.00000000000E+00 -0.00000000000E+00 -0.10411450515E+04  0.10411450515E+04  0.00000000000E+00 0.  1.
    9000010    2    1    2  501    0 -0.45265778512E+02 -0.65241519191E+02 -0.76057794250E+03  0.12654937149E+04  0.10083105123E+04 0.  0.
        -13    1    3    3    0    0 -0.47866095394E+03 -0.18395912788E+03 -0.20826560682E+03  0.55347253202E+03  0.10566000000E+00 0.  1.
          4    1    3    3  501    0  0.43339517542E+03  0.11871760869E+03 -0.55231233567E+03  0.71202118285E+03  0.00000000000E+00 0.  1.
         13    1    1    2    0    0  0.45265778512E+02  0.65241519191E+02  0.27970749123E+02  0.84189194682E+02  0.10566000000E+00 0. -1.
<mgrwt>
<rscale>  1 0.53538627E+03</rscale>
<asrwt>0</asrwt>
<pdfrwt beam="2">  1       21 0.16017616E+00 0.10114324E+04</pdfrwt>
<pdfrwt beam="1">  1        4 0.47467362E-01 0.10114324E+04</pdfrwt>
<totfact> 0.38696259E+01</totfact>
</mgrwt>
</event>
<event>
 6    1  0.1412458E-005  0.1003107E+04  0.7818608E-02  0.9925336E-01
          4   -1    0    0  502    0 -0.00000000000E+00  0.00000000000E+00  0.26036008415E+03  0.26036008415E+03  0.00000000000E+00 0.  1.
         21   -1    0    0  501  502  0.00000000000E+00 -0.00000000000E+00 -0.16413341265E+04  0.16413341265E+04  0.00000000000E+00 0.  1.
    9000010    2    1    2  501    0 -0.11324771033E+02  0.11991631214E+03 -0.14497805204E+04  0.17629768184E+04  0.99584915147E+03 0.  0.
        -13    1    3    3    0    0  0.13411731537E+03 -0.38030190544E+03 -0.98688511058E+03  0.10660953176E+04  0.10566000000E+00 0.  1.
          4    1    3    3  501    0 -0.14544208640E+03  0.50021821758E+03 -0.46289540980E+03  0.69688150077E+03  0.00000000000E+00 0.  1.
         13    1    1    2    0    0  0.11324771033E+02 -0.11991631214E+03  0.68806477984E+02  0.13871739232E+03  0.10566000000E+00 0. -1.
<mgrwt>
<rscale>  1 0.59048937E+03</rscale>
<asrwt>0</asrwt>
<pdfrwt beam="2">  1       21 0.25251295E+00 0.10031070E+04</pdfrwt>
<pdfrwt beam="1">  1        4 0.40055397E-01 0.10031070E+04</pdfrwt>
<totfact> 0.12765722E+01</totfact>
</mgrwt>
</event>
<event>
 6    1  0.1412458E-005  0.1045958E+04  0.7818608E-02  0.9593220E-01
         21   -1    0    0  501  502  0.00000000000E+00  0.00000000000E+00  0.13834374463E+04  0.13834374463E+04  0.00000000000E+00 0.  1.
          4   -1    0    0  502    0 -0.00000000000E+00 -0.00000000000E+00 -0.84073319069E+03  0.84073319069E+03  0.00000000000E+00 0.  1.
    9000010    2    1    2  501    0 -0.88484440693E+02 -0.30678142959E+03  0.11398493407E+04  0.15470247107E+04  0.99603443418E+03 0.  0.
        -13    1    3    3    0    0  0.17280555250E+03 -0.53798547241E+03  0.10408779570E+04  0.11843635675E+04  0.10566000000E+00 0.  1.
          4    1    3    3  501    0 -0.26128999319E+03  0.23120404282E+03  0.98971383711E+02  0.36266114315E+03  0.00000000000E+00 0.  1.
         13    1    1    2    0    0  0.88484440693E+02  0.30678142959E+03 -0.59714508508E+03  0.67714592636E+03  0.10566000000E+00 0. -1.
<mgrwt>
<rscale>  1 0.77746563E+03</rscale>
<asrwt>0</asrwt>
<pdfrwt beam="1">  1       21 0.21283653E+00 0.10459584E+04</pdfrwt>
<pdfrwt beam="2">  1        4 0.12934357E+00 0.10459584E+04</pdfrwt>
<totfact> 0.16073457E+00</totfact>
</mgrwt>
</event>
<event>
 6    1  0.1412458E-005  0.9539410E+03  0.7818608E-02  0.9864882E-01
         21   -1    0    0  501  502  0.00000000000E+00  0.00000000000E+00  0.61949373351E+03  0.61949373351E+03  0.00000000000E+00 0.  1.
          4   -1    0    0  502    0 -0.00000000000E+00 -0.00000000000E+00 -0.51793490631E+03  0.51793490631E+03  0.00000000000E+00 0.  1.
    9000010    2    1    2  501    0  0.90866058798E+02 -0.14385479838E+03  0.13670676151E+03  0.96368678502E+03  0.93864404187E+03 0.  0.
        -13    1    3    3    0    0 -0.52228902435E+01 -0.65245740403E+02 -0.40381797354E+03  0.40908831827E+03  0.10566000000E+00 0.  1.
          4    1    3    3  501    0  0.96088949042E+02 -0.78609057974E+02  0.54052473505E+03  0.55459846676E+03  0.00000000000E+00 0.  1.
         13    1    1    2    0    0 -0.90866058798E+02  0.14385479838E+03 -0.35147934312E+02  0.17374185480E+03  0.10566000000E+00 0. -1.
<mgrwt>
<rscale>  1 0.61993880E+03</rscale>
<asrwt>0</asrwt>
<pdfrwt beam="1">  1       21 0.95306729E-01 0.95394103E+03</pdfrwt>
<pdfrwt beam="2">  1        4 0.79682293E-01 0.95394103E+03</pdfrwt>
<totfact> 0.48997216E+01</totfact>
</mgrwt>
</event>
<event>
 6    1  0.1412458E-005  0.1008706E+04  0.7818608E-02  0.9759028E-01
          4   -1    0    0  502    0 -0.00000000000E+00  0.00000000000E+00  0.56938788915E+03  0.56938788915E+03  0.00000000000E+00 0.  1.
         21   -1    0    0  501  502  0.00000000000E+00 -0.00000000000E+00 -0.68174145452E+03  0.68174145452E+03  0.00000000000E+00 0.  1.
    9000010    2    1    2  501    0  0.10079718191E+03  0.17686109402E+03  0.18957616125E+02  0.10088845171E+04  0.98795174939E+03 0.  0.
        -13    1    3    3    0    0 -0.24188036994E+03  0.18470643539E+03  0.39592640958E+03  0.49937992911E+03  0.10566000000E+00 0.  1.
          4    1    3    3  501    0  0.34267755185E+03 -0.78453413653E+01 -0.37696879345E+03  0.50950458797E+03  0.00000000000E+00 0.  1.
         13    1    1    2    0    0 -0.10079718191E+03 -0.17686109402E+03 -0.13131118149E+03  0.24224482659E+03  0.10566000000E+00 0. -1.
<mgrwt>
<rscale>  1 0.67608455E+03</rscale>
<asrwt>0</asrwt>
<pdfrwt beam="2">  1       21 0.10488330E+00 0.10087064E+04</pdfrwt>
<pdfrwt beam="1">  1        4 0.87598137E-01 0.10087064E+04</pdfrwt>
<totfact> 0.30881622E+01</totfact>
</mgrwt>
</event>
<event>
 6    1  0.1412458E-005  0.1007619E+04  0.7818608E-02  0.9934262E-01
         21   -1    0    0  501  502  0.00000000000E+00  0.00000000000E+00  0.65327973840E+03  0.65327973840E+03  0.00000000000E+00 0.  1.
          4   -1    0    0  502    0 -0.00000000000E+00 -0.00000000000E+00 -0.86721464787E+03  0.86721464787E+03  0.00000000000E+00 0.  1.
    9000010    2    1    2  501    0  0.31219680580E+02  0.11119620049E+03  0.25348716430E+03  0.10390147193E+04  0.10009778125E+04 0.  0.
        -13    1    3    3    0    0  0.24539493119E+03 -0.21294469882E+03 -0.24506130033E+03  0.40696335104E+03  0.10566000000E+00 0.  1.
          4    1    3    3  501    0 -0.21417525061E+03  0.32414089931E+03  0.49854846463E+03  0.63205136829E+03  0.00000000000E+00 0.  1.
         13    1    1    2    0    0 -0.31219680580E+02 -0.11119620049E+03 -0.46742207377E+03  0.48147966693E+03  0.10566000000E+00 0. -1.
<mgrwt>
<rscale>  1 0.58629171E+03</rscale>
<asrwt>0</asrwt>
<pdfrwt beam="1">  1       21 0.10050458E+00 0.10076189E+04</pdfrwt>
<pdfrwt beam="2">  1        4 0.13341764E+00 0.10076189E+04</pdfrwt>
<totfact> 0.12223551E+01</totfact>
</mgrwt>
</event>
<event>
 6    1  0.1412458E-005  0.1028151E+04  0.7818608E-02  0.1000857E+00
          4   -1    0    0  502    0 -0.00000000000E+00  0.00000000000E+00  0.37390599304E+03  0.37390599304E+03  0.00000000000E+00 0.  1.
         21   -1    0    0  501  502  0.00000000000E+00 -0.00000000000E+00 -0.88650506258E+03  0.88650506258E+03  0.00000000000E+00 0.  1.
    9000010    2    1    2  501    0  0.85767523038E+02  0.47261843793E+01 -0.55080913286E+03  0.11663981579E+04  0.10245562733E+04 0.  0.
        -13    1    3    3    0    0  0.63655307781E+02  0.35159924653E+01  0.30434842339E+03  0.31095391040E+03  0.10566000000E+00 0.  1.
          4    1    3    3  501    0  0.22112215258E+02  0.12101919140E+01 -0.85515755625E+03  0.85544424753E+03  0.00000000000E+00 0.  1.
         13    1    1    2    0    0 -0.85767523038E+02 -0.47261843793E+01  0.38210063322E+02  0.94012897679E+02  0.10566000000E+00 0. -1.
<mgrwt>
<rscale>  1 0.55276176E+03</rscale>
<asrwt>0</asrwt>
<pdfrwt beam="2">  1       21 0.13638539E+00 0.10281507E+04</pdfrwt>
<pdfrwt beam="1">  1        4 0.57523999E-01 0.10281507E+04</pdfrwt>
<totfact> 0.40125833E+01</totfact>
</mgrwt>
</event>
<event>
 6    1  0.1412458E-005  0.1012464E+04  0.7818608E-02  0.9802136E-01
         21   -1    0    0  501  502  0.00000000000E+00  0.00000000000E+00  0.24419950364E+03  0.24419950364E+03  0.00000000000E+00 0.  1.
          4   -1    0    0  502    0 -0.00000000000E+00 -0.00000000000E+00 -0.14604078503E+04  0.14604078503E+04  0.00000000000E+00 0.  1.
    9000010    2    1    2  501    0 -0.17304705383E+03 -0.23493102203E+02 -0.96515024596E+03  0.13987848731E+04  0.99728978503E+03 0.  0.
        -13    1    3    3    0    0 -0.26970407180E+03 -0.10586313404E+03  0.11461086366E+03  0.31158137096E+03  0.10566000000E+00 0.  1.
          4    1    3    3  501    0  0.96657017974E+02  0.82370031835E+02 -0.10797611096E+04  0.10872035022E+04  0.00000000000E+00 0.  1.
         13    1    1    2    0    0  0.17304705383E+03  0.23493102203E+02 -0.25105810074E+03  0.30582248086E+03  0.10566000000E+00 0. -1.
<mgrwt>
<rscale>  1 0.65248021E+03</rscale>
<asrwt>0</asrwt>
<pdfrwt beam="1">  1       21 0.37569154E-01 0.10124644E+04</pdfrwt>
<pdfrwt beam="2">  1        4 0.22467813E+00 0.10124644E+04</pdfrwt>
<totfact> 0.25058426E+01</totfact>
</mgrwt>
</event>
<event>
 6    1  0.1412458E-005  0.1065472E+04  0.7818608E-02  0.9555468E-01
         21   -1    0    0  501  502  0.00000000000E+00  0.00000000000E+00  0.51482779598E+03  0.51482779598E+03  0.00000000000E+00 0.  1.
          4   -1    0    0  502    0 -0.00000000000E+00 -0.00000000000E+00 -0.20016732254E+04  0.20016732254E+04  0.00000000000E+00 0.  1.
    9000010    2    1    2  501    0 -0.34373479622E+03 -0.13551817809E+02 -0.80293577489E+02  0.10684936370E+04  0.10084117868E+04 0.  0.
        -13    1    3    3    0    0 -0.37240282760E+02 -0.17523194475E+03 -0.49596425969E+03  0.52732687318E+03  0.10566000000E+00 0.  1.
          4    1    3    3  501    0 -0.30649451345E+03  0.16168012694E+03  0.41567068220E+03  0.54116676382E+03  0.00000000000E+00 0.  1.
         13    1    1    2    0    0  0.34373479622E+03  0.13551817809E+02 -0.14065518519E+04  0.14480073844E+04  0.10566000000E+00 0. -1.
<mgrwt>
<rscale>  1 0.80315038E+03</rscale>
<asrwt>0</asrwt>
<pdfrwt beam="1">  1       21 0.79204274E-01 0.10654725E+04</pdfrwt>
<pdfrwt beam="2">  1        4 0.30794973E+00 0.10654725E+04</pdfrwt>
<totfact> 0.14676108E+00</totfact>
</mgrwt>
</event>
<event>
 6    1  0.1412458E-005  0.1064112E+04  0.7818608E-02  0.9566609E-01
          4   -1    0    0  502    0 -0.00000000000E+00  0.00000000000E+00  0.18339848354E+04  0.18339848354E+04  0.00000000000E+00 0.  1.
         21   -1    0    0  501  502  0.00000000000E+00 -0.00000000000E+00 -0.34079472598E+03  0.34079472598E+03  0.00000000000E+00 0.  1.
    9000010    2    1    2  501    0  0.21138740121E+02 -0.33161538885E+03  0.59961837879E+03  0.12214244012E+04  0.10109004675E+04 0.  0.
        -13    1    3    3    0    0 -0.32251162765E+03 -0.19660716682E+03  0.73645207324E+03  0.82766526770E+03  0.10566000000E+00 0.  1.
          4    1    3    3  501    0  0.34365036777E+03 -0.13500822203E+03 -0.13683369446E+03  0.39375913351E+03  0.00000000000E+00 0.  1.
         13    1    1    2    0    0 -0.21138740121E+02  0.33161538885E+03  0.89357173068E+03  0.95335516020E+03  0.10566000000E+00 0. -1.
<mgrwt>
<rscale>  1 0.79546206E+03</rscale>
<asrwt>0</asrwt>
<pdfrwt beam="2">  1       21 0.52429959E-01 0.10641125E+04</pdfrwt>
<pdfrwt beam="1">  1        4 0.28215151E+00 0.10641125E+04</pdfrwt>
<totfact> 0.53914880E+00</totfact>
</mgrwt>
</event>
<event>
 6    1  0.1412458E-005  0.9866652E+03  0.7818608E-02  0.1016626E+00
          4   -1    0    0  502    0 -0.00000000000E+00  0.00000000000E+00  0.22295476438E+03  0.22295476438E+03  0.00000000000E+00 0.  1.
         21   -1    0    0  501  502  0.00000000000E+00 -0.00000000000E+00 -0.12382551018E+04  0.12382551018E+04  0.00000000000E+00 0.  1.
    9000010    2    1    2  501    0  0.24432959752E+02 -0.54412158289E+02 -0.92157155312E+03  0.13501119424E+04  0.98486063840E+03 0.  0.
        -13    1    3    3    0    0 -0.39472264093E+03 -0.30176145018E+03 -0.41193679751E+03  0.64541294718E+03  0.10566000000E+00 0.  1.
          4    1    3    3  501    0  0.41915560068E+03  0.24734929189E+03 -0.50963475560E+03  0.70469899525E+03  0.00000000000E+00 0.  1.
         13    1    1    2    0    0 -0.24432959752E+02  0.54412158289E+02 -0.93728784253E+02  0.11109792371E+03  0.10566000000E+00 0. -1.
<mgrwt>
<rscale>  1 0.48924118E+03</rscale>
<asrwt>0</asrwt>
<pdfrwt beam="2">  1       21 0.19050078E+00 0.98666516E+03</pdfrwt>
<pdfrwt beam="1">  1        4 0.34300733E-01 0.98666516E+03</pdfrwt>
<totfact> 0.45023658E+01</totfact>
</mgrwt>
</event>
<event>
 6    1  0.1412458E-005  0.1029380E+04  0.7818608E-02  0.9661048E-01
         21   -1    0    0  501  502  0.00000000000E+00  0.00000000000E+00  0.63267792469E+03  0.63267792469E+03  0.00000000000E+00 0.  1.
          4   -1    0    0  502    0 -0.00000000000E+00 -0.00000000000E+00 -0.66293985207E+03  0.66293985207E+03  0.00000000000E+00 0.  1.
    9000010    2    1    2  501    0 -0.10567686781E+02 -0.26566701728E+03 -0.22249893452E+02  0.10296199498E+04  0.99445037247E+03 0.  0.
        -13    1    3    3    0    0 -0.39054878556E+03 -0.26975765465E+02  0.28633976598E+03  0.48502218358E+03  0.10566000000E+00 0.  1.
          4    1    3    3  501    0  0.37998109877E+03 -0.23869125181E+03 -0.30858965943E+03  0.54459776627E+03  0.00000000000E+00 0.  1.
         13    1    1    2    0    0  0.10567686781E+02  0.26566701728E+03 -0.80120339305E+01  0.26599782692E+03  0.10566000000E+00 0. -1.
<mgrwt>
<rscale>  1 0.73384086E+03</rscale>
<asrwt>0</asrwt>
<pdfrwt beam="1">  1       21 0.97335065E-01 0.10293795E+04</pdfrwt>
<pdfrwt beam="2">  1        4 0.10199075E+00 0.10293795E+04</pdfrwt>
<totfact> 0.25843478E+01</totfact>
</mgrwt>
</event>
<event>
 6    1  0.1412458E-005  0.1310802E+04  0.7818608E-02  0.9127378E-01
         21   -1    0    0  501  502  0.00000000000E+00  0.00000000000E+00  0.42555898101E+03  0.42555898101E+03  0.00000000000E+00 0. -1.
          4   -1    0    0  502    0 -0.00000000000E+00 -0.00000000000E+00 -0.28082299610E+04  0.28082299610E+04  0.00000000000E+00 0.  1.
    9000010    2    1    2  501    0  0.64369567134E+03 -0.58711835069E+03 -0.15301821504E+04  0.20148593744E+04  0.97936142982E+03 0.  0.
        -13    1    3    3    0    0 -0.19352201693E+03 -0.25150043574E+03 -0.11672088150E+03  0.33812278178E+03  0.10566000000E+00 0.  1.
          4    1    3    3  501    0  0.83721768827E+03 -0.33561791495E+03 -0.14134612689E+04  0.16767365926E+04  0.00000000000E+00 0.  1.
         13    1    1    2    0    0 -0.64369567134E+03  0.58711835069E+03 -0.85248882956E+03  0.12189295676E+04  0.10566000000E+00 0. -1.
<mgrwt>
<rscale>  1 0.11835503E+04</rscale>
<asrwt>0</asrwt>
<pdfrwt beam="1">  1       21 0.65470611E-01 0.13108016E+04</pdfrwt>
<pdfrwt beam="2">  1        4 0.43203539E+00 0.13108016E+04</pdfrwt>
<totfact> 0.32401104E-01</totfact>
</mgrwt>
</event>
<event>
 6    1  0.1412458E-005  0.9163856E+03  0.7818608E-02  0.9741125E-01
          4   -1    0    0  502    0 -0.00000000000E+00  0.00000000000E+00  0.34511867516E+03  0.34511867516E+03  0.00000000000E+00 0.  1.
         21   -1    0    0  501  502  0.00000000000E+00 -0.00000000000E+00 -0.11308793903E+04  0.11308793903E+04  0.00000000000E+00 0.  1.
    9000010    2    1    2  501    0  0.28811800811E+03  0.80174991391E+00 -0.75290096758E+03  0.11860111630E+04  0.86991377871E+03 0.  0.
        -13    1    3    3    0    0  0.56870315623E+03 -0.11898088212E+03 -0.63023522183E+03  0.85719086335E+03  0.10566000000E+00 0.  1.
          4    1    3    3  501    0 -0.28058514812E+03  0.11978263203E+03 -0.12266574575E+03  0.32882029965E+03  0.00000000000E+00 0.  1.
         13    1    1    2    0    0 -0.28811800811E+03 -0.80174991391E+00 -0.32859747515E+02  0.28998690241E+03  0.10566000000E+00 0. -1.
<mgrwt>
<rscale>  1 0.68620160E+03</rscale>
<asrwt>0</asrwt>
<pdfrwt beam="2">  1       21 0.17398145E+00 0.91638562E+03</pdfrwt>
<pdfrwt beam="1">  1        4 0.53095180E-01 0.91638562E+03</pdfrwt>
<totfact> 0.24281550E+01</totfact>
</mgrwt>
</event>
<event>
 6    1  0.1412458E-005  0.9998073E+03  0.7818608E-02  0.9982275E-01
          4   -1    0    0  502    0 -0.00000000000E+00  0.00000000000E+00  0.92381020009E+03  0.92381020009E+03  0.00000000000E+00 0.  1.
         21   -1    0    0  501  502  0.00000000000E+00 -0.00000000000E+00 -0.36277522856E+03  0.36277522856E+03  0.00000000000E+00 0.  1.
    9000010    2    1    2  501    0 -0.99978821406E+02  0.17449657692E+02  0.36228354931E+03  0.10634209281E+04  0.99464287312E+03 0.  0.
        -13    1    3    3    0    0 -0.19184828150E+03 -0.38371968128E+03 -0.10405917748E+03  0.44144635065E+03  0.10566000000E+00 0.  1.
          4    1    3    3  501    0  0.91869460098E+02  0.40116933897E+03  0.46634272679E+03  0.62197457750E+03  0.00000000000E+00 0.  1.
         13    1    1    2    0    0  0.99978821406E+02 -0.17449657692E+02  0.19875142222E+03  0.22316450050E+03  0.10566000000E+00 0. -1.
<mgrwt>
<rscale>  1 0.56434320E+03</rscale>
<asrwt>0</asrwt>
<pdfrwt beam="2">  1       21 0.55811574E-01 0.99980733E+03</pdfrwt>
<pdfrwt beam="1">  1        4 0.14212465E+00 0.99980733E+03</pdfrwt>
<totfact> 0.40780269E+01</totfact>
</mgrwt>
</event>
<event>
 6    1  0.1412458E-005  0.9852870E+03  0.7818608E-02  0.1033355E+00
          4   -1    0    0  502    0 -0.00000000000E+00  0.00000000000E+00  0.69511902143E+03  0.69511902143E+03  0.00000000000E+00 0.  1.
         21   -1    0    0  501  502  0.00000000000E+00 -0.00000000000E+00 -0.38765695089E+03  0.38765695089E+03  0.00000000000E+00 0.  1.
    9000010    2    1    2  501    0  0.20688318017E+02  0.29800765287E+02  0.25285208243E+03  0.10172141383E+04  0.98461887827E+03 0.  0.
        -13    1    3    3    0    0 -0.16022096188E+03  0.24386975879E+03 -0.28678613787E+03  0.40913263854E+03  0.10566000000E+00 0.  1.
          4    1    3    3  501    0  0.18090927990E+03 -0.21406899351E+03  0.53963822030E+03  0.60808149976E+03  0.00000000000E+00 0.  1.
         13    1    1    2    0    0 -0.20688318017E+02 -0.29800765287E+02  0.54609988113E+02  0.65561834018E+02  0.10566000000E+00 0. -1.
<mgrwt>
<rscale>  1 0.43160186E+03</rscale>
<asrwt>0</asrwt>
<pdfrwt beam="2">  1       21 0.59639531E-01 0.98528698E+03</pdfrwt>
<pdfrwt beam="1">  1        4 0.10694139E+00 0.98528698E+03</pdfrwt>
<totfact> 0.72496400E+01</totfact>
</mgrwt>
</event>
<event>
 6    1  0.1412458E-005  0.1165419E+04  0.7818608E-02  0.9720020E-01
          4   -1    0    0  502    0 -0.00000000000E+00  0.00000000000E+00  0.93953968893E+03  0.93953968893E+03  0.00000000000E+00 0.  1.
         21   -1    0    0  501  502  0.00000000000E+00 -0.00000000000E+00 -0.57894549500E+03  0.57894549500E+03  0.00000000000E+00 0.  1.
    9000010    2    1    2  501    0 -0.12142533248E+03 -0.88543488262E+02  0.41941689424E+02  0.11661735456E+04  0.11556892197E+04 0.  0.
        -13    1    3    3    0    0  0.60199095159E+02  0.35794230613E+03 -0.38005377555E+03  0.52553544985E+03  0.10566000000E+00 0.  1.
          4    1    3    3  501    0 -0.18162442764E+03 -0.44648579439E+03  0.42199546497E+03  0.64063809578E+03  0.00000000000E+00 0.  1.
         13    1    1    2    0    0  0.12142533248E+03  0.88543488262E+02  0.31865250451E+03  0.35231163829E+03  0.10566000000E+00 0. -1.
<mgrwt>
<rscale>  1 0.69837209E+03</rscale>
<asrwt>0</asrwt>
<pdfrwt beam="2">  1       21 0.89068538E-01 0.11654191E+04</pdfrwt>
<pdfrwt beam="1">  1        4 0.14454457E+00 0.11654191E+04</pdfrwt>
<totfact> 0.13103416E+01</totfact>
</mgrwt>
</event>
<event>
 6    1  0.1412458E-005  0.1039784E+04  0.7818608E-02  0.9627917E-01
         21   -1    0    0  501  502  0.00000000000E+00  0.00000000000E+00  0.11211975406E+04  0.11211975406E+04  0.00000000000E+00 0.  1.
          4   -1    0    0  502    0 -0.00000000000E+00 -0.00000000000E+00 -0.39917708859E+03  0.39917708859E+03  0.00000000000E+00 0.  1.
    9000010    2    1    2  501    0  0.35697571056E+02  0.28645261467E+03  0.63722053635E+03  0.12195084565E+04  0.99891012932E+03 0.  0.
        -13    1    3    3    0    0 -0.21857863222E+03 -0.23149109267E+03 -0.49893353022E+02  0.32226402574E+03  0.10566000000E+00 0.  1.
          4    1    3    3  501    0  0.25427620327E+03  0.51794370734E+03  0.68711388938E+03  0.89724443074E+03  0.00000000000E+00 0.  1.
         13    1    1    2    0    0 -0.35697571056E+02 -0.28645261467E+03  0.84799915678E+02  0.30086617273E+03  0.10566000000E+00 0. -1.
<mgrwt>
<rscale>  1 0.75475702E+03</rscale>
<asrwt>0</asrwt>
<pdfrwt beam="1">  1       21 0.17249193E+00 0.10397840E+04</pdfrwt>
<pdfrwt beam="2">  1        4 0.61411860E-01 0.10397840E+04</pdfrwt>
<totfact> 0.17929295E+01</totfact>
</mgrwt>
</event>
<event>
 6    1  0.1412458E-005  0.1045328E+04  0.7818608E-02  0.9723166E-01
          4   -1    0    0  502    0 -0.00000000000E+00  0.00000000000E+00  0.41749226204E+03  0.41749226204E+03  0.00000000000E+00 0.  1.
         21   -1    0    0  501  502  0.00000000000E+00 -0.00000000000E+00 -0.10207940048E+04  0.10207940048E+04  0.00000000000E+00 0.  1.
    9000010    2    1    2  501    0  0.46716939495E+02 -0.20071123459E+03 -0.64462259211E+03  0.12281080189E+04  0.10248139089E+04 0.  0.
        -13    1    3    3    0    0  0.53671533968E+02 -0.61371848223E+03 -0.48957363628E+03  0.78690111545E+03  0.10566000000E+00 0.  1.
          4    1    3    3  501    0 -0.69545944730E+01  0.41300724765E+03 -0.15504895583E+03  0.44120690350E+03  0.00000000000E+00 0.  1.
         13    1    1    2    0    0 -0.46716939495E+02  0.20071123459E+03  0.41320849366E+02  0.21017824788E+03  0.10566000000E+00 0. -1.
<mgrwt>
<rscale>  1 0.69654080E+03</rscale>
<asrwt>0</asrwt>
<pdfrwt beam="2">  1       21 0.15704523E+00 0.10453282E+04</pdfrwt>
<pdfrwt beam="1">  1        4 0.64229580E-01 0.10453282E+04</pdfrwt>
<totfact> 0.21304652E+01</totfact>
</mgrwt>
</event>
<event>
 6    1  0.1412458E-005  0.1048817E+04  0.7818608E-02  0.9605231E-01
          4   -1    0    0  502    0 -0.00000000000E+00  0.00000000000E+00  0.58677073456E+03  0.58677073456E+03  0.00000000000E+00 0.  1.
         21   -1    0    0  501  502  0.00000000000E+00 -0.00000000000E+00 -0.78093454250E+03  0.78093454250E+03  0.00000000000E+00 0.  1.
    9000010    2    1    2  501    0  0.17869366688E+03  0.24583539547E+03 -0.17365434886E+03  0.10630954983E+04  0.10038175817E+04 0.  0.
        -13    1    3    3    0    0  0.41476883476E+03 -0.23298889854E+03 -0.22599310852E+03  0.52667818390E+03  0.10566000000E+00 0.  1.
          4    1    3    3  501    0 -0.23607516788E+03  0.47882429401E+03  0.52338759657E+02  0.53641731440E+03  0.00000000000E+00 0.  1.
         13    1    1    2    0    0 -0.17869366688E+03 -0.24583539547E+03 -0.20509459072E+02  0.30460977877E+03  0.10566000000E+00 0. -1.
<mgrwt>
<rscale>  1 0.76950945E+03</rscale>
<asrwt>0</asrwt>
<pdfrwt beam="2">  1       21 0.12014378E+00 0.10488166E+04</pdfrwt>
<pdfrwt beam="1">  1        4 0.90272421E-01 0.10488166E+04</pdfrwt>
<totfact> 0.20279336E+01</totfact>
</mgrwt>
</event>
<event>
 6    1  0.1412458E-005  0.1028033E+04  0.7818608E-02  0.9684390E-01
         21   -1    0    0  501  502  0.00000000000E+00  0.00000000000E+00  0.65066338684E+03  0.65066338684E+03  0.00000000000E+00 0.  1.
          4   -1    0    0  502    0 -0.00000000000E+00 -0.00000000000E+00 -0.86747630633E+03  0.86747630633E+03  0.00000000000E+00 0.  1.
    9000010    2    1    2  501    0 -0.24584176824E+03 -0.20727841653E+02  0.18702103121E+03  0.10449064638E+04  0.99799039757E+03 0.  0.
        -13    1    3    3    0    0 -0.47813670807E+03 -0.20526025794E+03  0.41919638600E+03  0.66818568249E+03  0.10566000000E+00 0.  1.
          4    1    3    3  501    0  0.23229493983E+03  0.18453241628E+03 -0.23217535479E+03  0.37672078135E+03  0.00000000000E+00 0.  1.
         13    1    1    2    0    0  0.24584176824E+03  0.20727841653E+02 -0.40383395071E+03  0.47323322932E+03  0.10566000000E+00 0. -1.
<mgrwt>
<rscale>  1 0.71953826E+03</rscale>
<asrwt>0</asrwt>
<pdfrwt beam="1">  1       21 0.10010206E+00 0.10280334E+04</pdfrwt>
<pdfrwt beam="2">  1        4 0.13345789E+00 0.10280334E+04</pdfrwt>
<totfact> 0.12309519E+01</totfact>
</mgrwt>
</event>
<event>
 6    1  0.1412458E-005  0.1051592E+04  0.7818608E-02  0.9772854E-01
         21   -1    0    0  501  502  0.00000000000E+00  0.00000000000E+00  0.43454366912E+03  0.43454366912E+03  0.00000000000E+00 0.  1.
          4   -1    0    0  502    0 -0.00000000000E+00 -0.00000000000E+00 -0.97183138819E+03  0.97183138819E+03  0.00000000000E+00 0.  1.
    9000010    2    1    2  501    0  0.12446661611E+03  0.11817796813E+03 -0.26493351252E+03  0.10844514706E+04  0.10374908459E+04 0.  0.
        -13    1    3    3    0    0 -0.98383886163E+02  0.47959684021E+03  0.12788600237E+03  0.50601122415E+03  0.10566000000E+00 0.  1.
          4    1    3    3  501    0  0.22285050227E+03 -0.36141887208E+03 -0.39281951488E+03  0.57844024647E+03  0.00000000000E+00 0.  1.
         13    1    1    2    0    0 -0.12446661611E+03 -0.11817796813E+03 -0.27235420655E+03  0.32192358669E+03  0.10566000000E+00 0. -1.
<mgrwt>
<rscale>  1 0.66839894E+03</rscale>
<asrwt>0</asrwt>
<pdfrwt beam="1">  1       21 0.66852873E-01 0.10515918E+04</pdfrwt>
<pdfrwt beam="2">  1        4 0.14951252E+00 0.10515918E+04</pdfrwt>
<totfact> 0.23684718E+01</totfact>
</mgrwt>
</event>
<event>
 6    1  0.1412458E-005  0.1011955E+04  0.7818608E-02  0.1003164E+00
         21   -1    0    0  501  502  0.00000000000E+00  0.00000000000E+00  0.69541259278E+03  0.69541259278E+03  0.00000000000E+00 0.  1.
          4   -1    0    0  502    0 -0.00000000000E+00 -0.00000000000E+00 -0.43244994512E+03  0.43244994512E+03  0.00000000000E+00 0.  1.
    9000010    2    1    2  501    0 -0.83025223972E+02  0.11327587609E+02  0.22962860215E+03  0.10376812105E+04  0.10084797954E+04 0.  0.
        -13    1    3    3    0    0  0.37164534191E+03  0.21625726114E+03  0.31326294581E+03  0.53199731911E+03  0.10566000000E+00 0.  1.
          4    1    3    3  501    0 -0.45467056588E+03 -0.20492967353E+03 -0.83634343658E+02  0.50568389139E+03  0.00000000000E+00 0.  1.
         13    1    1    2    0    0  0.83025223972E+02 -0.11327587609E+02  0.33334045508E+02  0.90181327394E+02  0.10566000000E+00 0. -1.
<mgrwt>
<rscale>  1 0.54284371E+03</rscale>
<asrwt>0</asrwt>
<pdfrwt beam="1">  1       21 0.10698655E+00 0.10119550E+04</pdfrwt>
<pdfrwt beam="2">  1        4 0.66530761E-01 0.10119550E+04</pdfrwt>
<totfact> 0.54954263E+01</totfact>
</mgrwt>
</event>
<event>
 6    1  0.1412458E-005  0.8013636E+03  0.7818608E-02  0.1032739E+00
          4   -1    0    0  502    0 -0.00000000000E+00  0.00000000000E+00  0.50969399850E+03  0.50969399850E+03  0.00000000000E+00 0.  1.
         21   -1    0    0  501  502  0.00000000000E+00 -0.00000000000E+00 -0.37161223048E+03  0.37161223048E+03  0.00000000000E+00 0.  1.
    9000010    2    1    2  501    0 -0.54687344358E+02 -0.41523704251E+02  0.11998552612E+03  0.81029630868E+03  0.79841634360E+03 0.  0.
        -13    1    3    3    0    0 -0.41928177179E+01  0.30828210568E+03 -0.17094042720E+03  0.35252812259E+03  0.10566000000E+00 0.  1.
          4    1    3    3  501    0 -0.50494526640E+02 -0.34980580993E+03  0.29092595332E+03  0.45776818609E+03  0.00000000000E+00 0.  1.
         13    1    1    2    0    0  0.54687344358E+02  0.41523704251E+02  0.18096241897E+02  0.71009920310E+02  0.10566000000E+00 0. -1.
<mgrwt>
<rscale>  1 0.43356744E+03</rscale>
<asrwt>0</asrwt>
<pdfrwt beam="2">  1       21 0.57171112E-01 0.80136358E+03</pdfrwt>
<pdfrwt beam="1">  1        4 0.78414462E-01 0.80136358E+03</pdfrwt>
<totfact> 0.16777028E+02</totfact>
</mgrwt>
</event>
<event>
 6    1  0.1412458E-005  0.1492464E+04  0.7818608E-02  0.8965191E-01
         21   -1    0    0  501  502  0.00000000000E+00  0.00000000000E+00  0.62833567595E+03  0.62833567595E+03  0.00000000000E+00 0.  1.
          4   -1    0    0  502    0 -0.00000000000E+00 -0.00000000000E+00 -0.29823459035E+04  0.29823459035E+04  0.00000000000E+00 0.  1.
    9000010    2    1    2  501    0 -0.86717545045E+03 -0.68473380477E+03 -0.77003687399E+03  0.16794060317E+04  0.10032916759E+04 0.  0.
        -13    1    3    3    0    0 -0.17489029263E+03  0.22436637568E+03  0.27684239861E+02  0.28582042140E+03  0.10566000000E+00 0.  1.
          4    1    3    3  501    0 -0.69228515782E+03 -0.90910018045E+03 -0.79772111385E+03  0.13935856103E+04  0.00000000000E+00 0.  1.
         13    1    1    2    0    0  0.86717545045E+03  0.68473380477E+03 -0.15839733536E+04  0.19312755477E+04  0.10566000000E+00 0. -1.
<mgrwt>
<rscale>  1 0.13843974E+04</rscale>
<asrwt>0</asrwt>
<pdfrwt beam="1">  1       21 0.96667029E-01 0.14924637E+04</pdfrwt>
<pdfrwt beam="2">  1        4 0.45882244E+00 0.14924637E+04</pdfrwt>
<totfact> 0.79071588E-02</totfact>
</mgrwt>
</event>
<event>
 6    1  0.1412458E-005  0.9529044E+03  0.7818608E-02  0.9686753E-01
         21   -1    0    0  501  502  0.00000000000E+00  0.00000000000E+00  0.69713628187E+03  0.69713628187E+03  0.00000000000E+00 0.  1.
          4   -1    0    0  502    0 -0.00000000000E+00 -0.00000000000E+00 -0.76143483826E+03  0.76143483826E+03  0.00000000000E+00 0.  1.
    9000010    2    1    2  501    0 -0.25797491195E+03 -0.16704879862E+03  0.28374617178E+03  0.99425280229E+03  0.90198136819E+03 0.  0.
        -13    1    3    3    0    0  0.58807364742E+02 -0.33235028055E+02 -0.30502266987E+03  0.31241272947E+03  0.10566000000E+00 0.  1.
          4    1    3    3  501    0 -0.31678227669E+03 -0.13381377057E+03  0.58876884164E+03  0.68184007282E+03  0.00000000000E+00 0.  1.
         13    1    1    2    0    0  0.25797491195E+03  0.16704879862E+03 -0.34804472817E+03  0.46431831784E+03  0.10566000000E+00 0. -1.
<mgrwt>
<rscale>  1 0.71810987E+03</rscale>
<asrwt>0</asrwt>
<pdfrwt beam="1">  1       21 0.10725174E+00 0.95290437E+03</pdfrwt>
<pdfrwt beam="2">  1        4 0.11714382E+00 0.95290437E+03</pdfrwt>
<totfact> 0.14548171E+01</totfact>
</mgrwt>
</event>
<event>
 6    1  0.1412458E-005  0.1017873E+04  0.7818608E-02  0.9685341E-01
          4   -1    0    0  502    0 -0.00000000000E+00  0.00000000000E+00  0.91154310820E+03  0.91154310820E+03  0.00000000000E+00 0.  1.
         21   -1    0    0  501  502  0.00000000000E+00 -0.00000000000E+00 -0.57814705984E+03  0.57814705984E+03  0.00000000000E+00 0.  1.
    9000010    2    1    2  501    0  0.94009858399E+02  0.23527819592E+03 -0.62357596187E+02  0.10197809840E+04  0.98583523090E+03 0.  0.
        -13    1    3    3    0    0  0.33812206336E+03  0.67658217506E+02  0.36353434910E+03  0.50106027409E+03  0.10566000000E+00 0.  1.
          4    1    3    3  501    0 -0.24411220497E+03  0.16761997842E+03 -0.42589194529E+03  0.51872070986E+03  0.00000000000E+00 0.  1.
         13    1    1    2    0    0 -0.94009858399E+02 -0.23527819592E+03  0.39575364454E+03  0.46990918409E+03  0.10566000000E+00 0. -1.
<mgrwt>
<rscale>  1 0.71896316E+03</rscale>
<asrwt>0</asrwt>
<pdfrwt beam="2">  1       21 0.88945701E-01 0.10178727E+04</pdfrwt>
<pdfrwt beam="1">  1        4 0.14023740E+00 0.10178727E+04</pdfrwt>
<totfact> 0.14450536E+01</totfact>
</mgrwt>
</event>
<event>
 6    1  0.1412458E-005  0.1013662E+04  0.7818608E-02  0.1011127E+00
          4   -1    0    0  502    0 -0.00000000000E+00  0.00000000000E+00  0.15701642341E+03  0.15701642341E+03  0.00000000000E+00 0.  1.
         21   -1    0    0  501  502  0.00000000000E+00 -0.00000000000E+00 -0.24488383502E+04  0.24488383502E+04  0.00000000000E+00 0.  1.
    9000010    2    1    2  501    0  0.64699372156E+02  0.72209103078E+01 -0.23223630194E+04  0.25339456657E+04  0.10115693216E+04 0.  0.
        -13    1    3    3    0    0  0.37797441500E+03  0.35682135735E+03 -0.94128907647E+03  0.10752726520E+04  0.10566000000E+00 0.  1.
          4    1    3    3  501    0 -0.31327504284E+03 -0.34960044704E+03 -0.13810739430E+04  0.14586730137E+04  0.00000000000E+00 0.  1.
         13    1    1    2    0    0 -0.64699372156E+02 -0.72209103078E+01  0.30541092611E+02  0.71909107941E+02  0.10566000000E+00 0. -1.
<mgrwt>
<rscale>  1 0.51029000E+03</rscale>
<asrwt>0</asrwt>
<pdfrwt beam="2">  1       21 0.37674434E+00 0.10136620E+04</pdfrwt>
<pdfrwt beam="1">  1        4 0.24156374E-01 0.10136620E+04</pdfrwt>
<totfact> 0.57194159E+00</totfact>
</mgrwt>
</event>
<event>
 6    1  0.1412458E-005  0.1204244E+04  0.7818608E-02  0.9262061E-01
          4   -1    0    0  502    0 -0.00000000000E+00  0.00000000000E+00  0.39206432641E+04  0.39206432641E+04  0.00000000000E+00 0.  1.
         21   -1    0    0  501  502  0.00000000000E+00 -0.00000000000E+00 -0.29613060760E+03  0.29613060760E+03  0.00000000000E+00 0.  1.
    9000010    2    1    2  501    0  0.61761592425E+03  0.28207363015E+03  0.12042042022E+04  0.17030300526E+04  0.99457962824E+03 0.  0.
        -13    1    3    3    0    0  0.70097567952E+03  0.74890159831E+02  0.29057420494E+03  0.76250168462E+03  0.10566000000E+00 0.  1.
          4    1    3    3  501    0 -0.83359755270E+02  0.20718347032E+03  0.91362999723E+03  0.94052836800E+03  0.00000000000E+00 0.  1.
         13    1    1    2    0    0 -0.61761592425E+03 -0.28207363015E+03  0.24203084544E+04  0.25137438191E+04  0.10566000000E+00 0. -1.
<mgrwt>
<rscale>  1 0.10435187E+04</rscale>
<asrwt>0</asrwt>
<pdfrwt beam="2">  1       21 0.45558558E-01 0.12042440E+04</pdfrwt>
<pdfrwt beam="1">  1        4 0.60317585E+00 0.12042440E+04</pdfrwt>
<totfact> 0.29000942E-02</totfact>
</mgrwt>
</event>
<event>
 6    1  0.1412458E-005  0.1025686E+04  0.7818608E-02  0.9712167E-01
          4   -1    0    0  502    0 -0.00000000000E+00  0.00000000000E+00  0.55660568660E+03  0.55660568660E+03  0.00000000000E+00 0.  1.
         21   -1    0    0  501  502  0.00000000000E+00 -0.00000000000E+00 -0.81709009832E+03  0.81709009832E+03  0.00000000000E+00 0.  1.
    9000010    2    1    2  501    0  0.12791778482E+02  0.22594838076E+03 -0.40767018044E+03  0.11037328948E+04  0.10004074303E+04 0.  0.
        -13    1    3    3    0    0 -0.31722396060E+03  0.12034853094E+03 -0.61324107974E+03  0.70084195303E+03  0.10566000000E+00 0.  1.
          4    1    3    3  501    0  0.33001573908E+03  0.10559984982E+03  0.20557089930E+03  0.40289094178E+03  0.00000000000E+00 0.  1.
         13    1    1    2    0    0 -0.12791778482E+02 -0.22594838076E+03  0.14718576871E+03  0.26996289012E+03  0.10566000000E+00 0. -1.
<mgrwt>
<rscale>  1 0.70297000E+03</rscale>
<asrwt>0</asrwt>
<pdfrwt beam="2">  1       21 0.12570617E+00 0.10256858E+04</pdfrwt>
<pdfrwt beam="1">  1        4 0.85631645E-01 0.10256858E+04</pdfrwt>
<totfact> 0.20427229E+01</totfact>
</mgrwt>
</event>
<event>
 6    1  0.1412458E-005  0.1079501E+04  0.7818608E-02  0.9504316E-01
         21   -1    0    0  501  502  0.00000000000E+00  0.00000000000E+00  0.19612074276E+04  0.19612074276E+04  0.00000000000E+00 0.  1.
          4   -1    0    0  502    0 -0.00000000000E+00 -0.00000000000E+00 -0.28356752930E+03  0.28356752930E+03  0.00000000000E+00 0.  1.
    9000010    2    1    2  501    0 -0.30384934537E+03  0.25261039261E+03  0.13688241975E+04  0.17432736275E+04  0.10045829093E+04 0.  0.
        -13    1    3    3    0    0 -0.52606705426E+03 -0.20089655494E+03  0.84677222051E+03  0.10169214207E+04  0.10566000000E+00 0.  1.
          4    1    3    3  501    0  0.22221770888E+03  0.45350694756E+03  0.52205197699E+03  0.72635220678E+03  0.00000000000E+00 0.  1.
         13    1    1    2    0    0  0.30384934537E+03 -0.25261039261E+03  0.30881570078E+03  0.50150132936E+03  0.10566000000E+00 0. -1.
<mgrwt>
<rscale>  1 0.83966382E+03</rscale>
<asrwt>0</asrwt>
<pdfrwt beam="1">  1       21 0.30172421E+00 0.10795014E+04</pdfrwt>
<pdfrwt beam="2">  1        4 0.43625775E-01 0.10795014E+04</pdfrwt>
<totfact> 0.52049678E+00</totfact>
</mgrwt>
</event>
<event>
 6    1  0.1412458E-005  0.1049724E+04  0.7818608E-02  0.9647015E-01
          4   -1    0    0  502    0 -0.00000000000E+00  0.00000000000E+00  0.14856447289E+04  0.14856447289E+04  0.00000000000E+00 0.  1.
         21   -1    0    0  501  502  0.00000000000E+00 -0.00000000000E+00 -0.29926468570E+03  0.29926468570E+03  0.00000000000E+00 0.  1.
    9000010    2    1    2  501    0 -0.23804682086E+03  0.11161923195E+03  0.81052769323E+03  0.13262263628E+04  0.10162657536E+04 0.  0.
        -13    1    3    3    0    0  0.38496684884E+03  0.17619581143E+03  0.32727675365E+03  0.53512103614E+03  0.10566000000E+00 0.  1.
          4    1    3    3  501    0 -0.62301366970E+03 -0.64576579480E+02  0.48325093958E+03  0.79110532665E+03  0.00000000000E+00 0.  1.
         13    1    1    2    0    0  0.23804682086E+03 -0.11161923195E+03  0.37585234996E+03  0.45868305179E+03  0.10566000000E+00 0. -1.
<mgrwt>
<rscale>  1 0.74261030E+03</rscale>
<asrwt>0</asrwt>
<pdfrwt beam="2">  1       21 0.46040722E-01 0.10497244E+04</pdfrwt>
<pdfrwt beam="1">  1        4 0.22856072E+00 0.10497244E+04</pdfrwt>
<totfact> 0.15371459E+01</totfact>
</mgrwt>
</event>
<event>
 6    1  0.1412458E-005  0.1001010E+04  0.7818608E-02  0.1004300E+00
         21   -1    0    0  501  502  0.00000000000E+00  0.00000000000E+00  0.43251428291E+03  0.43251428291E+03  0.00000000000E+00 0.  1.
          4   -1    0    0  502    0 -0.00000000000E+00 -0.00000000000E+00 -0.99731988225E+03  0.99731988225E+03  0.00000000000E+00 0.  1.
    9000010    2    1    2  501    0  0.57574902524E+02  0.60548265639E+02 -0.15662412326E+03  0.10131891239E+04  0.99751697872E+03 0.  0.
        -13    1    3    3    0    0 -0.16018363030E+03  0.49215309760E+03 -0.77926168535E+02  0.52339847707E+03  0.10566000000E+00 0.  1.
          4    1    3    3  501    0  0.21775853282E+03 -0.43160483197E+03 -0.78697954723E+02  0.48979064678E+03  0.00000000000E+00 0.  1.
         13    1    1    2    0    0 -0.57574902524E+02 -0.60548265639E+02 -0.40818147608E+03  0.41664504131E+03  0.10566000000E+00 0. -1.
<mgrwt>
<rscale>  1 0.53804465E+03</rscale>
<asrwt>0</asrwt>
<pdfrwt beam="1">  1       21 0.66540660E-01 0.10010100E+04</pdfrwt>
<pdfrwt beam="2">  1        4 0.15343383E+00 0.10010100E+04</pdfrwt>
<totfact> 0.22431452E+01</totfact>
</mgrwt>
</event>
<event>
 6    1  0.1412458E-005  0.8688450E+03  0.7818608E-02  0.1009847E+00
          4   -1    0    0  502    0 -0.00000000000E+00  0.00000000000E+00  0.13319124995E+03  0.13319124995E+03  0.00000000000E+00 0.  1.
         21   -1    0    0  501  502  0.00000000000E+00 -0.00000000000E+00 -0.17924153142E+04  0.17924153142E+04  0.00000000000E+00 0.  1.
    9000010    2    1    2  501    0  0.10064140144E+03  0.37916240731E+02 -0.15000546352E+04  0.17335095801E+04  0.86216310668E+03 0.  0.
        -13    1    3    3    0    0 -0.16052010811E+03 -0.19584145930E+03 -0.13110897146E+04  0.13353190006E+04  0.10566000000E+00 0.  1.
          4    1    3    3  501    0  0.26116150954E+03  0.23375770003E+03 -0.18896492059E+03  0.39819057950E+03  0.00000000000E+00 0.  1.
         13    1    1    2    0    0 -0.10064140144E+03 -0.37916240731E+02 -0.15916942905E+03  0.19209698411E+03  0.10566000000E+00 0. -1.
<mgrwt>
<rscale>  1 0.51535468E+03</rscale>
<asrwt>0</asrwt>
<pdfrwt beam="2">  1       21 0.27575620E+00 0.86884495E+03</pdfrwt>
<pdfrwt beam="1">  1        4 0.20490961E-01 0.86884495E+03</pdfrwt>
<totfact> 0.34345296E+01</totfact>
</mgrwt>
</event>
<event>
 6    1  0.1412458E-005  0.1009422E+04  0.7818608E-02  0.9912912E-01
          4   -1    0    0  502    0 -0.00000000000E+00  0.00000000000E+00  0.73238804132E+03  0.73238804132E+03  0.00000000000E+00 0.  1.
         21   -1    0    0  501  502  0.00000000000E+00 -0.00000000000E+00 -0.53244571751E+03  0.53244571751E+03  0.00000000000E+00 0.  1.
    9000010    2    1    2  501    0  0.65396710005E+02 -0.10417912165E+03 -0.23584881298E+02  0.10096976351E+04  0.10018997198E+04 0.  0.
        -13    1    3    3    0    0  0.20218687024E+03 -0.21508612838E+02 -0.48258259030E+03  0.52366794684E+03  0.10566000000E+00 0.  1.
          4    1    3    3  501    0 -0.13679016024E+03 -0.82670508810E+02  0.45899770900E+03  0.48602968822E+03  0.00000000000E+00 0.  1.
         13    1    1    2    0    0 -0.65396710005E+02  0.10417912165E+03  0.22352720510E+03  0.25513612377E+03  0.10566000000E+00 0. -1.
<mgrwt>
<rscale>  1 0.59639583E+03</rscale>
<asrwt>0</asrwt>
<pdfrwt beam="2">  1       21 0.81914726E-01 0.10094221E+04</pdfrwt>
<pdfrwt beam="1">  1        4 0.11267508E+00 0.10094221E+04</pdfrwt>
<totfact> 0.30741925E+01</totfact>
</mgrwt>
</event>
<event>
 6    1  0.1412458E-005  0.1072292E+04  0.7818608E-02  0.9588367E-01
          4   -1    0    0  502    0 -0.00000000000E+00  0.00000000000E+00  0.73010432173E+03  0.73010432173E+03  0.00000000000E+00 0.  1.
         21   -1    0    0  501  502  0.00000000000E+00 -0.00000000000E+00 -0.93279582902E+03  0.93279582902E+03  0.00000000000E+00 0.  1.
    9000010    2    1    2  501    0  0.27282301775E+03 -0.12789530781E+03 -0.54833533710E+03  0.12043597741E+04  0.10290875642E+04 0.  0.
        -13    1    3    3    0    0  0.40551799450E+03 -0.51218836250E+03 -0.24748031507E+03  0.69859020896E+03  0.10566000000E+00 0.  1.
          4    1    3    3  501    0 -0.13269497675E+03  0.38429305469E+03 -0.30085502203E+03  0.50576956514E+03  0.00000000000E+00 0.  1.
         13    1    1    2    0    0 -0.27282301775E+03  0.12789530781E+03  0.34564382981E+03  0.45854037666E+03  0.10566000000E+00 0. -1.
<mgrwt>
<rscale>  1 0.78070942E+03</rscale>
<asrwt>0</asrwt>
<pdfrwt beam="2">  1       21 0.14350705E+00 0.10722923E+04</pdfrwt>
<pdfrwt beam="1">  1        4 0.11232374E+00 0.10722923E+04</pdfrwt>
<totfact> 0.74174057E+00</totfact>
</mgrwt>
</event>
<event>
 6    1  0.1412458E-005  0.1178593E+04  0.7818608E-02  0.9294469E-01
          4   -1    0    0  502    0 -0.00000000000E+00  0.00000000000E+00  0.61384903207E+03  0.61384903207E+03  0.00000000000E+00 0.  1.
         21   -1    0    0  501  502  0.00000000000E+00 -0.00000000000E+00 -0.15712290114E+04  0.15712290114E+04  0.00000000000E+00 0.  1.
    9000010    2    1    2  501    0 -0.41616224225E+03  0.49021220986E+03 -0.99286761514E+03  0.15410606478E+04  0.98771594921E+03 0.  0.
        -13    1    3    3    0    0  0.26146798128E+03  0.64186824248E+02 -0.58219166546E+03  0.64143012101E+03  0.10566000000E+00 0.  1.
          4    1    3    3  501    0 -0.67763022353E+03  0.42602538561E+03 -0.41067594969E+03  0.89963052676E+03  0.00000000000E+00 0.  1.
         13    1    1    2    0    0  0.41616224225E+03 -0.49021220986E+03  0.35487635776E+02  0.64401739574E+03  0.10566000000E+00 0. -1.
<mgrwt>
<rscale>  1 0.10129366E+04</rscale>
<asrwt>0</asrwt>
<pdfrwt beam="2">  1       21 0.24172754E+00 0.11785932E+04</pdfrwt>
<pdfrwt beam="1">  1        4 0.94438314E-01 0.11785932E+04</pdfrwt>
<totfact> 0.22156598E+00</totfact>
</mgrwt>
</event>
<event>
 6    1  0.1412458E-005  0.9835075E+03  0.7818608E-02  0.1028751E+00
          4   -1    0    0  502    0 -0.00000000000E+00  0.00000000000E+00  0.21747034376E+03  0.21747034376E+03  0.00000000000E+00 0.  1.
         21   -1    0    0  501  502  0.00000000000E+00 -0.00000000000E+00 -0.12816645180E+04  0.12816645180E+04  0.00000000000E+00 0.  1.
    9000010    2    1    2  501    0  0.27960921740E+02 -0.31075234797E+02 -0.10739099927E+04  0.14562175965E+04  0.98261871163E+03 0.  0.
        -13    1    3    3    0    0 -0.18906627678E+03 -0.45123156364E+03 -0.69661837073E+03  0.85125386733E+03  0.10566000000E+00 0.  1.
          4    1    3    3  501    0  0.21702719852E+03  0.42015632884E+03 -0.37729162202E+03  0.60496372917E+03  0.00000000000E+00 0.  1.
         13    1    1    2    0    0 -0.27960921740E+02  0.31075234797E+02  0.97158185280E+01  0.42917265243E+02  0.10566000000E+00 0. -1.
<mgrwt>
<rscale>  1 0.44656557E+03</rscale>
<asrwt>0</asrwt>
<pdfrwt beam="2">  1       21 0.19717916E+00 0.98350751E+03</pdfrwt>
<pdfrwt beam="1">  1        4 0.33456976E-01 0.98350751E+03</pdfrwt>
<totfact> 0.42509951E+01</totfact>
</mgrwt>
</event>
<event>
 6    1  0.1412458E-005  0.1023366E+04  0.7818608E-02  0.9753696E-01
         21   -1    0    0  501  502  0.00000000000E+00  0.00000000000E+00  0.13136531212E+04  0.13136531212E+04  0.00000000000E+00 0.  1.
          4   -1    0    0  502    0 -0.00000000000E+00 -0.00000000000E+00 -0.34788468778E+03  0.34788468778E+03  0.00000000000E+00 0.  1.
    9000010    2    1    2  501    0  0.68679738872E+02  0.18615429216E+03  0.46726206561E+03  0.11249943001E+04  0.10039462188E+04 0.  0.
        -13    1    3    3    0    0 -0.50758100949E+02  0.73628770273E+02 -0.31410215205E+03  0.32658498696E+03  0.10566000000E+00 0.  1.
          4    1    3    3  501    0  0.11943783982E+03  0.11252552188E+03  0.78136421766E+03  0.79840931313E+03  0.00000000000E+00 0.  1.
         13    1    1    2    0    0 -0.68679738872E+02 -0.18615429216E+03  0.49850636783E+03  0.53654350891E+03  0.10566000000E+00 0. -1.
<mgrwt>
<rscale>  1 0.67907774E+03</rscale>
<asrwt>0</asrwt>
<pdfrwt beam="1">  1       21 0.20210048E+00 0.10233662E+04</pdfrwt>
<pdfrwt beam="2">  1        4 0.53520722E-01 0.10233662E+04</pdfrwt>
<totfact> 0.14881650E+01</totfact>
</mgrwt>
</event>
<event>
 6    1  0.1412458E-005  0.1015597E+04  0.7818608E-02  0.1012855E+00
         21   -1    0    0  501  502  0.00000000000E+00  0.00000000000E+00  0.83449802520E+03  0.83449802520E+03  0.00000000000E+00 0.  1.
          4   -1    0    0  502    0 -0.00000000000E+00 -0.00000000000E+00 -0.35655579367E+03  0.35655579367E+03  0.00000000000E+00 0.  1.
    9000010    2    1    2  501    0 -0.59511997220E+02  0.15026508793E+02  0.49137225006E+03  0.11282218975E+04  0.10137408387E+04 0.  0.
        -13    1    3    3    0    0 -0.29502208600E+03 -0.41057290809E+03  0.37110788504E+03  0.62715964283E+03  0.10566000000E+00 0.  1.
          4    1    3    3  501    0  0.23551008878E+03  0.42559941689E+03  0.12026436502E+03  0.50106225468E+03  0.00000000000E+00 0.  1.
         13    1    1    2    0    0  0.59511997220E+02 -0.15026508793E+02 -0.13430018543E+02  0.62831921359E+02  0.10566000000E+00 0. -1.
<mgrwt>
<rscale>  1 0.50355581E+03</rscale>
<asrwt>0</asrwt>
<pdfrwt beam="1">  1       21 0.12838431E+00 0.10155973E+04</pdfrwt>
<pdfrwt beam="2">  1        4 0.54854738E-01 0.10155973E+04</pdfrwt>
<totfact> 0.52288175E+01</totfact>
</mgrwt>
</event>
<event>
 6    1  0.1412458E-005  0.1009088E+04  0.7818608E-02  0.1003844E+00
         21   -1    0    0  501  502  0.00000000000E+00  0.00000000000E+00  0.20496719758E+03  0.20496719758E+03  0.00000000000E+00 0.  1.
          4   -1    0    0  502    0 -0.00000000000E+00 -0.00000000000E+00 -0.15459255862E+04  0.15459255862E+04  0.00000000000E+00 0.  1.
    9000010    2    1    2  501    0  0.32769801274E+02 -0.75963494558E+02 -0.10841812312E+04  0.14811172621E+04  0.10056913490E+04 0.  0.
        -13    1    3    3    0    0  0.15342404957E+03 -0.20576616973E+03  0.10608696192E+03  0.27772848296E+03  0.10566000000E+00 0.  1.
          4    1    3    3  501    0 -0.12065424830E+03  0.12980267518E+03 -0.11902681931E+04  0.12033887791E+04  0.00000000000E+00 0.  1.
         13    1    1    2    0    0 -0.32769801274E+02  0.75963494558E+02 -0.25677715741E+03  0.26977552170E+03  0.10566000000E+00 0. -1.
<mgrwt>
<rscale>  1 0.53996204E+03</rscale>
<asrwt>0</asrwt>
<pdfrwt beam="1">  1       21 0.31533416E-01 0.10090884E+04</pdfrwt>
<pdfrwt beam="2">  1        4 0.23783470E+00 0.10090884E+04</pdfrwt>
<totfact> 0.29678146E+01</totfact>
</mgrwt>
</event>
<event>
 6    1  0.1412458E-005  0.1138220E+04  0.7818608E-02  0.9361884E-01
          4   -1    0    0  502    0 -0.00000000000E+00  0.00000000000E+00  0.31494955273E+03  0.31494955273E+03  0.00000000000E+00 0.  1.
         21   -1    0    0  501  502  0.00000000000E+00 -0.00000000000E+00 -0.23041258279E+04  0.23041258279E+04  0.00000000000E+00 0.  1.
    9000010    2    1    2  501    0 -0.20040939404E+03 -0.52172445131E+03 -0.12229380017E+04  0.16706654317E+04  0.99155700814E+03 0.  0.
        -13    1    3    3    0    0  0.12300138758E+03 -0.10517392133E+03  0.13701197961E+03  0.21204525176E+03  0.10566000000E+00 0.  1.
          4    1    3    3  501    0 -0.32341078161E+03 -0.41655052998E+03 -0.13599499813E+04  0.14586201799E+04  0.00000000000E+00 0.  1.
         13    1    1    2    0    0  0.20040939404E+03  0.52172445131E+03 -0.76623827344E+03  0.94840994889E+03  0.10566000000E+00 0. -1.
<mgrwt>
<rscale>  1 0.95280013E+03</rscale>
<asrwt>0</asrwt>
<pdfrwt beam="2">  1       21 0.35448090E+00 0.11382204E+04</pdfrwt>
<pdfrwt beam="1">  1        4 0.48453776E-01 0.11382204E+04</pdfrwt>
<totfact> 0.19303413E+00</totfact>
</mgrwt>
</event>
<event>
 6    1  0.1412458E-005  0.1038219E+04  0.7818608E-02  0.9658530E-01
          4   -1    0    0  502    0 -0.00000000000E+00  0.00000000000E+00  0.29382918364E+03  0.29382918364E+03  0.00000000000E+00 0.  1.
         21   -1    0    0  501  502  0.00000000000E+00 -0.00000000000E+00 -0.14581671782E+04  0.14581671782E+04  0.00000000000E+00 0.  1.
    9000010    2    1    2  501    0  0.23500443330E+03 -0.11437698638E+03 -0.10101119410E+04  0.14485250033E+04  0.10047832469E+04 0.  0.
        -13    1    3    3    0    0 -0.17082703981E+03 -0.15885980523E+03  0.10884076453E+03  0.25741918817E+03  0.10566000000E+00 0.  1.
          4    1    3    3  501    0  0.40583147311E+03  0.44482818849E+02 -0.11189527055E+04  0.11911058151E+04  0.00000000000E+00 0.  1.
         13    1    1    2    0    0 -0.23500443330E+03  0.11437698638E+03 -0.15422605363E+03  0.30347135856E+03  0.10566000000E+00 0. -1.
<mgrwt>
<rscale>  1 0.73540504E+03</rscale>
<asrwt>0</asrwt>
<pdfrwt beam="2">  1       21 0.22433342E+00 0.10382189E+04</pdfrwt>
<pdfrwt beam="1">  1        4 0.45204489E-01 0.10382189E+04</pdfrwt>
<totfact> 0.15043320E+01</totfact>
</mgrwt>
</event>
<event>
 6    1  0.1412458E-005  0.9382324E+03  0.7818608E-02  0.9984701E-01
          4   -1    0    0  502    0 -0.00000000000E+00  0.00000000000E+00  0.29212004849E+03  0.29212004849E+03  0.00000000000E+00 0.  1.
         21   -1    0    0  501  502  0.00000000000E+00 -0.00000000000E+00 -0.98312558992E+03  0.98312558992E+03  0.00000000000E+00 0.  1.
    9000010    2    1    2  501    0  0.94105097065E+02  0.77443357309E+02 -0.66666255470E+03  0.11509643645E+04  0.93028316311E+03 0.  0.
        -13    1    3    3    0    0  0.39779167463E+03  0.30613237142E+03 -0.56839449601E+03  0.75830571638E+03  0.10566000000E+00 0.  1.
          4    1    3    3  501    0 -0.30368657756E+03 -0.22868901411E+03 -0.98268058695E+02  0.39265864810E+03  0.00000000000E+00 0.  1.
         13    1    1    2    0    0 -0.94105097065E+02 -0.77443357309E+02 -0.24342986730E+02  0.12428127394E+03  0.10566000000E+00 0. -1.
<mgrwt>
<rscale>  1 0.56326208E+03</rscale>
<asrwt>0</asrwt>
<pdfrwt beam="2">  1       21 0.15125009E+00 0.93823238E+03</pdfrwt>
<pdfrwt beam="1">  1        4 0.44941546E-01 0.93823238E+03</pdfrwt>
<totfact> 0.51371432E+01</totfact>
</mgrwt>
</event>
<event>
 6    1  0.1412458E-005  0.1107917E+04  0.7818608E-02  0.9423610E-01
          4   -1    0    0  502    0 -0.00000000000E+00  0.00000000000E+00  0.10544826925E+04  0.10544826925E+04  0.00000000000E+00 0.  1.
         21   -1    0    0  501  502  0.00000000000E+00 -0.00000000000E+00 -0.67467860968E+03  0.67467860968E+03  0.00000000000E+00 0. -1.
    9000010    2    1    2  501    0 -0.10598912408E+03 -0.47413682669E+03  0.51945756330E+03  0.12236491553E+04  0.99571164023E+03 0.  0.
        -13    1    3    3    0    0 -0.45058387579E+03 -0.18669618144E+03 -0.59280777429E+02  0.49132017568E+03  0.10566000000E+00 0.  1.
          4    1    3    3  501    0  0.34459475171E+03 -0.28744064524E+03  0.57873834072E+03  0.73232897967E+03  0.00000000000E+00 0.  1.
         13    1    1    2    0    0  0.10598912408E+03  0.47413682669E+03 -0.13965348046E+03  0.50551214685E+03  0.10566000000E+00 0. -1.
<mgrwt>
<rscale>  1 0.90157878E+03</rscale>
<asrwt>0</asrwt>
<pdfrwt beam="2">  1       21 0.10379671E+00 0.11079175E+04</pdfrwt>
<pdfrwt beam="1">  1        4 0.16222811E+00 0.11079175E+04</pdfrwt>
<totfact> 0.66099647E+00</totfact>
</mgrwt>
</event>
<event>
 6    1  0.1412458E-005  0.1000691E+04  0.7818608E-02  0.9869013E-01
          4   -1    0    0  502    0 -0.00000000000E+00  0.00000000000E+00  0.12278264767E+04  0.12278264767E+04  0.00000000000E+00 0.  1.
         21   -1    0    0  501  502  0.00000000000E+00 -0.00000000000E+00 -0.28174670897E+03  0.28174670897E+03  0.00000000000E+00 0.  1.
    9000010    2    1    2  501    0 -0.20078325138E+02  0.14404752838E+03  0.69147209181E+03  0.12163532863E+04  0.99006506544E+03 0.  0.
        -13    1    3    3    0    0  0.23683967963E+03  0.27195431330E+03 -0.10018063260E+03  0.37428378629E+03  0.10566000000E+00 0.  1.
          4    1    3    3  501    0 -0.25691800477E+03 -0.12790678492E+03  0.79165272441E+03  0.84206950002E+03  0.00000000000E+00 0.  1.
         13    1    1    2    0    0  0.20078325138E+02 -0.14404752838E+03  0.25460767587E+03  0.29321989931E+03  0.10566000000E+00 0. -1.
<mgrwt>
<rscale>  1 0.61786835E+03</rscale>
<asrwt>0</asrwt>
<pdfrwt beam="2">  1       21 0.43345648E-01 0.10006906E+04</pdfrwt>
<pdfrwt beam="1">  1        4 0.18889638E+00 0.10006906E+04</pdfrwt>
<totfact> 0.31863914E+01</totfact>
</mgrwt>
</event>
<event>
 6    1  0.1412458E-005  0.1284282E+04  0.7818608E-02  0.9162185E-01
          4   -1    0    0  502    0 -0.00000000000E+00  0.00000000000E+00  0.12873235074E+04  0.12873235074E+04  0.00000000000E+00 0.  1.
         21   -1    0    0  501  502  0.00000000000E+00 -0.00000000000E+00 -0.13598306216E+04  0.13598306216E+04  0.00000000000E+00 0. -1.
    9000010    2    1    2  501    0 -0.66940615288E+03  0.45977484118E+03 -0.83608715416E+03  0.15324559677E+04  0.99492816897E+03 0.  0.
        -13    1    3    3    0    0 -0.15006865362E+03 -0.55992436503E+02 -0.78232101677E+03  0.79854989712E+03  0.10566000000E+00 0.  1.
          4    1    3    3  501    0 -0.51933749926E+03  0.51576727768E+03 -0.53766137392E+02  0.73390607055E+03  0.00000000000E+00 0.  1.
         13    1    1    2    0    0  0.66940615288E+03 -0.45977484118E+03  0.76358003999E+03  0.11146981613E+04  0.10566000000E+00 0. -1.
<mgrwt>
<rscale>  1 0.11452410E+04</rscale>
<asrwt>0</asrwt>
<pdfrwt beam="2">  1       21 0.20920471E+00 0.12842817E+04</pdfrwt>
<pdfrwt beam="1">  1        4 0.19804977E+00 0.12842817E+04</pdfrwt>
<totfact> 0.50200694E-01</totfact>
</mgrwt>
</event>
<event>
 6    1  0.1412458E-005  0.9963894E+03  0.7818608E-02  0.9902860E-01
         21   -1    0    0  501  502  0.00000000000E+00  0.00000000000E+00  0.18453955165E+04  0.18453955165E+04  0.00000000000E+00 0.  1.
          4   -1    0    0  502    0 -0.00000000000E+00 -0.00000000000E+00 -0.19933615124E+03  0.19933615124E+03  0.00000000000E+00 0.  1.
    9000010    2    1    2  501    0  0.41200165872E+02 -0.12550094328E+03  0.16316938780E+04  0.19118621121E+04  0.98759499982E+03 0.  0.
        -13    1    3    3    0    0 -0.35032881234E+02 -0.51130930780E+03  0.13000468837E+04  0.13974213474E+04  0.10566000000E+00 0.  1.
          4    1    3    3  501    0  0.76233047107E+02  0.38580836451E+03  0.33164699431E+03  0.51444076475E+03  0.00000000000E+00 0.  1.
         13    1    1    2    0    0 -0.41200165872E+02  0.12550094328E+03  0.14365487262E+02  0.13286955566E+03  0.10566000000E+00 0. -1.
<mgrwt>
<rscale>  1 0.60122894E+03</rscale>
<asrwt>0</asrwt>
<pdfrwt beam="1">  1       21 0.28390699E+00 0.99638939E+03</pdfrwt>
<pdfrwt beam="2">  1        4 0.30667102E-01 0.99638939E+03</pdfrwt>
<totfact> 0.13852340E+01</totfact>
</mgrwt>
</event>
<event>
 6    1  0.1412458E-005  0.1069164E+04  0.7818608E-02  0.9518600E-01
          4   -1    0    0  502    0 -0.00000000000E+00  0.00000000000E+00  0.36757677337E+03  0.36757677337E+03  0.00000000000E+00 0.  1.
         21   -1    0    0  501  502  0.00000000000E+00 -0.00000000000E+00 -0.14501665696E+04  0.14501665696E+04  0.00000000000E+00 0. -1.
    9000010    2    1    2  501    0 -0.36822397248E+03 -0.11886250898E+03 -0.73327664319E+03  0.12964594664E+04  0.99669219049E+03 0.  0.
        -13    1    3    3    0    0  0.32652304351E+03 -0.14726164289E+03 -0.35756371581E+03  0.50611768537E+03  0.10566000000E+00 0.  1.
          4    1    3    3  501    0 -0.69474701599E+03  0.28399133904E+02 -0.37571292737E+03  0.79034178102E+03  0.00000000000E+00 0.  1.
         13    1    1    2    0    0  0.36822397248E+03  0.11886250898E+03 -0.34931315310E+03  0.52128387663E+03  0.10566000000E+00 0. -1.
<mgrwt>
<rscale>  1 0.82926318E+03</rscale>
<asrwt>0</asrwt>
<pdfrwt beam="2">  1       21 0.22310255E+00 0.10691644E+04</pdfrwt>
<pdfrwt beam="1">  1        4 0.56550272E-01 0.10691644E+04</pdfrwt>
<totfact> 0.95012645E+00</totfact>
</mgrwt>
</event>
<event>
 6    1  0.1412458E-005  0.1026047E+04  0.7818608E-02  0.9704424E-01
          4   -1    0    0  502    0 -0.00000000000E+00  0.00000000000E+00  0.66068793494E+03  0.66068793494E+03  0.00000000000E+00 0.  1.
         21   -1    0    0  501  502  0.00000000000E+00 -0.00000000000E+00 -0.61835886055E+03  0.61835886055E+03  0.00000000000E+00 0.  1.
    9000010    2    1    2  501    0  0.20663237303E+03 -0.10550127569E+03 -0.54843042203E+02  0.10275117320E+04  0.99947243252E+03 0.  0.
        -13    1    3    3    0    0 -0.36737752787E+03 -0.23697019843E+03 -0.23452571895E+02  0.43780264643E+03  0.10566000000E+00 0.  1.
          4    1    3    3  501    0  0.57400990090E+03  0.13146892274E+03 -0.31390470309E+02  0.58970908557E+03  0.00000000000E+00 0.  1.
         13    1    1    2    0    0 -0.20663237303E+03  0.10550127569E+03  0.97172116588E+02  0.25153506349E+03  0.10566000000E+00 0. -1.
<mgrwt>
<rscale>  1 0.70753994E+03</rscale>
<asrwt>0</asrwt>
<pdfrwt beam="2">  1       21 0.95132133E-01 0.10260471E+04</pdfrwt>
<pdfrwt beam="1">  1        4 0.10164430E+00 0.10260471E+04</pdfrwt>
<totfact> 0.27571574E+01</totfact>
</mgrwt>
</event>
<event>
 6    1  0.1412458E-005  0.1178394E+04  0.7818608E-02  0.9294195E-01
          4   -1    0    0  502    0 -0.00000000000E+00  0.00000000000E+00  0.23957554709E+04  0.23957554709E+04  0.00000000000E+00 0.  1.
         21   -1    0    0  501  502  0.00000000000E+00 -0.00000000000E+00 -0.38129960505E+03  0.38129960505E+03  0.00000000000E+00 0. -1.
    9000010    2    1    2  501    0  0.42057941371E+03  0.48771001144E+03  0.87330765502E+03  0.14667240686E+04  0.98684605420E+03 0.  0.
        -13    1    3    3    0    0 -0.29108421806E+03  0.34674160145E+03  0.34801305018E+03  0.57102789287E+03  0.10566000000E+00 0.  1.
          4    1    3    3  501    0  0.71166363177E+03  0.14096840999E+03  0.52529460484E+03  0.89569617575E+03  0.00000000000E+00 0.  1.
         13    1    1    2    0    0 -0.42057941371E+03 -0.48771001144E+03  0.11411482109E+04  0.13103310073E+04  0.10566000000E+00 0. -1.
<mgrwt>
<rscale>  1 0.10131903E+04</rscale>
<asrwt>0</asrwt>
<pdfrwt beam="2">  1       21 0.58661479E-01 0.11783943E+04</pdfrwt>
<pdfrwt beam="1">  1        4 0.36857776E+00 0.11783943E+04</pdfrwt>
<totfact> 0.11702449E+00</totfact>
</mgrwt>
</event>
<event>
 6    1  0.1412458E-005  0.1000958E+04  0.7818608E-02  0.9936683E-01
         21   -1    0    0  501  502  0.00000000000E+00  0.00000000000E+00  0.31784786868E+03  0.31784786868E+03  0.00000000000E+00 0.  1.
          4   -1    0    0  502    0 -0.00000000000E+00 -0.00000000000E+00 -0.11937630834E+04  0.11937630834E+04  0.00000000000E+00 0.  1.
    9000010    2    1    2  501    0 -0.37156149062E+02 -0.11084768193E+03 -0.50188272065E+03  0.11197332852E+04  0.99410692418E+03 0.  0.
        -13    1    3    3    0    0 -0.37906981754E+02  0.43929476875E+03 -0.30186088502E+03  0.53435647108E+03  0.10566000000E+00 0.  1.
          4    1    3    3  501    0  0.75083269209E+00 -0.55014245068E+03 -0.20002183563E+03  0.58537681413E+03  0.00000000000E+00 0.  1.
         13    1    1    2    0    0  0.37156149062E+02  0.11084768193E+03 -0.37403249404E+03  0.39187766683E+03  0.10566000000E+00 0. -1.
<mgrwt>
<rscale>  1 0.58515932E+03</rscale>
<asrwt>0</asrwt>
<pdfrwt beam="1">  1       21 0.48899672E-01 0.10009577E+04</pdfrwt>
<pdfrwt beam="2">  1        4 0.18365586E+00 0.10009577E+04</pdfrwt>
<totfact> 0.26748988E+01</totfact>
</mgrwt>
</event>
<event>
 6    1  0.1412458E-005  0.1117140E+04  0.7818608E-02  0.9413974E-01
         21   -1    0    0  501  502  0.00000000000E+00  0.00000000000E+00  0.37947405441E+03  0.37947405441E+03  0.00000000000E+00 0. -1.
          4   -1    0    0  502    0 -0.00000000000E+00 -0.00000000000E+00 -0.17974991953E+04  0.17974991953E+04  0.00000000000E+00 0.  1.
    9000010    2    1    2  501    0  0.36852671697E+03  0.32361447639E+03 -0.73938444897E+03  0.13396611989E+04  0.10037253081E+04 0.  0.
        -13    1    3    3    0    0 -0.17923607646E+03  0.50367728571E+03 -0.42471003176E+03  0.68278474022E+03  0.10566000000E+00 0.  1.
          4    1    3    3  501    0  0.54776279343E+03 -0.18006280932E+03 -0.31467441721E+03  0.65687645871E+03  0.00000000000E+00 0.  1.
         13    1    1    2    0    0 -0.36852671697E+03 -0.32361447639E+03 -0.67864069187E+03  0.83731205072E+03  0.10566000000E+00 0. -1.
<mgrwt>
<rscale>  1 0.90934536E+03</rscale>
<asrwt>0</asrwt>
<pdfrwt beam="1">  1       21 0.58380622E-01 0.11171404E+04</pdfrwt>
<pdfrwt beam="2">  1        4 0.27653835E+00 0.11171404E+04</pdfrwt>
<totfact> 0.45775233E+00</totfact>
</mgrwt>
</event>
<event>
 6    1  0.1412458E-005  0.1000394E+04  0.7818608E-02  0.1038386E+00
         21   -1    0    0  501  502  0.00000000000E+00  0.00000000000E+00  0.39396652521E+03  0.39396652521E+03  0.00000000000E+00 0.  1.
          4   -1    0    0  502    0 -0.00000000000E+00 -0.00000000000E+00 -0.73177380657E+03  0.73177380657E+03  0.00000000000E+00 0.  1.
    9000010    2    1    2  501    0 -0.27154139167E+02  0.12527212132E+02 -0.24742263198E+03  0.10305370003E+04  0.99994713452E+03 0.  0.
        -13    1    3    3    0    0  0.46115512761E+03  0.16253253412E+03 -0.10309559969E+03  0.49970950582E+03  0.10566000000E+00 0.  1.
          4    1    3    3  501    0 -0.48830926677E+03 -0.15000532199E+03 -0.14432703228E+03  0.53082749447E+03  0.00000000000E+00 0.  1.
         13    1    1    2    0    0  0.27154139167E+02 -0.12527212132E+02 -0.90384649382E+02  0.95203331484E+02  0.10566000000E+00 0. -1.
<mgrwt>
<rscale>  1 0.41597108E+03</rscale>
<asrwt>0</asrwt>
<pdfrwt beam="1">  1       21 0.60610235E-01 0.10003942E+04</pdfrwt>
<pdfrwt beam="2">  1        4 0.11258059E+00 0.10003942E+04</pdfrwt>
<totfact> 0.61560509E+01</totfact>
</mgrwt>
</event>
<event>
 6    1  0.1412458E-005  0.1190581E+04  0.7818608E-02  0.9466520E-01
         21   -1    0    0  501  502  0.00000000000E+00  0.00000000000E+00  0.10363802774E+04  0.10363802774E+04  0.00000000000E+00 0.  1.
          4   -1    0    0  502    0 -0.00000000000E+00 -0.00000000000E+00 -0.82005623195E+03  0.82005623195E+03  0.00000000000E+00 0.  1.
    9000010    2    1    2  501    0  0.31516725752E+03 -0.11740212556E+03  0.61074370689E+03  0.13380924731E+04  0.11420901593E+04 0.  0.
        -13    1    3    3    0    0  0.69224606256E+03  0.15857317758E+03  0.26999961655E+03  0.75976961500E+03  0.10566000000E+00 0.  1.
          4    1    3    3  501    0 -0.37707880504E+03 -0.27597530314E+03  0.34074409034E+03  0.57832285815E+03  0.00000000000E+00 0.  1.
         13    1    1    2    0    0 -0.31516725752E+03  0.11740212556E+03 -0.39441966148E+03  0.51834403616E+03  0.10566000000E+00 0. -1.
<mgrwt>
<rscale>  1 0.86797787E+03</rscale>
<asrwt>0</asrwt>
<pdfrwt beam="1">  1       21 0.15944312E+00 0.11905812E+04</pdfrwt>
<pdfrwt beam="2">  1        4 0.12616250E+00 0.11905812E+04</pdfrwt>
<totfact> 0.40640250E+00</totfact>
</mgrwt>
</event>
<event>
 6    1  0.1412458E-005  0.1039415E+04  0.7818608E-02  0.9602049E-01
         21   -1    0    0  501  502  0.00000000000E+00  0.00000000000E+00  0.30460929744E+03  0.30460929744E+03  0.00000000000E+00 0.  1.
          4   -1    0    0  502    0 -0.00000000000E+00 -0.00000000000E+00 -0.19067470690E+04  0.19067470690E+04  0.00000000000E+00 0.  1.
    9000010    2    1    2  501    0 -0.12086790074E+03 -0.29160117683E+03 -0.69370502607E+03  0.12496441642E+04  0.99032498608E+03 0.  0.
        -13    1    3    3    0    0 -0.10655425644E+03 -0.25546029269E+03 -0.95047018682E+03  0.98995320996E+03  0.10566000000E+00 0.  1.
          4    1    3    3  501    0 -0.14313644304E+02 -0.36140884142E+02  0.25676516075E+03  0.25969095420E+03  0.00000000000E+00 0.  1.
         13    1    1    2    0    0  0.12086790074E+03  0.29160117683E+03 -0.90843274547E+03  0.96171220225E+03  0.10566000000E+00 0. -1.
<mgrwt>
<rscale>  1 0.77160701E+03</rscale>
<asrwt>0</asrwt>
<pdfrwt beam="1">  1       21 0.46862969E-01 0.10394152E+04</pdfrwt>
<pdfrwt beam="2">  1        4 0.29334570E+00 0.10394152E+04</pdfrwt>
<totfact> 0.58801757E+00</totfact>
</mgrwt>
</event>
<event>
 6    1  0.1412458E-005  0.1030558E+04  0.7818608E-02  0.9675255E-01
         21   -1    0    0  501  502  0.00000000000E+00  0.00000000000E+00  0.79402030368E+03  0.79402030368E+03  0.00000000000E+00 0.  1.
          4   -1    0    0  502    0 -0.00000000000E+00 -0.00000000000E+00 -0.55504567876E+03  0.55504567876E+03  0.00000000000E+00 0.  1.
    9000010    2    1    2  501    0  0.13426988461E+03 -0.21390813812E+03  0.32765521117E+03  0.10813920184E+04  0.99913245701E+03 0.  0.
        -13    1    3    3    0    0  0.40392981917E+03 -0.13126608156E+03 -0.21033697870E+03  0.47395330862E+03  0.10566000000E+00 0.  1.
          4    1    3    3  501    0 -0.26965993456E+03 -0.82642056568E+02  0.53799218987E+03  0.60743870981E+03  0.00000000000E+00 0.  1.
         13    1    1    2    0    0 -0.13426988461E+03  0.21390813812E+03 -0.88680586242E+02  0.26767396401E+03  0.10566000000E+00 0. -1.
<mgrwt>
<rscale>  1 0.72509413E+03</rscale>
<asrwt>0</asrwt>
<pdfrwt beam="1">  1       21 0.12215697E+00 0.10305585E+04</pdfrwt>
<pdfrwt beam="2">  1        4 0.85391643E-01 0.10305585E+04</pdfrwt>
<totfact> 0.22157036E+01</totfact>
</mgrwt>
</event>
<event>
 6    1  0.1412458E-005  0.1015123E+04  0.7818608E-02  0.9889174E-01
          4   -1    0    0  502    0 -0.00000000000E+00  0.00000000000E+00  0.12591374270E+04  0.12591374270E+04  0.00000000000E+00 0.  1.
         21   -1    0    0  501  502  0.00000000000E+00 -0.00000000000E+00 -0.31552781978E+03  0.31552781978E+03  0.00000000000E+00 0.  1.
    9000010    2    1    2  501    0 -0.47269489582E+02  0.12167950158E+03  0.53864169177E+03  0.11491780796E+04  0.10066951280E+04 0.  0.
        -13    1    3    3    0    0  0.40751871494E+03  0.31893743630E+03  0.23984417413E+03  0.57036640006E+03  0.10566000000E+00 0.  1.
          4    1    3    3  501    0 -0.45478820452E+03 -0.19725793472E+03  0.29879751764E+03  0.57881167950E+03  0.00000000000E+00 0.  1.
         13    1    1    2    0    0  0.47269489582E+02 -0.12167950158E+03  0.40496791541E+03  0.42548716717E+03  0.10566000000E+00 0. -1.
<mgrwt>
<rscale>  1 0.60788835E+03</rscale>
<asrwt>0</asrwt>
<pdfrwt beam="2">  1       21 0.48542742E-01 0.10151233E+04</pdfrwt>
<pdfrwt beam="1">  1        4 0.19371345E+00 0.10151233E+04</pdfrwt>
<totfact> 0.23181242E+01</totfact>
</mgrwt>
</event>
<event>
 6    1  0.1412458E-005  0.1030807E+04  0.7818608E-02  0.9679128E-01
         21   -1    0    0  501  502  0.00000000000E+00  0.00000000000E+00  0.35941659333E+03  0.35941659333E+03  0.00000000000E+00 0.  1.
          4   -1    0    0  502    0 -0.00000000000E+00 -0.00000000000E+00 -0.12317766133E+04  0.12317766133E+04  0.00000000000E+00 0.  1.
    9000010    2    1    2  501    0  0.96100108531E+00  0.24909996973E+03 -0.50635004782E+03  0.11484573606E+04  0.10002560771E+04 0.  0.
        -13    1    3    3    0    0  0.23433746723E+03  0.25461538904E+03  0.20333946406E+03  0.40136017950E+03  0.10566000000E+00 0.  1.
          4    1    3    3  501    0 -0.23337646614E+03 -0.55154193102E+01 -0.70968951187E+03  0.74709718113E+03  0.00000000000E+00 0.  1.
         13    1    1    2    0    0 -0.96100108531E+00 -0.24909996973E+03 -0.36600997211E+03  0.44273584595E+03  0.10566000000E+00 0. -1.
<mgrwt>
<rscale>  1 0.72273217E+03</rscale>
<asrwt>0</asrwt>
<pdfrwt beam="1">  1       21 0.55294860E-01 0.10308074E+04</pdfrwt>
<pdfrwt beam="2">  1        4 0.18950410E+00 0.10308074E+04</pdfrwt>
<totfact> 0.18615186E+01</totfact>
</mgrwt>
</event>
<event>
 6    1  0.1412458E-005  0.9994616E+03  0.7818608E-02  0.1000784E+00
          4   -1    0    0  502    0 -0.00000000000E+00  0.00000000000E+00  0.21113815231E+03  0.21113815231E+03  0.00000000000E+00 0.  1.
         21   -1    0    0  501  502  0.00000000000E+00 -0.00000000000E+00 -0.15711922017E+04  0.15711922017E+04  0.00000000000E+00 0.  1.
    9000010    2    1    2  501    0  0.71083358540E+02  0.61081907999E+02 -0.13610495907E+04  0.16886028468E+04  0.99505765795E+03 0.  0.
        -13    1    3    3    0    0 -0.25246224723E+03 -0.12022566981E+03 -0.12783972712E+04  0.13086217911E+04  0.10566000000E+00 0.  1.
          4    1    3    3  501    0  0.32354560577E+03  0.18130757781E+03 -0.82652319463E+02  0.37998105571E+03  0.00000000000E+00 0.  1.
         13    1    1    2    0    0 -0.71083358540E+02 -0.61081907999E+02  0.99554124442E+00  0.93727507236E+02  0.10566000000E+00 0. -1.
<mgrwt>
<rscale>  1 0.55307655E+03</rscale>
<asrwt>0</asrwt>
<pdfrwt beam="2">  1       21 0.24172188E+00 0.99946165E+03</pdfrwt>
<pdfrwt beam="1">  1        4 0.32482792E-01 0.99946165E+03</pdfrwt>
<totfact> 0.22792262E+01</totfact>
</mgrwt>
</event>
<event>
 6    1  0.1412458E-005  0.1026455E+04  0.7818608E-02  0.9686283E-01
         21   -1    0    0  501  502  0.00000000000E+00  0.00000000000E+00  0.19897695626E+04  0.19897695626E+04  0.00000000000E+00 0.  1.
          4   -1    0    0  502    0 -0.00000000000E+00 -0.00000000000E+00 -0.20399709224E+03  0.20399709224E+03  0.00000000000E+00 0.  1.
    9000010    2    1    2  501    0 -0.13288710178E+03  0.20735308062E+03  0.14807477338E+04  0.18017279030E+04  0.99647142631E+03 0.  0.
        -13    1    3    3    0    0  0.19941137486E+02  0.51384424731E+03  0.35456216000E+03  0.62461820012E+03  0.10566000000E+00 0.  1.
          4    1    3    3  501    0 -0.15282823926E+03 -0.30649116669E+03  0.11261855738E+04  0.11771097029E+04  0.00000000000E+00 0.  1.
         13    1    1    2    0    0  0.13288710178E+03 -0.20735308062E+03  0.30502473656E+03  0.39203875183E+03  0.10566000000E+00 0. -1.
<mgrwt>
<rscale>  1 0.71839382E+03</rscale>
<asrwt>0</asrwt>
<pdfrwt beam="1">  1       21 0.30611838E+00 0.10264549E+04</pdfrwt>
<pdfrwt beam="2">  1        4 0.31384169E-01 0.10264549E+04</pdfrwt>
<totfact> 0.95810281E+00</totfact>
</mgrwt>
</event>
<event>
 6    1  0.1412458E-005  0.9926356E+03  0.7818608E-02  0.9843531E-01
          4   -1    0    0  502    0 -0.00000000000E+00  0.00000000000E+00  0.86474950551E+03  0.86474950551E+03  0.00000000000E+00 0.  1.
         21   -1    0    0  501  502  0.00000000000E+00 -0.00000000000E+00 -0.38691165395E+03  0.38691165395E+03  0.00000000000E+00 0.  1.
    9000010    2    1    2  501    0 -0.32093357972E+02 -0.15864566612E+03  0.38230426514E+03  0.10637114100E+04  0.97935028550E+03 0.  0.
        -13    1    3    3    0    0 -0.14077036717E+03  0.30839708285E+03 -0.12901101887E+03  0.36272429080E+03  0.10566000000E+00 0.  1.
          4    1    3    3  501    0  0.10867700920E+03 -0.46704274897E+03  0.51131528401E+03  0.70098711925E+03  0.00000000000E+00 0.  1.
         13    1    1    2    0    0  0.32093357972E+02  0.15864566612E+03  0.95533586414E+02  0.18794974940E+03  0.10566000000E+00 0. -1.
<mgrwt>
<rscale>  1 0.63077840E+03</rscale>
<asrwt>0</asrwt>
<pdfrwt beam="2">  1       21 0.59524870E-01 0.99263559E+03</pdfrwt>
<pdfrwt beam="1">  1        4 0.13303839E+00 0.99263559E+03</pdfrwt>
<totfact> 0.42049758E+01</totfact>
</mgrwt>
</event>
<event>
 6    1  0.1412458E-005  0.1072815E+04  0.7818608E-02  0.9559156E-01
         21   -1    0    0  501  502  0.00000000000E+00  0.00000000000E+00  0.50560087212E+03  0.50560087212E+03  0.00000000000E+00 0.  1.
          4   -1    0    0  502    0 -0.00000000000E+00 -0.00000000000E+00 -0.97682381908E+03  0.97682381908E+03  0.00000000000E+00 0.  1.
    9000010    2    1    2  501    0  0.29344208216E+03 -0.15682352359E+03 -0.36090734129E+03  0.11318944969E+04  0.10199162563E+04 0.  0.
        -13    1    3    3    0    0 -0.37708889364E+03  0.22991228164E+02 -0.10635232073E+03  0.39247351193E+03  0.10566000000E+00 0.  1.
          4    1    3    3  501    0  0.67053097580E+03 -0.17981475175E+03 -0.25455502056E+03  0.73942098492E+03  0.00000000000E+00 0.  1.
         13    1    1    2    0    0 -0.29344208216E+03  0.15682352359E+03 -0.11031560567E+03  0.35053019435E+03  0.10566000000E+00 0. -1.
<mgrwt>
<rscale>  1 0.80059509E+03</rscale>
<asrwt>0</asrwt>
<pdfrwt beam="1">  1       21 0.77784749E-01 0.10728145E+04</pdfrwt>
<pdfrwt beam="2">  1        4 0.15028059E+00 0.10728145E+04</pdfrwt>
<totfact> 0.16438034E+01</totfact>
</mgrwt>
</event>
<event>
 6    1  0.1412458E-005  0.1008728E+04  0.7818608E-02  0.9885689E-01
          4   -1    0    0  502    0 -0.00000000000E+00  0.00000000000E+00  0.33483837771E+03  0.33483837771E+03  0.00000000000E+00 0.  1.
         21   -1    0    0  501  502  0.00000000000E+00 -0.00000000000E+00 -0.10827948340E+04  0.10827948340E+04  0.00000000000E+00 0.  1.
    9000010    2    1    2  501    0  0.93616167788E+02 -0.96629422774E+02 -0.78488681889E+03  0.12781158470E+04  0.99971574347E+03 0.  0.
        -13    1    3    3    0    0  0.19892544302E+03 -0.51801380952E+03 -0.31432365287E+03  0.63773741356E+03  0.10566000000E+00 0.  1.
          4    1    3    3  501    0 -0.10530927523E+03  0.42138438674E+03 -0.47056316602E+03  0.64037843347E+03  0.00000000000E+00 0.  1.
         13    1    1    2    0    0 -0.93616167788E+02  0.96629422774E+02  0.36930362553E+02  0.13951736472E+03  0.10566000000E+00 0. -1.
<mgrwt>
<rscale>  1 0.60959895E+03</rscale>
<asrwt>0</asrwt>
<pdfrwt beam="2">  1       21 0.16658382E+00 0.10087283E+04</pdfrwt>
<pdfrwt beam="1">  1        4 0.51513597E-01 0.10087283E+04</pdfrwt>
<totfact> 0.29092298E+01</totfact>
</mgrwt>
</event>
<event>
 6    1  0.1412458E-005  0.1102361E+04  0.7818608E-02  0.9367942E-01
          4   -1    0    0  502    0 -0.00000000000E+00  0.00000000000E+00  0.70307369213E+03  0.70307369213E+03  0.00000000000E+00 0.  1.
         21   -1    0    0  501  502  0.00000000000E+00 -0.00000000000E+00 -0.11893118833E+04  0.11893118833E+04  0.00000000000E+00 0. -1.
    9000010    2    1    2  501    0  0.44440523734E+03 -0.40600565630E+03  0.24989811275E+02  0.11026446752E+04  0.92350645967E+03 0.  0.
        -13    1    3    3    0    0  0.29007857293E+03 -0.75773081860E+02 -0.42715162852E+03  0.52186747678E+03  0.10566000000E+00 0.  1.
          4    1    3    3  501    0  0.15432666440E+03 -0.33023257444E+03  0.45214143979E+03  0.58077719837E+03  0.00000000000E+00 0.  1.
         13    1    1    2    0    0 -0.44440523734E+03  0.40600565630E+03 -0.51122800242E+03  0.78974090026E+03  0.10566000000E+00 0. -1.
<mgrwt>
<rscale>  1 0.94761538E+03</rscale>
<asrwt>0</asrwt>
<pdfrwt beam="2">  1       21 0.18297106E+00 0.11023615E+04</pdfrwt>
<pdfrwt beam="1">  1        4 0.10816518E+00 0.11023615E+04</pdfrwt>
<totfact> 0.40241433E+00</totfact>
</mgrwt>
</event>
<event>
 6    1  0.1412458E-005  0.9883188E+03  0.7818608E-02  0.9679536E-01
         21   -1    0    0  501  502  0.00000000000E+00  0.00000000000E+00  0.53016407614E+03  0.53016407614E+03  0.00000000000E+00 0.  1.
          4   -1    0    0  502    0 -0.00000000000E+00 -0.00000000000E+00 -0.78950209854E+03  0.78950209854E+03  0.00000000000E+00 0.  1.
    9000010    2    1    2  501    0 -0.27638397511E+03 -0.57204537606E+02 -0.94529348040E+02  0.99282925643E+03  0.94716084904E+03 0.  0.
        -13    1    3    3    0    0 -0.39959863121E+03 -0.41839435585E+03 -0.17164949792E+03  0.60348692146E+03  0.10566000000E+00 0.  1.
          4    1    3    3  501    0  0.12321465610E+03  0.36118981825E+03  0.77120149883E+02  0.38934233497E+03  0.00000000000E+00 0.  1.
         13    1    1    2    0    0  0.27638397511E+03  0.57204537606E+02 -0.16480867437E+03  0.32683691825E+03  0.10566000000E+00 0. -1.
<mgrwt>
<rscale>  1 0.72248389E+03</rscale>
<asrwt>0</asrwt>
<pdfrwt beam="1">  1       21 0.81563705E-01 0.98831884E+03</pdfrwt>
<pdfrwt beam="2">  1        4 0.12146186E+00 0.98831884E+03</pdfrwt>
<totfact> 0.25798520E+01</totfact>
</mgrwt>
</event>
<event>
 6    1  0.1412458E-005  0.1054265E+04  0.7818608E-02  0.9574342E-01
          4   -1    0    0  502    0 -0.00000000000E+00  0.00000000000E+00  0.21329037546E+03  0.21329037546E+03  0.00000000000E+00 0.  1.
         21   -1    0    0  501  502  0.00000000000E+00 -0.00000000000E+00 -0.23673192235E+04  0.23673192235E+04  0.00000000000E+00 0.  1.
    9000010    2    1    2  501    0 -0.14540368224E+03  0.29924390166E+03 -0.18530821726E+04  0.21319916590E+04  0.10003927988E+04 0.  0.
        -13    1    3    3    0    0 -0.28850704995E+03  0.26633491293E+03 -0.19276998375E+04  0.19672816978E+04  0.10566000000E+00 0.  1.
          4    1    3    3  501    0  0.14310336770E+03  0.32908988723E+02  0.74617664913E+02  0.16470996116E+03  0.00000000000E+00 0.  1.
         13    1    1    2    0    0  0.14540368224E+03 -0.29924390166E+03 -0.30094667545E+03  0.44861794003E+03  0.10566000000E+00 0. -1.
<mgrwt>
<rscale>  1 0.79017904E+03</rscale>
<asrwt>0</asrwt>
<pdfrwt beam="2">  1       21 0.36420295E+00 0.10542651E+04</pdfrwt>
<pdfrwt beam="1">  1        4 0.32813905E-01 0.10542651E+04</pdfrwt>
<totfact> 0.37659003E+00</totfact>
</mgrwt>
</event>
<event>
 6    1  0.1412458E-005  0.1056479E+04  0.7818608E-02  0.9576595E-01
         21   -1    0    0  501  502  0.00000000000E+00  0.00000000000E+00  0.23134443430E+03  0.23134443430E+03  0.00000000000E+00 0.  1.
          4   -1    0    0  502    0 -0.00000000000E+00 -0.00000000000E+00 -0.24986545217E+04  0.24986545217E+04  0.00000000000E+00 0.  1.
    9000010    2    1    2  501    0 -0.20434472855E+03 -0.25664281523E+03 -0.11327340135E+04  0.15489463825E+04  0.10042540753E+04 0.  0.
        -13    1    3    3    0    0 -0.45132995986E+03 -0.16598550428E+03 -0.11866455839E+04  0.12803818466E+04  0.10566000000E+00 0.  1.
          4    1    3    3  501    0  0.24698523131E+03 -0.90657310958E+02  0.53911570365E+02  0.26856453588E+03  0.00000000000E+00 0.  1.
         13    1    1    2    0    0  0.20434472855E+03  0.25664281523E+03 -0.11345760739E+04  0.11810525735E+04  0.10566000000E+00 0. -1.
<mgrwt>
<rscale>  1 0.78864861E+03</rscale>
<asrwt>0</asrwt>
<pdfrwt beam="1">  1       21 0.35591452E-01 0.10564793E+04</pdfrwt>
<pdfrwt beam="2">  1        4 0.38440838E+00 0.10564793E+04</pdfrwt>
<totfact> 0.27186364E+00</totfact>
</mgrwt>
</event>
<event>
 6    1  0.1412458E-005  0.1057368E+04  0.7818608E-02  0.9583179E-01
          4   -1    0    0  502    0 -0.00000000000E+00  0.00000000000E+00  0.14938729723E+04  0.14938729723E+04  0.00000000000E+00 0.  1.
         21   -1    0    0  501  502  0.00000000000E+00 -0.00000000000E+00 -0.32577670216E+03  0.32577670216E+03  0.00000000000E+00 0.  1.
    9000010    2    1    2  501    0  0.27902675270E+03  0.15646875151E+03  0.76524748798E+03  0.13052319926E+04  0.10078136920E+04 0.  0.
        -13    1    3    3    0    0 -0.37484200022E+03  0.30662374274E+02  0.38606636249E+03  0.53897491012E+03  0.10566000000E+00 0.  1.
          4    1    3    3  501    0  0.65386875291E+03  0.12580637723E+03  0.37918112549E+03  0.76625708252E+03  0.00000000000E+00 0.  1.
         13    1    1    2    0    0 -0.27902675270E+03 -0.15646875151E+03  0.40284878214E+03  0.51441768181E+03  0.10566000000E+00 0. -1.
<mgrwt>
<rscale>  1 0.78419563E+03</rscale>
<asrwt>0</asrwt>
<pdfrwt beam="2">  1       21 0.50119493E-01 0.10573679E+04</pdfrwt>
<pdfrwt beam="1">  1        4 0.22982661E+00 0.10573679E+04</pdfrwt>
<totfact> 0.12561608E+01</totfact>
</mgrwt>
</event>
<event>
 6    1  0.1412458E-005  0.1050697E+04  0.7818608E-02  0.9624693E-01
          4   -1    0    0  502    0 -0.00000000000E+00  0.00000000000E+00  0.36169971973E+03  0.36169971973E+03  0.00000000000E+00 0.  1.
         21   -1    0    0  501  502  0.00000000000E+00 -0.00000000000E+00 -0.18944920489E+04  0.18944920489E+04  0.00000000000E+00 0.  1.
    9000010    2    1    2  501    0 -0.21571604071E+03  0.18295862306E+03 -0.16449780909E+04  0.19519009139E+04  0.10119075995E+04 0.  0.
        -13    1    3    3    0    0 -0.53745496345E+03  0.34281089250E+03 -0.13268074829E+04  0.14720038225E+04  0.10566000000E+00 0.  1.
          4    1    3    3  501    0  0.32173892274E+03 -0.15985226944E+03 -0.31817060808E+03  0.47989709136E+03  0.00000000000E+00 0.  1.
         13    1    1    2    0    0  0.21571604071E+03 -0.18295862306E+03  0.11218576177E+03  0.30429085474E+03  0.10566000000E+00 0. -1.
<mgrwt>
<rscale>  1 0.75683171E+03</rscale>
<asrwt>0</asrwt>
<pdfrwt beam="2">  1       21 0.29146032E+00 0.10506970E+04</pdfrwt>
<pdfrwt beam="1">  1        4 0.55646111E-01 0.10506970E+04</pdfrwt>
<totfact> 0.36271276E+00</totfact>
</mgrwt>
</event>
<event>
 6    1  0.1412458E-005  0.1159164E+04  0.7818608E-02  0.9324716E-01
          4   -1    0    0  502    0 -0.00000000000E+00  0.00000000000E+00  0.13996678442E+04  0.13996678442E+04  0.00000000000E+00 0.  1.
         21   -1    0    0  501  502  0.00000000000E+00 -0.00000000000E+00 -0.59088865425E+03  0.59088865425E+03  0.00000000000E+00 0.  1.
    9000010    2    1    2  501    0  0.28649434893E+03  0.53324949722E+03  0.29384210917E+03  0.11958274587E+04  0.98854746354E+03 0.  0.
        -13    1    3    3    0    0  0.32425661829E+03  0.77420136450E+03  0.34867982670E+02  0.84008683758E+03  0.10566000000E+00 0.  1.
          4    1    3    3  501    0 -0.37762269361E+02 -0.24095186728E+03  0.25897412650E+03  0.35574062114E+03  0.00000000000E+00 0.  1.
         13    1    1    2    0    0 -0.28649434893E+03 -0.53324949722E+03  0.51493708076E+03  0.79472903971E+03  0.10566000000E+00 0. -1.
<mgrwt>
<rscale>  1 0.98538969E+03</rscale>
<asrwt>0</asrwt>
<pdfrwt beam="2">  1       21 0.90905947E-01 0.11591635E+04</pdfrwt>
<pdfrwt beam="1">  1        4 0.21533351E+00 0.11591635E+04</pdfrwt>
<totfact> 0.39388836E+00</totfact>
</mgrwt>
</event>
<event>
 6    1  0.1412458E-005  0.9640355E+03  0.7818608E-02  0.9851948E-01
         21   -1    0    0  501  502  0.00000000000E+00  0.00000000000E+00  0.74488946425E+03  0.74488946425E+03  0.00000000000E+00 0.  1.
          4   -1    0    0  502    0 -0.00000000000E+00 -0.00000000000E+00 -0.44302465353E+03  0.44302465353E+03  0.00000000000E+00 0.  1.
    9000010    2    1    2  501    0 -0.14490963891E+03 -0.92519154917E+02  0.31825210064E+03  0.10152087273E+04  0.94858092059E+03 0.  0.
        -13    1    3    3    0    0 -0.22346109588E+03  0.16483491900E+03  0.57798474215E+03  0.64122678142E+03  0.10566000000E+00 0.  1.
          4    1    3    3  501    0  0.78551456973E+02 -0.25735407392E+03 -0.25973264151E+03  0.37398194585E+03  0.00000000000E+00 0.  1.
         13    1    1    2    0    0  0.14490963891E+03  0.92519154917E+02 -0.16387289914E+02  0.17270539051E+03  0.10566000000E+00 0. -1.
<mgrwt>
<rscale>  1 0.62647718E+03</rscale>
<asrwt>0</asrwt>
<pdfrwt beam="1">  1       21 0.11459838E+00 0.96403546E+03</pdfrwt>
<pdfrwt beam="2">  1        4 0.68157639E-01 0.96403546E+03</pdfrwt>
<totfact> 0.43934062E+01</totfact>
</mgrwt>
</event>
<event>
 6    1  0.1412458E-005  0.1311168E+04  0.7818608E-02  0.9131713E-01
         21   -1    0    0  501  502  0.00000000000E+00  0.00000000000E+00  0.16292479159E+04  0.16292479159E+04  0.00000000000E+00 0. -1.
          4   -1    0    0  502    0 -0.00000000000E+00 -0.00000000000E+00 -0.81575519912E+03  0.81575519912E+03  0.00000000000E+00 0.  1.
    9000010    2    1    2  501    0 -0.84095567946E+03  0.16141866531E+03  0.89090421423E+03  0.15852037248E+04  0.99292401018E+03 0.  0.
        -13    1    3    3    0    0 -0.10331792822E+03  0.41011703125E+03  0.29171757814E+02  0.42393581617E+03  0.10566000000E+00 0.  1.
          4    1    3    3  501    0 -0.73763775124E+03 -0.24869836594E+03  0.86173245642E+03  0.11612679087E+04  0.00000000000E+00 0.  1.
         13    1    1    2    0    0  0.84095567946E+03 -0.16141866531E+03 -0.77411497411E+02  0.85979939022E+03  0.10566000000E+00 0. -1.
<mgrwt>
<rscale>  1 0.11786941E+04</rscale>
<asrwt>0</asrwt>
<pdfrwt beam="1">  1       21 0.25065352E+00 0.13111676E+04</pdfrwt>
<pdfrwt beam="2">  1        4 0.12550080E+00 0.13111676E+04</pdfrwt>
<totfact> 0.94382418E-01</totfact>
</mgrwt>
</event>
<event>
 6    1  0.1412458E-005  0.1151736E+04  0.7818608E-02  0.9354620E-01
         21   -1    0    0  501  502  0.00000000000E+00  0.00000000000E+00  0.59583942682E+03  0.59583942682E+03  0.00000000000E+00 0. -1.
          4   -1    0    0  502    0 -0.00000000000E+00 -0.00000000000E+00 -0.12874948228E+04  0.12874948228E+04  0.00000000000E+00 0.  1.
    9000010    2    1    2  501    0  0.24749098703E+03 -0.49538668808E+03 -0.66275592577E+03  0.13288119778E+04  0.10098693459E+04 0.  0.
        -13    1    3    3    0    0 -0.29923040533E+03 -0.16713071662E+03 -0.59614233918E+03  0.68764613838E+03  0.10566000000E+00 0.  1.
          4    1    3    3  501    0  0.54672139237E+03 -0.32825597146E+03 -0.66613586597E+02  0.64116583938E+03  0.00000000000E+00 0.  1.
         13    1    1    2    0    0 -0.24749098703E+03  0.49538668808E+03 -0.28899470155E+02  0.55452227181E+03  0.10566000000E+00 0. -1.
<mgrwt>
<rscale>  1 0.95906240E+03</rscale>
<asrwt>0</asrwt>
<pdfrwt beam="1">  1       21 0.91667605E-01 0.11517360E+04</pdfrwt>
<pdfrwt beam="2">  1        4 0.19807612E+00 0.11517360E+04</pdfrwt>
<totfact> 0.50126888E+00</totfact>
</mgrwt>
</event>
<event>
 6    1  0.1412458E-005  0.1015232E+04  0.7818608E-02  0.1026953E+00
         21   -1    0    0  501  502  0.00000000000E+00  0.00000000000E+00  0.58498496862E+03  0.58498496862E+03  0.00000000000E+00 0.  1.
          4   -1    0    0  502    0 -0.00000000000E+00 -0.00000000000E+00 -0.53330165810E+03  0.53330165810E+03  0.00000000000E+00 0.  1.
    9000010    2    1    2  501    0 -0.83618951595E+01  0.39215561696E+02  0.13659871620E+03  0.10243801900E+04  0.10144396398E+04 0.  0.
        -13    1    3    3    0    0 -0.20409465803E+03  0.17989644225E+03 -0.37239870996E+03  0.46119211801E+03  0.10566000000E+00 0.  1.
          4    1    3    3  501    0  0.19573276287E+03 -0.14068088056E+03  0.50899742616E+03  0.56318807201E+03  0.00000000000E+00 0.  1.
         13    1    1    2    0    0  0.83618951595E+01 -0.39215561696E+02 -0.84915405678E+02  0.93906436709E+02  0.10566000000E+00 0. -1.
<mgrwt>
<rscale>  1 0.45258761E+03</rscale>
<asrwt>0</asrwt>
<pdfrwt beam="1">  1       21 0.89997687E-01 0.10152318E+04</pdfrwt>
<pdfrwt beam="2">  1        4 0.82046409E-01 0.10152318E+04</pdfrwt>
<totfact> 0.52382656E+01</totfact>
</mgrwt>
</event>
<event>
 6    1  0.1412458E-005  0.9458143E+03  0.7818608E-02  0.1029812E+00
          4   -1    0    0  502    0 -0.00000000000E+00  0.00000000000E+00  0.11361675454E+04  0.11361675454E+04  0.00000000000E+00 0.  1.
         21   -1    0    0  501  502  0.00000000000E+00 -0.00000000000E+00 -0.24907841536E+03  0.24907841536E+03  0.00000000000E+00 0.  1.
    9000010    2    1    2  501    0  0.45525410503E+02 -0.13017935503E+01  0.65924819073E+03  0.11528975963E+04  0.94471711795E+03 0.  0.
        -13    1    3    3    0    0 -0.40386375991E+02  0.44185832449E+03  0.14088223222E+03  0.46552943280E+03  0.10566000000E+00 0.  1.
          4    1    3    3  501    0  0.85911786495E+02 -0.44316011804E+03  0.51836595851E+03  0.68736816352E+03  0.00000000000E+00 0.  1.
         13    1    1    2    0    0 -0.45525410503E+02  0.13017935503E+01  0.22784093930E+03  0.23234836443E+03  0.10566000000E+00 0. -1.
<mgrwt>
<rscale>  1 0.44305999E+03</rscale>
<asrwt>0</asrwt>
<pdfrwt beam="2">  1       21 0.38319757E-01 0.94581430E+03</pdfrwt>
<pdfrwt beam="1">  1        4 0.17479500E+00 0.94581430E+03</pdfrwt>
<totfact> 0.51942658E+01</totfact>
</mgrwt>
</event>
<event>
 6    1  0.1412458E-005  0.8556749E+03  0.7818608E-02  0.9713708E-01
          4   -1    0    0  502    0 -0.00000000000E+00  0.00000000000E+00  0.39814700379E+03  0.39814700379E+03  0.00000000000E+00 0.  1.
         21   -1    0    0  501  502  0.00000000000E+00 -0.00000000000E+00 -0.11308921140E+04  0.11308921140E+04  0.00000000000E+00 0.  1.
    9000010    2    1    2  501    0 -0.38754744692E+03  0.13337989498E+02 -0.75427887303E+03  0.11406647627E+04  0.76276376222E+03 0.  0.
        -13    1    3    3    0    0 -0.42780517700E+03 -0.34390603282E+02 -0.89176238553E+03  0.98966668453E+03  0.10566000000E+00 0.  1.
          4    1    3    3  501    0  0.40257730083E+02  0.47728592780E+02  0.13748351249E+03  0.15099807816E+03  0.00000000000E+00 0.  1.
         13    1    1    2    0    0  0.38754744692E+03 -0.13337989498E+02  0.21533762853E+02  0.38837435508E+03  0.10566000000E+00 0. -1.
<mgrwt>
<rscale>  1 0.70206459E+03</rscale>
<asrwt>0</asrwt>
<pdfrwt beam="2">  1       21 0.17398340E+00 0.85567487E+03</pdfrwt>
<pdfrwt beam="1">  1        4 0.61253387E-01 0.85567487E+03</pdfrwt>
<totfact> 0.17986172E+01</totfact>
</mgrwt>
</event>
<event>
 6    1  0.1412458E-005  0.1007900E+04  0.7818608E-02  0.9927097E-01
          4   -1    0    0  502    0 -0.00000000000E+00  0.00000000000E+00  0.17539020214E+03  0.17539020214E+03  0.00000000000E+00 0.  1.
         21   -1    0    0  501  502  0.00000000000E+00 -0.00000000000E+00 -0.18112356522E+04  0.18112356522E+04  0.00000000000E+00 0.  1.
    9000010    2    1    2  501    0 -0.15568169826E+01 -0.11806231976E+03 -0.14918577654E+04  0.18004173703E+04  0.10009605288E+04 0.  0.
        -13    1    3    3    0    0 -0.42707008504E+03 -0.31911473694E+03 -0.87348729760E+03  0.10233294402E+04  0.10566000000E+00 0.  1.
          4    1    3    3  501    0  0.42551326806E+03  0.20105241718E+03 -0.61837046780E+03  0.77708793016E+03  0.00000000000E+00 0.  1.
         13    1    1    2    0    0  0.15568169826E+01  0.11806231976E+03 -0.14398768472E+03  0.18620848407E+03  0.10566000000E+00 0. -1.
<mgrwt>
<rscale>  1 0.58965842E+03</rscale>
<asrwt>0</asrwt>
<pdfrwt beam="2">  1       21 0.27865163E+00 0.10079003E+04</pdfrwt>
<pdfrwt beam="1">  1        4 0.26983109E-01 0.10079003E+04</pdfrwt>
<totfact> 0.19129340E+01</totfact>
</mgrwt>
</event>
<event>
 6    1  0.1412458E-005  0.9969139E+03  0.7818608E-02  0.9892970E-01
          4   -1    0    0  502    0 -0.00000000000E+00  0.00000000000E+00  0.59062989928E+03  0.59062989928E+03  0.00000000000E+00 0.  1.
         21   -1    0    0  501  502  0.00000000000E+00 -0.00000000000E+00 -0.76065997702E+03  0.76065997702E+03  0.00000000000E+00 0.  1.
    9000010    2    1    2  501    0  0.93876016843E+02  0.98607044570E+02 -0.40796257606E+03  0.10771586291E+04  0.98757338612E+03 0.  0.
        -13    1    3    3    0    0 -0.36768810910E+03 -0.20737964350E+03 -0.28660882190E+03  0.51024061978E+03  0.10566000000E+00 0.  1.
          4    1    3    3  501    0  0.46156412594E+03  0.30598668807E+03 -0.12135375416E+03  0.56691800931E+03  0.00000000000E+00 0.  1.
         13    1    1    2    0    0 -0.93876016843E+02 -0.98607044570E+02  0.23793249832E+03  0.27413124721E+03  0.10566000000E+00 0. -1.
<mgrwt>
<rscale>  1 0.60603182E+03</rscale>
<asrwt>0</asrwt>
<pdfrwt beam="2">  1       21 0.11702461E+00 0.99691386E+03</pdfrwt>
<pdfrwt beam="1">  1        4 0.90866138E-01 0.99691386E+03</pdfrwt>
<totfact> 0.21485650E+01</totfact>
</mgrwt>
</event>
<event>
 6    1  0.1412458E-005  0.1638487E+04  0.7818608E-02  0.8854522E-01
          4   -1    0    0  502    0 -0.00000000000E+00  0.00000000000E+00  0.98381376034E+03  0.98381376034E+03  0.00000000000E+00 0.  1.
         21   -1    0    0  501  502  0.00000000000E+00 -0.00000000000E+00 -0.22222619071E+04  0.22222619071E+04  0.00000000000E+00 0. -1.
    9000010    2    1    2  501    0  0.99531792006E+03 -0.83346102650E+03 -0.50263465120E+03  0.17138502970E+04  0.99966304492E+03 0.  0.
        -13    1    3    3    0    0 -0.46070417691E+02 -0.44236453567E+03  0.89486569398E+02  0.45367028012E+03  0.10566000000E+00 0.  1.
          4    1    3    3  501    0  0.10413883378E+04 -0.39109649084E+03 -0.59212122060E+03  0.12601800169E+04  0.00000000000E+00 0.  1.
         13    1    1    2    0    0 -0.99531792006E+03  0.83346102650E+03 -0.73581349559E+03  0.14922253704E+04  0.10566000000E+00 0. -1.
<mgrwt>
<rscale>  1 0.15458507E+04</rscale>
<asrwt>0</asrwt>
<pdfrwt beam="2">  1       21 0.34188644E+00 0.16384875E+04</pdfrwt>
<pdfrwt beam="1">  1        4 0.15135597E+00 0.16384875E+04</pdfrwt>
<totfact> 0.14509243E-01</totfact>
</mgrwt>
</event>
<event>
 6    1  0.1412458E-005  0.9931001E+03  0.7818608E-02  0.9856165E-01
         21   -1    0    0  501  502  0.00000000000E+00  0.00000000000E+00  0.12889236024E+04  0.12889236024E+04  0.00000000000E+00 0.  1.
          4   -1    0    0  502    0 -0.00000000000E+00 -0.00000000000E+00 -0.28104630429E+03  0.28104630429E+03  0.00000000000E+00 0.  1.
    9000010    2    1    2  501    0 -0.11532357257E+03 -0.10375721838E+03  0.10077331081E+04  0.14148405455E+04  0.98090910152E+03 0.  0.
        -13    1    3    3    0    0  0.17505002156E+03  0.31503269416E+03  0.77480054373E+03  0.85451974943E+03  0.10566000000E+00 0.  1.
          4    1    3    3  501    0 -0.29037359413E+03 -0.41878991254E+03  0.23293256432E+03  0.56032079609E+03  0.00000000000E+00 0.  1.
         13    1    1    2    0    0  0.11532357257E+03  0.10375721838E+03  0.14419011118E+00  0.15512936121E+03  0.10566000000E+00 0. -1.
<mgrwt>
<rscale>  1 0.62433576E+03</rscale>
<asrwt>0</asrwt>
<pdfrwt beam="1">  1       21 0.19829594E+00 0.99310007E+03</pdfrwt>
<pdfrwt beam="2">  1        4 0.43237893E-01 0.99310007E+03</pdfrwt>
<totfact> 0.24826286E+01</totfact>
</mgrwt>
</event>
<event>
 6    1  0.1412458E-005  0.1023027E+04  0.7818608E-02  0.9744797E-01
          4   -1    0    0  502    0 -0.00000000000E+00  0.00000000000E+00  0.13262263497E+04  0.13262263497E+04  0.00000000000E+00 0.  1.
         21   -1    0    0  501  502  0.00000000000E+00 -0.00000000000E+00 -0.32443803969E+03  0.32443803969E+03  0.00000000000E+00 0.  1.
    9000010    2    1    2  501    0  0.46178045765E+02  0.19929079825E+03  0.56579460901E+03  0.11690631512E+04  0.10023651419E+04 0.  0.
        -13    1    3    3    0    0 -0.21378039599E+03  0.20638086533E+03  0.77838349837E+03  0.83317225169E+03  0.10566000000E+00 0.  1.
          4    1    3    3  501    0  0.25995844175E+03 -0.70900670843E+01 -0.21258888935E+03  0.33589089950E+03  0.00000000000E+00 0.  1.
         13    1    1    2    0    0 -0.46178045765E+02 -0.19929079825E+03  0.43599370100E+03  0.48160123822E+03  0.10566000000E+00 0. -1.
<mgrwt>
<rscale>  1 0.68411074E+03</rscale>
<asrwt>0</asrwt>
<pdfrwt beam="2">  1       21 0.49913545E-01 0.10230274E+04</pdfrwt>
<pdfrwt beam="1">  1        4 0.20403482E+00 0.10230274E+04</pdfrwt>
<totfact> 0.18626210E+01</totfact>
</mgrwt>
</event>
<event>
 6    1  0.1412458E-005  0.1058623E+04  0.7818608E-02  0.9538269E-01
          4   -1    0    0  502    0 -0.00000000000E+00  0.00000000000E+00  0.47627579731E+03  0.47627579731E+03  0.00000000000E+00 0.  1.
         21   -1    0    0  501  502  0.00000000000E+00 -0.00000000000E+00 -0.10798162211E+04  0.10798162211E+04  0.00000000000E+00 0.  1.
    9000010    2    1    2  501    0  0.24562734748E+02 -0.37144182163E+03 -0.49288296881E+03  0.11677398094E+04  0.99101477619E+03 0.  0.
        -13    1    3    3    0    0 -0.25718404965E+03  0.20978111494E+03 -0.39260325481E+03  0.51409053524E+03  0.10566000000E+00 0.  1.
          4    1    3    3  501    0  0.28174678439E+03 -0.58122293658E+03 -0.10027971401E+03  0.65364927412E+03  0.00000000000E+00 0.  1.
         13    1    1    2    0    0 -0.24562734748E+02  0.37144182163E+03 -0.11065745502E+03  0.38835220910E+03  0.10566000000E+00 0. -1.
<mgrwt>
<rscale>  1 0.81520263E+03</rscale>
<asrwt>0</asrwt>
<pdfrwt beam="2">  1       21 0.16612557E+00 0.10586230E+04</pdfrwt>
<pdfrwt beam="1">  1        4 0.73273201E-01 0.10586230E+04</pdfrwt>
<totfact> 0.13485815E+01</totfact>
</mgrwt>
</event>
<event>
 6    1  0.1412458E-005  0.1002974E+04  0.7818608E-02  0.1007784E+00
          4   -1    0    0  502    0 -0.00000000000E+00  0.00000000000E+00  0.11171173633E+04  0.11171173633E+04  0.00000000000E+00 0.  1.
         21   -1    0    0  501  502  0.00000000000E+00 -0.00000000000E+00 -0.29050485264E+03  0.29050485264E+03  0.00000000000E+00 0.  1.
    9000010    2    1    2  501    0  0.51888558542E+01  0.74342539234E+02  0.86440204714E+03  0.13240650643E+04  0.10002018086E+04 0.  0.
        -13    1    3    3    0    0 -0.48505467679E+03  0.74516466382E+02  0.29455645748E+03  0.57235850744E+03  0.10566000000E+00 0.  1.
          4    1    3    3  501    0  0.49024353264E+03 -0.17392714803E+00  0.56984558966E+03  0.75170655684E+03  0.00000000000E+00 0.  1.
         13    1    1    2    0    0 -0.51888558542E+01 -0.74342539234E+02 -0.37789536471E+02  0.83557151672E+02  0.10566000000E+00 0. -1.
<mgrwt>
<rscale>  1 0.52364948E+03</rscale>
<asrwt>0</asrwt>
<pdfrwt beam="2">  1       21 0.44693055E-01 0.10029743E+04</pdfrwt>
<pdfrwt beam="1">  1        4 0.17186421E+00 0.10029743E+04</pdfrwt>
<totfact> 0.39240504E+01</totfact>
</mgrwt>
</event>
<event>
 6    1  0.1412458E-005  0.1032073E+04  0.7818608E-02  0.9654362E-01
          4   -1    0    0  502    0 -0.00000000000E+00  0.00000000000E+00  0.70278813527E+03  0.70278813527E+03  0.00000000000E+00 0.  1.
         21   -1    0    0  501  502  0.00000000000E+00 -0.00000000000E+00 -0.61548899516E+03  0.61548899516E+03  0.00000000000E+00 0.  1.
    9000010    2    1    2  501    0 -0.26979756455E+03  0.45746514963E+01  0.14537520400E+03  0.10422617438E+04  0.99617465309E+03 0.  0.
        -13    1    3    3    0    0 -0.29123125032E+02  0.48965640256E+03  0.74008965222E+02  0.49607346944E+03  0.10566000000E+00 0.  1.
          4    1    3    3  501    0 -0.24067443951E+03 -0.48508175107E+03  0.71366238780E+02  0.54618827440E+03  0.00000000000E+00 0.  1.
         13    1    1    2    0    0  0.26979756455E+03 -0.45746514963E+01 -0.58076063892E+02  0.27601538659E+03  0.10566000000E+00 0. -1.
<mgrwt>
<rscale>  1 0.73800300E+03</rscale>
<asrwt>0</asrwt>
<pdfrwt beam="2">  1       21 0.94690614E-01 0.10320734E+04</pdfrwt>
<pdfrwt beam="1">  1        4 0.10812125E+00 0.10320734E+04</pdfrwt>
<totfact> 0.23968689E+01</totfact>
</mgrwt>
</event>
<event>
 6    1  0.1412458E-005  0.9961985E+03  0.7818608E-02  0.1011515E+00
          4   -1    0    0  502    0 -0.00000000000E+00  0.00000000000E+00  0.12185747678E+04  0.12185747678E+04  0.00000000000E+00 0.  1.
         21   -1    0    0  501  502  0.00000000000E+00 -0.00000000000E+00 -0.23528957777E+03  0.23528957777E+03  0.00000000000E+00 0.  1.
    9000010    2    1    2  501    0 -0.54006739743E+02  0.40941287346E+02  0.87388811410E+03  0.13251761630E+04  0.99389059260E+03 0.  0.
        -13    1    3    3    0    0  0.10310734652E+03 -0.23740364269E+03 -0.11697800234E+03  0.28403429135E+03  0.10566000000E+00 0.  1.
          4    1    3    3  501    0 -0.15711408626E+03  0.27834493004E+03  0.99086611645E+03  0.10411418716E+04  0.00000000000E+00 0.  1.
         13    1    1    2    0    0  0.54006739743E+02 -0.40941287346E+02  0.10939707592E+03  0.12868818256E+03  0.10566000000E+00 0. -1.
<mgrwt>
<rscale>  1 0.50876897E+03</rscale>
<asrwt>0</asrwt>
<pdfrwt beam="2">  1       21 0.36198397E-01 0.99619849E+03</pdfrwt>
<pdfrwt beam="1">  1        4 0.18747304E+00 0.99619849E+03</pdfrwt>
<totfact> 0.47507522E+01</totfact>
</mgrwt>
</event>
<event>
 6    1  0.1412458E-005  0.9953904E+03  0.7818608E-02  0.9967047E-01
         21   -1    0    0  501  502  0.00000000000E+00  0.00000000000E+00  0.69952253249E+03  0.69952253249E+03  0.00000000000E+00 0.  1.
          4   -1    0    0  502    0 -0.00000000000E+00 -0.00000000000E+00 -0.47587330585E+03  0.47587330585E+03  0.00000000000E+00 0.  1.
    9000010    2    1    2  501    0 -0.82201434985E+02 -0.69942501813E+02  0.30407004369E+03  0.10407981101E+04  0.98952164454E+03 0.  0.
        -13    1    3    3    0    0 -0.14898520928E+03 -0.43253739499E+03 -0.12581482806E+03  0.47446240396E+03  0.10566000000E+00 0.  1.
          4    1    3    3  501    0  0.66783774294E+02  0.36259489318E+03  0.42988487175E+03  0.56633570612E+03  0.00000000000E+00 0.  1.
         13    1    1    2    0    0  0.82201434985E+02  0.69942501813E+02 -0.80420817050E+02  0.13459772826E+03  0.10566000000E+00 0. -1.
<mgrwt>
<rscale>  1 0.57119101E+03</rscale>
<asrwt>0</asrwt>
<pdfrwt beam="1">  1       21 0.10761885E+00 0.99539043E+03</pdfrwt>
<pdfrwt beam="2">  1        4 0.73211278E-01 0.99539043E+03</pdfrwt>
<totfact> 0.43766317E+01</totfact>
</mgrwt>
</event>
<event>
 6    1  0.1412458E-005  0.1093780E+04  0.7818608E-02  0.9482438E-01
          4   -1    0    0  502    0 -0.00000000000E+00  0.00000000000E+00  0.97241541324E+03  0.97241541324E+03  0.00000000000E+00 0.  1.
         21   -1    0    0  501  502  0.00000000000E+00 -0.00000000000E+00 -0.58397949312E+03  0.58397949312E+03  0.00000000000E+00 0.  1.
    9000010    2    1    2  501    0  0.12461196970E+03 -0.39074292469E+03  0.32752039804E+03  0.11417638798E+04  0.10139758231E+04 0.  0.
        -13    1    3    3    0    0  0.17871083490E+03 -0.92946054017E+02  0.66123472573E+03  0.69123650449E+03  0.10566000000E+00 0.  1.
          4    1    3    3  501    0 -0.54098865206E+02 -0.29779687068E+03 -0.33371432769E+03  0.45052737531E+03  0.00000000000E+00 0.  1.
         13    1    1    2    0    0 -0.12461196970E+03  0.39074292469E+03  0.60915522076E+02  0.41463102656E+03  0.10566000000E+00 0. -1.
<mgrwt>
<rscale>  1 0.85591077E+03</rscale>
<asrwt>0</asrwt>
<pdfrwt beam="2">  1       21 0.89842999E-01 0.10937802E+04</pdfrwt>
<pdfrwt beam="1">  1        4 0.14960237E+00 0.10937802E+04</pdfrwt>
<totfact> 0.11784394E+01</totfact>
</mgrwt>
</event>
<event>
 6    1  0.1412458E-005  0.1009583E+04  0.7818608E-02  0.9998757E-01
         21   -1    0    0  501  502  0.00000000000E+00  0.00000000000E+00  0.21451794238E+03  0.21451794238E+03  0.00000000000E+00 0.  1.
          4   -1    0    0  502    0 -0.00000000000E+00 -0.00000000000E+00 -0.15109320117E+04  0.15109320117E+04  0.00000000000E+00 0.  1.
    9000010    2    1    2  501    0 -0.25010058443E+02  0.90167001307E+02 -0.10265050484E+04  0.14397814716E+04  0.10052375244E+04 0.  0.
        -13    1    3    3    0    0  0.28701733855E+02 -0.24545734295E+03 -0.10690423545E+04  0.10972350083E+04  0.10566000000E+00 0.  1.
          4    1    3    3  501    0 -0.53711792298E+02  0.33562434425E+03  0.42537306047E+02  0.34254646326E+03  0.00000000000E+00 0.  1.
         13    1    1    2    0    0  0.25010058443E+02 -0.90167001307E+02 -0.26990902089E+03  0.28566848246E+03  0.10566000000E+00 0. -1.
<mgrwt>
<rscale>  1 0.55704761E+03</rscale>
<asrwt>0</asrwt>
<pdfrwt beam="1">  1       21 0.33002761E-01 0.10095831E+04</pdfrwt>
<pdfrwt beam="2">  1        4 0.23245108E+00 0.10095831E+04</pdfrwt>
<totfact> 0.29233058E+01</totfact>
</mgrwt>
</event>
<event>
 6    1  0.1412458E-005  0.1012837E+04  0.7818608E-02  0.9720799E-01
         21   -1    0    0  501  502  0.00000000000E+00  0.00000000000E+00  0.19277897608E+03  0.19277897608E+03  0.00000000000E+00 0.  1.
          4   -1    0    0  502    0 -0.00000000000E+00 -0.00000000000E+00 -0.20063022471E+04  0.20063022471E+04  0.00000000000E+00 0.  1.
    9000010    2    1    2  501    0 -0.21412856147E+03  0.79324311269E+02 -0.14219418582E+04  0.17457828653E+04  0.98676024322E+03 0.  0.
        -13    1    3    3    0    0  0.26439438703E+03  0.21362329025E+03 -0.11055163701E+04  0.11565923041E+04  0.10566000000E+00 0.  1.
          4    1    3    3  501    0 -0.47852294850E+03 -0.13429897898E+03 -0.31642548808E+03  0.58919056128E+03  0.00000000000E+00 0.  1.
         13    1    1    2    0    0  0.21412856147E+03 -0.79324311269E+02 -0.39158141284E+03  0.45329835786E+03  0.10566000000E+00 0. -1.
<mgrwt>
<rscale>  1 0.69791839E+03</rscale>
<asrwt>0</asrwt>
<pdfrwt beam="1">  1       21 0.29658305E-01 0.10128372E+04</pdfrwt>
<pdfrwt beam="2">  1        4 0.30866187E+00 0.10128372E+04</pdfrwt>
<totfact> 0.12257149E+01</totfact>
</mgrwt>
</event>
<event>
 6    1  0.1412458E-005  0.1123954E+04  0.7818608E-02  0.9415697E-01
         21   -1    0    0  501  502  0.00000000000E+00  0.00000000000E+00  0.10335220826E+04  0.10335220826E+04  0.00000000000E+00 0.  1.
          4   -1    0    0  502    0 -0.00000000000E+00 -0.00000000000E+00 -0.20912666477E+04  0.20912666477E+04  0.00000000000E+00 0.  1.
    9000010    2    1    2  501    0 -0.20313532172E+03  0.43338909791E+03  0.68585428306E+03  0.13166883394E+04  0.10169474010E+04 0.  0.
        -13    1    3    3    0    0 -0.46856178548E+03  0.50779106374E+03  0.76407139574E+03  0.10301490281E+04  0.10566000000E+00 0.  1.
          4    1    3    3  501    0  0.26542646376E+03 -0.74401965834E+02 -0.78217112676E+02  0.28653931127E+03  0.00000000000E+00 0.  1.
         13    1    1    2    0    0  0.20313532172E+03 -0.43338909791E+03 -0.17435988482E+04  0.18081003909E+04  0.10566000000E+00 0. -1.
<mgrwt>
<rscale>  1 0.90795040E+03</rscale>
<asrwt>0</asrwt>
<pdfrwt beam="1">  1       21 0.15900340E+00 0.11239538E+04</pdfrwt>
<pdfrwt beam="2">  1        4 0.32173333E+00 0.11239538E+04</pdfrwt>
<totfact> 0.19847516E-01</totfact>
</mgrwt>
</event>
<event>
 6    1  0.1412458E-005  0.1041238E+04  0.7818608E-02  0.9895427E-01
         21   -1    0    0  501  502  0.00000000000E+00  0.00000000000E+00  0.10019513964E+04  0.10019513964E+04  0.00000000000E+00 0.  1.
          4   -1    0    0  502    0 -0.00000000000E+00 -0.00000000000E+00 -0.45693406173E+03  0.45693406173E+03  0.00000000000E+00 0.  1.
    9000010    2    1    2  501    0 -0.10755639946E+03 -0.49852885705E+02  0.70668995868E+03  0.12584066866E+04  0.10344674968E+04 0.  0.
        -13    1    3    3    0    0 -0.25887799306E+03  0.43877024488E+03  0.47620952859E+03  0.69736121871E+03  0.10566000000E+00 0.  1.
          4    1    3    3  501    0  0.15132159360E+03 -0.48862313059E+03  0.23048043009E+03  0.56104546793E+03  0.00000000000E+00 0.  1.
         13    1    1    2    0    0  0.10755639946E+03  0.49852885705E+02 -0.16167262403E+03  0.20047877146E+03  0.10566000000E+00 0. -1.
<mgrwt>
<rscale>  1 0.60483423E+03</rscale>
<asrwt>0</asrwt>
<pdfrwt beam="1">  1       21 0.15414637E+00 0.10412381E+04</pdfrwt>
<pdfrwt beam="2">  1        4 0.70297548E-01 0.10412381E+04</pdfrwt>
<totfact> 0.18381543E+01</totfact>
</mgrwt>
</event>
<event>
 6    1  0.1412458E-005  0.9802946E+03  0.7818608E-02  0.1001608E+00
          4   -1    0    0  502    0 -0.00000000000E+00  0.00000000000E+00  0.24153968262E+04  0.24153968262E+04  0.00000000000E+00 0.  1.
         21   -1    0    0  501  502  0.00000000000E+00 -0.00000000000E+00 -0.12476172387E+03  0.12476172387E+03  0.00000000000E+00 0.  1.
    9000010    2    1    2  501    0 -0.89368007691E+02  0.37168516964E+02  0.19033516778E+04  0.21409636083E+04  0.97550470181E+03 0.  0.
        -13    1    3    3    0    0  0.31859596294E+03 -0.14431526834E+03  0.25404212987E+03  0.43228196723E+03  0.10566000000E+00 0.  1.
          4    1    3    3  501    0 -0.40796397063E+03  0.18148378530E+03  0.16493095480E+04  0.17086816411E+04  0.00000000000E+00 0.  1.
         13    1    1    2    0    0  0.89368007691E+02 -0.37168516964E+02  0.38728342454E+03  0.39919494178E+03  0.10566000000E+00 0. -1.
<mgrwt>
<rscale>  1 0.54950823E+03</rscale>
<asrwt>0</asrwt>
<pdfrwt beam="2">  1       21 0.19194113E-01 0.98029463E+03</pdfrwt>
<pdfrwt beam="1">  1        4 0.37159948E+00 0.98029463E+03</pdfrwt>
<totfact> 0.11445414E+01</totfact>
</mgrwt>
</event>
<event>
 6    1  0.1412458E-005  0.1078849E+04  0.7818608E-02  0.9492944E-01
          4   -1    0    0  502    0 -0.00000000000E+00  0.00000000000E+00  0.84297412804E+03  0.84297412804E+03  0.00000000000E+00 0.  1.
         21   -1    0    0  501  502  0.00000000000E+00 -0.00000000000E+00 -0.99023107842E+03  0.99023107842E+03  0.00000000000E+00 0. -1.
    9000010    2    1    2  501    0 -0.73809071820E+02  0.40526554043E+03 -0.58903078849E+03  0.12291753458E+04  0.99710923356E+03 0.  0.
        -13    1    3    3    0    0 -0.21416532120E+03 -0.20007030601E+03  0.92074692711E+02  0.30720135474E+03  0.10566000000E+00 0.  1.
          4    1    3    3  501    0  0.14035624938E+03  0.60533584644E+03 -0.68110548120E+03  0.92197399109E+03  0.00000000000E+00 0.  1.
         13    1    1    2    0    0  0.73809071820E+02 -0.40526554043E+03  0.44177383810E+03  0.60402986064E+03  0.10566000000E+00 0. -1.
<mgrwt>
<rscale>  1 0.84806046E+03</rscale>
<asrwt>0</asrwt>
<pdfrwt beam="2">  1       21 0.15234324E+00 0.10788488E+04</pdfrwt>
<pdfrwt beam="1">  1        4 0.12968833E+00 0.10788488E+04</pdfrwt>
<totfact> 0.43682962E+00</totfact>
</mgrwt>
</event>
<event>
 6    1  0.1412458E-005  0.1007400E+04  0.7818608E-02  0.9850514E-01
         21   -1    0    0  501  502  0.00000000000E+00  0.00000000000E+00  0.59095058207E+03  0.59095058207E+03  0.00000000000E+00 0.  1.
          4   -1    0    0  502    0 -0.00000000000E+00 -0.00000000000E+00 -0.62850606377E+03  0.62850606377E+03  0.00000000000E+00 0.  1.
    9000010    2    1    2  501    0  0.13538915077E+03  0.67693964307E+02  0.10330843802E+03  0.10126829773E+04  0.99596259178E+03 0.  0.
        -13    1    3    3    0    0 -0.23398953864E+03  0.42843130757E+03  0.88784766164E+02  0.49617258627E+03  0.10566000000E+00 0.  1.
          4    1    3    3  501    0  0.36937868941E+03 -0.36073734326E+03  0.14523671860E+02  0.51651039105E+03  0.00000000000E+00 0.  1.
         13    1    1    2    0    0 -0.13538915077E+03 -0.67693964307E+02 -0.14086391972E+03  0.20677366852E+03  0.10566000000E+00 0. -1.
<mgrwt>
<rscale>  1 0.62720703E+03</rscale>
<asrwt>0</asrwt>
<pdfrwt beam="1">  1       21 0.90915474E-01 0.10073997E+04</pdfrwt>
<pdfrwt beam="2">  1        4 0.96693240E-01 0.10073997E+04</pdfrwt>
<totfact> 0.34777086E+01</totfact>
</mgrwt>
</event>
<event>
 6    1  0.1412458E-005  0.8935185E+03  0.7818608E-02  0.9930549E-01
         21   -1    0    0  501  502  0.00000000000E+00  0.00000000000E+00  0.40573041448E+03  0.40573041448E+03  0.00000000000E+00 0.  1.
          4   -1    0    0  502    0 -0.00000000000E+00 -0.00000000000E+00 -0.12136221393E+04  0.12136221393E+04  0.00000000000E+00 0.  1.
    9000010    2    1    2  501    0  0.93985102898E+02 -0.13877854865E+03 -0.10841131469E+03  0.90007128720E+03  0.87765746379E+03 0.  0.
        -13    1    3    3    0    0 -0.26278648933E+03  0.46534652124E+01  0.25845205337E+03  0.36861344084E+03  0.10566000000E+00 0.  1.
          4    1    3    3  501    0  0.35677159223E+03 -0.14343201386E+03 -0.36686336806E+03  0.53145784635E+03  0.00000000000E+00 0.  1.
         13    1    1    2    0    0 -0.93985102898E+02  0.13877854865E+03 -0.69948041014E+03  0.71928126659E+03  0.10566000000E+00 0. -1.
<mgrwt>
<rscale>  1 0.58803319E+03</rscale>
<asrwt>0</asrwt>
<pdfrwt beam="1">  1       21 0.62420065E-01 0.89351850E+03</pdfrwt>
<pdfrwt beam="2">  1        4 0.18671109E+00 0.89351850E+03</pdfrwt>
<totfact> 0.15085354E+01</totfact>
</mgrwt>
</event>
<event>
 6    1  0.1412458E-005  0.1007206E+04  0.7818608E-02  0.9905303E-01
         21   -1    0    0  501  502  0.00000000000E+00  0.00000000000E+00  0.36300655978E+03  0.36300655978E+03  0.00000000000E+00 0.  1.
          4   -1    0    0  502    0 -0.00000000000E+00 -0.00000000000E+00 -0.11369920610E+04  0.11369920610E+04  0.00000000000E+00 0.  1.
    9000010    2    1    2  501    0  0.69783161953E+02  0.10596623918E+03 -0.36421647146E+03  0.10710356825E+04  0.99918229642E+03 0.  0.
        -13    1    3    3    0    0  0.35709649630E+03 -0.27283813909E+03 -0.38981730590E+03  0.59490848116E+03  0.10566000000E+00 0.  1.
          4    1    3    3  501    0 -0.28731333435E+03  0.37880437827E+03  0.25600834441E+02  0.47612720130E+03  0.00000000000E+00 0.  1.
         13    1    1    2    0    0 -0.69783161953E+02 -0.10596623918E+03 -0.40976902972E+03  0.42896293828E+03  0.10566000000E+00 0. -1.
<mgrwt>
<rscale>  1 0.60004944E+03</rscale>
<asrwt>0</asrwt>
<pdfrwt beam="1">  1       21 0.55847163E-01 0.10072059E+04</pdfrwt>
<pdfrwt beam="2">  1        4 0.17492185E+00 0.10072059E+04</pdfrwt>
<totfact> 0.23042333E+01</totfact>
</mgrwt>
</event>
<event>
 6    1  0.1412458E-005  0.9323574E+03  0.7818608E-02  0.9696282E-01
          4   -1    0    0  502    0 -0.00000000000E+00  0.00000000000E+00  0.43686742277E+03  0.43686742277E+03  0.00000000000E+00 0.  1.
         21   -1    0    0  501  502  0.00000000000E+00 -0.00000000000E+00 -0.89487545348E+03  0.89487545348E+03  0.00000000000E+00 0.  1.
    9000010    2    1    2  501    0  0.19551098762E+03 -0.25050695072E+03 -0.35579090651E+03  0.99793659967E+03  0.87653408900E+03 0.  0.
        -13    1    3    3    0    0  0.74521221711E+02  0.25435311669E+03  0.12255383844E+03  0.29200749123E+03  0.10566000000E+00 0.  1.
          4    1    3    3  501    0  0.12098976591E+03 -0.50486006741E+03 -0.47834474496E+03  0.70592910844E+03  0.00000000000E+00 0.  1.
         13    1    1    2    0    0 -0.19551098762E+03  0.25050695072E+03 -0.10221712420E+03  0.33380627657E+03  0.10566000000E+00 0. -1.
<mgrwt>
<rscale>  1 0.71238589E+03</rscale>
<asrwt>0</asrwt>
<pdfrwt beam="2">  1       21 0.13767315E+00 0.93235738E+03</pdfrwt>
<pdfrwt beam="1">  1        4 0.67210373E-01 0.93235738E+03</pdfrwt>
<totfact> 0.28084444E+01</totfact>
</mgrwt>
</event>
<event>
 6    1  0.1412458E-005  0.9880871E+03  0.7818608E-02  0.9678469E-01
          4   -1    0    0  502    0 -0.00000000000E+00  0.00000000000E+00  0.96531178952E+03  0.96531178952E+03  0.00000000000E+00 0.  1.
         21   -1    0    0  501  502  0.00000000000E+00 -0.00000000000E+00 -0.48482128649E+03  0.48482128649E+03  0.00000000000E+00 0.  1.
    9000010    2    1    2  501    0  0.18590623267E+02 -0.28284733098E+03  0.12575647684E+03  0.99605768093E+03  0.94655585591E+03 0.  0.
        -13    1    3    3    0    0 -0.14137491328E+03  0.15398368834E+03 -0.29986134679E+03  0.36553341960E+03  0.10566000000E+00 0.  1.
          4    1    3    3  501    0  0.15996553655E+03 -0.43683101932E+03  0.42561782364E+03  0.63052426133E+03  0.00000000000E+00 0.  1.
         13    1    1    2    0    0 -0.18590623267E+02  0.28284733098E+03  0.35473402619E+03  0.45407539508E+03  0.10566000000E+00 0. -1.
<mgrwt>
<rscale>  1 0.72313350E+03</rscale>
<asrwt>0</asrwt>
<pdfrwt beam="2">  1       21 0.74587890E-01 0.98808715E+03</pdfrwt>
<pdfrwt beam="1">  1        4 0.14850951E+00 0.98808715E+03</pdfrwt>
<totfact> 0.18869085E+01</totfact>
</mgrwt>
</event>
<event>
 6    1  0.1412458E-005  0.1075312E+04  0.7818608E-02  0.9464994E-01
          4   -1    0    0  502    0 -0.00000000000E+00  0.00000000000E+00  0.18167479294E+04  0.18167479294E+04  0.00000000000E+00 0.  1.
         21   -1    0    0  501  502  0.00000000000E+00 -0.00000000000E+00 -0.33201192579E+03  0.33201192579E+03  0.00000000000E+00 0.  1.
    9000010    2    1    2  501    0  0.26813676137E+03 -0.37247710979E+03  0.11872415514E+04  0.16018234051E+04  0.97245010146E+03 0.  0.
        -13    1    3    3    0    0  0.18802692238E+03  0.30367873273E+03  0.62039573018E+03  0.71586714511E+03  0.10566000000E+00 0.  1.
          4    1    3    3  501    0  0.80109838986E+02 -0.67615584252E+03  0.56684582120E+03  0.88595626003E+03  0.00000000000E+00 0.  1.
         13    1    1    2    0    0 -0.26813676137E+03  0.37247710979E+03  0.29749445220E+03  0.54693645003E+03  0.10566000000E+00 0. -1.
<mgrwt>
<rscale>  1 0.86914575E+03</rscale>
<asrwt>0</asrwt>
<pdfrwt beam="2">  1       21 0.51078759E-01 0.10753119E+04</pdfrwt>
<pdfrwt beam="1">  1        4 0.27949968E+00 0.10753119E+04</pdfrwt>
<totfact> 0.59171723E+00</totfact>
</mgrwt>
</event>
<event>
 6    1  0.1412458E-005  0.1381662E+04  0.7818608E-02  0.9062220E-01
          4   -1    0    0  502    0 -0.00000000000E+00  0.00000000000E+00  0.28815437794E+04  0.28815437794E+04  0.00000000000E+00 0.  1.
         21   -1    0    0  501  502  0.00000000000E+00 -0.00000000000E+00 -0.48583601910E+03  0.48583601910E+03  0.00000000000E+00 0. -1.
    9000010    2    1    2  501    0  0.18131134223E+03  0.93704717000E+03  0.16755378264E+04  0.21717310430E+04  0.99902828478E+03 0.  0.
        -13    1    3    3    0    0 -0.35522363982E+03  0.24742741343E+03  0.25050809535E+03  0.50015845110E+03  0.10566000000E+00 0.  1.
          4    1    3    3  501    0  0.53653498205E+03  0.68961975657E+03  0.14250297311E+04  0.16715725919E+04  0.00000000000E+00 0.  1.
         13    1    1    2    0    0 -0.18131134223E+03 -0.93704717000E+03  0.72016993384E+03  0.11956487554E+04  0.10566000000E+00 0. -1.
<mgrwt>
<rscale>  1 0.12596126E+04</rscale>
<asrwt>0</asrwt>
<pdfrwt beam="2">  1       21 0.74744005E-01 0.13816616E+04</pdfrwt>
<pdfrwt beam="1">  1        4 0.44331442E+00 0.13816616E+04</pdfrwt>
<totfact> 0.19512085E-01</totfact>
</mgrwt>
</event>
<event>
 6    1  0.1412458E-005  0.1018947E+04  0.7818608E-02  0.9766298E-01
         21   -1    0    0  501  502  0.00000000000E+00  0.00000000000E+00  0.67139982905E+03  0.67139982905E+03  0.00000000000E+00 0.  1.
          4   -1    0    0  502    0 -0.00000000000E+00 -0.00000000000E+00 -0.75195272522E+03  0.75195272522E+03  0.00000000000E+00 0.  1.
    9000010    2    1    2  501    0  0.17005143806E+03 -0.90846182698E+02  0.24225841237E+03  0.10473503301E+04  0.10005413810E+04 0.  0.
        -13    1    3    3    0    0  0.26653562237E+03  0.59002614551E+02 -0.34137943470E+03  0.43710693900E+03  0.10566000000E+00 0.  1.
          4    1    3    3  501    0 -0.96484184314E+02 -0.14984879725E+03  0.58363784707E+03  0.61024339111E+03  0.00000000000E+00 0.  1.
         13    1    1    2    0    0 -0.17005143806E+03  0.90846182698E+02 -0.32281130853E+03  0.37600222417E+03  0.10566000000E+00 0. -1.
<mgrwt>
<rscale>  1 0.67202996E+03</rscale>
<asrwt>0</asrwt>
<pdfrwt beam="1">  1       21 0.10329228E+00 0.10189473E+04</pdfrwt>
<pdfrwt beam="2">  1        4 0.11568503E+00 0.10189473E+04</pdfrwt>
<totfact> 0.16379525E+01</totfact>
</mgrwt>
</event>
<event>
 6    1  0.1412458E-005  0.1076608E+04  0.7818608E-02  0.9508376E-01
          4   -1    0    0  502    0 -0.00000000000E+00  0.00000000000E+00  0.14403774649E+04  0.14403774649E+04  0.00000000000E+00 0.  1.
         21   -1    0    0  501  502  0.00000000000E+00 -0.00000000000E+00 -0.42111058215E+03  0.42111058215E+03  0.00000000000E+00 0.  1.
    9000010    2    1    2  501    0 -0.37984566198E+03 -0.99746705919E+02  0.44314273793E+03  0.11642426285E+04  0.10024237026E+04 0.  0.
        -13    1    3    3    0    0 -0.32234829375E+03  0.39779440309E+03  0.42106119085E+03  0.66290372395E+03  0.10566000000E+00 0.  1.
          4    1    3    3  501    0 -0.57497368224E+02 -0.49754110901E+03  0.22081547077E+02  0.50133890456E+03  0.00000000000E+00 0.  1.
         13    1    1    2    0    0  0.37984566198E+03  0.99746705919E+02  0.57612414479E+03  0.69724541851E+03  0.10566000000E+00 0. -1.
<mgrwt>
<rscale>  1 0.83669110E+03</rscale>
<asrwt>0</asrwt>
<pdfrwt beam="2">  1       21 0.64786244E-01 0.10766083E+04</pdfrwt>
<pdfrwt beam="1">  1        4 0.22159653E+00 0.10766083E+04</pdfrwt>
<totfact> 0.80104770E+00</totfact>
</mgrwt>
</event>
<event>
 6    1  0.1412458E-005  0.1037464E+04  0.7818608E-02  0.9698655E-01
         21   -1    0    0  501  502  0.00000000000E+00  0.00000000000E+00  0.53762560564E+03  0.53762560564E+03  0.00000000000E+00 0.  1.
          4   -1    0    0  502    0 -0.00000000000E+00 -0.00000000000E+00 -0.74923951988E+03  0.74923951988E+03  0.00000000000E+00 0.  1.
    9000010    2    1    2  501    0 -0.22862754158E+03 -0.92506842898E+01 -0.20751147735E+03  0.10580137128E+04  0.10119169311E+04 0.  0.
        -13    1    3    3    0    0  0.14741890721E+03 -0.41584177228E+03 -0.24181735688E+03  0.50312260835E+03  0.10566000000E+00 0.  1.
          4    1    3    3  501    0 -0.37604644880E+03  0.40659108799E+03  0.34305879530E+02  0.55489110450E+03  0.00000000000E+00 0.  1.
         13    1    1    2    0    0  0.22862754158E+03  0.92506842898E+01 -0.41024368924E+01  0.22885141267E+03  0.10566000000E+00 0. -1.
<mgrwt>
<rscale>  1 0.71096930E+03</rscale>
<asrwt>0</asrwt>
<pdfrwt beam="1">  1       21 0.82711632E-01 0.10374642E+04</pdfrwt>
<pdfrwt beam="2">  1        4 0.11526762E+00 0.10374642E+04</pdfrwt>
<totfact> 0.28328988E+01</totfact>
</mgrwt>
</event>
<event>
 6    1  0.1412458E-005  0.1169620E+04  0.7818608E-02  0.9317757E-01
          4   -1    0    0  502    0 -0.00000000000E+00  0.00000000000E+00  0.17901395947E+04  0.17901395947E+04  0.00000000000E+00 0.  1.
         21   -1    0    0  501  502  0.00000000000E+00 -0.00000000000E+00 -0.52699130312E+03  0.52699130312E+03  0.00000000000E+00 0. -1.
    9000010    2    1    2  501    0 -0.54979228786E+02  0.60184415083E+03  0.34773621682E+03  0.12202177858E+04  0.10013849764E+04 0.  0.
        -13    1    3    3    0    0 -0.42177457839E+03 -0.23938665893E+02  0.24294967371E+03  0.48733090382E+03  0.10566000000E+00 0.  1.
          4    1    3    3  501    0  0.36679534960E+03  0.62578281672E+03  0.10478654310E+03  0.73288688200E+03  0.00000000000E+00 0.  1.
         13    1    1    2    0    0  0.54979228786E+02 -0.60184415083E+03  0.91541207473E+03  0.10969131120E+04  0.10566000000E+00 0. -1.
<mgrwt>
<rscale>  1 0.99164392E+03</rscale>
<asrwt>0</asrwt>
<pdfrwt beam="2">  1       21 0.81075586E-01 0.11696200E+04</pdfrwt>
<pdfrwt beam="1">  1        4 0.27540609E+00 0.11696200E+04</pdfrwt>
<totfact> 0.21767503E+00</totfact>
</mgrwt>
</event>
<event>
 6    1  0.1412458E-005  0.1047982E+04  0.7818608E-02  0.9609379E-01
          4   -1    0    0  502    0 -0.00000000000E+00  0.00000000000E+00  0.73547355446E+03  0.73547355446E+03  0.00000000000E+00 0.  1.
         21   -1    0    0  501  502  0.00000000000E+00 -0.00000000000E+00 -0.63655399876E+03  0.63655399876E+03  0.00000000000E+00 0.  1.
    9000010    2    1    2  501    0  0.27547202850E+03 -0.11969903072E+03  0.17425349336E+03  0.10623698232E+04  0.10040182592E+04 0.  0.
        -13    1    3    3    0    0  0.55436939551E+03 -0.16440868737E+03 -0.18340669952E+03  0.60662481960E+03  0.10566000000E+00 0.  1.
          4    1    3    3  501    0 -0.27889736701E+03  0.44709656650E+02  0.35766019288E+03  0.45574500359E+03  0.00000000000E+00 0.  1.
         13    1    1    2    0    0 -0.27547202850E+03  0.11969903072E+03 -0.75333937655E+02  0.30965773003E+03  0.10566000000E+00 0. -1.
<mgrwt>
<rscale>  1 0.76678525E+03</rscale>
<asrwt>0</asrwt>
<pdfrwt beam="2">  1       21 0.97931385E-01 0.10479816E+04</pdfrwt>
<pdfrwt beam="1">  1        4 0.11314978E+00 0.10479816E+04</pdfrwt>
<totfact> 0.19699654E+01</totfact>
</mgrwt>
</event>
<event>
 6    1  0.1412458E-005  0.9708447E+03  0.7818608E-02  0.9898400E-01
         21   -1    0    0  501  502  0.00000000000E+00  0.00000000000E+00  0.46581727054E+03  0.46581727054E+03  0.00000000000E+00 0. -1.
          4   -1    0    0  502    0 -0.00000000000E+00 -0.00000000000E+00 -0.98086834120E+03  0.98086834120E+03  0.00000000000E+00 0.  1.
    9000010    2    1    2  501    0 -0.12464835947E+03  0.73799686963E+02 -0.71075086258E+03  0.12032066044E+04  0.95997694597E+03 0.  0.
        -13    1    3    3    0    0 -0.11951108354E+03 -0.12878782598E+03 -0.90535525597E+03  0.92224582075E+03  0.10566000000E+00 0.  1.
          4    1    3    3  501    0 -0.51372759230E+01  0.20258751294E+03  0.19460439339E+03  0.28096078361E+03  0.00000000000E+00 0.  1.
         13    1    1    2    0    0  0.12464835947E+03 -0.73799686963E+02  0.19569979192E+03  0.24347900738E+03  0.10566000000E+00 0. -1.
<mgrwt>
<rscale>  1 0.60338903E+03</rscale>
<asrwt>0</asrwt>
<pdfrwt beam="1">  1       21 0.71664197E-01 0.97084465E+03</pdfrwt>
<pdfrwt beam="2">  1        4 0.15090282E+00 0.97084465E+03</pdfrwt>
<totfact> 0.19861019E+01</totfact>
</mgrwt>
</event>
<event>
 6    1  0.1412458E-005  0.1048391E+04  0.7818608E-02  0.9652180E-01
         21   -1    0    0  501  502  0.00000000000E+00  0.00000000000E+00  0.66506195326E+03  0.66506195326E+03  0.00000000000E+00 0.  1.
          4   -1    0    0  502    0 -0.00000000000E+00 -0.00000000000E+00 -0.71337674836E+03  0.71337674836E+03  0.00000000000E+00 0.  1.
    9000010    2    1    2  501    0 -0.25910065864E+03  0.11168319899E+02  0.14033475665E+03  0.10577417306E+04  0.10158079750E+04 0.  0.
        -13    1    3    3    0    0  0.23466490513E+03  0.14274087709E+03  0.39947667902E+03  0.48479294956E+03  0.10566000000E+00 0.  1.
          4    1    3    3  501    0 -0.49376556377E+03 -0.13157255719E+03 -0.25914192237E+03  0.57294878104E+03  0.00000000000E+00 0.  1.
         13    1    1    2    0    0  0.25910065864E+03 -0.11168319899E+02 -0.18864955175E+03  0.32069697101E+03  0.10566000000E+00 0. -1.
<mgrwt>
<rscale>  1 0.73936753E+03</rscale>
<asrwt>0</asrwt>
<pdfrwt beam="1">  1       21 0.10231722E+00 0.10483910E+04</pdfrwt>
<pdfrwt beam="2">  1        4 0.10975027E+00 0.10483910E+04</pdfrwt>
<totfact> 0.19049598E+01</totfact>
</mgrwt>
</event>
<event>
 6    1  0.1412458E-005  0.1021221E+04  0.7818608E-02  0.9693489E-01
         21   -1    0    0  501  502  0.00000000000E+00  0.00000000000E+00  0.44102505001E+03  0.44102505001E+03  0.00000000000E+00 0.  1.
          4   -1    0    0  502    0 -0.00000000000E+00 -0.00000000000E+00 -0.10832033378E+04  0.10832033378E+04  0.00000000000E+00 0.  1.
    9000010    2    1    2  501    0  0.15068836572E+03 -0.19204071333E+03 -0.23252112045E+03  0.10473577292E+04  0.99161762907E+03 0.  0.
        -13    1    3    3    0    0 -0.26552056920E+03 -0.17199229447E+03  0.25477654993E+03  0.40619407133E+03  0.10566000000E+00 0.  1.
          4    1    3    3  501    0  0.41620893491E+03 -0.20048418859E+02 -0.48729767038E+03  0.64116365786E+03  0.00000000000E+00 0.  1.
         13    1    1    2    0    0 -0.15068836572E+03  0.19204071333E+03 -0.40965716736E+03  0.47687065864E+03  0.10566000000E+00 0. -1.
<mgrwt>
<rscale>  1 0.71405781E+03</rscale>
<asrwt>0</asrwt>
<pdfrwt beam="1">  1       21 0.67850008E-01 0.10212209E+04</pdfrwt>
<pdfrwt beam="2">  1        4 0.16664667E+00 0.10212209E+04</pdfrwt>
<totfact> 0.17059324E+01</totfact>
</mgrwt>
</event>
<event>
 6    1  0.1412458E-005  0.1005178E+04  0.7818608E-02  0.9880533E-01
          4   -1    0    0  502    0 -0.00000000000E+00  0.00000000000E+00  0.19915968223E+04  0.19915968223E+04  0.00000000000E+00 0.  1.
         21   -1    0    0  501  502  0.00000000000E+00 -0.00000000000E+00 -0.16943660818E+03  0.16943660818E+03  0.00000000000E+00 0.  1.
    9000010    2    1    2  501    0  0.13582761727E+03  0.25786792570E+02  0.14527268643E+04  0.17665779686E+04  0.99562456609E+03 0.  0.
        -13    1    3    3    0    0 -0.31629580285E+03 -0.26516363507E+03  0.35561954964E+03  0.54481195243E+03  0.10566000000E+00 0.  1.
          4    1    3    3  501    0  0.45212342012E+03  0.29095042764E+03  0.10971073147E+04  0.12217660162E+04  0.00000000000E+00 0.  1.
         13    1    1    2    0    0 -0.13582761727E+03 -0.25786792570E+02  0.36943334979E+03  0.39445546185E+03  0.10566000000E+00 0. -1.
<mgrwt>
<rscale>  1 0.61214094E+03</rscale>
<asrwt>0</asrwt>
<pdfrwt beam="2">  1       21 0.26067172E-01 0.10051778E+04</pdfrwt>
<pdfrwt beam="1">  1        4 0.30639949E+00 0.10051778E+04</pdfrwt>
<totfact> 0.16406868E+01</totfact>
</mgrwt>
</event>
<event>
 6    1  0.1412458E-005  0.1016493E+04  0.7818608E-02  0.9763717E-01
          4   -1    0    0  502    0 -0.00000000000E+00  0.00000000000E+00  0.99932765232E+03  0.99932765232E+03  0.00000000000E+00 0.  1.
         21   -1    0    0  501  502  0.00000000000E+00 -0.00000000000E+00 -0.42637540862E+03  0.42637540862E+03  0.00000000000E+00 0.  1.
    9000010    2    1    2  501    0 -0.18521844634E+02 -0.19498414381E+03  0.24803302849E+03  0.10463162100E+04  0.99744441102E+03 0.  0.
        -13    1    3    3    0    0 -0.96923411368E+02  0.40202777547E+03  0.80526525144E+02  0.42131343716E+03  0.10566000000E+00 0.  1.
          4    1    3    3  501    0  0.78401566734E+02 -0.59701191928E+03  0.16750650334E+03  0.62500277286E+03  0.00000000000E+00 0.  1.
         13    1    1    2    0    0  0.18521844634E+02  0.19498414381E+03  0.32491921521E+03  0.37938685091E+03  0.10566000000E+00 0. -1.
<mgrwt>
<rscale>  1 0.67346598E+03</rscale>
<asrwt>0</asrwt>
<pdfrwt beam="2">  1       21 0.65596217E-01 0.10164926E+04</pdfrwt>
<pdfrwt beam="1">  1        4 0.15374271E+00 0.10164926E+04</pdfrwt>
<totfact> 0.23010912E+01</totfact>
</mgrwt>
</event>
<event>
 6    1  0.1412458E-005  0.8942652E+03  0.7818608E-02  0.9760890E-01
         21   -1    0    0  501  502  0.00000000000E+00  0.00000000000E+00  0.20463430099E+04  0.20463430099E+04  0.00000000000E+00 0.  1.
          4   -1    0    0  502    0 -0.00000000000E+00 -0.00000000000E+00 -0.31342366987E+03  0.31342366987E+03  0.00000000000E+00 0.  1.
    9000010    2    1    2  501    0 -0.53448888872E+02 -0.28539143862E+03  0.18435933988E+04  0.20490355815E+04  0.84581625513E+03 0.  0.
        -13    1    3    3    0    0  0.35664300837E+03 -0.13037251291E+03  0.12792018295E+04  0.13343719719E+04  0.10566000000E+00 0.  1.
          4    1    3    3  501    0 -0.41009189724E+03 -0.15501892571E+03  0.56439156925E+03  0.71466360965E+03  0.00000000000E+00 0.  1.
         13    1    1    2    0    0  0.53448888872E+02  0.28539143862E+03 -0.11067405875E+03  0.31073109822E+03  0.10566000000E+00 0. -1.
<mgrwt>
<rscale>  1 0.67504301E+03</rscale>
<asrwt>0</asrwt>
<pdfrwt beam="1">  1       21 0.31482199E+00 0.89426517E+03</pdfrwt>
<pdfrwt beam="2">  1        4 0.48219027E-01 0.89426517E+03</pdfrwt>
<totfact> 0.36269226E+00</totfact>
</mgrwt>
</event>
<event>
 6    1  0.1412458E-005  0.1000063E+04  0.7818608E-02  0.9933512E-01
          4   -1    0    0  502    0 -0.00000000000E+00  0.00000000000E+00  0.40163974474E+03  0.40163974474E+03  0.00000000000E+00 0.  1.
         21   -1    0    0  501  502  0.00000000000E+00 -0.00000000000E+00 -0.78204410640E+03  0.78204410640E+03  0.00000000000E+00 0.  1.
    9000010    2    1    2  501    0  0.82578321475E+02 -0.84872038205E+02 -0.36345169509E+03  0.10640600821E+04  0.99302783528E+03 0.  0.
        -13    1    3    3    0    0  0.15863281746E+03 -0.32586969554E+03 -0.61093385125E+03  0.71034893610E+03  0.10566000000E+00 0.  1.
          4    1    3    3  501    0 -0.76054495984E+02  0.24099765733E+03  0.24748215616E+03  0.35371114602E+03  0.00000000000E+00 0.  1.
         13    1    1    2    0    0 -0.82578321475E+02  0.84872038205E+02 -0.16952666579E+02  0.11962376902E+03  0.10566000000E+00 0. -1.
<mgrwt>
<rscale>  1 0.58664265E+03</rscale>
<asrwt>0</asrwt>
<pdfrwt beam="2">  1       21 0.12031448E+00 0.10000634E+04</pdfrwt>
<pdfrwt beam="1">  1        4 0.61790730E-01 0.10000634E+04</pdfrwt>
<totfact> 0.47978095E+01</totfact>
</mgrwt>
</event>
<event>
 6    1  0.1767269E-005  0.7828508E+03  0.7818608E-02  0.9947136E-01
          4   -1    0    0  502    0 -0.00000000000E+00  0.00000000000E+00  0.16278407197E+03  0.16278407197E+03  0.00000000000E+00 0.  1.
         21   -1    0    0  501  502  0.00000000000E+00 -0.00000000000E+00 -0.17501721216E+04  0.17501721216E+04  0.00000000000E+00 0.  1.
    9000010    2    1    2  501    0 -0.15166993272E+03  0.18128493319E+03 -0.14259838156E+04  0.16267406569E+04  0.74631583599E+03 0.  0.
        -13    1    3    3    0    0 -0.28161201351E+03  0.12040612453E+03 -0.14493478014E+04  0.14813547926E+04  0.10566000000E+00 0.  1.
          4    1    3    3  501    0  0.12994208079E+03  0.60878808661E+02  0.23363985827E+02  0.14538586430E+03  0.00000000000E+00 0.  1.
         13    1    1    2    0    0  0.15166993272E+03 -0.18128493319E+03 -0.16140423406E+03  0.28621553667E+03  0.10566000000E+00 0. -1.
<mgrwt>
<rscale>  1 0.58030276E+03</rscale>
<asrwt>0</asrwt>
<pdfrwt beam="2">  1       21 0.26925726E+00 0.78285077E+03</pdfrwt>
<pdfrwt beam="1">  1        4 0.25043702E-01 0.78285077E+03</pdfrwt>
<totfact> 0.26219801E+01</totfact>
</mgrwt>
</event>
<event>
 6    1  0.1412458E-005  0.1233600E+04  0.7818608E-02  0.9223407E-01
          4   -1    0    0  502    0 -0.00000000000E+00  0.00000000000E+00  0.37405493064E+03  0.37405493064E+03  0.00000000000E+00 0.  1.
         21   -1    0    0  501  502  0.00000000000E+00 -0.00000000000E+00 -0.38173761940E+04  0.38173761940E+04  0.00000000000E+00 0.  1.
    9000010    2    1    2  501    0  0.68704770095E+03  0.24305521656E+03 -0.31894555382E+04  0.34197069516E+04  0.99531835239E+03 0.  0.
        -13    1    3    3    0    0  0.83507602524E+03 -0.76550179885E+02 -0.17913192263E+04  0.19778868723E+04  0.10566000000E+00 0.  1.
          4    1    3    3  501    0 -0.14802832429E+03  0.31960539644E+03 -0.13981363120E+04  0.14418200793E+04  0.00000000000E+00 0.  1.
         13    1    1    2    0    0 -0.68704770095E+03 -0.24305521656E+03 -0.25386572507E+03  0.77172417301E+03  0.10566000000E+00 0. -1.
<mgrwt>
<rscale>  1 0.10815059E+04</rscale>
<asrwt>0</asrwt>
<pdfrwt beam="2">  1       21 0.58728863E+00 0.12336000E+04</pdfrwt>
<pdfrwt beam="1">  1        4 0.57546914E-01 0.12336000E+04</pdfrwt>
<totfact> 0.30279122E-02</totfact>
</mgrwt>
</event>
<event>
 6    1  0.1412458E-005  0.1038790E+04  0.7818608E-02  0.9624605E-01
         21   -1    0    0  501  502  0.00000000000E+00  0.00000000000E+00  0.13360847685E+04  0.13360847685E+04  0.00000000000E+00 0.  1.
          4   -1    0    0  502    0 -0.00000000000E+00 -0.00000000000E+00 -0.38814987497E+03  0.38814987497E+03  0.00000000000E+00 0.  1.
    9000010    2    1    2  501    0  0.25712887733E+03  0.14002171071E+03  0.98199919398E+03  0.14294775795E+04  0.99667567161E+03 0.  0.
        -13    1    3    3    0    0 -0.61639717768E+01 -0.37228407676E+03  0.68915470748E+03  0.78330559194E+03  0.10566000000E+00 0.  1.
          4    1    3    3  501    0  0.26329284911E+03  0.51230578748E+03  0.29284448649E+03  0.64617198759E+03  0.00000000000E+00 0.  1.
         13    1    1    2    0    0 -0.25712887733E+03 -0.14002171071E+03 -0.34064300422E+02  0.29475706396E+03  0.10566000000E+00 0. -1.
<mgrwt>
<rscale>  1 0.75688832E+03</rscale>
<asrwt>0</asrwt>
<pdfrwt beam="1">  1       21 0.20555150E+00 0.10387896E+04</pdfrwt>
<pdfrwt beam="2">  1        4 0.59715366E-01 0.10387896E+04</pdfrwt>
<totfact> 0.11108975E+01</totfact>
</mgrwt>
</event>
<event>
 6    1  0.1412458E-005  0.1016497E+04  0.7818608E-02  0.9799713E-01
         21   -1    0    0  501  502  0.00000000000E+00  0.00000000000E+00  0.10531806126E+04  0.10531806126E+04  0.00000000000E+00 0.  1.
          4   -1    0    0  502    0 -0.00000000000E+00 -0.00000000000E+00 -0.37097844969E+03  0.37097844969E+03  0.00000000000E+00 0.  1.
    9000010    2    1    2  501    0 -0.48054852187E+02 -0.16717277510E+03  0.72062851477E+03  0.12460225942E+04  0.10015042903E+04 0.  0.
        -13    1    3    3    0    0  0.14725954877E+03  0.19511402035E+03 -0.14733658974E+03  0.28541712891E+03  0.10566000000E+00 0.  1.
          4    1    3    3  501    0 -0.19531440095E+03 -0.36228679544E+03  0.86796510450E+03  0.96060546532E+03  0.00000000000E+00 0.  1.
         13    1    1    2    0    0  0.48054852187E+02  0.16717277510E+03 -0.38426351895E+02  0.17813646801E+03  0.10566000000E+00 0. -1.
<mgrwt>
<rscale>  1 0.65377928E+03</rscale>
<asrwt>0</asrwt>
<pdfrwt beam="1">  1       21 0.16202779E+00 0.10164973E+04</pdfrwt>
<pdfrwt beam="2">  1        4 0.57073608E-01 0.10164973E+04</pdfrwt>
<totfact> 0.25290632E+01</totfact>
</mgrwt>
</event>
<event>
 6    1  0.1412458E-005  0.1192262E+04  0.7818608E-02  0.9289602E-01
          4   -1    0    0  502    0 -0.00000000000E+00  0.00000000000E+00  0.34371905784E+03  0.34371905784E+03  0.00000000000E+00 0.  1.
         21   -1    0    0  501  502  0.00000000000E+00 -0.00000000000E+00 -0.25323326900E+04  0.25323326900E+04  0.00000000000E+00 0.  1.
    9000010    2    1    2  501    0  0.25190034214E+03 -0.57999988435E+03 -0.11283518603E+04  0.16415442816E+04  0.10107601395E+04 0.  0.
        -13    1    3    3    0    0  0.15958836364E+03 -0.92436391490E+02  0.17047824129E+03  0.25114890841E+03  0.10566000000E+00 0.  1.
          4    1    3    3  501    0  0.92311978504E+02 -0.48756349286E+03 -0.12988301016E+04  0.13903953732E+04  0.00000000000E+00 0.  1.
         13    1    1    2    0    0 -0.25190034214E+03  0.57999988435E+03 -0.10602617718E+04  0.12345074662E+04  0.10566000000E+00 0. -1.
<mgrwt>
<rscale>  1 0.10174582E+04</rscale>
<asrwt>0</asrwt>
<pdfrwt beam="2">  1       21 0.38958964E+00 0.11922624E+04</pdfrwt>
<pdfrwt beam="1">  1        4 0.52879856E-01 0.11922624E+04</pdfrwt>
<totfact> 0.94327679E-01</totfact>
</mgrwt>
</event>
<event>
 6    1  0.1412458E-005  0.1000376E+04  0.7818608E-02  0.9919810E-01
         21   -1    0    0  501  502  0.00000000000E+00  0.00000000000E+00  0.39067334614E+03  0.39067334614E+03  0.00000000000E+00 0.  1.
          4   -1    0    0  502    0 -0.00000000000E+00 -0.00000000000E+00 -0.91743492101E+03  0.91743492101E+03  0.00000000000E+00 0.  1.
    9000010    2    1    2  501    0 -0.45649617039E+02 -0.11486899899E+03 -0.29088860383E+03  0.10418098554E+04  0.99270983702E+03 0.  0.
        -13    1    3    3    0    0 -0.41251286769E+03  0.21801311387E+03 -0.28433076455E+03  0.54638866996E+03  0.10566000000E+00 0.  1.
          4    1    3    3  501    0  0.36686325065E+03 -0.33288211286E+03 -0.65578392866E+01  0.49542118545E+03  0.00000000000E+00 0.  1.
         13    1    1    2    0    0  0.45649617039E+02  0.11486899899E+03 -0.23587297104E+03  0.26629841174E+03  0.10566000000E+00 0. -1.
<mgrwt>
<rscale>  1 0.59310757E+03</rscale>
<asrwt>0</asrwt>
<pdfrwt beam="1">  1       21 0.60103592E-01 0.10003757E+04</pdfrwt>
<pdfrwt beam="2">  1        4 0.14114383E+00 0.10003757E+04</pdfrwt>
<totfact> 0.35245066E+01</totfact>
</mgrwt>
</event>
<event>
 6    1  0.1412458E-005  0.1012647E+04  0.7818608E-02  0.1019794E+00
          4   -1    0    0  502    0 -0.00000000000E+00  0.00000000000E+00  0.45931636279E+03  0.45931636279E+03  0.00000000000E+00 0.  1.
         21   -1    0    0  501  502  0.00000000000E+00 -0.00000000000E+00 -0.67428860943E+03  0.67428860943E+03  0.00000000000E+00 0.  1.
    9000010    2    1    2  501    0 -0.22274752322E+02  0.44886276030E+02 -0.28081632925E+03  0.10508620163E+04  0.10114060630E+04 0.  0.
        -13    1    3    3    0    0  0.30792542687E+03  0.37491702767E+03  0.36258737606E+02  0.48651367234E+03  0.10566000000E+00 0.  1.
          4    1    3    3  501    0 -0.33020017919E+03 -0.33003075164E+03 -0.31707506685E+03  0.56434834401E+03  0.00000000000E+00 0.  1.
         13    1    1    2    0    0  0.22274752322E+02 -0.44886276030E+02  0.65844082606E+02  0.82742955864E+02  0.10566000000E+00 0. -1.
<mgrwt>
<rscale>  1 0.47760985E+03</rscale>
<asrwt>0</asrwt>
<pdfrwt beam="2">  1       21 0.10373671E+00 0.10126466E+04</pdfrwt>
<pdfrwt beam="1">  1        4 0.70664056E-01 0.10126466E+04</pdfrwt>
<totfact> 0.51910256E+01</totfact>
</mgrwt>
</event>
<event>
 6    1  0.1412458E-005  0.9975712E+03  0.7818608E-02  0.9998736E-01
         21   -1    0    0  501  502  0.00000000000E+00  0.00000000000E+00  0.17689668495E+04  0.17689668495E+04  0.00000000000E+00 0.  1.
          4   -1    0    0  502    0 -0.00000000000E+00 -0.00000000000E+00 -0.16948541564E+03  0.16948541564E+03  0.00000000000E+00 0.  1.
    9000010    2    1    2  501    0 -0.89187902536E+02  0.38135374982E+02  0.14743378860E+04  0.17801181011E+04  0.99284412816E+03 0.  0.
        -13    1    3    3    0    0 -0.31159972130E+03 -0.33540162858E+03  0.11498421435E+04  0.12376290255E+04  0.10566000000E+00 0.  1.
          4    1    3    3  501    0  0.22241181876E+03  0.37353700356E+03  0.32449574257E+03  0.54248907556E+03  0.00000000000E+00 0.  1.
         13    1    1    2    0    0  0.89187902536E+02 -0.38135374982E+02  0.12514354789E+03  0.15833416411E+03  0.10566000000E+00 0. -1.
<mgrwt>
<rscale>  1 0.55705708E+03</rscale>
<asrwt>0</asrwt>
<pdfrwt beam="1">  1       21 0.27214873E+00 0.99757118E+03</pdfrwt>
<pdfrwt beam="2">  1        4 0.26074681E-01 0.99757118E+03</pdfrwt>
<totfact> 0.22472544E+01</totfact>
</mgrwt>
</event>
<event>
 6    1  0.1412458E-005  0.1167976E+04  0.7818608E-02  0.9284166E-01
         21   -1    0    0  501  502  0.00000000000E+00  0.00000000000E+00  0.43131306082E+03  0.43131306082E+03  0.00000000000E+00 0.  1.
          4   -1    0    0  502    0 -0.00000000000E+00 -0.00000000000E+00 -0.20419920432E+04  0.20419920432E+04  0.00000000000E+00 0.  1.
    9000010    2    1    2  501    0  0.67855118958E+03  0.10178799796E+03 -0.82369954972E+03  0.14292126024E+04  0.94518527346E+03 0.  0.
        -13    1    3    3    0    0 -0.33546740119E+02 -0.25830204389E+03  0.28158743233E+02  0.26198903724E+03  0.10566000000E+00 0.  1.
          4    1    3    3  501    0  0.71209792969E+03  0.36009004185E+03 -0.85185829296E+03  0.11672235651E+04  0.00000000000E+00 0.  1.
         13    1    1    2    0    0 -0.67855118958E+03 -0.10178799796E+03 -0.78697943267E+03  0.10440925017E+04  0.10566000000E+00 0. -1.
<mgrwt>
<rscale>  1 0.10225372E+04</rscale>
<asrwt>0</asrwt>
<pdfrwt beam="1">  1       21 0.66355857E-01 0.11679759E+04</pdfrwt>
<pdfrwt beam="2">  1        4 0.31415262E+00 0.11679759E+04</pdfrwt>
<totfact> 0.19910310E+00</totfact>
</mgrwt>
</event>
<event>
 6    1  0.1412458E-005  0.1054011E+04  0.7818608E-02  0.9605437E-01
         21   -1    0    0  501  502  0.00000000000E+00  0.00000000000E+00  0.33072881484E+03  0.33072881484E+03  0.00000000000E+00 0.  1.
          4   -1    0    0  502    0 -0.00000000000E+00 -0.00000000000E+00 -0.14037407972E+04  0.14037407972E+04  0.00000000000E+00 0.  1.
    9000010    2    1    2  501    0  0.29880464123E+03 -0.16073732446E+02 -0.74656333863E+03  0.12916250494E+04  0.10106413168E+04 0.  0.
        -13    1    3    3    0    0  0.44855461229E+03  0.72350739302E+02 -0.93233673924E+03  0.10371536416E+04  0.10566000000E+00 0.  1.
          4    1    3    3  501    0 -0.14974997105E+03 -0.88424471748E+02  0.18577340062E+03  0.25447140784E+03  0.00000000000E+00 0.  1.
         13    1    1    2    0    0 -0.29880464123E+03  0.16073732446E+02 -0.32644864372E+03  0.44284456263E+03  0.10566000000E+00 0. -1.
<mgrwt>
<rscale>  1 0.76937391E+03</rscale>
<asrwt>0</asrwt>
<pdfrwt beam="1">  1       21 0.50881356E-01 0.10540106E+04</pdfrwt>
<pdfrwt beam="2">  1        4 0.21596012E+00 0.10540106E+04</pdfrwt>
<totfact> 0.14901259E+01</totfact>
</mgrwt>
</event>
<event>
 6    1  0.1412458E-005  0.1021931E+04  0.7818608E-02  0.1008676E+00
         21   -1    0    0  501  502  0.00000000000E+00  0.00000000000E+00  0.81043213300E+03  0.81043213300E+03  0.00000000000E+00 0.  1.
          4   -1    0    0  502    0 -0.00000000000E+00 -0.00000000000E+00 -0.42245505934E+03  0.42245505934E+03  0.00000000000E+00 0.  1.
    9000010    2    1    2  501    0  0.30205231671E+02  0.61515138892E+02  0.47098752066E+03  0.11252432710E+04  0.10196306713E+04 0.  0.
        -13    1    3    3    0    0  0.39907671210E+03  0.36279373632E+03  0.31231560967E+03  0.62323556418E+03  0.10566000000E+00 0.  1.
          4    1    3    3  501    0 -0.36887148042E+03 -0.30127859743E+03  0.15867191099E+03  0.50200770679E+03  0.00000000000E+00 0.  1.
         13    1    1    2    0    0 -0.30205231671E+02 -0.61515138892E+02 -0.83010446997E+02  0.10764392137E+03  0.10566000000E+00 0. -1.
<mgrwt>
<rscale>  1 0.52004122E+03</rscale>
<asrwt>0</asrwt>
<pdfrwt beam="1">  1       21 0.12468187E+00 0.10219311E+04</pdfrwt>
<pdfrwt beam="2">  1        4 0.64993086E-01 0.10219311E+04</pdfrwt>
<totfact> 0.39028124E+01</totfact>
</mgrwt>
</event>
<event>
 6    1  0.1412458E-005  0.1006320E+04  0.7818608E-02  0.9959209E-01
          4   -1    0    0  502    0 -0.00000000000E+00  0.00000000000E+00  0.21402037949E+04  0.21402037949E+04  0.00000000000E+00 0.  1.
         21   -1    0    0  501  502  0.00000000000E+00 -0.00000000000E+00 -0.14500210372E+03  0.14500210372E+03  0.00000000000E+00 0.  1.
    9000010    2    1    2  501    0  0.72170952559E+02 -0.79110258208E+02  0.17775004197E+04  0.20425931740E+04  0.10006058432E+04 0.  0.
        -13    1    3    3    0    0  0.34997258984E+03  0.33978549515E+03  0.69506355799E+03  0.84914566310E+03  0.10566000000E+00 0.  1.
          4    1    3    3  501    0 -0.27780163728E+03 -0.41889575336E+03  0.10824368617E+04  0.11934475109E+04  0.00000000000E+00 0.  1.
         13    1    1    2    0    0 -0.72170952559E+02  0.79110258208E+02  0.21770127154E+03  0.24261272461E+03  0.10566000000E+00 0. -1.
<mgrwt>
<rscale>  1 0.57475612E+03</rscale>
<asrwt>0</asrwt>
<pdfrwt beam="2">  1       21 0.22308018E-01 0.10063196E+04</pdfrwt>
<pdfrwt beam="1">  1        4 0.32926210E+00 0.10063196E+04</pdfrwt>
<totfact> 0.16025682E+01</totfact>
</mgrwt>
</event>
<event>
 6    1  0.1412458E-005  0.9698720E+03  0.7818608E-02  0.9764966E-01
          4   -1    0    0  502    0 -0.00000000000E+00  0.00000000000E+00  0.89818360714E+03  0.89818360714E+03  0.00000000000E+00 0.  1.
         21   -1    0    0  501  502  0.00000000000E+00 -0.00000000000E+00 -0.52240037127E+03  0.52240037127E+03  0.00000000000E+00 0.  1.
    9000010    2    1    2  501    0  0.20834881887E+03  0.83762300510E+02  0.56889898390E+03  0.11244099474E+04  0.94351805639E+03 0.  0.
        -13    1    3    3    0    0  0.29203804020E+03  0.25973143518E+03  0.75803497666E+03  0.85285618504E+03  0.10566000000E+00 0.  1.
          4    1    3    3  501    0 -0.83689221336E+02 -0.17596913467E+03 -0.18913599276E+03  0.27155376241E+03  0.00000000000E+00 0.  1.
         13    1    1    2    0    0 -0.20834881887E+03 -0.83762300510E+02 -0.19311574804E+03  0.29617403096E+03  0.10566000000E+00 0. -1.
<mgrwt>
<rscale>  1 0.67277059E+03</rscale>
<asrwt>0</asrwt>
<pdfrwt beam="2">  1       21 0.80369288E-01 0.96987199E+03</pdfrwt>
<pdfrwt beam="1">  1        4 0.13818209E+00 0.96987199E+03</pdfrwt>
<totfact> 0.19218694E+01</totfact>
</mgrwt>
</event>
<event>
 6    1  0.1412458E-005  0.1045733E+04  0.7818608E-02  0.9780994E-01
          4   -1    0    0  502    0 -0.00000000000E+00  0.00000000000E+00  0.18779517007E+04  0.18779517007E+04  0.00000000000E+00 0.  1.
         21   -1    0    0  501  502  0.00000000000E+00 -0.00000000000E+00 -0.19868639966E+03  0.19868639966E+03  0.00000000000E+00 0.  1.
    9000010    2    1    2  501    0  0.16175874391E+03  0.51991662815E+02  0.13667314311E+04  0.17209044145E+04  0.10318372812E+04 0.  0.
        -13    1    3    3    0    0 -0.27754643541E+02  0.51781159109E+03  0.87769151972E+03  0.10194319884E+04  0.10566000000E+00 0.  1.
          4    1    3    3  501    0  0.18951338745E+03 -0.46581992828E+03  0.48903991138E+03  0.70147242606E+03  0.00000000000E+00 0.  1.
         13    1    1    2    0    0 -0.16175874391E+03 -0.51991662815E+02  0.31253386994E+03  0.35573368587E+03  0.10566000000E+00 0. -1.
<mgrwt>
<rscale>  1 0.66392588E+03</rscale>
<asrwt>0</asrwt>
<pdfrwt beam="2">  1       21 0.30567140E-01 0.10457329E+04</pdfrwt>
<pdfrwt beam="1">  1        4 0.28891563E+00 0.10457329E+04</pdfrwt>
<totfact> 0.15224557E+01</totfact>
</mgrwt>
</event>
<event>
 6    1  0.1412458E-005  0.1350914E+04  0.7818608E-02  0.9104173E-01
         21   -1    0    0  501  502  0.00000000000E+00  0.00000000000E+00  0.75434093293E+03  0.75434093293E+03  0.00000000000E+00 0.  1.
          4   -1    0    0  502    0 -0.00000000000E+00 -0.00000000000E+00 -0.16565212712E+04  0.16565212712E+04  0.00000000000E+00 0.  1.
    9000010    2    1    2  501    0 -0.61614578527E+03 -0.61336384001E+03 -0.40972345194E+03  0.14116802262E+04  0.10339811048E+04 0.  0.
        -13    1    3    3    0    0 -0.23881593335E+02 -0.24187374410E+03 -0.63276204833E+03  0.67783556971E+03  0.10566000000E+00 0.  1.
          4    1    3    3  501    0 -0.59226419194E+03 -0.37149009591E+03  0.22303859640E+03  0.73384465651E+03  0.00000000000E+00 0.  1.
         13    1    1    2    0    0  0.61614578527E+03  0.61336384001E+03 -0.49245688634E+03  0.99918197792E+03  0.10566000000E+00 0. -1.
<mgrwt>
<rscale>  1 0.12099717E+04</rscale>
<asrwt>0</asrwt>
<pdfrwt beam="1">  1       21 0.11605245E+00 0.13509137E+04</pdfrwt>
<pdfrwt beam="2">  1        4 0.25484942E+00 0.13509137E+04</pdfrwt>
<totfact> 0.11748035E+00</totfact>
</mgrwt>
</event>
<event>
 6    1  0.1412458E-005  0.1001572E+04  0.7818608E-02  0.9727653E-01
         21   -1    0    0  501  502  0.00000000000E+00  0.00000000000E+00  0.10639022146E+04  0.10639022146E+04  0.00000000000E+00 0.  1.
          4   -1    0    0  502    0 -0.00000000000E+00 -0.00000000000E+00 -0.37227743389E+03  0.37227743389E+03  0.00000000000E+00 0.  1.
    9000010    2    1    2  501    0  0.22999624749E+03 -0.19267213545E+02  0.66860247584E+03  0.12042323763E+04  0.97461625584E+03 0.  0.
        -13    1    3    3    0    0  0.13209961033E+03 -0.29475108262E+03  0.81543081315E+03  0.87707236301E+03  0.10566000000E+00 0.  1.
          4    1    3    3  501    0  0.97896637168E+02  0.27548386907E+03 -0.14682833731E+03  0.32716001334E+03  0.00000000000E+00 0.  1.
         13    1    1    2    0    0 -0.22999624749E+03  0.19267213545E+02  0.23022304901E+02  0.23194727217E+03  0.10566000000E+00 0. -1.
<mgrwt>
<rscale>  1 0.69393924E+03</rscale>
<asrwt>0</asrwt>
<pdfrwt beam="1">  1       21 0.16367726E+00 0.10015719E+04</pdfrwt>
<pdfrwt beam="2">  1        4 0.57273452E-01 0.10015719E+04</pdfrwt>
<totfact> 0.24418345E+01</totfact>
</mgrwt>
</event>
<event>
 6    1  0.1412458E-005  0.1040416E+04  0.7818608E-02  0.9638512E-01
         21   -1    0    0  501  502  0.00000000000E+00  0.00000000000E+00  0.88445510213E+03  0.88445510213E+03  0.00000000000E+00 0.  1.
          4   -1    0    0  502    0 -0.00000000000E+00 -0.00000000000E+00 -0.49317020431E+03  0.49317020431E+03  0.00000000000E+00 0.  1.
    9000010    2    1    2  501    0  0.19559478648E+03 -0.19747231865E+03  0.27356959517E+03  0.10757817364E+04  0.10026033033E+04 0.  0.
        -13    1    3    3    0    0  0.10825188228E+03 -0.10621315828E+03 -0.38050838928E+03  0.40961732200E+03  0.10566000000E+00 0.  1.
          4    1    3    3  501    0  0.87342904200E+02 -0.91259160363E+02  0.65407798445E+03  0.66616441439E+03  0.00000000000E+00 0.  1.
         13    1    1    2    0    0 -0.19559478648E+03  0.19747231865E+03  0.11771530265E+03  0.30184357004E+03  0.10566000000E+00 0. -1.
<mgrwt>
<rscale>  1 0.74798791E+03</rscale>
<asrwt>0</asrwt>
<pdfrwt beam="1">  1       21 0.13607002E+00 0.10404163E+04</pdfrwt>
<pdfrwt beam="2">  1        4 0.75872339E-01 0.10404163E+04</pdfrwt>
<totfact> 0.21826155E+01</totfact>
</mgrwt>
</event>
<event>
 6    1  0.1412458E-005  0.9002544E+03  0.7818608E-02  0.1018110E+00
          4   -1    0    0  502    0 -0.00000000000E+00  0.00000000000E+00  0.26834747429E+03  0.26834747429E+03  0.00000000000E+00 0.  1.
         21   -1    0    0  501  502  0.00000000000E+00 -0.00000000000E+00 -0.88620165972E+03  0.88620165972E+03  0.00000000000E+00 0.  1.
    9000010    2    1    2  501    0 -0.36466484420E+01  0.74965965123E+02 -0.56920401508E+03  0.10651061678E+04  0.89712025050E+03 0.  0.
        -13    1    3    3    0    0 -0.96886570759E+02 -0.39938255582E+03 -0.32232463141E+03  0.52228977844E+03  0.10566000000E+00 0.  1.
          4    1    3    3  501    0  0.93239922317E+02  0.47434852094E+03 -0.24687938367E+03  0.54281638932E+03  0.00000000000E+00 0.  1.
         13    1    1    2    0    0  0.36466484420E+01 -0.74965965123E+02 -0.48650170352E+02  0.89442966247E+02  0.10566000000E+00 0. -1.
<mgrwt>
<rscale>  1 0.48374716E+03</rscale>
<asrwt>0</asrwt>
<pdfrwt beam="2">  1       21 0.13633872E+00 0.90025437E+03</pdfrwt>
<pdfrwt beam="1">  1        4 0.41284226E-01 0.90025437E+03</pdfrwt>
<totfact> 0.81620968E+01</totfact>
</mgrwt>
</event>
<event>
 6    1  0.1412458E-005  0.1053944E+04  0.7818608E-02  0.9588306E-01
          4   -1    0    0  502    0 -0.00000000000E+00  0.00000000000E+00  0.13669446548E+04  0.13669446548E+04  0.00000000000E+00 0.  1.
         21   -1    0    0  501  502  0.00000000000E+00 -0.00000000000E+00 -0.35191506919E+03  0.35191506919E+03  0.00000000000E+00 0.  1.
    9000010    2    1    2  501    0  0.19888642139E+03  0.24735016818E+03  0.66425817269E+03  0.12458073912E+04  0.10050170255E+04 0.  0.
        -13    1    3    3    0    0 -0.35081332769E+03  0.21947673408E+03  0.54212908159E+03  0.68201464791E+03  0.10566000000E+00 0.  1.
          4    1    3    3  501    0  0.54969974908E+03  0.27873434107E+02  0.12212909111E+03  0.56379274327E+03  0.00000000000E+00 0.  1.
         13    1    1    2    0    0 -0.19888642139E+03 -0.24735016818E+03  0.35077141296E+03  0.47305233286E+03  0.10566000000E+00 0. -1.
<mgrwt>
<rscale>  1 0.78075030E+03</rscale>
<asrwt>0</asrwt>
<pdfrwt beam="2">  1       21 0.54140781E-01 0.10539436E+04</pdfrwt>
<pdfrwt beam="1">  1        4 0.21029917E+00 0.10539436E+04</pdfrwt>
<totfact> 0.14158459E+01</totfact>
</mgrwt>
</event>
<event>
 6    1  0.1412458E-005  0.1073662E+04  0.7818608E-02  0.9507036E-01
          4   -1    0    0  502    0 -0.00000000000E+00  0.00000000000E+00  0.30625639146E+03  0.30625639146E+03  0.00000000000E+00 0.  1.
         21   -1    0    0  501  502  0.00000000000E+00 -0.00000000000E+00 -0.19979118760E+04  0.19979118760E+04  0.00000000000E+00 0.  1.
    9000010    2    1    2  501    0  0.25873686017E+03 -0.30218973452E+03 -0.15423426564E+04  0.18792474157E+04  0.99723948036E+03 0.  0.
        -13    1    3    3    0    0 -0.65946196760E+02  0.12207482391E+02  0.13033929916E+03  0.14658194829E+03  0.10566000000E+00 0.  1.
          4    1    3    3  501    0  0.32468305693E+03 -0.31439721691E+03 -0.16726819556E+04  0.17326654674E+04  0.00000000000E+00 0.  1.
         13    1    1    2    0    0 -0.25873686017E+03  0.30218973452E+03 -0.14931282813E+03  0.42492085177E+03  0.10566000000E+00 0. -1.
<mgrwt>
<rscale>  1 0.83767053E+03</rscale>
<asrwt>0</asrwt>
<pdfrwt beam="2">  1       21 0.30737106E+00 0.10736619E+04</pdfrwt>
<pdfrwt beam="1">  1        4 0.47116368E-01 0.10736619E+04</pdfrwt>
<totfact> 0.40932504E+00</totfact>
</mgrwt>
</event>
<event>
 6    1  0.1412458E-005  0.1300251E+04  0.7818608E-02  0.9144988E-01
          4   -1    0    0  502    0 -0.00000000000E+00  0.00000000000E+00  0.69631596571E+03  0.69631596571E+03  0.00000000000E+00 0.  1.
         21   -1    0    0  501  502  0.00000000000E+00 -0.00000000000E+00 -0.19377822340E+04  0.19377822340E+04  0.00000000000E+00 0. -1.
    9000010    2    1    2  501    0  0.21789572828E+03  0.80607770382E+03 -0.12434077411E+04  0.17990870659E+04  0.99670037985E+03 0.  0.
        -13    1    3    3    0    0 -0.11298558040E+03  0.74254894494E+03 -0.32052936310E+03  0.81662951256E+03  0.10566000000E+00 0.  1.
          4    1    3    3  501    0  0.33088130868E+03  0.63528758888E+02 -0.92287837795E+03  0.98245755335E+03  0.00000000000E+00 0.  1.
         13    1    1    2    0    0 -0.21789572828E+03 -0.80607770382E+03  0.19414728094E+01  0.83501113375E+03  0.10566000000E+00 0. -1.
<mgrwt>
<rscale>  1 0.11639734E+04</rscale>
<asrwt>0</asrwt>
<pdfrwt beam="2">  1       21 0.29812034E+00 0.13002505E+04</pdfrwt>
<pdfrwt beam="1">  1        4 0.10712553E+00 0.13002505E+04</pdfrwt>
<totfact> 0.70422652E-01</totfact>
</mgrwt>
</event>
<event>
 6    1  0.1412458E-005  0.1008411E+04  0.7818608E-02  0.9960400E-01
          4   -1    0    0  502    0 -0.00000000000E+00  0.00000000000E+00  0.50549239709E+03  0.50549239709E+03  0.00000000000E+00 0.  1.
         21   -1    0    0  501  502  0.00000000000E+00 -0.00000000000E+00 -0.63199686932E+03  0.63199686932E+03  0.00000000000E+00 0.  1.
    9000010    2    1    2  501    0 -0.69394432875E+02 -0.80150677427E+02 -0.55592179676E+02  0.10099420877E+04  0.10028224228E+04 0.  0.
        -13    1    3    3    0    0 -0.35363144468E+03 -0.41268977386E+03 -0.14705407902E+03  0.56302127974E+03  0.10566000000E+00 0.  1.
          4    1    3    3  501    0  0.28423701181E+03  0.33253909643E+03  0.91461899343E+02  0.44692080794E+03  0.00000000000E+00 0.  1.
         13    1    1    2    0    0  0.69394432875E+02  0.80150677427E+02 -0.70912292553E+02  0.12754717874E+03  0.10566000000E+00 0. -1.
<mgrwt>
<rscale>  1 0.57421255E+03</rscale>
<asrwt>0</asrwt>
<pdfrwt beam="2">  1       21 0.97230286E-01 0.10084109E+04</pdfrwt>
<pdfrwt beam="1">  1        4 0.77768062E-01 0.10084109E+04</pdfrwt>
<totfact> 0.49099228E+01</totfact>
</mgrwt>
</event>
<event>
 6    1  0.1412458E-005  0.1043579E+04  0.7818608E-02  0.9580378E-01
          4   -1    0    0  502    0 -0.00000000000E+00  0.00000000000E+00  0.43542058137E+03  0.43542058137E+03  0.00000000000E+00 0.  1.
         21   -1    0    0  501  502  0.00000000000E+00 -0.00000000000E+00 -0.11367493227E+04  0.11367493227E+04  0.00000000000E+00 0.  1.
    9000010    2    1    2  501    0 -0.19520236236E+02 -0.33540466313E+03 -0.38983378274E+03  0.11140144195E+04  0.98801843149E+03 0.  0.
        -13    1    3    3    0    0 -0.13932695325E+03 -0.24544046268E+03  0.29777523938E+03  0.41027201339E+03  0.10566000000E+00 0.  1.
          4    1    3    3  501    0  0.11980671701E+03 -0.89964200456E+02 -0.68760902213E+03  0.70374240608E+03  0.00000000000E+00 0.  1.
         13    1    1    2    0    0  0.19520236236E+02  0.33540466313E+03 -0.31149495861E+03  0.45815548461E+03  0.10566000000E+00 0. -1.
<mgrwt>
<rscale>  1 0.78608587E+03</rscale>
<asrwt>0</asrwt>
<pdfrwt beam="2">  1       21 0.17488451E+00 0.10435793E+04</pdfrwt>
<pdfrwt beam="1">  1        4 0.66987782E-01 0.10435793E+04</pdfrwt>
<totfact> 0.14204139E+01</totfact>
</mgrwt>
</event>
<event>
 6    1  0.1412458E-005  0.1032762E+04  0.7818608E-02  0.9593364E-01
         21   -1    0    0  501  502  0.00000000000E+00  0.00000000000E+00  0.19673792837E+04  0.19673792837E+04  0.00000000000E+00 0.  1.
          4   -1    0    0  502    0 -0.00000000000E+00 -0.00000000000E+00 -0.29241079197E+03  0.29241079197E+03  0.00000000000E+00 0.  1.
    9000010    2    1    2  501    0  0.20088747982E+03 -0.26372241110E+03  0.16237167560E+04  0.19243321181E+04  0.97810669543E+03 0.  0.
        -13    1    3    3    0    0 -0.22480257155E+03  0.21080526204E+03  0.94136529544E+03  0.99052697353E+03  0.10566000000E+00 0.  1.
          4    1    3    3  501    0  0.42569005136E+03 -0.47452767314E+03  0.68235146052E+03  0.93380514460E+03  0.00000000000E+00 0.  1.
         13    1    1    2    0    0 -0.20088747982E+03  0.26372241110E+03  0.51251735731E+02  0.33545795749E+03  0.10566000000E+00 0. -1.
<mgrwt>
<rscale>  1 0.77736971E+03</rscale>
<asrwt>0</asrwt>
<pdfrwt beam="1">  1       21 0.30267373E+00 0.10327623E+04</pdfrwt>
<pdfrwt beam="2">  1        4 0.44986277E-01 0.10327623E+04</pdfrwt>
<totfact> 0.48559476E+00</totfact>
</mgrwt>
</event>
<event>
 6    1  0.1412458E-005  0.9730489E+03  0.7818608E-02  0.9626069E-01
          4   -1    0    0  502    0 -0.00000000000E+00  0.00000000000E+00  0.31978617510E+03  0.31978617510E+03  0.00000000000E+00 0.  1.
         21   -1    0    0  501  502  0.00000000000E+00 -0.00000000000E+00 -0.13802602507E+04  0.13802602507E+04  0.00000000000E+00 0.  1.
    9000010    2    1    2  501    0 -0.22580796206E+03  0.27321636256E+03 -0.80934973447E+03  0.12656504516E+04  0.90619405014E+03 0.  0.
        -13    1    3    3    0    0 -0.57374685410E+03  0.24508065583E+03 -0.51141331677E+03  0.80671777729E+03  0.10566000000E+00 0.  1.
          4    1    3    3  501    0  0.34793889204E+03  0.28135706729E+02 -0.29793641769E+03  0.45893267434E+03  0.00000000000E+00 0.  1.
         13    1    1    2    0    0  0.22580796206E+03 -0.27321636256E+03 -0.25112434112E+03  0.43439597416E+03  0.10566000000E+00 0. -1.
<mgrwt>
<rscale>  1 0.75594541E+03</rscale>
<asrwt>0</asrwt>
<pdfrwt beam="2">  1       21 0.21234773E+00 0.97304885E+03</pdfrwt>
<pdfrwt beam="1">  1        4 0.49197873E-01 0.97304885E+03</pdfrwt>
<totfact> 0.15266451E+01</totfact>
</mgrwt>
</event>
<event>
 6    1  0.1412458E-005  0.1005414E+04  0.7818608E-02  0.9844716E-01
         21   -1    0    0  501  502  0.00000000000E+00  0.00000000000E+00  0.32882712422E+03  0.32882712422E+03  0.00000000000E+00 0.  1.
          4   -1    0    0  502    0 -0.00000000000E+00 -0.00000000000E+00 -0.11831088023E+04  0.11831088023E+04  0.00000000000E+00 0.  1.
    9000010    2    1    2  501    0  0.99414544308E+02 -0.11913565264E+03 -0.90082265798E+03  0.13499401570E+04  0.99336821524E+03 0.  0.
        -13    1    3    3    0    0 -0.27854696680E+02  0.42999084014E+03 -0.29358378570E+03  0.52140143567E+03  0.10566000000E+00 0.  1.
          4    1    3    3  501    0  0.12726924099E+03 -0.54912649277E+03 -0.60723887228E+03  0.82853872135E+03  0.00000000000E+00 0.  1.
         13    1    1    2    0    0 -0.99414544308E+02  0.11913565264E+03  0.46540979938E+02  0.16199576947E+03  0.10566000000E+00 0. -1.
<mgrwt>
<rscale>  1 0.63017042E+03</rscale>
<asrwt>0</asrwt>
<pdfrwt beam="1">  1       21 0.50588789E-01 0.10054138E+04</pdfrwt>
<pdfrwt beam="2">  1        4 0.18201674E+00 0.10054138E+04</pdfrwt>
<totfact> 0.25503133E+01</totfact>
</mgrwt>
</event>
<event>
 6    1  0.1412458E-005  0.1086607E+04  0.7818608E-02  0.9519934E-01
          4   -1    0    0  502    0 -0.00000000000E+00  0.00000000000E+00  0.31465624903E+03  0.31465624903E+03  0.00000000000E+00 0.  1.
         21   -1    0    0  501  502  0.00000000000E+00 -0.00000000000E+00 -0.17414497435E+04  0.17414497435E+04  0.00000000000E+00 0.  1.
    9000010    2    1    2  501    0 -0.28557372042E+02  0.36577416605E+03 -0.12246446931E+04  0.16372141054E+04  0.10227947685E+04 0.  0.
        -13    1    3    3    0    0 -0.41465837210E+03 -0.23401583758E+02 -0.17032598396E+03  0.44888768267E+03  0.10566000000E+00 0.  1.
          4    1    3    3  501    0  0.38610100006E+03  0.38917574981E+03 -0.10543187092E+04  0.11883264227E+04  0.00000000000E+00 0.  1.
         13    1    1    2    0    0  0.28557372042E+02 -0.36577416605E+03 -0.20214880136E+03  0.41889188713E+03  0.10566000000E+00 0. -1.
<mgrwt>
<rscale>  1 0.82829993E+03</rscale>
<asrwt>0</asrwt>
<pdfrwt beam="2">  1       21 0.26791534E+00 0.10866073E+04</pdfrwt>
<pdfrwt beam="1">  1        4 0.48408655E-01 0.10866073E+04</pdfrwt>
<totfact> 0.68090044E+00</totfact>
</mgrwt>
</event>
<event>
 6    1  0.1412458E-005  0.1071360E+04  0.7818608E-02  0.9514722E-01
          4   -1    0    0  502    0 -0.00000000000E+00  0.00000000000E+00  0.16313120050E+04  0.16313120050E+04  0.00000000000E+00 0.  1.
         21   -1    0    0  501  502  0.00000000000E+00 -0.00000000000E+00 -0.37221497003E+03  0.37221497003E+03  0.00000000000E+00 0.  1.
    9000010    2    1    2  501    0  0.31143546376E+03 -0.23440785605E+03  0.57433994998E+03  0.12155984455E+04  0.99793492345E+03 0.  0.
        -13    1    3    3    0    0  0.15552604702E+03  0.28998766513E+03  0.58186274581E+03  0.66846500534E+03  0.10566000000E+00 0.  1.
          4    1    3    3  501    0  0.15590941674E+03 -0.52439552118E+03 -0.75227958366E+01  0.54713344014E+03  0.00000000000E+00 0.  1.
         13    1    1    2    0    0 -0.31143546376E+03  0.23440785605E+03  0.68475708500E+03  0.78792852956E+03  0.10566000000E+00 0. -1.
<mgrwt>
<rscale>  1 0.83207103E+03</rscale>
<asrwt>0</asrwt>
<pdfrwt beam="2">  1       21 0.57263842E-01 0.10713604E+04</pdfrwt>
<pdfrwt beam="1">  1        4 0.25097107E+00 0.10713604E+04</pdfrwt>
<totfact> 0.69122089E+00</totfact>
</mgrwt>
</event>
<event>
 6    1  0.1412458E-005  0.9849054E+03  0.7818608E-02  0.1027014E+00
          4   -1    0    0  502    0 -0.00000000000E+00  0.00000000000E+00  0.12343608453E+03  0.12343608453E+03  0.00000000000E+00 0.  1.
         21   -1    0    0  501  502  0.00000000000E+00 -0.00000000000E+00 -0.27496979557E+04  0.27496979557E+04  0.00000000000E+00 0.  1.
    9000010    2    1    2  501    0  0.16353080181E+02 -0.40672135555E+02 -0.26472512619E+04  0.28245314525E+04  0.98392938606E+03 0.  0.
        -13    1    3    3    0    0  0.19732817686E+03  0.18051380613E+03 -0.14155750645E+03  0.30259243610E+03  0.10566000000E+00 0.  1.
          4    1    3    3  501    0 -0.18097509668E+03 -0.22118594169E+03 -0.25056937555E+04  0.25219390164E+04  0.00000000000E+00 0.  1.
         13    1    1    2    0    0 -0.16353080181E+02  0.40672135555E+02  0.20989390755E+02  0.48602587692E+02  0.10566000000E+00 0. -1.
<mgrwt>
<rscale>  1 0.45238207E+03</rscale>
<asrwt>0</asrwt>
<pdfrwt beam="2">  1       21 0.42303043E+00 0.98490542E+03</pdfrwt>
<pdfrwt beam="1">  1        4 0.18990168E-01 0.98490542E+03</pdfrwt>
<totfact> 0.44925267E+00</totfact>
</mgrwt>
</event>
<event>
 6    1  0.1412458E-005  0.1003458E+04  0.7818608E-02  0.1005864E+00
          4   -1    0    0  502    0 -0.00000000000E+00  0.00000000000E+00  0.36737543793E+03  0.36737543793E+03  0.00000000000E+00 0.  1.
         21   -1    0    0  501  502  0.00000000000E+00 -0.00000000000E+00 -0.94637752412E+03  0.94637752412E+03  0.00000000000E+00 0.  1.
    9000010    2    1    2  501    0  0.29544103694E+02 -0.73259941028E+02 -0.65965234724E+03  0.12008620909E+04  0.10003442753E+04 0.  0.
        -13    1    3    3    0    0 -0.26829862673E+03 -0.44953780023E+03 -0.33806206950E+03  0.62318084128E+03  0.10566000000E+00 0.  1.
          4    1    3    3  501    0  0.29784273042E+03  0.37627785920E+03 -0.32159027774E+03  0.57768124959E+03  0.00000000000E+00 0.  1.
         13    1    1    2    0    0 -0.29544103694E+02  0.73259941028E+02  0.80650261060E+02  0.11289087118E+03  0.10566000000E+00 0. -1.
<mgrwt>
<rscale>  1 0.53152239E+03</rscale>
<asrwt>0</asrwt>
<pdfrwt beam="2">  1       21 0.14559654E+00 0.10034583E+04</pdfrwt>
<pdfrwt beam="1">  1        4 0.56519299E-01 0.10034583E+04</pdfrwt>
<totfact> 0.34945019E+01</totfact>
</mgrwt>
</event>
<event>
 6    1  0.1412458E-005  0.1020276E+04  0.7818608E-02  0.9783400E-01
          4   -1    0    0  502    0 -0.00000000000E+00  0.00000000000E+00  0.35121296311E+03  0.35121296311E+03  0.00000000000E+00 0.  1.
         21   -1    0    0  501  502  0.00000000000E+00 -0.00000000000E+00 -0.10811837464E+04  0.10811837464E+04  0.00000000000E+00 0.  1.
    9000010    2    1    2  501    0 -0.90981000318E+02  0.15705143277E+03 -0.72352581714E+03  0.12507810612E+04  0.10040024701E+04 0.  0.
        -13    1    3    3    0    0  0.28152851846E+03  0.38902915751E+03 -0.64634373122E+03  0.80520942751E+03  0.10566000000E+00 0.  1.
          4    1    3    3  501    0 -0.37250951878E+03 -0.23197772474E+03 -0.77182085918E+02  0.44557163369E+03  0.00000000000E+00 0.  1.
         13    1    1    2    0    0  0.90981000318E+02 -0.15705143277E+03 -0.64449661469E+01  0.18161564830E+03  0.10566000000E+00 0. -1.
<mgrwt>
<rscale>  1 0.66261040E+03</rscale>
<asrwt>0</asrwt>
<pdfrwt beam="2">  1       21 0.16633596E+00 0.10202763E+04</pdfrwt>
<pdfrwt beam="1">  1        4 0.54032765E-01 0.10202763E+04</pdfrwt>
<totfact> 0.26359698E+01</totfact>
</mgrwt>
</event>
<event>
 6    1  0.1412458E-005  0.1048787E+04  0.7818608E-02  0.9545784E-01
         21   -1    0    0  501  502  0.00000000000E+00  0.00000000000E+00  0.82623685056E+03  0.82623685056E+03  0.00000000000E+00 0.  1.
          4   -1    0    0  502    0 -0.00000000000E+00 -0.00000000000E+00 -0.71284073180E+03  0.71284073180E+03  0.00000000000E+00 0.  1.
    9000010    2    1    2  501    0 -0.37015162419E+03 -0.45835763283E+02  0.34016448053E+03  0.11025720919E+04  0.98022456715E+03 0.  0.
        -13    1    3    3    0    0 -0.23700562802E+03  0.40093181314E+03 -0.82868702819E+02  0.47305942499E+03  0.10566000000E+00 0.  1.
          4    1    3    3  501    0 -0.13314599617E+03 -0.44676757643E+03  0.42303318335E+03  0.62951266696E+03  0.00000000000E+00 0.  1.
         13    1    1    2    0    0  0.37015162419E+03  0.45835763283E+02 -0.22676836177E+03  0.43650549040E+03  0.10566000000E+00 0. -1.
<mgrwt>
<rscale>  1 0.80990928E+03</rscale>
<asrwt>0</asrwt>
<pdfrwt beam="1">  1       21 0.12711336E+00 0.10487866E+04</pdfrwt>
<pdfrwt beam="2">  1        4 0.10966781E+00 0.10487866E+04</pdfrwt>
<totfact> 0.10938744E+01</totfact>
</mgrwt>
</event>
<event>
 6    1  0.1412458E-005  0.8294659E+03  0.7818608E-02  0.9969722E-01
          4   -1    0    0  502    0 -0.00000000000E+00  0.00000000000E+00  0.66820467787E+03  0.66820467787E+03  0.00000000000E+00 0.  1.
         21   -1    0    0  501  502  0.00000000000E+00 -0.00000000000E+00 -0.45812902324E+03  0.45812902324E+03  0.00000000000E+00 0.  1.
    9000010    2    1    2  501    0  0.13808187050E+03 -0.12303759217E+03 -0.21777713782E+02  0.82975176023E+03  0.80858448089E+03 0.  0.
        -13    1    3    3    0    0  0.23592657395E+03 -0.43900166128E+03 -0.18451475913E+01  0.49838461316E+03  0.10566000000E+00 0.  1.
          4    1    3    3  501    0 -0.97844703455E+02  0.31596406911E+03 -0.19932566191E+02  0.33136714707E+03  0.00000000000E+00 0.  1.
         13    1    1    2    0    0 -0.13808187050E+03  0.12303759217E+03  0.23185336842E+03  0.29658194088E+03  0.10566000000E+00 0. -1.
<mgrwt>
<rscale>  1 0.56998036E+03</rscale>
<asrwt>0</asrwt>
<pdfrwt beam="2">  1       21 0.70481388E-01 0.82946592E+03</pdfrwt>
<pdfrwt beam="1">  1        4 0.10280072E+00 0.82946592E+03</pdfrwt>
<totfact> 0.55472139E+01</totfact>
</mgrwt>
</event>
<event>
 6    1  0.1412458E-005  0.1038600E+04  0.7818608E-02  0.9572138E-01
          4   -1    0    0  502    0 -0.00000000000E+00  0.00000000000E+00  0.49799836340E+03  0.49799836340E+03  0.00000000000E+00 0.  1.
         21   -1    0    0  501  502  0.00000000000E+00 -0.00000000000E+00 -0.11159789950E+04  0.11159789950E+04  0.00000000000E+00 0.  1.
    9000010    2    1    2  501    0 -0.32964017200E+03 -0.11950789416E+03 -0.18189114833E+03  0.10544071409E+04  0.97762224254E+03 0.  0.
        -13    1    3    3    0    0 -0.67961578556E+03 -0.10804524630E+03 -0.10883453871E+03  0.69670392507E+03  0.10566000000E+00 0.  1.
          4    1    3    3  501    0  0.34997561356E+03 -0.11462647864E+02 -0.73056609621E+02  0.35770321580E+03  0.00000000000E+00 0.  1.
         13    1    1    2    0    0  0.32964017200E+03  0.11950789416E+03 -0.43608948322E+03  0.55957021749E+03  0.10566000000E+00 0. -1.
<mgrwt>
<rscale>  1 0.79168072E+03</rscale>
<asrwt>0</asrwt>
<pdfrwt beam="2">  1       21 0.17168907E+00 0.10386000E+04</pdfrwt>
<pdfrwt beam="1">  1        4 0.76615134E-01 0.10386000E+04</pdfrwt>
<totfact> 0.11094095E+01</totfact>
</mgrwt>
</event>
<event>
 6    1  0.1412458E-005  0.1088890E+04  0.7818608E-02  0.9454718E-01
         21   -1    0    0  501  502  0.00000000000E+00  0.00000000000E+00  0.47906756572E+03  0.47906756572E+03  0.00000000000E+00 0. -1.
          4   -1    0    0  502    0 -0.00000000000E+00 -0.00000000000E+00 -0.12661048966E+04  0.12661048966E+04  0.00000000000E+00 0.  1.
    9000010    2    1    2  501    0 -0.27695174716E+03 -0.36517967193E+03 -0.64387483092E+03  0.12650120978E+04  0.98773597017E+03 0.  0.
        -13    1    3    3    0    0  0.41864902127E+02 -0.65448799577E+03 -0.43071216954E+03  0.78461467663E+03  0.10566000000E+00 0.  1.
          4    1    3    3  501    0 -0.31881664929E+03  0.28930832384E+03 -0.21316266138E+03  0.48039742122E+03  0.00000000000E+00 0.  1.
         13    1    1    2    0    0  0.27695174716E+03  0.36517967193E+03 -0.14316249996E+03  0.48016036447E+03  0.10566000000E+00 0. -1.
<mgrwt>
<rscale>  1 0.87706242E+03</rscale>
<asrwt>0</asrwt>
<pdfrwt beam="1">  1       21 0.73702703E-01 0.10888897E+04</pdfrwt>
<pdfrwt beam="2">  1        4 0.19478537E+00 0.10888897E+04</pdfrwt>
<totfact> 0.89111341E+00</totfact>
</mgrwt>
</event>
<event>
 6    1  0.1412458E-005  0.1085364E+04  0.7818608E-02  0.9472356E-01
         21   -1    0    0  501  502  0.00000000000E+00  0.00000000000E+00  0.20004965988E+04  0.20004965988E+04  0.00000000000E+00 0.  1.
          4   -1    0    0  502    0 -0.00000000000E+00 -0.00000000000E+00 -0.32113981530E+03  0.32113981530E+03  0.00000000000E+00 0.  1.
    9000010    2    1    2  501    0 -0.74366424384E+02  0.42848821226E+03  0.14993454385E+04  0.18509596582E+04  0.99442566285E+03 0.  0.
        -13    1    3    3    0    0  0.34298577820E+03  0.41008219489E+03  0.12618139829E+04  0.13703945378E+04  0.10566000000E+00 0.  1.
          4    1    3    3  501    0 -0.41735220259E+03  0.18406017366E+02  0.23753145561E+03  0.48056512034E+03  0.00000000000E+00 0.  1.
         13    1    1    2    0    0  0.74366424384E+02 -0.42848821226E+03  0.18001134498E+03  0.47067675597E+03  0.10566000000E+00 0. -1.
<mgrwt>
<rscale>  1 0.86352979E+03</rscale>
<asrwt>0</asrwt>
<pdfrwt beam="1">  1       21 0.30776870E+00 0.10853640E+04</pdfrwt>
<pdfrwt beam="2">  1        4 0.49406127E-01 0.10853640E+04</pdfrwt>
<totfact> 0.36764724E+00</totfact>
</mgrwt>
</event>
<event>
 6    1  0.1412458E-005  0.1090932E+04  0.7818608E-02  0.9463576E-01
         21   -1    0    0  501  502  0.00000000000E+00  0.00000000000E+00  0.51755760023E+03  0.51755760023E+03  0.00000000000E+00 0.  1.
          4   -1    0    0  502    0 -0.00000000000E+00 -0.00000000000E+00 -0.15112554455E+04  0.15112554455E+04  0.00000000000E+00 0.  1.
    9000010    2    1    2  501    0  0.44140908943E+03  0.16627000373E+02 -0.18382661772E+03  0.11063110903E+04  0.99750366505E+03 0.  0.
        -13    1    3    3    0    0 -0.10861867496E+03 -0.44613680278E+02  0.33053041750E+03  0.35076881999E+03  0.10566000000E+00 0.  1.
          4    1    3    3  501    0  0.55002776438E+03  0.61240680651E+02 -0.51435703522E+03  0.75554227032E+03  0.00000000000E+00 0.  1.
         13    1    1    2    0    0 -0.44140908943E+03 -0.16627000373E+02 -0.80987122758E+03  0.92250195544E+03  0.10566000000E+00 0. -1.
<mgrwt>
<rscale>  1 0.87023284E+03</rscale>
<asrwt>0</asrwt>
<pdfrwt beam="1">  1       21 0.79624248E-01 0.10909317E+04</pdfrwt>
<pdfrwt beam="2">  1        4 0.23250083E+00 0.10909317E+04</pdfrwt>
<totfact> 0.42387372E+00</totfact>
</mgrwt>
</event>
<event>
 6    1  0.1412458E-005  0.1031819E+04  0.7818608E-02  0.9660109E-01
          4   -1    0    0  502    0 -0.00000000000E+00  0.00000000000E+00  0.48730777105E+03  0.48730777105E+03  0.00000000000E+00 0.  1.
         21   -1    0    0  501  502  0.00000000000E+00 -0.00000000000E+00 -0.92885513160E+03  0.92885513160E+03  0.00000000000E+00 0.  1.
    9000010    2    1    2  501    0  0.20026171455E+03  0.17330090496E+03 -0.49748008384E+03  0.11454851631E+04  0.99725215826E+03 0.  0.
        -13    1    3    3    0    0  0.23201196212E+03  0.12150806890E+03  0.26967797854E+03  0.37592550412E+03  0.10566000000E+00 0.  1.
          4    1    3    3  501    0 -0.31750247564E+02  0.51792836060E+02 -0.76715806238E+03  0.76955965901E+03  0.00000000000E+00 0.  1.
         13    1    1    2    0    0 -0.20026171455E+03 -0.17330090496E+03  0.55932723287E+02  0.27067773952E+03  0.10566000000E+00 0. -1.
<mgrwt>
<rscale>  1 0.73442372E+03</rscale>
<asrwt>0</asrwt>
<pdfrwt beam="2">  1       21 0.14290079E+00 0.10318187E+04</pdfrwt>
<pdfrwt beam="1">  1        4 0.74970427E-01 0.10318187E+04</pdfrwt>
<totfact> 0.19642131E+01</totfact>
</mgrwt>
</event>
<event>
 6    1  0.1412458E-005  0.1004758E+04  0.7818608E-02  0.9709908E-01
          4   -1    0    0  502    0 -0.00000000000E+00  0.00000000000E+00  0.31703955912E+03  0.31703955912E+03  0.00000000000E+00 0.  1.
         21   -1    0    0  501  502  0.00000000000E+00 -0.00000000000E+00 -0.13134197446E+04  0.13134197446E+04  0.00000000000E+00 0.  1.
    9000010    2    1    2  501    0  0.56034310240E+02 -0.23601367416E+03 -0.95144541759E+03  0.13837581832E+04  0.97503642428E+03 0.  0.
        -13    1    3    3    0    0 -0.17941914879E+03  0.21174073233E+03 -0.81329656508E+03  0.85934666033E+03  0.10566000000E+00 0.  1.
          4    1    3    3  501    0  0.23545345903E+03 -0.44775440649E+03 -0.13814885251E+03  0.52441152290E+03  0.00000000000E+00 0.  1.
         13    1    1    2    0    0 -0.56034310240E+02  0.23601367416E+03 -0.44934767852E+02  0.24670112046E+03  0.10566000000E+00 0. -1.
<mgrwt>
<rscale>  1 0.70429932E+03</rscale>
<asrwt>0</asrwt>
<pdfrwt beam="2">  1       21 0.20206458E+00 0.10047578E+04</pdfrwt>
<pdfrwt beam="1">  1        4 0.48775316E-01 0.10047578E+04</pdfrwt>
<totfact> 0.18170736E+01</totfact>
</mgrwt>
</event>
<event>
 6    1  0.1412458E-005  0.1115709E+04  0.7818608E-02  0.9389888E-01
          4   -1    0    0  502    0 -0.00000000000E+00  0.00000000000E+00  0.13257093914E+04  0.13257093914E+04  0.00000000000E+00 0.  1.
         21   -1    0    0  501  502  0.00000000000E+00 -0.00000000000E+00 -0.52425457601E+03  0.52425457601E+03  0.00000000000E+00 0. -1.
    9000010    2    1    2  501    0 -0.49178615215E+03 -0.21465931163E+03  0.65490606757E+03  0.12937187102E+04  0.97819931721E+03 0.  0.
        -13    1    3    3    0    0 -0.36239014963E+02 -0.12389291806E+03 -0.24729801346E+03  0.27896064234E+03  0.10566000000E+00 0.  1.
          4    1    3    3  501    0 -0.45554713719E+03 -0.90766393568E+02  0.90220408102E+03  0.10147580678E+04  0.00000000000E+00 0.  1.
         13    1    1    2    0    0  0.49178615215E+03  0.21465931163E+03  0.14654874778E+03  0.55624525720E+03  0.10566000000E+00 0. -1.
<mgrwt>
<rscale>  1 0.92912574E+03</rscale>
<asrwt>0</asrwt>
<pdfrwt beam="2">  1       21 0.80654551E-01 0.11157088E+04</pdfrwt>
<pdfrwt beam="1">  1        4 0.20395529E+00 0.11157088E+04</pdfrwt>
<totfact> 0.62530649E+00</totfact>
</mgrwt>
</event>
<event>
 6    1  0.1412458E-005  0.1031028E+04  0.7818608E-02  0.9572057E-01
          4   -1    0    0  502    0 -0.00000000000E+00  0.00000000000E+00  0.54333595377E+03  0.54333595377E+03  0.00000000000E+00 0.  1.
         21   -1    0    0  501  502  0.00000000000E+00 -0.00000000000E+00 -0.11013669579E+04  0.11013669579E+04  0.00000000000E+00 0. -1.
    9000010    2    1    2  501    0 -0.35792563408E+03 -0.20576700834E+02 -0.62290196688E+02  0.10329079137E+04  0.96668740011E+03 0.  0.
        -13    1    3    3    0    0 -0.50463521516E+03  0.30121336424E+03 -0.24276711305E+03  0.63586325064E+03  0.10566000000E+00 0.  1.
          4    1    3    3  501    0  0.14670958108E+03 -0.32179006508E+03  0.18047691636E+03  0.39704466311E+03  0.00000000000E+00 0.  1.
         13    1    1    2    0    0  0.35792563408E+03  0.20576700834E+02 -0.49574080739E+03  0.61179499788E+03  0.10566000000E+00 0. -1.
<mgrwt>
<rscale>  1 0.79173568E+03</rscale>
<asrwt>0</asrwt>
<pdfrwt beam="2">  1       21 0.16944107E+00 0.10310280E+04</pdfrwt>
<pdfrwt beam="1">  1        4 0.83590148E-01 0.10310280E+04</pdfrwt>
<totfact> 0.94469069E+00</totfact>
</mgrwt>
</event>
<event>
 6    1  0.1412458E-005  0.1006743E+04  0.7818608E-02  0.1048068E+00
         21   -1    0    0  501  502  0.00000000000E+00  0.00000000000E+00  0.34423039810E+03  0.34423039810E+03  0.00000000000E+00 0.  1.
          4   -1    0    0  502    0 -0.00000000000E+00 -0.00000000000E+00 -0.77307492320E+03  0.77307492320E+03  0.00000000000E+00 0.  1.
    9000010    2    1    2  501    0 -0.17358384058E+02  0.13803484670E+02 -0.40617649883E+03  0.10855925437E+04  0.10064988688E+04 0.  0.
        -13    1    3    3    0    0  0.31005721951E+03  0.15467628770E+03  0.18686918388E+03  0.39367542010E+03  0.10566000000E+00 0.  1.
          4    1    3    3  501    0 -0.32741560356E+03 -0.14087280303E+03 -0.59304568271E+03  0.69191712356E+03  0.00000000000E+00 0.  1.
         13    1    1    2    0    0  0.17358384058E+02 -0.13803484670E+02 -0.22668026277E+02  0.31712777637E+02  0.10566000000E+00 0. -1.
<mgrwt>
<rscale>  1 0.38785492E+03</rscale>
<asrwt>0</asrwt>
<pdfrwt beam="1">  1       21 0.52958524E-01 0.10067432E+04</pdfrwt>
<pdfrwt beam="2">  1        4 0.11893460E+00 0.10067432E+04</pdfrwt>
<totfact> 0.72310548E+01</totfact>
</mgrwt>
</event>
<event>
 6    1  0.1412458E-005  0.1013708E+04  0.7818608E-02  0.1005309E+00
          4   -1    0    0  502    0 -0.00000000000E+00  0.00000000000E+00  0.33772961428E+03  0.33772961428E+03  0.00000000000E+00 0.  1.
         21   -1    0    0  501  502  0.00000000000E+00 -0.00000000000E+00 -0.88234822166E+03  0.88234822166E+03  0.00000000000E+00 0.  1.
    9000010    2    1    2  501    0 -0.26569930430E+02 -0.73288390150E+02 -0.51022206240E+03  0.11348705428E+04  0.10107064097E+04 0.  0.
        -13    1    3    3    0    0 -0.49025425395E+03 -0.13972484247E+03 -0.11640215715E+03  0.52289744547E+03  0.10566000000E+00 0.  1.
          4    1    3    3  501    0  0.46368432352E+03  0.66436452320E+02 -0.39381990525E+03  0.61197309733E+03  0.00000000000E+00 0.  1.
         13    1    1    2    0    0  0.26569930430E+02  0.73288390150E+02 -0.34396544979E+02  0.85207293141E+02  0.10566000000E+00 0. -1.
<mgrwt>
<rscale>  1 0.53382309E+03</rscale>
<asrwt>0</asrwt>
<pdfrwt beam="2">  1       21 0.13574588E+00 0.10137083E+04</pdfrwt>
<pdfrwt beam="1">  1        4 0.51958401E-01 0.10137083E+04</pdfrwt>
<totfact> 0.50606906E+01</totfact>
</mgrwt>
</event>
<event>
 6    1  0.1412458E-005  0.1015503E+04  0.7818608E-02  0.9761000E-01
          4   -1    0    0  502    0 -0.00000000000E+00  0.00000000000E+00  0.96374266848E+03  0.96374266848E+03  0.00000000000E+00 0.  1.
         21   -1    0    0  501  502  0.00000000000E+00 -0.00000000000E+00 -0.38936798588E+03  0.38936798588E+03  0.00000000000E+00 0.  1.
    9000010    2    1    2  501    0  0.76235912224E+02  0.18296175786E+03  0.54570146041E+03  0.11528381301E+04  0.99597126017E+03 0.  0.
        -13    1    3    3    0    0 -0.16874576691E+03 -0.10481995736E+03 -0.22154205539E+03  0.29756217970E+03  0.10566000000E+00 0.  1.
          4    1    3    3  501    0  0.24498167914E+03  0.28778171523E+03  0.76724351581E+03  0.85527595037E+03  0.00000000000E+00 0.  1.
         13    1    1    2    0    0 -0.76235912224E+02 -0.18296175786E+03  0.28673222185E+02  0.20027252430E+03  0.10566000000E+00 0. -1.
<mgrwt>
<rscale>  1 0.67498150E+03</rscale>
<asrwt>0</asrwt>
<pdfrwt beam="2">  1       21 0.59902767E-01 0.10155027E+04</pdfrwt>
<pdfrwt beam="1">  1        4 0.14826810E+00 0.10155027E+04</pdfrwt>
<totfact> 0.31112780E+01</totfact>
</mgrwt>
</event>
<event>
 6    1  0.1412458E-005  0.1165764E+04  0.7818608E-02  0.9313896E-01
         21   -1    0    0  501  502  0.00000000000E+00  0.00000000000E+00  0.19972822457E+04  0.19972822457E+04  0.00000000000E+00 0. -1.
          4   -1    0    0  502    0 -0.00000000000E+00 -0.00000000000E+00 -0.41431058083E+03  0.41431058083E+03  0.00000000000E+00 0.  1.
    9000010    2    1    2  501    0  0.58091937887E+03 -0.21379190415E+03  0.12479263138E+04  0.17077251533E+04  0.98784149107E+03 0.  0.
        -13    1    3    3    0    0  0.78578564625E+03  0.89008243905E+02  0.95027537369E+03  0.12362867169E+04  0.10566000000E+00 0.  1.
          4    1    3    3  501    0 -0.20486626738E+03 -0.30280014806E+03  0.29765094011E+03  0.47143843641E+03  0.00000000000E+00 0.  1.
         13    1    1    2    0    0 -0.58091937887E+03  0.21379190415E+03  0.33504535109E+03  0.70386767327E+03  0.10566000000E+00 0. -1.
<mgrwt>
<rscale>  1 0.99513605E+03</rscale>
<asrwt>0</asrwt>
<pdfrwt beam="1">  1       21 0.30727419E+00 0.11657637E+04</pdfrwt>
<pdfrwt beam="2">  1        4 0.63740091E-01 0.11657637E+04</pdfrwt>
<totfact> 0.21091193E+00</totfact>
</mgrwt>
</event>
<event>
 6    1  0.1412458E-005  0.1025720E+04  0.7818608E-02  0.9915897E-01
         21   -1    0    0  501  502  0.00000000000E+00  0.00000000000E+00  0.30648040226E+03  0.30648040226E+03  0.00000000000E+00 0.  1.
          4   -1    0    0  502    0 -0.00000000000E+00 -0.00000000000E+00 -0.10915934459E+04  0.10915934459E+04  0.00000000000E+00 0.  1.
    9000010    2    1    2  501    0 -0.85856445050E+02  0.78177137064E+02 -0.62796609348E+03  0.12026815018E+04  0.10191262857E+04 0.  0.
        -13    1    3    3    0    0  0.15029098731E+03  0.23846618798E+03  0.18761446754E+03  0.33860405088E+03  0.10566000000E+00 0.  1.
          4    1    3    3  501    0 -0.23614743236E+03 -0.16028905091E+03 -0.81558056102E+03  0.86407745091E+03  0.00000000000E+00 0.  1.
         13    1    1    2    0    0  0.85856445050E+02 -0.78177137064E+02 -0.15714695017E+03  0.19539234639E+03  0.10566000000E+00 0. -1.
<mgrwt>
<rscale>  1 0.59496982E+03</rscale>
<asrwt>0</asrwt>
<pdfrwt beam="1">  1       21 0.47150832E-01 0.10257199E+04</pdfrwt>
<pdfrwt beam="2">  1        4 0.16793745E+00 0.10257199E+04</pdfrwt>
<totfact> 0.37281457E+01</totfact>
</mgrwt>
</event>
<event>
 6    1  0.1412458E-005  0.1158990E+04  0.7818608E-02  0.9320780E-01
          4   -1    0    0  502    0 -0.00000000000E+00  0.00000000000E+00  0.94517268828E+03  0.94517268828E+03  0.00000000000E+00 0.  1.
         21   -1    0    0  501  502  0.00000000000E+00 -0.00000000000E+00 -0.87888712741E+03  0.87888712741E+03  0.00000000000E+00 0.  1.
    9000010    2    1    2  501    0 -0.60304715541E+03 -0.11724852551E+03 -0.15872886813E+03  0.11698086462E+04  0.98277379225E+03 0.  0.
        -13    1    3    3    0    0 -0.20923636231E+03 -0.16664954735E+03 -0.55054781056E+03  0.61209054054E+03  0.10566000000E+00 0.  1.
          4    1    3    3  501    0 -0.39381079310E+03  0.49401021843E+02  0.39181894242E+03  0.55771810565E+03  0.00000000000E+00 0.  1.
         13    1    1    2    0    0  0.60304715541E+03  0.11724852551E+03  0.22501442900E+03  0.65425116951E+03  0.10566000000E+00 0. -1.
<mgrwt>
<rscale>  1 0.98892155E+03</rscale>
<asrwt>0</asrwt>
<pdfrwt beam="2">  1       21 0.13521341E+00 0.11589898E+04</pdfrwt>
<pdfrwt beam="1">  1        4 0.14541118E+00 0.11589898E+04</pdfrwt>
<totfact> 0.44540867E+00</totfact>
</mgrwt>
</event>
<event>
 6    1  0.1412458E-005  0.1037207E+04  0.7818608E-02  0.9660198E-01
         21   -1    0    0  501  502  0.00000000000E+00  0.00000000000E+00  0.11740571548E+04  0.11740571548E+04  0.00000000000E+00 0.  1.
          4   -1    0    0  502    0 -0.00000000000E+00 -0.00000000000E+00 -0.36408839139E+03  0.36408839139E+03  0.00000000000E+00 0.  1.
    9000010    2    1    2  501    0  0.13837253184E+03 -0.22088988914E+03  0.71912527508E+03  0.12621168317E+04  0.10039215283E+04 0.  0.
        -13    1    3    3    0    0  0.36947161405E+03 -0.25986083428E+03 -0.53376339545E+02  0.45484719584E+03  0.10566000000E+00 0.  1.
          4    1    3    3  501    0 -0.23109908221E+03  0.38970945138E+02  0.77250161463E+03  0.80726963585E+03  0.00000000000E+00 0.  1.
         13    1    1    2    0    0 -0.13837253184E+03  0.22088988914E+03  0.90843488348E+02  0.27602871451E+03  0.10566000000E+00 0. -1.
<mgrwt>
<rscale>  1 0.73436865E+03</rscale>
<asrwt>0</asrwt>
<pdfrwt beam="1">  1       21 0.18062418E+00 0.10372067E+04</pdfrwt>
<pdfrwt beam="2">  1        4 0.56013599E-01 0.10372067E+04</pdfrwt>
<totfact> 0.19084736E+01</totfact>
</mgrwt>
</event>
<event>
 6    1  0.1412458E-005  0.9123150E+03  0.7818608E-02  0.9755756E-01
          4   -1    0    0  502    0 -0.00000000000E+00  0.00000000000E+00  0.32462361894E+03  0.32462361894E+03  0.00000000000E+00 0.  1.
         21   -1    0    0  501  502  0.00000000000E+00 -0.00000000000E+00 -0.12263864536E+04  0.12263864536E+04  0.00000000000E+00 0.  1.
    9000010    2    1    2  501    0 -0.16540837380E+03  0.22362317241E+03 -0.88705452439E+03  0.12724717468E+04  0.86887937237E+03 0.  0.
        -13    1    3    3    0    0 -0.34090096973E+03 -0.21113624411E+03 -0.22071587746E+03  0.45771988647E+03  0.10566000000E+00 0.  1.
          4    1    3    3  501    0  0.17549259593E+03  0.43475941652E+03 -0.66633864692E+03  0.81475186030E+03  0.00000000000E+00 0.  1.
         13    1    1    2    0    0  0.16540837380E+03 -0.22362317241E+03 -0.14708310254E+02  0.27853832576E+03  0.10566000000E+00 0. -1.
<mgrwt>
<rscale>  1 0.67791971E+03</rscale>
<asrwt>0</asrwt>
<pdfrwt beam="2">  1       21 0.18867484E+00 0.91231498E+03</pdfrwt>
<pdfrwt beam="1">  1        4 0.49942095E-01 0.91231498E+03</pdfrwt>
<totfact> 0.21673340E+01</totfact>
</mgrwt>
</event>
<event>
 6    1  0.1412458E-005  0.1047019E+04  0.7818608E-02  0.9581432E-01
          4   -1    0    0  502    0 -0.00000000000E+00  0.00000000000E+00  0.31492806250E+03  0.31492806250E+03  0.00000000000E+00 0.  1.
         21   -1    0    0  501  502  0.00000000000E+00 -0.00000000000E+00 -0.15119576950E+04  0.15119576950E+04  0.00000000000E+00 0.  1.
    9000010    2    1    2  501    0 -0.32544175377E+03  0.62921114790E+02 -0.94603552614E+03  0.14111100314E+04  0.99316509319E+03 0.  0.
        -13    1    3    3    0    0 -0.35657409426E+02 -0.16865718244E+03  0.16570692729E+03  0.23911397482E+03  0.10566000000E+00 0.  1.
          4    1    3    3  501    0 -0.28978434435E+03  0.23157829723E+03 -0.11117424534E+04  0.11719960566E+04  0.00000000000E+00 0.  1.
         13    1    1    2    0    0  0.32544175377E+03 -0.62921114790E+02 -0.25099410637E+03  0.41577572606E+03  0.10566000000E+00 0. -1.
<mgrwt>
<rscale>  1 0.78537385E+03</rscale>
<asrwt>0</asrwt>
<pdfrwt beam="2">  1       21 0.23260888E+00 0.10470188E+04</pdfrwt>
<pdfrwt beam="1">  1        4 0.48450471E-01 0.10470188E+04</pdfrwt>
<totfact> 0.11477240E+01</totfact>
</mgrwt>
</event>
<event>
 6    1  0.1412458E-005  0.9937201E+03  0.7818608E-02  0.1000294E+00
          4   -1    0    0  502    0 -0.00000000000E+00  0.00000000000E+00  0.34117945358E+03  0.34117945358E+03  0.00000000000E+00 0.  1.
         21   -1    0    0  501  502  0.00000000000E+00 -0.00000000000E+00 -0.10517973534E+04  0.10517973534E+04  0.00000000000E+00 0.  1.
    9000010    2    1    2  501    0 -0.55766384438E+02 -0.79171641576E+02 -0.78862578232E+03  0.12686253721E+04  0.98899022835E+03 0.  0.
        -13    1    3    3    0    0  0.30122779766E+03  0.32580554257E+03 -0.44650310446E+03  0.62948587840E+03  0.10566000000E+00 0.  1.
          4    1    3    3  501    0 -0.35699418209E+03 -0.40497718414E+03 -0.34212267787E+03  0.63913949372E+03  0.00000000000E+00 0.  1.
         13    1    1    2    0    0  0.55766384438E+02  0.79171641576E+02  0.78007882485E+02  0.12435143488E+03  0.10566000000E+00 0. -1.
<mgrwt>
<rscale>  1 0.55521621E+03</rscale>
<asrwt>0</asrwt>
<pdfrwt beam="2">  1       21 0.16181497E+00 0.99372014E+03</pdfrwt>
<pdfrwt beam="1">  1        4 0.52489148E-01 0.99372014E+03</pdfrwt>
<totfact> 0.30451375E+01</totfact>
</mgrwt>
</event>
<event>
 6    1  0.1412458E-005  0.1042450E+04  0.7818608E-02  0.9994421E-01
         21   -1    0    0  501  502  0.00000000000E+00  0.00000000000E+00  0.91212095446E+03  0.91212095446E+03  0.00000000000E+00 0.  1.
          4   -1    0    0  502    0 -0.00000000000E+00 -0.00000000000E+00 -0.58723908817E+03  0.58723908817E+03  0.00000000000E+00 0.  1.
    9000010    2    1    2  501    0 -0.73605705560E+02  0.44799457810E+02  0.60568382830E+03  0.12056347554E+04  0.10388828001E+04 0.  0.
        -13    1    3    3    0    0 -0.30804163787E+03 -0.36919583858E+02 -0.19560750769E+03  0.36676288602E+03  0.10566000000E+00 0.  1.
          4    1    3    3  501    0  0.23443593231E+03  0.81719041668E+02  0.80129133599E+03  0.83887186940E+03  0.00000000000E+00 0.  1.
         13    1    1    2    0    0  0.73605705560E+02 -0.44799457810E+02 -0.28080196201E+03  0.29372528721E+03  0.10566000000E+00 0. -1.
<mgrwt>
<rscale>  1 0.55895530E+03</rscale>
<asrwt>0</asrwt>
<pdfrwt beam="1">  1       21 0.14032630E+00 0.10424501E+04</pdfrwt>
<pdfrwt beam="2">  1        4 0.90344475E-01 0.10424501E+04</pdfrwt>
<totfact> 0.13397469E+01</totfact>
</mgrwt>
</event>
<event>
 6    1  0.1412458E-005  0.9974484E+03  0.7818608E-02  0.9817006E-01
          4   -1    0    0  502    0 -0.00000000000E+00  0.00000000000E+00  0.63423667172E+03  0.63423667172E+03  0.00000000000E+00 0.  1.
         21   -1    0    0  501  502  0.00000000000E+00 -0.00000000000E+00 -0.57634419543E+03  0.57634419543E+03  0.00000000000E+00 0.  1.
    9000010    2    1    2  501    0  0.17103270736E+03  0.31740795018E+02 -0.61904789634E+02  0.99936755995E+03  0.98216274203E+03 0.  0.
        -13    1    3    3    0    0 -0.41202811103E+03  0.42654948168E+02 -0.30895631023E+02  0.41538074108E+03  0.10566000000E+00 0.  1.
          4    1    3    3  501    0  0.58306081840E+03 -0.10914153150E+02 -0.31009158610E+02  0.58398681886E+03  0.00000000000E+00 0.  1.
         13    1    1    2    0    0 -0.17103270736E+03 -0.31740795018E+02  0.11979726592E+03  0.21121330721E+03  0.10566000000E+00 0. -1.
<mgrwt>
<rscale>  1 0.64457857E+03</rscale>
<asrwt>0</asrwt>
<pdfrwt beam="2">  1       21 0.88668337E-01 0.99744840E+03</pdfrwt>
<pdfrwt beam="1">  1        4 0.97574873E-01 0.99744840E+03</pdfrwt>
<totfact> 0.36180404E+01</totfact>
</mgrwt>
</event>
<event>
 6    1  0.1412458E-005  0.1045448E+04  0.7818608E-02  0.9727782E-01
         21   -1    0    0  501  502  0.00000000000E+00  0.00000000000E+00  0.25279383881E+03  0.25279383881E+03  0.00000000000E+00 0.  1.
          4   -1    0    0  502    0 -0.00000000000E+00 -0.00000000000E+00 -0.17381110547E+04  0.17381110547E+04  0.00000000000E+00 0.  1.
    9000010    2    1    2  501    0  0.11017459957E+03 -0.17033173501E+03 -0.92833062862E+03  0.13981271848E+04  0.10255781426E+04 0.  0.
        -13    1    3    3    0    0  0.43121192073E+03 -0.38164415630E+03 -0.27041754778E+03  0.63617736830E+03  0.10566000000E+00 0.  1.
          4    1    3    3  501    0 -0.32103732116E+03  0.21131242129E+03 -0.65791308084E+03  0.76194981653E+03  0.00000000000E+00 0.  1.
         13    1    1    2    0    0 -0.11017459957E+03  0.17033173501E+03 -0.55698658730E+03  0.59277770871E+03  0.10566000000E+00 0. -1.
<mgrwt>
<rscale>  1 0.69386486E+03</rscale>
<asrwt>0</asrwt>
<pdfrwt beam="1">  1       21 0.38891360E-01 0.10454482E+04</pdfrwt>
<pdfrwt beam="2">  1        4 0.26740170E+00 0.10454482E+04</pdfrwt>
<totfact> 0.12596899E+01</totfact>
</mgrwt>
</event>
<event>
 6    1  0.1412458E-005  0.1154352E+04  0.7818608E-02  0.9358940E-01
         21   -1    0    0  501  502  0.00000000000E+00  0.00000000000E+00  0.29031406417E+03  0.29031406417E+03  0.00000000000E+00 0. -1.
          4   -1    0    0  502    0 -0.00000000000E+00 -0.00000000000E+00 -0.24912679189E+04  0.24912679189E+04  0.00000000000E+00 0.  1.
    9000010    2    1    2  501    0 -0.48332551002E+03 -0.24418129723E+03 -0.13961659719E+04  0.18115760027E+04  0.10194607092E+04 0.  0.
        -13    1    3    3    0    0 -0.27381410793E+03 -0.59865313094E+03 -0.50435553635E+03  0.82929744669E+03  0.10566000000E+00 0.  1.
          4    1    3    3  501    0 -0.20951140209E+03  0.35447183370E+03 -0.89181043559E+03  0.98227855598E+03  0.00000000000E+00 0.  1.
         13    1    1    2    0    0  0.48332551002E+03  0.24418129723E+03 -0.80478788275E+03  0.97000598036E+03  0.10566000000E+00 0. -1.
<mgrwt>
<rscale>  1 0.95533204E+03</rscale>
<asrwt>0</asrwt>
<pdfrwt beam="1">  1       21 0.44663702E-01 0.11543518E+04</pdfrwt>
<pdfrwt beam="2">  1        4 0.38327199E+00 0.11543518E+04</pdfrwt>
<totfact> 0.16942875E+00</totfact>
</mgrwt>
</event>
<event>
 6    1  0.1412458E-005  0.1009187E+04  0.7818608E-02  0.9915759E-01
          4   -1    0    0  502    0 -0.00000000000E+00  0.00000000000E+00  0.14131853090E+03  0.14131853090E+03  0.00000000000E+00 0.  1.
         21   -1    0    0  501  502  0.00000000000E+00 -0.00000000000E+00 -0.24272775716E+04  0.24272775716E+04  0.00000000000E+00 0.  1.
    9000010    2    1    2  501    0  0.11611828082E+03  0.37330121644E+02 -0.17611980221E+04  0.20298465030E+04  0.10017890794E+04 0.  0.
        -13    1    3    3    0    0  0.28576495063E+03 -0.17480208683E+03 -0.17233398115E+04  0.17555960508E+04  0.10566000000E+00 0.  1.
          4    1    3    3  501    0 -0.16964666981E+03  0.21213220848E+03 -0.37858210641E+02  0.27425045226E+03  0.00000000000E+00 0.  1.
         13    1    1    2    0    0 -0.11611828082E+03 -0.37330121644E+02 -0.52476101865E+03  0.53874959952E+03  0.10566000000E+00 0. -1.
<mgrwt>
<rscale>  1 0.59503597E+03</rscale>
<asrwt>0</asrwt>
<pdfrwt beam="2">  1       21 0.37342729E+00 0.10091870E+04</pdfrwt>
<pdfrwt beam="1">  1        4 0.21741314E-01 0.10091870E+04</pdfrwt>
<totfact> 0.73390876E+00</totfact>
</mgrwt>
</event>
<event>
 6    1  0.1412458E-005  0.1196745E+04  0.7818608E-02  0.9275380E-01
         21   -1    0    0  501  502  0.00000000000E+00  0.00000000000E+00  0.14510427658E+04  0.14510427658E+04  0.00000000000E+00 0. -1.
          4   -1    0    0  502    0 -0.00000000000E+00 -0.00000000000E+00 -0.74127402235E+03  0.74127402235E+03  0.00000000000E+00 0.  1.
    9000010    2    1    2  501    0  0.57810616109E+02  0.65620179015E+03  0.91043013734E+03  0.15036892670E+04  0.99912737930E+03 0.  0.
        -13    1    3    3    0    0 -0.39828885448E+03  0.56161410714E+03  0.73188588897E+03  0.10048389834E+04  0.10566000000E+00 0.  1.
          4    1    3    3  501    0  0.45609947059E+03  0.94587683016E+02  0.17854424837E+03  0.49885028363E+03  0.00000000000E+00 0.  1.
         13    1    1    2    0    0 -0.57810616109E+02 -0.65620179015E+03 -0.20066139385E+03  0.68862752115E+03  0.10566000000E+00 0. -1.
<mgrwt>
<rscale>  1 0.10308139E+04</rscale>
<asrwt>0</asrwt>
<pdfrwt beam="1">  1       21 0.22323735E+00 0.11967449E+04</pdfrwt>
<pdfrwt beam="2">  1        4 0.11404216E+00 0.11967449E+04</pdfrwt>
<totfact> 0.18419343E+00</totfact>
</mgrwt>
</event>
<event>
 6    1  0.1412458E-005  0.1074376E+04  0.7818608E-02  0.9510105E-01
          4   -1    0    0  502    0 -0.00000000000E+00  0.00000000000E+00  0.51289984344E+03  0.51289984344E+03  0.00000000000E+00 0.  1.
         21   -1    0    0  501  502  0.00000000000E+00 -0.00000000000E+00 -0.10962794604E+04  0.10962794604E+04  0.00000000000E+00 0.  1.
    9000010    2    1    2  501    0  0.39279042031E+03 -0.23127493186E+01 -0.56985462789E+03  0.12161492801E+04  0.99999755569E+03 0.  0.
        -13    1    3    3    0    0  0.14836166281E+03 -0.37591946960E+03  0.95139497199E+02  0.41518449598E+03  0.10566000000E+00 0.  1.
          4    1    3    3  501    0  0.24442875750E+03  0.37360672028E+03 -0.66499412509E+03  0.80096478408E+03  0.00000000000E+00 0.  1.
         13    1    1    2    0    0 -0.39279042031E+03  0.23127493186E+01 -0.13524989068E+02  0.39303002377E+03  0.10566000000E+00 0. -1.
<mgrwt>
<rscale>  1 0.83542885E+03</rscale>
<asrwt>0</asrwt>
<pdfrwt beam="2">  1       21 0.16865838E+00 0.10743765E+04</pdfrwt>
<pdfrwt beam="1">  1        4 0.78907668E-01 0.10743765E+04</pdfrwt>
<totfact> 0.10881219E+01</totfact>
</mgrwt>
</event>
<event>
 6    1  0.1412458E-005  0.1042507E+04  0.7818608E-02  0.9678512E-01
         21   -1    0    0  501  502  0.00000000000E+00  0.00000000000E+00  0.16791356580E+04  0.16791356580E+04  0.00000000000E+00 0.  1.
          4   -1    0    0  502    0 -0.00000000000E+00 -0.00000000000E+00 -0.26216608204E+03  0.26216608204E+03  0.00000000000E+00 0.  1.
    9000010    2    1    2  501    0 -0.85432990033E+02  0.22567965281E+03  0.92662060215E+03  0.13947926104E+04  0.10141945495E+04 0.  0.
        -13    1    3    3    0    0  0.32027367633E+03  0.29453748822E+03  0.64998268098E+02  0.43994584410E+03  0.10566000000E+00 0.  1.
          4    1    3    3  501    0 -0.40570666637E+03 -0.68857835413E+02  0.86162233405E+03  0.95484676633E+03  0.00000000000E+00 0.  1.
         13    1    1    2    0    0  0.85432990033E+02 -0.22567965281E+03  0.49034897382E+03  0.54650912963E+03  0.10566000000E+00 0. -1.
<mgrwt>
<rscale>  1 0.72310726E+03</rscale>
<asrwt>0</asrwt>
<pdfrwt beam="1">  1       21 0.25832856E+00 0.10425069E+04</pdfrwt>
<pdfrwt beam="2">  1        4 0.40333244E-01 0.10425069E+04</pdfrwt>
<totfact> 0.11495810E+01</totfact>
</mgrwt>
</event>
<event>
 6    1  0.1412458E-005  0.1011531E+04  0.7818608E-02  0.9893667E-01
          4   -1    0    0  502    0 -0.00000000000E+00  0.00000000000E+00  0.72452077151E+03  0.72452077151E+03  0.00000000000E+00 0.  1.
         21   -1    0    0  501  502  0.00000000000E+00 -0.00000000000E+00 -0.55179871820E+03  0.55179871820E+03  0.00000000000E+00 0.  1.
    9000010    2    1    2  501    0  0.76374018026E+01  0.12981352369E+03 -0.56147198829E+02  0.10130876022E+04  0.10031371297E+04 0.  0.
        -13    1    3    3    0    0  0.40199901947E+03  0.30640093051E+03  0.15969786184E+03  0.53008316339E+03  0.10566000000E+00 0.  1.
          4    1    3    3  501    0 -0.39436161766E+03 -0.17658740683E+03 -0.21584506067E+03  0.48300443885E+03  0.00000000000E+00 0.  1.
         13    1    1    2    0    0 -0.76374018026E+01 -0.12981352369E+03  0.22886925214E+03  0.26323188746E+03  0.10566000000E+00 0. -1.
<mgrwt>
<rscale>  1 0.60569201E+03</rscale>
<asrwt>0</asrwt>
<pdfrwt beam="2">  1       21 0.84892111E-01 0.10115305E+04</pdfrwt>
<pdfrwt beam="1">  1        4 0.11146473E+00 0.10115305E+04</pdfrwt>
<totfact> 0.29000928E+01</totfact>
</mgrwt>
</event>
<event>
 6    1  0.1412458E-005  0.1076009E+04  0.7818608E-02  0.9511895E-01
          4   -1    0    0  502    0 -0.00000000000E+00  0.00000000000E+00  0.15598533109E+04  0.15598533109E+04  0.00000000000E+00 0.  1.
         21   -1    0    0  501  502  0.00000000000E+00 -0.00000000000E+00 -0.35699442736E+03  0.35699442736E+03  0.00000000000E+00 0.  1.
    9000010    2    1    2  501    0  0.37259611253E+03  0.11028931944E+03  0.70963102113E+03  0.12889422259E+04  0.10033963715E+04 0.  0.
        -13    1    3    3    0    0  0.70841514334E+03  0.18250936215E+03  0.45721138423E+03  0.86267255875E+03  0.10566000000E+00 0.  1.
          4    1    3    3  501    0 -0.33581903080E+03 -0.72220042715E+02  0.25241963691E+03  0.42626966713E+03  0.00000000000E+00 0.  1.
         13    1    1    2    0    0 -0.37259611253E+03 -0.11028931944E+03  0.49322786241E+03  0.62790551238E+03  0.10566000000E+00 0. -1.
<mgrwt>
<rscale>  1 0.83412493E+03</rscale>
<asrwt>0</asrwt>
<pdfrwt beam="2">  1       21 0.54922221E-01 0.10760092E+04</pdfrwt>
<pdfrwt beam="1">  1        4 0.23997743E+00 0.10760092E+04</pdfrwt>
<totfact> 0.88663014E+00</totfact>
</mgrwt>
</event>
<event>
 6    1  0.1412458E-005  0.1195580E+04  0.7818608E-02  0.9276667E-01
         21   -1    0    0  501  502  0.00000000000E+00  0.00000000000E+00  0.35906278208E+03  0.35906278208E+03  0.00000000000E+00 0. -1.
          4   -1    0    0  502    0 -0.00000000000E+00 -0.00000000000E+00 -0.24930464979E+04  0.24930464979E+04  0.00000000000E+00 0.  1.
    9000010    2    1    2  501    0 -0.41411702984E+03 -0.51077076946E+03 -0.10875203271E+04  0.16162025972E+04  0.99851423630E+03 0.  0.
        -13    1    3    3    0    0 -0.67519585840E+03 -0.58032826148E+03 -0.98364750171E+03  0.13267376369E+04  0.10566000000E+00 0.  1.
          4    1    3    3  501    0  0.26107882856E+03  0.69557492022E+02 -0.10387282536E+03  0.28946496035E+03  0.00000000000E+00 0.  1.
         13    1    1    2    0    0  0.41411702984E+03  0.51077076946E+03 -0.10464633887E+04  0.12359066828E+04  0.10566000000E+00 0. -1.
<mgrwt>
<rscale>  1 0.10295964E+04</rscale>
<asrwt>0</asrwt>
<pdfrwt beam="1">  1       21 0.55240428E-01 0.11955795E+04</pdfrwt>
<pdfrwt beam="2">  1        4 0.38354562E+00 0.11955795E+04</pdfrwt>
<totfact> 0.10578912E+00</totfact>
</mgrwt>
</event>
<event>
 6    1  0.1412458E-005  0.1000260E+04  0.7818608E-02  0.1055259E+00
         21   -1    0    0  501  502  0.00000000000E+00  0.00000000000E+00  0.11318654039E+04  0.11318654039E+04  0.00000000000E+00 0.  1.
          4   -1    0    0  502    0 -0.00000000000E+00 -0.00000000000E+00 -0.29020405051E+03  0.29020405051E+03  0.00000000000E+00 0.  1.
    9000010    2    1    2  501    0 -0.13358434855E+02 -0.12696398313E+02  0.90940441739E+03  0.13518641826E+04  0.10000903596E+04 0.  0.
        -13    1    3    3    0    0  0.43475529081E+03  0.10808918777E+03  0.17058669142E+03  0.47936965470E+03  0.10566000000E+00 0.  1.
          4    1    3    3  501    0 -0.44811372566E+03 -0.12078558608E+03  0.73881772597E+03  0.87249452785E+03  0.00000000000E+00 0.  1.
         13    1    1    2    0    0  0.13358434855E+02  0.12696398313E+02 -0.67743064000E+02  0.70205271853E+02  0.10566000000E+00 0. -1.
<mgrwt>
<rscale>  1 0.36852323E+03</rscale>
<asrwt>0</asrwt>
<pdfrwt beam="1">  1       21 0.17413314E+00 0.10002602E+04</pdfrwt>
<pdfrwt beam="2">  1        4 0.44646778E-01 0.10002602E+04</pdfrwt>
<totfact> 0.34520905E+01</totfact>
</mgrwt>
</event>
<event>
 6    1  0.1412458E-005  0.9801476E+03  0.7818608E-02  0.9938581E-01
          4   -1    0    0  502    0 -0.00000000000E+00  0.00000000000E+00  0.16570702769E+04  0.16570702769E+04  0.00000000000E+00 0.  1.
         21   -1    0    0  501  502  0.00000000000E+00 -0.00000000000E+00 -0.22299666179E+03  0.22299666179E+03  0.00000000000E+00 0.  1.
    9000010    2    1    2  501    0  0.65448556049E+02 -0.10504163597E+03  0.89609010539E+03  0.13280311367E+04  0.97230240373E+03 0.  0.
        -13    1    3    3    0    0 -0.46974458467E+02 -0.52250964570E+03  0.34627983488E+03  0.62859578809E+03  0.10566000000E+00 0.  1.
          4    1    3    3  501    0  0.11242301452E+03  0.41746800972E+03  0.54981027051E+03  0.69943534861E+03  0.00000000000E+00 0.  1.
         13    1    1    2    0    0 -0.65448556049E+02  0.10504163597E+03  0.53798350974E+03  0.55203580200E+03  0.10566000000E+00 0. -1.
<mgrwt>
<rscale>  1 0.58427360E+03</rscale>
<asrwt>0</asrwt>
<pdfrwt beam="2">  1       21 0.34307180E-01 0.98014755E+03</pdfrwt>
<pdfrwt beam="1">  1        4 0.25493388E+00 0.98014755E+03</pdfrwt>
<totfact> 0.19632066E+01</totfact>
</mgrwt>
</event>
<event>
 6    1  0.1412458E-005  0.1063767E+04  0.7818608E-02  0.9551917E-01
          4   -1    0    0  502    0 -0.00000000000E+00  0.00000000000E+00  0.21825867575E+04  0.21825867575E+04  0.00000000000E+00 0.  1.
         21   -1    0    0  501  502  0.00000000000E+00 -0.00000000000E+00 -0.29206492512E+03  0.29206492512E+03  0.00000000000E+00 0.  1.
    9000010    2    1    2  501    0  0.27678981973E+03 -0.21410114310E+03  0.18340094132E+04  0.21201864961E+04  0.10045637593E+04 0.  0.
        -13    1    3    3    0    0  0.28779700435E+03  0.35434725389E+03  0.54210503989E+03  0.70870796348E+03  0.10566000000E+00 0.  1.
          4    1    3    3  501    0 -0.11007184617E+02 -0.56844839700E+03  0.12919043733E+04  0.14114785326E+04  0.00000000000E+00 0.  1.
         13    1    1    2    0    0 -0.27678981973E+03  0.21410114310E+03  0.56512419159E+02  0.35446518654E+03  0.10566000000E+00 0. -1.
<mgrwt>
<rscale>  1 0.80562074E+03</rscale>
<asrwt>0</asrwt>
<pdfrwt beam="2">  1       21 0.44933067E-01 0.10637670E+04</pdfrwt>
<pdfrwt beam="1">  1        4 0.33578257E+00 0.10637670E+04</pdfrwt>
<totfact> 0.34757848E+00</totfact>
</mgrwt>
</event>
<event>
 6    1  0.1412458E-005  0.1006319E+04  0.7818608E-02  0.9880365E-01
         21   -1    0    0  501  502  0.00000000000E+00  0.00000000000E+00  0.39717022794E+03  0.39717022794E+03  0.00000000000E+00 0.  1.
          4   -1    0    0  502    0 -0.00000000000E+00 -0.00000000000E+00 -0.82412756639E+03  0.82412756639E+03  0.00000000000E+00 0.  1.
    9000010    2    1    2  501    0  0.50966919812E+02 -0.12809129004E+03 -0.37952319660E+03  0.10755067985E+04  0.99683098431E+03 0.  0.
        -13    1    3    3    0    0 -0.16987634341E+03 -0.20034595138E+03 -0.66054863378E+03  0.71085932577E+03  0.10566000000E+00 0.  1.
          4    1    3    3  501    0  0.22084326323E+03  0.72254661336E+02  0.28102543718E+03  0.36464747269E+03  0.00000000000E+00 0.  1.
         13    1    1    2    0    0 -0.50966919812E+02  0.12809129004E+03 -0.47434141849E+02  0.14579099587E+03  0.10566000000E+00 0. -1.
<mgrwt>
<rscale>  1 0.61222378E+03</rscale>
<asrwt>0</asrwt>
<pdfrwt beam="1">  1       21 0.61103113E-01 0.10063185E+04</pdfrwt>
<pdfrwt beam="2">  1        4 0.12678885E+00 0.10063185E+04</pdfrwt>
<totfact> 0.44828799E+01</totfact>
</mgrwt>
</event>
<event>
 6    1  0.1412458E-005  0.1053402E+04  0.7818608E-02  0.9596982E-01
          4   -1    0    0  502    0 -0.00000000000E+00  0.00000000000E+00  0.37868933925E+03  0.37868933925E+03  0.00000000000E+00 0.  1.
         21   -1    0    0  501  502  0.00000000000E+00 -0.00000000000E+00 -0.12247195416E+04  0.12247195416E+04  0.00000000000E+00 0.  1.
    9000010    2    1    2  501    0 -0.10861793835E+03 -0.28881030991E+03 -0.64715687540E+03  0.12363123500E+04  0.10071975743E+04 0.  0.
        -13    1    3    3    0    0 -0.47957000009E+03 -0.38719529566E+03 -0.58068851388E+03  0.84682155339E+03  0.10566000000E+00 0.  1.
          4    1    3    3  501    0  0.37095206174E+03  0.98384985756E+02 -0.66468361520E+02  0.38949079657E+03  0.00000000000E+00 0.  1.
         13    1    1    2    0    0  0.10861793835E+03  0.28881030991E+03 -0.19887332693E+03  0.36709653086E+03  0.10566000000E+00 0. -1.
<mgrwt>
<rscale>  1 0.77496238E+03</rscale>
<asrwt>0</asrwt>
<pdfrwt beam="2">  1       21 0.18841839E+00 0.10534022E+04</pdfrwt>
<pdfrwt beam="1">  1        4 0.58259899E-01 0.10534022E+04</pdfrwt>
<totfact> 0.15385457E+01</totfact>
</mgrwt>
</event>
<event>
 6    1  0.1412458E-005  0.1018391E+04  0.7818608E-02  0.9944796E-01
          4   -1    0    0  502    0 -0.00000000000E+00  0.00000000000E+00  0.79882339222E+03  0.79882339222E+03  0.00000000000E+00 0.  1.
         21   -1    0    0  501  502  0.00000000000E+00 -0.00000000000E+00 -0.54438060589E+03  0.54438060589E+03  0.00000000000E+00 0.  1.
    9000010    2    1    2  501    0  0.25847769738E+02 -0.10503777976E+03 -0.50501168001E+02  0.10196427693E+04  0.10126302220E+04 0.  0.
        -13    1    3    3    0    0  0.13600583735E+03 -0.44236214091E+03  0.27480882266E+03  0.53823949287E+03  0.10566000000E+00 0.  1.
          4    1    3    3  501    0 -0.11015806761E+03  0.33732436115E+03 -0.32530999066E+03  0.48140327638E+03  0.00000000000E+00 0.  1.
         13    1    1    2    0    0 -0.25847769738E+02  0.10503777976E+03  0.30494395433E+03  0.32356122886E+03  0.10566000000E+00 0. -1.
<mgrwt>
<rscale>  1 0.58138545E+03</rscale>
<asrwt>0</asrwt>
<pdfrwt beam="2">  1       21 0.83750862E-01 0.10183914E+04</pdfrwt>
<pdfrwt beam="1">  1        4 0.12289591E+00 0.10183914E+04</pdfrwt>
<totfact> 0.23454452E+01</totfact>
</mgrwt>
</event>
<event>
 6    1  0.1412458E-005  0.1049111E+04  0.7818608E-02  0.9588576E-01
          4   -1    0    0  502    0 -0.00000000000E+00  0.00000000000E+00  0.16103987222E+04  0.16103987222E+04  0.00000000000E+00 0.  1.
         21   -1    0    0  501  502  0.00000000000E+00 -0.00000000000E+00 -0.30560079842E+03  0.30560079842E+03  0.00000000000E+00 0.  1.
    9000010    2    1    2  501    0 -0.17134555528E+03  0.27203548837E+03  0.80778267103E+03  0.13240647448E+04  0.99863506770E+03 0.  0.
        -13    1    3    3    0    0  0.16046045714E+03  0.30495375951E+03  0.91183173938E+03  0.97477253031E+03  0.10566000000E+00 0.  1.
          4    1    3    3  501    0 -0.33180601241E+03 -0.32918271137E+02 -0.10404906835E+03  0.34929221444E+03  0.00000000000E+00 0.  1.
         13    1    1    2    0    0  0.17134555528E+03 -0.27203548837E+03  0.49701525274E+03  0.59193477586E+03  0.10566000000E+00 0. -1.
<mgrwt>
<rscale>  1 0.78056958E+03</rscale>
<asrwt>0</asrwt>
<pdfrwt beam="2">  1       21 0.47015508E-01 0.10491113E+04</pdfrwt>
<pdfrwt beam="1">  1        4 0.24775364E+00 0.10491113E+04</pdfrwt>
<totfact> 0.11147932E+01</totfact>
</mgrwt>
</event>
<event>
 6    1  0.1412458E-005  0.1017374E+04  0.7818608E-02  0.9729008E-01
          4   -1    0    0  502    0 -0.00000000000E+00  0.00000000000E+00  0.68399939962E+03  0.68399939962E+03  0.00000000000E+00 0.  1.
         21   -1    0    0  501  502  0.00000000000E+00 -0.00000000000E+00 -0.69988901458E+03  0.69988901458E+03  0.00000000000E+00 0.  1.
    9000010    2    1    2  501    0  0.20586911177E+03 -0.75337642655E+02 -0.26573117327E+03  0.10515051008E+04  0.99347474505E+03 0.  0.
        -13    1    3    3    0    0  0.11206909843E+03 -0.51415725247E+03  0.72187581344E+01  0.52627871392E+03  0.10566000000E+00 0.  1.
          4    1    3    3  501    0  0.93800013348E+02  0.43881960982E+03 -0.27294993140E+03  0.52522638692E+03  0.00000000000E+00 0.  1.
         13    1    1    2    0    0 -0.20586911177E+03  0.75337642655E+02  0.24984155831E+03  0.33238331337E+03  0.10566000000E+00 0. -1.
<mgrwt>
<rscale>  1 0.69315609E+03</rscale>
<asrwt>0</asrwt>
<pdfrwt beam="2">  1       21 0.10767523E+00 0.10173740E+04</pdfrwt>
<pdfrwt beam="1">  1        4 0.10523068E+00 0.10173740E+04</pdfrwt>
<totfact> 0.18633392E+01</totfact>
</mgrwt>
</event>
<event>
 6    1  0.1412458E-005  0.1044777E+04  0.7818608E-02  0.9920164E-01
         21   -1    0    0  501  502  0.00000000000E+00  0.00000000000E+00  0.58724062163E+03  0.58724062163E+03  0.00000000000E+00 0.  1.
          4   -1    0    0  502    0 -0.00000000000E+00 -0.00000000000E+00 -0.68629032127E+03  0.68629032127E+03  0.00000000000E+00 0.  1.
    9000010    2    1    2  501    0  0.10741938266E+03 -0.14436655892E+02  0.97253470422E+02  0.10492938217E+04  0.10391400030E+04 0.  0.
        -13    1    3    3    0    0 -0.37657409113E+03 -0.80420448888E+02 -0.24179483601E+03  0.45468697869E+03  0.10566000000E+00 0.  1.
          4    1    3    3  501    0  0.48399347379E+03  0.65983792995E+02  0.33904830643E+03  0.59460684296E+03  0.00000000000E+00 0.  1.
         13    1    1    2    0    0 -0.10741938266E+03  0.14436655892E+02 -0.19630317006E+03  0.22423712124E+03  0.10566000000E+00 0. -1.
<mgrwt>
<rscale>  1 0.59293931E+03</rscale>
<asrwt>0</asrwt>
<pdfrwt beam="1">  1       21 0.90344711E-01 0.10447771E+04</pdfrwt>
<pdfrwt beam="2">  1        4 0.10558313E+00 0.10447771E+04</pdfrwt>
<totfact> 0.28447073E+01</totfact>
</mgrwt>
</event>
<event>
 6    1  0.1412458E-005  0.1012134E+04  0.7818608E-02  0.9666790E-01
          4   -1    0    0  502    0 -0.00000000000E+00  0.00000000000E+00  0.77929188144E+03  0.77929188144E+03  0.00000000000E+00 0.  1.
         21   -1    0    0  501  502  0.00000000000E+00 -0.00000000000E+00 -0.87897458462E+03  0.87897458462E+03  0.00000000000E+00 0.  1.
    9000010    2    1    2  501    0 -0.20886317841E+03 -0.17785094662E+03 -0.53415434827E+03  0.11444373037E+04  0.97424898661E+03 0.  0.
        -13    1    3    3    0    0  0.11833361222E+02 -0.88098984437E+02 -0.78991493771E+03  0.79490067271E+03  0.10566000000E+00 0.  1.
          4    1    3    3  501    0 -0.22069653963E+03 -0.89751962180E+02  0.25576058944E+03  0.34953663103E+03  0.00000000000E+00 0.  1.
         13    1    1    2    0    0  0.20886317841E+03  0.17785094662E+03  0.43447164509E+03  0.51382916233E+03  0.10566000000E+00 0. -1.
<mgrwt>
<rscale>  1 0.73029005E+03</rscale>
<asrwt>0</asrwt>
<pdfrwt beam="2">  1       21 0.13522686E+00 0.10121343E+04</pdfrwt>
<pdfrwt beam="1">  1        4 0.11989106E+00 0.10121343E+04</pdfrwt>
<totfact> 0.74671063E+00</totfact>
</mgrwt>
</event>
<event>
 6    1  0.1412458E-005  0.9974492E+03  0.7818608E-02  0.9868136E-01
         21   -1    0    0  501  502  0.00000000000E+00  0.00000000000E+00  0.98006364530E+03  0.98006364530E+03  0.00000000000E+00 0.  1.
          4   -1    0    0  502    0 -0.00000000000E+00 -0.00000000000E+00 -0.93754734788E+03  0.93754734788E+03  0.00000000000E+00 0.  1.
    9000010    2    1    2  501    0 -0.48617353723E+02 -0.13902463612E+03  0.71624591758E+03  0.12279711533E+04  0.98651580946E+03 0.  0.
        -13    1    3    3    0    0 -0.39936548198E+03  0.19993044063E+03  0.55896196548E+03  0.71547428976E+03  0.10566000000E+00 0.  1.
          4    1    3    3  501    0  0.35074812826E+03 -0.33895507675E+03  0.15728395210E+03  0.51249686352E+03  0.00000000000E+00 0.  1.
         13    1    1    2    0    0  0.48617353723E+02  0.13902463612E+03 -0.67372962016E+03  0.68963983990E+03  0.10566000000E+00 0. -1.
<mgrwt>
<rscale>  1 0.61830721E+03</rscale>
<asrwt>0</asrwt>
<pdfrwt beam="1">  1       21 0.15077902E+00 0.99744922E+03</pdfrwt>
<pdfrwt beam="2">  1        4 0.14423805E+00 0.99744922E+03</pdfrwt>
<totfact> 0.34439400E+00</totfact>
</mgrwt>
</event>
<event>
 6    1  0.1412458E-005  0.1071188E+04  0.7818608E-02  0.9504802E-01
         21   -1    0    0  501  502  0.00000000000E+00  0.00000000000E+00  0.10688259947E+04  0.10688259947E+04  0.00000000000E+00 0.  1.
          4   -1    0    0  502    0 -0.00000000000E+00 -0.00000000000E+00 -0.50953324333E+03  0.50953324333E+03  0.00000000000E+00 0.  1.
    9000010    2    1    2  501    0 -0.35112945561E+03 -0.19925381715E+03  0.43231831858E+03  0.11551376696E+04  0.99219450156E+03 0.  0.
        -13    1    3    3    0    0 -0.47164275323E+03 -0.53564712865E+03  0.29751279742E+03  0.77322610464E+03  0.10566000000E+00 0.  1.
          4    1    3    3  501    0  0.12051329763E+03  0.33639331150E+03  0.13480552116E+03  0.38191156497E+03  0.00000000000E+00 0.  1.
         13    1    1    2    0    0  0.35112945561E+03  0.19925381715E+03  0.12697443282E+03  0.42322156845E+03  0.10566000000E+00 0. -1.
<mgrwt>
<rscale>  1 0.83930681E+03</rscale>
<asrwt>0</asrwt>
<pdfrwt beam="1">  1       21 0.16443477E+00 0.10711881E+04</pdfrwt>
<pdfrwt beam="2">  1        4 0.78389730E-01 0.10711881E+04</pdfrwt>
<totfact> 0.11897197E+01</totfact>
</mgrwt>
</event>
<event>
 6    1  0.1412458E-005  0.9922222E+03  0.7818608E-02  0.9965117E-01
          4   -1    0    0  502    0 -0.00000000000E+00  0.00000000000E+00  0.33900944358E+03  0.33900944358E+03  0.00000000000E+00 0.  1.
         21   -1    0    0  501  502  0.00000000000E+00 -0.00000000000E+00 -0.12338217509E+04  0.12338217509E+04  0.00000000000E+00 0.  1.
    9000010    2    1    2  501    0  0.10097406241E+03  0.42714467829E+02 -0.10085835222E+04  0.14148306010E+04  0.98614634883E+03 0.  0.
        -13    1    3    3    0    0  0.22691088804E+01  0.43966947486E+02 -0.11992862666E+04  0.12000940804E+04  0.10566000000E+00 0.  1.
          4    1    3    3  501    0  0.98704953525E+02 -0.12524796575E+01  0.19070274443E+03  0.21473652063E+03  0.00000000000E+00 0.  1.
         13    1    1    2    0    0 -0.10097406241E+03 -0.42714467829E+02  0.11377121486E+03  0.15800059347E+03  0.10566000000E+00 0. -1.
<mgrwt>
<rscale>  1 0.57206597E+03</rscale>
<asrwt>0</asrwt>
<pdfrwt beam="2">  1       21 0.18981873E+00 0.99222221E+03</pdfrwt>
<pdfrwt beam="1">  1        4 0.52155299E-01 0.99222221E+03</pdfrwt>
<totfact> 0.19214326E+01</totfact>
</mgrwt>
</event>
<event>
 6    1  0.1412458E-005  0.1078097E+04  0.7818608E-02  0.9496043E-01
         21   -1    0    0  501  502  0.00000000000E+00  0.00000000000E+00  0.10717275922E+04  0.10717275922E+04  0.00000000000E+00 0.  1.
          4   -1    0    0  502    0 -0.00000000000E+00 -0.00000000000E+00 -0.52465171466E+03  0.52465171466E+03  0.00000000000E+00 0.  1.
    9000010    2    1    2  501    0 -0.18274885420E+03  0.36516010841E+03  0.29979267305E+03  0.11190031000E+04  0.99777414405E+03 0.  0.
        -13    1    3    3    0    0 -0.47601028398E+03  0.52127864616E+03  0.34147660898E+03  0.78417058287E+03  0.10566000000E+00 0.  1.
          4    1    3    3  501    0  0.29326142977E+03 -0.15611853775E+03 -0.41683935934E+02  0.33483251714E+03  0.00000000000E+00 0.  1.
         13    1    1    2    0    0  0.18274885420E+03 -0.36516010841E+03  0.24728320452E+03  0.47737620687E+03  0.10566000000E+00 0. -1.
<mgrwt>
<rscale>  1 0.84576164E+03</rscale>
<asrwt>0</asrwt>
<pdfrwt beam="1">  1       21 0.16488117E+00 0.10780966E+04</pdfrwt>
<pdfrwt beam="2">  1        4 0.80715648E-01 0.10780966E+04</pdfrwt>
<totfact> 0.11028551E+01</totfact>
</mgrwt>
</event>
<event>
 6    1  0.1412458E-005  0.9951231E+03  0.7818608E-02  0.9837971E-01
         21   -1    0    0  501  502  0.00000000000E+00  0.00000000000E+00  0.71275704476E+03  0.71275704476E+03  0.00000000000E+00 0.  1.
          4   -1    0    0  502    0 -0.00000000000E+00 -0.00000000000E+00 -0.80167362581E+03  0.80167362581E+03  0.00000000000E+00 0.  1.
    9000010    2    1    2  501    0  0.47936426268E+01  0.16351333564E+03  0.34299743830E+03  0.10525764498E+04  0.98158563055E+03 0.  0.
        -13    1    3    3    0    0  0.35301908392E+03  0.72068325250E+01 -0.18690922845E+03  0.39951155539E+03  0.10566000000E+00 0.  1.
          4    1    3    3  501    0 -0.34822544129E+03  0.15630650311E+03  0.52990666675E+03  0.65306489444E+03  0.00000000000E+00 0.  1.
         13    1    1    2    0    0 -0.47936426268E+01 -0.16351333564E+03 -0.43191401935E+03  0.46185422074E+03  0.10566000000E+00 0. -1.
<mgrwt>
<rscale>  1 0.63363995E+03</rscale>
<asrwt>0</asrwt>
<pdfrwt beam="1">  1       21 0.10965493E+00 0.99512308E+03</pdfrwt>
<pdfrwt beam="2">  1        4 0.12333440E+00 0.99512308E+03</pdfrwt>
<totfact> 0.12026322E+01</totfact>
</mgrwt>
</event>
<event>
 6    1  0.1412458E-005  0.1020995E+04  0.7818608E-02  0.9937225E-01
         21   -1    0    0  501  502  0.00000000000E+00  0.00000000000E+00  0.97499082821E+03  0.97499082821E+03  0.00000000000E+00 0.  1.
          4   -1    0    0  502    0 -0.00000000000E+00 -0.00000000000E+00 -0.50801337966E+03  0.50801337966E+03  0.00000000000E+00 0.  1.
    9000010    2    1    2  501    0 -0.22721869307E+02 -0.10759690086E+03  0.69141037153E+03  0.12330771695E+04  0.10150554801E+04 0.  0.
        -13    1    3    3    0    0 -0.10285991660E+03  0.26163475481E+02  0.93655159708E+03  0.94254633576E+03  0.10566000000E+00 0.  1.
          4    1    3    3  501    0  0.80138047296E+02 -0.13376037634E+03 -0.24514122555E+03  0.29053083376E+03  0.00000000000E+00 0.  1.
         13    1    1    2    0    0  0.22721869307E+02  0.10759690086E+03 -0.22443292298E+03  0.24992703836E+03  0.10566000000E+00 0. -1.
<mgrwt>
<rscale>  1 0.58490622E+03</rscale>
<asrwt>0</asrwt>
<pdfrwt beam="1">  1       21 0.14999859E+00 0.10209951E+04</pdfrwt>
<pdfrwt beam="2">  1        4 0.78155905E-01 0.10209951E+04</pdfrwt>
<totfact> 0.15641245E+01</totfact>
</mgrwt>
</event>
<event>
 6    1  0.1412458E-005  0.1031837E+04  0.7818608E-02  0.9738372E-01
         21   -1    0    0  501  502  0.00000000000E+00  0.00000000000E+00  0.11093860804E+04  0.11093860804E+04  0.00000000000E+00 0.  1.
          4   -1    0    0  502    0 -0.00000000000E+00 -0.00000000000E+00 -0.41965938863E+03  0.41965938863E+03  0.00000000000E+00 0.  1.
    9000010    2    1    2  501    0  0.17329695983E+03  0.10702264996E+03  0.79235862829E+03  0.13009687069E+04  0.10115343279E+04 0.  0.
        -13    1    3    3    0    0  0.46610967154E+03 -0.13133825105E+03  0.78617636351E+03  0.92335326273E+03  0.10566000000E+00 0.  1.
          4    1    3    3  501    0 -0.29281271171E+03  0.23836090101E+03  0.61822647743E+01  0.37761544416E+03  0.00000000000E+00 0.  1.
         13    1    1    2    0    0 -0.17329695983E+03 -0.10702264996E+03 -0.10263193649E+03  0.22807676217E+03  0.10566000000E+00 0. -1.
<mgrwt>
<rscale>  1 0.68777373E+03</rscale>
<asrwt>0</asrwt>
<pdfrwt beam="1">  1       21 0.17067478E+00 0.10318369E+04</pdfrwt>
<pdfrwt beam="2">  1        4 0.64562983E-01 0.10318369E+04</pdfrwt>
<totfact> 0.16585243E+01</totfact>
</mgrwt>
</event>
<event>
 6    1  0.1412458E-005  0.1035063E+04  0.7818608E-02  0.9792225E-01
          4   -1    0    0  502    0 -0.00000000000E+00  0.00000000000E+00  0.52256427836E+03  0.52256427836E+03  0.00000000000E+00 0.  1.
         21   -1    0    0  501  502  0.00000000000E+00 -0.00000000000E+00 -0.89455942527E+03  0.89455942527E+03  0.00000000000E+00 0.  1.
    9000010    2    1    2  501    0  0.16603347651E+03  0.30736848287E+02 -0.54971163720E+03  0.11719808244E+04  0.10211974831E+04 0.  0.
        -13    1    3    3    0    0 -0.67735564651E+02  0.49737033197E+03 -0.18370783540E+03  0.53452215464E+03  0.10566000000E+00 0.  1.
          4    1    3    3  501    0  0.23376904116E+03 -0.46663348369E+03 -0.36600380180E+03  0.63745866975E+03  0.00000000000E+00 0.  1.
         13    1    1    2    0    0 -0.16603347651E+03 -0.30736848287E+02  0.17771649029E+03  0.24514287926E+03  0.10566000000E+00 0. -1.
<mgrwt>
<rscale>  1 0.65781449E+03</rscale>
<asrwt>0</asrwt>
<pdfrwt beam="2">  1       21 0.13762453E+00 0.10350634E+04</pdfrwt>
<pdfrwt beam="1">  1        4 0.80394505E-01 0.10350634E+04</pdfrwt>
<totfact> 0.18550157E+01</totfact>
</mgrwt>
</event>
<event>
 6    1  0.1412458E-005  0.1119867E+04  0.7818608E-02  0.9349690E-01
         21   -1    0    0  501  502  0.00000000000E+00  0.00000000000E+00  0.12373132408E+04  0.12373132408E+04  0.00000000000E+00 0. -1.
          4   -1    0    0  502    0 -0.00000000000E+00 -0.00000000000E+00 -0.65634399473E+03  0.65634399473E+03  0.00000000000E+00 0.  1.
    9000010    2    1    2  501    0  0.54199141783E+03  0.28687326695E+03  0.61843752919E+03  0.12792836914E+04  0.93704365815E+03 0.  0.
        -13    1    3    3    0    0  0.61168185084E+03  0.56409830488E+03  0.42698401720E+03  0.93524165129E+03  0.10566000000E+00 0.  1.
          4    1    3    3  501    0 -0.69690433008E+02 -0.27722503792E+03  0.19145351199E+03  0.34404204011E+03  0.00000000000E+00 0.  1.
         13    1    1    2    0    0 -0.54199141783E+03 -0.28687326695E+03 -0.37468283149E+02  0.61437354411E+03  0.10566000000E+00 0. -1.
<mgrwt>
<rscale>  1 0.96334231E+03</rscale>
<asrwt>0</asrwt>
<pdfrwt beam="1">  1       21 0.19035588E+00 0.11198669E+04</pdfrwt>
<pdfrwt beam="2">  1        4 0.10097600E+00 0.11198669E+04</pdfrwt>
<totfact> 0.42072280E+00</totfact>
</mgrwt>
</event>
<event>
 6    1  0.1412458E-005  0.1013909E+04  0.7818608E-02  0.9928215E-01
          4   -1    0    0  502    0 -0.00000000000E+00  0.00000000000E+00  0.14440551963E+04  0.14440551963E+04  0.00000000000E+00 0.  1.
         21   -1    0    0  501  502  0.00000000000E+00 -0.00000000000E+00 -0.27094700519E+03  0.27094700519E+03  0.00000000000E+00 0.  1.
    9000010    2    1    2  501    0 -0.91343742652E+02  0.70803476489E+02  0.71023695017E+03  0.12379208578E+04  0.10073007065E+04 0.  0.
        -13    1    3    3    0    0 -0.27467570959E+03  0.48483278930E+03  0.44530840489E+03  0.71330860478E+03  0.10566000000E+00 0.  1.
          4    1    3    3  501    0  0.18333196693E+03 -0.41402931281E+03  0.26492854527E+03  0.52461225307E+03  0.00000000000E+00 0.  1.
         13    1    1    2    0    0  0.91343742652E+02 -0.70803476489E+02  0.46287124091E+03  0.47708134362E+03  0.10566000000E+00 0. -1.
<mgrwt>
<rscale>  1 0.58913136E+03</rscale>
<asrwt>0</asrwt>
<pdfrwt beam="2">  1       21 0.41684156E-01 0.10139090E+04</pdfrwt>
<pdfrwt beam="1">  1        4 0.22216233E+00 0.10139090E+04</pdfrwt>
<totfact> 0.20916250E+01</totfact>
</mgrwt>
</event>
<event>
 6    1  0.1412458E-005  0.9257863E+03  0.7818608E-02  0.9944606E-01
         21   -1    0    0  501  502  0.00000000000E+00  0.00000000000E+00  0.17590213253E+03  0.17590213253E+03  0.00000000000E+00 0.  1.
          4   -1    0    0  502    0 -0.00000000000E+00 -0.00000000000E+00 -0.16411436321E+04  0.16411436321E+04  0.00000000000E+00 0.  1.
    9000010    2    1    2  501    0  0.97005264903E+02 -0.10652450668E+03 -0.12048708531E+04  0.15194716115E+04  0.91450681429E+03 0.  0.
        -13    1    3    3    0    0  0.44192532382E+03 -0.28818094138E+03 -0.79205459522E+03  0.95168100736E+03  0.10566000000E+00 0.  1.
          4    1    3    3  501    0 -0.34492005891E+03  0.18165643471E+03 -0.41281625790E+03  0.56779060410E+03  0.00000000000E+00 0.  1.
         13    1    1    2    0    0 -0.97005264903E+02  0.10652450668E+03 -0.26037064648E+03  0.29757415321E+03  0.10566000000E+00 0. -1.
<mgrwt>
<rscale>  1 0.58147352E+03</rscale>
<asrwt>0</asrwt>
<pdfrwt beam="1">  1       21 0.27061866E-01 0.92578626E+03</pdfrwt>
<pdfrwt beam="2">  1        4 0.25248364E+00 0.92578626E+03</pdfrwt>
<totfact> 0.33026441E+01</totfact>
</mgrwt>
</event>
<event>
 6    1  0.1412458E-005  0.1352301E+04  0.7818608E-02  0.9093415E-01
         21   -1    0    0  501  502  0.00000000000E+00  0.00000000000E+00  0.99584520284E+03  0.99584520284E+03  0.00000000000E+00 0. -1.
          4   -1    0    0  502    0 -0.00000000000E+00 -0.00000000000E+00 -0.13441351710E+04  0.13441351710E+04  0.00000000000E+00 0.  1.
    9000010    2    1    2  501    0  0.82900341849E+03 -0.35821426126E+03  0.49409780248E+02  0.13532031822E+04  0.10065552152E+04 0.  0.
        -13    1    3    3    0    0  0.53592029165E+03 -0.70866700244E+03 -0.32397522461E+02  0.88908328630E+03  0.10566000000E+00 0.  1.
          4    1    3    3  501    0  0.29308312683E+03  0.35045274118E+03  0.81807302708E+02  0.46411989594E+03  0.00000000000E+00 0.  1.
         13    1    1    2    0    0 -0.82900341849E+03  0.35821426126E+03 -0.39769974843E+03  0.98677719162E+03  0.10566000000E+00 0. -1.
<mgrwt>
<rscale>  1 0.12224673E+04</rscale>
<asrwt>0</asrwt>
<pdfrwt beam="1">  1       21 0.15320695E+00 0.13523008E+04</pdfrwt>
<pdfrwt beam="2">  1        4 0.20679003E+00 0.13523008E+04</pdfrwt>
<totfact> 0.11206241E+00</totfact>
</mgrwt>
</event>
<event>
 6    1  0.1412458E-005  0.1180447E+04  0.7818608E-02  0.9297316E-01
          4   -1    0    0  502    0 -0.00000000000E+00  0.00000000000E+00  0.78370026837E+03  0.78370026837E+03  0.00000000000E+00 0.  1.
         21   -1    0    0  501  502  0.00000000000E+00 -0.00000000000E+00 -0.12663739741E+04  0.12663739741E+04  0.00000000000E+00 0.  1.
    9000010    2    1    2  501    0 -0.62615301966E+03 -0.95427134733E+02 -0.70954725840E+03  0.13772848534E+04  0.99613368245E+03 0.  0.
        -13    1    3    3    0    0 -0.80816927064E+03  0.20066681415E+03 -0.51130708846E+03  0.97715898921E+03  0.10566000000E+00 0.  1.
          4    1    3    3  501    0  0.18201625098E+03 -0.29609394888E+03 -0.19824016994E+03  0.40012586415E+03  0.00000000000E+00 0.  1.
         13    1    1    2    0    0  0.62615301966E+03  0.95427134733E+02  0.22687355265E+03  0.67278938914E+03  0.10566000000E+00 0. -1.
<mgrwt>
<rscale>  1 0.10103029E+04</rscale>
<asrwt>0</asrwt>
<pdfrwt beam="2">  1       21 0.19482676E+00 0.11804475E+04</pdfrwt>
<pdfrwt beam="1">  1        4 0.12056927E+00 0.11804475E+04</pdfrwt>
<totfact> 0.25046899E+00</totfact>
</mgrwt>
</event>
<event>
 6    1  0.1412458E-005  0.1060754E+04  0.7818608E-02  0.9645801E-01
         21   -1    0    0  501  502  0.00000000000E+00  0.00000000000E+00  0.64548054643E+03  0.64548054643E+03  0.00000000000E+00 0.  1.
          4   -1    0    0  502    0 -0.00000000000E+00 -0.00000000000E+00 -0.99842508557E+03  0.99842508557E+03  0.00000000000E+00 0.  1.
    9000010    2    1    2  501    0 -0.23717454286E+03 -0.95962197889E+02  0.15802495123E+03  0.10724598004E+04  0.10294355886E+04 0.  0.
        -13    1    3    3    0    0  0.14936464375E+03 -0.28528231115E+03 -0.30270884094E+03  0.44195978030E+03  0.10566000000E+00 0.  1.
          4    1    3    3  501    0 -0.38653918661E+03  0.18932011326E+03  0.46073379218E+03  0.63050002008E+03  0.00000000000E+00 0.  1.
         13    1    1    2    0    0  0.23717454286E+03  0.95962197889E+02 -0.51096949038E+03  0.57144583162E+03  0.10566000000E+00 0. -1.
<mgrwt>
<rscale>  1 0.74337561E+03</rscale>
<asrwt>0</asrwt>
<pdfrwt beam="1">  1       21 0.99304700E-01 0.10607536E+04</pdfrwt>
<pdfrwt beam="2">  1        4 0.15360386E+00 0.10607536E+04</pdfrwt>
<totfact> 0.86209569E+00</totfact>
</mgrwt>
</event>
<event>
 6    1  0.1412458E-005  0.1025184E+04  0.7818608E-02  0.9663848E-01
         21   -1    0    0  501  502  0.00000000000E+00  0.00000000000E+00  0.17286807199E+04  0.17286807199E+04  0.00000000000E+00 0.  1.
          4   -1    0    0  502    0 -0.00000000000E+00 -0.00000000000E+00 -0.26641490134E+03  0.26641490134E+03  0.00000000000E+00 0.  1.
    9000010    2    1    2  501    0 -0.15639469517E+03 -0.21593295019E+03  0.13738548041E+04  0.17141990953E+04  0.98990665002E+03 0.  0.
        -13    1    3    3    0    0 -0.33622333689E+03  0.27609152917E+03  0.93329390007E+03  0.10297136397E+04  0.10566000000E+00 0.  1.
          4    1    3    3  501    0  0.17982864172E+03 -0.49202447937E+03  0.44056090404E+03  0.68448545554E+03  0.00000000000E+00 0.  1.
         13    1    1    2    0    0  0.15639469517E+03  0.21593295019E+03  0.88411014424E+02  0.28089652595E+03  0.10566000000E+00 0. -1.
<mgrwt>
<rscale>  1 0.73210695E+03</rscale>
<asrwt>0</asrwt>
<pdfrwt beam="1">  1       21 0.26595087E+00 0.10251836E+04</pdfrwt>
<pdfrwt beam="2">  1        4 0.40986909E-01 0.10251836E+04</pdfrwt>
<totfact> 0.99862020E+00</totfact>
</mgrwt>
</event>
<event>
 6    1  0.1412458E-005  0.9832424E+03  0.7818608E-02  0.1035515E+00
          4   -1    0    0  502    0 -0.00000000000E+00  0.00000000000E+00  0.35686726953E+03  0.35686726953E+03  0.00000000000E+00 0.  1.
         21   -1    0    0  501  502  0.00000000000E+00 -0.00000000000E+00 -0.11298217272E+04  0.11298217272E+04  0.00000000000E+00 0.  1.
    9000010    2    1    2  501    0  0.20754301529E+02  0.27254764804E+02 -0.91345331902E+03  0.13420739753E+04  0.98264542223E+03 0.  0.
        -13    1    3    3    0    0  0.50099065518E+03  0.13656849648E+02 -0.42765373636E+03  0.65883675938E+03  0.10566000000E+00 0.  1.
          4    1    3    3  501    0 -0.48023635365E+03  0.13597915156E+02 -0.48579958266E+03  0.68323721589E+03  0.00000000000E+00 0.  1.
         13    1    1    2    0    0 -0.20754301529E+02 -0.27254764804E+02  0.14049886133E+03  0.14461502147E+03  0.10566000000E+00 0. -1.
<mgrwt>
<rscale>  1 0.42479977E+03</rscale>
<asrwt>0</asrwt>
<pdfrwt beam="2">  1       21 0.17381872E+00 0.98324239E+03</pdfrwt>
<pdfrwt beam="1">  1        4 0.54902658E-01 0.98324239E+03</pdfrwt>
<totfact> 0.22488035E+01</totfact>
</mgrwt>
</event>
<event>
 6    1  0.1412458E-005  0.1007390E+04  0.7818608E-02  0.9831140E-01
         21   -1    0    0  501  502  0.00000000000E+00  0.00000000000E+00  0.26173934868E+04  0.26173934868E+04  0.00000000000E+00 0.  1.
          4   -1    0    0  502    0 -0.00000000000E+00 -0.00000000000E+00 -0.14619737462E+03  0.14619737462E+03  0.00000000000E+00 0.  1.
    9000010    2    1    2  501    0 -0.16111527793E+03 -0.61397903080E+01  0.23647642635E+04  0.25703977472E+04  0.99440370416E+03 0.  0.
        -13    1    3    3    0    0  0.39075854737E+03  0.78252371968E+02  0.60722739491E+03  0.72632003714E+03  0.10566000000E+00 0.  1.
          4    1    3    3  501    0 -0.55187382530E+03 -0.84392162276E+02  0.17575368686E+04  0.18440777101E+04  0.00000000000E+00 0.  1.
         13    1    1    2    0    0  0.16111527793E+03  0.61397903080E+01  0.10643184861E+03  0.19319311419E+03  0.10566000000E+00 0. -1.
<mgrwt>
<rscale>  1 0.63717863E+03</rscale>
<asrwt>0</asrwt>
<pdfrwt beam="1">  1       21 0.40267589E+00 0.10073900E+04</pdfrwt>
<pdfrwt beam="2">  1        4 0.22491906E-01 0.10073900E+04</pdfrwt>
<totfact> 0.44464499E+00</totfact>
</mgrwt>
</event>
<event>
 6    1  0.1412458E-005  0.8149357E+03  0.7818608E-02  0.1012488E+00
          4   -1    0    0  502    0 -0.00000000000E+00  0.00000000000E+00  0.28491073552E+03  0.28491073552E+03  0.00000000000E+00 0.  1.
         21   -1    0    0  501  502  0.00000000000E+00 -0.00000000000E+00 -0.12463444153E+04  0.12463444153E+04  0.00000000000E+00 0.  1.
    9000010    2    1    2  501    0  0.11609419362E+03  0.30950183814E+02 -0.10862800225E+04  0.13579854300E+04  0.80603000259E+03 0.  0.
        -13    1    3    3    0    0  0.35890715341E+03  0.15703534829E+03 -0.21952060944E+03  0.44906987709E+03  0.10566000000E+00 0.  1.
          4    1    3    3  501    0 -0.24281295979E+03 -0.12608516447E+03 -0.86675941309E+03  0.90891555291E+03  0.00000000000E+00 0.  1.
         13    1    1    2    0    0 -0.11609419362E+03 -0.30950183814E+02  0.12484634279E+03  0.17326972079E+03  0.10566000000E+00 0. -1.
<mgrwt>
<rscale>  1 0.50497811E+03</rscale>
<asrwt>0</asrwt>
<pdfrwt beam="2">  1       21 0.19174529E+00 0.81493567E+03</pdfrwt>
<pdfrwt beam="1">  1        4 0.43832421E-01 0.81493567E+03</pdfrwt>
<totfact> 0.27436789E+01</totfact>
</mgrwt>
</event>
<event>
 6    1  0.1412458E-005  0.1009199E+04  0.7818608E-02  0.9993054E-01
          4   -1    0    0  502    0 -0.00000000000E+00  0.00000000000E+00  0.13757682855E+04  0.13757682855E+04  0.00000000000E+00 0.  1.
         21   -1    0    0  501  502  0.00000000000E+00 -0.00000000000E+00 -0.25663000784E+03  0.25663000784E+03  0.00000000000E+00 0.  1.
    9000010    2    1    2  501    0  0.57402164570E+02  0.76171192199E+02  0.76703727574E+03  0.12676076880E+04  0.10046820439E+04 0.  0.
        -13    1    3    3    0    0  0.36560229819E+03  0.34416218610E+01  0.86255949236E+03  0.93684885346E+03  0.10566000000E+00 0.  1.
          4    1    3    3  501    0 -0.30820013362E+03  0.72729570338E+02 -0.95522216626E+02  0.33075883455E+03  0.00000000000E+00 0.  1.
         13    1    1    2    0    0 -0.57402164570E+02 -0.76171192199E+02  0.35210100187E+03  0.36479060528E+03  0.10566000000E+00 0. -1.
<mgrwt>
<rscale>  1 0.55955834E+03</rscale>
<asrwt>0</asrwt>
<pdfrwt beam="2">  1       21 0.39481540E-01 0.10091992E+04</pdfrwt>
<pdfrwt beam="1">  1        4 0.21165666E+00 0.10091992E+04</pdfrwt>
<totfact> 0.27388249E+01</totfact>
</mgrwt>
</event>
<event>
 6    1  0.1412458E-005  0.1016292E+04  0.7818608E-02  0.1001395E+00
         21   -1    0    0  501  502  0.00000000000E+00  0.00000000000E+00  0.50535457893E+03  0.50535457893E+03  0.00000000000E+00 0.  1.
          4   -1    0    0  502    0 -0.00000000000E+00 -0.00000000000E+00 -0.63230328453E+03  0.63230328453E+03  0.00000000000E+00 0.  1.
    9000010    2    1    2  501    0  0.37348827589E+00  0.87444999348E+02 -0.44179094090E+02  0.10172519369E+04  0.10125230582E+04 0.  0.
        -13    1    3    3    0    0 -0.31650171511E+03  0.43247886680E+03 -0.10099872029E+03  0.54535498399E+03  0.10566000000E+00 0.  1.
          4    1    3    3  501    0  0.31687520339E+03 -0.34503386745E+03  0.56819626198E+02  0.47189695288E+03  0.00000000000E+00 0.  1.
         13    1    1    2    0    0 -0.37348827589E+00 -0.87444999348E+02 -0.82769611515E+02  0.12040592659E+03  0.10566000000E+00 0. -1.
<mgrwt>
<rscale>  1 0.55042574E+03</rscale>
<asrwt>0</asrwt>
<pdfrwt beam="1">  1       21 0.77746858E-01 0.10162921E+04</pdfrwt>
<pdfrwt beam="2">  1        4 0.97277428E-01 0.10162921E+04</pdfrwt>
<totfact> 0.49702926E+01</totfact>
</mgrwt>
</event>
<event>
 6    1  0.1412458E-005  0.1011427E+04  0.7818608E-02  0.1020023E+00
         21   -1    0    0  501  502  0.00000000000E+00  0.00000000000E+00  0.13808136894E+04  0.13808136894E+04  0.00000000000E+00 0.  1.
          4   -1    0    0  502    0 -0.00000000000E+00 -0.00000000000E+00 -0.27319347771E+03  0.27319347771E+03  0.00000000000E+00 0.  1.
    9000010    2    1    2  501    0  0.27628112121E+02 -0.41605958181E+02  0.11874665507E+04  0.15598274594E+04  0.10101933111E+04 0.  0.
        -13    1    3    3    0    0 -0.45154308980E+03  0.98543879329E+02  0.81508868804E+03  0.93700140802E+03  0.10566000000E+00 0.  1.
          4    1    3    3  501    0  0.47917120192E+03 -0.14014983751E+03  0.37237786267E+03  0.62282605141E+03  0.00000000000E+00 0.  1.
         13    1    1    2    0    0 -0.27628112121E+02  0.41605958181E+02 -0.79846338975E+02  0.94179707726E+02  0.10566000000E+00 0. -1.
<mgrwt>
<rscale>  1 0.47678356E+03</rscale>
<asrwt>0</asrwt>
<pdfrwt beam="1">  1       21 0.21243287E+00 0.10114272E+04</pdfrwt>
<pdfrwt beam="2">  1        4 0.42029767E-01 0.10114272E+04</pdfrwt>
<totfact> 0.21045889E+01</totfact>
</mgrwt>
</event>
<event>
 6    1  0.1412458E-005  0.1017092E+04  0.7818608E-02  0.9796606E-01
         21   -1    0    0  501  502  0.00000000000E+00  0.00000000000E+00  0.26157827404E+04  0.26157827404E+04  0.00000000000E+00 0.  1.
          4   -1    0    0  502    0 -0.00000000000E+00 -0.00000000000E+00 -0.20468210025E+03  0.20468210025E+03  0.00000000000E+00 0.  1.
    9000010    2    1    2  501    0  0.17528953838E+03  0.67396139603E+01  0.24392469670E+04  0.26428020377E+04  0.10018507871E+04 0.  0.
        -13    1    3    3    0    0  0.85771761217E+02  0.30565579129E+01  0.25204345281E+04  0.25218953902E+04  0.10566000000E+00 0.  1.
          4    1    3    3  501    0  0.89517777164E+02  0.36830560474E+01 -0.81187561076E+02  0.12090664748E+03  0.00000000000E+00 0.  1.
         13    1    1    2    0    0 -0.17528953838E+03 -0.67396139603E+01 -0.28146326904E+02  0.17766280293E+03  0.10566000000E+00 0. -1.
<mgrwt>
<rscale>  1 0.65544990E+03</rscale>
<asrwt>0</asrwt>
<pdfrwt beam="1">  1       21 0.40242809E+00 0.10170923E+04</pdfrwt>
<pdfrwt beam="2">  1        4 0.31489556E-01 0.10170923E+04</pdfrwt>
<totfact> 0.23278825E+00</totfact>
</mgrwt>
</event>
<event>
 6    1  0.1412458E-005  0.9623620E+03  0.7818608E-02  0.9872396E-01
          4   -1    0    0  502    0 -0.00000000000E+00  0.00000000000E+00  0.66704885096E+03  0.66704885096E+03  0.00000000000E+00 0.  1.
         21   -1    0    0  501  502  0.00000000000E+00 -0.00000000000E+00 -0.51555452669E+03  0.51555452669E+03  0.00000000000E+00 0.  1.
    9000010    2    1    2  501    0  0.15352836076E+03  0.50876735094E+02  0.20087604929E+01  0.96236408807E+03  0.94867339119E+03 0.  0.
        -13    1    3    3    0    0  0.35407448259E+03  0.41476897632E+03  0.27934274852E+02  0.54606078217E+03  0.10566000000E+00 0.  1.
          4    1    3    3  501    0 -0.20054612183E+03 -0.36389224123E+03 -0.25925514359E+02  0.41630330590E+03  0.00000000000E+00 0.  1.
         13    1    1    2    0    0 -0.15352836076E+03 -0.50876735094E+02  0.14948556378E+03  0.22023928958E+03  0.10566000000E+00 0. -1.
<mgrwt>
<rscale>  1 0.61617964E+03</rscale>
<asrwt>0</asrwt>
<pdfrwt beam="2">  1       21 0.79316081E-01 0.96236199E+03</pdfrwt>
<pdfrwt beam="1">  1        4 0.10262290E+00 0.96236199E+03</pdfrwt>
<totfact> 0.41876357E+01</totfact>
</mgrwt>
</event>
<event>
 6    1  0.1412458E-005  0.1040202E+04  0.7818608E-02  0.9756190E-01
          4   -1    0    0  502    0 -0.00000000000E+00  0.00000000000E+00  0.61881253879E+03  0.61881253879E+03  0.00000000000E+00 0.  1.
         21   -1    0    0  501  502  0.00000000000E+00 -0.00000000000E+00 -0.60964427602E+03  0.60964427602E+03  0.00000000000E+00 0.  1.
    9000010    2    1    2  501    0  0.10893834506E+03  0.15246490394E+03 -0.85388677538E+01  0.10402370932E+04  0.10231848259E+04 0.  0.
        -13    1    3    3    0    0  0.56477273601E+03  0.60566812720E+02 -0.65417474096E+02  0.57176572057E+03  0.10566000000E+00 0.  1.
          4    1    3    3  501    0 -0.45583439095E+03  0.91898091221E+02  0.56878606342E+02  0.46847137266E+03  0.00000000000E+00 0.  1.
         13    1    1    2    0    0 -0.10893834506E+03 -0.15246490394E+03  0.17707130525E+02  0.18821972159E+03  0.10566000000E+00 0. -1.
<mgrwt>
<rscale>  1 0.67767577E+03</rscale>
<asrwt>0</asrwt>
<pdfrwt beam="2">  1       21 0.93791427E-01 0.10402020E+04</pdfrwt>
<pdfrwt beam="1">  1        4 0.95201929E-01 0.10402020E+04</pdfrwt>
<totfact> 0.33365492E+01</totfact>
</mgrwt>
</event>
<event>
 6    1  0.1412458E-005  0.9945005E+03  0.7818608E-02  0.1004916E+00
         21   -1    0    0  501  502  0.00000000000E+00  0.00000000000E+00  0.77400230508E+03  0.77400230508E+03  0.00000000000E+00 0.  1.
          4   -1    0    0  502    0 -0.00000000000E+00 -0.00000000000E+00 -0.41812585243E+03  0.41812585243E+03  0.00000000000E+00 0.  1.
    9000010    2    1    2  501    0 -0.83520631396E+02  0.31648735758E+01  0.42708415619E+03  0.10823271534E+04  0.99098207767E+03 0.  0.
        -13    1    3    3    0    0  0.28147277786E+03 -0.16126336051E+03  0.57117276836E+03  0.65686462731E+03  0.10566000000E+00 0.  1.
          4    1    3    3  501    0 -0.36499340926E+03  0.16442823408E+03 -0.14408861218E+03  0.42546252611E+03  0.00000000000E+00 0.  1.
         13    1    1    2    0    0  0.83520631396E+02 -0.31648735758E+01 -0.71207703538E+02  0.10980100410E+03  0.10566000000E+00 0. -1.
<mgrwt>
<rscale>  1 0.53546387E+03</rscale>
<asrwt>0</asrwt>
<pdfrwt beam="1">  1       21 0.11907728E+00 0.99450047E+03</pdfrwt>
<pdfrwt beam="2">  1        4 0.64327054E-01 0.99450047E+03</pdfrwt>
<totfact> 0.45139771E+01</totfact>
</mgrwt>
</event>
<event>
 6    1  0.1412458E-005  0.1082077E+04  0.7818608E-02  0.9460197E-01
         21   -1    0    0  501  502  0.00000000000E+00  0.00000000000E+00  0.66382582043E+03  0.66382582043E+03  0.00000000000E+00 0.  1.
          4   -1    0    0  502    0 -0.00000000000E+00 -0.00000000000E+00 -0.10187408042E+04  0.10187408042E+04  0.00000000000E+00 0.  1.
    9000010    2    1    2  501    0  0.30875857803E+02 -0.45704234201E+03  0.32587377465E+02  0.10825673645E+04  0.98033113823E+03 0.  0.
        -13    1    3    3    0    0 -0.63278827985E+02 -0.26537683846E+03  0.49949529939E+03  0.56914377950E+03  0.10566000000E+00 0.  1.
          4    1    3    3  501    0  0.94154685788E+02 -0.19166550356E+03 -0.46690792193E+03  0.51342358503E+03  0.00000000000E+00 0.  1.
         13    1    1    2    0    0 -0.30875857803E+02  0.45704234201E+03 -0.38750236120E+03  0.59999926007E+03  0.10566000000E+00 0. -1.
<mgrwt>
<rscale>  1 0.87283039E+03</rscale>
<asrwt>0</asrwt>
<pdfrwt beam="1">  1       21 0.10212705E+00 0.10820768E+04</pdfrwt>
<pdfrwt beam="2">  1        4 0.15672935E+00 0.10820768E+04</pdfrwt>
<totfact> 0.75926301E+00</totfact>
</mgrwt>
</event>
<event>
 6    1  0.1412458E-005  0.9927403E+03  0.7818608E-02  0.1023315E+00
         21   -1    0    0  501  502  0.00000000000E+00  0.00000000000E+00  0.24594220972E+03  0.24594220972E+03  0.00000000000E+00 0.  1.
          4   -1    0    0  502    0 -0.00000000000E+00 -0.00000000000E+00 -0.12704530135E+04  0.12704530135E+04  0.00000000000E+00 0.  1.
    9000010    2    1    2  501    0  0.22570289601E+02 -0.42163367912E+02 -0.76710646174E+03  0.12545858001E+04  0.99158763537E+03 0.  0.
        -13    1    3    3    0    0 -0.39497509879E+03 -0.17027056444E+03 -0.75609649553E+02  0.43670839705E+03  0.10566000000E+00 0.  1.
          4    1    3    3  501    0  0.41754538839E+03  0.12810719653E+03 -0.69149681219E+03  0.81787740306E+03  0.00000000000E+00 0.  1.
         13    1    1    2    0    0 -0.22570289601E+02  0.42163367912E+02 -0.25740434201E+03  0.26180942309E+03  0.10566000000E+00 0. -1.
<mgrwt>
<rscale>  1 0.46509239E+03</rscale>
<asrwt>0</asrwt>
<pdfrwt beam="1">  1       21 0.37837263E-01 0.99274025E+03</pdfrwt>
<pdfrwt beam="2">  1        4 0.19545431E+00 0.99274025E+03</pdfrwt>
<totfact> 0.38297899E+01</totfact>
</mgrwt>
</event>
<event>
 6    1  0.1412458E-005  0.9125276E+03  0.7818608E-02  0.9959144E-01
          4   -1    0    0  502    0 -0.00000000000E+00  0.00000000000E+00  0.16045056128E+04  0.16045056128E+04  0.00000000000E+00 0.  1.
         21   -1    0    0  501  502  0.00000000000E+00 -0.00000000000E+00 -0.19821278273E+03  0.19821278273E+03  0.00000000000E+00 0.  1.
    9000010    2    1    2  501    0  0.58547901538E+02 -0.13117019399E+03  0.13834067106E+04  0.16572630340E+04  0.90115101979E+03 0.  0.
        -13    1    3    3    0    0 -0.17937286887E+03 -0.44795890880E+03  0.53227853906E+03  0.71844433630E+03  0.10566000000E+00 0.  1.
          4    1    3    3  501    0  0.23792077041E+03  0.31678871481E+03  0.85112817150E+03  0.93881869770E+03  0.00000000000E+00 0.  1.
         13    1    1    2    0    0 -0.58547901538E+02  0.13117019399E+03  0.22886119501E+02  0.14545536152E+03  0.10566000000E+00 0. -1.
<mgrwt>
<rscale>  1 0.57478595E+03</rscale>
<asrwt>0</asrwt>
<pdfrwt beam="2">  1       21 0.30494275E-01 0.91252761E+03</pdfrwt>
<pdfrwt beam="1">  1        4 0.24684701E+00 0.91252761E+03</pdfrwt>
<totfact> 0.28205470E+01</totfact>
</mgrwt>
</event>
<event>
 6    1  0.1412458E-005  0.1025916E+04  0.7818608E-02  0.9678641E-01
          4   -1    0    0  502    0 -0.00000000000E+00  0.00000000000E+00  0.14837688505E+04  0.14837688505E+04  0.00000000000E+00 0.  1.
         21   -1    0    0  501  502  0.00000000000E+00 -0.00000000000E+00 -0.41840958543E+03  0.41840958543E+03  0.00000000000E+00 0. -1.
    9000010    2    1    2  501    0 -0.11450987062E+03 -0.22571086042E+03  0.12288994072E+04  0.16008425897E+04  0.99420588460E+03 0.  0.
        -13    1    3    3    0    0 -0.32282002738E+03  0.30861224482E+03  0.45440114202E+03  0.63713004698E+03  0.10566000000E+00 0.  1.
          4    1    3    3  501    0  0.20831015677E+03 -0.53432310524E+03  0.77449826513E+03  0.96371254267E+03  0.00000000000E+00 0.  1.
         13    1    1    2    0    0  0.11450987062E+03  0.22571086042E+03 -0.16354014212E+03  0.30133584624E+03  0.10566000000E+00 0. -1.
<mgrwt>
<rscale>  1 0.72302855E+03</rscale>
<asrwt>0</asrwt>
<pdfrwt beam="2">  1       21 0.64370706E-01 0.10259158E+04</pdfrwt>
<pdfrwt beam="1">  1        4 0.22827213E+00 0.10259158E+04</pdfrwt>
<totfact> 0.74172926E+00</totfact>
</mgrwt>
</event>
<event>
 6    1  0.1412458E-005  0.1059064E+04  0.7818608E-02  0.9516420E-01
         21   -1    0    0  501  502  0.00000000000E+00  0.00000000000E+00  0.30531616058E+03  0.30531616058E+03  0.00000000000E+00 0.  1.
          4   -1    0    0  502    0 -0.00000000000E+00 -0.00000000000E+00 -0.20064298238E+04  0.20064298238E+04  0.00000000000E+00 0.  1.
    9000010    2    1    2  501    0  0.30031437929E+03 -0.26595099448E+03 -0.80609467056E+03  0.13309413829E+04  0.98015187037E+03 0.  0.
        -13    1    3    3    0    0  0.44369683696E+03 -0.56687931507E+03 -0.48431634615E+03  0.86762974551E+03  0.10566000000E+00 0.  1.
          4    1    3    3  501    0 -0.14338245767E+03  0.30092832059E+03 -0.32177832440E+03  0.46331163741E+03  0.00000000000E+00 0.  1.
         13    1    1    2    0    0 -0.30031437929E+03  0.26595099448E+03 -0.89501899265E+03  0.98080460146E+03  0.10566000000E+00 0. -1.
<mgrwt>
<rscale>  1 0.83084006E+03</rscale>
<asrwt>0</asrwt>
<pdfrwt beam="1">  1       21 0.46971718E-01 0.10590639E+04</pdfrwt>
<pdfrwt beam="2">  1        4 0.30868151E+00 0.10590639E+04</pdfrwt>
<totfact> 0.46872105E+00</totfact>
</mgrwt>
</event>
<event>
 6    1  0.1412458E-005  0.8029750E+03  0.7818608E-02  0.9927256E-01
         21   -1    0    0  501  502  0.00000000000E+00  0.00000000000E+00  0.34144116968E+03  0.34144116968E+03  0.00000000000E+00 0.  1.
          4   -1    0    0  502    0 -0.00000000000E+00 -0.00000000000E+00 -0.11465016826E+04  0.11465016826E+04  0.00000000000E+00 0.  1.
    9000010    2    1    2  501    0 -0.11154665908E+03 -0.20500344914E+03 -0.18303086053E+03  0.82357099036E+03  0.76830970900E+03 0.  0.
        -13    1    3    3    0    0  0.19906291250E+03 -0.30582379894E+03  0.11382870184E+03  0.38224497859E+03  0.10566000000E+00 0.  1.
          4    1    3    3  501    0 -0.31060957158E+03  0.10082034980E+03 -0.29685956237E+03  0.44132601177E+03  0.00000000000E+00 0.  1.
         13    1    1    2    0    0  0.11154665908E+03  0.20500344914E+03 -0.62202965243E+03  0.66437186197E+03  0.10566000000E+00 0. -1.
<mgrwt>
<rscale>  1 0.58958345E+03</rscale>
<asrwt>0</asrwt>
<pdfrwt beam="1">  1       21 0.52529411E-01 0.80297502E+03</pdfrwt>
<pdfrwt beam="2">  1        4 0.17638487E+00 0.80297502E+03</pdfrwt>
<totfact> 0.26286651E+01</totfact>
</mgrwt>
</event>
<event>
 6    1  0.1412458E-005  0.1000334E+04  0.7818608E-02  0.1008614E+00
          4   -1    0    0  502    0 -0.00000000000E+00  0.00000000000E+00  0.65463936993E+03  0.65463936993E+03  0.00000000000E+00 0.  1.
         21   -1    0    0  501  502  0.00000000000E+00 -0.00000000000E+00 -0.62879533386E+03  0.62879533386E+03  0.00000000000E+00 0.  1.
    9000010    2    1    2  501    0  0.69989057166E+02  0.21465003013E+02 -0.22228374774E+03  0.10247329010E+04  0.99765136169E+03 0.  0.
        -13    1    3    3    0    0  0.32153665682E+02 -0.47079991845E+03  0.24984028161E+02  0.47255754597E+03  0.10566000000E+00 0.  1.
          4    1    3    3  501    0  0.37835391484E+02  0.49226492146E+03 -0.24726777590E+03  0.55217535507E+03  0.00000000000E+00 0.  1.
         13    1    1    2    0    0 -0.69989057166E+02 -0.21465003013E+02  0.24812778382E+03  0.25870180274E+03  0.10566000000E+00 0. -1.
<mgrwt>
<rscale>  1 0.52029113E+03</rscale>
<asrwt>0</asrwt>
<pdfrwt beam="2">  1       21 0.96737744E-01 0.10003337E+04</pdfrwt>
<pdfrwt beam="1">  1        4 0.10071375E+00 0.10003337E+04</pdfrwt>
<totfact> 0.27124870E+01</totfact>
</mgrwt>
</event>
<event>
 6    1  0.1412458E-005  0.1032990E+04  0.7818608E-02  0.9695121E-01
         21   -1    0    0  501  502  0.00000000000E+00  0.00000000000E+00  0.15785778087E+03  0.15785778087E+03  0.00000000000E+00 0.  1.
          4   -1    0    0  502    0 -0.00000000000E+00 -0.00000000000E+00 -0.29161312013E+04  0.29161312013E+04  0.00000000000E+00 0.  1.
    9000010    2    1    2  501    0  0.16519824858E+02  0.23398399381E+03 -0.16935128722E+04  0.19836970716E+04  0.10060053726E+04 0.  0.
        -13    1    3    3    0    0  0.40925620113E+03  0.21319943348E+03 -0.14487473977E+04  0.15204649519E+04  0.10566000000E+00 0.  1.
          4    1    3    3  501    0 -0.39273637627E+03  0.20784560328E+02 -0.24476547451E+03  0.46323211968E+03  0.00000000000E+00 0.  1.
         13    1    1    2    0    0 -0.16519824858E+02 -0.23398399381E+03 -0.10647605482E+04  0.10902919105E+04  0.10566000000E+00 0. -1.
<mgrwt>
<rscale>  1 0.71308048E+03</rscale>
<asrwt>0</asrwt>
<pdfrwt beam="1">  1       21 0.24285812E-01 0.10329899E+04</pdfrwt>
<pdfrwt beam="2">  1        4 0.44863557E+00 0.10329899E+04</pdfrwt>
<totfact> 0.20628351E+00</totfact>
</mgrwt>
</event>
<event>
 6    1  0.1412458E-005  0.1033987E+04  0.7818608E-02  0.9645891E-01
         21   -1    0    0  501  502  0.00000000000E+00  0.00000000000E+00  0.65462168343E+03  0.65462168343E+03  0.00000000000E+00 0.  1.
          4   -1    0    0  502    0 -0.00000000000E+00 -0.00000000000E+00 -0.65979009438E+03  0.65979009438E+03  0.00000000000E+00 0.  1.
    9000010    2    1    2  501    0 -0.26938821522E+03 -0.60764130052E+02  0.39119528479E+02  0.10347267358E+04  0.99642701198E+03 0.  0.
        -13    1    3    3    0    0  0.58959117468E+02  0.71756603729E+02  0.46882309311E+03  0.47793335468E+03  0.10566000000E+00 0.  1.
          4    1    3    3  501    0 -0.32834733268E+03 -0.13252073378E+03 -0.42970356464E+03  0.55679338109E+03  0.00000000000E+00 0.  1.
         13    1    1    2    0    0  0.26938821522E+03  0.60764130052E+02 -0.44287939429E+02  0.27968504204E+03  0.10566000000E+00 0. -1.
<mgrwt>
<rscale>  1 0.74331867E+03</rscale>
<asrwt>0</asrwt>
<pdfrwt beam="1">  1       21 0.10071103E+00 0.10339870E+04</pdfrwt>
<pdfrwt beam="2">  1        4 0.10150617E+00 0.10339870E+04</pdfrwt>
<totfact> 0.24020130E+01</totfact>
</mgrwt>
</event>
<event>
 6    1  0.1412458E-005  0.1565069E+04  0.7818608E-02  0.8909165E-01
         21   -1    0    0  501  502  0.00000000000E+00  0.00000000000E+00  0.17101070360E+04  0.17101070360E+04  0.00000000000E+00 0. -1.
          4   -1    0    0  502    0 -0.00000000000E+00 -0.00000000000E+00 -0.11170267147E+04  0.11170267147E+04  0.00000000000E+00 0.  1.
    9000010    2    1    2  501    0  0.11289314808E+04  0.39585825028E+03  0.27265249183E+03  0.15886410992E+04  0.10090842969E+04 0.  0.
        -13    1    3    3    0    0  0.68237898477E+03  0.35157951790E+03  0.64726040804E+03  0.10040892805E+04  0.10566000000E+00 0.  1.
          4    1    3    3  501    0  0.44655249606E+03  0.44278732373E+02 -0.37460791622E+03  0.58455181872E+03  0.00000000000E+00 0.  1.
         13    1    1    2    0    0 -0.11289314808E+04 -0.39585825028E+03  0.32042782949E+03  0.12384926515E+04  0.10566000000E+00 0. -1.
<mgrwt>
<rscale>  1 0.14633976E+04</rscale>
<asrwt>0</asrwt>
<pdfrwt beam="1">  1       21 0.26309339E+00 0.15650691E+04</pdfrwt>
<pdfrwt beam="2">  1        4 0.17185026E+00 0.15650691E+04</pdfrwt>
<totfact> 0.32509432E-01</totfact>
</mgrwt>
</event>
<event>
 6    1  0.1412458E-005  0.1037496E+04  0.7818608E-02  0.9609778E-01
         21   -1    0    0  501  502  0.00000000000E+00  0.00000000000E+00  0.13827407251E+04  0.13827407251E+04  0.00000000000E+00 0.  1.
          4   -1    0    0  502    0 -0.00000000000E+00 -0.00000000000E+00 -0.32790138470E+03  0.32790138470E+03  0.00000000000E+00 0.  1.
    9000010    2    1    2  501    0  0.29021780800E+03 -0.10647023145E+03  0.82032374673E+03  0.13226216708E+04  0.99037101547E+03 0.  0.
        -13    1    3    3    0    0  0.43310741257E+03 -0.17269849268E+03 -0.20943882907E+02  0.46673917512E+03  0.10566000000E+00 0.  1.
          4    1    3    3  501    0 -0.14288960457E+03  0.66228261234E+02  0.84126762964E+03  0.85588249565E+03  0.00000000000E+00 0.  1.
         13    1    1    2    0    0 -0.29021780800E+03  0.10647023145E+03  0.23451559366E+03  0.38802043902E+03  0.10566000000E+00 0. -1.
<mgrwt>
<rscale>  1 0.76652356E+03</rscale>
<asrwt>0</asrwt>
<pdfrwt beam="1">  1       21 0.21272934E+00 0.10374956E+04</pdfrwt>
<pdfrwt beam="2">  1        4 0.50446368E-01 0.10374956E+04</pdfrwt>
<totfact> 0.14271831E+01</totfact>
</mgrwt>
</event>
<event>
 6    1  0.1412458E-005  0.1343914E+04  0.7818608E-02  0.9100107E-01
         21   -1    0    0  501  502  0.00000000000E+00  0.00000000000E+00  0.16036097876E+04  0.16036097876E+04  0.00000000000E+00 0. -1.
          4   -1    0    0  502    0 -0.00000000000E+00 -0.00000000000E+00 -0.92903581240E+03  0.92903581240E+03  0.00000000000E+00 0.  1.
    9000010    2    1    2  501    0 -0.89124799889E+03 -0.10021023408E+03  0.88793053201E+03  0.16107529176E+04  0.10008692448E+04 0.  0.
        -13    1    3    3    0    0  0.18506227839E+03 -0.11491023621E+03  0.33770190457E+03  0.40186440099E+03  0.10566000000E+00 0.  1.
          4    1    3    3  501    0 -0.10763102773E+04  0.14700002130E+02  0.55022862745E+03  0.12088885166E+04  0.00000000000E+00 0.  1.
         13    1    1    2    0    0  0.89124799889E+03  0.10021023408E+03 -0.21335655677E+03  0.92189268249E+03  0.10566000000E+00 0. -1.
<mgrwt>
<rscale>  1 0.12146753E+04</rscale>
<asrwt>0</asrwt>
<pdfrwt beam="1">  1       21 0.24670920E+00 0.13439138E+04</pdfrwt>
<pdfrwt beam="2">  1        4 0.14292859E+00 0.13439138E+04</pdfrwt>
<totfact> 0.70957510E-01</totfact>
</mgrwt>
</event>
<event>
 6    1  0.1412458E-005  0.1006688E+04  0.7818608E-02  0.9831137E-01
         21   -1    0    0  501  502  0.00000000000E+00  0.00000000000E+00  0.28767749826E+03  0.28767749826E+03  0.00000000000E+00 0.  1.
          4   -1    0    0  502    0 -0.00000000000E+00 -0.00000000000E+00 -0.12334021211E+04  0.12334021211E+04  0.00000000000E+00 0.  1.
    9000010    2    1    2  501    0 -0.14667845939E+03  0.67754767446E+02 -0.69680218689E+03  0.12243176453E+04  0.99363732316E+03 0.  0.
        -13    1    3    3    0    0  0.21593935899E+03 -0.44018578617E+00 -0.81006315898E+03  0.83835096065E+03  0.10566000000E+00 0.  1.
          4    1    3    3  501    0 -0.36261781839E+03  0.68194953232E+02  0.11326097209E+03  0.38596668465E+03  0.00000000000E+00 0.  1.
         13    1    1    2    0    0  0.14667845939E+03 -0.67754767446E+02 -0.24892243595E+03  0.29676197406E+03  0.10566000000E+00 0. -1.
<mgrwt>
<rscale>  1 0.63718007E+03</rscale>
<asrwt>0</asrwt>
<pdfrwt beam="1">  1       21 0.44258077E-01 0.10066878E+04</pdfrwt>
<pdfrwt beam="2">  1        4 0.18975417E+00 0.10066878E+04</pdfrwt>
<totfact> 0.30064088E+01</totfact>
</mgrwt>
</event>
<event>
 6    1  0.1412458E-005  0.1003516E+04  0.7818608E-02  0.1008099E+00
         21   -1    0    0  501  502  0.00000000000E+00  0.00000000000E+00  0.35103293059E+03  0.35103293059E+03  0.00000000000E+00 0.  1.
          4   -1    0    0  502    0 -0.00000000000E+00 -0.00000000000E+00 -0.87683409955E+03  0.87683409955E+03  0.00000000000E+00 0.  1.
    9000010    2    1    2  501    0 -0.67478228963E+02 -0.29583793443E+02 -0.39641992901E+03  0.10789777134E+04  0.10008074908E+04 0.  0.
        -13    1    3    3    0    0  0.49872358716E+02  0.47012344452E+03 -0.29043837687E+03  0.55484931934E+03  0.10566000000E+00 0.  1.
          4    1    3    3  501    0 -0.11735058768E+03 -0.49970723796E+03 -0.10598155214E+03  0.52412839409E+03  0.00000000000E+00 0.  1.
         13    1    1    2    0    0  0.67478228963E+02  0.29583793443E+02 -0.12938123994E+03  0.14888931672E+03  0.10566000000E+00 0. -1.
<mgrwt>
<rscale>  1 0.52237021E+03</rscale>
<asrwt>0</asrwt>
<pdfrwt beam="1">  1       21 0.54005066E-01 0.10035159E+04</pdfrwt>
<pdfrwt beam="2">  1        4 0.13489755E+00 0.10035159E+04</pdfrwt>
<totfact> 0.50241402E+01</totfact>
</mgrwt>
</event>
<event>
 6    1  0.1412458E-005  0.1027654E+04  0.7818608E-02  0.9693523E-01
         21   -1    0    0  501  502  0.00000000000E+00  0.00000000000E+00  0.67577691968E+03  0.67577691968E+03  0.00000000000E+00 0.  1.
          4   -1    0    0  502    0 -0.00000000000E+00 -0.00000000000E+00 -0.13881624428E+04  0.13881624428E+04  0.00000000000E+00 0.  1.
    9000010    2    1    2  501    0 -0.13382522292E+03 -0.19864832807E+03  0.26201622639E+03  0.10605306077E+04  0.99935094859E+03 0.  0.
        -13    1    3    3    0    0 -0.35287754886E+01  0.32451429207E+03 -0.17300589982E+03  0.36776763119E+03  0.10566000000E+00 0.  1.
          4    1    3    3  501    0 -0.13029644743E+03 -0.52316262014E+03  0.43502212622E+03  0.69276297651E+03  0.00000000000E+00 0.  1.
         13    1    1    2    0    0  0.13382522292E+03  0.19864832807E+03 -0.97440174951E+03  0.10034087548E+04  0.10566000000E+00 0. -1.
<mgrwt>
<rscale>  1 0.71403767E+03</rscale>
<asrwt>0</asrwt>
<pdfrwt beam="1">  1       21 0.10396568E+00 0.10276540E+04</pdfrwt>
<pdfrwt beam="2">  1        4 0.21356345E+00 0.10276540E+04</pdfrwt>
<totfact> 0.29535361E+00</totfact>
</mgrwt>
</event>
<event>
 6    1  0.1412458E-005  0.1059658E+04  0.7818608E-02  0.9569635E-01
         21   -1    0    0  501  502  0.00000000000E+00  0.00000000000E+00  0.19143907326E+04  0.19143907326E+04  0.00000000000E+00 0.  1.
          4   -1    0    0  502    0 -0.00000000000E+00 -0.00000000000E+00 -0.27243723877E+03  0.27243723877E+03  0.00000000000E+00 0.  1.
    9000010    2    1    2  501    0 -0.27523095736E+03 -0.18745537872E+03  0.14698008691E+04  0.18119571452E+04  0.10059734104E+04 0.  0.
        -13    1    3    3    0    0 -0.23635439764E+02 -0.20872959784E+03 -0.92396852848E+02  0.22948609676E+03  0.10566000000E+00 0.  1.
          4    1    3    3  501    0 -0.25159551760E+03  0.21274219118E+02  0.15621977219E+04  0.15824710485E+04  0.00000000000E+00 0.  1.
         13    1    1    2    0    0  0.27523095736E+03  0.18745537872E+03  0.17215262474E+03  0.37487082611E+03  0.10566000000E+00 0. -1.
<mgrwt>
<rscale>  1 0.79338957E+03</rscale>
<asrwt>0</asrwt>
<pdfrwt beam="1">  1       21 0.29452164E+00 0.10596575E+04</pdfrwt>
<pdfrwt beam="2">  1        4 0.41913423E-01 0.10596575E+04</pdfrwt>
<totfact> 0.62881455E+00</totfact>
</mgrwt>
</event>
<event>
 6    1  0.1412458E-005  0.1024605E+04  0.7818608E-02  0.9675605E-01
          4   -1    0    0  502    0 -0.00000000000E+00  0.00000000000E+00  0.81434786793E+03  0.81434786793E+03  0.00000000000E+00 0.  1.
         21   -1    0    0  501  502  0.00000000000E+00 -0.00000000000E+00 -0.54106348908E+03  0.54106348908E+03  0.00000000000E+00 0.  1.
    9000010    2    1    2  501    0  0.88318524207E+02  0.24100971792E+03  0.68220359262E+02  0.10268735218E+04  0.99193213808E+03 0.  0.
        -13    1    3    3    0    0  0.52646495459E+03  0.25694449451E+03  0.25770603758E+02  0.58638720727E+03  0.10566000000E+00 0.  1.
          4    1    3    3  501    0 -0.43814643038E+03 -0.15934776590E+02  0.42449755504E+02  0.44048631455E+03  0.00000000000E+00 0.  1.
         13    1    1    2    0    0 -0.88318524207E+02 -0.24100971792E+03  0.20506401959E+03  0.32853783518E+03  0.10566000000E+00 0. -1.
<mgrwt>
<rscale>  1 0.72488038E+03</rscale>
<asrwt>0</asrwt>
<pdfrwt beam="2">  1       21 0.83240537E-01 0.10246049E+04</pdfrwt>
<pdfrwt beam="1">  1        4 0.12528429E+00 0.10246049E+04</pdfrwt>
<totfact> 0.22647497E+01</totfact>
</mgrwt>
</event>
<event>
 6    1  0.1412458E-005  0.1000593E+04  0.7818608E-02  0.1015027E+00
          4   -1    0    0  502    0 -0.00000000000E+00  0.00000000000E+00  0.29011244596E+03  0.29011244596E+03  0.00000000000E+00 0.  1.
         21   -1    0    0  501  502  0.00000000000E+00 -0.00000000000E+00 -0.12082194205E+04  0.12082194205E+04  0.00000000000E+00 0.  1.
    9000010    2    1    2  501    0 -0.57502853724E+02  0.17303664805E+02 -0.98800636475E+03  0.14061801930E+04  0.99878934879E+03 0.  0.
        -13    1    3    3    0    0 -0.23778093456E+02 -0.10735363010E+03 -0.11743370542E+04  0.11794734960E+04  0.10566000000E+00 0.  1.
          4    1    3    3  501    0 -0.33724760268E+02  0.12465729491E+03  0.18633068945E+03  0.22670669699E+03  0.00000000000E+00 0.  1.
         13    1    1    2    0    0  0.57502853724E+02 -0.17303664805E+02  0.69899390247E+02  0.92151673468E+02  0.10566000000E+00 0. -1.
<mgrwt>
<rscale>  1 0.49524645E+03</rscale>
<asrwt>0</asrwt>
<pdfrwt beam="2">  1       21 0.18587991E+00 0.10005929E+04</pdfrwt>
<pdfrwt beam="1">  1        4 0.44632684E-01 0.10005929E+04</pdfrwt>
<totfact> 0.28384663E+01</totfact>
</mgrwt>
</event>
<event>
 6    1  0.1412458E-005  0.1103042E+04  0.7818608E-02  0.9440430E-01
          4   -1    0    0  502    0 -0.00000000000E+00  0.00000000000E+00  0.73775623276E+03  0.73775623276E+03  0.00000000000E+00 0.  1.
         21   -1    0    0  501  502  0.00000000000E+00 -0.00000000000E+00 -0.94154978777E+03  0.94154978777E+03  0.00000000000E+00 0.  1.
    9000010    2    1    2  501    0 -0.25134001317E+03 -0.38975891372E+03 -0.40327938580E+03  0.11744511692E+04  0.10008084096E+04 0.  0.
        -13    1    3    3    0    0  0.34649703413E+03 -0.32483278607E+03 -0.30676348788E+03  0.56540284951E+03  0.10566000000E+00 0.  1.
          4    1    3    3  501    0 -0.59783704731E+03 -0.64926127652E+02 -0.96515897915E+02  0.60904831970E+03  0.00000000000E+00 0.  1.
         13    1    1    2    0    0  0.25134001317E+03  0.38975891372E+03  0.19948583079E+03  0.50485485132E+03  0.10566000000E+00 0. -1.
<mgrwt>
<rscale>  1 0.88821879E+03</rscale>
<asrwt>0</asrwt>
<pdfrwt beam="2">  1       21 0.14485381E+00 0.11030418E+04</pdfrwt>
<pdfrwt beam="1">  1        4 0.11350096E+00 0.11030418E+04</pdfrwt>
<totfact> 0.70198097E+00</totfact>
</mgrwt>
</event>
<event>
 6    1  0.1412458E-005  0.1152860E+04  0.7818608E-02  0.9345046E-01
          4   -1    0    0  502    0 -0.00000000000E+00  0.00000000000E+00  0.41569296695E+03  0.41569296695E+03  0.00000000000E+00 0.  1.
         21   -1    0    0  501  502  0.00000000000E+00 -0.00000000000E+00 -0.17953586235E+04  0.17953586235E+04  0.00000000000E+00 0.  1.
    9000010    2    1    2  501    0 -0.34582502639E+03 -0.45510619977E+03 -0.98618380129E+03  0.15171174556E+04  0.10011844397E+04 0.  0.
        -13    1    3    3    0    0 -0.38983012061E+03  0.12442571390E+03 -0.45984788085E+02  0.41178136567E+03  0.10566000000E+00 0.  1.
          4    1    3    3  501    0  0.44005094218E+02 -0.57953191367E+03 -0.94019901321E+03  0.11053360899E+04  0.00000000000E+00 0.  1.
         13    1    1    2    0    0  0.34582502639E+03  0.45510619977E+03 -0.39348185529E+03  0.69393413488E+03  0.10566000000E+00 0. -1.
<mgrwt>
<rscale>  1 0.96739517E+03</rscale>
<asrwt>0</asrwt>
<pdfrwt beam="2">  1       21 0.27620902E+00 0.11528603E+04</pdfrwt>
<pdfrwt beam="1">  1        4 0.63952764E-01 0.11528603E+04</pdfrwt>
<totfact> 0.32823662E+00</totfact>
</mgrwt>
</event>
<event>
 6    1  0.1412458E-005  0.1120597E+04  0.7818608E-02  0.9418298E-01
          4   -1    0    0  502    0 -0.00000000000E+00  0.00000000000E+00  0.16068577383E+04  0.16068577383E+04  0.00000000000E+00 0.  1.
         21   -1    0    0  501  502  0.00000000000E+00 -0.00000000000E+00 -0.42074139583E+03  0.42074139583E+03  0.00000000000E+00 0. -1.
    9000010    2    1    2  501    0 -0.43742153852E+03 -0.19395872506E+03  0.60048908688E+03  0.12713472693E+04  0.10133011134E+04 0.  0.
        -13    1    3    3    0    0  0.98137386743E+02 -0.47893585028E+03  0.13647821259E+03  0.50757936230E+03  0.10566000000E+00 0.  1.
          4    1    3    3  501    0 -0.53555892526E+03  0.28497712522E+03  0.46401087429E+03  0.76376790701E+03  0.00000000000E+00 0.  1.
         13    1    1    2    0    0  0.43742153852E+03  0.19395872506E+03  0.58562725563E+03  0.75625186485E+03  0.10566000000E+00 0. -1.
<mgrwt>
<rscale>  1 0.90585014E+03</rscale>
<asrwt>0</asrwt>
<pdfrwt beam="2">  1       21 0.64729446E-01 0.11205966E+04</pdfrwt>
<pdfrwt beam="1">  1        4 0.24720888E+00 0.11205966E+04</pdfrwt>
<totfact> 0.55116290E+00</totfact>
</mgrwt>
</event>
<event>
 6    1  0.1412458E-005  0.1027163E+04  0.7818608E-02  0.9678411E-01
         21   -1    0    0  501  502  0.00000000000E+00  0.00000000000E+00  0.11652956976E+04  0.11652956976E+04  0.00000000000E+00 0.  1.
          4   -1    0    0  502    0 -0.00000000000E+00 -0.00000000000E+00 -0.49372592061E+03  0.49372592061E+03  0.00000000000E+00 0.  1.
    9000010    2    1    2  501    0  0.16606185834E+03  0.19003939891E+03  0.86354725085E+03  0.13419303449E+04  0.99567649481E+03 0.  0.
        -13    1    3    3    0    0  0.17138027795E+03  0.35299389039E+03 -0.66246188967E+02  0.39795031730E+03  0.10566000000E+00 0.  1.
          4    1    3    3  501    0 -0.53184196094E+01 -0.16295449148E+03  0.92979343981E+03  0.94398002765E+03  0.00000000000E+00 0.  1.
         13    1    1    2    0    0 -0.16606185834E+03 -0.19003939891E+03 -0.19197747387E+03  0.31709127325E+03  0.10566000000E+00 0. -1.
<mgrwt>
<rscale>  1 0.72316872E+03</rscale>
<asrwt>0</asrwt>
<pdfrwt beam="1">  1       21 0.17927626E+00 0.10271627E+04</pdfrwt>
<pdfrwt beam="2">  1        4 0.75957834E-01 0.10271627E+04</pdfrwt>
<totfact> 0.99618627E+00</totfact>
</mgrwt>
</event>
<event>
 6    1  0.1412458E-005  0.1007381E+04  0.7818608E-02  0.9862617E-01
         21   -1    0    0  501  502  0.00000000000E+00  0.00000000000E+00  0.81000542237E+03  0.81000542237E+03  0.00000000000E+00 0.  1.
          4   -1    0    0  502    0 -0.00000000000E+00 -0.00000000000E+00 -0.43174362094E+03  0.43174362094E+03  0.00000000000E+00 0.  1.
    9000010    2    1    2  501    0 -0.37046490025E+02 -0.14075241243E+03  0.41833144570E+03  0.10907878841E+04  0.99681157983E+03 0.  0.
        -13    1    3    3    0    0 -0.33932588418E+03 -0.45004942952E+03  0.31674032073E+03  0.64653769157E+03  0.10566000000E+00 0.  1.
          4    1    3    3  501    0  0.30227939415E+03  0.30929701709E+03  0.10159112497E+03  0.44425019256E+03  0.00000000000E+00 0.  1.
         13    1    1    2    0    0  0.37046490025E+02  0.14075241243E+03 -0.40069644267E+02  0.15096115919E+03  0.10566000000E+00 0. -1.
<mgrwt>
<rscale>  1 0.62107724E+03</rscale>
<asrwt>0</asrwt>
<pdfrwt beam="1">  1       21 0.12461622E+00 0.10073813E+04</pdfrwt>
<pdfrwt beam="2">  1        4 0.66422096E-01 0.10073813E+04</pdfrwt>
<totfact> 0.37294873E+01</totfact>
</mgrwt>
</event>
<event>
 6    1  0.1412458E-005  0.9871683E+03  0.7818608E-02  0.9927360E-01
         21   -1    0    0  501  502  0.00000000000E+00  0.00000000000E+00  0.38024268724E+03  0.38024268724E+03  0.00000000000E+00 0.  1.
          4   -1    0    0  502    0 -0.00000000000E+00 -0.00000000000E+00 -0.81640941733E+03  0.81640941733E+03  0.00000000000E+00 0.  1.
    9000010    2    1    2  501    0  0.81162864141E+02 -0.95805824093E+02 -0.40678897317E+03  0.10676977320E+04  0.97915014769E+03 0.  0.
        -13    1    3    3    0    0  0.29607900780E+03  0.36131293420E+03 -0.10329343422E+03  0.47841337774E+03  0.10566000000E+00 0.  1.
          4    1    3    3  501    0 -0.21491614366E+03 -0.45711875830E+03 -0.30349553895E+03  0.58928435424E+03  0.00000000000E+00 0.  1.
         13    1    1    2    0    0 -0.81162864141E+02  0.95805824093E+02 -0.29377756921E+02  0.12895437260E+03  0.10566000000E+00 0. -1.
<mgrwt>
<rscale>  1 0.58953453E+03</rscale>
<asrwt>0</asrwt>
<pdfrwt beam="1">  1       21 0.58498876E-01 0.98716826E+03</pdfrwt>
<pdfrwt beam="2">  1        4 0.12560145E+00 0.98716826E+03</pdfrwt>
<totfact> 0.50674860E+01</totfact>
</mgrwt>
</event>
<event>
 6    1  0.1412458E-005  0.1003180E+04  0.7818608E-02  0.1028547E+00
         21   -1    0    0  501  502  0.00000000000E+00  0.00000000000E+00  0.38427024824E+03  0.38427024824E+03  0.00000000000E+00 0.  1.
          4   -1    0    0  502    0 -0.00000000000E+00 -0.00000000000E+00 -0.73560506388E+03  0.73560506388E+03  0.00000000000E+00 0.  1.
    9000010    2    1    2  501    0 -0.39575720855E+02  0.21124772348E+01 -0.28547203449E+03  0.10430077810E+04  0.10023972508E+04 0.  0.
        -13    1    3    3    0    0 -0.18170186494E+03  0.27099166956E+03 -0.55028839903E+03  0.63974165564E+03  0.10566000000E+00 0.  1.
          4    1    3    3  501    0  0.14212614409E+03 -0.26887919233E+03  0.26481636454E+03  0.40326612532E+03  0.00000000000E+00 0.  1.
         13    1    1    2    0    0  0.39575720855E+02 -0.21124772348E+01 -0.65862781151E+02  0.76867531157E+02  0.10566000000E+00 0. -1.
<mgrwt>
<rscale>  1 0.44724586E+03</rscale>
<asrwt>0</asrwt>
<pdfrwt beam="1">  1       21 0.59118500E-01 0.10031804E+04</pdfrwt>
<pdfrwt beam="2">  1        4 0.11317001E+00 0.10031804E+04</pdfrwt>
<totfact> 0.64228005E+01</totfact>
</mgrwt>
</event>
<event>
 6    1  0.1412458E-005  0.1028293E+04  0.7818608E-02  0.9629028E-01
          4   -1    0    0  502    0 -0.00000000000E+00  0.00000000000E+00  0.16471131967E+04  0.16471131967E+04  0.00000000000E+00 0.  1.
         21   -1    0    0  501  502  0.00000000000E+00 -0.00000000000E+00 -0.38278829366E+03  0.38278829366E+03  0.00000000000E+00 0.  1.
    9000010    2    1    2  501    0  0.28668931611E+03  0.78822208992E+02  0.37888514779E+03  0.10958740411E+04  0.98436896242E+03 0.  0.
        -13    1    3    3    0    0 -0.35453617548E+03  0.87044703291E+02  0.31173204360E+02  0.36639385902E+03  0.10566000000E+00 0.  1.
          4    1    3    3  501    0  0.64122549158E+03 -0.82224942991E+01  0.34771194343E+03  0.72948018210E+03  0.00000000000E+00 0.  1.
         13    1    1    2    0    0 -0.28668931611E+03 -0.78822208992E+02  0.88543975527E+03  0.93402744926E+03  0.10566000000E+00 0. -1.
<mgrwt>
<rscale>  1 0.75404349E+03</rscale>
<asrwt>0</asrwt>
<pdfrwt beam="2">  1       21 0.58890507E-01 0.10282927E+04</pdfrwt>
<pdfrwt beam="1">  1        4 0.25340203E+00 0.10282927E+04</pdfrwt>
<totfact> 0.63079100E+00</totfact>
</mgrwt>
</event>
<event>
 6    1  0.1412458E-005  0.1037925E+04  0.7818608E-02  0.9966801E-01
         21   -1    0    0  501  502  0.00000000000E+00  0.00000000000E+00  0.13384559625E+04  0.13384559625E+04  0.00000000000E+00 0.  1.
          4   -1    0    0  502    0 -0.00000000000E+00 -0.00000000000E+00 -0.40565188040E+03  0.40565188040E+03  0.00000000000E+00 0.  1.
    9000010    2    1    2  501    0  0.89877781931E+02 -0.31602959489E+02  0.11243478840E+04  0.15301784108E+04  0.10335429559E+04 0.  0.
        -13    1    3    3    0    0  0.21277495033E+03 -0.11444194666E+03  0.12873765461E+04  0.13098505722E+04  0.10566000000E+00 0.  1.
          4    1    3    3  501    0 -0.12289716840E+03  0.82838987169E+02 -0.16302866213E+03  0.22032783862E+03  0.00000000000E+00 0.  1.
         13    1    1    2    0    0 -0.89877781931E+02  0.31602959489E+02 -0.19154380189E+03  0.21392943215E+03  0.10566000000E+00 0. -1.
<mgrwt>
<rscale>  1 0.57130213E+03</rscale>
<asrwt>0</asrwt>
<pdfrwt beam="1">  1       21 0.20591630E+00 0.10379248E+04</pdfrwt>
<pdfrwt beam="2">  1        4 0.62407982E-01 0.10379248E+04</pdfrwt>
<totfact> 0.10031797E+01</totfact>
</mgrwt>
</event>
<event>
 6    1  0.1412458E-005  0.9712139E+03  0.7818608E-02  0.9732003E-01
          4   -1    0    0  502    0 -0.00000000000E+00  0.00000000000E+00  0.73063426492E+03  0.73063426492E+03  0.00000000000E+00 0.  1.
         21   -1    0    0  501  502  0.00000000000E+00 -0.00000000000E+00 -0.53712309720E+03  0.53712309720E+03  0.00000000000E+00 0.  1.
    9000010    2    1    2  501    0 -0.20220780263E+03  0.14613359793E+03  0.34340210314E+02  0.97182083390E+03  0.93862317214E+03 0.  0.
        -13    1    3    3    0    0 -0.36576183022E+03  0.22379816179E+03 -0.34573876205E+03  0.55081996733E+03  0.10566000000E+00 0.  1.
          4    1    3    3  501    0  0.16355402759E+03 -0.77664563865E+02  0.38007897236E+03  0.42100086657E+03  0.00000000000E+00 0.  1.
         13    1    1    2    0    0  0.20220780263E+03 -0.14613359793E+03  0.15917095740E+03  0.29593652822E+03  0.10566000000E+00 0. -1.
<mgrwt>
<rscale>  1 0.69142889E+03</rscale>
<asrwt>0</asrwt>
<pdfrwt beam="2">  1       21 0.82634323E-01 0.97121392E+03</pdfrwt>
<pdfrwt beam="1">  1        4 0.11240527E+00 0.97121392E+03</pdfrwt>
<totfact> 0.30396445E+01</totfact>
</mgrwt>
</event>
<event>
 6    1  0.1412458E-005  0.1026323E+04  0.7818608E-02  0.9757767E-01
         21   -1    0    0  501  502  0.00000000000E+00  0.00000000000E+00  0.64460444980E+03  0.64460444980E+03  0.00000000000E+00 0.  1.
          4   -1    0    0  502    0 -0.00000000000E+00 -0.00000000000E+00 -0.60198339696E+03  0.60198339696E+03  0.00000000000E+00 0.  1.
    9000010    2    1    2  501    0  0.18949307421E+03 -0.41914620778E+02 -0.58038443150E+02  0.10279630405E+04  0.10078070704E+04 0.  0.
        -13    1    3    3    0    0  0.49721673065E+03  0.27557497117E+03  0.56339816632E+02  0.57126196099E+03  0.10566000000E+00 0.  1.
          4    1    3    3  501    0 -0.30772365644E+03 -0.31748959195E+03 -0.11437825978E+03  0.45670107952E+03  0.00000000000E+00 0.  1.
         13    1    1    2    0    0 -0.18949307421E+03  0.41914620778E+02  0.10065949599E+03  0.21862480625E+03  0.10566000000E+00 0. -1.
<mgrwt>
<rscale>  1 0.67679117E+03</rscale>
<asrwt>0</asrwt>
<pdfrwt beam="1">  1       21 0.99169915E-01 0.10263233E+04</pdfrwt>
<pdfrwt beam="2">  1        4 0.92612831E-01 0.10263233E+04</pdfrwt>
<totfact> 0.31104652E+01</totfact>
</mgrwt>
</event>
<event>
 6    1  0.1412458E-005  0.9002784E+03  0.7818608E-02  0.1019465E+00
          4   -1    0    0  502    0 -0.00000000000E+00  0.00000000000E+00  0.46436685492E+03  0.46436685492E+03  0.00000000000E+00 0.  1.
         21   -1    0    0  501  502  0.00000000000E+00 -0.00000000000E+00 -0.50898639107E+03  0.50898639107E+03  0.00000000000E+00 0.  1.
    9000010    2    1    2  501    0  0.65459801197E+02 -0.30045453341E+02 -0.39457974609E+02  0.90114266698E+03  0.89739258948E+03 0.  0.
        -13    1    3    3    0    0 -0.24685822177E+03 -0.34147942149E+03  0.10993578982E+03  0.43546878878E+03  0.10566000000E+00 0.  1.
          4    1    3    3  501    0  0.31231802297E+03  0.31143396815E+03 -0.14939376443E+03  0.46567387820E+03  0.00000000000E+00 0.  1.
         13    1    1    2    0    0 -0.65459801197E+02  0.30045453341E+02 -0.51615615436E+01  0.72210579009E+02  0.10566000000E+00 0. -1.
<mgrwt>
<rscale>  1 0.47880073E+03</rscale>
<asrwt>0</asrwt>
<pdfrwt beam="2">  1       21 0.78305599E-01 0.90027839E+03</pdfrwt>
<pdfrwt beam="1">  1        4 0.71441055E-01 0.90027839E+03</pdfrwt>
<totfact> 0.10080419E+02</totfact>
</mgrwt>
</event>
<event>
 6    1  0.1412458E-005  0.9275347E+03  0.7818608E-02  0.9753840E-01
          4   -1    0    0  502    0 -0.00000000000E+00  0.00000000000E+00  0.35988275100E+03  0.35988275100E+03  0.00000000000E+00 0.  1.
         21   -1    0    0  501  502  0.00000000000E+00 -0.00000000000E+00 -0.99361722380E+03  0.99361722380E+03  0.00000000000E+00 0.  1.
    9000010    2    1    2  501    0 -0.11696290309E+02  0.26611063032E+03 -0.52487980779E+03  0.10657483110E+04  0.88846439373E+03 0.  0.
        -13    1    3    3    0    0 -0.37097231785E+03  0.35615260332E+03 -0.45948648307E+03  0.68963249398E+03  0.10566000000E+00 0.  1.
          4    1    3    3  501    0  0.35927602754E+03 -0.90041973003E+02 -0.65393324720E+02  0.37611581699E+03  0.00000000000E+00 0.  1.
         13    1    1    2    0    0  0.11696290309E+02 -0.26611063032E+03 -0.10885466500E+03  0.28775166382E+03  0.10566000000E+00 0. -1.
<mgrwt>
<rscale>  1 0.67899717E+03</rscale>
<asrwt>0</asrwt>
<pdfrwt beam="2">  1       21 0.15286418E+00 0.92753472E+03</pdfrwt>
<pdfrwt beam="1">  1        4 0.55366579E-01 0.92753472E+03</pdfrwt>
<totfact> 0.32160654E+01</totfact>
</mgrwt>
</event>
<event>
 6    1  0.1412458E-005  0.1102753E+04  0.7818608E-02  0.9449321E-01
         21   -1    0    0  501  502  0.00000000000E+00  0.00000000000E+00  0.37246167207E+03  0.37246167207E+03  0.00000000000E+00 0.  1.
          4   -1    0    0  502    0 -0.00000000000E+00 -0.00000000000E+00 -0.16370297368E+04  0.16370297368E+04  0.00000000000E+00 0.  1.
    9000010    2    1    2  501    0  0.44810999843E+03 -0.38386891520E+02 -0.99403310427E+03  0.14846435260E+04  0.10068706286E+04 0.  0.
        -13    1    3    3    0    0  0.77461920699E+03 -0.35013681623E+02 -0.67309504827E+03  0.10267997998E+04  0.10566000000E+00 0.  1.
          4    1    3    3  501    0 -0.32650920856E+03 -0.33732098972E+01 -0.32093805600E+03  0.45784372619E+03  0.00000000000E+00 0.  1.
         13    1    1    2    0    0 -0.44810999843E+03  0.38386891520E+02 -0.27053496043E+03  0.52484788283E+03  0.10566000000E+00 0. -1.
<mgrwt>
<rscale>  1 0.88125557E+03</rscale>
<asrwt>0</asrwt>
<pdfrwt beam="1">  1       21 0.57301795E-01 0.11027532E+04</pdfrwt>
<pdfrwt beam="2">  1        4 0.25185073E+00 0.11027532E+04</pdfrwt>
<totfact> 0.67906041E+00</totfact>
</mgrwt>
</event>
<event>
 6    1  0.1412458E-005  0.1036538E+04  0.7818608E-02  0.9639013E-01
          4   -1    0    0  502    0 -0.00000000000E+00  0.00000000000E+00  0.10587541382E+04  0.10587541382E+04  0.00000000000E+00 0.  1.
         21   -1    0    0  501  502  0.00000000000E+00 -0.00000000000E+00 -0.70443062772E+03  0.70443062772E+03  0.00000000000E+00 0.  1.
    9000010    2    1    2  501    0 -0.10713453413E+03  0.25934009764E+03 -0.27648836590E+03  0.10727800084E+04  0.99783567551E+03 0.  0.
        -13    1    3    3    0    0 -0.41420685614E+03  0.32416887220E+03  0.14657332249E+03  0.54601879767E+03  0.10566000000E+00 0.  1.
          4    1    3    3  501    0  0.30707232201E+03 -0.64828774560E+02 -0.42306168839E+03  0.52676121074E+03  0.00000000000E+00 0.  1.
         13    1    1    2    0    0  0.10713453413E+03 -0.25934009764E+03  0.63081187636E+03  0.69040475750E+03  0.10566000000E+00 0. -1.
<mgrwt>
<rscale>  1 0.74767006E+03</rscale>
<asrwt>0</asrwt>
<pdfrwt beam="2">  1       21 0.10837394E+00 0.10365381E+04</pdfrwt>
<pdfrwt beam="1">  1        4 0.16288525E+00 0.10365381E+04</pdfrwt>
<totfact> 0.59110155E+00</totfact>
</mgrwt>
</event>
<event>
 6    1  0.1412458E-005  0.1053744E+04  0.7818608E-02  0.9702239E-01
          4   -1    0    0  502    0 -0.00000000000E+00  0.00000000000E+00  0.46037585265E+03  0.46037585265E+03  0.00000000000E+00 0.  1.
         21   -1    0    0  501  502  0.00000000000E+00 -0.00000000000E+00 -0.10542084173E+04  0.10542084173E+04  0.00000000000E+00 0.  1.
    9000010    2    1    2  501    0 -0.10011560394E+03  0.19113066252E+03 -0.70894780077E+03  0.12700324491E+04  0.10314171675E+04 0.  0.
        -13    1    3    3    0    0 -0.48184142026E+03  0.15093252411E+03 -0.72772135572E+03  0.88573707377E+03  0.10566000000E+00 0.  1.
          4    1    3    3  501    0  0.38172581632E+03  0.40198138408E+02  0.18773554952E+02  0.38429537538E+03  0.00000000000E+00 0.  1.
         13    1    1    2    0    0  0.10011560394E+03 -0.19113066252E+03  0.11511523612E+03  0.24455182080E+03  0.10566000000E+00 0. -1.
<mgrwt>
<rscale>  1 0.70883623E+03</rscale>
<asrwt>0</asrwt>
<pdfrwt beam="2">  1       21 0.16218591E+00 0.10537435E+04</pdfrwt>
<pdfrwt beam="1">  1        4 0.70827055E-01 0.10537435E+04</pdfrwt>
<totfact> 0.15613560E+01</totfact>
</mgrwt>
</event>
<event>
 6    1  0.1412458E-005  0.9596593E+03  0.7818608E-02  0.1011063E+00
         21   -1    0    0  501  502  0.00000000000E+00  0.00000000000E+00  0.63596325421E+03  0.63596325421E+03  0.00000000000E+00 0.  1.
          4   -1    0    0  502    0 -0.00000000000E+00 -0.00000000000E+00 -0.56810911885E+03  0.56810911885E+03  0.00000000000E+00 0.  1.
    9000010    2    1    2  501    0 -0.24145011246E+02  0.72982893163E+02  0.26240205011E+03  0.99488731967E+03  0.95657538055E+03 0.  0.
        -13    1    3    3    0    0 -0.56206058642E+02  0.47684785590E+02 -0.36186004134E+03  0.36929075332E+03  0.10566000000E+00 0.  1.
          4    1    3    3  501    0  0.32061047396E+02  0.25298107574E+02  0.62426209145E+03  0.62559656635E+03  0.00000000000E+00 0.  1.
         13    1    1    2    0    0  0.24145011246E+02 -0.72982893163E+02 -0.19454791475E+03  0.20918505338E+03  0.10566000000E+00 0. -1.
<mgrwt>
<rscale>  1 0.51054215E+03</rscale>
<asrwt>0</asrwt>
<pdfrwt beam="1">  1       21 0.97840501E-01 0.95965928E+03</pdfrwt>
<pdfrwt beam="2">  1        4 0.87401403E-01 0.95965928E+03</pdfrwt>
<totfact> 0.37073165E+01</totfact>
</mgrwt>
</event>
<event>
 6    1  0.1412458E-005  0.1025035E+04  0.7818608E-02  0.9647011E-01
          4   -1    0    0  502    0 -0.00000000000E+00  0.00000000000E+00  0.80651313505E+03  0.80651313505E+03  0.00000000000E+00 0.  1.
         21   -1    0    0  501  502  0.00000000000E+00 -0.00000000000E+00 -0.73800909150E+03  0.73800909150E+03  0.00000000000E+00 0.  1.
    9000010    2    1    2  501    0 -0.10359886840E+02 -0.28219021521E+03 -0.31128461997E+03  0.10712589965E+04  0.98537255804E+03 0.  0.
        -13    1    3    3    0    0 -0.11985151378E+03 -0.59686352784E+03  0.93624166503E+01  0.60884983554E+03  0.10566000000E+00 0.  1.
          4    1    3    3  501    0  0.10949162694E+03  0.31467331263E+03 -0.32064703662E+03  0.46240916096E+03  0.00000000000E+00 0.  1.
         13    1    1    2    0    0  0.10359886840E+02  0.28219021521E+03  0.37978866351E+03  0.47326323005E+03  0.10566000000E+00 0. -1.
<mgrwt>
<rscale>  1 0.74261341E+03</rscale>
<asrwt>0</asrwt>
<pdfrwt beam="2">  1       21 0.11353986E+00 0.10250355E+04</pdfrwt>
<pdfrwt beam="1">  1        4 0.12407894E+00 0.10250355E+04</pdfrwt>
<totfact> 0.10805177E+01</totfact>
</mgrwt>
</event>
<event>
 6    1  0.1412458E-005  0.1033914E+04  0.7818608E-02  0.9641774E-01
          4   -1    0    0  502    0 -0.00000000000E+00  0.00000000000E+00  0.13616837097E+04  0.13616837097E+04  0.00000000000E+00 0.  1.
         21   -1    0    0  501  502  0.00000000000E+00 -0.00000000000E+00 -0.33270731443E+03  0.33270731443E+03  0.00000000000E+00 0.  1.
    9000010    2    1    2  501    0  0.93997988099E+02 -0.26385723171E+03  0.64320984807E+03  0.12176603868E+04  0.99524954074E+03 0.  0.
        -13    1    3    3    0    0 -0.32880594537E+03 -0.44255670855E+03  0.22094503076E+03  0.59395833841E+03  0.10566000000E+00 0.  1.
          4    1    3    3  501    0  0.42280393347E+03  0.17869947684E+03  0.42226481731E+03  0.62370204835E+03  0.00000000000E+00 0.  1.
         13    1    1    2    0    0 -0.93997988099E+02  0.26385723171E+03  0.38576654717E+03  0.47673063733E+03  0.10566000000E+00 0. -1.
<mgrwt>
<rscale>  1 0.74591911E+03</rscale>
<asrwt>0</asrwt>
<pdfrwt beam="2">  1       21 0.51185741E-01 0.10339139E+04</pdfrwt>
<pdfrwt beam="1">  1        4 0.20948980E+00 0.10339139E+04</pdfrwt>
<totfact> 0.16231112E+01</totfact>
</mgrwt>
</event>
<event>
 6    1  0.1412458E-005  0.9859895E+03  0.7818608E-02  0.1023626E+00
         21   -1    0    0  501  502  0.00000000000E+00  0.00000000000E+00  0.25656189053E+03  0.25656189053E+03  0.00000000000E+00 0.  1.
          4   -1    0    0  502    0 -0.00000000000E+00 -0.00000000000E+00 -0.10490028774E+04  0.10490028774E+04  0.00000000000E+00 0.  1.
    9000010    2    1    2  501    0 -0.74301544824E+01  0.47783593550E+02 -0.77515872557E+03  0.12542114162E+04  0.98480289795E+03 0.  0.
        -13    1    3    3    0    0 -0.56978978762E+02 -0.40629525686E+03 -0.73242695650E+02  0.41675765547E+03  0.10566000000E+00 0.  1.
          4    1    3    3  501    0  0.49548824280E+02  0.45407885041E+03 -0.70191602992E+03  0.83745376078E+03  0.00000000000E+00 0.  1.
         13    1    1    2    0    0  0.74301544824E+01 -0.47783593550E+02 -0.17282261274E+02  0.51353351663E+02  0.10566000000E+00 0. -1.
<mgrwt>
<rscale>  1 0.46400344E+03</rscale>
<asrwt>0</asrwt>
<pdfrwt beam="1">  1       21 0.39471061E-01 0.98598947E+03</pdfrwt>
<pdfrwt beam="2">  1        4 0.16138506E+00 0.98598947E+03</pdfrwt>
<totfact> 0.60875735E+01</totfact>
</mgrwt>
</event>
<event>
 6    1  0.1412458E-005  0.1083631E+04  0.7818608E-02  0.9501040E-01
         21   -1    0    0  501  502  0.00000000000E+00  0.00000000000E+00  0.87590814937E+03  0.87590814937E+03  0.00000000000E+00 0. -1.
          4   -1    0    0  502    0 -0.00000000000E+00 -0.00000000000E+00 -0.67727234521E+03  0.67727234521E+03  0.00000000000E+00 0.  1.
    9000010    2    1    2  501    0 -0.33155341145E+02 -0.39374676602E+03 -0.52645031260E+02  0.10849093532E+04  0.10090198279E+04 0.  0.
        -13    1    3    3    0    0 -0.46622790130E+03 -0.14441896798E+03 -0.24908663772E+03  0.54796848314E+03  0.10566000000E+00 0.  1.
          4    1    3    3  501    0  0.43307256015E+03 -0.24932779805E+03  0.19644160646E+03  0.53694087010E+03  0.00000000000E+00 0.  1.
         13    1    1    2    0    0  0.33155341145E+02  0.39374676602E+03  0.25128083542E+03  0.46827114134E+03  0.10566000000E+00 0. -1.
<mgrwt>
<rscale>  1 0.84207161E+03</rscale>
<asrwt>0</asrwt>
<pdfrwt beam="1">  1       21 0.13475510E+00 0.10836313E+04</pdfrwt>
<pdfrwt beam="2">  1        4 0.10419575E+00 0.10836313E+04</pdfrwt>
<totfact> 0.10575727E+01</totfact>
</mgrwt>
</event>
<event>
 6    1  0.1412458E-005  0.1049585E+04  0.7818608E-02  0.9862401E-01
         21   -1    0    0  501  502  0.00000000000E+00  0.00000000000E+00  0.93969596296E+03  0.93969596296E+03  0.00000000000E+00 0.  1.
          4   -1    0    0  502    0 -0.00000000000E+00 -0.00000000000E+00 -0.58930342041E+03  0.58930342041E+03  0.00000000000E+00 0.  1.
    9000010    2    1    2  501    0  0.11695329286E+03  0.53899426221E+02  0.62790273092E+03  0.12230661608E+04  0.10416553045E+04 0.  0.
        -13    1    3    3    0    0  0.56850785837E+03  0.54350693736E+01  0.48404157501E+03  0.74667729476E+03  0.10566000000E+00 0.  1.
          4    1    3    3  501    0 -0.45155456551E+03  0.48464356847E+02  0.14386115592E+03  0.47638886605E+03  0.00000000000E+00 0.  1.
         13    1    1    2    0    0 -0.11695329286E+03 -0.53899426221E+02 -0.27751018836E+03  0.30593322256E+03  0.10566000000E+00 0. -1.
<mgrwt>
<rscale>  1 0.62118635E+03</rscale>
<asrwt>0</asrwt>
<pdfrwt beam="1">  1       21 0.14456861E+00 0.10495852E+04</pdfrwt>
<pdfrwt beam="2">  1        4 0.90662065E-01 0.10495852E+04</pdfrwt>
<totfact> 0.12234142E+01</totfact>
</mgrwt>
</event>
<event>
 6    1  0.1412458E-005  0.1153566E+04  0.7818608E-02  0.9340421E-01
         21   -1    0    0  501  502  0.00000000000E+00  0.00000000000E+00  0.11258198507E+04  0.11258198507E+04  0.00000000000E+00 0. -1.
          4   -1    0    0  502    0 -0.00000000000E+00 -0.00000000000E+00 -0.67167916580E+03  0.67167916580E+03  0.00000000000E+00 0.  1.
    9000010    2    1    2  501    0  0.56643694546E+03 -0.12551142685E+03  0.23463315158E+03  0.11771865954E+04  0.99705146964E+03 0.  0.
        -13    1    3    3    0    0  0.74787240447E+03 -0.33080306380E+03  0.33730847873E+03  0.88460206951E+03  0.10566000000E+00 0.  1.
          4    1    3    3  501    0 -0.18143545901E+03  0.20529163695E+03 -0.10267532715E+03  0.29258452590E+03  0.00000000000E+00 0.  1.
         13    1    1    2    0    0 -0.56643694546E+03  0.12551142685E+03  0.21950753335E+03  0.62031242114E+03  0.10566000000E+00 0. -1.
<mgrwt>
<rscale>  1 0.97145328E+03</rscale>
<asrwt>0</asrwt>
<pdfrwt beam="1">  1       21 0.17320305E+00 0.11535665E+04</pdfrwt>
<pdfrwt beam="2">  1        4 0.10333526E+00 0.11535665E+04</pdfrwt>
<totfact> 0.52737806E+00</totfact>
</mgrwt>
</event>
<event>
 6    1  0.1412458E-005  0.1116904E+04  0.7818608E-02  0.9413685E-01
          4   -1    0    0  502    0 -0.00000000000E+00  0.00000000000E+00  0.76624452135E+03  0.76624452135E+03  0.00000000000E+00 0.  1.
         21   -1    0    0  501  502  0.00000000000E+00 -0.00000000000E+00 -0.93453643611E+03  0.93453643611E+03  0.00000000000E+00 0. -1.
    9000010    2    1    2  501    0  0.36566827147E+03  0.32806647612E+03  0.13251504571E+03  0.11247377853E+04  0.10030622867E+04 0.  0.
        -13    1    3    3    0    0  0.46930143477E+03  0.48566419674E+03 -0.23217670625E+03  0.71415655340E+03  0.10566000000E+00 0.  1.
          4    1    3    3  501    0 -0.10363316330E+03 -0.15759772062E+03  0.36469175196E+03  0.41058123195E+03  0.00000000000E+00 0.  1.
         13    1    1    2    0    0 -0.36566827147E+03 -0.32806647612E+03 -0.30080696047E+03  0.57604317211E+03  0.10566000000E+00 0. -1.
<mgrwt>
<rscale>  1 0.90957988E+03</rscale>
<asrwt>0</asrwt>
<pdfrwt beam="2">  1       21 0.14377484E+00 0.11169041E+04</pdfrwt>
<pdfrwt beam="1">  1        4 0.11788377E+00 0.11169041E+04</pdfrwt>
<totfact> 0.65116402E+00</totfact>
</mgrwt>
</event>
<event>
 6    1  0.1412458E-005  0.1028971E+04  0.7818608E-02  0.9611629E-01
         21   -1    0    0  501  502  0.00000000000E+00  0.00000000000E+00  0.11942952516E+04  0.11942952516E+04  0.00000000000E+00 0.  1.
          4   -1    0    0  502    0 -0.00000000000E+00 -0.00000000000E+00 -0.58084110003E+03  0.58084110003E+03  0.00000000000E+00 0.  1.
    9000010    2    1    2  501    0  0.26187008651E+03 -0.17485370857E+03  0.88663326833E+03  0.13582711425E+04  0.97960817808E+03 0.  0.
        -13    1    3    3    0    0 -0.47261631246E+02 -0.43605425062E+03  0.84420474044E+03  0.95134569228E+03  0.10566000000E+00 0.  1.
          4    1    3    3  501    0  0.30913171776E+03  0.26120054206E+03  0.42428527889E+02  0.40692545027E+03  0.00000000000E+00 0.  1.
         13    1    1    2    0    0 -0.26187008651E+03  0.17485370857E+03 -0.27317911671E+03  0.41686520913E+03  0.10566000000E+00 0. -1.
<mgrwt>
<rscale>  1 0.76531269E+03</rscale>
<asrwt>0</asrwt>
<pdfrwt beam="1">  1       21 0.18373773E+00 0.10289713E+04</pdfrwt>
<pdfrwt beam="2">  1        4 0.89360170E-01 0.10289713E+04</pdfrwt>
<totfact> 0.63505878E+00</totfact>
</mgrwt>
</event>
<event>
 6    1  0.1412458E-005  0.1024454E+04  0.7818608E-02  0.9869181E-01
         21   -1    0    0  501  502  0.00000000000E+00  0.00000000000E+00  0.54976792512E+03  0.54976792512E+03  0.00000000000E+00 0.  1.
          4   -1    0    0  502    0 -0.00000000000E+00 -0.00000000000E+00 -0.77432398388E+03  0.77432398388E+03  0.00000000000E+00 0.  1.
    9000010    2    1    2  501    0 -0.67693052952E+02  0.11735426187E+03  0.41751324767E+02  0.10253043492E+04  0.10154562833E+04 0.  0.
        -13    1    3    3    0    0  0.38346631463E+03  0.32106891728E+03  0.14271074709E+03  0.52009425357E+03  0.10566000000E+00 0.  1.
          4    1    3    3  501    0 -0.45115936758E+03 -0.20371465542E+03 -0.10095942232E+03  0.50521009565E+03  0.00000000000E+00 0.  1.
         13    1    1    2    0    0  0.67693052952E+02 -0.11735426187E+03 -0.26630738353E+03  0.29878755979E+03  0.10566000000E+00 0. -1.
<mgrwt>
<rscale>  1 0.61778420E+03</rscale>
<asrwt>0</asrwt>
<pdfrwt beam="1">  1       21 0.84579681E-01 0.10244539E+04</pdfrwt>
<pdfrwt beam="2">  1        4 0.11912677E+00 0.10244539E+04</pdfrwt>
<totfact> 0.24775133E+01</totfact>
</mgrwt>
</event>
<event>
 6    1  0.1412458E-005  0.1017334E+04  0.7818608E-02  0.9697286E-01
          4   -1    0    0  502    0 -0.00000000000E+00  0.00000000000E+00  0.21895020896E+04  0.21895020896E+04  0.00000000000E+00 0.  1.
         21   -1    0    0  501  502  0.00000000000E+00 -0.00000000000E+00 -0.18537859401E+03  0.18537859401E+03  0.00000000000E+00 0.  1.
    9000010    2    1    2  501    0  0.24212317735E+03 -0.28418786614E+02  0.17389471758E+04  0.20146727545E+04  0.98769315435E+03 0.  0.
        -13    1    3    3    0    0 -0.34934353161E+03 -0.10407495756E+03  0.10048097219E+04  0.10688849743E+04  0.10566000000E+00 0.  1.
          4    1    3    3  501    0  0.59146670897E+03  0.75656170946E+02  0.73413745385E+03  0.94578778020E+03  0.00000000000E+00 0.  1.
         13    1    1    2    0    0 -0.24212317735E+03  0.28418786614E+02  0.26517631988E+03  0.36020792916E+03  0.10566000000E+00 0. -1.
<mgrwt>
<rscale>  1 0.71178641E+03</rscale>
<asrwt>0</asrwt>
<pdfrwt beam="2">  1       21 0.28519785E-01 0.10173343E+04</pdfrwt>
<pdfrwt beam="1">  1        4 0.33684646E+00 0.10173343E+04</pdfrwt>
<totfact> 0.88076830E+00</totfact>
</mgrwt>
</event>
<event>
 6    1  0.1412458E-005  0.1166656E+04  0.7818608E-02  0.9323494E-01
          4   -1    0    0  502    0 -0.00000000000E+00  0.00000000000E+00  0.31601264631E+03  0.31601264631E+03  0.00000000000E+00 0.  1.
         21   -1    0    0  501  502  0.00000000000E+00 -0.00000000000E+00 -0.24671980339E+04  0.24671980339E+04  0.00000000000E+00 0.  1.
    9000010    2    1    2  501    0 -0.22833629536E+03  0.55095175617E+03 -0.13465815583E+04  0.17816755412E+04  0.10026966338E+04 0.  0.
        -13    1    3    3    0    0  0.28954021212E+03 -0.94876937585E+02 -0.57144934386E+03  0.64760291189E+03  0.10566000000E+00 0.  1.
          4    1    3    3  501    0 -0.51787650748E+03  0.64582869376E+03 -0.77513221444E+03  0.11340726293E+04  0.00000000000E+00 0.  1.
         13    1    1    2    0    0  0.22833629536E+03 -0.55095175617E+03 -0.80460382930E+03  0.10015351390E+04  0.10566000000E+00 0. -1.
<mgrwt>
<rscale>  1 0.98648472E+03</rscale>
<asrwt>0</asrwt>
<pdfrwt beam="2">  1       21 0.37956895E+00 0.11666558E+04</pdfrwt>
<pdfrwt beam="1">  1        4 0.48617328E-01 0.11666558E+04</pdfrwt>
<totfact> 0.13161940E+00</totfact>
</mgrwt>
</event>
<event>
 6    1  0.1412458E-005  0.1122620E+04  0.7818608E-02  0.9394356E-01
         21   -1    0    0  501  502  0.00000000000E+00  0.00000000000E+00  0.60673903463E+03  0.60673903463E+03  0.00000000000E+00 0.  1.
          4   -1    0    0  502    0 -0.00000000000E+00 -0.00000000000E+00 -0.11595025545E+04  0.11595025545E+04  0.00000000000E+00 0.  1.
    9000010    2    1    2  501    0 -0.51741384643E+03 -0.31658423101E+02 -0.20281130212E+03  0.11407930220E+04  0.99576952686E+03 0.  0.
        -13    1    3    3    0    0  0.53313248716E+02 -0.34793751809E+03 -0.32250472716E+03  0.47740143401E+03  0.10566000000E+00 0.  1.
          4    1    3    3  501    0 -0.57072709514E+03  0.31627909499E+03  0.11969342505E+03  0.66339158802E+03  0.00000000000E+00 0.  1.
         13    1    1    2    0    0  0.51741384643E+03  0.31658423101E+02 -0.34995221778E+03  0.62544856713E+03  0.10566000000E+00 0. -1.
<mgrwt>
<rscale>  1 0.92541606E+03</rscale>
<asrwt>0</asrwt>
<pdfrwt beam="1">  1       21 0.93344467E-01 0.11226203E+04</pdfrwt>
<pdfrwt beam="2">  1        4 0.17838501E+00 0.11226203E+04</pdfrwt>
<totfact> 0.65614624E+00</totfact>
</mgrwt>
</event>
<event>
 6    1  0.1412458E-005  0.1003793E+04  0.7818608E-02  0.9857747E-01
         21   -1    0    0  501  502  0.00000000000E+00  0.00000000000E+00  0.13137973336E+04  0.13137973336E+04  0.00000000000E+00 0.  1.
          4   -1    0    0  502    0 -0.00000000000E+00 -0.00000000000E+00 -0.37723497447E+03  0.37723497447E+03  0.00000000000E+00 0.  1.
    9000010    2    1    2  501    0  0.30733408337E+02 -0.14626058697E+03  0.10865780551E+04  0.14792743758E+04  0.99260470848E+03 0.  0.
        -13    1    3    3    0    0  0.76549691041E+02 -0.55711404383E+03  0.44996265462E+03  0.72020991020E+03  0.10566000000E+00 0.  1.
          4    1    3    3  501    0 -0.45816282704E+02  0.41085345686E+03  0.63661540048E+03  0.75906446558E+03  0.00000000000E+00 0.  1.
         13    1    1    2    0    0 -0.30733408337E+02  0.14626058697E+03 -0.15001569597E+03  0.21175793230E+03  0.10566000000E+00 0. -1.
<mgrwt>
<rscale>  1 0.62353466E+03</rscale>
<asrwt>0</asrwt>
<pdfrwt beam="1">  1       21 0.20212267E+00 0.10037932E+04</pdfrwt>
<pdfrwt beam="2">  1        4 0.58036150E-01 0.10037932E+04</pdfrwt>
<totfact> 0.12530482E+01</totfact>
</mgrwt>
</event>
<event>
 6    1  0.1412458E-005  0.8164666E+03  0.7818608E-02  0.9888602E-01
          4   -1    0    0  502    0 -0.00000000000E+00  0.00000000000E+00  0.14992457363E+04  0.14992457363E+04  0.00000000000E+00 0.  1.
         21   -1    0    0  501  502  0.00000000000E+00 -0.00000000000E+00 -0.19576223447E+03  0.19576223447E+03  0.00000000000E+00 0.  1.
    9000010    2    1    2  501    0  0.22319806007E+03 -0.11558535550E+03  0.11093451596E+04  0.13774122285E+04  0.77681427364E+03 0.  0.
        -13    1    3    3    0    0  0.23204602205E+03 -0.25423588671E+03  0.99849205930E+02  0.35840077780E+03  0.10566000000E+00 0.  1.
          4    1    3    3  501    0 -0.88479619827E+01  0.13865053121E+03  0.10094959536E+04  0.10190114507E+04  0.00000000000E+00 0.  1.
         13    1    1    2    0    0 -0.22319806007E+03  0.11558535550E+03  0.19413834229E+03  0.31759574231E+03  0.10566000000E+00 0. -1.
<mgrwt>
<rscale>  1 0.60816871E+03</rscale>
<asrwt>0</asrwt>
<pdfrwt beam="2">  1       21 0.30117268E-01 0.81646663E+03</pdfrwt>
<pdfrwt beam="1">  1        4 0.23065318E+00 0.81646663E+03</pdfrwt>
<totfact> 0.36866542E+01</totfact>
</mgrwt>
</event>
<event>
 6    1  0.1412458E-005  0.1064552E+04  0.7818608E-02  0.9555964E-01
         21   -1    0    0  501  502  0.00000000000E+00  0.00000000000E+00  0.48576847192E+03  0.48576847192E+03  0.00000000000E+00 0.  1.
          4   -1    0    0  502    0 -0.00000000000E+00 -0.00000000000E+00 -0.16976295463E+04  0.16976295463E+04  0.00000000000E+00 0.  1.
    9000010    2    1    2  501    0  0.34359802310E+03  0.22044717519E+02 -0.15986112978E+03  0.10764881458E+04  0.10073358805E+04 0.  0.
        -13    1    3    3    0    0  0.41313766587E+01  0.27364467171E+03 -0.47579906251E+03  0.54889273422E+03  0.10566000000E+00 0.  1.
          4    1    3    3  501    0  0.33946664644E+03 -0.25159995419E+03  0.31593793273E+03  0.52759541159E+03  0.00000000000E+00 0.  1.
         13    1    1    2    0    0 -0.34359802310E+03 -0.22044717519E+02 -0.10519999446E+04  0.11069098724E+04  0.10566000000E+00 0. -1.
<mgrwt>
<rscale>  1 0.80280646E+03</rscale>
<asrwt>0</asrwt>
<pdfrwt beam="1">  1       21 0.74733612E-01 0.10645521E+04</pdfrwt>
<pdfrwt beam="2">  1        4 0.26117377E+00 0.10645521E+04</pdfrwt>
<totfact> 0.32713053E+00</totfact>
</mgrwt>
</event>
<event>
 6    1  0.1412458E-005  0.1045512E+04  0.7818608E-02  0.9672542E-01
         21   -1    0    0  501  502  0.00000000000E+00  0.00000000000E+00  0.42035952937E+03  0.42035952937E+03  0.00000000000E+00 0.  1.
          4   -1    0    0  502    0 -0.00000000000E+00 -0.00000000000E+00 -0.14556044459E+04  0.14556044459E+04  0.00000000000E+00 0.  1.
    9000010    2    1    2  501    0  0.21160425423E+03  0.12168522312E+03 -0.28015009460E+03  0.10823949139E+04  0.10166174404E+04 0.  0.
        -13    1    3    3    0    0  0.58544491714E+03 -0.56382805526E+02 -0.31437306240E+03  0.66689969658E+03  0.10566000000E+00 0.  1.
          4    1    3    3  501    0 -0.37384066291E+03  0.17806802865E+03  0.34222967795E+02  0.41549521730E+03  0.00000000000E+00 0.  1.
         13    1    1    2    0    0 -0.21160425423E+03 -0.12168522312E+03 -0.75509482189E+03  0.79356906135E+03  0.10566000000E+00 0. -1.
<mgrwt>
<rscale>  1 0.72675423E+03</rscale>
<asrwt>0</asrwt>
<pdfrwt beam="1">  1       21 0.64670697E-01 0.10455117E+04</pdfrwt>
<pdfrwt beam="2">  1        4 0.22393915E+00 0.10455117E+04</pdfrwt>
<totfact> 0.77995270E+00</totfact>
</mgrwt>
</event>
<event>
 6    1  0.1412458E-005  0.1012368E+04  0.7818608E-02  0.9944186E-01
         21   -1    0    0  501  502  0.00000000000E+00  0.00000000000E+00  0.51843854383E+03  0.51843854383E+03  0.00000000000E+00 0.  1.
          4   -1    0    0  502    0 -0.00000000000E+00 -0.00000000000E+00 -0.78075402740E+03  0.78075402740E+03  0.00000000000E+00 0.  1.
    9000010    2    1    2  501    0 -0.11031588235E+03  0.16468238606E+01  0.24382560508E+01  0.10123705712E+04  0.10063378768E+04 0.  0.
        -13    1    3    3    0    0  0.26896937643E+03 -0.73886540956E+02 -0.37807037814E+03  0.46983078697E+03  0.10566000000E+00 0.  1.
          4    1    3    3  501    0 -0.37928525879E+03  0.75533364816E+02  0.38050863419E+03  0.54253978418E+03  0.00000000000E+00 0.  1.
         13    1    1    2    0    0  0.11031588235E+03 -0.16468238606E+01 -0.26475373962E+03  0.28682200009E+03  0.10566000000E+00 0. -1.
<mgrwt>
<rscale>  1 0.58166823E+03</rscale>
<asrwt>0</asrwt>
<pdfrwt beam="1">  1       21 0.79759777E-01 0.10123676E+04</pdfrwt>
<pdfrwt beam="2">  1        4 0.12011600E+00 0.10123676E+04</pdfrwt>
<totfact> 0.27909181E+01</totfact>
</mgrwt>
</event>
<event>
 6    1  0.1412458E-005  0.1055262E+04  0.7818608E-02  0.9577568E-01
          4   -1    0    0  502    0 -0.00000000000E+00  0.00000000000E+00  0.64152045449E+03  0.64152045449E+03  0.00000000000E+00 0.  1.
         21   -1    0    0  501  502  0.00000000000E+00 -0.00000000000E+00 -0.79821345228E+03  0.79821345228E+03  0.00000000000E+00 0.  1.
    9000010    2    1    2  501    0 -0.21442999481E+03  0.24832542670E+03 -0.27576835815E+03  0.10906999645E+04  0.10029618562E+04 0.  0.
        -13    1    3    3    0    0  0.33035162441E+03  0.59521031907E+02 -0.37757406072E+03  0.50520998751E+03  0.10566000000E+00 0.  1.
          4    1    3    3  501    0 -0.54478161922E+03  0.18880439479E+03  0.10180570257E+03  0.58548997703E+03  0.00000000000E+00 0.  1.
         13    1    1    2    0    0  0.21442999481E+03 -0.24832542670E+03  0.11907536036E+03  0.34903394223E+03  0.10566000000E+00 0. -1.
<mgrwt>
<rscale>  1 0.78798851E+03</rscale>
<asrwt>0</asrwt>
<pdfrwt beam="2">  1       21 0.12280207E+00 0.10552622E+04</pdfrwt>
<pdfrwt beam="1">  1        4 0.98695455E-01 0.10552622E+04</pdfrwt>
<totfact> 0.15479242E+01</totfact>
</mgrwt>
</event>
<event>
 6    1  0.1412458E-005  0.1220585E+04  0.7818608E-02  0.9242715E-01
         21   -1    0    0  501  502  0.00000000000E+00  0.00000000000E+00  0.22524662379E+04  0.22524662379E+04  0.00000000000E+00 0. -1.
          4   -1    0    0  502    0 -0.00000000000E+00 -0.00000000000E+00 -0.68307004391E+03  0.68307004391E+03  0.00000000000E+00 0.  1.
    9000010    2    1    2  501    0  0.24339675561E+03 -0.65670167304E+03  0.39774150282E+01  0.12205916668E+04  0.99966450827E+03 0.  0.
        -13    1    3    3    0    0 -0.28596160610E+03 -0.13598905305E+03  0.28562130840E+03  0.42643476135E+03  0.10566000000E+00 0.  1.
          4    1    3    3  501    0  0.52935836171E+03 -0.52071261999E+03 -0.28164389337E+03  0.79415690540E+03  0.00000000000E+00 0.  1.
         13    1    1    2    0    0 -0.24339675561E+03  0.65670167304E+03  0.15654187789E+04  0.17149446150E+04  0.10566000000E+00 0. -1.
<mgrwt>
<rscale>  1 0.10623213E+04</rscale>
<asrwt>0</asrwt>
<pdfrwt beam="1">  1       21 0.34653326E+00 0.12205852E+04</pdfrwt>
<pdfrwt beam="2">  1        4 0.10508770E+00 0.12205852E+04</pdfrwt>
<totfact> 0.37105182E-01</totfact>
</mgrwt>
</event>
<event>
 6    1  0.1412458E-005  0.1037950E+04  0.7818608E-02  0.9635178E-01
         21   -1    0    0  501  502  0.00000000000E+00  0.00000000000E+00  0.71098683032E+03  0.71098683032E+03  0.00000000000E+00 0.  1.
          4   -1    0    0  502    0 -0.00000000000E+00 -0.00000000000E+00 -0.71384444648E+03  0.71384444648E+03  0.00000000000E+00 0.  1.
    9000010    2    1    2  501    0  0.92033714853E+02  0.26774391107E+03  0.22422590596E+03  0.10618933430E+04  0.99859061106E+03 0.  0.
        -13    1    3    3    0    0 -0.13391534127E+03 -0.12481679116E+03 -0.31091119038E+03  0.36080234125E+03  0.10566000000E+00 0.  1.
          4    1    3    3  501    0  0.22594905612E+03  0.39256070223E+03  0.53513709634E+03  0.70109100178E+03  0.00000000000E+00 0.  1.
         13    1    1    2    0    0 -0.92033714853E+02 -0.26774391107E+03 -0.22708352212E+03  0.36293793377E+03  0.10566000000E+00 0. -1.
<mgrwt>
<rscale>  1 0.75011011E+03</rscale>
<asrwt>0</asrwt>
<pdfrwt beam="1">  1       21 0.10938259E+00 0.10379500E+04</pdfrwt>
<pdfrwt beam="2">  1        4 0.10982222E+00 0.10379500E+04</pdfrwt>
<totfact> 0.16092066E+01</totfact>
</mgrwt>
</event>
<event>
 6    1  0.1412458E-005  0.9793954E+03  0.7818608E-02  0.1019568E+00
         21   -1    0    0  501  502  0.00000000000E+00  0.00000000000E+00  0.96635837890E+03  0.96635837890E+03  0.00000000000E+00 0.  1.
          4   -1    0    0  502    0 -0.00000000000E+00 -0.00000000000E+00 -0.44892619261E+03  0.44892619261E+03  0.00000000000E+00 0.  1.
    9000010    2    1    2  501    0 -0.49394661842E+02  0.25892244634E+02  0.71331049796E+03  0.12116217003E+04  0.97780623707E+03 0.  0.
        -13    1    3    3    0    0 -0.50460366748E+03 -0.70491683035E+02  0.31414934284E+03  0.59856809085E+03  0.10566000000E+00 0.  1.
          4    1    3    3  501    0  0.45520900564E+03  0.96383927669E+02  0.39916115512E+03  0.61305360947E+03  0.00000000000E+00 0.  1.
         13    1    1    2    0    0  0.49394661842E+02 -0.25892244634E+02 -0.19587831167E+03  0.20366287118E+03  0.10566000000E+00 0. -1.
<mgrwt>
<rscale>  1 0.47842953E+03</rscale>
<asrwt>0</asrwt>
<pdfrwt beam="1">  1       21 0.14867052E+00 0.97939536E+03</pdfrwt>
<pdfrwt beam="2">  1        4 0.69065568E-01 0.97939536E+03</pdfrwt>
<totfact> 0.21300537E+01</totfact>
</mgrwt>
</event>
<event>
 6    1  0.1412458E-005  0.9380208E+03  0.7818608E-02  0.9900893E-01
          4   -1    0    0  502    0 -0.00000000000E+00  0.00000000000E+00  0.11280159642E+04  0.11280159642E+04  0.00000000000E+00 0.  1.
         21   -1    0    0  501  502  0.00000000000E+00 -0.00000000000E+00 -0.27541220701E+03  0.27541220701E+03  0.00000000000E+00 0.  1.
    9000010    2    1    2  501    0  0.15871277604E+03 -0.13886912402E+02  0.63103138407E+03  0.11305235738E+04  0.92439188204E+03 0.  0.
        -13    1    3    3    0    0 -0.36170150315E+03 -0.15595201677E+03  0.32247501254E+03  0.50905712233E+03  0.10566000000E+00 0.  1.
          4    1    3    3  501    0  0.52041427919E+03  0.14206510437E+03  0.30855637153E+03  0.62146645145E+03  0.00000000000E+00 0.  1.
         13    1    1    2    0    0 -0.15871277604E+03  0.13886912402E+02  0.22157237315E+03  0.27290459747E+03  0.10566000000E+00 0. -1.
<mgrwt>
<rscale>  1 0.60218004E+03</rscale>
<asrwt>0</asrwt>
<pdfrwt beam="2">  1       21 0.42371109E-01 0.93802076E+03</pdfrwt>
<pdfrwt beam="1">  1        4 0.17354092E+00 0.93802076E+03</pdfrwt>
<totfact> 0.42989214E+01</totfact>
</mgrwt>
</event>
<event>
 6    1  0.1412458E-005  0.1114602E+04  0.7818608E-02  0.9414340E-01
         21   -1    0    0  501  502  0.00000000000E+00  0.00000000000E+00  0.36720968024E+03  0.36720968024E+03  0.00000000000E+00 0.  1.
          4   -1    0    0  502    0 -0.00000000000E+00 -0.00000000000E+00 -0.20056268728E+04  0.20056268728E+04  0.00000000000E+00 0.  1.
    9000010    2    1    2  501    0  0.19859200276E+03 -0.45140892477E+03 -0.70988849205E+03  0.13214687013E+04  0.99956443332E+03 0.  0.
        -13    1    3    3    0    0 -0.40887608745E+03 -0.16186019406E+03 -0.24301791726E+03  0.50243019076E+03  0.10566000000E+00 0.  1.
          4    1    3    3  501    0  0.60746809022E+03 -0.28954873071E+03 -0.46687057479E+03  0.81903851051E+03  0.00000000000E+00 0.  1.
         13    1    1    2    0    0 -0.19859200276E+03  0.45140892477E+03 -0.92852870052E+03  0.10513678518E+04  0.10566000000E+00 0. -1.
<mgrwt>
<rscale>  1 0.90904903E+03</rscale>
<asrwt>0</asrwt>
<pdfrwt beam="1">  1       21 0.56493796E-01 0.11146021E+04</pdfrwt>
<pdfrwt beam="2">  1        4 0.30855798E+00 0.11146021E+04</pdfrwt>
<totfact> 0.31187979E+00</totfact>
</mgrwt>
</event>
<event>
 6    1  0.1412458E-005  0.1009576E+04  0.7818608E-02  0.9848210E-01
          4   -1    0    0  502    0 -0.00000000000E+00  0.00000000000E+00  0.81753109751E+03  0.81753109751E+03  0.00000000000E+00 0.  1.
         21   -1    0    0  501  502  0.00000000000E+00 -0.00000000000E+00 -0.71976980237E+03  0.71976980237E+03  0.00000000000E+00 0.  1.
    9000010    2    1    2  501    0  0.11503329826E+03 -0.98623719341E+02 -0.34691488883E+03  0.10675177398E+04  0.99814071504E+03 0.  0.
        -13    1    3    3    0    0 -0.41285141677E+02  0.41150118716E+03  0.29413945050E+02  0.41461172353E+03  0.10566000000E+00 0.  1.
          4    1    3    3  501    0  0.15631843994E+03 -0.51012490651E+03 -0.37632883388E+03  0.65290601629E+03  0.00000000000E+00 0.  1.
         13    1    1    2    0    0 -0.11503329826E+03  0.98623719341E+02  0.44467618397E+03  0.46978316006E+03  0.10566000000E+00 0. -1.
<mgrwt>
<rscale>  1 0.62838266E+03</rscale>
<asrwt>0</asrwt>
<pdfrwt beam="2">  1       21 0.11073382E+00 0.10095762E+04</pdfrwt>
<pdfrwt beam="1">  1        4 0.12577401E+00 0.10095762E+04</pdfrwt>
<totfact> 0.11143247E+01</totfact>
</mgrwt>
</event>
<event>
 6    1  0.1412458E-005  0.1176639E+04  0.7818608E-02  0.9313882E-01
          4   -1    0    0  502    0 -0.00000000000E+00  0.00000000000E+00  0.10444265811E+04  0.10444265811E+04  0.00000000000E+00 0.  1.
         21   -1    0    0  501  502  0.00000000000E+00 -0.00000000000E+00 -0.79059601245E+03  0.79059601245E+03  0.00000000000E+00 0. -1.
    9000010    2    1    2  501    0 -0.27985994623E+03 -0.53303373535E+03  0.34488041280E+03  0.12261411291E+04  0.10109564861E+04 0.  0.
        -13    1    3    3    0    0  0.30583566592E+03 -0.29593592855E+03  0.40998169183E+03  0.59093022190E+03  0.10566000000E+00 0.  1.
          4    1    3    3  501    0 -0.58569561215E+03 -0.23709780680E+03 -0.65101279030E+02  0.63521090719E+03  0.00000000000E+00 0.  1.
         13    1    1    2    0    0  0.27985994623E+03  0.53303373535E+03 -0.91049844124E+02  0.60888146449E+03  0.10566000000E+00 0. -1.
<mgrwt>
<rscale>  1 0.99514877E+03</rscale>
<asrwt>0</asrwt>
<pdfrwt beam="2">  1       21 0.12163016E+00 0.11766391E+04</pdfrwt>
<pdfrwt beam="1">  1        4 0.16068101E+00 0.11766391E+04</pdfrwt>
<totfact> 0.44909569E+00</totfact>
</mgrwt>
</event>
<event>
 6    1  0.1412458E-005  0.1196021E+04  0.7818608E-02  0.9277415E-01
         21   -1    0    0  501  502  0.00000000000E+00  0.00000000000E+00  0.14085313395E+04  0.14085313395E+04  0.00000000000E+00 0. -1.
          4   -1    0    0  502    0 -0.00000000000E+00 -0.00000000000E+00 -0.60816061536E+03  0.60816061536E+03  0.00000000000E+00 0.  1.
    9000010    2    1    2  501    0 -0.59879970083E+03  0.26551472081E+03  0.51252867360E+03  0.13012115527E+04  0.10007031102E+04 0.  0.
        -13    1    3    3    0    0 -0.54742701304E+03  0.39416668855E+02  0.77585293622E+03  0.95035666893E+03  0.10566000000E+00 0.  1.
          4    1    3    3  501    0 -0.51372687786E+02  0.22609805195E+03 -0.26332426262E+03  0.35085488372E+03  0.00000000000E+00 0.  1.
         13    1    1    2    0    0  0.59879970083E+03 -0.26551472081E+03  0.28784205049E+03  0.71548040216E+03  0.10566000000E+00 0. -1.
<mgrwt>
<rscale>  1 0.10288896E+04</rscale>
<asrwt>0</asrwt>
<pdfrwt beam="1">  1       21 0.21669713E+00 0.11960208E+04</pdfrwt>
<pdfrwt beam="2">  1        4 0.93563171E-01 0.11960208E+04</pdfrwt>
<totfact> 0.32980314E+00</totfact>
</mgrwt>
</event>
<event>
 6    1  0.1412458E-005  0.1082296E+04  0.7818608E-02  0.9515689E-01
          4   -1    0    0  502    0 -0.00000000000E+00  0.00000000000E+00  0.45573468991E+03  0.45573468991E+03  0.00000000000E+00 0.  1.
         21   -1    0    0  501  502  0.00000000000E+00 -0.00000000000E+00 -0.15425725723E+04  0.15425725723E+04  0.00000000000E+00 0. -1.
    9000010    2    1    2  501    0 -0.15959885722E+03  0.34135701003E+03 -0.11890595477E+04  0.16078643297E+04  0.10145780853E+04 0.  0.
        -13    1    3    3    0    0 -0.44661707732E+03 -0.12814027533E+03 -0.82876791661E+03  0.95012789386E+03  0.10566000000E+00 0.  1.
          4    1    3    3  501    0  0.28701822010E+03  0.46949728536E+03 -0.36029163112E+03  0.65773643588E+03  0.00000000000E+00 0.  1.
         13    1    1    2    0    0  0.15959885722E+03 -0.34135701003E+03  0.10222166531E+03  0.39044293251E+03  0.10566000000E+00 0. -1.
<mgrwt>
<rscale>  1 0.83136986E+03</rscale>
<asrwt>0</asrwt>
<pdfrwt beam="2">  1       21 0.23731885E+00 0.10822962E+04</pdfrwt>
<pdfrwt beam="1">  1        4 0.70113031E-01 0.10822962E+04</pdfrwt>
<totfact> 0.47743996E+00</totfact>
</mgrwt>
</event>
<event>
 6    1  0.1412458E-005  0.9904481E+03  0.7818608E-02  0.9786032E-01
         21   -1    0    0  501  502  0.00000000000E+00  0.00000000000E+00  0.32822449109E+03  0.32822449109E+03  0.00000000000E+00 0. -1.
          4   -1    0    0  502    0 -0.00000000000E+00 -0.00000000000E+00 -0.12879179450E+04  0.12879179450E+04  0.00000000000E+00 0.  1.
    9000010    2    1    2  501    0  0.17739142651E+03  0.84954767035E+02 -0.48604551874E+03  0.11032804583E+04  0.97072266515E+03 0.  0.
        -13    1    3    3    0    0  0.67891667400E+02  0.87387762252E+02  0.29475081693E+03  0.31483956985E+03  0.10566000000E+00 0.  1.
          4    1    3    3  501    0  0.10949975911E+03 -0.24329952169E+01 -0.78079633568E+03  0.78844088841E+03  0.00000000000E+00 0.  1.
         13    1    1    2    0    0 -0.17739142651E+03 -0.84954767035E+02 -0.47364793514E+03  0.51286197779E+03  0.10566000000E+00 0. -1.
<mgrwt>
<rscale>  1 0.66117541E+03</rscale>
<asrwt>0</asrwt>
<pdfrwt beam="1">  1       21 0.50496077E-01 0.99044814E+03</pdfrwt>
<pdfrwt beam="2">  1        4 0.19814122E+00 0.99044814E+03</pdfrwt>
<totfact> 0.19934460E+01</totfact>
</mgrwt>
</event>
<event>
 6    1  0.1412458E-005  0.8637887E+03  0.7818608E-02  0.1003941E+00
          4   -1    0    0  502    0 -0.00000000000E+00  0.00000000000E+00  0.46469973778E+03  0.46469973778E+03  0.00000000000E+00 0.  1.
         21   -1    0    0  501  502  0.00000000000E+00 -0.00000000000E+00 -0.11780115779E+04  0.11780115779E+04  0.00000000000E+00 0.  1.
    9000010    2    1    2  501    0 -0.80461248478E+02 -0.10400597592E+03 -0.10035340531E+04  0.13240889692E+04  0.85372111791E+03 0.  0.
        -13    1    3    3    0    0  0.11580447388E+03  0.23235688874E+03 -0.87698855452E+03  0.91460884308E+03  0.10566000000E+00 0.  1.
          4    1    3    3  501    0 -0.19626572236E+03 -0.33636286466E+03 -0.12654549857E+03  0.40948012614E+03  0.00000000000E+00 0.  1.
         13    1    1    2    0    0  0.80461248478E+02  0.10400597592E+03  0.29022221302E+03  0.31862234640E+03  0.10566000000E+00 0. -1.
<mgrwt>
<rscale>  1 0.53955287E+03</rscale>
<asrwt>0</asrwt>
<pdfrwt beam="2">  1       21 0.18123255E+00 0.86378875E+03</pdfrwt>
<pdfrwt beam="1">  1        4 0.71492269E-01 0.86378875E+03</pdfrwt>
<totfact> 0.11304148E+01</totfact>
</mgrwt>
</event>
<event>
 6    1  0.1412458E-005  0.1047278E+04  0.7818608E-02  0.9664375E-01
          4   -1    0    0  502    0 -0.00000000000E+00  0.00000000000E+00  0.83950984028E+03  0.83950984028E+03  0.00000000000E+00 0.  1.
         21   -1    0    0  501  502  0.00000000000E+00 -0.00000000000E+00 -0.50400698207E+03  0.50400698207E+03  0.00000000000E+00 0. -1.
    9000010    2    1    2  501    0 -0.24620207866E+03 -0.41370193298E+02  0.22859401091E+03  0.10719353995E+04  0.10170857007E+04 0.  0.
        -13    1    3    3    0    0 -0.47274573450E+03 -0.21722117237E+03 -0.19904299231E+03  0.55703832110E+03  0.10566000000E+00 0.  1.
          4    1    3    3  501    0  0.22654365584E+03  0.17585097907E+03  0.42763700322E+03  0.51489707842E+03  0.00000000000E+00 0.  1.
         13    1    1    2    0    0  0.24620207866E+03  0.41370193298E+02  0.10690884730E+03  0.27158142283E+03  0.10566000000E+00 0. -1.
<mgrwt>
<rscale>  1 0.73178052E+03</rscale>
<asrwt>0</asrwt>
<pdfrwt beam="2">  1       21 0.77539536E-01 0.10472776E+04</pdfrwt>
<pdfrwt beam="1">  1        4 0.12915536E+00 0.10472776E+04</pdfrwt>
<totfact> 0.24712702E+01</totfact>
</mgrwt>
</event>
<event>
 6    1  0.1412458E-005  0.9848514E+03  0.7818608E-02  0.1024060E+00
          4   -1    0    0  502    0 -0.00000000000E+00  0.00000000000E+00  0.68281890152E+03  0.68281890152E+03  0.00000000000E+00 0.  1.
         21   -1    0    0  501  502  0.00000000000E+00 -0.00000000000E+00 -0.39156913470E+03  0.39156913470E+03  0.00000000000E+00 0.  1.
    9000010    2    1    2  501    0 -0.41185130393E+02 -0.24453659981E+02  0.26551722273E+03  0.10200155115E+04  0.98368595179E+03 0.  0.
        -13    1    3    3    0    0  0.44392520256E+03  0.14149265102E+03  0.69356850026E+02  0.47106277668E+03  0.10566000000E+00 0.  1.
          4    1    3    3  501    0 -0.48511033296E+03 -0.16594631100E+03  0.19616037271E+03  0.54895273485E+03  0.00000000000E+00 0.  1.
         13    1    1    2    0    0  0.41185130393E+02  0.24453659981E+02  0.25732544093E+02  0.54372524693E+02  0.10566000000E+00 0. -1.
<mgrwt>
<rscale>  1 0.46249508E+03</rscale>
<asrwt>0</asrwt>
<pdfrwt beam="2">  1       21 0.60241405E-01 0.98485138E+03</pdfrwt>
<pdfrwt beam="1">  1        4 0.10504906E+00 0.98485138E+03</pdfrwt>
<totfact> 0.74057916E+01</totfact>
</mgrwt>
</event>
<event>
 6    1  0.1412458E-005  0.1018873E+04  0.7818608E-02  0.9750486E-01
          4   -1    0    0  502    0 -0.00000000000E+00  0.00000000000E+00  0.11723414760E+04  0.11723414760E+04  0.00000000000E+00 0.  1.
         21   -1    0    0  501  502  0.00000000000E+00 -0.00000000000E+00 -0.32458349342E+03  0.32458349342E+03  0.00000000000E+00 0.  1.
    9000010    2    1    2  501    0  0.19678964554E+03  0.50672522733E+02  0.62449231705E+03  0.11950285671E+04  0.99840310149E+03 0.  0.
        -13    1    3    3    0    0  0.30146767474E+03  0.45749640911E+03  0.53449317284E+03  0.76542059434E+03  0.10566000000E+00 0.  1.
          4    1    3    3  501    0 -0.10467802921E+03 -0.40682388638E+03  0.89999144204E+02  0.42960797279E+03  0.00000000000E+00 0.  1.
         13    1    1    2    0    0 -0.19678964554E+03 -0.50672522733E+02  0.22326566555E+03  0.30189640231E+03  0.10566000000E+00 0. -1.
<mgrwt>
<rscale>  1 0.68088822E+03</rscale>
<asrwt>0</asrwt>
<pdfrwt beam="2">  1       21 0.49935923E-01 0.10188732E+04</pdfrwt>
<pdfrwt beam="1">  1        4 0.18036023E+00 0.10188732E+04</pdfrwt>
<totfact> 0.26901351E+01</totfact>
</mgrwt>
</event>
<event>
 6    1  0.1412458E-005  0.1012338E+04  0.7818608E-02  0.9759946E-01
         21   -1    0    0  501  502  0.00000000000E+00  0.00000000000E+00  0.61370589457E+03  0.61370589457E+03  0.00000000000E+00 0.  1.
          4   -1    0    0  502    0 -0.00000000000E+00 -0.00000000000E+00 -0.61347356417E+03  0.61347356417E+03  0.00000000000E+00 0.  1.
    9000010    2    1    2  501    0 -0.17130270373E+03 -0.10471610903E+03  0.69681763742E+02  0.10147334309E+04  0.99222895935E+03 0.  0.
        -13    1    3    3    0    0 -0.53004397358E+03  0.81538681065E+02 -0.14706358368E+03  0.55607812333E+03  0.10566000000E+00 0.  1.
          4    1    3    3  501    0  0.35874126985E+03 -0.18625479009E+03  0.21674534742E+03  0.45865530756E+03  0.00000000000E+00 0.  1.
         13    1    1    2    0    0  0.17130270373E+03  0.10471610903E+03 -0.69449433344E+02  0.21244602785E+03  0.10566000000E+00 0. -1.
<mgrwt>
<rscale>  1 0.67557085E+03</rscale>
<asrwt>0</asrwt>
<pdfrwt beam="1">  1       21 0.94416292E-01 0.10123381E+04</pdfrwt>
<pdfrwt beam="2">  1        4 0.94380548E-01 0.10123381E+04</pdfrwt>
<totfact> 0.33595083E+01</totfact>
</mgrwt>
</event>
<event>
 6    1  0.1412458E-005  0.9931896E+03  0.7818608E-02  0.9800616E-01
          4   -1    0    0  502    0 -0.00000000000E+00  0.00000000000E+00  0.15362804869E+03  0.15362804869E+03  0.00000000000E+00 0.  1.
         21   -1    0    0  501  502  0.00000000000E+00 -0.00000000000E+00 -0.27099911242E+04  0.27099911242E+04  0.00000000000E+00 0.  1.
    9000010    2    1    2  501    0  0.94648386703E+02  0.16003213419E+03 -0.24627034620E+04  0.26554347944E+04  0.97563159264E+03 0.  0.
        -13    1    3    3    0    0 -0.28754355257E+03  0.36808339410E+03 -0.71254034661E+03  0.85198617145E+03  0.10566000000E+00 0.  1.
          4    1    3    3  501    0  0.38219193927E+03 -0.20805125990E+03 -0.17501631154E+04  0.18034486229E+04  0.00000000000E+00 0.  1.
         13    1    1    2    0    0 -0.94648386703E+02 -0.16003213419E+03 -0.93659613530E+02  0.20818437850E+03  0.10566000000E+00 0. -1.
<mgrwt>
<rscale>  1 0.65329505E+03</rscale>
<asrwt>0</asrwt>
<pdfrwt beam="2">  1       21 0.41692171E+00 0.99318961E+03</pdfrwt>
<pdfrwt beam="1">  1        4 0.23635085E-01 0.99318961E+03</pdfrwt>
<totfact> 0.32681096E+00</totfact>
</mgrwt>
</event>
<event>
 6    1  0.1412458E-005  0.1079355E+04  0.7818608E-02  0.9457210E-01
          4   -1    0    0  502    0 -0.00000000000E+00  0.00000000000E+00  0.10901095290E+04  0.10901095290E+04  0.00000000000E+00 0.  1.
         21   -1    0    0  501  502  0.00000000000E+00 -0.00000000000E+00 -0.54907294504E+03  0.54907294504E+03  0.00000000000E+00 0.  1.
    9000010    2    1    2  501    0  0.43815396492E+03  0.15999144950E+03  0.41085623325E+03  0.11549066273E+04  0.97336031991E+03 0.  0.
        -13    1    3    3    0    0  0.30791403543E+03 -0.15476147224E+03 -0.24023726211E+03  0.42009060900E+03  0.10566000000E+00 0.  1.
          4    1    3    3  501    0  0.13023992949E+03  0.31475292174E+03  0.65109349536E+03  0.73481601825E+03  0.00000000000E+00 0.  1.
         13    1    1    2    0    0 -0.43815396492E+03 -0.15999144950E+03  0.13018035069E+03  0.48427584676E+03  0.10566000000E+00 0. -1.
<mgrwt>
<rscale>  1 0.87513408E+03</rscale>
<asrwt>0</asrwt>
<pdfrwt beam="2">  1       21 0.84472761E-01 0.10793547E+04</pdfrwt>
<pdfrwt beam="1">  1        4 0.16770916E+00 0.10793547E+04</pdfrwt>
<totfact> 0.99983169E+00</totfact>
</mgrwt>
</event>
<event>
 6    1  0.1412458E-005  0.9977883E+03  0.7818608E-02  0.9902485E-01
          4   -1    0    0  502    0 -0.00000000000E+00  0.00000000000E+00  0.12713309244E+04  0.12713309244E+04  0.00000000000E+00 0.  1.
         21   -1    0    0  501  502  0.00000000000E+00 -0.00000000000E+00 -0.25203085611E+03  0.25203085611E+03  0.00000000000E+00 0.  1.
    9000010    2    1    2  501    0  0.35227551526E+02  0.12689536958E+03  0.86528759354E+03  0.13207210424E+04  0.98905916761E+03 0.  0.
        -13    1    3    3    0    0  0.38817904134E+03  0.33723243946E+03  0.22805228447E+03  0.56250914835E+03  0.10566000000E+00 0.  1.
          4    1    3    3  501    0 -0.35295148981E+03 -0.21033706988E+03  0.63723530907E+03  0.75821189403E+03  0.00000000000E+00 0.  1.
         13    1    1    2    0    0 -0.35227551526E+02 -0.12689536958E+03  0.15401247478E+03  0.20264073815E+03  0.10566000000E+00 0. -1.
<mgrwt>
<rscale>  1 0.60141002E+03</rscale>
<asrwt>0</asrwt>
<pdfrwt beam="2">  1       21 0.38773979E-01 0.99778828E+03</pdfrwt>
<pdfrwt beam="1">  1        4 0.19558937E+00 0.99778828E+03</pdfrwt>
<totfact> 0.36306689E+01</totfact>
</mgrwt>
</event>
<event>
 6    1  0.1412458E-005  0.9703898E+03  0.7818608E-02  0.9654579E-01
          4   -1    0    0  502    0 -0.00000000000E+00  0.00000000000E+00  0.91047612621E+03  0.91047612621E+03  0.00000000000E+00 0.  1.
         21   -1    0    0  501  502  0.00000000000E+00 -0.00000000000E+00 -0.47309802229E+03  0.47309802229E+03  0.00000000000E+00 0.  1.
    9000010    2    1    2  501    0 -0.13511070809E+03  0.29491958954E+03  0.42379320301E+03  0.10588942624E+04  0.91456214240E+03 0.  0.
        -13    1    3    3    0    0 -0.90436993671E+02  0.35073506758E+03 -0.21160380430E+03  0.41948792427E+03  0.10566000000E+00 0.  1.
          4    1    3    3  501    0 -0.44673714422E+02 -0.55815478040E+02  0.63539700731E+03  0.63940633814E+03  0.00000000000E+00 0.  1.
         13    1    1    2    0    0  0.13511070809E+03 -0.29491958954E+03  0.13584900906E+02  0.32467988609E+03  0.10566000000E+00 0. -1.
<mgrwt>
<rscale>  1 0.73786761E+03</rscale>
<asrwt>0</asrwt>
<pdfrwt beam="2">  1       21 0.72784311E-01 0.97038981E+03</pdfrwt>
<pdfrwt beam="1">  1        4 0.14007325E+00 0.97038981E+03</pdfrwt>
<totfact> 0.23361136E+01</totfact>
</mgrwt>
</event>
<event>
 6    1  0.1412458E-005  0.1004927E+04  0.7818608E-02  0.9935495E-01
          4   -1    0    0  502    0 -0.00000000000E+00  0.00000000000E+00  0.32281782131E+03  0.32281782131E+03  0.00000000000E+00 0.  1.
         21   -1    0    0  501  502  0.00000000000E+00 -0.00000000000E+00 -0.11460205656E+04  0.11460205656E+04  0.00000000000E+00 0.  1.
    9000010    2    1    2  501    0  0.11596731702E+03 -0.58939504887E+00 -0.88354759115E+03  0.13381085979E+04  0.99821315761E+03 0.  0.
        -13    1    3    3    0    0 -0.10614653796E+03 -0.41797793135E+03 -0.71724292378E+03  0.83690504927E+03  0.10566000000E+00 0.  1.
          4    1    3    3  501    0  0.22211385497E+03  0.41738853630E+03 -0.16630466737E+03  0.50120354866E+03  0.00000000000E+00 0.  1.
         13    1    1    2    0    0 -0.11596731702E+03  0.58939504887E+00  0.60344846909E+02  0.13072978894E+03  0.10566000000E+00 0. -1.
<mgrwt>
<rscale>  1 0.58571485E+03</rscale>
<asrwt>0</asrwt>
<pdfrwt beam="2">  1       21 0.17631086E+00 0.10049270E+04</pdfrwt>
<pdfrwt beam="1">  1        4 0.49664280E-01 0.10049270E+04</pdfrwt>
<totfact> 0.26612731E+01</totfact>
</mgrwt>
</event>
<event>
 6    1  0.1412458E-005  0.1013099E+04  0.7818608E-02  0.9805126E-01
         21   -1    0    0  501  502  0.00000000000E+00  0.00000000000E+00  0.44724418679E+03  0.44724418679E+03  0.00000000000E+00 0.  1.
          4   -1    0    0  502    0 -0.00000000000E+00 -0.00000000000E+00 -0.87840972630E+03  0.87840972630E+03  0.00000000000E+00 0.  1.
    9000010    2    1    2  501    0  0.72482178995E+02 -0.15664852925E+03 -0.19267841636E+03  0.10312586905E+04  0.99828707630E+03 0.  0.
        -13    1    3    3    0    0 -0.34930181101E+03 -0.39077078459E+03 -0.41737396076E+02  0.52579043607E+03  0.10566000000E+00 0.  1.
          4    1    3    3  501    0  0.42178399001E+03  0.23412225534E+03 -0.15094102029E+03  0.50546825447E+03  0.00000000000E+00 0.  1.
         13    1    1    2    0    0 -0.72482178995E+02  0.15664852925E+03 -0.23848712315E+03  0.29439522255E+03  0.10566000000E+00 0. -1.
<mgrwt>
<rscale>  1 0.65088185E+03</rscale>
<asrwt>0</asrwt>
<pdfrwt beam="1">  1       21 0.68806798E-01 0.10130990E+04</pdfrwt>
<pdfrwt beam="2">  1        4 0.13513996E+00 0.10130990E+04</pdfrwt>
<totfact> 0.29073258E+01</totfact>
</mgrwt>
</event>
<event>
 6    1  0.1412458E-005  0.1016981E+04  0.7818608E-02  0.9775813E-01
         21   -1    0    0  501  502  0.00000000000E+00  0.00000000000E+00  0.19582368153E+04  0.19582368153E+04  0.00000000000E+00 0.  1.
          4   -1    0    0  502    0 -0.00000000000E+00 -0.00000000000E+00 -0.18593954499E+03  0.18593954499E+03  0.00000000000E+00 0.  1.
    9000010    2    1    2  501    0  0.83253704457E+02 -0.16846626553E+03  0.15380906835E+04  0.18439018219E+04  0.99946931731E+03 0.  0.
        -13    1    3    3    0    0  0.31409281846E+03  0.20003704307E+03  0.17183409021E+03  0.41011715757E+03  0.10566000000E+00 0.  1.
          4    1    3    3  501    0 -0.23083911401E+03 -0.36850330860E+03  0.13662565933E+04  0.14337846643E+04  0.00000000000E+00 0.  1.
         13    1    1    2    0    0 -0.83253704457E+02  0.16846626553E+03  0.23420658677E+03  0.30027453834E+03  0.10566000000E+00 0. -1.
<mgrwt>
<rscale>  1 0.66676858E+03</rscale>
<asrwt>0</asrwt>
<pdfrwt beam="1">  1       21 0.30126719E+00 0.10169813E+04</pdfrwt>
<pdfrwt beam="2">  1        4 0.28606085E-01 0.10169813E+04</pdfrwt>
<totfact> 0.12334010E+01</totfact>
</mgrwt>
</event>
<event>
 6    1  0.1412458E-005  0.9814769E+03  0.7818608E-02  0.1002203E+00
         21   -1    0    0  501  502  0.00000000000E+00  0.00000000000E+00  0.31277289570E+03  0.31277289570E+03  0.00000000000E+00 0.  1.
          4   -1    0    0  502    0 -0.00000000000E+00 -0.00000000000E+00 -0.10365130952E+04  0.10365130952E+04  0.00000000000E+00 0.  1.
    9000010    2    1    2  501    0 -0.54790331326E+02 -0.77184874587E+02 -0.48976474461E+03  0.10968894578E+04  0.97690198703E+03 0.  0.
        -13    1    3    3    0    0 -0.33033618756E+03 -0.14987864126E+03  0.15306989112E+03  0.39372072164E+03  0.10566000000E+00 0.  1.
          4    1    3    3  501    0  0.27554585623E+03  0.72693766670E+02 -0.64283463573E+03  0.70316873615E+03  0.00000000000E+00 0.  1.
         13    1    1    2    0    0  0.54790331326E+02  0.77184874587E+02 -0.23397545494E+03  0.25239653316E+03  0.10566000000E+00 0. -1.
<mgrwt>
<rscale>  1 0.54694735E+03</rscale>
<asrwt>0</asrwt>
<pdfrwt beam="1">  1       21 0.48118908E-01 0.98147694E+03</pdfrwt>
<pdfrwt beam="2">  1        4 0.15946355E+00 0.98147694E+03</pdfrwt>
<totfact> 0.41364806E+01</totfact>
</mgrwt>
</event>
<event>
 6    1  0.1412458E-005  0.1026946E+04  0.7818608E-02  0.9621649E-01
          4   -1    0    0  502    0 -0.00000000000E+00  0.00000000000E+00  0.10058300970E+04  0.10058300970E+04  0.00000000000E+00 0.  1.
         21   -1    0    0  501  502  0.00000000000E+00 -0.00000000000E+00 -0.49281944824E+03  0.49281944824E+03  0.00000000000E+00 0.  1.
    9000010    2    1    2  501    0  0.11991981315E+03 -0.28162895392E+03  0.17345585671E+03  0.10414919168E+04  0.98026672353E+03 0.  0.
        -13    1    3    3    0    0 -0.17141273347E+02 -0.47022583135E+03  0.46947299406E+03  0.66468869333E+03  0.10566000000E+00 0.  1.
          4    1    3    3  501    0  0.13706108649E+03  0.18859687743E+03 -0.29601713736E+03  0.37680322347E+03  0.00000000000E+00 0.  1.
         13    1    1    2    0    0 -0.11991981315E+03  0.28162895392E+03  0.33955479206E+03  0.45715762844E+03  0.10566000000E+00 0. -1.
<mgrwt>
<rscale>  1 0.75879715E+03</rscale>
<asrwt>0</asrwt>
<pdfrwt beam="2">  1       21 0.75818377E-01 0.10269462E+04</pdfrwt>
<pdfrwt beam="1">  1        4 0.15474309E+00 0.10269462E+04</pdfrwt>
<totfact> 0.16197630E+01</totfact>
</mgrwt>
</event>
<event>
 6    1  0.1412458E-005  0.9919949E+03  0.7818608E-02  0.9662132E-01
         21   -1    0    0  501  502  0.00000000000E+00  0.00000000000E+00  0.45900609666E+03  0.45900609666E+03  0.00000000000E+00 0.  1.
          4   -1    0    0  502    0 -0.00000000000E+00 -0.00000000000E+00 -0.90487142742E+03  0.90487142742E+03  0.00000000000E+00 0.  1.
    9000010    2    1    2  501    0  0.28543754358E+03  0.78357153583E+02 -0.36522732780E+03  0.10570926915E+04  0.94680490212E+03 0.  0.
        -13    1    3    3    0    0 -0.26464324644E+02  0.47196122426E+03 -0.79632531541E+02  0.47936323276E+03  0.10566000000E+00 0.  1.
          4    1    3    3  501    0  0.31190186823E+03 -0.39360407068E+03 -0.28559479626E+03  0.57772945875E+03  0.00000000000E+00 0.  1.
         13    1    1    2    0    0 -0.28543754358E+03 -0.78357153583E+02 -0.80638002955E+02  0.30678483256E+03  0.10566000000E+00 0. -1.
<mgrwt>
<rscale>  1 0.73316903E+03</rscale>
<asrwt>0</asrwt>
<pdfrwt beam="1">  1       21 0.70616323E-01 0.99199494E+03</pdfrwt>
<pdfrwt beam="2">  1        4 0.13921099E+00 0.99199494E+03</pdfrwt>
<totfact> 0.25401750E+01</totfact>
</mgrwt>
</event>
<event>
 6    1  0.1412458E-005  0.1036338E+04  0.7818608E-02  0.9627784E-01
         21   -1    0    0  501  502  0.00000000000E+00  0.00000000000E+00  0.91198201526E+03  0.91198201526E+03  0.00000000000E+00 0.  1.
          4   -1    0    0  502    0 -0.00000000000E+00 -0.00000000000E+00 -0.54620435891E+03  0.54620435891E+03  0.00000000000E+00 0.  1.
    9000010    2    1    2  501    0  0.76149441089E+02  0.28157390892E+03  0.63742365563E+02  0.10382959937E+04  0.99444098759E+03 0.  0.
        -13    1    3    3    0    0  0.19169963582E+03 -0.18448370510E+03  0.37960297196E+03  0.46355303397E+03  0.10566000000E+00 0.  1.
          4    1    3    3  501    0 -0.11555019473E+03  0.46605761402E+03 -0.31586060640E+03  0.57474295973E+03  0.00000000000E+00 0.  1.
         13    1    1    2    0    0 -0.76149441089E+02 -0.28157390892E+03  0.30203529078E+03  0.41989038046E+03  0.10566000000E+00 0. -1.
<mgrwt>
<rscale>  1 0.75484204E+03</rscale>
<asrwt>0</asrwt>
<pdfrwt beam="1">  1       21 0.14030493E+00 0.10363375E+04</pdfrwt>
<pdfrwt beam="2">  1        4 0.84031440E-01 0.10363375E+04</pdfrwt>
<totfact> 0.15887557E+01</totfact>
</mgrwt>
</event>
<event>
 6    1  0.1412458E-005  0.1014607E+04  0.7818608E-02  0.1010128E+00
         21   -1    0    0  501  502  0.00000000000E+00  0.00000000000E+00  0.52000912643E+03  0.52000912643E+03  0.00000000000E+00 0.  1.
          4   -1    0    0  502    0 -0.00000000000E+00 -0.00000000000E+00 -0.88267163407E+03  0.88267163407E+03  0.00000000000E+00 0.  1.
    9000010    2    1    2  501    0 -0.64023974449E+02 -0.19585627985E+02  0.19403796568E+02  0.10147924543E+04  0.10123954523E+04 0.  0.
        -13    1    3    3    0    0  0.17905806221E+03 -0.42348564205E+03  0.21106228915E+03  0.50591420195E+03  0.10566000000E+00 0.  1.
          4    1    3    3  501    0 -0.24308203666E+03  0.40390001407E+03 -0.19165849259E+03  0.50887825233E+03  0.00000000000E+00 0.  1.
         13    1    1    2    0    0  0.64023974449E+02  0.19585627985E+02 -0.38206630421E+03  0.38788830622E+03  0.10566000000E+00 0. -1.
<mgrwt>
<rscale>  1 0.51423964E+03</rscale>
<asrwt>0</asrwt>
<pdfrwt beam="1">  1       21 0.80001405E-01 0.10146069E+04</pdfrwt>
<pdfrwt beam="2">  1        4 0.13579563E+00 0.10146069E+04</pdfrwt>
<totfact> 0.20240591E+01</totfact>
</mgrwt>
</event>
<event>
 6    1  0.1412458E-005  0.1082026E+04  0.7818608E-02  0.9464513E-01
         21   -1    0    0  501  502  0.00000000000E+00  0.00000000000E+00  0.41507265005E+03  0.41507265005E+03  0.00000000000E+00 0. -1.
          4   -1    0    0  502    0 -0.00000000000E+00 -0.00000000000E+00 -0.15462184287E+04  0.15462184287E+04  0.00000000000E+00 0.  1.
    9000010    2    1    2  501    0  0.34553288222E+03  0.29019279465E+03 -0.10403198011E+04  0.15010148572E+04  0.98345080319E+03 0.  0.
        -13    1    3    3    0    0 -0.23999830176E+03  0.39344748721E+03 -0.62156329301E+03  0.77378359276E+03  0.10566000000E+00 0.  1.
          4    1    3    3  501    0  0.58553118398E+03 -0.10325469256E+03 -0.41875650806E+03  0.72723126445E+03  0.00000000000E+00 0.  1.
         13    1    1    2    0    0 -0.34553288222E+03 -0.29019279465E+03 -0.90825977593E+02  0.46027622156E+03  0.10566000000E+00 0. -1.
<mgrwt>
<rscale>  1 0.86951453E+03</rscale>
<asrwt>0</asrwt>
<pdfrwt beam="1">  1       21 0.63857329E-01 0.10820260E+04</pdfrwt>
<pdfrwt beam="2">  1        4 0.23787976E+00 0.10820260E+04</pdfrwt>
<totfact> 0.65276513E+00</totfact>
</mgrwt>
</event>
<event>
 6    1  0.1412458E-005  0.1076753E+04  0.7818608E-02  0.9500198E-01
         21   -1    0    0  501  502  0.00000000000E+00  0.00000000000E+00  0.17919169340E+04  0.17919169340E+04  0.00000000000E+00 0.  1.
          4   -1    0    0  502    0 -0.00000000000E+00 -0.00000000000E+00 -0.34546865967E+03  0.34546865967E+03  0.00000000000E+00 0.  1.
    9000010    2    1    2  501    0  0.38048593058E+03  0.13566770941E+03  0.68717218596E+03  0.12773417225E+04  0.99810870760E+03 0.  0.
        -13    1    3    3    0    0 -0.21793482703E+03 -0.24424430494E+03  0.64018799011E+02  0.33354053294E+03  0.10566000000E+00 0.  1.
          4    1    3    3  501    0  0.59842075761E+03  0.37991201435E+03  0.62315338695E+03  0.94380118958E+03  0.00000000000E+00 0.  1.
         13    1    1    2    0    0 -0.38048593058E+03 -0.13566770941E+03  0.75927608833E+03  0.86004387110E+03  0.10566000000E+00 0. -1.
<mgrwt>
<rscale>  1 0.84269189E+03</rscale>
<asrwt>0</asrwt>
<pdfrwt beam="1">  1       21 0.27567952E+00 0.10767526E+04</pdfrwt>
<pdfrwt beam="2">  1        4 0.53149026E-01 0.10767526E+04</pdfrwt>
<totfact> 0.50006484E+00</totfact>
</mgrwt>
</event>
<event>
 6    1  0.1412458E-005  0.1003887E+04  0.7818608E-02  0.9916741E-01
          4   -1    0    0  502    0 -0.00000000000E+00  0.00000000000E+00  0.11645238282E+04  0.11645238282E+04  0.00000000000E+00 0.  1.
         21   -1    0    0  501  502  0.00000000000E+00 -0.00000000000E+00 -0.27442859980E+03  0.27442859980E+03  0.00000000000E+00 0.  1.
    9000010    2    1    2  501    0 -0.77185629796E+02  0.96438919666E+02  0.82461979722E+03  0.12991485299E+04  0.99625850362E+03 0.  0.
        -13    1    3    3    0    0 -0.53378509927E+02  0.52946779305E+03  0.27492498013E+03  0.59897342601E+03  0.10566000000E+00 0.  1.
          4    1    3    3  501    0 -0.23807119868E+02 -0.43302887338E+03  0.54969481709E+03  0.70017510387E+03  0.00000000000E+00 0.  1.
         13    1    1    2    0    0  0.77185629796E+02 -0.96438919666E+02  0.65475431142E+02  0.13980389809E+03  0.10566000000E+00 0. -1.
<mgrwt>
<rscale>  1 0.59456758E+03</rscale>
<asrwt>0</asrwt>
<pdfrwt beam="2">  1       21 0.42219785E-01 0.10038870E+04</pdfrwt>
<pdfrwt beam="1">  1        4 0.17915751E+00 0.10038870E+04</pdfrwt>
<totfact> 0.39306783E+01</totfact>
</mgrwt>
</event>
<event>
 6    1  0.1412458E-005  0.1033530E+04  0.7818608E-02  0.9739892E-01
          4   -1    0    0  502    0 -0.00000000000E+00  0.00000000000E+00  0.14193310915E+04  0.14193310915E+04  0.00000000000E+00 0.  1.
         21   -1    0    0  501  502  0.00000000000E+00 -0.00000000000E+00 -0.38027913238E+03  0.38027913238E+03  0.00000000000E+00 0.  1.
    9000010    2    1    2  501    0 -0.40837634363E+02  0.19748065286E+03  0.36507916339E+03  0.10961149068E+04  0.10136660065E+04 0.  0.
        -13    1    3    3    0    0  0.46050543004E+03  0.22198935846E+03  0.75876176607E+02  0.51681885773E+03  0.10566000000E+00 0.  1.
          4    1    3    3  501    0 -0.50134306441E+03 -0.24508705602E+02  0.28920298678E+03  0.57929604905E+03  0.00000000000E+00 0.  1.
         13    1    1    2    0    0  0.40837634363E+02 -0.19748065286E+03  0.67397279573E+03  0.70349531710E+03  0.10566000000E+00 0. -1.
<mgrwt>
<rscale>  1 0.68690522E+03</rscale>
<asrwt>0</asrwt>
<pdfrwt beam="2">  1       21 0.58504483E-01 0.10335304E+04</pdfrwt>
<pdfrwt beam="1">  1        4 0.21835863E+00 0.10335304E+04</pdfrwt>
<totfact> 0.10611002E+01</totfact>
</mgrwt>
</event>
<event>
 6    1  0.1412458E-005  0.1042699E+04  0.7818608E-02  0.9642005E-01
         21   -1    0    0  501  502  0.00000000000E+00  0.00000000000E+00  0.24075829240E+04  0.24075829240E+04  0.00000000000E+00 0.  1.
          4   -1    0    0  502    0 -0.00000000000E+00 -0.00000000000E+00 -0.19041663167E+03  0.19041663167E+03  0.00000000000E+00 0.  1.
    9000010    2    1    2  501    0  0.26963648790E+03  0.41860087472E+02  0.19741867879E+04  0.22326296701E+04  0.10063625926E+04 0.  0.
        -13    1    3    3    0    0  0.31323364443E+03 -0.44773902930E+03  0.93272802362E+03  0.10810028361E+04  0.10566000000E+00 0.  1.
          4    1    3    3  501    0 -0.43597156536E+02  0.48959911677E+03  0.10414587643E+04  0.11516268341E+04  0.00000000000E+00 0.  1.
         13    1    1    2    0    0 -0.26963648790E+03 -0.41860087472E+02  0.24297950440E+03  0.36536988553E+03  0.10566000000E+00 0. -1.
<mgrwt>
<rscale>  1 0.74577333E+03</rscale>
<asrwt>0</asrwt>
<pdfrwt beam="1">  1       21 0.37039735E+00 0.10426993E+04</pdfrwt>
<pdfrwt beam="2">  1        4 0.29294868E-01 0.10426993E+04</pdfrwt>
<totfact> 0.43065074E+00</totfact>
</mgrwt>
</event>
<event>
 6    1  0.1412458E-005  0.9959221E+03  0.7818608E-02  0.9584092E-01
          4   -1    0    0  502    0 -0.00000000000E+00  0.00000000000E+00  0.24036155820E+03  0.24036155820E+03  0.00000000000E+00 0.  1.
         21   -1    0    0  501  502  0.00000000000E+00 -0.00000000000E+00 -0.21229081350E+04  0.21229081350E+04  0.00000000000E+00 0.  1.
    9000010    2    1    2  501    0  0.29077289112E+03 -0.24719091433E+03 -0.16142675114E+04  0.18967657914E+04  0.91989599770E+03 0.  0.
        -13    1    3    3    0    0 -0.17168890212E+03 -0.34069015763E+03 -0.12314086502E+04  0.12891524881E+04  0.10566000000E+00 0.  1.
          4    1    3    3  501    0  0.46246179324E+03  0.93499243295E+02 -0.38285886120E+03  0.60761330327E+03  0.00000000000E+00 0.  1.
         13    1    1    2    0    0 -0.29077289112E+03  0.24719091433E+03 -0.26827906541E+03  0.46650390185E+03  0.10566000000E+00 0. -1.
<mgrwt>
<rscale>  1 0.78358060E+03</rscale>
<asrwt>0</asrwt>
<pdfrwt beam="2">  1       21 0.32660123E+00 0.99592212E+03</pdfrwt>
<pdfrwt beam="1">  1        4 0.36978704E-01 0.99592212E+03</pdfrwt>
<totfact> 0.51790865E+00</totfact>
</mgrwt>
</event>
<event>
 6    1  0.1412458E-005  0.9948698E+03  0.7818608E-02  0.9881254E-01
         21   -1    0    0  501  502  0.00000000000E+00  0.00000000000E+00  0.62620145529E+03  0.62620145529E+03  0.00000000000E+00 0.  1.
          4   -1    0    0  502    0 -0.00000000000E+00 -0.00000000000E+00 -0.51759181440E+03  0.51759181440E+03  0.00000000000E+00 0.  1.
    9000010    2    1    2  501    0 -0.13027751387E+03 -0.57155973150E+02  0.75522169823E+02  0.99773222836E+03  0.98464560401E+03 0.  0.
        -13    1    3    3    0    0  0.73158601131E+02 -0.15290698986E+03  0.49422090524E+03  0.52248161959E+03  0.10566000000E+00 0.  1.
          4    1    3    3  501    0 -0.20343611501E+03  0.95751016713E+02 -0.41869873542E+03  0.47525060877E+03  0.00000000000E+00 0.  1.
         13    1    1    2    0    0  0.13027751387E+03  0.57155973150E+02  0.33087471069E+02  0.14606104133E+03  0.10566000000E+00 0. -1.
<mgrwt>
<rscale>  1 0.61178456E+03</rscale>
<asrwt>0</asrwt>
<pdfrwt beam="1">  1       21 0.96338686E-01 0.99486984E+03</pdfrwt>
<pdfrwt beam="2">  1        4 0.79629510E-01 0.99486984E+03</pdfrwt>
<totfact> 0.47627961E+01</totfact>
</mgrwt>
</event>
<event>
 6    1  0.1412458E-005  0.1029131E+04  0.7818608E-02  0.9792033E-01
         21   -1    0    0  501  502  0.00000000000E+00  0.00000000000E+00  0.38648454535E+03  0.38648454535E+03  0.00000000000E+00 0.  1.
          4   -1    0    0  502    0 -0.00000000000E+00 -0.00000000000E+00 -0.10501815176E+04  0.10501815176E+04  0.00000000000E+00 0.  1.
    9000010    2    1    2  501    0 -0.11777423791E+03  0.12521561494E+03 -0.36482180017E+03  0.10918819262E+04  0.10146730870E+04 0.  0.
        -13    1    3    3    0    0  0.24294804324E+03  0.37083215873E+03 -0.46674709194E+03  0.64373371875E+03  0.10566000000E+00 0.  1.
          4    1    3    3  501    0 -0.36072228115E+03 -0.24561654379E+03  0.10192529177E+03  0.44814820741E+03  0.00000000000E+00 0.  1.
         13    1    1    2    0    0  0.11777423791E+03 -0.12521561494E+03 -0.29887517211E+03  0.34478413683E+03  0.10566000000E+00 0. -1.
<mgrwt>
<rscale>  1 0.65791877E+03</rscale>
<asrwt>0</asrwt>
<pdfrwt beam="1">  1       21 0.59459162E-01 0.10291313E+04</pdfrwt>
<pdfrwt beam="2">  1        4 0.16156638E+00 0.10291313E+04</pdfrwt>
<totfact> 0.25013630E+01</totfact>
</mgrwt>
</event>
<event>
 6    1  0.1412458E-005  0.9664649E+03  0.7818608E-02  0.9774707E-01
         21   -1    0    0  501  502  0.00000000000E+00  0.00000000000E+00  0.32960153347E+03  0.32960153347E+03  0.00000000000E+00 0.  1.
          4   -1    0    0  502    0 -0.00000000000E+00 -0.00000000000E+00 -0.10862994658E+04  0.10862994658E+04  0.00000000000E+00 0.  1.
    9000010    2    1    2  501    0 -0.21273664218E+03 -0.55073621440E+02 -0.68555516341E+03  0.11849220231E+04  0.94115053843E+03 0.  0.
        -13    1    3    3    0    0  0.36383142273E+03  0.64537734560E+02 -0.34022950988E+03  0.50228931295E+03  0.10566000000E+00 0.  1.
          4    1    3    3  501    0 -0.57656806490E+03 -0.11961135600E+03 -0.34532565353E+03  0.68263271013E+03  0.00000000000E+00 0.  1.
         13    1    1    2    0    0  0.21273664218E+03  0.55073621440E+02 -0.71142768890E+02  0.23097897617E+03  0.10566000000E+00 0. -1.
<mgrwt>
<rscale>  1 0.66737779E+03</rscale>
<asrwt>0</asrwt>
<pdfrwt beam="1">  1       21 0.50707929E-01 0.96646486E+03</pdfrwt>
<pdfrwt beam="2">  1        4 0.16712299E+00 0.96646486E+03</pdfrwt>
<totfact> 0.32480531E+01</totfact>
</mgrwt>
</event>
<event>
 6    1  0.1412458E-005  0.1026279E+04  0.7818608E-02  0.1003540E+00
          4   -1    0    0  502    0 -0.00000000000E+00  0.00000000000E+00  0.60922187592E+03  0.60922187592E+03  0.00000000000E+00 0.  1.
         21   -1    0    0  501  502  0.00000000000E+00 -0.00000000000E+00 -0.65304938130E+03  0.65304938130E+03  0.00000000000E+00 0.  1.
    9000010    2    1    2  501    0 -0.79180221705E+02  0.58350174165E+01 -0.23711287737E+03  0.10533147997E+04  0.10232037900E+04 0.  0.
        -13    1    3    3    0    0 -0.37565813268E+03 -0.13136974294E+03  0.24766281365E+03  0.46873651707E+03  0.10566000000E+00 0.  1.
          4    1    3    3  501    0  0.29647791098E+03  0.13720476035E+03 -0.48477569101E+03  0.58457828266E+03  0.00000000000E+00 0.  1.
         13    1    1    2    0    0  0.79180221705E+02 -0.58350174165E+01  0.19328537199E+03  0.20895645749E+03  0.10566000000E+00 0. -1.
<mgrwt>
<rscale>  1 0.54124951E+03</rscale>
<asrwt>0</asrwt>
<pdfrwt beam="2">  1       21 0.10046914E+00 0.10262795E+04</pdfrwt>
<pdfrwt beam="1">  1        4 0.93726442E-01 0.10262795E+04</pdfrwt>
<totfact> 0.29275627E+01</totfact>
</mgrwt>
</event>
<event>
 6    1  0.1412458E-005  0.1151909E+04  0.7818608E-02  0.9356738E-01
          4   -1    0    0  502    0 -0.00000000000E+00  0.00000000000E+00  0.15825023346E+04  0.15825023346E+04  0.00000000000E+00 0.  1.
         21   -1    0    0  501  502  0.00000000000E+00 -0.00000000000E+00 -0.46246799629E+03  0.46246799629E+03  0.00000000000E+00 0.  1.
    9000010    2    1    2  501    0 -0.22499174838E+03 -0.50111279773E+03  0.65406745668E+03  0.13246506318E+04  0.10125017213E+04 0.  0.
        -13    1    3    3    0    0  0.34638263668E+03 -0.18978499831E+03  0.53203949490E+03  0.66262003583E+03  0.10566000000E+00 0.  1.
          4    1    3    3  501    0 -0.57137438506E+03 -0.31132779942E+03  0.12202796178E+03  0.66203059601E+03  0.00000000000E+00 0.  1.
         13    1    1    2    0    0  0.22499174838E+03  0.50111279773E+03  0.46596688159E+03  0.72031969901E+03  0.10566000000E+00 0. -1.
<mgrwt>
<rscale>  1 0.95723151E+03</rscale>
<asrwt>0</asrwt>
<pdfrwt beam="2">  1       21 0.71148923E-01 0.11519093E+04</pdfrwt>
<pdfrwt beam="1">  1        4 0.24346189E+00 0.11519093E+04</pdfrwt>
<totfact> 0.46686990E+00</totfact>
</mgrwt>
</event>
<event>
 6    1  0.1412458E-005  0.1010229E+04  0.7818608E-02  0.9812181E-01
          4   -1    0    0  502    0 -0.00000000000E+00  0.00000000000E+00  0.26802786409E+04  0.26802786409E+04  0.00000000000E+00 0.  1.
         21   -1    0    0  501  502  0.00000000000E+00 -0.00000000000E+00 -0.13726355038E+03  0.13726355038E+03  0.00000000000E+00 0.  1.
    9000010    2    1    2  501    0  0.17000731392E+03  0.56165150927E+01  0.18936677486E+04  0.21462851514E+04  0.99580539104E+03 0.  0.
        -13    1    3    3    0    0  0.29905898346E+03  0.28300984094E+03  0.26617471425E+03  0.49028546310E+03  0.10566000000E+00 0.  1.
          4    1    3    3  501    0 -0.12905166954E+03 -0.27739332585E+03  0.16274930344E+04  0.16559996883E+04  0.00000000000E+00 0.  1.
         13    1    1    2    0    0 -0.17000731392E+03 -0.56165150927E+01  0.64934734190E+03  0.67125703991E+03  0.10566000000E+00 0. -1.
<mgrwt>
<rscale>  1 0.64712917E+03</rscale>
<asrwt>0</asrwt>
<pdfrwt beam="2">  1       21 0.21117471E-01 0.10102289E+04</pdfrwt>
<pdfrwt beam="1">  1        4 0.41235052E+00 0.10102289E+04</pdfrwt>
<totfact> 0.49856422E+00</totfact>
</mgrwt>
</event>
<event>
 6    1  0.1412458E-005  0.1089604E+04  0.7818608E-02  0.9465999E-01
          4   -1    0    0  502    0 -0.00000000000E+00  0.00000000000E+00  0.15216600315E+04  0.15216600315E+04  0.00000000000E+00 0.  1.
         21   -1    0    0  501  502  0.00000000000E+00 -0.00000000000E+00 -0.38718602950E+03  0.38718602950E+03  0.00000000000E+00 0.  1.
    9000010    2    1    2  501    0 -0.41461875079E+03  0.14598256834E+03  0.73030841532E+03  0.13117116947E+04  0.99700429781E+03 0.  0.
        -13    1    3    3    0    0 -0.71312519913E+03  0.51093136865E+02  0.29039034886E+03  0.77167650226E+03  0.10566000000E+00 0.  1.
          4    1    3    3  501    0  0.29850644834E+03  0.94889431476E+02  0.43991806646E+03  0.54003519247E+03  0.00000000000E+00 0.  1.
         13    1    1    2    0    0  0.41461875079E+03 -0.14598256834E+03  0.40416558668E+03  0.59713436627E+03  0.10566000000E+00 0. -1.
<mgrwt>
<rscale>  1 0.86837631E+03</rscale>
<asrwt>0</asrwt>
<pdfrwt beam="2">  1       21 0.59567082E-01 0.10896041E+04</pdfrwt>
<pdfrwt beam="1">  1        4 0.23410154E+00 0.10896041E+04</pdfrwt>
<totfact> 0.80508498E+00</totfact>
</mgrwt>
</event>
<event>
 6    1  0.1412458E-005  0.1025733E+04  0.7818608E-02  0.9644258E-01
          4   -1    0    0  502    0 -0.00000000000E+00  0.00000000000E+00  0.16128124435E+04  0.16128124435E+04  0.00000000000E+00 0.  1.
         21   -1    0    0  501  502  0.00000000000E+00 -0.00000000000E+00 -0.34302966089E+03  0.34302966089E+03  0.00000000000E+00 0.  1.
    9000010    2    1    2  501    0  0.17679154640E+03  0.22283432286E+03  0.51197079258E+03  0.11464043923E+04  0.98550421203E+03 0.  0.
        -13    1    3    3    0    0  0.56469564899E+03  0.95746283604E+00  0.37926945498E+03  0.68024070988E+03  0.10566000000E+00 0.  1.
          4    1    3    3  501    0 -0.38790410259E+03  0.22187686002E+03  0.13270133759E+03  0.46616368243E+03  0.00000000000E+00 0.  1.
         13    1    1    2    0    0 -0.17679154640E+03 -0.22283432286E+03  0.75781199000E+03  0.80943771204E+03  0.10566000000E+00 0. -1.
<mgrwt>
<rscale>  1 0.74434865E+03</rscale>
<asrwt>0</asrwt>
<pdfrwt beam="2">  1       21 0.52773795E-01 0.10257334E+04</pdfrwt>
<pdfrwt beam="1">  1        4 0.24812499E+00 0.10257334E+04</pdfrwt>
<totfact> 0.86609937E+00</totfact>
</mgrwt>
</event>
<event>
 6    1  0.1412458E-005  0.1036765E+04  0.7818608E-02  0.9674549E-01
          4   -1    0    0  502    0 -0.00000000000E+00  0.00000000000E+00  0.28635119796E+03  0.28635119796E+03  0.00000000000E+00 0.  1.
         21   -1    0    0  501  502  0.00000000000E+00 -0.00000000000E+00 -0.16677744058E+04  0.16677744058E+04  0.00000000000E+00 0. -1.
    9000010    2    1    2  501    0 -0.22845086322E+03  0.98141029757E+02 -0.76202781777E+03  0.12866886262E+04  0.10065087019E+04 0.  0.
        -13    1    3    3    0    0  0.33453524980E+03 -0.13204932118E+03 -0.51959521145E+03  0.63192566929E+03  0.10566000000E+00 0.  1.
          4    1    3    3  501    0 -0.56298611302E+03  0.23019035093E+03 -0.24243260632E+03  0.65476295689E+03  0.00000000000E+00 0.  1.
         13    1    1    2    0    0  0.22845086322E+03 -0.98141029757E+02 -0.61939539004E+03  0.66743697755E+03  0.10566000000E+00 0. -1.
<mgrwt>
<rscale>  1 0.72552545E+03</rscale>
<asrwt>0</asrwt>
<pdfrwt beam="2">  1       21 0.25658068E+00 0.10367648E+04</pdfrwt>
<pdfrwt beam="1">  1        4 0.44054031E-01 0.10367648E+04</pdfrwt>
<totfact> 0.98438300E+00</totfact>
</mgrwt>
</event>
<event>
 6    1  0.1412458E-005  0.1028726E+04  0.7818608E-02  0.9577877E-01
         21   -1    0    0  501  502  0.00000000000E+00  0.00000000000E+00  0.16377110546E+04  0.16377110546E+04  0.00000000000E+00 0.  1.
          4   -1    0    0  502    0 -0.00000000000E+00 -0.00000000000E+00 -0.32137006562E+03  0.32137006562E+03  0.00000000000E+00 0.  1.
    9000010    2    1    2  501    0  0.34059555623E+03 -0.95634159633E+02  0.12130889340E+04  0.15905540202E+04  0.96598452577E+03 0.  0.
        -13    1    3    3    0    0  0.18890645491E+03  0.43608252873E+03  0.53471980964E+03  0.71538724238E+03  0.10566000000E+00 0.  1.
          4    1    3    3  501    0  0.15168910132E+03 -0.53171668836E+03  0.67836912440E+03  0.87516677787E+03  0.00000000000E+00 0.  1.
         13    1    1    2    0    0 -0.34059555623E+03  0.95634159633E+02  0.10325205494E+03  0.36852709999E+03  0.10566000000E+00 0. -1.
<mgrwt>
<rscale>  1 0.78777864E+03</rscale>
<asrwt>0</asrwt>
<pdfrwt beam="1">  1       21 0.25195554E+00 0.10287261E+04</pdfrwt>
<pdfrwt beam="2">  1        4 0.49441550E-01 0.10287261E+04</pdfrwt>
<totfact> 0.82860673E+00</totfact>
</mgrwt>
</event>
<event>
 6    1  0.1412458E-005  0.1020872E+04  0.7818608E-02  0.9732888E-01
         21   -1    0    0  501  502  0.00000000000E+00  0.00000000000E+00  0.19998759517E+03  0.19998759517E+03  0.00000000000E+00 0.  1.
          4   -1    0    0  502    0 -0.00000000000E+00 -0.00000000000E+00 -0.19366815302E+04  0.19366815302E+04  0.00000000000E+00 0.  1.
    9000010    2    1    2  501    0 -0.87276989466E+02  0.19559998366E+03 -0.15277682699E+04  0.18374592138E+04  0.99815021371E+03 0.  0.
        -13    1    3    3    0    0  0.25039877965E+03 -0.57730255455E+02 -0.47402169964E+01  0.25701130727E+03  0.10566000000E+00 0.  1.
          4    1    3    3  501    0 -0.33767576911E+03  0.25333023912E+03 -0.15230280529E+04  0.15804479065E+04  0.00000000000E+00 0.  1.
         13    1    1    2    0    0  0.87276989466E+02 -0.19559998366E+03 -0.20892566509E+03  0.29920991159E+03  0.10566000000E+00 0. -1.
<mgrwt>
<rscale>  1 0.69091974E+03</rscale>
<asrwt>0</asrwt>
<pdfrwt beam="1">  1       21 0.30767323E-01 0.10208724E+04</pdfrwt>
<pdfrwt beam="2">  1        4 0.29795100E+00 0.10208724E+04</pdfrwt>
<totfact> 0.13250532E+01</totfact>
</mgrwt>
</event>
<event>
 6    1  0.1412458E-005  0.1184871E+04  0.7818608E-02  0.9295518E-01
         21   -1    0    0  501  502  0.00000000000E+00  0.00000000000E+00  0.75989751292E+03  0.75989751292E+03  0.00000000000E+00 0.  1.
          4   -1    0    0  502    0 -0.00000000000E+00 -0.00000000000E+00 -0.11337917058E+04  0.11337917058E+04  0.00000000000E+00 0.  1.
    9000010    2    1    2  501    0  0.18986669373E+03 -0.60117764896E+03 -0.52469041411E+02  0.11860324755E+04  0.10032228594E+04 0.  0.
        -13    1    3    3    0    0  0.46021913846E+02 -0.33943622633E+03  0.47157652015E+03  0.58285452201E+03  0.10566000000E+00 0.  1.
          4    1    3    3  501    0  0.14384477989E+03 -0.26174142263E+03 -0.52404556156E+03  0.60317795352E+03  0.00000000000E+00 0.  1.
         13    1    1    2    0    0 -0.18986669373E+03  0.60117764896E+03 -0.32142515142E+03  0.70765674315E+03  0.10566000000E+00 0. -1.
<mgrwt>
<rscale>  1 0.10119653E+04</rscale>
<asrwt>0</asrwt>
<pdfrwt beam="1">  1       21 0.11690731E+00 0.11848713E+04</pdfrwt>
<pdfrwt beam="2">  1        4 0.17442949E+00 0.11848713E+04</pdfrwt>
<totfact> 0.39487035E+00</totfact>
</mgrwt>
</event>
<event>
 6    1  0.1412458E-005  0.1059103E+04  0.7818608E-02  0.9565974E-01
          4   -1    0    0  502    0 -0.00000000000E+00  0.00000000000E+00  0.69537838482E+03  0.69537838482E+03  0.00000000000E+00 0.  1.
         21   -1    0    0  501  502  0.00000000000E+00 -0.00000000000E+00 -0.80346237196E+03  0.80346237196E+03  0.00000000000E+00 0. -1.
    9000010    2    1    2  501    0  0.28142747899E+02 -0.33659036923E+03 -0.31223927111E+03  0.11041706641E+04  0.10037999811E+04 0.  0.
        -13    1    3    3    0    0 -0.35995346101E+03 -0.13288993229E+01  0.17190180230E+03  0.39889660422E+03  0.10566000000E+00 0.  1.
          4    1    3    3  501    0  0.38809620890E+03 -0.33526146990E+03 -0.48414107341E+03  0.70527405988E+03  0.00000000000E+00 0.  1.
         13    1    1    2    0    0 -0.28142747899E+02  0.33659036923E+03  0.20415528398E+03  0.39467009268E+03  0.10566000000E+00 0. -1.
<mgrwt>
<rscale>  1 0.79589782E+03</rscale>
<asrwt>0</asrwt>
<pdfrwt beam="2">  1       21 0.12360960E+00 0.10591032E+04</pdfrwt>
<pdfrwt beam="1">  1        4 0.10698129E+00 0.10591032E+04</pdfrwt>
<totfact> 0.12501314E+01</totfact>
</mgrwt>
</event>
<event>
 6    1  0.1412458E-005  0.1080824E+04  0.7818608E-02  0.9409453E-01
         21   -1    0    0  501  502  0.00000000000E+00  0.00000000000E+00  0.21527039916E+04  0.21527039916E+04  0.00000000000E+00 0. -1.
          4   -1    0    0  502    0 -0.00000000000E+00 -0.00000000000E+00 -0.31803769813E+03  0.31803769813E+03  0.00000000000E+00 0.  1.
    9000010    2    1    2  501    0  0.54927336468E+03 -0.34667218374E+02  0.14043851823E+04  0.17721395920E+04  0.93020317569E+03 0.  0.
        -13    1    3    3    0    0  0.65921605696E+03 -0.32193024170E+03  0.11872914978E+04  0.13956597014E+04  0.10566000000E+00 0.  1.
          4    1    3    3  501    0 -0.10994269228E+03  0.28726302332E+03  0.21709368451E+03  0.37647989058E+03  0.00000000000E+00 0.  1.
         13    1    1    2    0    0 -0.54927336468E+03  0.34667218374E+02  0.43028111119E+03  0.69860209776E+03  0.10566000000E+00 0. -1.
<mgrwt>
<rscale>  1 0.91301783E+03</rscale>
<asrwt>0</asrwt>
<pdfrwt beam="1">  1       21 0.33118522E+00 0.10808242E+04</pdfrwt>
<pdfrwt beam="2">  1        4 0.48928878E-01 0.10808242E+04</pdfrwt>
<totfact> 0.26808189E+00</totfact>
</mgrwt>
</event>
<event>
 6    1  0.1412458E-005  0.1306796E+04  0.7818608E-02  0.9115908E-01
         21   -1    0    0  501  502  0.00000000000E+00  0.00000000000E+00  0.59959889575E+03  0.59959889575E+03  0.00000000000E+00 0. -1.
          4   -1    0    0  502    0 -0.00000000000E+00 -0.00000000000E+00 -0.22232548722E+04  0.22232548722E+04  0.00000000000E+00 0.  1.
    9000010    2    1    2  501    0  0.65911185721E+03 -0.63962853400E+03 -0.57172158478E+03  0.14263871277E+04  0.92960290754E+03 0.  0.
        -13    1    3    3    0    0  0.44175626332E+03 -0.53776316118E+03 -0.82372212207E+03  0.10783579922E+04  0.10566000000E+00 0.  1.
          4    1    3    3  501    0  0.21735559389E+03 -0.10186537281E+03  0.25200053730E+03  0.34802913552E+03  0.00000000000E+00 0.  1.
         13    1    1    2    0    0 -0.65911185721E+03  0.63962853400E+03 -0.10519343917E+04  0.13964666402E+04  0.10566000000E+00 0. -1.
<mgrwt>
<rscale>  1 0.11965195E+04</rscale>
<asrwt>0</asrwt>
<pdfrwt beam="1">  1       21 0.92245983E-01 0.13067956E+04</pdfrwt>
<pdfrwt beam="2">  1        4 0.34203922E+00 0.13067956E+04</pdfrwt>
<totfact> 0.59758412E-01</totfact>
</mgrwt>
</event>
<event>
 6    1  0.1412458E-005  0.1117069E+04  0.7818608E-02  0.9425355E-01
         21   -1    0    0  501  502  0.00000000000E+00  0.00000000000E+00  0.45373819774E+03  0.45373819774E+03  0.00000000000E+00 0. -1.
          4   -1    0    0  502    0 -0.00000000000E+00 -0.00000000000E+00 -0.15463732154E+04  0.15463732154E+04  0.00000000000E+00 0.  1.
    9000010    2    1    2  501    0 -0.46756714305E+03 -0.57289341629E+02 -0.45228086863E+03  0.12051557230E+04  0.10128875706E+04 0.  0.
        -13    1    3    3    0    0 -0.11023298004E+03  0.46305978261E+03 -0.11596499361E+03  0.48992199692E+03  0.10566000000E+00 0.  1.
          4    1    3    3  501    0 -0.35733416301E+03 -0.52034912423E+03 -0.33631587502E+03  0.71523372609E+03  0.00000000000E+00 0.  1.
         13    1    1    2    0    0  0.46756714305E+03  0.57289341629E+02 -0.64035414902E+03  0.79495569012E+03  0.10566000000E+00 0. -1.
<mgrwt>
<rscale>  1 0.90018097E+03</rscale>
<asrwt>0</asrwt>
<pdfrwt beam="1">  1       21 0.69805876E-01 0.11170686E+04</pdfrwt>
<pdfrwt beam="2">  1        4 0.23790357E+00 0.11170686E+04</pdfrwt>
<totfact> 0.53059791E+00</totfact>
</mgrwt>
</event>
<event>
 6    1  0.1412458E-005  0.1053799E+04  0.7818608E-02  0.9623259E-01
          4   -1    0    0  502    0 -0.00000000000E+00  0.00000000000E+00  0.21841405799E+04  0.21841405799E+04  0.00000000000E+00 0.  1.
         21   -1    0    0  501  502  0.00000000000E+00 -0.00000000000E+00 -0.23165258140E+03  0.23165258140E+03  0.00000000000E+00 0.  1.
    9000010    2    1    2  501    0 -0.26366797481E+03 -0.99276343663E+02  0.11241164850E+04  0.15408211795E+04  0.10154385467E+04 0.  0.
        -13    1    3    3    0    0 -0.39097946219E+03 -0.45378430219E+03  0.38726384032E+03  0.71327303745E+03  0.10566000000E+00 0.  1.
          4    1    3    3  501    0  0.12731148738E+03  0.35450795853E+03  0.73685264471E+03  0.82754814210E+03  0.00000000000E+00 0.  1.
         13    1    1    2    0    0  0.26366797481E+03  0.99276343663E+02  0.82837151351E+03  0.87497198179E+03  0.10566000000E+00 0. -1.
<mgrwt>
<rscale>  1 0.75775683E+03</rscale>
<asrwt>0</asrwt>
<pdfrwt beam="2">  1       21 0.35638860E-01 0.10537989E+04</pdfrwt>
<pdfrwt beam="1">  1        4 0.33602161E+00 0.10537989E+04</pdfrwt>
<totfact> 0.56374520E+00</totfact>
</mgrwt>
</event>
<event>
 6    1  0.1412458E-005  0.8276786E+03  0.7818608E-02  0.9773963E-01
          4   -1    0    0  502    0 -0.00000000000E+00  0.00000000000E+00  0.17066389478E+03  0.17066389478E+03  0.00000000000E+00 0.  1.
         21   -1    0    0  501  502  0.00000000000E+00 -0.00000000000E+00 -0.20391739884E+04  0.20391739884E+04  0.00000000000E+00 0. -1.
    9000010    2    1    2  501    0 -0.11114057766E+03 -0.33265067445E+03 -0.12613981263E+04  0.15087004849E+04  0.74969541877E+03 0.  0.
        -13    1    3    3    0    0 -0.40181814317E+03 -0.35074660048E+03 -0.75243844789E+03  0.92230397752E+03  0.10566000000E+00 0.  1.
          4    1    3    3  501    0  0.29067756550E+03  0.18095926031E+02 -0.50895967845E+03  0.58639650742E+03  0.00000000000E+00 0.  1.
         13    1    1    2    0    0  0.11114057766E+03  0.33265067445E+03 -0.60711196724E+03  0.70113739820E+03  0.10566000000E+00 0. -1.
<mgrwt>
<rscale>  1 0.66778759E+03</rscale>
<asrwt>0</asrwt>
<pdfrwt beam="2">  1       21 0.31371908E+00 0.82767863E+03</pdfrwt>
<pdfrwt beam="1">  1        4 0.26255983E-01 0.82767863E+03</pdfrwt>
<totfact> 0.12616959E+01</totfact>
</mgrwt>
</event>
<event>
 6    1  0.1412458E-005  0.1098068E+04  0.7818608E-02  0.9458775E-01
          4   -1    0    0  502    0 -0.00000000000E+00  0.00000000000E+00  0.20043287566E+04  0.20043287566E+04  0.00000000000E+00 0.  1.
         21   -1    0    0  501  502  0.00000000000E+00 -0.00000000000E+00 -0.30265443834E+03  0.30265443834E+03  0.00000000000E+00 0.  1.
    9000010    2    1    2  501    0 -0.44995596739E+02 -0.43826322684E+03  0.10424013958E+04  0.15140518882E+04  0.10058097189E+04 0.  0.
        -13    1    3    3    0    0 -0.14788730271E+03  0.30862161895E+03  0.36742658335E+03  0.50211578675E+03  0.10566000000E+00 0.  1.
          4    1    3    3  501    0  0.10289170598E+03 -0.74688484579E+03  0.67497481243E+03  0.10119361015E+04  0.00000000000E+00 0.  1.
         13    1    1    2    0    0  0.44995596739E+02  0.43826322684E+03  0.65927292252E+03  0.79293130677E+03  0.10566000000E+00 0. -1.
<mgrwt>
<rscale>  1 0.87392627E+03</rscale>
<asrwt>0</asrwt>
<pdfrwt beam="2">  1       21 0.46562223E-01 0.10980676E+04</pdfrwt>
<pdfrwt beam="1">  1        4 0.30835826E+00 0.10980676E+04</pdfrwt>
<totfact> 0.47735562E+00</totfact>
</mgrwt>
</event>
<event>
 6    1  0.1412458E-005  0.1038152E+04  0.7818608E-02  0.9528674E-01
         21   -1    0    0  501  502  0.00000000000E+00  0.00000000000E+00  0.24264637453E+03  0.24264637453E+03  0.00000000000E+00 0.  1.
          4   -1    0    0  502    0 -0.00000000000E+00 -0.00000000000E+00 -0.21718553479E+04  0.21718553479E+04  0.00000000000E+00 0.  1.
    9000010    2    1    2  501    0 -0.94635550529E+02  0.39696529538E+03 -0.14773837403E+04  0.18056639891E+04  0.95457969400E+03 0.  0.
        -13    1    3    3    0    0  0.18615920022E+03 -0.13764290118E+03 -0.10258531862E+04  0.10516537390E+04  0.10566000000E+00 0.  1.
          4    1    3    3  501    0 -0.28079475075E+03  0.53460819656E+03 -0.45153055416E+03  0.75401025007E+03  0.00000000000E+00 0.  1.
         13    1    1    2    0    0  0.94635550529E+02 -0.39696529538E+03 -0.45182523308E+03  0.60883773337E+03  0.10566000000E+00 0. -1.
<mgrwt>
<rscale>  1 0.82202446E+03</rscale>
<asrwt>0</asrwt>
<pdfrwt beam="1">  1       21 0.37330211E-01 0.10381521E+04</pdfrwt>
<pdfrwt beam="2">  1        4 0.33413159E+00 0.10381521E+04</pdfrwt>
<totfact> 0.52773357E+00</totfact>
</mgrwt>
</event>
<event>
 6    1  0.1412458E-005  0.1160420E+04  0.7818608E-02  0.9323523E-01
          4   -1    0    0  502    0 -0.00000000000E+00  0.00000000000E+00  0.84831258325E+03  0.84831258325E+03  0.00000000000E+00 0.  1.
         21   -1    0    0  501  502  0.00000000000E+00 -0.00000000000E+00 -0.10433719932E+04  0.10433719932E+04  0.00000000000E+00 0. -1.
    9000010    2    1    2  501    0 -0.26715853280E+02 -0.60540466066E+03 -0.43589378356E+03  0.12395881522E+04  0.98961955136E+03 0.  0.
        -13    1    3    3    0    0 -0.14015515307E+03 -0.51516662297E+03  0.21291759741E+03  0.57478172449E+03  0.10566000000E+00 0.  1.
          4    1    3    3  501    0  0.11343929979E+03 -0.90238037690E+02 -0.64881138097E+03  0.66480642766E+03  0.00000000000E+00 0.  1.
         13    1    1    2    0    0  0.26715853280E+02  0.60540466066E+03  0.24083437358E+03  0.65209642433E+03  0.10566000000E+00 0. -1.
<mgrwt>
<rscale>  1 0.98645791E+03</rscale>
<asrwt>0</asrwt>
<pdfrwt beam="2">  1       21 0.16051877E+00 0.11604204E+04</pdfrwt>
<pdfrwt beam="1">  1        4 0.13050963E+00 0.11604204E+04</pdfrwt>
<totfact> 0.36671594E+00</totfact>
</mgrwt>
</event>
<event>
 6    1  0.1412458E-005  0.1053257E+04  0.7818608E-02  0.9577969E-01
          4   -1    0    0  502    0 -0.00000000000E+00  0.00000000000E+00  0.73189253419E+03  0.73189253419E+03  0.00000000000E+00 0.  1.
         21   -1    0    0  501  502  0.00000000000E+00 -0.00000000000E+00 -0.66601156179E+03  0.66601156179E+03  0.00000000000E+00 0.  1.
    9000010    2    1    2  501    0  0.32552114097E+03  0.51155393412E+02 -0.33305850423E+02  0.10537835873E+04  0.10003847669E+04 0.  0.
        -13    1    3    3    0    0  0.59462533834E+03 -0.24332871882E+03 -0.97138929710E+02  0.64978776629E+03  0.10566000000E+00 0.  1.
          4    1    3    3  501    0 -0.26910419737E+03  0.29448411223E+03  0.63833079288E+02  0.40399582103E+03  0.00000000000E+00 0.  1.
         13    1    1    2    0    0 -0.32552114097E+03 -0.51155393412E+02  0.99186822821E+02  0.34412050866E+03  0.10566000000E+00 0. -1.
<mgrwt>
<rscale>  1 0.78771657E+03</rscale>
<asrwt>0</asrwt>
<pdfrwt beam="2">  1       21 0.10246332E+00 0.10532571E+04</pdfrwt>
<pdfrwt beam="1">  1        4 0.11259885E+00 0.10532571E+04</pdfrwt>
<totfact> 0.17810392E+01</totfact>
</mgrwt>
</event>
<event>
 6    1  0.1412458E-005  0.1022921E+04  0.7818608E-02  0.9897129E-01
          4   -1    0    0  502    0 -0.00000000000E+00  0.00000000000E+00  0.51341309337E+03  0.51341309337E+03  0.00000000000E+00 0.  1.
         21   -1    0    0  501  502  0.00000000000E+00 -0.00000000000E+00 -0.79982889845E+03  0.79982889845E+03  0.00000000000E+00 0.  1.
    9000010    2    1    2  501    0  0.12112471651E+03  0.28130041281E+02 -0.44178060823E+03  0.11142426717E+04  0.10153344914E+04 0.  0.
        -13    1    3    3    0    0 -0.45132654027E+02  0.38270820941E+03 -0.58222146836E+03  0.69820081595E+03  0.10566000000E+00 0.  1.
          4    1    3    3  501    0  0.16625737053E+03 -0.35457816813E+03  0.14044086012E+03  0.41604185578E+03  0.00000000000E+00 0.  1.
         13    1    1    2    0    0 -0.12112471651E+03 -0.28130041281E+02  0.15536480316E+03  0.19899932009E+03  0.10566000000E+00 0. -1.
<mgrwt>
<rscale>  1 0.60400627E+03</rscale>
<asrwt>0</asrwt>
<pdfrwt beam="2">  1       21 0.12305060E+00 0.10229206E+04</pdfrwt>
<pdfrwt beam="1">  1        4 0.78986630E-01 0.10229206E+04</pdfrwt>
<totfact> 0.26048071E+01</totfact>
</mgrwt>
</event>
<event>
 6    1  0.1412458E-005  0.1038695E+04  0.7818608E-02  0.9620536E-01
          4   -1    0    0  502    0 -0.00000000000E+00  0.00000000000E+00  0.15980528800E+04  0.15980528800E+04  0.00000000000E+00 0.  1.
         21   -1    0    0  501  502  0.00000000000E+00 -0.00000000000E+00 -0.29822641757E+03  0.29822641757E+03  0.00000000000E+00 0.  1.
    9000010    2    1    2  501    0 -0.28685997699E+03 -0.76763696330E+02  0.78505594429E+03  0.13019982117E+04  0.99534174845E+03 0.  0.
        -13    1    3    3    0    0 -0.42981221917E+03  0.36057059321E+03  0.31137358568E+03  0.64164103474E+03  0.10566000000E+00 0.  1.
          4    1    3    3  501    0  0.14295224218E+03 -0.43733428954E+03  0.47368235861E+03  0.66035717699E+03  0.00000000000E+00 0.  1.
         13    1    1    2    0    0  0.28685997699E+03  0.76763696330E+02  0.51477051815E+03  0.59428108584E+03  0.10566000000E+00 0. -1.
<mgrwt>
<rscale>  1 0.75951785E+03</rscale>
<asrwt>0</asrwt>
<pdfrwt beam="2">  1       21 0.45880988E-01 0.10386946E+04</pdfrwt>
<pdfrwt beam="1">  1        4 0.24585428E+00 0.10386946E+04</pdfrwt>
<totfact> 0.12084057E+01</totfact>
</mgrwt>
</event>
<event>
 6    1  0.1412458E-005  0.1017988E+04  0.7818608E-02  0.9834816E-01
          4   -1    0    0  502    0 -0.00000000000E+00  0.00000000000E+00  0.90755787869E+03  0.90755787869E+03  0.00000000000E+00 0.  1.
         21   -1    0    0  501  502  0.00000000000E+00 -0.00000000000E+00 -0.44960996969E+03  0.44960996969E+03  0.00000000000E+00 0.  1.
    9000010    2    1    2  501    0  0.72760992638E+02  0.13616530409E+03  0.17229785457E+03  0.10324662672E+04  0.10062131435E+04 0.  0.
        -13    1    3    3    0    0  0.49116657222E+02 -0.43680650509E+03  0.12537654441E+03  0.45709042646E+03  0.10566000000E+00 0.  1.
          4    1    3    3  501    0  0.23644335417E+02  0.57297180919E+03  0.46921310161E+02  0.57537584070E+03  0.00000000000E+00 0.  1.
         13    1    1    2    0    0 -0.72760992638E+02 -0.13616530409E+03  0.28565005442E+03  0.32470158122E+03  0.10566000000E+00 0. -1.
<mgrwt>
<rscale>  1 0.63527145E+03</rscale>
<asrwt>0</asrwt>
<pdfrwt beam="2">  1       21 0.69170765E-01 0.10179882E+04</pdfrwt>
<pdfrwt beam="1">  1        4 0.13962429E+00 0.10179882E+04</pdfrwt>
<totfact> 0.26364099E+01</totfact>
</mgrwt>
</event>
<event>
 6    1  0.1412458E-005  0.9618909E+03  0.7818608E-02  0.9816774E-01
          4   -1    0    0  502    0 -0.00000000000E+00  0.00000000000E+00  0.28978456324E+03  0.28978456324E+03  0.00000000000E+00 0.  1.
         21   -1    0    0  501  502  0.00000000000E+00 -0.00000000000E+00 -0.12023228595E+04  0.12023228595E+04  0.00000000000E+00 0.  1.
    9000010    2    1    2  501    0  0.14382817170E+03  0.13035842436E+03 -0.63191936122E+03  0.11508936193E+04  0.94210094051E+03 0.  0.
        -13    1    3    3    0    0  0.83978890543E+02  0.16821321559E+03 -0.87641208164E+03  0.89635165418E+03  0.10566000000E+00 0.  1.
          4    1    3    3  501    0  0.59849281154E+02 -0.37854791235E+02  0.24449272042E+03  0.25454196513E+03  0.00000000000E+00 0.  1.
         13    1    1    2    0    0 -0.14382817170E+03 -0.13035842436E+03 -0.28061893504E+03  0.34121380342E+03  0.10566000000E+00 0. -1.
<mgrwt>
<rscale>  1 0.64470062E+03</rscale>
<asrwt>0</asrwt>
<pdfrwt beam="2">  1       21 0.18497275E+00 0.96189087E+03</pdfrwt>
<pdfrwt beam="1">  1        4 0.44582241E-01 0.96189087E+03</pdfrwt>
<totfact> 0.29008869E+01</totfact>
</mgrwt>
</event>
<event>
 6    1  0.1412458E-005  0.1042429E+04  0.7818608E-02  0.9836745E-01
          4   -1    0    0  502    0 -0.00000000000E+00  0.00000000000E+00  0.15449047182E+04  0.15449047182E+04  0.00000000000E+00 0.  1.
         21   -1    0    0  501  502  0.00000000000E+00 -0.00000000000E+00 -0.27340068411E+03  0.27340068411E+03  0.00000000000E+00 0.  1.
    9000010    2    1    2  501    0 -0.86824415726E+02  0.11347094343E+03  0.76764506921E+03  0.12945802818E+04  0.10325914098E+04 0.  0.
        -13    1    3    3    0    0  0.44482907362E+03  0.15810639111E+03  0.53220701867E+03  0.71141749876E+03  0.10566000000E+00 0.  1.
          4    1    3    3  501    0 -0.53165348935E+03 -0.44635447679E+02  0.23543805054E+03  0.58316278307E+03  0.00000000000E+00 0.  1.
         13    1    1    2    0    0  0.86824415726E+02 -0.11347094343E+03  0.50385896485E+03  0.52372512045E+03  0.10566000000E+00 0. -1.
<mgrwt>
<rscale>  1 0.63427326E+03</rscale>
<asrwt>0</asrwt>
<pdfrwt beam="2">  1       21 0.42061645E-01 0.10424294E+04</pdfrwt>
<pdfrwt beam="1">  1        4 0.23767764E+00 0.10424294E+04</pdfrwt>
<totfact> 0.16335326E+01</totfact>
</mgrwt>
</event>
<event>
 6    1  0.1412458E-005  0.1047117E+04  0.7818608E-02  0.9583855E-01
         21   -1    0    0  501  502  0.00000000000E+00  0.00000000000E+00  0.93617622689E+03  0.93617622689E+03  0.00000000000E+00 0.  1.
          4   -1    0    0  502    0 -0.00000000000E+00 -0.00000000000E+00 -0.55554499176E+03  0.55554499176E+03  0.00000000000E+00 0.  1.
    9000010    2    1    2  501    0  0.23086670130E+03 -0.23387244592E+03  0.47499471643E+03  0.11498144587E+04  0.99421202673E+03 0.  0.
        -13    1    3    3    0    0  0.56258222580E+03 -0.33409551254E+03  0.46578780397E+03  0.80316677083E+03  0.10566000000E+00 0.  1.
          4    1    3    3  501    0 -0.33171552450E+03  0.10022306661E+03  0.92069124621E+01  0.34664768788E+03  0.00000000000E+00 0.  1.
         13    1    1    2    0    0 -0.23086670130E+03  0.23387244592E+03 -0.94363481298E+02  0.34190675995E+03  0.10566000000E+00 0. -1.
<mgrwt>
<rscale>  1 0.78374024E+03</rscale>
<asrwt>0</asrwt>
<pdfrwt beam="1">  1       21 0.14402711E+00 0.10471167E+04</pdfrwt>
<pdfrwt beam="2">  1        4 0.85468460E-01 0.10471167E+04</pdfrwt>
<totfact> 0.14197981E+01</totfact>
</mgrwt>
</event>
<event>
 6    1  0.1412458E-005  0.1014194E+04  0.7818608E-02  0.9744318E-01
         21   -1    0    0  501  502  0.00000000000E+00  0.00000000000E+00  0.10982542529E+04  0.10982542529E+04  0.00000000000E+00 0.  1.
          4   -1    0    0  502    0 -0.00000000000E+00 -0.00000000000E+00 -0.42099814538E+03  0.42099814538E+03  0.00000000000E+00 0.  1.
    9000010    2    1    2  501    0  0.64976477237E+02  0.20000753603E+03  0.78542805256E+03  0.12827653206E+04  0.99215154336E+03 0.  0.
        -13    1    3    3    0    0 -0.15262152975E+03  0.23953072264E+03 -0.15024357438E+03  0.32131206207E+03  0.10566000000E+00 0.  1.
          4    1    3    3  501    0  0.21759800698E+03 -0.39523186603E+02  0.93567162694E+03  0.96145325855E+03  0.00000000000E+00 0.  1.
         13    1    1    2    0    0 -0.64976477237E+02 -0.20000753603E+03 -0.10817194500E+03  0.23648707769E+03  0.10566000000E+00 0. -1.
<mgrwt>
<rscale>  1 0.68438305E+03</rscale>
<asrwt>0</asrwt>
<pdfrwt beam="1">  1       21 0.16896219E+00 0.10141941E+04</pdfrwt>
<pdfrwt beam="2">  1        4 0.64768946E-01 0.10141941E+04</pdfrwt>
<totfact> 0.16997169E+01</totfact>
</mgrwt>
</event>
<event>
 6    1  0.1412458E-005  0.1069415E+04  0.7818608E-02  0.9505954E-01
         21   -1    0    0  501  502  0.00000000000E+00  0.00000000000E+00  0.15567682844E+04  0.15567682844E+04  0.00000000000E+00 0. -1.
          4   -1    0    0  502    0 -0.00000000000E+00 -0.00000000000E+00 -0.42695645761E+03  0.42695645761E+03  0.00000000000E+00 0.  1.
    9000010    2    1    2  501    0  0.27598815580E+03 -0.29518211988E+03  0.11609334417E+04  0.15784217539E+04  0.99012465442E+03 0.  0.
        -13    1    3    3    0    0  0.45487240054E+03 -0.28668101312E+03  0.12627223459E+04  0.13724294656E+04  0.10566000000E+00 0.  1.
          4    1    3    3  501    0 -0.17888424473E+03 -0.85011067613E+01 -0.10178890423E+03  0.20599228834E+03  0.00000000000E+00 0.  1.
         13    1    1    2    0    0 -0.27598815580E+03  0.29518211988E+03 -0.31121614899E+02  0.40530298805E+03  0.10566000000E+00 0. -1.
<mgrwt>
<rscale>  1 0.83846256E+03</rscale>
<asrwt>0</asrwt>
<pdfrwt beam="1">  1       21 0.23950281E+00 0.10694152E+04</pdfrwt>
<pdfrwt beam="2">  1        4 0.65685610E-01 0.10694152E+04</pdfrwt>
<totfact> 0.53553269E+00</totfact>
</mgrwt>
</event>
<event>
 6    1  0.1412458E-005  0.1068547E+04  0.7818608E-02  0.9507710E-01
         21   -1    0    0  501  502  0.00000000000E+00  0.00000000000E+00  0.13562039033E+04  0.13562039033E+04  0.00000000000E+00 0.  1.
          4   -1    0    0  502    0 -0.00000000000E+00 -0.00000000000E+00 -0.69006487517E+03  0.69006487517E+03  0.00000000000E+00 0.  1.
    9000010    2    1    2  501    0 -0.14387677798E+03 -0.37602861338E+03  0.10441552984E+04  0.14940058365E+04  0.98979548744E+03 0.  0.
        -13    1    3    3    0    0  0.27013476697E+03 -0.55225683764E+02  0.91349395432E+03  0.95419803197E+03  0.10566000000E+00 0.  1.
          4    1    3    3  501    0 -0.41401154495E+03 -0.32080292962E+03  0.13066134411E+03  0.53980780454E+03  0.00000000000E+00 0.  1.
         13    1    1    2    0    0  0.14387677798E+03  0.37602861338E+03 -0.37801627028E+03  0.55226294198E+03  0.10566000000E+00 0. -1.
<mgrwt>
<rscale>  1 0.83717743E+03</rscale>
<asrwt>0</asrwt>
<pdfrwt beam="1">  1       21 0.20864675E+00 0.10685472E+04</pdfrwt>
<pdfrwt beam="2">  1        4 0.10616383E+00 0.10685472E+04</pdfrwt>
<totfact> 0.28026275E+00</totfact>
</mgrwt>
</event>
<event>
 6    1  0.1412458E-005  0.1029426E+04  0.7818608E-02  0.9739893E-01
          4   -1    0    0  502    0 -0.00000000000E+00  0.00000000000E+00  0.40138765947E+03  0.40138765947E+03  0.00000000000E+00 0.  1.
         21   -1    0    0  501  502  0.00000000000E+00 -0.00000000000E+00 -0.10716209382E+04  0.10716209382E+04  0.00000000000E+00 0.  1.
    9000010    2    1    2  501    0  0.20226390913E+03 -0.27162789203E+02 -0.72809011404E+03  0.12608861552E+04  0.10089946363E+04 0.  0.
        -13    1    3    3    0    0 -0.35958046386E+03  0.18781925085E+03 -0.16847935813E+03  0.43927154046E+03  0.10566000000E+00 0.  1.
          4    1    3    3  501    0  0.56184437299E+03 -0.21498204005E+03 -0.55961075592E+03  0.82161461473E+03  0.00000000000E+00 0.  1.
         13    1    1    2    0    0 -0.20226390913E+03  0.27162789203E+02  0.57856835297E+02  0.21212244249E+03  0.10566000000E+00 0. -1.
<mgrwt>
<rscale>  1 0.68690458E+03</rscale>
<asrwt>0</asrwt>
<pdfrwt beam="2">  1       21 0.16486476E+00 0.10294264E+04</pdfrwt>
<pdfrwt beam="1">  1        4 0.61751948E-01 0.10294264E+04</pdfrwt>
<totfact> 0.20238829E+01</totfact>
</mgrwt>
</event>
<event>
 6    1  0.1412458E-005  0.1049290E+04  0.7818608E-02  0.9570954E-01
          4   -1    0    0  502    0 -0.00000000000E+00  0.00000000000E+00  0.10885742008E+04  0.10885742008E+04  0.00000000000E+00 0.  1.
         21   -1    0    0  501  502  0.00000000000E+00 -0.00000000000E+00 -0.46196798559E+03  0.46196798559E+03  0.00000000000E+00 0. -1.
    9000010    2    1    2  501    0 -0.11132677593E+03 -0.32275588293E+03  0.59848202202E+03  0.12079695775E+04  0.99219189596E+03 0.  0.
        -13    1    3    3    0    0 -0.48040960082E+03  0.45671498804E+02  0.11334836634E+03  0.49570871858E+03  0.10566000000E+00 0.  1.
          4    1    3    3  501    0  0.36908282488E+03 -0.36842738173E+03  0.48513365567E+03  0.71226085888E+03  0.00000000000E+00 0.  1.
         13    1    1    2    0    0  0.11132677593E+03  0.32275588293E+03  0.28124193223E+02  0.34257260896E+03  0.10566000000E+00 0. -1.
<mgrwt>
<rscale>  1 0.79248815E+03</rscale>
<asrwt>0</asrwt>
<pdfrwt beam="2">  1       21 0.71071998E-01 0.10492901E+04</pdfrwt>
<pdfrwt beam="1">  1        4 0.16747295E+00 0.10492901E+04</pdfrwt>
<totfact> 0.15086450E+01</totfact>
</mgrwt>
</event>
<event>
 6    1  0.1412458E-005  0.1008669E+04  0.7818608E-02  0.9975714E-01
          4   -1    0    0  502    0 -0.00000000000E+00  0.00000000000E+00  0.29567132106E+03  0.29567132106E+03  0.00000000000E+00 0.  1.
         21   -1    0    0  501  502  0.00000000000E+00 -0.00000000000E+00 -0.13665765136E+04  0.13665765136E+04  0.00000000000E+00 0.  1.
    9000010    2    1    2  501    0  0.10085195645E+02  0.10040735581E+03 -0.11531627827E+04  0.15320569342E+04  0.10036088371E+04 0.  0.
        -13    1    3    3    0    0  0.73306721319E+02  0.12850898041E+03  0.15951187267E+03  0.21756029537E+03  0.10566000000E+00 0.  1.
          4    1    3    3  501    0 -0.63221525674E+02 -0.28101624592E+02 -0.13126746554E+04  0.13144966388E+04  0.00000000000E+00 0.  1.
         13    1    1    2    0    0 -0.10085195645E+02 -0.10040735581E+03  0.82257590139E+02  0.13019090050E+03  0.10566000000E+00 0. -1.
<mgrwt>
<rscale>  1 0.56728073E+03</rscale>
<asrwt>0</asrwt>
<pdfrwt beam="2">  1       21 0.21024254E+00 0.10086694E+04</pdfrwt>
<pdfrwt beam="1">  1        4 0.45487895E-01 0.10086694E+04</pdfrwt>
<totfact> 0.18495518E+01</totfact>
</mgrwt>
</event>
<event>
 6    1  0.1412458E-005  0.1037905E+04  0.7818608E-02  0.9801763E-01
         21   -1    0    0  501  502  0.00000000000E+00  0.00000000000E+00  0.37194158787E+03  0.37194158787E+03  0.00000000000E+00 0.  1.
          4   -1    0    0  502    0 -0.00000000000E+00 -0.00000000000E+00 -0.10492497240E+04  0.10492497240E+04  0.00000000000E+00 0.  1.
    9000010    2    1    2  501    0  0.97508799946E+02  0.12974824372E+03 -0.42578235237E+03  0.11218456858E+04  0.10251363608E+04 0.  0.
        -13    1    3    3    0    0 -0.56053477901E+02  0.24731278076E+03  0.28718128292E+03  0.38311708959E+03  0.10566000000E+00 0.  1.
          4    1    3    3  501    0  0.15356227785E+03 -0.11756453705E+03 -0.71296363530E+03  0.73872859617E+03  0.00000000000E+00 0.  1.
         13    1    1    2    0    0 -0.97508799946E+02 -0.12974824372E+03 -0.25152578380E+03  0.29934562615E+03  0.10566000000E+00 0. -1.
<mgrwt>
<rscale>  1 0.65268037E+03</rscale>
<asrwt>0</asrwt>
<pdfrwt beam="1">  1       21 0.57221784E-01 0.10379052E+04</pdfrwt>
<pdfrwt beam="2">  1        4 0.16142303E+00 0.10379052E+04</pdfrwt>
<totfact> 0.27282072E+01</totfact>
</mgrwt>
</event>
<event>
 6    1  0.1412458E-005  0.1074869E+04  0.7818608E-02  0.9492804E-01
         21   -1    0    0  501  502  0.00000000000E+00  0.00000000000E+00  0.36745585458E+03  0.36745585458E+03  0.00000000000E+00 0.  1.
          4   -1    0    0  502    0 -0.00000000000E+00 -0.00000000000E+00 -0.18423169639E+04  0.18423169639E+04  0.00000000000E+00 0.  1.
    9000010    2    1    2  501    0  0.18381385286E+03  0.37399946232E+03 -0.57707498961E+03  0.12199834175E+04  0.99079809503E+03 0.  0.
        -13    1    3    3    0    0  0.27437091660E+03 -0.19388203200E+03 -0.54974955369E+03  0.64427806509E+03  0.10566000000E+00 0.  1.
          4    1    3    3  501    0 -0.90557063746E+02  0.56788149432E+03 -0.27325435920E+02  0.57570535245E+03  0.00000000000E+00 0.  1.
         13    1    1    2    0    0 -0.18381385286E+03 -0.37399946232E+03 -0.89778611967E+03  0.98978940091E+03  0.10566000000E+00 0. -1.
<mgrwt>
<rscale>  1 0.84816471E+03</rscale>
<asrwt>0</asrwt>
<pdfrwt beam="1">  1       21 0.56531669E-01 0.10748693E+04</pdfrwt>
<pdfrwt beam="2">  1        4 0.28343338E+00 0.10748693E+04</pdfrwt>
<totfact> 0.44815597E+00</totfact>
</mgrwt>
</event>
<event>
 6    1  0.1412458E-005  0.1053173E+04  0.7818608E-02  0.9579648E-01
          4   -1    0    0  502    0 -0.00000000000E+00  0.00000000000E+00  0.92089380540E+03  0.92089380540E+03  0.00000000000E+00 0.  1.
         21   -1    0    0  501  502  0.00000000000E+00 -0.00000000000E+00 -0.53159016084E+03  0.53159016084E+03  0.00000000000E+00 0. -1.
    9000010    2    1    2  501    0  0.30223244230E+03 -0.12665132535E+03  0.39480307056E+03  0.11247412894E+04  0.10008938486E+04 0.  0.
        -13    1    3    3    0    0 -0.35650147492E+03 -0.16304266360E+03  0.11906286844E+03  0.40969768071E+03  0.10566000000E+00 0.  1.
          4    1    3    3  501    0  0.65873391723E+03  0.36391338246E+02  0.27574020213E+03  0.71504360865E+03  0.00000000000E+00 0.  1.
         13    1    1    2    0    0 -0.30223244230E+03  0.12665132535E+03 -0.54994260077E+01  0.32774267687E+03  0.10566000000E+00 0. -1.
<mgrwt>
<rscale>  1 0.78657986E+03</rscale>
<asrwt>0</asrwt>
<pdfrwt beam="2">  1       21 0.81783102E-01 0.10531731E+04</pdfrwt>
<pdfrwt beam="1">  1        4 0.14167597E+00 0.10531731E+04</pdfrwt>
<totfact> 0.17128002E+01</totfact>
</mgrwt>
</event>
<event>
 6    1  0.1412458E-005  0.1057912E+04  0.7818608E-02  0.9529088E-01
          4   -1    0    0  502    0 -0.00000000000E+00  0.00000000000E+00  0.10313446938E+04  0.10313446938E+04  0.00000000000E+00 0.  1.
         21   -1    0    0  501  502  0.00000000000E+00 -0.00000000000E+00 -0.58827072304E+03  0.58827072304E+03  0.00000000000E+00 0.  1.
    9000010    2    1    2  501    0  0.92958503098E+02  0.37370474292E+03  0.34948140959E+02  0.10584886733E+04  0.98533262445E+03 0.  0.
        -13    1    3    3    0    0 -0.46961079395E+02  0.69943850948E+03  0.56740310604E+02  0.70330579803E+03  0.10566000000E+00 0.  1.
          4    1    3    3  501    0  0.13991958249E+03 -0.32573376656E+03 -0.21792169645E+02  0.35518287529E+03  0.00000000000E+00 0.  1.
         13    1    1    2    0    0 -0.92958503098E+02 -0.37370474292E+03  0.40812582981E+03  0.56112674353E+03  0.10566000000E+00 0. -1.
<mgrwt>
<rscale>  1 0.82172859E+03</rscale>
<asrwt>0</asrwt>
<pdfrwt beam="2">  1       21 0.90503189E-01 0.10579116E+04</pdfrwt>
<pdfrwt beam="1">  1        4 0.15866841E+00 0.10579116E+04</pdfrwt>
<totfact> 0.99041795E+00</totfact>
</mgrwt>
</event>
<event>
 6    1  0.1412458E-005  0.1118834E+04  0.7818608E-02  0.9445436E-01
          4   -1    0    0  502    0 -0.00000000000E+00  0.00000000000E+00  0.62623080930E+03  0.62623080930E+03  0.00000000000E+00 0.  1.
         21   -1    0    0  501  502  0.00000000000E+00 -0.00000000000E+00 -0.10167102308E+04  0.10167102308E+04  0.00000000000E+00 0.  1.
    9000010    2    1    2  501    0 -0.43357015399E+03 -0.51324619161E+02 -0.44269422889E+03  0.12032323954E+04  0.10301323808E+04 0.  0.
        -13    1    3    3    0    0 -0.31261909289E+03 -0.53343569896E+03 -0.29246804724E+03  0.68397508140E+03  0.10566000000E+00 0.  1.
          4    1    3    3  501    0 -0.12095106110E+03  0.48211107980E+03 -0.15022618164E+03  0.51925731395E+03  0.00000000000E+00 0.  1.
         13    1    1    2    0    0  0.43357015399E+03  0.51324619161E+02  0.52214807407E+02  0.43970864472E+03  0.10566000000E+00 0. -1.
<mgrwt>
<rscale>  1 0.88428976E+03</rscale>
<asrwt>0</asrwt>
<pdfrwt beam="2">  1       21 0.15641696E+00 0.11188342E+04</pdfrwt>
<pdfrwt beam="1">  1        4 0.96343202E-01 0.11188342E+04</pdfrwt>
<totfact> 0.84319193E+00</totfact>
</mgrwt>
</event>
<event>
 6    1  0.1412458E-005  0.1034709E+04  0.7818608E-02  0.9995773E-01
         21   -1    0    0  501  502  0.00000000000E+00  0.00000000000E+00  0.28672311109E+03  0.28672311109E+03  0.00000000000E+00 0.  1.
          4   -1    0    0  502    0 -0.00000000000E+00 -0.00000000000E+00 -0.12648631700E+04  0.12648631700E+04  0.00000000000E+00 0.  1.
    9000010    2    1    2  501    0 -0.28261761701E+02  0.83064503682E+02 -0.67357889408E+03  0.12346384096E+04  0.10309825590E+04 0.  0.
        -13    1    3    3    0    0 -0.34932497595E+03  0.14368472398E+03  0.10351527250E+03  0.39164864551E+03  0.10566000000E+00 0.  1.
          4    1    3    3  501    0  0.32106321425E+03 -0.60620220303E+02 -0.77709416658E+03  0.84298976410E+03  0.00000000000E+00 0.  1.
         13    1    1    2    0    0  0.28261761701E+02 -0.83064503682E+02 -0.30456116478E+03  0.31694787143E+03  0.10566000000E+00 0. -1.
<mgrwt>
<rscale>  1 0.55835987E+03</rscale>
<asrwt>0</asrwt>
<pdfrwt beam="1">  1       21 0.44111248E-01 0.10347094E+04</pdfrwt>
<pdfrwt beam="2">  1        4 0.19459433E+00 0.10347094E+04</pdfrwt>
<totfact> 0.28010955E+01</totfact>
</mgrwt>
</event>
<event>
 6    1  0.1412458E-005  0.1101865E+04  0.7818608E-02  0.9473949E-01
          4   -1    0    0  502    0 -0.00000000000E+00  0.00000000000E+00  0.43559610287E+03  0.43559610287E+03  0.00000000000E+00 0.  1.
         21   -1    0    0  501  502  0.00000000000E+00 -0.00000000000E+00 -0.13745525990E+04  0.13745525990E+04  0.00000000000E+00 0.  1.
    9000010    2    1    2  501    0 -0.28483101423E+03 -0.29950952423E+03 -0.50901493600E+03  0.12137558632E+04  0.10214070827E+04 0.  0.
        -13    1    3    3    0    0 -0.30257364322E+03  0.20220772471E+03 -0.60174530917E+03  0.70323267968E+03  0.10566000000E+00 0.  1.
          4    1    3    3  501    0  0.17742628992E+02 -0.50171724893E+03  0.92730373165E+02  0.51052318348E+03  0.00000000000E+00 0.  1.
         13    1    1    2    0    0  0.28483101423E+03  0.29950952423E+03 -0.42994156012E+03  0.59639283870E+03  0.10566000000E+00 0. -1.
<mgrwt>
<rscale>  1 0.86231994E+03</rscale>
<asrwt>0</asrwt>
<pdfrwt beam="2">  1       21 0.21146963E+00 0.11018653E+04</pdfrwt>
<pdfrwt beam="1">  1        4 0.67014785E-01 0.11018653E+04</pdfrwt>
<totfact> 0.77967373E+00</totfact>
</mgrwt>
</event>
<event>
 6    1  0.1412458E-005  0.1072595E+04  0.7818608E-02  0.9521698E-01
          4   -1    0    0  502    0 -0.00000000000E+00  0.00000000000E+00  0.50778964838E+03  0.50778964838E+03  0.00000000000E+00 0.  1.
         21   -1    0    0  501  502  0.00000000000E+00 -0.00000000000E+00 -0.12324613841E+04  0.12324613841E+04  0.00000000000E+00 0. -1.
    9000010    2    1    2  501    0 -0.24633376142E+03 -0.28818421963E+03 -0.19704754335E+03  0.10905451252E+04  0.10033595912E+04 0.  0.
        -13    1    3    3    0    0 -0.27613856580E+03 -0.47504838528E+03 -0.49369311972E+03  0.73868557824E+03  0.10566000000E+00 0.  1.
          4    1    3    3  501    0  0.29804804381E+02  0.18686416565E+03  0.29664557638E+03  0.35185954691E+03  0.00000000000E+00 0.  1.
         13    1    1    2    0    0  0.24633376142E+03  0.28818421963E+03 -0.52762419236E+03  0.64970590730E+03  0.10566000000E+00 0. -1.
<mgrwt>
<rscale>  1 0.82702877E+03</rscale>
<asrwt>0</asrwt>
<pdfrwt beam="2">  1       21 0.18960944E+00 0.10725954E+04</pdfrwt>
<pdfrwt beam="1">  1        4 0.78121485E-01 0.10725954E+04</pdfrwt>
<totfact> 0.78331036E+00</totfact>
</mgrwt>
</event>
<event>
 6    1  0.1412458E-005  0.1101162E+04  0.7818608E-02  0.9432022E-01
          4   -1    0    0  502    0 -0.00000000000E+00  0.00000000000E+00  0.13170273532E+04  0.13170273532E+04  0.00000000000E+00 0.  1.
         21   -1    0    0  501  502  0.00000000000E+00 -0.00000000000E+00 -0.68359552645E+03  0.68359552645E+03  0.00000000000E+00 0.  1.
    9000010    2    1    2  501    0  0.47681168365E+03 -0.57477863697E+02 -0.11943088404E+03  0.11076193192E+04  0.99091055789E+03 0.  0.
        -13    1    3    3    0    0  0.28794545033E+03  0.45020795241E+03  0.58162998286E+02  0.53757113791E+03  0.10566000000E+00 0.  1.
          4    1    3    3  501    0  0.18886623332E+03 -0.50768581611E+03 -0.17759388233E+03  0.57004818130E+03  0.00000000000E+00 0.  1.
         13    1    1    2    0    0 -0.47681168365E+03  0.57477863697E+02  0.75286271077E+03  0.89300356041E+03  0.10566000000E+00 0. -1.
<mgrwt>
<rscale>  1 0.89486639E+03</rscale>
<asrwt>0</asrwt>
<pdfrwt beam="2">  1       21 0.10516854E+00 0.11011616E+04</pdfrwt>
<pdfrwt beam="1">  1        4 0.20261959E+00 0.11011616E+04</pdfrwt>
<totfact> 0.33488477E+00</totfact>
</mgrwt>
</event>
<event>
 6    1  0.1412458E-005  0.1078747E+04  0.7818608E-02  0.9479421E-01
          4   -1    0    0  502    0 -0.00000000000E+00  0.00000000000E+00  0.13407548306E+04  0.13407548306E+04  0.00000000000E+00 0.  1.
         21   -1    0    0  501  502  0.00000000000E+00 -0.00000000000E+00 -0.79724017936E+03  0.79724017936E+03  0.00000000000E+00 0. -1.
    9000010    2    1    2  501    0 -0.37691430545E+03  0.21124468309E+03  0.10270968908E+04  0.14895040667E+04  0.98843595235E+03 0.  0.
        -13    1    3    3    0    0 -0.67230044589E+02  0.28352227054E+03  0.11207373868E+04  0.11579970026E+04  0.10566000000E+00 0.  1.
          4    1    3    3  501    0 -0.30968426086E+03 -0.72277587445E+02 -0.93640495958E+02  0.33150706411E+03  0.00000000000E+00 0.  1.
         13    1    1    2    0    0  0.37691430545E+03 -0.21124468309E+03 -0.48358223961E+03  0.64849094320E+03  0.10566000000E+00 0. -1.
<mgrwt>
<rscale>  1 0.85818202E+03</rscale>
<asrwt>0</asrwt>
<pdfrwt beam="2">  1       21 0.12265234E+00 0.10787467E+04</pdfrwt>
<pdfrwt beam="1">  1        4 0.20626997E+00 0.10787467E+04</pdfrwt>
<totfact> 0.21436149E+00</totfact>
</mgrwt>
</event>
<event>
 6    1  0.1412458E-005  0.1025519E+04  0.7818608E-02  0.9702263E-01
         21   -1    0    0  501  502  0.00000000000E+00  0.00000000000E+00  0.15607163052E+03  0.15607163052E+03  0.00000000000E+00 0.  1.
          4   -1    0    0  502    0 -0.00000000000E+00 -0.00000000000E+00 -0.25503666513E+04  0.25503666513E+04  0.00000000000E+00 0.  1.
    9000010    2    1    2  501    0  0.13389106780E+03 -0.19197559891E+03 -0.18840360511E+04  0.21450599103E+04  0.99845316797E+03 0.  0.
        -13    1    3    3    0    0  0.66393637163E+02 -0.14681607777E+03 -0.19983497854E+04  0.20048353927E+04  0.10566000000E+00 0.  1.
          4    1    3    3  501    0  0.67497430642E+02 -0.45159521133E+02  0.11431373435E+03  0.14022451766E+03  0.00000000000E+00 0.  1.
         13    1    1    2    0    0 -0.13389106780E+03  0.19197559891E+03 -0.51025896968E+03  0.56137837144E+03  0.10566000000E+00 0. -1.
<mgrwt>
<rscale>  1 0.70882191E+03</rscale>
<asrwt>0</asrwt>
<pdfrwt beam="1">  1       21 0.24011021E-01 0.10255195E+04</pdfrwt>
<pdfrwt beam="2">  1        4 0.39236408E+00 0.10255195E+04</pdfrwt>
<totfact> 0.53268696E+00</totfact>
</mgrwt>
</event>
<event>
 6    1  0.1412458E-005  0.1047374E+04  0.7818608E-02  0.9476417E-01
          4   -1    0    0  502    0 -0.00000000000E+00  0.00000000000E+00  0.16725312055E+04  0.16725312055E+04  0.00000000000E+00 0.  1.
         21   -1    0    0  501  502  0.00000000000E+00 -0.00000000000E+00 -0.46925959137E+03  0.46925959137E+03  0.00000000000E+00 0.  1.
    9000010    2    1    2  501    0  0.20562252224E+03  0.43050230612E+03  0.25151067082E+03  0.10771491851E+04  0.93240543333E+03 0.  0.
        -13    1    3    3    0    0 -0.31596967560E+03  0.32046174772E+03 -0.68768550162E+02  0.45526002714E+03  0.10566000000E+00 0.  1.
          4    1    3    3  501    0  0.52159219784E+03  0.11004055839E+03  0.32027922098E+03  0.62188915792E+03  0.00000000000E+00 0.  1.
         13    1    1    2    0    0 -0.20562252224E+03 -0.43050230612E+03  0.95176094326E+03  0.10646416118E+04  0.10566000000E+00 0. -1.
<mgrwt>
<rscale>  1 0.86045074E+03</rscale>
<asrwt>0</asrwt>
<pdfrwt beam="2">  1       21 0.72193784E-01 0.10473742E+04</pdfrwt>
<pdfrwt beam="1">  1        4 0.25731249E+00 0.10473742E+04</pdfrwt>
<totfact> 0.37526031E+00</totfact>
</mgrwt>
</event>
<event>
 6    1  0.1412458E-005  0.1001147E+04  0.7818608E-02  0.9849572E-01
         21   -1    0    0  501  502  0.00000000000E+00  0.00000000000E+00  0.61382932357E+03  0.61382932357E+03  0.00000000000E+00 0.  1.
          4   -1    0    0  502    0 -0.00000000000E+00 -0.00000000000E+00 -0.68792176023E+03  0.68792176023E+03  0.00000000000E+00 0.  1.
    9000010    2    1    2  501    0  0.15164149168E+03  0.30590298572E+02  0.16731373380E+03  0.10150319553E+04  0.98912338783E+03 0.  0.
        -13    1    3    3    0    0  0.15649863483E+03 -0.47230610992E+03  0.10175299753E+03  0.50785683794E+03  0.10566000000E+00 0.  1.
          4    1    3    3  501    0 -0.48571431548E+01  0.50289640849E+03  0.65560736263E+02  0.50717511734E+03  0.00000000000E+00 0.  1.
         13    1    1    2    0    0 -0.15164149168E+03 -0.30590298572E+02 -0.24140617046E+03  0.28671912853E+03  0.10566000000E+00 0. -1.
<mgrwt>
<rscale>  1 0.62768741E+03</rscale>
<asrwt>0</asrwt>
<pdfrwt beam="1">  1       21 0.94435280E-01 0.10011473E+04</pdfrwt>
<pdfrwt beam="2">  1        4 0.10583412E+00 0.10011473E+04</pdfrwt>
<totfact> 0.25498861E+01</totfact>
</mgrwt>
</event>
<event>
 6    1  0.1412458E-005  0.9924043E+03  0.7818608E-02  0.1004550E+00
          4   -1    0    0  502    0 -0.00000000000E+00  0.00000000000E+00  0.30271941305E+03  0.30271941305E+03  0.00000000000E+00 0.  1.
         21   -1    0    0  501  502  0.00000000000E+00 -0.00000000000E+00 -0.15580561882E+04  0.15580561882E+04  0.00000000000E+00 0.  1.
    9000010    2    1    2  501    0 -0.15626283932E+02 -0.83628304867E+02 -0.13861196131E+04  0.17047562564E+04  0.98875094826E+03 0.  0.
        -13    1    3    3    0    0  0.19124405499E+03  0.10751251649E+03 -0.14054186670E+04  0.14224397599E+04  0.10566000000E+00 0.  1.
          4    1    3    3  501    0 -0.20687033892E+03 -0.19114082135E+03  0.19299053890E+02  0.28231649650E+03  0.00000000000E+00 0.  1.
         13    1    1    2    0    0  0.15626283932E+02  0.83628304867E+02  0.13078283792E+03  0.15601934490E+03  0.10566000000E+00 0. -1.
<mgrwt>
<rscale>  1 0.53699216E+03</rscale>
<asrwt>0</asrwt>
<pdfrwt beam="2">  1       21 0.23970095E+00 0.99240431E+03</pdfrwt>
<pdfrwt beam="1">  1        4 0.46572217E-01 0.99240431E+03</pdfrwt>
<totfact> 0.11308760E+01</totfact>
</mgrwt>
</event>
<event>
 6    1  0.1412458E-005  0.9971407E+03  0.7818608E-02  0.9948029E-01
          4   -1    0    0  502    0 -0.00000000000E+00  0.00000000000E+00  0.26594828302E+03  0.26594828302E+03  0.00000000000E+00 0.  1.
         21   -1    0    0  501  502  0.00000000000E+00 -0.00000000000E+00 -0.12557054087E+04  0.12557054087E+04  0.00000000000E+00 0.  1.
    9000010    2    1    2  501    0  0.84517361638E+02 -0.76585028149E+02 -0.99341840647E+03  0.14075402959E+04  0.99059633726E+03 0.  0.
        -13    1    3    3    0    0  0.12585427098E+02 -0.32883213497E+03 -0.10818035562E+04  0.11307466168E+04  0.10566000000E+00 0.  1.
          4    1    3    3  501    0  0.71931934541E+02  0.25224710682E+03  0.88385149759E+02  0.27679367913E+03  0.00000000000E+00 0.  1.
         13    1    1    2    0    0 -0.84517361638E+02  0.76585028149E+02  0.36612807987E+01  0.11411339578E+03  0.10566000000E+00 0. -1.
<mgrwt>
<rscale>  1 0.57988994E+03</rscale>
<asrwt>0</asrwt>
<pdfrwt beam="2">  1       21 0.19318545E+00 0.99714069E+03</pdfrwt>
<pdfrwt beam="1">  1        4 0.40915120E-01 0.99714069E+03</pdfrwt>
<totfact> 0.30164802E+01</totfact>
</mgrwt>
</event>
<event>
 6    1  0.1412458E-005  0.1019424E+04  0.7818608E-02  0.9746829E-01
          4   -1    0    0  502    0 -0.00000000000E+00  0.00000000000E+00  0.17878172237E+04  0.17878172237E+04  0.00000000000E+00 0.  1.
         21   -1    0    0  501  502  0.00000000000E+00 -0.00000000000E+00 -0.23947622911E+03  0.23947622911E+03  0.00000000000E+00 0.  1.
    9000010    2    1    2  501    0  0.10814674788E+03 -0.17457390880E+03  0.94534805667E+03  0.13902908916E+04  0.99852593665E+03 0.  0.
        -13    1    3    3    0    0 -0.33829807561E+02 -0.58229002864E+03  0.47866536003E+03  0.75453738899E+03  0.10566000000E+00 0.  1.
          4    1    3    3  501    0  0.14197655544E+03  0.40771611984E+03  0.46668269664E+03  0.63575350256E+03  0.00000000000E+00 0.  1.
         13    1    1    2    0    0 -0.10814674788E+03  0.17457390880E+03  0.60299293793E+03  0.63700256127E+03  0.10566000000E+00 0. -1.
<mgrwt>
<rscale>  1 0.68295795E+03</rscale>
<asrwt>0</asrwt>
<pdfrwt beam="2">  1       21 0.36842498E-01 0.10194243E+04</pdfrwt>
<pdfrwt beam="1">  1        4 0.27504879E+00 0.10194243E+04</pdfrwt>
<totfact> 0.12686286E+01</totfact>
</mgrwt>
</event>
<event>
 6    1  0.1412458E-005  0.1002357E+04  0.7818608E-02  0.9985804E-01
         21   -1    0    0  501  502  0.00000000000E+00  0.00000000000E+00  0.42072460408E+03  0.42072460408E+03  0.00000000000E+00 0.  1.
          4   -1    0    0  502    0 -0.00000000000E+00 -0.00000000000E+00 -0.94811006049E+03  0.94811006049E+03  0.00000000000E+00 0.  1.
    9000010    2    1    2  501    0 -0.72077846098E+02 -0.68738144846E+02 -0.19408977391E+03  0.10209752510E+04  0.99739634770E+03 0.  0.
        -13    1    3    3    0    0  0.33433971752E+03 -0.34504166462E+03  0.28862857377E+02  0.48132096644E+03  0.10566000000E+00 0.  1.
          4    1    3    3  501    0 -0.40641756362E+03  0.27630351978E+03 -0.22295263128E+03  0.53965428457E+03  0.00000000000E+00 0.  1.
         13    1    1    2    0    0  0.72077846098E+02  0.68738144846E+02 -0.33329568251E+03  0.34785941355E+03  0.10566000000E+00 0. -1.
<mgrwt>
<rscale>  1 0.56277094E+03</rscale>
<asrwt>0</asrwt>
<pdfrwt beam="1">  1       21 0.64726863E-01 0.10023570E+04</pdfrwt>
<pdfrwt beam="2">  1        4 0.14586308E+00 0.10023570E+04</pdfrwt>
<totfact> 0.27347989E+01</totfact>
</mgrwt>
</event>
<event>
 6    1  0.1412458E-005  0.1046274E+04  0.7818608E-02  0.9616926E-01
          4   -1    0    0  502    0 -0.00000000000E+00  0.00000000000E+00  0.69581566248E+03  0.69581566248E+03  0.00000000000E+00 0.  1.
         21   -1    0    0  501  502  0.00000000000E+00 -0.00000000000E+00 -0.97473438677E+03  0.97473438677E+03  0.00000000000E+00 0.  1.
    9000010    2    1    2  501    0 -0.29244778646E+03  0.31566428265E+02 -0.62312993907E+03  0.12177769066E+04  0.10040754583E+04 0.  0.
        -13    1    3    3    0    0  0.23859158002E+03  0.17626489282E+03  0.96364964422E+02  0.31189977882E+03  0.10566000000E+00 0.  1.
          4    1    3    3  501    0 -0.53103936648E+03 -0.14469846456E+03 -0.71949490349E+03  0.90587712773E+03  0.00000000000E+00 0.  1.
         13    1    1    2    0    0  0.29244778646E+03 -0.31566428265E+02  0.34421121478E+03  0.45277314270E+03  0.10566000000E+00 0. -1.
<mgrwt>
<rscale>  1 0.76185979E+03</rscale>
<asrwt>0</asrwt>
<pdfrwt beam="2">  1       21 0.14995914E+00 0.10462742E+04</pdfrwt>
<pdfrwt beam="1">  1        4 0.10704856E+00 0.10462742E+04</pdfrwt>
<totfact> 0.74147266E+00</totfact>
</mgrwt>
</event>
<event>
 6    1  0.1412458E-005  0.1000668E+04  0.7818608E-02  0.1006372E+00
         21   -1    0    0  501  502  0.00000000000E+00  0.00000000000E+00  0.98547284000E+03  0.98547284000E+03  0.00000000000E+00 0.  1.
          4   -1    0    0  502    0 -0.00000000000E+00 -0.00000000000E+00 -0.44417015795E+03  0.44417015795E+03  0.00000000000E+00 0.  1.
    9000010    2    1    2  501    0 -0.70190586242E+02  0.34939323930E+02  0.72114967560E+03  0.12334481280E+04  0.99759207847E+03 0.  0.
        -13    1    3    3    0    0  0.91814970359E+02  0.35013524975E+03 -0.68063682554E+02  0.36831692596E+03  0.10566000000E+00 0.  1.
          4    1    3    3  501    0 -0.16200555660E+03 -0.31519592582E+03  0.78921335815E+03  0.86513120202E+03  0.00000000000E+00 0.  1.
         13    1    1    2    0    0  0.70190586242E+02 -0.34939323930E+02 -0.17984699355E+03  0.19619486998E+03  0.10566000000E+00 0. -1.
<mgrwt>
<rscale>  1 0.52942551E+03</rscale>
<asrwt>0</asrwt>
<pdfrwt beam="1">  1       21 0.15161121E+00 0.10006685E+04</pdfrwt>
<pdfrwt beam="2">  1        4 0.68333870E-01 0.10006685E+04</pdfrwt>
<totfact> 0.20606607E+01</totfact>
</mgrwt>
</event>
<event>
 6    1  0.1412458E-005  0.1046675E+04  0.7818608E-02  0.9638611E-01
         21   -1    0    0  501  502  0.00000000000E+00  0.00000000000E+00  0.63499972616E+03  0.63499972616E+03  0.00000000000E+00 0.  1.
          4   -1    0    0  502    0 -0.00000000000E+00 -0.00000000000E+00 -0.86017045226E+03  0.86017045226E+03  0.00000000000E+00 0.  1.
    9000010    2    1    2  501    0  0.11772430621E+03 -0.24619676407E+03  0.12180182845E+03  0.10537386167E+04  0.10104739126E+04 0.  0.
        -13    1    3    3    0    0 -0.33340547200E+03  0.49567142199E+02  0.33357092335E+03  0.47422113240E+03  0.10566000000E+00 0.  1.
          4    1    3    3  501    0  0.45112977821E+03 -0.29576390627E+03 -0.21176909490E+03  0.57951748429E+03  0.00000000000E+00 0.  1.
         13    1    1    2    0    0 -0.11772430621E+03  0.24619676407E+03 -0.34697255456E+03  0.44143156173E+03  0.10566000000E+00 0. -1.
<mgrwt>
<rscale>  1 0.74792499E+03</rscale>
<asrwt>0</asrwt>
<pdfrwt beam="1">  1       21 0.97692266E-01 0.10466754E+04</pdfrwt>
<pdfrwt beam="2">  1        4 0.13233392E+00 0.10466754E+04</pdfrwt>
<totfact> 0.13335703E+01</totfact>
</mgrwt>
</event>
<event>
 6    1  0.1412458E-005  0.1044920E+04  0.7818608E-02  0.9583793E-01
          4   -1    0    0  502    0 -0.00000000000E+00  0.00000000000E+00  0.11342283884E+04  0.11342283884E+04  0.00000000000E+00 0.  1.
         21   -1    0    0  501  502  0.00000000000E+00 -0.00000000000E+00 -0.12062790702E+04  0.12062790702E+04  0.00000000000E+00 0.  1.
    9000010    2    1    2  501    0  0.68798369239E+02 -0.32354012198E+03  0.85885204562E+03  0.13525847263E+04  0.99118473522E+03 0.  0.
        -13    1    3    3    0    0  0.71534349211E+02 -0.24587466350E+03  0.10842957412E+04  0.11141224254E+04  0.10566000000E+00 0.  1.
          4    1    3    3  501    0 -0.27359799714E+01 -0.77665458484E+02 -0.22544369561E+03  0.23846230083E+03  0.00000000000E+00 0.  1.
         13    1    1    2    0    0 -0.68798369239E+02  0.32354012198E+03 -0.93090272743E+03  0.98792273242E+03  0.10566000000E+00 0. -1.
<mgrwt>
<rscale>  1 0.78378202E+03</rscale>
<asrwt>0</asrwt>
<pdfrwt beam="2">  1       21 0.18558140E+00 0.10449204E+04</pdfrwt>
<pdfrwt beam="1">  1        4 0.17449667E+00 0.10449204E+04</pdfrwt>
<totfact> 0.11058911E+00</totfact>
</mgrwt>
</event>
<event>
 6    1  0.1412458E-005  0.9910565E+03  0.7818608E-02  0.9936558E-01
          4   -1    0    0  502    0 -0.00000000000E+00  0.00000000000E+00  0.21822747389E+03  0.21822747389E+03  0.00000000000E+00 0.  1.
         21   -1    0    0  501  502  0.00000000000E+00 -0.00000000000E+00 -0.18580304002E+04  0.18580304002E+04  0.00000000000E+00 0.  1.
    9000010    2    1    2  501    0 -0.24818349147E+02  0.11791286952E+03 -0.16788897372E+04  0.19495803891E+04  0.98370399452E+03 0.  0.
        -13    1    3    3    0    0 -0.20834641041E+03 -0.74521785732E+02 -0.16688659037E+04  0.16834711577E+04  0.10566000000E+00 0.  1.
          4    1    3    3  501    0  0.18352806126E+03  0.19243465526E+03 -0.10023833526E+02  0.26610923143E+03  0.00000000000E+00 0.  1.
         13    1    1    2    0    0  0.24818349147E+02 -0.11791286952E+03  0.39086810850E+02  0.12667748498E+03  0.10566000000E+00 0. -1.
<mgrwt>
<rscale>  1 0.58521764E+03</rscale>
<asrwt>0</asrwt>
<pdfrwt beam="2">  1       21 0.28585083E+00 0.99105648E+03</pdfrwt>
<pdfrwt beam="1">  1        4 0.33573457E-01 0.99105648E+03</pdfrwt>
<totfact> 0.11275192E+01</totfact>
</mgrwt>
</event>
<event>
 6    1  0.1412458E-005  0.9842132E+03  0.7818608E-02  0.1002200E+00
         21   -1    0    0  501  502  0.00000000000E+00  0.00000000000E+00  0.15800126380E+04  0.15800126380E+04  0.00000000000E+00 0.  1.
          4   -1    0    0  502    0 -0.00000000000E+00 -0.00000000000E+00 -0.18936989771E+03  0.18936989771E+03  0.00000000000E+00 0.  1.
    9000010    2    1    2  501    0 -0.14560693429E+02  0.92740396269E+02  0.11656272759E+04  0.15255695638E+04  0.97972585592E+03 0.  0.
        -13    1    3    3    0    0  0.21778367675E+03 -0.38349824198E+03  0.40644539948E+03  0.59974870186E+03  0.10566000000E+00 0.  1.
          4    1    3    3  501    0 -0.23234437017E+03  0.47623863825E+03  0.75918187641E+03  0.92582086193E+03  0.00000000000E+00 0.  1.
         13    1    1    2    0    0  0.14560693429E+02 -0.92740396269E+02  0.22501546437E+03  0.24381297190E+03  0.10566000000E+00 0. -1.
<mgrwt>
<rscale>  1 0.54696081E+03</rscale>
<asrwt>0</asrwt>
<pdfrwt beam="1">  1       21 0.24307886E+00 0.98421316E+03</pdfrwt>
<pdfrwt beam="2">  1        4 0.29133831E-01 0.98421316E+03</pdfrwt>
<totfact> 0.27721950E+01</totfact>
</mgrwt>
</event>
<event>
 6    1  0.1412458E-005  0.1000832E+04  0.7818608E-02  0.9758898E-01
          4   -1    0    0  502    0 -0.00000000000E+00  0.00000000000E+00  0.77810269759E+03  0.77810269759E+03  0.00000000000E+00 0.  1.
         21   -1    0    0  501  502  0.00000000000E+00 -0.00000000000E+00 -0.47866089327E+03  0.47866089327E+03  0.00000000000E+00 0.  1.
    9000010    2    1    2  501    0 -0.52741762037E+02 -0.20171975823E+03  0.31072569630E+03  0.10479577200E+04  0.97887301027E+03 0.  0.
        -13    1    3    3    0    0  0.17822281867E+03 -0.54740679923E+03  0.10924092910E+03  0.58596174678E+03  0.10566000000E+00 0.  1.
          4    1    3    3  501    0 -0.23096458071E+03  0.34568704100E+03  0.20148476720E+03  0.46199597322E+03  0.00000000000E+00 0.  1.
         13    1    1    2    0    0  0.52741762037E+02  0.20171975823E+03 -0.11283891977E+02  0.20880587086E+03  0.10566000000E+00 0. -1.
<mgrwt>
<rscale>  1 0.67615753E+03</rscale>
<asrwt>0</asrwt>
<pdfrwt beam="2">  1       21 0.73640137E-01 0.10008321E+04</pdfrwt>
<pdfrwt beam="1">  1        4 0.11970811E+00 0.10008321E+04</pdfrwt>
<totfact> 0.33945470E+01</totfact>
</mgrwt>
</event>
<event>
 6    1  0.1412458E-005  0.9812248E+03  0.7818608E-02  0.9976442E-01
          4   -1    0    0  502    0 -0.00000000000E+00  0.00000000000E+00  0.15402569713E+04  0.15402569713E+04  0.00000000000E+00 0.  1.
         21   -1    0    0  501  502  0.00000000000E+00 -0.00000000000E+00 -0.24140388332E+03  0.24140388332E+03  0.00000000000E+00 0.  1.
    9000010    2    1    2  501    0 -0.35840668095E+02 -0.10332736302E+03  0.78583653629E+03  0.12571162036E+04  0.97511075790E+03 0.  0.
        -13    1    3    3    0    0  0.15988693017E+03  0.35113776924E+03  0.62923719220E+03  0.73810637353E+03  0.10566000000E+00 0.  1.
          4    1    3    3  501    0 -0.19572759827E+03 -0.45446513226E+03  0.15659934409E+03  0.51900983009E+03  0.00000000000E+00 0.  1.
         13    1    1    2    0    0  0.35840668095E+02  0.10332736302E+03  0.51301655169E+03  0.52454465102E+03  0.10566000000E+00 0. -1.
<mgrwt>
<rscale>  1 0.56695399E+03</rscale>
<asrwt>0</asrwt>
<pdfrwt beam="2">  1       21 0.37139060E-01 0.98122479E+03</pdfrwt>
<pdfrwt beam="1">  1        4 0.23696261E+00 0.98122479E+03</pdfrwt>
<totfact> 0.21550011E+01</totfact>
</mgrwt>
</event>
<event>
 6    1  0.1412458E-005  0.1113489E+04  0.7818608E-02  0.9428158E-01
          4   -1    0    0  502    0 -0.00000000000E+00  0.00000000000E+00  0.12770853795E+04  0.12770853795E+04  0.00000000000E+00 0.  1.
         21   -1    0    0  501  502  0.00000000000E+00 -0.00000000000E+00 -0.63838867923E+03  0.63838867923E+03  0.00000000000E+00 0.  1.
    9000010    2    1    2  501    0  0.23786906334E+03 -0.40641198166E+03 -0.10417118132E+02  0.11135381819E+04  0.10090125748E+04 0.  0.
        -13    1    3    3    0    0 -0.41886662436E+01 -0.70801134595E+03 -0.10408612558E+03  0.71563366580E+03  0.10566000000E+00 0.  1.
          4    1    3    3  501    0  0.24205772958E+03  0.30159936429E+03  0.93669007445E+02  0.39790451612E+03  0.00000000000E+00 0.  1.
         13    1    1    2    0    0 -0.23786906334E+03  0.40641198166E+03  0.64911381839E+03  0.80193587681E+03  0.10566000000E+00 0. -1.
<mgrwt>
<rscale>  1 0.89794166E+03</rscale>
<asrwt>0</asrwt>
<pdfrwt beam="2">  1       21 0.98213643E-01 0.11134895E+04</pdfrwt>
<pdfrwt beam="1">  1        4 0.19647467E+00 0.11134895E+04</pdfrwt>
<totfact> 0.43581229E+00</totfact>
</mgrwt>
</event>
<event>
 6    1  0.1412458E-005  0.1126698E+04  0.7818608E-02  0.9588903E-01
          4   -1    0    0  502    0 -0.00000000000E+00  0.00000000000E+00  0.20135671045E+04  0.20135671045E+04  0.00000000000E+00 0.  1.
         21   -1    0    0  501  502  0.00000000000E+00 -0.00000000000E+00 -0.31139234030E+03  0.31139234030E+03  0.00000000000E+00 0.  1.
    9000010    2    1    2  501    0 -0.25043915658E+03  0.67051786591E+02  0.78847058610E+03  0.13751852351E+04  0.10964637944E+04 0.  0.
        -13    1    3    3    0    0  0.13649628740E+03  0.48774422854E+03  0.17293396387E+03  0.53519326973E+03  0.10566000000E+00 0.  1.
          4    1    3    3  501    0 -0.38693544398E+03 -0.42069244195E+03  0.61553662224E+03  0.83999196534E+03  0.00000000000E+00 0.  1.
         13    1    1    2    0    0  0.25043915658E+03 -0.67051786591E+02  0.91370417813E+03  0.94977420976E+03  0.10566000000E+00 0. -1.
<mgrwt>
<rscale>  1 0.78035016E+03</rscale>
<asrwt>0</asrwt>
<pdfrwt beam="2">  1       21 0.47906515E-01 0.11266981E+04</pdfrwt>
<pdfrwt beam="1">  1        4 0.30977955E+00 0.11266981E+04</pdfrwt>
<totfact> 0.43833264E+00</totfact>
</mgrwt>
</event>
<event>
 6    1  0.1412458E-005  0.1254834E+04  0.7818608E-02  0.9204727E-01
          4   -1    0    0  502    0 -0.00000000000E+00  0.00000000000E+00  0.21474548798E+04  0.21474548798E+04  0.00000000000E+00 0.  1.
         21   -1    0    0  501  502  0.00000000000E+00 -0.00000000000E+00 -0.59168953304E+03  0.59168953304E+03  0.00000000000E+00 0. -1.
    9000010    2    1    2  501    0 -0.57313295735E+03 -0.47168970820E+03  0.15533386600E+04  0.19968651746E+04  0.10117494577E+04 0.  0.
        -13    1    3    3    0    0 -0.12416464686E+03 -0.41659535134E+03  0.62819134484E+02  0.43922067473E+03  0.10566000000E+00 0.  1.
          4    1    3    3  501    0 -0.44896831049E+03 -0.55094356862E+02  0.14905195255E+04  0.15576444999E+04  0.00000000000E+00 0.  1.
         13    1    1    2    0    0  0.57313295735E+03  0.47168970820E+03  0.24266867858E+01  0.74227923829E+03  0.10566000000E+00 0. -1.
<mgrwt>
<rscale>  1 0.11004774E+04</rscale>
<asrwt>0</asrwt>
<pdfrwt beam="2">  1       21 0.91029160E-01 0.12548345E+04</pdfrwt>
<pdfrwt beam="1">  1        4 0.33037767E+00 0.12548345E+04</pdfrwt>
<totfact> 0.73868292E-01</totfact>
</mgrwt>
</event>
<event>
 6    1  0.1412458E-005  0.9233816E+03  0.7818608E-02  0.1005533E+00
         21   -1    0    0  501  502  0.00000000000E+00  0.00000000000E+00  0.67054901230E+03  0.67054901230E+03  0.00000000000E+00 0.  1.
          4   -1    0    0  502    0 -0.00000000000E+00 -0.00000000000E+00 -0.39258104315E+03  0.39258104315E+03  0.00000000000E+00 0.  1.
    9000010    2    1    2  501    0  0.77839695812E+02  0.66577512126E+02  0.24195809390E+03  0.95455609151E+03  0.91768296774E+03 0.  0.
        -13    1    3    3    0    0 -0.29409053127E+03 -0.56389399511E+01  0.43828071522E+03  0.52783618172E+03  0.10566000000E+00 0.  1.
          4    1    3    3  501    0  0.37193022709E+03  0.72216452077E+02 -0.19632262133E+03  0.42671990980E+03  0.00000000000E+00 0.  1.
         13    1    1    2    0    0 -0.77839695812E+02 -0.66577512126E+02  0.36009875263E+02  0.10857396394E+03  0.10566000000E+00 0. -1.
<mgrwt>
<rscale>  1 0.53289440E+03</rscale>
<asrwt>0</asrwt>
<pdfrwt beam="1">  1       21 0.10316139E+00 0.92338162E+03</pdfrwt>
<pdfrwt beam="2">  1        4 0.60397084E-01 0.92338162E+03</pdfrwt>
<totfact> 0.75029311E+01</totfact>
</mgrwt>
</event>
<event>
 6    1  0.1412458E-005  0.1094973E+04  0.7818608E-02  0.9460513E-01
         21   -1    0    0  501  502  0.00000000000E+00  0.00000000000E+00  0.93379725243E+03  0.93379725243E+03  0.00000000000E+00 0. -1.
          4   -1    0    0  502    0 -0.00000000000E+00 -0.00000000000E+00 -0.64332332377E+03  0.64332332377E+03  0.00000000000E+00 0.  1.
    9000010    2    1    2  501    0 -0.93269162958E+02 -0.43163459288E+03  0.30033308486E+03  0.11354139171E+04  0.10019766678E+04 0.  0.
        -13    1    3    3    0    0  0.44703890567E+03 -0.18899060069E+03  0.35596334764E+02  0.48665012128E+03  0.10566000000E+00 0.  1.
          4    1    3    3  501    0 -0.54030806863E+03 -0.24264399219E+03  0.26473675009E+03  0.64876379586E+03  0.00000000000E+00 0.  1.
         13    1    1    2    0    0  0.93269162958E+02  0.43163459288E+03 -0.98591561986E+01  0.44170665906E+03  0.10566000000E+00 0. -1.
<mgrwt>
<rscale>  1 0.87258722E+03</rscale>
<asrwt>0</asrwt>
<pdfrwt beam="1">  1       21 0.14366112E+00 0.10949725E+04</pdfrwt>
<pdfrwt beam="2">  1        4 0.98972819E-01 0.10949725E+04</pdfrwt>
<totfact> 0.10052102E+01</totfact>
</mgrwt>
</event>
<event>
 6    1  0.1412458E-005  0.1130523E+04  0.7818608E-02  0.9426726E-01
          4   -1    0    0  502    0 -0.00000000000E+00  0.00000000000E+00  0.87128213323E+03  0.87128213323E+03  0.00000000000E+00 0.  1.
         21   -1    0    0  501  502  0.00000000000E+00 -0.00000000000E+00 -0.12155726509E+04  0.12155726509E+04  0.00000000000E+00 0.  1.
    9000010    2    1    2  501    0  0.17166897712E+03  0.41838525558E+03 -0.84554385727E+03  0.14117463622E+04  0.10361307431E+04 0.  0.
        -13    1    3    3    0    0  0.31406529932E+03  0.26953828147E+02 -0.93414836683E+03  0.98589893169E+03  0.10566000000E+00 0.  1.
          4    1    3    3  501    0 -0.14239632220E+03  0.39143142743E+03  0.88604509562E+02  0.42584743051E+03  0.00000000000E+00 0.  1.
         13    1    1    2    0    0 -0.17166897712E+03 -0.41838525558E+03  0.50125333958E+03  0.67510842196E+03  0.10566000000E+00 0. -1.
<mgrwt>
<rscale>  1 0.89908496E+03</rscale>
<asrwt>0</asrwt>
<pdfrwt beam="2">  1       21 0.18701118E+00 0.11305235E+04</pdfrwt>
<pdfrwt beam="1">  1        4 0.13404341E+00 0.11305235E+04</pdfrwt>
<totfact> 0.21827731E+00</totfact>
</mgrwt>
</event>
<event>
 6    1  0.1412458E-005  0.1015043E+04  0.7818608E-02  0.9847391E-01
          4   -1    0    0  502    0 -0.00000000000E+00  0.00000000000E+00  0.63472600543E+03  0.63472600543E+03  0.00000000000E+00 0.  1.
         21   -1    0    0  501  502  0.00000000000E+00 -0.00000000000E+00 -0.58107194708E+03  0.58107194708E+03  0.00000000000E+00 0.  1.
    9000010    2    1    2  501    0  0.60852385678E+02 -0.13653950151E+03 -0.76046787767E+02  0.10178879503E+04  0.10039754565E+04 0.  0.
        -13    1    3    3    0    0  0.35405821677E+03  0.13031176574E+03 -0.36683613331E+03  0.52621966613E+03  0.10566000000E+00 0.  1.
          4    1    3    3  501    0 -0.29320583109E+03 -0.26685126724E+03  0.29078934554E+03  0.49166828421E+03  0.00000000000E+00 0.  1.
         13    1    1    2    0    0 -0.60852385678E+02  0.13653950151E+03  0.12970084611E+03  0.19791000217E+03  0.10566000000E+00 0. -1.
<mgrwt>
<rscale>  1 0.62880143E+03</rscale>
<asrwt>0</asrwt>
<pdfrwt beam="2">  1       21 0.89395684E-01 0.10150432E+04</pdfrwt>
<pdfrwt beam="1">  1        4 0.97650155E-01 0.10150432E+04</pdfrwt>
<totfact> 0.35355602E+01</totfact>
</mgrwt>
</event>
<event>
 6    1  0.1412458E-005  0.1005659E+04  0.7818608E-02  0.9566142E-01
          4   -1    0    0  502    0 -0.00000000000E+00  0.00000000000E+00  0.15333108270E+04  0.15333108270E+04  0.00000000000E+00 0.  1.
         21   -1    0    0  501  502  0.00000000000E+00 -0.00000000000E+00 -0.40562193015E+03  0.40562193015E+03  0.00000000000E+00 0.  1.
    9000010    2    1    2  501    0  0.36305003050E+02  0.39262363957E+03  0.34615580516E+03  0.10635669135E+04  0.92513748304E+03 0.  0.
        -13    1    3    3    0    0 -0.31746825101E+03 -0.12139291434E+02 -0.13207299804E+03  0.34405921114E+03  0.10566000000E+00 0.  1.
          4    1    3    3  501    0  0.35377325406E+03  0.40476293100E+03  0.47822880320E+03  0.71950770240E+03  0.00000000000E+00 0.  1.
         13    1    1    2    0    0 -0.36305003050E+02 -0.39262363957E+03  0.78153309173E+03  0.87536584365E+03  0.10566000000E+00 0. -1.
<mgrwt>
<rscale>  1 0.79578268E+03</rscale>
<asrwt>0</asrwt>
<pdfrwt beam="2">  1       21 0.62403375E-01 0.10056594E+04</pdfrwt>
<pdfrwt beam="1">  1        4 0.23589397E+00 0.10056594E+04</pdfrwt>
<totfact> 0.71410979E+00</totfact>
</mgrwt>
</event>
<event>
 6    1  0.1412458E-005  0.8867033E+03  0.7818608E-02  0.9951347E-01
          4   -1    0    0  502    0 -0.00000000000E+00  0.00000000000E+00  0.31092034614E+03  0.31092034614E+03  0.00000000000E+00 0.  1.
         21   -1    0    0  501  502  0.00000000000E+00 -0.00000000000E+00 -0.10206507251E+04  0.10206507251E+04  0.00000000000E+00 0.  1.
    9000010    2    1    2  501    0  0.24399791115E+02  0.15862872409E+03 -0.75524479748E+03  0.11647478253E+04  0.87205755002E+03 0.  0.
        -13    1    3    3    0    0 -0.26900345407E+03 -0.17293795608E+03 -0.38257310356E+02  0.32207767373E+03  0.10566000000E+00 0.  1.
          4    1    3    3  501    0  0.29340324519E+03  0.33156668017E+03 -0.71698748712E+03  0.84267015159E+03  0.00000000000E+00 0.  1.
         13    1    1    2    0    0 -0.24399791115E+02 -0.15862872409E+03  0.45514418545E+02  0.16682324590E+03  0.10566000000E+00 0. -1.
<mgrwt>
<rscale>  1 0.57836058E+03</rscale>
<asrwt>0</asrwt>
<pdfrwt beam="2">  1       21 0.15702319E+00 0.88670333E+03</pdfrwt>
<pdfrwt beam="1">  1        4 0.47833899E-01 0.88670333E+03</pdfrwt>
<totfact> 0.40834398E+01</totfact>
</mgrwt>
</event>
<event>
 6    1  0.1412458E-005  0.9914115E+03  0.7818608E-02  0.9917558E-01
          4   -1    0    0  502    0 -0.00000000000E+00  0.00000000000E+00  0.12802438444E+04  0.12802438444E+04  0.00000000000E+00 0.  1.
         21   -1    0    0  501  502  0.00000000000E+00 -0.00000000000E+00 -0.26883970421E+03  0.26883970421E+03  0.00000000000E+00 0.  1.
    9000010    2    1    2  501    0  0.12668419599E+03 -0.17669296969E+02  0.70345315323E+03  0.12156245390E+04  0.98312541998E+03 0.  0.
        -13    1    3    3    0    0 -0.26779718427E+03 -0.11472247091E+03 -0.10594179871E+03  0.31000040825E+03  0.10566000000E+00 0.  1.
          4    1    3    3  501    0  0.39448138026E+03  0.97053173940E+02  0.80939495193E+03  0.90562413073E+03  0.00000000000E+00 0.  1.
         13    1    1    2    0    0 -0.12668419599E+03  0.17669296969E+02  0.30795098699E+03  0.33345900966E+03  0.10566000000E+00 0. -1.
<mgrwt>
<rscale>  1 0.59417861E+03</rscale>
<asrwt>0</asrwt>
<pdfrwt beam="2">  1       21 0.41359955E-01 0.99141146E+03</pdfrwt>
<pdfrwt beam="1">  1        4 0.19696059E+00 0.99141146E+03</pdfrwt>
<totfact> 0.31072333E+01</totfact>
</mgrwt>
</event>
<event>
 6    1  0.1412458E-005  0.1006249E+04  0.7818608E-02  0.9889164E-01
         21   -1    0    0  501  502  0.00000000000E+00  0.00000000000E+00  0.21618636385E+04  0.21618636385E+04  0.00000000000E+00 0.  1.
          4   -1    0    0  502    0 -0.00000000000E+00 -0.00000000000E+00 -0.27684576195E+03  0.27684576195E+03  0.00000000000E+00 0.  1.
    9000010    2    1    2  501    0 -0.64468845329E+02  0.11750363363E+03  0.20148273317E+04  0.22521247232E+04  0.99728293701E+03 0.  0.
        -13    1    3    3    0    0 -0.97217124081E+02 -0.20179220590E+03  0.18970494855E+04  0.19102272182E+04  0.10566000000E+00 0.  1.
          4    1    3    3  501    0  0.32748278753E+02  0.31929583953E+03  0.11777784626E+03  0.34189750507E+03  0.00000000000E+00 0.  1.
         13    1    1    2    0    0  0.64468845329E+02 -0.11750363363E+03 -0.12980945520E+03  0.18658467718E+03  0.10566000000E+00 0. -1.
<mgrwt>
<rscale>  1 0.60789340E+03</rscale>
<asrwt>0</asrwt>
<pdfrwt beam="1">  1       21 0.33259440E+00 0.10062488E+04</pdfrwt>
<pdfrwt beam="2">  1        4 0.42591657E-01 0.10062488E+04</pdfrwt>
<totfact> 0.35558003E+00</totfact>
</mgrwt>
</event>
<event>
 6    1  0.1412458E-005  0.1126567E+04  0.7818608E-02  0.9377538E-01
          4   -1    0    0  502    0 -0.00000000000E+00  0.00000000000E+00  0.88784674476E+03  0.88784674476E+03  0.00000000000E+00 0.  1.
         21   -1    0    0  501  502  0.00000000000E+00 -0.00000000000E+00 -0.11388706523E+04  0.11388706523E+04  0.00000000000E+00 0. -1.
    9000010    2    1    2  501    0  0.78903831194E+02  0.53909795261E+03 -0.69516496826E+03  0.13237851741E+04  0.98605295857E+03 0.  0.
        -13    1    3    3    0    0 -0.21996101514E+02  0.80417509285E+03 -0.65483797546E+03  0.10373013996E+04  0.10566000000E+00 0.  1.
          4    1    3    3  501    0  0.10089993271E+03 -0.26507714025E+03 -0.40326992803E+02  0.28648377450E+03  0.00000000000E+00 0.  1.
         13    1    1    2    0    0 -0.78903831194E+02 -0.53909795261E+03  0.44414106070E+03  0.70293222294E+03  0.10566000000E+00 0. -1.
<mgrwt>
<rscale>  1 0.93947516E+03</rscale>
<asrwt>0</asrwt>
<pdfrwt beam="2">  1       21 0.17521087E+00 0.11265668E+04</pdfrwt>
<pdfrwt beam="1">  1        4 0.13659181E+00 0.11265668E+04</pdfrwt>
<totfact> 0.25333528E+00</totfact>
</mgrwt>
</event>
<event>
 6    1  0.1412458E-005  0.1063640E+04  0.7818608E-02  0.9582623E-01
         21   -1    0    0  501  502  0.00000000000E+00  0.00000000000E+00  0.32605481019E+04  0.32605481019E+04  0.00000000000E+00 0.  1.
          4   -1    0    0  502    0 -0.00000000000E+00 -0.00000000000E+00 -0.15017464840E+03  0.15017464840E+03  0.00000000000E+00 0.  1.
    9000010    2    1    2  501    0  0.31341030238E+03 -0.30371156922E+02  0.21262128101E+04  0.23774170801E+04  0.10159638942E+04 0.  0.
        -13    1    3    3    0    0  0.59126684559E+03  0.94359148641E+02  0.19159282590E+04  0.20073069611E+04  0.10566000000E+00 0.  1.
          4    1    3    3  501    0 -0.27785654321E+03 -0.12473030556E+03  0.21028455112E+03  0.37011011898E+03  0.00000000000E+00 0.  1.
         13    1    1    2    0    0 -0.31341030238E+03  0.30371156922E+02  0.98416064345E+03  0.10333056702E+04  0.10566000000E+00 0. -1.
<mgrwt>
<rscale>  1 0.78457042E+03</rscale>
<asrwt>0</asrwt>
<pdfrwt beam="1">  1       21 0.50162273E+00 0.10636405E+04</pdfrwt>
<pdfrwt beam="2">  1        4 0.23103795E-01 0.10636405E+04</pdfrwt>
<totfact> 0.86934249E-01</totfact>
</mgrwt>
</event>
<event>
 6    1  0.1412458E-005  0.1029787E+04  0.7818608E-02  0.9695743E-01
          4   -1    0    0  502    0 -0.00000000000E+00  0.00000000000E+00  0.21657656570E+03  0.21657656570E+03  0.00000000000E+00 0.  1.
         21   -1    0    0  501  502  0.00000000000E+00 -0.00000000000E+00 -0.18784483980E+04  0.18784483980E+04  0.00000000000E+00 0.  1.
    9000010    2    1    2  501    0 -0.22381172429E+03  0.75701826865E+02 -0.12434568897E+04  0.16145111451E+04  0.10023166897E+04 0.  0.
        -13    1    3    3    0    0  0.12875038590E+03 -0.37640428967E+03 -0.25719119007E+03  0.47371317331E+03  0.10566000000E+00 0.  1.
          4    1    3    3  501    0 -0.35256211019E+03  0.45210611653E+03 -0.98626569964E+03  0.11407979718E+04  0.00000000000E+00 0.  1.
         13    1    1    2    0    0  0.22381172429E+03 -0.75701826865E+02 -0.41841494260E+03  0.48051381861E+03  0.10566000000E+00 0. -1.
<mgrwt>
<rscale>  1 0.71270815E+03</rscale>
<asrwt>0</asrwt>
<pdfrwt beam="2">  1       21 0.28899207E+00 0.10297870E+04</pdfrwt>
<pdfrwt beam="1">  1        4 0.33319471E-01 0.10297870E+04</pdfrwt>
<totfact> 0.10873103E+01</totfact>
</mgrwt>
</event>
<event>
 6    1  0.1412458E-005  0.1002783E+04  0.7818608E-02  0.9860981E-01
          4   -1    0    0  502    0 -0.00000000000E+00  0.00000000000E+00  0.93474320155E+03  0.93474320155E+03  0.00000000000E+00 0.  1.
         21   -1    0    0  501  502  0.00000000000E+00 -0.00000000000E+00 -0.52473817224E+03  0.52473817224E+03  0.00000000000E+00 0.  1.
    9000010    2    1    2  501    0 -0.97758623160E+01  0.14802014672E+03 -0.21682125443E+02  0.10030174190E+04  0.99175011815E+03 0.  0.
        -13    1    3    3    0    0 -0.13020100612E+03  0.29734153916E+03  0.41452463609E+03  0.52649309397E+03  0.10566000000E+00 0.  1.
          4    1    3    3  501    0  0.12042514380E+03 -0.14932139244E+03 -0.43620676154E+03  0.47652432499E+03  0.00000000000E+00 0.  1.
         13    1    1    2    0    0  0.97758623160E+01 -0.14802014672E+03  0.43168715476E+03  0.45646395484E+03  0.10566000000E+00 0. -1.
<mgrwt>
<rscale>  1 0.62190170E+03</rscale>
<asrwt>0</asrwt>
<pdfrwt beam="2">  1       21 0.80728949E-01 0.10027830E+04</pdfrwt>
<pdfrwt beam="1">  1        4 0.14380665E+00 0.10027830E+04</pdfrwt>
<totfact> 0.17061210E+01</totfact>
</mgrwt>
</event>
<event>
 6    1  0.1412458E-005  0.9697857E+03  0.7818608E-02  0.9700739E-01
         21   -1    0    0  501  502  0.00000000000E+00  0.00000000000E+00  0.22126153827E+03  0.22126153827E+03  0.00000000000E+00 0.  1.
          4   -1    0    0  502    0 -0.00000000000E+00 -0.00000000000E+00 -0.21918078008E+04  0.21918078008E+04  0.00000000000E+00 0.  1.
    9000010    2    1    2  501    0 -0.27640187329E+03 -0.31486665117E+02 -0.95866137653E+03  0.13636407139E+04  0.92902903945E+03 0.  0.
        -13    1    3    3    0    0 -0.33401888125E+03  0.34449785141E+03 -0.20977554741E+03  0.52369186944E+03  0.10566000000E+00 0.  1.
          4    1    3    3  501    0  0.57617007961E+02 -0.37598451652E+03 -0.74888582912E+03  0.83994884448E+03  0.00000000000E+00 0.  1.
         13    1    1    2    0    0  0.27640187329E+03  0.31486665117E+02 -0.10118848860E+04  0.10494286252E+04  0.10566000000E+00 0. -1.
<mgrwt>
<rscale>  1 0.70972816E+03</rscale>
<asrwt>0</asrwt>
<pdfrwt beam="1">  1       21 0.34040236E-01 0.96978573E+03</pdfrwt>
<pdfrwt beam="2">  1        4 0.33720120E+00 0.96978573E+03</pdfrwt>
<totfact> 0.61619933E+00</totfact>
</mgrwt>
</event>
<event>
 6    1  0.1412458E-005  0.1040767E+04  0.7818608E-02  0.9804648E-01
         21   -1    0    0  501  502  0.00000000000E+00  0.00000000000E+00  0.11028046642E+04  0.11028046642E+04  0.00000000000E+00 0.  1.
          4   -1    0    0  502    0 -0.00000000000E+00 -0.00000000000E+00 -0.34448429828E+03  0.34448429828E+03  0.00000000000E+00 0.  1.
    9000010    2    1    2  501    0  0.12322797808E+03 -0.10119067983E+03  0.75850427172E+03  0.12878376118E+04  0.10284805763E+04 0.  0.
        -13    1    3    3    0    0  0.36343263072E+03  0.18763853574E+03 -0.34387959028E+02  0.41045589295E+03  0.10566000000E+00 0.  1.
          4    1    3    3  501    0 -0.24020465264E+03 -0.28882921556E+03  0.79289223075E+03  0.87738171880E+03  0.00000000000E+00 0.  1.
         13    1    1    2    0    0 -0.12322797808E+03  0.10119067983E+03 -0.18390579323E+00  0.15945135073E+03  0.10566000000E+00 0. -1.
<mgrwt>
<rscale>  1 0.65113684E+03</rscale>
<asrwt>0</asrwt>
<pdfrwt beam="1">  1       21 0.16966225E+00 0.10407675E+04</pdfrwt>
<pdfrwt beam="2">  1        4 0.52997585E-01 0.10407675E+04</pdfrwt>
<totfact> 0.25873110E+01</totfact>
</mgrwt>
</event>
<event>
 6    1  0.1412458E-005  0.1079647E+04  0.7818608E-02  0.9504595E-01
          4   -1    0    0  502    0 -0.00000000000E+00  0.00000000000E+00  0.23862102842E+04  0.23862102842E+04  0.00000000000E+00 0.  1.
         21   -1    0    0  501  502  0.00000000000E+00 -0.00000000000E+00 -0.22965212036E+03  0.22965212036E+03  0.00000000000E+00 0. -1.
    9000010    2    1    2  501    0  0.35582867263E+03  0.17056529530E+03  0.16818885455E+04  0.19985959937E+04  0.10049528856E+04 0.  0.
        -13    1    3    3    0    0 -0.25222720002E+03 -0.12846714849E+03  0.99198774438E+03  0.10315823112E+04  0.10566000000E+00 0.  1.
          4    1    3    3  501    0  0.60805587265E+03  0.29903244379E+03  0.68990080113E+03  0.96701368248E+03  0.00000000000E+00 0.  1.
         13    1    1    2    0    0 -0.35582867263E+03 -0.17056529530E+03  0.47466961831E+03  0.61726641083E+03  0.10566000000E+00 0. -1.
<mgrwt>
<rscale>  1 0.83945931E+03</rscale>
<asrwt>0</asrwt>
<pdfrwt beam="2">  1       21 0.35331097E-01 0.10796466E+04</pdfrwt>
<pdfrwt beam="1">  1        4 0.36710926E+00 0.10796466E+04</pdfrwt>
<totfact> 0.35919004E+00</totfact>
</mgrwt>
</event>
<event>
 6    1  0.1412458E-005  0.9600788E+03  0.7818608E-02  0.1018158E+00
          4   -1    0    0  502    0 -0.00000000000E+00  0.00000000000E+00  0.41199407261E+03  0.41199407261E+03  0.00000000000E+00 0.  1.
         21   -1    0    0  501  502  0.00000000000E+00 -0.00000000000E+00 -0.71247802841E+03  0.71247802841E+03  0.00000000000E+00 0.  1.
    9000010    2    1    2  501    0 -0.32991282734E+02 -0.52246744208E+02 -0.37229530054E+03  0.10297354797E+04  0.95808831554E+03 0.  0.
        -13    1    3    3    0    0 -0.14528052302E+03 -0.24999409340E+03 -0.62568627148E+03  0.68926540504E+03  0.10566000000E+00 0.  1.
          4    1    3    3  501    0  0.11228924029E+03  0.19774734920E+03  0.25339097094E+03  0.34047007468E+03  0.00000000000E+00 0.  1.
         13    1    1    2    0    0  0.32991282734E+02  0.52246744208E+02  0.71811344744E+02  0.94736621297E+02  0.10566000000E+00 0. -1.
<mgrwt>
<rscale>  1 0.48357285E+03</rscale>
<asrwt>0</asrwt>
<pdfrwt beam="2">  1       21 0.10961200E+00 0.96007883E+03</pdfrwt>
<pdfrwt beam="1">  1        4 0.63383704E-01 0.96007883E+03</pdfrwt>
<totfact> 0.57781648E+01</totfact>
</mgrwt>
</event>
<event>
 6    1  0.1412458E-005  0.1252581E+04  0.7818608E-02  0.9416869E-01
         21   -1    0    0  501  502  0.00000000000E+00  0.00000000000E+00  0.15044068321E+04  0.15044068321E+04  0.00000000000E+00 0.  1.
          4   -1    0    0  502    0 -0.00000000000E+00 -0.00000000000E+00 -0.51483099425E+03  0.51483099425E+03  0.00000000000E+00 0.  1.
    9000010    2    1    2  501    0 -0.58181092343E+02  0.33941408027E+03  0.10900958136E+04  0.16605022217E+04  0.12043138246E+04 0.  0.
        -13    1    3    3    0    0  0.49761596248E+03  0.39604491176E+03  0.82621389017E+03  0.10426421350E+04  0.10566000000E+00 0.  1.
          4    1    3    3  501    0 -0.55579705482E+03 -0.56630831490E+02  0.26388192339E+03  0.61786008669E+03  0.00000000000E+00 0.  1.
         13    1    1    2    0    0  0.58181092343E+02 -0.33941408027E+03 -0.10051997568E+03  0.35873560468E+03  0.10566000000E+00 0. -1.
<mgrwt>
<rscale>  1 0.90700346E+03</rscale>
<asrwt>0</asrwt>
<pdfrwt beam="1">  1       21 0.23144720E+00 0.12525808E+04</pdfrwt>
<pdfrwt beam="2">  1        4 0.79204769E-01 0.12525808E+04</pdfrwt>
<totfact> 0.38617313E+00</totfact>
</mgrwt>
</event>
<event>
 6    1  0.1412458E-005  0.1010838E+04  0.7818608E-02  0.9828223E-01
          4   -1    0    0  502    0 -0.00000000000E+00  0.00000000000E+00  0.33663513517E+03  0.33663513517E+03  0.00000000000E+00 0.  1.
         21   -1    0    0  501  502  0.00000000000E+00 -0.00000000000E+00 -0.10293867589E+04  0.10293867589E+04  0.00000000000E+00 0.  1.
    9000010    2    1    2  501    0 -0.14165052789E+03  0.76765463681E+02 -0.55008310593E+03  0.11508193718E+04  0.99791582540E+03 0.  0.
        -13    1    3    3    0    0 -0.26813720031E+01  0.40769945181E+03 -0.65970533285E+03  0.77552380371E+03  0.10566000000E+00 0.  1.
          4    1    3    3  501    0 -0.13896915589E+03 -0.33093398813E+03  0.10962222692E+03  0.37529556808E+03  0.00000000000E+00 0.  1.
         13    1    1    2    0    0  0.14165052789E+03 -0.76765463681E+02 -0.14266851783E+03  0.21520252231E+03  0.10566000000E+00 0. -1.
<mgrwt>
<rscale>  1 0.63869689E+03</rscale>
<asrwt>0</asrwt>
<pdfrwt beam="2">  1       21 0.15836719E+00 0.10108382E+04</pdfrwt>
<pdfrwt beam="1">  1        4 0.51790022E-01 0.10108382E+04</pdfrwt>
<totfact> 0.33264409E+01</totfact>
</mgrwt>
</event>
<event>
 6    1  0.1412458E-005  0.9802098E+03  0.7818608E-02  0.1000389E+00
         21   -1    0    0  501  502  0.00000000000E+00  0.00000000000E+00  0.24432625354E+04  0.24432625354E+04  0.00000000000E+00 0.  1.
          4   -1    0    0  502    0 -0.00000000000E+00 -0.00000000000E+00 -0.13070401930E+03  0.13070401930E+03  0.00000000000E+00 0.  1.
    9000010    2    1    2  501    0  0.10020517989E+03 -0.88761455382E+01  0.22531619097E+04  0.24571426186E+04  0.97503404688E+03 0.  0.
        -13    1    3    3    0    0 -0.35704809294E+03 -0.21894948828E+03  0.61997164537E+03  0.74818919487E+03  0.10566000000E+00 0.  1.
          4    1    3    3  501    0  0.45725327283E+03  0.21007334274E+03  0.16331902643E+04  0.17089534237E+04  0.00000000000E+00 0.  1.
         13    1    1    2    0    0 -0.10020517989E+03  0.88761455382E+01  0.59396606355E+02  0.11682393611E+03  0.10566000000E+00 0. -1.
<mgrwt>
<rscale>  1 0.55479965E+03</rscale>
<asrwt>0</asrwt>
<pdfrwt beam="1">  1       21 0.37588651E+00 0.98020980E+03</pdfrwt>
<pdfrwt beam="2">  1        4 0.20108312E-01 0.98020980E+03</pdfrwt>
<totfact> 0.82380750E+00</totfact>
</mgrwt>
</event>
<event>
 6    1  0.1412458E-005  0.1039487E+04  0.7818608E-02  0.9676389E-01
         21   -1    0    0  501  502  0.00000000000E+00  0.00000000000E+00  0.76392985085E+03  0.76392985085E+03  0.00000000000E+00 0.  1.
          4   -1    0    0  502    0 -0.00000000000E+00 -0.00000000000E+00 -0.56473959252E+03  0.56473959252E+03  0.00000000000E+00 0.  1.
    9000010    2    1    2  501    0  0.15819406055E+03 -0.18729883849E+03  0.47918555563E+02  0.10405907130E+04  0.10101616842E+04 0.  0.
        -13    1    3    3    0    0  0.16997321464E+03 -0.26464478721E+03 -0.44309714157E+03  0.54338093923E+03  0.10566000000E+00 0.  1.
          4    1    3    3  501    0 -0.11779154089E+02  0.77345948715E+02  0.49101569713E+03  0.49720977372E+03  0.00000000000E+00 0.  1.
         13    1    1    2    0    0 -0.15819406055E+03  0.18729883849E+03  0.15127170277E+03  0.28807873041E+03  0.10566000000E+00 0. -1.
<mgrwt>
<rscale>  1 0.72440131E+03</rscale>
<asrwt>0</asrwt>
<pdfrwt beam="1">  1       21 0.11752767E+00 0.10394868E+04</pdfrwt>
<pdfrwt beam="2">  1        4 0.86883015E-01 0.10394868E+04</pdfrwt>
<totfact> 0.23508889E+01</totfact>
</mgrwt>
</event>
<event>
 6    1  0.1412458E-005  0.9583802E+03  0.7818608E-02  0.1012032E+00
         21   -1    0    0  501  502  0.00000000000E+00  0.00000000000E+00  0.49637835368E+03  0.49637835368E+03  0.00000000000E+00 0.  1.
          4   -1    0    0  502    0 -0.00000000000E+00 -0.00000000000E+00 -0.72501514626E+03  0.72501514626E+03  0.00000000000E+00 0.  1.
    9000010    2    1    2  501    0 -0.71455316089E+02  0.22499406410E+02  0.23189406428E+02  0.95866068670E+03  0.95544778935E+03 0.  0.
        -13    1    3    3    0    0 -0.50700101184E+03  0.79107066371E+02 -0.41067672234E+02  0.51477618324E+03  0.10566000000E+00 0.  1.
          4    1    3    3  501    0  0.43554569576E+03 -0.56607659962E+02  0.64257078662E+02  0.44388450346E+03  0.00000000000E+00 0.  1.
         13    1    1    2    0    0  0.71455316089E+02 -0.22499406410E+02 -0.25182619901E+03  0.26273281324E+03  0.10566000000E+00 0. -1.
<mgrwt>
<rscale>  1 0.50675029E+03</rscale>
<asrwt>0</asrwt>
<pdfrwt beam="1">  1       21 0.76365901E-01 0.95838018E+03</pdfrwt>
<pdfrwt beam="2">  1        4 0.11154079E+00 0.95838018E+03</pdfrwt>
<totfact> 0.37326553E+01</totfact>
</mgrwt>
</event>
<event>
 6    1  0.1412458E-005  0.1113748E+04  0.7818608E-02  0.9413600E-01
          4   -1    0    0  502    0 -0.00000000000E+00  0.00000000000E+00  0.14149592990E+04  0.14149592990E+04  0.00000000000E+00 0.  1.
         21   -1    0    0  501  502  0.00000000000E+00 -0.00000000000E+00 -0.76974630501E+03  0.76974630501E+03  0.00000000000E+00 0.  1.
    9000010    2    1    2  501    0  0.16515989752E+03 -0.46727216784E+03 -0.26812482380E+03  0.11455679562E+04  0.99740360462E+03 0.  0.
        -13    1    3    3    0    0  0.30447422304E+03 -0.12378814923E+03 -0.57636036035E+03  0.66349026709E+03  0.10566000000E+00 0.  1.
          4    1    3    3  501    0 -0.13931432552E+03 -0.34348401860E+03  0.30823553654E+03  0.48207768909E+03  0.00000000000E+00 0.  1.
         13    1    1    2    0    0 -0.16515989752E+03  0.46727216784E+03  0.91333781784E+03  0.10391376479E+04  0.10566000000E+00 0. -1.
<mgrwt>
<rscale>  1 0.90964820E+03</rscale>
<asrwt>0</asrwt>
<pdfrwt beam="2">  1       21 0.11842251E+00 0.11137482E+04</pdfrwt>
<pdfrwt beam="1">  1        4 0.21768605E+00 0.11137482E+04</pdfrwt>
<totfact> 0.19719301E+00</totfact>
</mgrwt>
</event>
<event>
 6    1  0.1412458E-005  0.1010553E+04  0.7818608E-02  0.9773418E-01
          4   -1    0    0  502    0 -0.00000000000E+00  0.00000000000E+00  0.71362505919E+03  0.71362505919E+03  0.00000000000E+00 0.  1.
         21   -1    0    0  501  502  0.00000000000E+00 -0.00000000000E+00 -0.61074949141E+03  0.61074949141E+03  0.00000000000E+00 0.  1.
    9000010    2    1    2  501    0 -0.99349019095E+02 -0.16551667882E+03 -0.13333850414E+03  0.10193121021E+04  0.99194354990E+03 0.  0.
        -13    1    3    3    0    0 -0.19339606053E+03 -0.52504833668E+03 -0.27265310054E+03  0.62242872402E+03  0.10566000000E+00 0.  1.
          4    1    3    3  501    0  0.94047041434E+02  0.35953165787E+03  0.13931459640E+03  0.39688337806E+03  0.00000000000E+00 0.  1.
         13    1    1    2    0    0  0.99349019095E+02  0.16551667882E+03  0.23621407192E+03  0.30506244852E+03  0.10566000000E+00 0. -1.
<mgrwt>
<rscale>  1 0.66808779E+03</rscale>
<asrwt>0</asrwt>
<pdfrwt beam="2">  1       21 0.93961460E-01 0.10105533E+04</pdfrwt>
<pdfrwt beam="1">  1        4 0.10978847E+00 0.10105533E+04</pdfrwt>
<totfact> 0.23571314E+01</totfact>
</mgrwt>
</event>
<event>
 6    1  0.1412458E-005  0.1001409E+04  0.7818608E-02  0.9858257E-01
         21   -1    0    0  501  502  0.00000000000E+00  0.00000000000E+00  0.37057837676E+03  0.37057837676E+03  0.00000000000E+00 0. -1.
          4   -1    0    0  502    0 -0.00000000000E+00 -0.00000000000E+00 -0.93601040141E+03  0.93601040141E+03  0.00000000000E+00 0.  1.
    9000010    2    1    2  501    0  0.67417316735E+02  0.13430439757E+03 -0.57721179515E+03  0.11558521205E+04  0.99006964514E+03 0.  0.
        -13    1    3    3    0    0  0.11760819551E+03  0.17024001382E+03  0.25102933129E+03  0.32531382739E+03  0.10566000000E+00 0.  1.
          4    1    3    3  501    0 -0.50190878776E+02 -0.35935616245E+02 -0.82824112644E+03  0.83053829313E+03  0.00000000000E+00 0.  1.
         13    1    1    2    0    0 -0.67417316735E+02 -0.13430439757E+03  0.11779770498E+02  0.15073665765E+03  0.10566000000E+00 0. -1.
<mgrwt>
<rscale>  1 0.62327678E+03</rscale>
<asrwt>0</asrwt>
<pdfrwt beam="1">  1       21 0.57012059E-01 0.10014093E+04</pdfrwt>
<pdfrwt beam="2">  1        4 0.14400160E+00 0.10014093E+04</pdfrwt>
<totfact> 0.37577895E+01</totfact>
</mgrwt>
</event>
<event>
 6    1  0.1412458E-005  0.1220726E+04  0.7818608E-02  0.9252942E-01
         21   -1    0    0  501  502  0.00000000000E+00  0.00000000000E+00  0.69423437703E+03  0.69423437703E+03  0.00000000000E+00 0. -1.
          4   -1    0    0  502    0 -0.00000000000E+00 -0.00000000000E+00 -0.13036503122E+04  0.13036503122E+04  0.00000000000E+00 0.  1.
    9000010    2    1    2  501    0 -0.53783569896E+03 -0.40645496660E+03 -0.30533660485E+03  0.12583327105E+04  0.10176924335E+04 0.  0.
        -13    1    3    3    0    0 -0.61955858049E+03  0.13306396734E+03 -0.13274586136E+01  0.63368811522E+03  0.10566000000E+00 0.  1.
          4    1    3    3  501    0  0.81722881530E+02 -0.53951893394E+03 -0.30400914624E+03  0.62464459531E+03  0.00000000000E+00 0.  1.
         13    1    1    2    0    0  0.53783569896E+03  0.40645496660E+03 -0.30407933034E+03  0.73955197873E+03  0.10566000000E+00 0. -1.
<mgrwt>
<rscale>  1 0.10523301E+04</rscale>
<asrwt>0</asrwt>
<pdfrwt beam="1">  1       21 0.10680529E+00 0.12207255E+04</pdfrwt>
<pdfrwt beam="2">  1        4 0.20056158E+00 0.12207255E+04</pdfrwt>
<totfact> 0.32758870E+00</totfact>
</mgrwt>
</event>
<event>
 6    1  0.1412458E-005  0.1049368E+04  0.7818608E-02  0.9645227E-01
          4   -1    0    0  502    0 -0.00000000000E+00  0.00000000000E+00  0.28867578679E+03  0.28867578679E+03  0.00000000000E+00 0.  1.
         21   -1    0    0  501  502  0.00000000000E+00 -0.00000000000E+00 -0.15720800904E+04  0.15720800904E+04  0.00000000000E+00 0. -1.
    9000010    2    1    2  501    0  0.15298188298E+03  0.21612093126E+03 -0.83938152377E+03  0.13437762319E+04  0.10154119881E+04 0.  0.
        -13    1    3    3    0    0 -0.37810410298E+03  0.24295703697E+03 -0.15141795846E+03  0.47425546261E+03  0.10566000000E+00 0.  1.
          4    1    3    3  501    0  0.53108598596E+03 -0.26836105708E+02 -0.68796356530E+03  0.86952076930E+03  0.00000000000E+00 0.  1.
         13    1    1    2    0    0 -0.15298188298E+03 -0.21612093126E+03 -0.44402277988E+03  0.51697964531E+03  0.10566000000E+00 0. -1.
<mgrwt>
<rscale>  1 0.74373762E+03</rscale>
<asrwt>0</asrwt>
<pdfrwt beam="2">  1       21 0.24185847E+00 0.10493680E+04</pdfrwt>
<pdfrwt beam="1">  1        4 0.44411660E-01 0.10493680E+04</pdfrwt>
<totfact> 0.11991872E+01</totfact>
</mgrwt>
</event>
<event>
 6    1  0.1412458E-005  0.9657251E+03  0.7818608E-02  0.9681759E-01
          4   -1    0    0  502    0 -0.00000000000E+00  0.00000000000E+00  0.17224222300E+04  0.17224222300E+04  0.00000000000E+00 0.  1.
         21   -1    0    0  501  502  0.00000000000E+00 -0.00000000000E+00 -0.24882677760E+03  0.24882677760E+03  0.00000000000E+00 0.  1.
    9000010    2    1    2  501    0  0.26879473673E+03 -0.13381756448E+03  0.88229110636E+03  0.13080758840E+04  0.91786010419E+03 0.  0.
        -13    1    3    3    0    0 -0.79348745706E+02 -0.38883439572E+03  0.91600898321E+02  0.40728263709E+03  0.10566000000E+00 0.  1.
          4    1    3    3  501    0  0.34814348244E+03  0.25501683124E+03  0.79069020804E+03  0.90079324690E+03  0.00000000000E+00 0.  1.
         13    1    1    2    0    0 -0.26879473673E+03  0.13381756448E+03  0.59130434606E+03  0.66317312362E+03  0.10566000000E+00 0. -1.
<mgrwt>
<rscale>  1 0.72113325E+03</rscale>
<asrwt>0</asrwt>
<pdfrwt beam="2">  1       21 0.38281044E-01 0.96572508E+03</pdfrwt>
<pdfrwt beam="1">  1        4 0.26498803E+00 0.96572508E+03</pdfrwt>
<totfact> 0.13600382E+01</totfact>
</mgrwt>
</event>
<event>
 6    1  0.1412458E-005  0.1046764E+04  0.7818608E-02  0.9601181E-01
          4   -1    0    0  502    0 -0.00000000000E+00  0.00000000000E+00  0.12348705616E+04  0.12348705616E+04  0.00000000000E+00 0.  1.
         21   -1    0    0  501  502  0.00000000000E+00 -0.00000000000E+00 -0.41136242223E+03  0.41136242223E+03  0.00000000000E+00 0.  1.
    9000010    2    1    2  501    0  0.19076629558E+03  0.24432335910E+03  0.39818884073E+03  0.11199419994E+04  0.99981500579E+03 0.  0.
        -13    1    3    3    0    0 -0.26133521197E+02 -0.13990244328E+03 -0.27812815747E+03  0.31242749192E+03  0.10566000000E+00 0.  1.
          4    1    3    3  501    0  0.21689981678E+03  0.38422580238E+03  0.67631699820E+03  0.80751450748E+03  0.00000000000E+00 0.  1.
         13    1    1    2    0    0 -0.19076629558E+03 -0.24432335910E+03  0.42531929859E+03  0.52629098439E+03  0.10566000000E+00 0. -1.
<mgrwt>
<rscale>  1 0.77218090E+03</rscale>
<asrwt>0</asrwt>
<pdfrwt beam="2">  1       21 0.63286527E-01 0.10467644E+04</pdfrwt>
<pdfrwt beam="1">  1        4 0.18998008E+00 0.10467644E+04</pdfrwt>
<totfact> 0.13660904E+01</totfact>
</mgrwt>
</event>
<event>
 6    1  0.1412458E-005  0.8240195E+03  0.7818608E-02  0.9856767E-01
          4   -1    0    0  502    0 -0.00000000000E+00  0.00000000000E+00  0.42726595451E+03  0.42726595451E+03  0.00000000000E+00 0.  1.
         21   -1    0    0  501  502  0.00000000000E+00 -0.00000000000E+00 -0.79078695013E+03  0.79078695013E+03  0.00000000000E+00 0.  1.
    9000010    2    1    2  501    0 -0.21161776308E+03  0.16933184761E+03 -0.44308114566E+03  0.93559019753E+03  0.77817270822E+03 0.  0.
        -13    1    3    3    0    0  0.15645894861E+03  0.27665101954E+02 -0.51122675071E+03  0.53534807581E+03  0.10566000000E+00 0.  1.
          4    1    3    3  501    0 -0.36807671169E+03  0.14166674566E+03  0.68145605050E+02  0.40024212172E+03  0.00000000000E+00 0.  1.
         13    1    1    2    0    0  0.21161776308E+03 -0.16933184761E+03  0.79560150045E+02  0.28246270711E+03  0.10566000000E+00 0. -1.
<mgrwt>
<rscale>  1 0.62403084E+03</rscale>
<asrwt>0</asrwt>
<pdfrwt beam="2">  1       21 0.12165953E+00 0.82401949E+03</pdfrwt>
<pdfrwt beam="1">  1        4 0.65733224E-01 0.82401949E+03</pdfrwt>
<totfact> 0.41395459E+01</totfact>
</mgrwt>
</event>
<event>
 6    1  0.1412458E-005  0.1005011E+04  0.7818608E-02  0.9724341E-01
         21   -1    0    0  501  502  0.00000000000E+00  0.00000000000E+00  0.46560819480E+03  0.46560819480E+03  0.00000000000E+00 0.  1.
          4   -1    0    0  502    0 -0.00000000000E+00 -0.00000000000E+00 -0.88041332339E+03  0.88041332339E+03  0.00000000000E+00 0.  1.
    9000010    2    1    2  501    0  0.12481534931E+03  0.19434983677E+03 -0.46855942440E+03  0.11088712157E+04  0.97810874059E+03 0.  0.
        -13    1    3    3    0    0  0.25135845721E+03  0.55783486952E+03 -0.35593406947E+03  0.70784877526E+03  0.10566000000E+00 0.  1.
          4    1    3    3  501    0 -0.12654310791E+03 -0.36348503275E+03 -0.11262535493E+03  0.40102244048E+03  0.00000000000E+00 0.  1.
         13    1    1    2    0    0 -0.12481534931E+03 -0.19434983677E+03  0.53754295806E+02  0.23715030246E+03  0.10566000000E+00 0. -1.
<mgrwt>
<rscale>  1 0.69585824E+03</rscale>
<asrwt>0</asrwt>
<pdfrwt beam="1">  1       21 0.71632030E-01 0.10050112E+04</pdfrwt>
<pdfrwt beam="2">  1        4 0.13544820E+00 0.10050112E+04</pdfrwt>
<totfact> 0.26373766E+01</totfact>
</mgrwt>
</event>
<event>
 6    1  0.1412458E-005  0.1021776E+04  0.7818608E-02  0.9858838E-01
          4   -1    0    0  502    0 -0.00000000000E+00  0.00000000000E+00  0.26864501166E+03  0.26864501166E+03  0.00000000000E+00 0.  1.
         21   -1    0    0  501  502  0.00000000000E+00 -0.00000000000E+00 -0.19362217228E+04  0.19362217228E+04  0.00000000000E+00 0.  1.
    9000010    2    1    2  501    0  0.13927722479E+03 -0.23230790549E+02 -0.17607131616E+04  0.20357152505E+04  0.10119722964E+04 0.  0.
        -13    1    3    3    0    0 -0.32398042319E+03  0.30531798914E+03 -0.64418451679E+03  0.78304284170E+03  0.10566000000E+00 0.  1.
          4    1    3    3  501    0  0.46325764798E+03 -0.32854877969E+03 -0.11165286448E+04  0.12526724088E+04  0.00000000000E+00 0.  1.
         13    1    1    2    0    0 -0.13927722479E+03  0.23230790549E+02  0.93136450435E+02  0.16915148399E+03  0.10566000000E+00 0. -1.
<mgrwt>
<rscale>  1 0.62298333E+03</rscale>
<asrwt>0</asrwt>
<pdfrwt beam="2">  1       21 0.29788026E+00 0.10217758E+04</pdfrwt>
<pdfrwt beam="1">  1        4 0.41330002E-01 0.10217758E+04</pdfrwt>
<totfact> 0.62070239E+00</totfact>
</mgrwt>
</event>
<event>
 6    1  0.1412458E-005  0.9396064E+03  0.7818608E-02  0.1033859E+00
         21   -1    0    0  501  502  0.00000000000E+00  0.00000000000E+00  0.56873478844E+03  0.56873478844E+03  0.00000000000E+00 0.  1.
          4   -1    0    0  502    0 -0.00000000000E+00 -0.00000000000E+00 -0.59402672398E+03  0.59402672398E+03  0.00000000000E+00 0.  1.
    9000010    2    1    2  501    0  0.27465914897E+02 -0.30728471352E+02  0.17715571185E+03  0.95616123040E+03  0.93870204902E+03 0.  0.
        -13    1    3    3    0    0 -0.37606890169E+03  0.24204923445E+03  0.34208847372E+02  0.44853752031E+03  0.10566000000E+00 0.  1.
          4    1    3    3  501    0  0.40353481659E+03 -0.27277770580E+03  0.14294686447E+03  0.50762371009E+03  0.00000000000E+00 0.  1.
         13    1    1    2    0    0 -0.27465914897E+02  0.30728471352E+02 -0.20244764739E+03  0.20660028202E+03  0.10566000000E+00 0. -1.
<mgrwt>
<rscale>  1 0.43000322E+03</rscale>
<asrwt>0</asrwt>
<pdfrwt beam="1">  1       21 0.87497660E-01 0.93960638E+03</pdfrwt>
<pdfrwt beam="2">  1        4 0.91388727E-01 0.93960638E+03</pdfrwt>
<totfact> 0.43865807E+01</totfact>
</mgrwt>
</event>
<event>
 6    1  0.1412458E-005  0.1045967E+04  0.7818608E-02  0.9668588E-01
         21   -1    0    0  501  502  0.00000000000E+00  0.00000000000E+00  0.16600492111E+04  0.16600492111E+04  0.00000000000E+00 0.  1.
          4   -1    0    0  502    0 -0.00000000000E+00 -0.00000000000E+00 -0.25373260571E+03  0.25373260571E+03  0.00000000000E+00 0.  1.
    9000010    2    1    2  501    0 -0.64023840901E+02  0.23861344666E+03  0.12003548204E+04  0.15921365197E+04  0.10163717692E+04 0.  0.
        -13    1    3    3    0    0 -0.11758890329E+03  0.61468034123E+03  0.94852702465E+03  0.11363813619E+04  0.10566000000E+00 0.  1.
          4    1    3    3  501    0  0.53565062385E+02 -0.37606689457E+03  0.25182779573E+03  0.45575515774E+03  0.00000000000E+00 0.  1.
         13    1    1    2    0    0  0.64023840901E+02 -0.23861344666E+03  0.20596178500E+03  0.32164529714E+03  0.10566000000E+00 0. -1.
<mgrwt>
<rscale>  1 0.72918253E+03</rscale>
<asrwt>0</asrwt>
<pdfrwt beam="1">  1       21 0.25539218E+00 0.10459670E+04</pdfrwt>
<pdfrwt beam="2">  1        4 0.39035786E-01 0.10459670E+04</pdfrwt>
<totfact> 0.12818314E+01</totfact>
</mgrwt>
</event>
<event>
 6    1  0.1412458E-005  0.1074786E+04  0.7818608E-02  0.9678381E-01
         21   -1    0    0  501  502  0.00000000000E+00  0.00000000000E+00  0.74275801965E+03  0.74275801965E+03  0.00000000000E+00 0.  1.
          4   -1    0    0  502    0 -0.00000000000E+00 -0.00000000000E+00 -0.64160159674E+03  0.64160159674E+03  0.00000000000E+00 0.  1.
    9000010    2    1    2  501    0  0.18367202506E+03  0.12166188735E+03  0.26836158040E+03  0.11077830384E+04  0.10519640178E+04 0.  0.
        -13    1    3    3    0    0  0.47887001079E+03  0.47363112565E+01  0.51684075342E+03  0.70460151535E+03  0.10566000000E+00 0.  1.
          4    1    3    3  501    0 -0.29519798573E+03  0.11692557609E+03 -0.24847917302E+03  0.40318152308E+03  0.00000000000E+00 0.  1.
         13    1    1    2    0    0 -0.18367202506E+03 -0.12166188735E+03 -0.16720515749E+03  0.27657657796E+03  0.10566000000E+00 0. -1.
<mgrwt>
<rscale>  1 0.72318717E+03</rscale>
<asrwt>0</asrwt>
<pdfrwt beam="1">  1       21 0.11427047E+00 0.10747862E+04</pdfrwt>
<pdfrwt beam="2">  1        4 0.98707937E-01 0.10747862E+04</pdfrwt>
<totfact> 0.18609140E+01</totfact>
</mgrwt>
</event>
<event>
 6    1  0.1412458E-005  0.1103481E+04  0.7818608E-02  0.9439512E-01
         21   -1    0    0  501  502  0.00000000000E+00  0.00000000000E+00  0.16954520114E+04  0.16954520114E+04  0.00000000000E+00 0. -1.
          4   -1    0    0  502    0 -0.00000000000E+00 -0.00000000000E+00 -0.45367158690E+03  0.45367158690E+03  0.00000000000E+00 0.  1.
    9000010    2    1    2  501    0 -0.60775108569E+02 -0.46073550871E+03  0.12713599303E+04  0.16834565701E+04  0.10008492036E+04 0.  0.
        -13    1    3    3    0    0  0.39154776757E+03 -0.47410772431E+03  0.51502370806E+03  0.80208305030E+03  0.10566000000E+00 0.  1.
          4    1    3    3  501    0 -0.45232287614E+03  0.13372215598E+02  0.75633622222E+03  0.88137351984E+03  0.00000000000E+00 0.  1.
         13    1    1    2    0    0  0.60775108569E+02  0.46073550871E+03 -0.29579505769E+02  0.46566702818E+03  0.10566000000E+00 0. -1.
<mgrwt>
<rscale>  1 0.88894110E+03</rscale>
<asrwt>0</asrwt>
<pdfrwt beam="1">  1       21 0.26083877E+00 0.11034808E+04</pdfrwt>
<pdfrwt beam="2">  1        4 0.69795630E-01 0.11034808E+04</pdfrwt>
<totfact> 0.34025622E+00</totfact>
</mgrwt>
</event>
<event>
 6    1  0.1412458E-005  0.1009574E+04  0.7818608E-02  0.9935702E-01
          4   -1    0    0  502    0 -0.00000000000E+00  0.00000000000E+00  0.74364095703E+03  0.74364095703E+03  0.00000000000E+00 0.  1.
         21   -1    0    0  501  502  0.00000000000E+00 -0.00000000000E+00 -0.46223602137E+03  0.46223602137E+03  0.00000000000E+00 0.  1.
    9000010    2    1    2  501    0  0.96860729487E+02 -0.60681837102E+02  0.35472894359E+03  0.10700804115E+04  0.10030828368E+04 0.  0.
        -13    1    3    3    0    0  0.16300329653E+03 -0.50061090342E+03  0.33650550610E+03  0.62483383239E+03  0.10566000000E+00 0.  1.
          4    1    3    3  501    0 -0.66142567043E+02  0.43992906632E+03  0.18223437496E+02  0.44524657914E+03  0.00000000000E+00 0.  1.
         13    1    1    2    0    0 -0.96860729487E+02  0.60681837102E+02 -0.73324007937E+02  0.13579656687E+03  0.10566000000E+00 0. -1.
<mgrwt>
<rscale>  1 0.58561797E+03</rscale>
<asrwt>0</asrwt>
<pdfrwt beam="2">  1       21 0.71113234E-01 0.10095739E+04</pdfrwt>
<pdfrwt beam="1">  1        4 0.11440630E+00 0.10095739E+04</pdfrwt>
<totfact> 0.41160682E+01</totfact>
</mgrwt>
</event>
<event>
 6    1  0.1412458E-005  0.9769022E+03  0.7818608E-02  0.1004978E+00
         21   -1    0    0  501  502  0.00000000000E+00  0.00000000000E+00  0.56769747635E+03  0.56769747635E+03  0.00000000000E+00 0.  1.
          4   -1    0    0  502    0 -0.00000000000E+00 -0.00000000000E+00 -0.54462777799E+03  0.54462777799E+03  0.00000000000E+00 0.  1.
    9000010    2    1    2  501    0  0.33600120385E+02  0.81342749814E+02  0.11667314066E+03  0.98384480209E+03  0.97292978257E+03 0.  0.
        -13    1    3    3    0    0  0.24041594874E+01  0.41571517866E+03  0.37522784693E+03  0.56001860507E+03  0.10566000000E+00 0.  1.
          4    1    3    3  501    0  0.31195960898E+02 -0.33437242884E+03 -0.25855470627E+03  0.42382619702E+03  0.00000000000E+00 0.  1.
         13    1    1    2    0    0 -0.33600120385E+02 -0.81342749814E+02 -0.93603442295E+02  0.12848045225E+03  0.10566000000E+00 0. -1.
<mgrwt>
<rscale>  1 0.53520525E+03</rscale>
<asrwt>0</asrwt>
<pdfrwt beam="1">  1       21 0.87338073E-01 0.97690223E+03</pdfrwt>
<pdfrwt beam="2">  1        4 0.83788889E-01 0.97690223E+03</pdfrwt>
<totfact> 0.53798296E+01</totfact>
</mgrwt>
</event>
<event>
 6    1  0.1412458E-005  0.1224712E+04  0.7818608E-02  0.9234381E-01
          4   -1    0    0  502    0 -0.00000000000E+00  0.00000000000E+00  0.17999269409E+04  0.17999269409E+04  0.00000000000E+00 0.  1.
         21   -1    0    0  501  502  0.00000000000E+00 -0.00000000000E+00 -0.59775572062E+03  0.59775572062E+03  0.00000000000E+00 0.  1.
    9000010    2    1    2  501    0 -0.71476264947E+03  0.19603989472E+02  0.32712268520E+03  0.12676473030E+04  0.99430904263E+03 0.  0.
        -13    1    3    3    0    0 -0.22639583144E+03  0.40636305037E+03 -0.14360388211E+03  0.48683476388E+03  0.10566000000E+00 0.  1.
          4    1    3    3  501    0 -0.48836681804E+03 -0.38675906090E+03  0.47072656731E+03  0.78081253917E+03  0.00000000000E+00 0.  1.
         13    1    1    2    0    0  0.71476264947E+03 -0.19603989472E+02  0.87504853509E+03  0.11300353585E+04  0.10566000000E+00 0. -1.
<mgrwt>
<rscale>  1 0.10705498E+04</rscale>
<asrwt>0</asrwt>
<pdfrwt beam="2">  1       21 0.91962420E-01 0.12247124E+04</pdfrwt>
<pdfrwt beam="1">  1        4 0.27691183E+00 0.12247124E+04</pdfrwt>
<totfact> 0.15627917E+00</totfact>
</mgrwt>
</event>
<event>
 6    1  0.1412458E-005  0.9932268E+03  0.7818608E-02  0.9911360E-01
          4   -1    0    0  502    0 -0.00000000000E+00  0.00000000000E+00  0.85802699132E+03  0.85802699132E+03  0.00000000000E+00 0.  1.
         21   -1    0    0  501  502  0.00000000000E+00 -0.00000000000E+00 -0.37036093666E+03  0.37036093666E+03  0.00000000000E+00 0.  1.
    9000010    2    1    2  501    0 -0.12976058177E+03  0.10158148599E+01  0.46488332576E+03  0.10966385281E+04  0.98471351892E+03 0.  0.
        -13    1    3    3    0    0 -0.55127477051E+03  0.39001766351E+02  0.36337742053E+03  0.66141376709E+03  0.10566000000E+00 0.  1.
          4    1    3    3  501    0  0.42151418874E+03 -0.37985951492E+02  0.10150590523E+03  0.43522476104E+03  0.00000000000E+00 0.  1.
         13    1    1    2    0    0  0.12976058177E+03 -0.10158148599E+01  0.22782728906E+02  0.13174939985E+03  0.10566000000E+00 0. -1.
<mgrwt>
<rscale>  1 0.59713902E+03</rscale>
<asrwt>0</asrwt>
<pdfrwt beam="2">  1       21 0.56978606E-01 0.99322684E+03</pdfrwt>
<pdfrwt beam="1">  1        4 0.13200415E+00 0.99322684E+03</pdfrwt>
<totfact> 0.47269534E+01</totfact>
</mgrwt>
</event>
<event>
 6    1  0.1412458E-005  0.1133221E+04  0.7818608E-02  0.9531919E-01
          4   -1    0    0  502    0 -0.00000000000E+00  0.00000000000E+00  0.56690560945E+03  0.56690560945E+03  0.00000000000E+00 0.  1.
         21   -1    0    0  501  502  0.00000000000E+00 -0.00000000000E+00 -0.99368043016E+03  0.99368043016E+03  0.00000000000E+00 0.  1.
    9000010    2    1    2  501    0  0.20418064636E+03 -0.23357599527E+03 -0.50497972510E+03  0.12406430757E+04  0.10899280878E+04 0.  0.
        -13    1    3    3    0    0  0.26290346952E+03 -0.56665034589E+03  0.97473717149E+01  0.62474464480E+03  0.10566000000E+00 0.  1.
          4    1    3    3  501    0 -0.58722823161E+02  0.33307435062E+03 -0.51472709682E+03  0.61589843091E+03  0.00000000000E+00 0.  1.
         13    1    1    2    0    0 -0.20418064636E+03  0.23357599527E+03  0.78204904393E+02  0.31994296390E+03  0.10566000000E+00 0. -1.
<mgrwt>
<rscale>  1 0.81970909E+03</rscale>
<asrwt>0</asrwt>
<pdfrwt beam="2">  1       21 0.15287391E+00 0.11332214E+04</pdfrwt>
<pdfrwt beam="1">  1        4 0.87216248E-01 0.11332214E+04</pdfrwt>
<totfact> 0.11368159E+01</totfact>
</mgrwt>
</event>
<event>
 6    1  0.1412458E-005  0.1142474E+04  0.7818608E-02  0.9355896E-01
          4   -1    0    0  502    0 -0.00000000000E+00  0.00000000000E+00  0.97117798356E+03  0.97117798356E+03  0.00000000000E+00 0.  1.
         21   -1    0    0  501  502  0.00000000000E+00 -0.00000000000E+00 -0.77011093660E+03  0.77011093660E+03  0.00000000000E+00 0.  1.
    9000010    2    1    2  501    0  0.89812284373E+02 -0.55755334328E+03  0.19551951632E+01  0.11424754954E+04  0.99313365551E+03 0.  0.
        -13    1    3    3    0    0 -0.13017323409E+03  0.22193095925E+03 -0.17791240234E+03  0.31281185338E+03  0.10566000000E+00 0.  1.
          4    1    3    3  501    0  0.21998551847E+03 -0.77948430252E+03  0.17986759750E+03  0.82966364199E+03  0.00000000000E+00 0.  1.
         13    1    1    2    0    0 -0.89812284373E+02  0.55755334328E+03  0.19911185180E+03  0.59881342479E+03  0.10566000000E+00 0. -1.
<mgrwt>
<rscale>  1 0.95795907E+03</rscale>
<asrwt>0</asrwt>
<pdfrwt beam="2">  1       21 0.11847860E+00 0.11424738E+04</pdfrwt>
<pdfrwt beam="1">  1        4 0.14941200E+00 0.11424738E+04</pdfrwt>
<totfact> 0.58874682E+00</totfact>
</mgrwt>
</event>
<event>
 6    1  0.1412458E-005  0.1045480E+04  0.7818608E-02  0.9585373E-01
         21   -1    0    0  501  502  0.00000000000E+00  0.00000000000E+00  0.71311015055E+03  0.71311015055E+03  0.00000000000E+00 0.  1.
          4   -1    0    0  502    0 -0.00000000000E+00 -0.00000000000E+00 -0.96072621457E+03  0.96072621457E+03  0.00000000000E+00 0.  1.
    9000010    2    1    2  501    0  0.32802844864E+03  0.16759167464E+02  0.25246898825E+03  0.10755315904E+04  0.99254424540E+03 0.  0.
        -13    1    3    3    0    0 -0.15568449020E+03 -0.84062569840E+02  0.49459421816E+03  0.52528813801E+03  0.10566000000E+00 0.  1.
          4    1    3    3  501    0  0.48371293884E+03  0.10082173730E+03 -0.24212522991E+03  0.55024345237E+03  0.00000000000E+00 0.  1.
         13    1    1    2    0    0 -0.32802844864E+03 -0.16759167464E+02 -0.50008505227E+03  0.59830477474E+03  0.10566000000E+00 0. -1.
<mgrwt>
<rscale>  1 0.78271936E+03</rscale>
<asrwt>0</asrwt>
<pdfrwt beam="1">  1       21 0.10970925E+00 0.10454796E+04</pdfrwt>
<pdfrwt beam="2">  1        4 0.14780403E+00 0.10454796E+04</pdfrwt>
<totfact> 0.74580111E+00</totfact>
</mgrwt>
</event>
<event>
 6    1  0.1412458E-005  0.1106417E+04  0.7818608E-02  0.9491985E-01
         21   -1    0    0  501  502  0.00000000000E+00  0.00000000000E+00  0.93062493260E+03  0.93062493260E+03  0.00000000000E+00 0.  1.
          4   -1    0    0  502    0 -0.00000000000E+00 -0.00000000000E+00 -0.60357044426E+03  0.60357044426E+03  0.00000000000E+00 0.  1.
    9000010    2    1    2  501    0  0.37942559965E+03 -0.53550761705E+02  0.31677571895E+03  0.11508715790E+04  0.10379436716E+04 0.  0.
        -13    1    3    3    0    0  0.25794966924E+03  0.48360433168E+03  0.22534398857E+03  0.59261379146E+03  0.10566000000E+00 0.  1.
          4    1    3    3  501    0  0.12147593042E+03 -0.53715509338E+03  0.91431730383E+02  0.55825778753E+03  0.00000000000E+00 0.  1.
         13    1    1    2    0    0 -0.37942559965E+03  0.53550761705E+02  0.10278769392E+02  0.38332379787E+03  0.10566000000E+00 0. -1.
<mgrwt>
<rscale>  1 0.84877293E+03</rscale>
<asrwt>0</asrwt>
<pdfrwt beam="1">  1       21 0.14317307E+00 0.11064170E+04</pdfrwt>
<pdfrwt beam="2">  1        4 0.92856992E-01 0.11064170E+04</pdfrwt>
<totfact> 0.11802526E+01</totfact>
</mgrwt>
</event>
<event>
 6    1  0.1412458E-005  0.1003353E+04  0.7818608E-02  0.9911354E-01
         21   -1    0    0  501  502  0.00000000000E+00  0.00000000000E+00  0.23521929629E+03  0.23521929629E+03  0.00000000000E+00 0.  1.
          4   -1    0    0  502    0 -0.00000000000E+00 -0.00000000000E+00 -0.16676158825E+04  0.16676158825E+04  0.00000000000E+00 0.  1.
    9000010    2    1    2  501    0 -0.20737099533E+02 -0.12415753057E+03 -0.87465968197E+03  0.13310698552E+04  0.99542567807E+03 0.  0.
        -13    1    3    3    0    0 -0.37496018379E+02  0.18534907460E+03  0.16203521219E+03  0.24902941995E+03  0.10566000000E+00 0.  1.
          4    1    3    3  501    0  0.16758918846E+02 -0.30950660517E+03 -0.10366948942E+04  0.10820404353E+04  0.00000000000E+00 0.  1.
         13    1    1    2    0    0  0.20737099533E+02  0.12415753057E+03 -0.55773690425E+03  0.57176532356E+03  0.10566000000E+00 0. -1.
<mgrwt>
<rscale>  1 0.59714159E+03</rscale>
<asrwt>0</asrwt>
<pdfrwt beam="1">  1       21 0.36187584E-01 0.10033531E+04</pdfrwt>
<pdfrwt beam="2">  1        4 0.25655629E+00 0.10033531E+04</pdfrwt>
<totfact> 0.17145000E+01</totfact>
</mgrwt>
</event>
<event>
 6    1  0.1412458E-005  0.9698121E+03  0.7818608E-02  0.1003680E+00
         21   -1    0    0  501  502  0.00000000000E+00  0.00000000000E+00  0.98248880517E+03  0.98248880517E+03  0.00000000000E+00 0.  1.
          4   -1    0    0  502    0 -0.00000000000E+00 -0.00000000000E+00 -0.34672072799E+03  0.34672072799E+03  0.00000000000E+00 0.  1.
    9000010    2    1    2  501    0 -0.49293042864E+02  0.79657730364E+02  0.71631103369E+03  0.12056687015E+04  0.96527735015E+03 0.  0.
        -13    1    3    3    0    0 -0.40613270167E+03 -0.42505088727E+02  0.72084128991E+03  0.82847005398E+03  0.10566000000E+00 0.  1.
          4    1    3    3  501    0  0.35683965881E+03  0.12216281909E+03 -0.45302562246E+01  0.37719864752E+03  0.00000000000E+00 0.  1.
         13    1    1    2    0    0  0.49293042864E+02 -0.79657730364E+02 -0.80542956507E+02  0.12354083166E+03  0.10566000000E+00 0. -1.
<mgrwt>
<rscale>  1 0.54065801E+03</rscale>
<asrwt>0</asrwt>
<pdfrwt beam="1">  1       21 0.15115212E+00 0.96981211E+03</pdfrwt>
<pdfrwt beam="2">  1        4 0.53341651E-01 0.96981211E+03</pdfrwt>
<totfact> 0.35778826E+01</totfact>
</mgrwt>
</event>
<event>
 6    1  0.1412458E-005  0.1006320E+04  0.7818608E-02  0.1013760E+00
         21   -1    0    0  501  502  0.00000000000E+00  0.00000000000E+00  0.10098852923E+03  0.10098852923E+03  0.00000000000E+00 0.  1.
          4   -1    0    0  502    0 -0.00000000000E+00 -0.00000000000E+00 -0.29225074846E+04  0.29225074846E+04  0.00000000000E+00 0.  1.
    9000010    2    1    2  501    0  0.60151759156E+02  0.12147246837E+02 -0.24780179514E+04  0.26745565626E+04  0.10044471362E+04 0.  0.
        -13    1    3    3    0    0 -0.20727659143E+03 -0.39425877662E+02 -0.31980261093E+02  0.21340274939E+03  0.10566000000E+00 0.  1.
          4    1    3    3  501    0  0.26742835058E+03  0.51573124499E+02 -0.24460376903E+04  0.24611538132E+04  0.00000000000E+00 0.  1.
         13    1    1    2    0    0 -0.60151759156E+02 -0.12147246837E+02 -0.34350100390E+03  0.34893945117E+03  0.10566000000E+00 0. -1.
<mgrwt>
<rscale>  1 0.50007395E+03</rscale>
<asrwt>0</asrwt>
<pdfrwt beam="1">  1       21 0.15536697E-01 0.10063199E+04</pdfrwt>
<pdfrwt beam="2">  1        4 0.44961654E+00 0.10063199E+04</pdfrwt>
<totfact> 0.48210448E+00</totfact>
</mgrwt>
</event>
<event>
 6    1  0.1412458E-005  0.1056548E+04  0.7818608E-02  0.9554035E-01
         21   -1    0    0  501  502  0.00000000000E+00  0.00000000000E+00  0.68337239581E+03  0.68337239581E+03  0.00000000000E+00 0.  1.
          4   -1    0    0  502    0 -0.00000000000E+00 -0.00000000000E+00 -0.13006518163E+04  0.13006518163E+04  0.00000000000E+00 0.  1.
    9000010    2    1    2  501    0 -0.35158774795E+03 -0.45704218365E+02  0.21604655267E+03  0.10784111552E+04  0.99528472647E+03 0.  0.
        -13    1    3    3    0    0  0.28703936424E+03 -0.25433192049E+03  0.53837494446E+02  0.38726581229E+03  0.10566000000E+00 0.  1.
          4    1    3    3  501    0 -0.63862711218E+03  0.20862770212E+03  0.16220905822E+03  0.69114534295E+03  0.00000000000E+00 0.  1.
         13    1    1    2    0    0  0.35158774795E+03  0.45704218365E+02 -0.83332597317E+03  0.90561305688E+03  0.10566000000E+00 0. -1.
<mgrwt>
<rscale>  1 0.80414650E+03</rscale>
<asrwt>0</asrwt>
<pdfrwt beam="1">  1       21 0.10513422E+00 0.10565484E+04</pdfrwt>
<pdfrwt beam="2">  1        4 0.20010028E+00 0.10565484E+04</pdfrwt>
<totfact> 0.35026715E+00</totfact>
</mgrwt>
</event>
<event>
 6    1  0.1412458E-005  0.1016087E+04  0.7818608E-02  0.9743975E-01
          4   -1    0    0  502    0 -0.00000000000E+00  0.00000000000E+00  0.94878802937E+03  0.94878802937E+03  0.00000000000E+00 0.  1.
         21   -1    0    0  501  502  0.00000000000E+00 -0.00000000000E+00 -0.42294160332E+03  0.42294160332E+03  0.00000000000E+00 0.  1.
    9000010    2    1    2  501    0  0.11478268347E+03 -0.17509359781E+03  0.29063201132E+03  0.10568349448E+04  0.99428381364E+03 0.  0.
        -13    1    3    3    0    0  0.54005197291E+02  0.41642231100E+03  0.14908380202E+03  0.44558960224E+03  0.10566000000E+00 0.  1.
          4    1    3    3  501    0  0.60777486181E+02 -0.59151590882E+03  0.14154820930E+03  0.61124534253E+03  0.00000000000E+00 0.  1.
         13    1    1    2    0    0 -0.11478268347E+03  0.17509359781E+03  0.23521441473E+03  0.31489468792E+03  0.10566000000E+00 0. -1.
<mgrwt>
<rscale>  1 0.68457838E+03</rscale>
<asrwt>0</asrwt>
<pdfrwt beam="2">  1       21 0.65067939E-01 0.10160872E+04</pdfrwt>
<pdfrwt beam="1">  1        4 0.14596739E+00 0.10160872E+04</pdfrwt>
<totfact> 0.26939799E+01</totfact>
</mgrwt>
</event>
<event>
 6    1  0.1412458E-005  0.1026961E+04  0.7818608E-02  0.9744184E-01
         21   -1    0    0  501  502  0.00000000000E+00  0.00000000000E+00  0.41187662609E+03  0.41187662609E+03  0.00000000000E+00 0.  1.
          4   -1    0    0  502    0 -0.00000000000E+00 -0.00000000000E+00 -0.10592559160E+04  0.10592559160E+04  0.00000000000E+00 0.  1.
    9000010    2    1    2  501    0 -0.19121510754E+03  0.67086607041E+02 -0.30157058861E+03  0.10703239852E+04  0.10067694787E+04 0.  0.
        -13    1    3    3    0    0  0.13221773099E+02  0.85348666614E+02  0.36385386069E+03  0.37396370584E+03  0.10566000000E+00 0.  1.
          4    1    3    3  501    0 -0.20443688063E+03 -0.18262059573E+02 -0.66542444931E+03  0.69636027940E+03  0.00000000000E+00 0.  1.
         13    1    1    2    0    0  0.19121510754E+03 -0.67086607041E+02 -0.34580870125E+03  0.40080855682E+03  0.10566000000E+00 0. -1.
<mgrwt>
<rscale>  1 0.68445967E+03</rscale>
<asrwt>0</asrwt>
<pdfrwt beam="1">  1       21 0.63365634E-01 0.10269609E+04</pdfrwt>
<pdfrwt beam="2">  1        4 0.16296245E+00 0.10269609E+04</pdfrwt>
<totfact> 0.21185114E+01</totfact>
</mgrwt>
</event>
<event>
 6    1  0.1412458E-005  0.1412409E+04  0.7818608E-02  0.9035990E-01
          4   -1    0    0  502    0 -0.00000000000E+00  0.00000000000E+00  0.13040249038E+04  0.13040249038E+04  0.00000000000E+00 0.  1.
         21   -1    0    0  501  502  0.00000000000E+00 -0.00000000000E+00 -0.14137899815E+04  0.14137899815E+04  0.00000000000E+00 0.  1.
    9000010    2    1    2  501    0 -0.96312038960E+03  0.22353889127E+03 -0.68943831726E+03  0.15716946487E+04  0.10086269650E+04 0.  0.
        -13    1    3    3    0    0 -0.42725789198E+03  0.27274209627E+03 -0.86762501369E+03  0.10048436360E+04  0.10566000000E+00 0.  1.
          4    1    3    3  501    0 -0.53586249762E+03 -0.49203205001E+02  0.17818669643E+03  0.56685101263E+03  0.00000000000E+00 0.  1.
         13    1    1    2    0    0  0.96312038960E+03 -0.22353889127E+03  0.57967323956E+03  0.11461202365E+04  0.10566000000E+00 0. -1.
<mgrwt>
<rscale>  1 0.12919296E+04</rscale>
<asrwt>0</asrwt>
<pdfrwt beam="2">  1       21 0.21750615E+00 0.14124089E+04</pdfrwt>
<pdfrwt beam="1">  1        4 0.20061922E+00 0.14124089E+04</pdfrwt>
<totfact> 0.41624697E-01</totfact>
</mgrwt>
</event>
<event>
 6    1  0.1412458E-005  0.1266686E+04  0.7818608E-02  0.9188065E-01
          4   -1    0    0  502    0 -0.00000000000E+00  0.00000000000E+00  0.77901681580E+03  0.77901681580E+03  0.00000000000E+00 0.  1.
         21   -1    0    0  501  502  0.00000000000E+00 -0.00000000000E+00 -0.13444465003E+04  0.13444465003E+04  0.00000000000E+00 0. -1.
    9000010    2    1    2  501    0  0.58257920172E+03 -0.50044014955E+03 -0.23936778576E+03  0.12891041353E+04  0.10073001863E+04 0.  0.
        -13    1    3    3    0    0  0.21765270863E+03 -0.73838521480E+03 -0.34070910345E+03  0.84182428769E+03  0.10566000000E+00 0.  1.
          4    1    3    3  501    0  0.36492649309E+03  0.23794506524E+03  0.10134131769E+03  0.44727984764E+03  0.00000000000E+00 0.  1.
         13    1    1    2    0    0 -0.58257920172E+03  0.50044014955E+03 -0.32606189875E+03  0.83435918078E+03  0.10566000000E+00 0. -1.
<mgrwt>
<rscale>  1 0.11177466E+04</rscale>
<asrwt>0</asrwt>
<pdfrwt beam="2">  1       21 0.20683792E+00 0.12666856E+04</pdfrwt>
<pdfrwt beam="1">  1        4 0.11984874E+00 0.12666856E+04</pdfrwt>
<totfact> 0.20767010E+00</totfact>
</mgrwt>
</event>
<event>
 6    1  0.1412458E-005  0.1066829E+04  0.7818608E-02  0.9546053E-01
         21   -1    0    0  501  502  0.00000000000E+00  0.00000000000E+00  0.10366345192E+04  0.10366345192E+04  0.00000000000E+00 0.  1.
          4   -1    0    0  502    0 -0.00000000000E+00 -0.00000000000E+00 -0.83354870978E+03  0.83354870978E+03  0.00000000000E+00 0.  1.
    9000010    2    1    2  501    0 -0.35114211386E+03  0.45222996089E+02  0.68825246159E+03  0.12695730434E+04  0.10063688976E+04 0.  0.
        -13    1    3    3    0    0 -0.21837747434E+03 -0.47089436442E+03  0.44523049645E+03  0.68385702444E+03  0.10566000000E+00 0.  1.
          4    1    3    3  501    0 -0.13276463952E+03  0.51611736051E+03  0.24302196514E+03  0.58571601895E+03  0.00000000000E+00 0.  1.
         13    1    1    2    0    0  0.35114211386E+03 -0.45222996089E+02 -0.48516665217E+03  0.60061018559E+03  0.10566000000E+00 0. -1.
<mgrwt>
<rscale>  1 0.80972007E+03</rscale>
<asrwt>0</asrwt>
<pdfrwt beam="1">  1       21 0.15948223E+00 0.10668291E+04</pdfrwt>
<pdfrwt beam="2">  1        4 0.12823826E+00 0.10668291E+04</pdfrwt>
<totfact> 0.39547214E+00</totfact>
</mgrwt>
</event>
<event>
 6    1  0.1412458E-005  0.1087335E+04  0.7818608E-02  0.9495554E-01
         21   -1    0    0  501  502  0.00000000000E+00  0.00000000000E+00  0.66801616040E+03  0.66801616040E+03  0.00000000000E+00 0.  1.
          4   -1    0    0  502    0 -0.00000000000E+00 -0.00000000000E+00 -0.11251049827E+04  0.11251049827E+04  0.00000000000E+00 0.  1.
    9000010    2    1    2  501    0  0.18012036513E+03 -0.35569454445E+03  0.11759566965E+03  0.10936754831E+04  0.10116003983E+04 0.  0.
        -13    1    3    3    0    0  0.63293959650E+02 -0.59235010693E+03 -0.24589553132E+03  0.64447606472E+03  0.10566000000E+00 0.  1.
          4    1    3    3  501    0  0.11682640548E+03  0.23665556248E+03  0.36349120097E+03  0.44919941835E+03  0.00000000000E+00 0.  1.
         13    1    1    2    0    0 -0.18012036513E+03  0.35569454445E+03 -0.57468449195E+03  0.69944566003E+03  0.10566000000E+00 0. -1.
<mgrwt>
<rscale>  1 0.84612430E+03</rscale>
<asrwt>0</asrwt>
<pdfrwt beam="1">  1       21 0.10277172E+00 0.10873350E+04</pdfrwt>
<pdfrwt beam="2">  1        4 0.17309307E+00 0.10873350E+04</pdfrwt>
<totfact> 0.56624304E+00</totfact>
</mgrwt>
</event>
<event>
 6    1  0.1412458E-005  0.1012341E+04  0.7818608E-02  0.1004582E+00
          4   -1    0    0  502    0 -0.00000000000E+00  0.00000000000E+00  0.28359874439E+03  0.28359874439E+03  0.00000000000E+00 0.  1.
         21   -1    0    0  501  502  0.00000000000E+00 -0.00000000000E+00 -0.12073608566E+04  0.12073608566E+04  0.00000000000E+00 0.  1.
    9000010    2    1    2  501    0  0.56672202998E+02 -0.56562758064E+02 -0.96699072201E+03  0.13999661504E+04  0.10091695009E+04 0.  0.
        -13    1    3    3    0    0 -0.44411367653E+03 -0.11385514204E+03 -0.67944934051E+03  0.81966540036E+03  0.10566000000E+00 0.  1.
          4    1    3    3  501    0  0.50078587953E+03  0.57292383981E+02 -0.28754138149E+03  0.58030075002E+03  0.00000000000E+00 0.  1.
         13    1    1    2    0    0 -0.56672202998E+02  0.56562758064E+02  0.43228609769E+02  0.90993450638E+02  0.10566000000E+00 0. -1.
<mgrwt>
<rscale>  1 0.53686072E+03</rscale>
<asrwt>0</asrwt>
<pdfrwt beam="2">  1       21 0.18574782E+00 0.10123409E+04</pdfrwt>
<pdfrwt beam="1">  1        4 0.43630576E-01 0.10123409E+04</pdfrwt>
<totfact> 0.29775258E+01</totfact>
</mgrwt>
</event>
<event>
 6    1  0.1412458E-005  0.1002863E+04  0.7818608E-02  0.1007880E+00
         21   -1    0    0  501  502  0.00000000000E+00  0.00000000000E+00  0.13032581266E+04  0.13032581266E+04  0.00000000000E+00 0.  1.
          4   -1    0    0  502    0 -0.00000000000E+00 -0.00000000000E+00 -0.22260312245E+03  0.22260312245E+03  0.00000000000E+00 0.  1.
    9000010    2    1    2  501    0  0.58652155367E+02  0.45653942352E+02  0.10096683631E+04  0.14230824956E+04  0.10001046086E+04 0.  0.
        -13    1    3    3    0    0  0.46997943878E+03  0.25135380924E+03  0.44130652355E+03  0.69196160962E+03  0.10566000000E+00 0.  1.
          4    1    3    3  501    0 -0.41132728341E+03 -0.20569986689E+03  0.56836183950E+03  0.73112088598E+03  0.00000000000E+00 0.  1.
         13    1    1    2    0    0 -0.58652155367E+02 -0.45653942352E+02  0.70986641087E+02  0.10277875344E+03  0.10566000000E+00 0. -1.
<mgrwt>
<rscale>  1 0.52325868E+03</rscale>
<asrwt>0</asrwt>
<pdfrwt beam="1">  1       21 0.20050125E+00 0.10028627E+04</pdfrwt>
<pdfrwt beam="2">  1        4 0.34246635E-01 0.10028627E+04</pdfrwt>
<totfact> 0.38410731E+01</totfact>
</mgrwt>
</event>
<event>
 6    1  0.1412458E-005  0.1027408E+04  0.7818608E-02  0.9628595E-01
          4   -1    0    0  502    0 -0.00000000000E+00  0.00000000000E+00  0.10506719727E+04  0.10506719727E+04  0.00000000000E+00 0.  1.
         21   -1    0    0  501  502  0.00000000000E+00 -0.00000000000E+00 -0.81966124785E+03  0.81966124785E+03  0.00000000000E+00 0.  1.
    9000010    2    1    2  501    0  0.25386751748E+03  0.15708324021E+03 -0.45388562456E+03  0.11232007816E+04  0.98307882428E+03 0.  0.
        -13    1    3    3    0    0 -0.30004891269E+03  0.13866896993E+03 -0.46302503604E+03  0.56890300437E+03  0.10566000000E+00 0.  1.
          4    1    3    3  501    0  0.55391643017E+03  0.18414270277E+02  0.91394114787E+01  0.55429777720E+03  0.00000000000E+00 0.  1.
         13    1    1    2    0    0 -0.25386751748E+03 -0.15708324021E+03  0.68489634940E+03  0.74713243898E+03  0.10566000000E+00 0. -1.
<mgrwt>
<rscale>  1 0.75432163E+03</rscale>
<asrwt>0</asrwt>
<pdfrwt beam="2">  1       21 0.12610173E+00 0.10274083E+04</pdfrwt>
<pdfrwt beam="1">  1        4 0.16164184E+00 0.10274083E+04</pdfrwt>
<totfact> 0.40903997E+00</totfact>
</mgrwt>
</event>
<event>
 6    1  0.1412458E-005  0.1031479E+04  0.7818608E-02  0.9665406E-01
          4   -1    0    0  502    0 -0.00000000000E+00  0.00000000000E+00  0.79298447250E+03  0.79298447250E+03  0.00000000000E+00 0.  1.
         21   -1    0    0  501  502  0.00000000000E+00 -0.00000000000E+00 -0.52845435942E+03  0.52845435942E+03  0.00000000000E+00 0.  1.
    9000010    2    1    2  501    0  0.21572464053E+02  0.25949829523E+03  0.24586980150E+03  0.10603776230E+04  0.99807014159E+03 0.  0.
        -13    1    3    3    0    0 -0.28201356990E+03 -0.24442919787E+03  0.28676350485E+03  0.47064913179E+03  0.10566000000E+00 0.  1.
          4    1    3    3  501    0  0.30358603396E+03  0.50392749310E+03 -0.40893703350E+02  0.58972849116E+03  0.00000000000E+00 0.  1.
         13    1    1    2    0    0 -0.21572464053E+02 -0.25949829523E+03  0.18660311584E+02  0.26106120896E+03  0.10566000000E+00 0. -1.
<mgrwt>
<rscale>  1 0.73114385E+03</rscale>
<asrwt>0</asrwt>
<pdfrwt beam="2">  1       21 0.81300671E-01 0.10314789E+04</pdfrwt>
<pdfrwt beam="1">  1        4 0.12199761E+00 0.10314789E+04</pdfrwt>
<totfact> 0.25605666E+01</totfact>
</mgrwt>
</event>
<event>
 6    1  0.1412458E-005  0.1016872E+04  0.7818608E-02  0.9759494E-01
          4   -1    0    0  502    0 -0.00000000000E+00  0.00000000000E+00  0.16562771450E+04  0.16562771450E+04  0.00000000000E+00 0.  1.
         21   -1    0    0  501  502  0.00000000000E+00 -0.00000000000E+00 -0.39205761938E+03  0.39205761938E+03  0.00000000000E+00 0.  1.
    9000010    2    1    2  501    0 -0.16485656981E+02 -0.19771074891E+03  0.29468676962E+03  0.10587110514E+04  0.99733017658E+03 0.  0.
        -13    1    3    3    0    0  0.16378675232E+03 -0.48823945996E+03  0.44933332208E+03  0.68345030250E+03  0.10566000000E+00 0.  1.
          4    1    3    3  501    0 -0.18027240930E+03  0.29052871104E+03 -0.15464655246E+03  0.37526074893E+03  0.00000000000E+00 0.  1.
         13    1    1    2    0    0  0.16485656981E+02  0.19771074891E+03  0.96953275602E+03  0.98962371297E+03  0.10566000000E+00 0. -1.
<mgrwt>
<rscale>  1 0.67582376E+03</rscale>
<asrwt>0</asrwt>
<pdfrwt beam="2">  1       21 0.60316558E-01 0.10168721E+04</pdfrwt>
<pdfrwt beam="1">  1        4 0.25481186E+00 0.10168721E+04</pdfrwt>
<totfact> 0.58703681E+00</totfact>
</mgrwt>
</event>
<event>
 6    1  0.1412458E-005  0.1071682E+04  0.7818608E-02  0.9543012E-01
         21   -1    0    0  501  502  0.00000000000E+00  0.00000000000E+00  0.43652179779E+03  0.43652179779E+03  0.00000000000E+00 0.  1.
          4   -1    0    0  502    0 -0.00000000000E+00 -0.00000000000E+00 -0.12951234172E+04  0.12951234172E+04  0.00000000000E+00 0.  1.
    9000010    2    1    2  501    0 -0.27680877894E+03 -0.21898346927E+03 -0.38018458487E+03  0.11371204215E+04  0.10118921260E+04 0.  0.
        -13    1    3    3    0    0  0.70483113516E+02 -0.55209014830E+03 -0.61531034638E+02  0.55996203490E+03  0.10566000000E+00 0.  1.
          4    1    3    3  501    0 -0.34729189246E+03  0.33310667903E+03 -0.31865355023E+03  0.57715838663E+03  0.00000000000E+00 0.  1.
         13    1    1    2    0    0  0.27680877894E+03  0.21898346927E+03 -0.47841703451E+03  0.59452479342E+03  0.10566000000E+00 0. -1.
<mgrwt>
<rscale>  1 0.81185629E+03</rscale>
<asrwt>0</asrwt>
<pdfrwt beam="1">  1       21 0.67157200E-01 0.10716821E+04</pdfrwt>
<pdfrwt beam="2">  1        4 0.19924976E+00 0.10716821E+04</pdfrwt>
<totfact> 0.10320355E+01</totfact>
</mgrwt>
</event>
<event>
 6    1  0.1412458E-005  0.1148547E+04  0.7818608E-02  0.9354046E-01
          4   -1    0    0  502    0 -0.00000000000E+00  0.00000000000E+00  0.69205573305E+03  0.69205573305E+03  0.00000000000E+00 0.  1.
         21   -1    0    0  501  502  0.00000000000E+00 -0.00000000000E+00 -0.10545100975E+04  0.10545100975E+04  0.00000000000E+00 0. -1.
    9000010    2    1    2  501    0  0.51119605277E+03 -0.22754924905E+03 -0.22503011861E+03  0.11703840019E+04  0.10030254695E+04 0.  0.
        -13    1    3    3    0    0  0.26387596551E+03 -0.87501466989E+02  0.39806165089E+03  0.48553076213E+03  0.10566000000E+00 0.  1.
          4    1    3    3  501    0  0.24732008726E+03 -0.14004778206E+03 -0.62309176950E+03  0.68485323979E+03  0.00000000000E+00 0.  1.
         13    1    1    2    0    0 -0.51119605277E+03  0.22754924905E+03 -0.13742424581E+03  0.57618182861E+03  0.10566000000E+00 0. -1.
<mgrwt>
<rscale>  1 0.95955975E+03</rscale>
<asrwt>0</asrwt>
<pdfrwt beam="2">  1       21 0.16223232E+00 0.11485470E+04</pdfrwt>
<pdfrwt beam="1">  1        4 0.10647011E+00 0.11485470E+04</pdfrwt>
<totfact> 0.59389152E+00</totfact>
</mgrwt>
</event>
<event>
 6    1  0.1412458E-005  0.9876233E+03  0.7818608E-02  0.1021503E+00
         21   -1    0    0  501  502  0.00000000000E+00  0.00000000000E+00  0.20138410344E+04  0.20138410344E+04  0.00000000000E+00 0.  1.
          4   -1    0    0  502    0 -0.00000000000E+00 -0.00000000000E+00 -0.16122650344E+03  0.16122650344E+03  0.00000000000E+00 0.  1.
    9000010    2    1    2  501    0 -0.33061249894E+02  0.39220113119E+02  0.18749190270E+04  0.21191321714E+04  0.98629029114E+03 0.  0.
        -13    1    3    3    0    0  0.31124191781E+03 -0.24879454011E+03  0.35279308912E+03  0.53219660792E+03  0.10566000000E+00 0.  1.
          4    1    3    3  501    0 -0.34430316770E+03  0.28801465323E+03  0.15221259379E+04  0.15869355635E+04  0.00000000000E+00 0.  1.
         13    1    1    2    0    0  0.33061249894E+02 -0.39220113119E+02 -0.22304496021E+02  0.55935366491E+02  0.10566000000E+00 0. -1.
<mgrwt>
<rscale>  1 0.47148108E+03</rscale>
<asrwt>0</asrwt>
<pdfrwt beam="1">  1       21 0.30982168E+00 0.98762331E+03</pdfrwt>
<pdfrwt beam="2">  1        4 0.24804079E-01 0.98762331E+03</pdfrwt>
<totfact> 0.14435392E+01</totfact>
</mgrwt>
</event>
<event>
 6    1  0.1412458E-005  0.1046489E+04  0.7818608E-02  0.9630159E-01
          4   -1    0    0  502    0 -0.00000000000E+00  0.00000000000E+00  0.10476613589E+04  0.10476613589E+04  0.00000000000E+00 0.  1.
         21   -1    0    0  501  502  0.00000000000E+00 -0.00000000000E+00 -0.43534426057E+03  0.43534426057E+03  0.00000000000E+00 0.  1.
    9000010    2    1    2  501    0  0.16872363116E+03 -0.22470901601E+03  0.58944043878E+03  0.12010744961E+04  0.10080566000E+04 0.  0.
        -13    1    3    3    0    0 -0.31507773000E+03 -0.20658080491E+02  0.59765528628E+03  0.67593829942E+03  0.10566000000E+00 0.  1.
          4    1    3    3  501    0  0.48380136116E+03 -0.20405093552E+03 -0.82148474984E+01  0.52513619669E+03  0.00000000000E+00 0.  1.
         13    1    1    2    0    0 -0.16872363116E+03  0.22470901601E+03  0.22876659504E+02  0.28193112333E+03  0.10566000000E+00 0. -1.
<mgrwt>
<rscale>  1 0.75331792E+03</rscale>
<asrwt>0</asrwt>
<pdfrwt beam="2">  1       21 0.66976041E-01 0.10464893E+04</pdfrwt>
<pdfrwt beam="1">  1        4 0.16117867E+00 0.10464893E+04</pdfrwt>
<totfact> 0.19230503E+01</totfact>
</mgrwt>
</event>
<event>
 6    1  0.1412458E-005  0.1085068E+04  0.7818608E-02  0.9482153E-01
          4   -1    0    0  502    0 -0.00000000000E+00  0.00000000000E+00  0.54258469219E+03  0.54258469219E+03  0.00000000000E+00 0.  1.
         21   -1    0    0  501  502  0.00000000000E+00 -0.00000000000E+00 -0.17324587234E+04  0.17324587234E+04  0.00000000000E+00 0.  1.
    9000010    2    1    2  501    0 -0.38842625551E+03  0.16110278961E+03 -0.14266913210E+04  0.17924343556E+04  0.10002718275E+04 0.  0.
        -13    1    3    3    0    0 -0.67876058180E+03  0.15433127886E+03 -0.60964962108E+03  0.92531440208E+03  0.10566000000E+00 0.  1.
          4    1    3    3  501    0  0.29033432629E+03  0.67715107539E+01 -0.81704169995E+03  0.86711995355E+03  0.00000000000E+00 0.  1.
         13    1    1    2    0    0  0.38842625551E+03 -0.16110278961E+03  0.23681728986E+03  0.48260905994E+03  0.10566000000E+00 0. -1.
<mgrwt>
<rscale>  1 0.85612456E+03</rscale>
<asrwt>0</asrwt>
<pdfrwt beam="2">  1       21 0.26653211E+00 0.10850681E+04</pdfrwt>
<pdfrwt beam="1">  1        4 0.83474567E-01 0.10850681E+04</pdfrwt>
<totfact> 0.20890045E+00</totfact>
</mgrwt>
</event>
<event>
 6    1  0.1412458E-005  0.1067225E+04  0.7818608E-02  0.9525650E-01
         21   -1    0    0  501  502  0.00000000000E+00  0.00000000000E+00  0.41824521216E+03  0.41824521216E+03  0.00000000000E+00 0.  1.
          4   -1    0    0  502    0 -0.00000000000E+00 -0.00000000000E+00 -0.16147233747E+04  0.16147233747E+04  0.00000000000E+00 0.  1.
    9000010    2    1    2  501    0  0.37069840287E+03 -0.81778442274E+02 -0.38052925310E+03  0.11330365597E+04  0.99742885143E+03 0.  0.
        -13    1    3    3    0    0 -0.96090593224E+02  0.22010170415E+03 -0.50870958433E+03  0.56255098847E+03  0.10566000000E+00 0.  1.
          4    1    3    3  501    0  0.46678899609E+03 -0.30188014643E+03  0.12818033123E+03  0.57048557124E+03  0.00000000000E+00 0.  1.
         13    1    1    2    0    0 -0.37069840287E+03  0.81778442274E+02 -0.81594890939E+03  0.89993202710E+03  0.10566000000E+00 0. -1.
<mgrwt>
<rscale>  1 0.82418917E+03</rscale>
<asrwt>0</asrwt>
<pdfrwt beam="1">  1       21 0.64345417E-01 0.10672251E+04</pdfrwt>
<pdfrwt beam="2">  1        4 0.24841898E+00 0.10672251E+04</pdfrwt>
<totfact> 0.55259719E+00</totfact>
</mgrwt>
</event>
<event>
 6    1  0.1412458E-005  0.1197728E+04  0.7818608E-02  0.9256584E-01
         21   -1    0    0  501  502  0.00000000000E+00  0.00000000000E+00  0.55447228115E+03  0.55447228115E+03  0.00000000000E+00 0.  1.
          4   -1    0    0  502    0 -0.00000000000E+00 -0.00000000000E+00 -0.16834399932E+04  0.16834399932E+04  0.00000000000E+00 0.  1.
    9000010    2    1    2  501    0 -0.70034279523E+03 -0.73584401897E+02 -0.51541308282E+03  0.13039187041E+04  0.96884397402E+03 0.  0.
        -13    1    3    3    0    0 -0.65904720219E+03 -0.42219665743E+03 -0.54174515113E+03  0.95188289837E+03  0.10566000000E+00 0.  1.
          4    1    3    3  501    0 -0.41295593031E+02  0.34861225554E+03  0.26332068302E+02  0.35203580576E+03  0.00000000000E+00 0.  1.
         13    1    1    2    0    0  0.70034279523E+03  0.73584401897E+02 -0.61355462923E+03  0.93399357024E+03  0.10566000000E+00 0. -1.
<mgrwt>
<rscale>  1 0.10487994E+04</rscale>
<asrwt>0</asrwt>
<pdfrwt beam="1">  1       21 0.85303429E-01 0.11977284E+04</pdfrwt>
<pdfrwt beam="2">  1        4 0.25899077E+00 0.11977284E+04</pdfrwt>
<totfact> 0.24276280E+00</totfact>
</mgrwt>
</event>
<event>
 6    1  0.1412458E-005  0.1123709E+04  0.7818608E-02  0.9472256E-01
         21   -1    0    0  501  502  0.00000000000E+00  0.00000000000E+00  0.39252633271E+03  0.39252633271E+03  0.00000000000E+00 0.  1.
          4   -1    0    0  502    0 -0.00000000000E+00 -0.00000000000E+00 -0.15353122933E+04  0.15353122933E+04  0.00000000000E+00 0.  1.
    9000010    2    1    2  501    0 -0.11101391560E+03 -0.37596453035E+03 -0.65005043024E+03  0.12981865542E+04  0.10531141201E+04 0.  0.
        -13    1    3    3    0    0 -0.23100498638E+03 -0.58708940533E+03 -0.79535168526E+03  0.10151953447E+04  0.10566000000E+00 0.  1.
          4    1    3    3  501    0  0.11999107078E+03  0.21112487498E+03  0.14530125502E+03  0.28299120942E+03  0.00000000000E+00 0.  1.
         13    1    1    2    0    0  0.11101391560E+03  0.37596453035E+03 -0.49273553031E+03  0.62965207181E+03  0.10566000000E+00 0. -1.
<mgrwt>
<rscale>  1 0.86360541E+03</rscale>
<asrwt>0</asrwt>
<pdfrwt beam="1">  1       21 0.60388667E-01 0.11237094E+04</pdfrwt>
<pdfrwt beam="2">  1        4 0.23620189E+00 0.11237094E+04</pdfrwt>
<totfact> 0.75456526E+00</totfact>
</mgrwt>
</event>
<event>
 6    1  0.1412458E-005  0.1047296E+04  0.7818608E-02  0.9706821E-01
         21   -1    0    0  501  502  0.00000000000E+00  0.00000000000E+00  0.58670168082E+03  0.58670168082E+03  0.00000000000E+00 0.  1.
          4   -1    0    0  502    0 -0.00000000000E+00 -0.00000000000E+00 -0.76019251516E+03  0.76019251516E+03  0.00000000000E+00 0.  1.
    9000010    2    1    2  501    0 -0.16444206617E+03  0.14070824628E+03  0.32928885740E+02  0.10478137458E+04  0.10246898704E+04 0.  0.
        -13    1    3    3    0    0 -0.42301075432E+03  0.32802229127E+03  0.31557991103E+03  0.62139151366E+03  0.10566000000E+00 0.  1.
          4    1    3    3  501    0  0.25856868814E+03 -0.18731404498E+03 -0.28265102529E+03  0.42642223210E+03  0.00000000000E+00 0.  1.
         13    1    1    2    0    0  0.16444206617E+03 -0.14070824628E+03 -0.20641972009E+03  0.29908045022E+03  0.10566000000E+00 0. -1.
<mgrwt>
<rscale>  1 0.70612124E+03</rscale>
<asrwt>0</asrwt>
<pdfrwt beam="1">  1       21 0.90261797E-01 0.10472962E+04</pdfrwt>
<pdfrwt beam="2">  1        4 0.11695269E+00 0.10472962E+04</pdfrwt>
<totfact> 0.22147203E+01</totfact>
</mgrwt>
</event>
<event>
 6    1  0.1412458E-005  0.1091887E+04  0.7818608E-02  0.9722626E-01
         21   -1    0    0  501  502  0.00000000000E+00  0.00000000000E+00  0.15233180050E+04  0.15233180050E+04  0.00000000000E+00 0.  1.
          4   -1    0    0  502    0 -0.00000000000E+00 -0.00000000000E+00 -0.28444563519E+03  0.28444563519E+03  0.00000000000E+00 0.  1.
    9000010    2    1    2  501    0 -0.17788018948E+03  0.34259023925E+02  0.12001501496E+04  0.16225220033E+04  0.10767554165E+04 0.  0.
        -13    1    3    3    0    0 -0.11588660496E+03  0.53840145086E+03  0.82130080191E+03  0.98885835481E+03  0.10566000000E+00 0.  1.
          4    1    3    3  501    0 -0.61993584521E+02 -0.50414242694E+03  0.37884934767E+03  0.63366364846E+03  0.00000000000E+00 0.  1.
         13    1    1    2    0    0  0.17788018948E+03 -0.34259023925E+02  0.38722220194E+02  0.18524163687E+03  0.10566000000E+00 0. -1.
<mgrwt>
<rscale>  1 0.69685500E+03</rscale>
<asrwt>0</asrwt>
<pdfrwt beam="1">  1       21 0.23435661E+00 0.10918870E+04</pdfrwt>
<pdfrwt beam="2">  1        4 0.43760868E-01 0.10918870E+04</pdfrwt>
<totfact> 0.13745252E+01</totfact>
</mgrwt>
</event>
<event>
 6    1  0.1412458E-005  0.1003516E+04  0.7818608E-02  0.9853015E-01
          4   -1    0    0  502    0 -0.00000000000E+00  0.00000000000E+00  0.26776514566E+03  0.26776514566E+03  0.00000000000E+00 0.  1.
         21   -1    0    0  501  502  0.00000000000E+00 -0.00000000000E+00 -0.13710747791E+04  0.13710747791E+04  0.00000000000E+00 0.  1.
    9000010    2    1    2  501    0 -0.14348315553E+03 -0.49844451685E+02 -0.10970789600E+04  0.14868178285E+04  0.99195419517E+03 0.  0.
        -13    1    3    3    0    0 -0.23309136597E+03 -0.33506728347E+03 -0.66250537833E+02  0.41351035570E+03  0.10566000000E+00 0.  1.
          4    1    3    3  501    0  0.89608210435E+02  0.28522283178E+03 -0.10308284222E+04  0.10733074728E+04  0.00000000000E+00 0.  1.
         13    1    1    2    0    0  0.14348315553E+03  0.49844451685E+02 -0.62306733571E+01  0.15202209622E+03  0.10566000000E+00 0. -1.
<mgrwt>
<rscale>  1 0.62593429E+03</rscale>
<asrwt>0</asrwt>
<pdfrwt beam="2">  1       21 0.21093458E+00 0.10035163E+04</pdfrwt>
<pdfrwt beam="1">  1        4 0.41194638E-01 0.10035163E+04</pdfrwt>
<totfact> 0.22467088E+01</totfact>
</mgrwt>
</event>
<event>
 6    1  0.1412458E-005  0.9353270E+03  0.7818608E-02  0.9733742E-01
         21   -1    0    0  501  502  0.00000000000E+00  0.00000000000E+00  0.43893753129E+03  0.43893753129E+03  0.00000000000E+00 0.  1.
          4   -1    0    0  502    0 -0.00000000000E+00 -0.00000000000E+00 -0.97580525580E+03  0.97580525580E+03  0.00000000000E+00 0.  1.
    9000010    2    1    2  501    0  0.22222689076E+03 -0.16654047609E+03 -0.16364021669E+03  0.94953390400E+03  0.89314947975E+03 0.  0.
        -13    1    3    3    0    0 -0.28634815281E+02  0.10432298236E+02  0.34989971271E+03  0.35122443767E+03  0.10566000000E+00 0.  1.
          4    1    3    3  501    0  0.25086170604E+03 -0.17697277433E+03 -0.51353992941E+03  0.59830946634E+03  0.00000000000E+00 0.  1.
         13    1    1    2    0    0 -0.22222689076E+03  0.16654047609E+03 -0.37322750782E+03  0.46520888310E+03  0.10566000000E+00 0. -1.
<mgrwt>
<rscale>  1 0.69042871E+03</rscale>
<asrwt>0</asrwt>
<pdfrwt beam="1">  1       21 0.67528852E-01 0.93532696E+03</pdfrwt>
<pdfrwt beam="2">  1        4 0.15012388E+00 0.93532696E+03</pdfrwt>
<totfact> 0.23154038E+01</totfact>
</mgrwt>
</event>
<event>
 6    1  0.1412458E-005  0.1010795E+04  0.7818608E-02  0.9810623E-01
          4   -1    0    0  502    0 -0.00000000000E+00  0.00000000000E+00  0.53772022909E+03  0.53772022909E+03  0.00000000000E+00 0.  1.
         21   -1    0    0  501  502  0.00000000000E+00 -0.00000000000E+00 -0.86874788069E+03  0.86874788069E+03  0.00000000000E+00 0.  1.
    9000010    2    1    2  501    0  0.16088348315E+03 -0.57004610489E+02 -0.53244645280E+03  0.11424556756E+04  0.99627944112E+03 0.  0.
        -13    1    3    3    0    0  0.45668286302E+03  0.24164970387E+03 -0.50299039234E+03  0.72107777854E+03  0.10566000000E+00 0.  1.
          4    1    3    3  501    0 -0.29579937987E+03 -0.29865431436E+03 -0.29456060466E+02  0.42137789704E+03  0.00000000000E+00 0.  1.
         13    1    1    2    0    0 -0.16088348315E+03  0.57004610489E+02  0.20141880121E+03  0.26401243420E+03  0.10566000000E+00 0. -1.
<mgrwt>
<rscale>  1 0.64795583E+03</rscale>
<asrwt>0</asrwt>
<pdfrwt beam="2">  1       21 0.13365352E+00 0.10107946E+04</pdfrwt>
<pdfrwt beam="1">  1        4 0.82726189E-01 0.10107946E+04</pdfrwt>
<totfact> 0.18836689E+01</totfact>
</mgrwt>
</event>
<event>
 6    1  0.1412458E-005  0.1023892E+04  0.7818608E-02  0.9701619E-01
          4   -1    0    0  502    0 -0.00000000000E+00  0.00000000000E+00  0.49498155571E+03  0.49498155571E+03  0.00000000000E+00 0.  1.
         21   -1    0    0  501  502  0.00000000000E+00 -0.00000000000E+00 -0.86070500981E+03  0.86070500981E+03  0.00000000000E+00 0.  1.
    9000010    2    1    2  501    0  0.18057447584E+03 -0.15145412101E+03 -0.43134406739E+03  0.11110407641E+04  0.99639770320E+03 0.  0.
        -13    1    3    3    0    0 -0.26702859659E+03  0.57083571638E+02 -0.54028509092E+03  0.60536831448E+03  0.10566000000E+00 0.  1.
          4    1    3    3  501    0  0.44760307243E+03 -0.20853769265E+03  0.10894102353E+03  0.50567244963E+03  0.00000000000E+00 0.  1.
         13    1    1    2    0    0 -0.18057447584E+03  0.15145412101E+03  0.65620613290E+02  0.24464580141E+03  0.10566000000E+00 0. -1.
<mgrwt>
<rscale>  1 0.70920466E+03</rscale>
<asrwt>0</asrwt>
<pdfrwt beam="2">  1       21 0.13241615E+00 0.10238915E+04</pdfrwt>
<pdfrwt beam="1">  1        4 0.76151009E-01 0.10238915E+04</pdfrwt>
<totfact> 0.23320582E+01</totfact>
</mgrwt>
</event>
<event>
 6    1  0.1412458E-005  0.9969806E+03  0.7818608E-02  0.9780918E-01
          4   -1    0    0  502    0 -0.00000000000E+00  0.00000000000E+00  0.70685239040E+03  0.70685239040E+03  0.00000000000E+00 0.  1.
         21   -1    0    0  501  502  0.00000000000E+00 -0.00000000000E+00 -0.11017712003E+04  0.11017712003E+04  0.00000000000E+00 0.  1.
    9000010    2    1    2  501    0  0.75119301335E+02 -0.18116535098E+03 -0.85187483231E+03  0.13113584587E+04  0.97750011944E+03 0.  0.
        -13    1    3    3    0    0 -0.20907869041E+03  0.33869363627E+03 -0.27020262355E+03  0.48107873261E+03  0.10566000000E+00 0.  1.
          4    1    3    3  501    0  0.28419799175E+03 -0.51985898726E+03 -0.58167220876E+03  0.83027972611E+03  0.00000000000E+00 0.  1.
         13    1    1    2    0    0 -0.75119301335E+02  0.18116535098E+03  0.45695602245E+03  0.49726513194E+03  0.10566000000E+00 0. -1.
<mgrwt>
<rscale>  1 0.66396709E+03</rscale>
<asrwt>0</asrwt>
<pdfrwt beam="2">  1       21 0.16950326E+00 0.99698058E+03</pdfrwt>
<pdfrwt beam="1">  1        4 0.10874652E+00 0.99698058E+03</pdfrwt>
<totfact> 0.50596245E+00</totfact>
</mgrwt>
</event>
<event>
 6    1  0.1412458E-005  0.1018337E+04  0.7818608E-02  0.9753725E-01
          4   -1    0    0  502    0 -0.00000000000E+00  0.00000000000E+00  0.18478016164E+03  0.18478016164E+03  0.00000000000E+00 0.  1.
         21   -1    0    0  501  502  0.00000000000E+00 -0.00000000000E+00 -0.20332366068E+04  0.20332366068E+04  0.00000000000E+00 0.  1.
    9000010    2    1    2  501    0 -0.20112103029E+03  0.97065625748E+01 -0.16200980368E+04  0.19135640463E+04  0.99823134806E+03 0.  0.
        -13    1    3    3    0    0 -0.39574862677E+03  0.38475993723E+03 -0.11839987856E+04  0.13063346893E+04  0.10566000000E+00 0.  1.
          4    1    3    3  501    0  0.19462759647E+03 -0.37505337466E+03 -0.43609925121E+03  0.60722935705E+03  0.00000000000E+00 0.  1.
         13    1    1    2    0    0  0.20112103029E+03 -0.97065625748E+01 -0.22835840833E+03  0.30445272211E+03  0.10566000000E+00 0. -1.
<mgrwt>
<rscale>  1 0.67906171E+03</rscale>
<asrwt>0</asrwt>
<pdfrwt beam="2">  1       21 0.31280563E+00 0.10183367E+04</pdfrwt>
<pdfrwt beam="1">  1        4 0.28427718E-01 0.10183367E+04</pdfrwt>
<totfact> 0.10579891E+01</totfact>
</mgrwt>
</event>
<event>
 6    1  0.1412458E-005  0.1017616E+04  0.7818608E-02  0.9773555E-01
          4   -1    0    0  502    0 -0.00000000000E+00  0.00000000000E+00  0.82942176394E+03  0.82942176394E+03  0.00000000000E+00 0.  1.
         21   -1    0    0  501  502  0.00000000000E+00 -0.00000000000E+00 -0.44037457797E+03  0.44037457797E+03  0.00000000000E+00 0.  1.
    9000010    2    1    2  501    0 -0.24383067609E+02  0.18738731916E+03  0.30011548224E+03  0.10609485493E+04  0.99991698671E+03 0.  0.
        -13    1    3    3    0    0  0.46600580785E+03  0.18214180101E+03  0.30407471559E+02  0.50126008630E+03  0.10566000000E+00 0.  1.
          4    1    3    3  501    0 -0.49038887546E+03  0.52455181492E+01  0.26970801068E+03  0.55968846304E+03  0.00000000000E+00 0.  1.
         13    1    1    2    0    0  0.24383067609E+02 -0.18738731916E+03  0.88931703733E+02  0.20884779257E+03  0.10566000000E+00 0. -1.
<mgrwt>
<rscale>  1 0.66801237E+03</rscale>
<asrwt>0</asrwt>
<pdfrwt beam="2">  1       21 0.67749935E-01 0.10176161E+04</pdfrwt>
<pdfrwt beam="1">  1        4 0.12760335E+00 0.10176161E+04</pdfrwt>
<totfact> 0.34898925E+01</totfact>
</mgrwt>
</event>
<event>
 6    1  0.1412458E-005  0.9773747E+03  0.7818608E-02  0.9849554E-01
         21   -1    0    0  501  502  0.00000000000E+00  0.00000000000E+00  0.84375507969E+02  0.84375507969E+02  0.00000000000E+00 0.  1.
          4   -1    0    0  502    0 -0.00000000000E+00 -0.00000000000E+00 -0.40661837924E+04  0.40661837924E+04  0.00000000000E+00 0.  1.
    9000010    2    1    2  501    0  0.14516585376E+03 -0.81073378284E+02 -0.30122022618E+04  0.31668002506E+04  0.96312789560E+03 0.  0.
        -13    1    3    3    0    0 -0.20840741380E+03  0.34538184492E+03 -0.96378368217E+03  0.10447972368E+04  0.10566000000E+00 0.  1.
          4    1    3    3  501    0  0.35357326755E+03 -0.42645522321E+03 -0.20484185796E+04  0.21220030137E+04  0.00000000000E+00 0.  1.
         13    1    1    2    0    0 -0.14516585376E+03  0.81073378284E+02 -0.96960602264E+03  0.98375904980E+03  0.10566000000E+00 0. -1.
<mgrwt>
<rscale>  1 0.62769681E+03</rscale>
<asrwt>0</asrwt>
<pdfrwt beam="1">  1       21 0.12980848E-01 0.97737473E+03</pdfrwt>
<pdfrwt beam="2">  1        4 0.62556672E+00 0.97737473E+03</pdfrwt>
<totfact> 0.22771843E-01</totfact>
</mgrwt>
</event>
<event>
 6    1  0.1412458E-005  0.1081437E+04  0.7818608E-02  0.9494589E-01
         21   -1    0    0  501  502  0.00000000000E+00  0.00000000000E+00  0.33574699165E+03  0.33574699165E+03  0.00000000000E+00 0.  1.
          4   -1    0    0  502    0 -0.00000000000E+00 -0.00000000000E+00 -0.16788060613E+04  0.16788060613E+04  0.00000000000E+00 0.  1.
    9000010    2    1    2  501    0 -0.20647375143E+03  0.35031018219E+03 -0.85035392157E+03  0.13757205179E+04  0.10020761037E+04 0.  0.
        -13    1    3    3    0    0 -0.81786887848E+02  0.69465906333E+03 -0.66556274705E+03  0.96551234623E+03  0.10566000000E+00 0.  1.
          4    1    3    3  501    0 -0.12468686358E+03 -0.34434888114E+03 -0.18479117453E+03  0.41020817163E+03  0.00000000000E+00 0.  1.
         13    1    1    2    0    0  0.20647375143E+03 -0.35031018219E+03 -0.49270514803E+03  0.63883253505E+03  0.10566000000E+00 0. -1.
<mgrwt>
<rscale>  1 0.84683906E+03</rscale>
<asrwt>0</asrwt>
<pdfrwt beam="1">  1       21 0.51653383E-01 0.10814366E+04</pdfrwt>
<pdfrwt beam="2">  1        4 0.25827786E+00 0.10814366E+04</pdfrwt>
<totfact> 0.78003674E+00</totfact>
</mgrwt>
</event>
<event>
 6    1  0.1412458E-005  0.1112205E+04  0.7818608E-02  0.9437569E-01
         21   -1    0    0  501  502  0.00000000000E+00  0.00000000000E+00  0.15942545968E+04  0.15942545968E+04  0.00000000000E+00 0.  1.
          4   -1    0    0  502    0 -0.00000000000E+00 -0.00000000000E+00 -0.52590148826E+03  0.52590148826E+03  0.00000000000E+00 0.  1.
    9000010    2    1    2  501    0 -0.41770975176E+03 -0.18542080273E+03  0.12082449925E+04  0.16422104175E+04  0.10139707998E+04 0.  0.
        -13    1    3    3    0    0 -0.10337229413E+03 -0.59037373319E+03  0.66727056286E+03  0.89692641351E+03  0.10566000000E+00 0.  1.
          4    1    3    3  501    0 -0.31433745763E+03  0.40495293046E+03  0.54097442960E+03  0.74528400401E+03  0.00000000000E+00 0.  1.
         13    1    1    2    0    0  0.41770975176E+03  0.18542080273E+03 -0.13989188388E+03  0.47794566756E+03  0.10566000000E+00 0. -1.
<mgrwt>
<rscale>  1 0.89047356E+03</rscale>
<asrwt>0</asrwt>
<pdfrwt beam="1">  1       21 0.24526994E+00 0.11122046E+04</pdfrwt>
<pdfrwt beam="2">  1        4 0.80907922E-01 0.11122046E+04</pdfrwt>
<totfact> 0.30508682E+00</totfact>
</mgrwt>
</event>
<event>
 6    1  0.1412458E-005  0.1081905E+04  0.7818608E-02  0.9499492E-01
         21   -1    0    0  501  502  0.00000000000E+00  0.00000000000E+00  0.79654515453E+03  0.79654515453E+03  0.00000000000E+00 0.  1.
          4   -1    0    0  502    0 -0.00000000000E+00 -0.00000000000E+00 -0.69052651941E+03  0.69052651941E+03  0.00000000000E+00 0.  1.
    9000010    2    1    2  501    0 -0.20950403937E+03  0.33979842829E+03  0.11323063289E+03  0.10878136891E+04  0.10055657769E+04 0.  0.
        -13    1    3    3    0    0 -0.34951634851E+03  0.57852161954E+03  0.31461882291E+03  0.74554272651E+03  0.10566000000E+00 0.  1.
          4    1    3    3  501    0  0.14001230914E+03 -0.23872319125E+03 -0.20138819002E+03  0.34227096259E+03  0.00000000000E+00 0.  1.
         13    1    1    2    0    0  0.20950403937E+03 -0.33979842829E+03 -0.72119977695E+01  0.39925798484E+03  0.10566000000E+00 0. -1.
<mgrwt>
<rscale>  1 0.84321320E+03</rscale>
<asrwt>0</asrwt>
<pdfrwt beam="1">  1       21 0.12254541E+00 0.10819045E+04</pdfrwt>
<pdfrwt beam="2">  1        4 0.10623485E+00 0.10819045E+04</pdfrwt>
<totfact> 0.12979218E+01</totfact>
</mgrwt>
</event>
<event>
 6    1  0.1412458E-005  0.1055285E+04  0.7818608E-02  0.9799298E-01
          4   -1    0    0  502    0 -0.00000000000E+00  0.00000000000E+00  0.12424989871E+04  0.12424989871E+04  0.00000000000E+00 0.  1.
         21   -1    0    0  501  502  0.00000000000E+00 -0.00000000000E+00 -0.39045414356E+03  0.39045414356E+03  0.00000000000E+00 0.  1.
    9000010    2    1    2  501    0 -0.11322629057E+03  0.10683260100E+03  0.35704249318E+03  0.11140497335E+04  0.10437404224E+04 0.  0.
        -13    1    3    3    0    0  0.42157941481E+03 -0.13706035720E+03  0.27210888312E+03  0.52015190084E+03  0.10566000000E+00 0.  1.
          4    1    3    3  501    0 -0.53480570538E+03  0.24389295820E+03  0.84933610055E+02  0.59389783270E+03  0.00000000000E+00 0.  1.
         13    1    1    2    0    0  0.11322629057E+03 -0.10683260100E+03  0.49500235037E+03  0.51890339713E+03  0.10566000000E+00 0. -1.
<mgrwt>
<rscale>  1 0.65400232E+03</rscale>
<asrwt>0</asrwt>
<pdfrwt beam="2">  1       21 0.60069869E-01 0.10552855E+04</pdfrwt>
<pdfrwt beam="1">  1        4 0.19115369E+00 0.10552855E+04</pdfrwt>
<totfact> 0.15064246E+01</totfact>
</mgrwt>
</event>
<event>
 6    1  0.1412458E-005  0.1046527E+04  0.7818608E-02  0.9544157E-01
          4   -1    0    0  502    0 -0.00000000000E+00  0.00000000000E+00  0.63992420675E+03  0.63992420675E+03  0.00000000000E+00 0.  1.
         21   -1    0    0  501  502  0.00000000000E+00 -0.00000000000E+00 -0.79314783518E+03  0.79314783518E+03  0.00000000000E+00 0.  1.
    9000010    2    1    2  501    0  0.32913798729E+03  0.18490833232E+03 -0.13386395027E+03  0.10550539017E+04  0.97606161294E+03 0.  0.
        -13    1    3    3    0    0  0.56024481907E+02  0.97465156522E+02 -0.54350555738E+03  0.55501036150E+03  0.10566000000E+00 0.  1.
          4    1    3    3  501    0  0.27311350539E+03  0.87443175793E+02  0.40964160711E+03  0.50004354019E+03  0.00000000000E+00 0.  1.
         13    1    1    2    0    0 -0.32913798729E+03 -0.18490833232E+03 -0.19359678155E+02  0.37801814023E+03  0.10566000000E+00 0. -1.
<mgrwt>
<rscale>  1 0.81105159E+03</rscale>
<asrwt>0</asrwt>
<pdfrwt beam="2">  1       21 0.12202274E+00 0.10465272E+04</pdfrwt>
<pdfrwt beam="1">  1        4 0.98449878E-01 0.10465272E+04</pdfrwt>
<totfact> 0.15848180E+01</totfact>
</mgrwt>
</event>
<event>
 6    1  0.1412458E-005  0.9791142E+03  0.7818608E-02  0.9774503E-01
         21   -1    0    0  501  502  0.00000000000E+00  0.00000000000E+00  0.87837347845E+03  0.87837347845E+03  0.00000000000E+00 0.  1.
          4   -1    0    0  502    0 -0.00000000000E+00 -0.00000000000E+00 -0.45020056581E+03  0.45020056581E+03  0.00000000000E+00 0.  1.
    9000010    2    1    2  501    0 -0.12601118929E+03  0.16984366658E+03  0.50734865965E+03  0.11027544238E+04  0.95600155119E+03 0.  0.
        -13    1    3    3    0    0  0.31871589581E+02 -0.30725690324E+02  0.74956331949E+03  0.75086952752E+03  0.10566000000E+00 0.  1.
          4    1    3    3  501    0 -0.15788277887E+03  0.20056935691E+03 -0.24221465984E+03  0.35188489629E+03  0.00000000000E+00 0.  1.
         13    1    1    2    0    0  0.12601118929E+03 -0.16984366658E+03 -0.79175747002E+02  0.22581962045E+03  0.10566000000E+00 0. -1.
<mgrwt>
<rscale>  1 0.66748985E+03</rscale>
<asrwt>0</asrwt>
<pdfrwt beam="1">  1       21 0.13513438E+00 0.97911422E+03</pdfrwt>
<pdfrwt beam="2">  1        4 0.69261626E-01 0.97911422E+03</pdfrwt>
<totfact> 0.27479010E+01</totfact>
</mgrwt>
</event>
<event>
 6    1  0.1412458E-005  0.1102389E+04  0.7818608E-02  0.9440300E-01
          4   -1    0    0  502    0 -0.00000000000E+00  0.00000000000E+00  0.90087999743E+03  0.90087999743E+03  0.00000000000E+00 0.  1.
         21   -1    0    0  501  502  0.00000000000E+00 -0.00000000000E+00 -0.69617424024E+03  0.69617424024E+03  0.00000000000E+00 0.  1.
    9000010    2    1    2  501    0 -0.48613187134E+02 -0.46226080439E+03  0.37309644621E+02  0.11030200659E+04  0.99960640398E+03 0.  0.
        -13    1    3    3    0    0  0.37202384066E+03  0.96445017773E+02  0.11039619038E+03  0.39986336353E+03  0.10566000000E+00 0.  1.
          4    1    3    3  501    0 -0.42063702780E+03 -0.55870582217E+03 -0.73086545760E+02  0.70315670234E+03  0.00000000000E+00 0.  1.
         13    1    1    2    0    0  0.48613187134E+02  0.46226080439E+03  0.16739611256E+03  0.49403417180E+03  0.10566000000E+00 0. -1.
<mgrwt>
<rscale>  1 0.88832110E+03</rscale>
<asrwt>0</asrwt>
<pdfrwt beam="2">  1       21 0.10710373E+00 0.11023889E+04</pdfrwt>
<pdfrwt beam="1">  1        4 0.13859692E+00 0.11023889E+04</pdfrwt>
<totfact> 0.93423303E+00</totfact>
</mgrwt>
</event>
<event>
 6    1  0.1412458E-005  0.1042147E+04  0.7818608E-02  0.9575257E-01
         21   -1    0    0  501  502  0.00000000000E+00  0.00000000000E+00  0.72153526073E+03  0.72153526073E+03  0.00000000000E+00 0.  1.
          4   -1    0    0  502    0 -0.00000000000E+00 -0.00000000000E+00 -0.69675312601E+03  0.69675312601E+03  0.00000000000E+00 0.  1.
    9000010    2    1    2  501    0 -0.21022833306E+03  0.27147454532E+03  0.14984249687E+03  0.10528646791E+04  0.98395979481E+03 0.  0.
        -13    1    3    3    0    0 -0.52275327030E+03  0.44216064510E+03  0.72840521827E+02  0.68853668782E+03  0.10566000000E+00 0.  1.
          4    1    3    3  501    0  0.31252493724E+03 -0.17068609978E+03  0.77001975046E+02  0.36432799126E+03  0.00000000000E+00 0.  1.
         13    1    1    2    0    0  0.21022833306E+03 -0.27147454532E+03 -0.12506036215E+03  0.36542370766E+03  0.10566000000E+00 0. -1.
<mgrwt>
<rscale>  1 0.78955705E+03</rscale>
<asrwt>0</asrwt>
<pdfrwt beam="1">  1       21 0.11100542E+00 0.10421474E+04</pdfrwt>
<pdfrwt beam="2">  1        4 0.10719279E+00 0.10421474E+04</pdfrwt>
<totfact> 0.16446106E+01</totfact>
</mgrwt>
</event>
<event>
 6    1  0.1412458E-005  0.1083275E+04  0.7818608E-02  0.9489157E-01
          4   -1    0    0  502    0 -0.00000000000E+00  0.00000000000E+00  0.98946542949E+03  0.98946542949E+03  0.00000000000E+00 0.  1.
         21   -1    0    0  501  502  0.00000000000E+00 -0.00000000000E+00 -0.59000270880E+03  0.59000270880E+03  0.00000000000E+00 0. -1.
    9000010    2    1    2  501    0 -0.37946424986E+03  0.16134588569E+03  0.13999536402E+03  0.10922834381E+04  0.10017279049E+04 0.  0.
        -13    1    3    3    0    0  0.13988917507E+03  0.27647344756E+03  0.39527269818E+03  0.50224203886E+03  0.10566000000E+00 0.  1.
          4    1    3    3  501    0 -0.51935342493E+03 -0.11512756187E+03 -0.25527733416E+03  0.59004139925E+03  0.00000000000E+00 0.  1.
         13    1    1    2    0    0  0.37946424986E+03 -0.16134588569E+03  0.25946735668E+03  0.48718470019E+03  0.10566000000E+00 0. -1.
<mgrwt>
<rscale>  1 0.85087996E+03</rscale>
<asrwt>0</asrwt>
<pdfrwt beam="2">  1       21 0.90769648E-01 0.10832749E+04</pdfrwt>
<pdfrwt beam="1">  1        4 0.15222545E+00 0.10832749E+04</pdfrwt>
<totfact> 0.10981103E+01</totfact>
</mgrwt>
</event>
<event>
 6    1  0.1412458E-005  0.1070997E+04  0.7818608E-02  0.9634248E-01
         21   -1    0    0  501  502  0.00000000000E+00  0.00000000000E+00  0.80417442191E+03  0.80417442191E+03  0.00000000000E+00 0.  1.
          4   -1    0    0  502    0 -0.00000000000E+00 -0.00000000000E+00 -0.78808651371E+03  0.78808651371E+03  0.00000000000E+00 0.  1.
    9000010    2    1    2  501    0 -0.21981420007E+03 -0.13608306881E+03  0.38817802298E+03  0.11391738040E+04  0.10393256920E+04 0.  0.
        -13    1    3    3    0    0  0.76643061547E+02 -0.47526232771E+03  0.47957900911E+03  0.67951782623E+03  0.10566000000E+00 0.  1.
          4    1    3    3  501    0 -0.29645726162E+03  0.33917925889E+03 -0.91400986127E+02  0.45965597777E+03  0.00000000000E+00 0.  1.
         13    1    1    2    0    0  0.21981420007E+03  0.13608306881E+03 -0.37209011478E+03  0.45308713163E+03  0.10566000000E+00 0. -1.
<mgrwt>
<rscale>  1 0.75070318E+03</rscale>
<asrwt>0</asrwt>
<pdfrwt beam="1">  1       21 0.12371914E+00 0.10709971E+04</pdfrwt>
<pdfrwt beam="2">  1        4 0.12124408E+00 0.10709971E+04</pdfrwt>
<totfact> 0.91288477E+00</totfact>
</mgrwt>
</event>
<event>
 6    1  0.1412458E-005  0.1050273E+04  0.7818608E-02  0.9589747E-01
          4   -1    0    0  502    0 -0.00000000000E+00  0.00000000000E+00  0.14350913317E+04  0.14350913317E+04  0.00000000000E+00 0.  1.
         21   -1    0    0  501  502  0.00000000000E+00 -0.00000000000E+00 -0.39749251948E+03  0.39749251948E+03  0.00000000000E+00 0.  1.
    9000010    2    1    2  501    0  0.21885674357E+02  0.31839780536E+03  0.40804157326E+03  0.11267520911E+04  0.10006079173E+04 0.  0.
        -13    1    3    3    0    0  0.45308071938E+03  0.29908745395E+03  0.43297070882E+03  0.69440556539E+03  0.10566000000E+00 0.  1.
          4    1    3    3  501    0 -0.43119504502E+03  0.19310351406E+02 -0.24929135558E+02  0.43234652575E+03  0.00000000000E+00 0.  1.
         13    1    1    2    0    0 -0.21885674357E+02 -0.31839780536E+03  0.62955723896E+03  0.70583176005E+03  0.10566000000E+00 0. -1.
<mgrwt>
<rscale>  1 0.77978506E+03</rscale>
<asrwt>0</asrwt>
<pdfrwt beam="2">  1       21 0.61152696E-01 0.10502725E+04</pdfrwt>
<pdfrwt beam="1">  1        4 0.22078328E+00 0.10502725E+04</pdfrwt>
<totfact> 0.92588911E+00</totfact>
</mgrwt>
</event>
<event>
 6    1  0.1412458E-005  0.1074982E+04  0.7818608E-02  0.9537400E-01
         21   -1    0    0  501  502  0.00000000000E+00  0.00000000000E+00  0.33909213144E+03  0.33909213144E+03  0.00000000000E+00 0. -1.
          4   -1    0    0  502    0 -0.00000000000E+00 -0.00000000000E+00 -0.15224455508E+04  0.15224455508E+04  0.00000000000E+00 0.  1.
    9000010    2    1    2  501    0 -0.30286686769E+03 -0.18822270807E+03 -0.95641268359E+03  0.14388578553E+04  0.10141156635E+04 0.  0.
        -13    1    3    3    0    0  0.39190630326E+02 -0.41340255167E+03 -0.94156148062E+03  0.10290654052E+04  0.10566000000E+00 0.  1.
          4    1    3    3  501    0 -0.34205749801E+03  0.22517984360E+03 -0.14851202965E+02  0.40979245008E+03  0.00000000000E+00 0.  1.
         13    1    1    2    0    0  0.30286686769E+03  0.18822270807E+03 -0.22694073573E+03  0.42267982691E+03  0.10566000000E+00 0. -1.
<mgrwt>
<rscale>  1 0.81581779E+03</rscale>
<asrwt>0</asrwt>
<pdfrwt beam="1">  1       21 0.52168020E-01 0.10749822E+04</pdfrwt>
<pdfrwt beam="2">  1        4 0.23422239E+00 0.10749822E+04</pdfrwt>
<totfact> 0.10782899E+01</totfact>
</mgrwt>
</event>
<event>
 6    1  0.1412458E-005  0.1358858E+04  0.7818608E-02  0.9090363E-01
          4   -1    0    0  502    0 -0.00000000000E+00  0.00000000000E+00  0.13911588480E+04  0.13911588480E+04  0.00000000000E+00 0.  1.
         21   -1    0    0  501  502  0.00000000000E+00 -0.00000000000E+00 -0.10920224531E+04  0.10920224531E+04  0.00000000000E+00 0.  1.
    9000010    2    1    2  501    0 -0.57337942583E+03 -0.69440156977E+03 -0.31281817834E+03  0.13943994511E+04  0.10176134387E+04 0.  0.
        -13    1    3    3    0    0  0.13250261896E+03 -0.21341326203E+03 -0.46334643478E+03  0.52705985830E+03  0.10566000000E+00 0.  1.
          4    1    3    3  501    0 -0.70588204479E+03 -0.48098830774E+03  0.15052825644E+03  0.86733959285E+03  0.00000000000E+00 0.  1.
         13    1    1    2    0    0  0.57337942583E+03  0.69440156977E+03  0.61195457317E+03  0.10887818500E+04  0.10566000000E+00 0. -1.
<mgrwt>
<rscale>  1 0.12260418E+04</rscale>
<asrwt>0</asrwt>
<pdfrwt beam="2">  1       21 0.16800345E+00 0.13588578E+04</pdfrwt>
<pdfrwt beam="1">  1        4 0.21402444E+00 0.13588578E+04</pdfrwt>
<totfact> 0.76936572E-01</totfact>
</mgrwt>
</event>
<event>
 6    1  0.1412458E-005  0.1024610E+04  0.7818608E-02  0.1023424E+00
          4   -1    0    0  502    0 -0.00000000000E+00  0.00000000000E+00  0.43590976869E+03  0.43590976869E+03  0.00000000000E+00 0.  1.
         21   -1    0    0  501  502  0.00000000000E+00 -0.00000000000E+00 -0.80283788670E+03  0.80283788670E+03  0.00000000000E+00 0.  1.
    9000010    2    1    2  501    0 -0.39396045867E+02  0.18102837536E+02 -0.46974858794E+03  0.11271599260E+04  0.10236923374E+04 0.  0.
        -13    1    3    3    0    0  0.15933088394E+03 -0.92689533163E+02  0.28469243669E+03  0.33915700613E+03  0.10566000000E+00 0.  1.
          4    1    3    3  501    0 -0.19872692981E+03  0.11079237070E+03 -0.75444102463E+03  0.78800291984E+03  0.00000000000E+00 0.  1.
         13    1    1    2    0    0  0.39396045867E+02 -0.18102837536E+02  0.10282046993E+03  0.11158772942E+03  0.10566000000E+00 0. -1.
<mgrwt>
<rscale>  1 0.46471010E+03</rscale>
<asrwt>0</asrwt>
<pdfrwt beam="2">  1       21 0.12351352E+00 0.10246101E+04</pdfrwt>
<pdfrwt beam="1">  1        4 0.67063043E-01 0.10246101E+04</pdfrwt>
<totfact> 0.37311156E+01</totfact>
</mgrwt>
</event>
<event>
 6    1  0.1412458E-005  0.1045778E+04  0.7818608E-02  0.9688095E-01
          4   -1    0    0  502    0 -0.00000000000E+00  0.00000000000E+00  0.17304231824E+04  0.17304231824E+04  0.00000000000E+00 0.  1.
         21   -1    0    0  501  502  0.00000000000E+00 -0.00000000000E+00 -0.25115573254E+03  0.25115573254E+03  0.00000000000E+00 0.  1.
    9000010    2    1    2  501    0  0.41085270136E+01  0.23142912611E+03  0.98875759737E+03  0.14391987467E+04  0.10198407354E+04 0.  0.
        -13    1    3    3    0    0 -0.11891145133E+03  0.61937409835E+03  0.68668179003E+03  0.93236049835E+03  0.10566000000E+00 0.  1.
          4    1    3    3  501    0  0.12301997834E+03 -0.38794497224E+03  0.30207580735E+03  0.50683824830E+03  0.00000000000E+00 0.  1.
         13    1    1    2    0    0 -0.41085270136E+01 -0.23142912611E+03  0.49050985245E+03  0.54238016826E+03  0.10566000000E+00 0. -1.
<mgrwt>
<rscale>  1 0.71730064E+03</rscale>
<asrwt>0</asrwt>
<pdfrwt beam="2">  1       21 0.38639345E-01 0.10457779E+04</pdfrwt>
<pdfrwt beam="1">  1        4 0.26621894E+00 0.10457779E+04</pdfrwt>
<totfact> 0.12984472E+01</totfact>
</mgrwt>
</event>
<event>
 6    1  0.1412458E-005  0.1145785E+04  0.7818608E-02  0.9350797E-01
         21   -1    0    0  501  502  0.00000000000E+00  0.00000000000E+00  0.15361444660E+04  0.15361444660E+04  0.00000000000E+00 0. -1.
          4   -1    0    0  502    0 -0.00000000000E+00 -0.00000000000E+00 -0.60668860217E+03  0.60668860217E+03  0.00000000000E+00 0.  1.
    9000010    2    1    2  501    0 -0.34437854093E+03 -0.45453612790E+03  0.10565671705E+04  0.15585754482E+04  0.99379251913E+03 0.  0.
        -13    1    3    3    0    0  0.56150474574E+02 -0.48550324499E+03  0.10484505150E+04  0.11567691084E+04  0.10566000000E+00 0.  1.
          4    1    3    3  501    0 -0.40052901550E+03  0.30967117097E+02  0.81166554946E+01  0.40180633979E+03  0.00000000000E+00 0.  1.
         13    1    1    2    0    0  0.34437854093E+03  0.45453612790E+03 -0.12711130664E+03  0.58425761994E+03  0.10566000000E+00 0. -1.
<mgrwt>
<rscale>  1 0.96237894E+03</rscale>
<asrwt>0</asrwt>
<pdfrwt beam="1">  1       21 0.23632992E+00 0.11457850E+04</pdfrwt>
<pdfrwt beam="2">  1        4 0.93336708E-01 0.11457850E+04</pdfrwt>
<totfact> 0.24808838E+00</totfact>
</mgrwt>
</event>
<event>
 6    1  0.1412458E-005  0.1080945E+04  0.7818608E-02  0.9500873E-01
         21   -1    0    0  501  502  0.00000000000E+00  0.00000000000E+00  0.69158281620E+03  0.69158281620E+03  0.00000000000E+00 0.  1.
          4   -1    0    0  502    0 -0.00000000000E+00 -0.00000000000E+00 -0.82211518586E+03  0.82211518586E+03  0.00000000000E+00 0.  1.
    9000010    2    1    2  501    0  0.39556470720E+03  0.46830431980E+02 -0.22547832270E+03  0.11042114063E+04  0.10048770218E+04 0.  0.
        -13    1    3    3    0    0  0.51873762755E+02  0.36979900285E+03 -0.44758511596E+03  0.58290191024E+03  0.10566000000E+00 0.  1.
          4    1    3    3  501    0  0.34369094445E+03 -0.32296857087E+03  0.22210679326E+03  0.52130949606E+03  0.00000000000E+00 0.  1.
         13    1    1    2    0    0 -0.39556470720E+03 -0.46830431980E+02  0.94945953034E+02  0.40948659576E+03  0.10566000000E+00 0. -1.
<mgrwt>
<rscale>  1 0.84219522E+03</rscale>
<asrwt>0</asrwt>
<pdfrwt beam="1">  1       21 0.10639736E+00 0.10809451E+04</pdfrwt>
<pdfrwt beam="2">  1        4 0.12647926E+00 0.10809451E+04</pdfrwt>
<totfact> 0.12061847E+01</totfact>
</mgrwt>
</event>
<event>
 6    1  0.1412458E-005  0.1029255E+04  0.7818608E-02  0.9607610E-01
         21   -1    0    0  501  502  0.00000000000E+00  0.00000000000E+00  0.15709549874E+04  0.15709549874E+04  0.00000000000E+00 0.  1.
          4   -1    0    0  502    0 -0.00000000000E+00 -0.00000000000E+00 -0.44513325304E+03  0.44513325304E+03  0.00000000000E+00 0.  1.
    9000010    2    1    2  501    0 -0.24409205625E+03  0.20533367190E+03  0.12956585337E+04  0.16547194560E+04  0.97858192980E+03 0.  0.
        -13    1    3    3    0    0  0.16713443389E+03 -0.27289722431E+03  0.76934720605E+03  0.83324783147E+03  0.10566000000E+00 0.  1.
          4    1    3    3  501    0 -0.41122649013E+03  0.47823089622E+03  0.52631132769E+03  0.82147162455E+03  0.00000000000E+00 0.  1.
         13    1    1    2    0    0  0.24409205625E+03 -0.20533367190E+03 -0.16983679941E+03  0.36136878440E+03  0.10566000000E+00 0. -1.
<mgrwt>
<rscale>  1 0.76794509E+03</rscale>
<asrwt>0</asrwt>
<pdfrwt beam="1">  1       21 0.24168538E+00 0.10292548E+04</pdfrwt>
<pdfrwt beam="2">  1        4 0.68482040E-01 0.10292548E+04</pdfrwt>
<totfact> 0.47547706E+00</totfact>
</mgrwt>
</event>
<event>
 6    1  0.1412458E-005  0.1069263E+04  0.7818608E-02  0.9542534E-01
         21   -1    0    0  501  502  0.00000000000E+00  0.00000000000E+00  0.48069203880E+03  0.48069203880E+03  0.00000000000E+00 0.  1.
          4   -1    0    0  502    0 -0.00000000000E+00 -0.00000000000E+00 -0.12265211056E+04  0.12265211056E+04  0.00000000000E+00 0.  1.
    9000010    2    1    2  501    0 -0.31385126505E+03  0.16791099099E+03 -0.25214372455E+03  0.10985901529E+04  0.10082793010E+04 0.  0.
        -13    1    3    3    0    0 -0.32408415643E+03 -0.33108801975E+03  0.11695092270E+03  0.47783610868E+03  0.10566000000E+00 0.  1.
          4    1    3    3  501    0  0.10232891384E+02  0.49899901074E+03 -0.36909464725E+03  0.62075404421E+03  0.00000000000E+00 0.  1.
         13    1    1    2    0    0  0.31385126505E+03 -0.16791099099E+03 -0.49368534227E+03  0.60862299152E+03  0.10566000000E+00 0. -1.
<mgrwt>
<rscale>  1 0.81219283E+03</rscale>
<asrwt>0</asrwt>
<pdfrwt beam="1">  1       21 0.73952621E-01 0.10692632E+04</pdfrwt>
<pdfrwt beam="2">  1        4 0.18869556E+00 0.10692632E+04</pdfrwt>
<totfact> 0.97416075E+00</totfact>
</mgrwt>
</event>
<event>
 6    1  0.1412458E-005  0.1176317E+04  0.7818608E-02  0.9316789E-01
          4   -1    0    0  502    0 -0.00000000000E+00  0.00000000000E+00  0.13430613155E+04  0.13430613155E+04  0.00000000000E+00 0.  1.
         21   -1    0    0  501  502  0.00000000000E+00 -0.00000000000E+00 -0.58739195614E+03  0.58739195614E+03  0.00000000000E+00 0. -1.
    9000010    2    1    2  501    0 -0.20813144548E+03 -0.55867362019E+03  0.56140409001E+03  0.13034174525E+04  0.10140451621E+04 0.  0.
        -13    1    3    3    0    0  0.10199767463E+03 -0.72156851585E+03  0.60923687593E+03  0.94986011120E+03  0.10566000000E+00 0.  1.
          4    1    3    3  501    0 -0.31012912011E+03  0.16289489566E+03 -0.47832785916E+02  0.35355734129E+03  0.00000000000E+00 0.  1.
         13    1    1    2    0    0  0.20813144548E+03  0.55867362019E+03  0.19426526939E+03  0.62703581919E+03  0.10566000000E+00 0. -1.
<mgrwt>
<rscale>  1 0.99251812E+03</rscale>
<asrwt>0</asrwt>
<pdfrwt beam="2">  1       21 0.90367994E-01 0.11763173E+04</pdfrwt>
<pdfrwt beam="1">  1        4 0.20662482E+00 0.11763173E+04</pdfrwt>
<totfact> 0.45435963E+00</totfact>
</mgrwt>
</event>
<event>
 6    1  0.1412458E-005  0.9896920E+03  0.7818608E-02  0.9852129E-01
          4   -1    0    0  502    0 -0.00000000000E+00  0.00000000000E+00  0.61177697031E+03  0.61177697031E+03  0.00000000000E+00 0.  1.
         21   -1    0    0  501  502  0.00000000000E+00 -0.00000000000E+00 -0.56106218243E+03  0.56106218243E+03  0.00000000000E+00 0.  1.
    9000010    2    1    2  501    0  0.66234467910E+02  0.14433304362E+03 -0.38970790285E+02  0.99045892818E+03  0.97686802266E+03 0.  0.
        -13    1    3    3    0    0  0.20381935529E+03  0.53656589404E+03 -0.17442755929E+02  0.57423823378E+03  0.10566000000E+00 0.  1.
          4    1    3    3  501    0 -0.13758488738E+03 -0.39223285042E+03 -0.21528034356E+02  0.41622069440E+03  0.00000000000E+00 0.  1.
         13    1    1    2    0    0 -0.66234467910E+02 -0.14433304362E+03  0.89685578157E+02  0.18238022457E+03  0.10566000000E+00 0. -1.
<mgrwt>
<rscale>  1 0.62638465E+03</rscale>
<asrwt>0</asrwt>
<pdfrwt beam="2">  1       21 0.86317258E-01 0.98969196E+03</pdfrwt>
<pdfrwt beam="1">  1        4 0.94119534E-01 0.98969196E+03</pdfrwt>
<totfact> 0.42081923E+01</totfact>
</mgrwt>
</event>
<event>
 6    1  0.1412458E-005  0.9753449E+03  0.7818608E-02  0.9749431E-01
          4   -1    0    0  502    0 -0.00000000000E+00  0.00000000000E+00  0.12637549635E+04  0.12637549635E+04  0.00000000000E+00 0.  1.
         21   -1    0    0  501  502  0.00000000000E+00 -0.00000000000E+00 -0.37258445118E+03  0.37258445118E+03  0.00000000000E+00 0.  1.
    9000010    2    1    2  501    0 -0.55803932599E+01  0.23239353613E+03  0.33121512419E+03  0.10300491012E+04  0.94723798270E+03 0.  0.
        -13    1    3    3    0    0  0.15545894842E+03  0.37948133411E+03  0.57287121551E+03  0.70452466835E+03  0.10566000000E+00 0.  1.
          4    1    3    3  501    0 -0.16103934168E+03 -0.14708779798E+03 -0.24165609132E+03  0.32552443281E+03  0.00000000000E+00 0.  1.
         13    1    1    2    0    0  0.55803932599E+01 -0.23239353613E+03  0.55995538813E+03  0.60629031353E+03  0.10566000000E+00 0. -1.
<mgrwt>
<rscale>  1 0.68148450E+03</rscale>
<asrwt>0</asrwt>
<pdfrwt beam="2">  1       21 0.57320685E-01 0.97534491E+03</pdfrwt>
<pdfrwt beam="1">  1        4 0.19442384E+00 0.97534491E+03</pdfrwt>
<totfact> 0.16023406E+01</totfact>
</mgrwt>
</event>
<event>
 6    1  0.1412458E-005  0.9568862E+03  0.7818608E-02  0.9915327E-01
         21   -1    0    0  501  502  0.00000000000E+00  0.00000000000E+00  0.12173112332E+04  0.12173112332E+04  0.00000000000E+00 0.  1.
          4   -1    0    0  502    0 -0.00000000000E+00 -0.00000000000E+00 -0.27512393954E+03  0.27512393954E+03  0.00000000000E+00 0.  1.
    9000010    2    1    2  501    0  0.10460446113E+03  0.97916968950E+02  0.95073391420E+03  0.13488981323E+04  0.94609797043E+03 0.  0.
        -13    1    3    3    0    0  0.42485282964E+03  0.34428126734E+03  0.62043978732E+03  0.82702784641E+03  0.10566000000E+00 0.  1.
          4    1    3    3  501    0 -0.32024836851E+03 -0.24636429839E+03  0.33029412688E+03  0.52187028590E+03  0.00000000000E+00 0.  1.
         13    1    1    2    0    0 -0.10460446113E+03 -0.97916968950E+02 -0.85466205096E+01  0.14353704045E+03  0.10566000000E+00 0. -1.
<mgrwt>
<rscale>  1 0.59524178E+03</rscale>
<asrwt>0</asrwt>
<pdfrwt beam="1">  1       21 0.18727865E+00 0.95688620E+03</pdfrwt>
<pdfrwt beam="2">  1        4 0.42326761E-01 0.95688620E+03</pdfrwt>
<totfact> 0.31110870E+01</totfact>
</mgrwt>
</event>
<event>
 6    1  0.1412458E-005  0.1153877E+04  0.7818608E-02  0.9367235E-01
         21   -1    0    0  501  502  0.00000000000E+00  0.00000000000E+00  0.13380054656E+04  0.13380054656E+04  0.00000000000E+00 0.  1.
          4   -1    0    0  502    0 -0.00000000000E+00 -0.00000000000E+00 -0.52902765163E+03  0.52902765163E+03  0.00000000000E+00 0.  1.
    9000010    2    1    2  501    0 -0.19889543067E+03  0.48716817282E+03  0.60312171424E+03  0.13019942107E+04  0.10269084193E+04 0.  0.
        -13    1    3    3    0    0  0.27013771286E+03  0.45013525178E+03  0.64268199131E+03  0.82984111848E+03  0.10566000000E+00 0.  1.
          4    1    3    3  501    0 -0.46903314354E+03  0.37032921047E+02 -0.39560277064E+02  0.47215309223E+03  0.00000000000E+00 0.  1.
         13    1    1    2    0    0  0.19889543067E+03 -0.48716817282E+03  0.20585609975E+03  0.56503890656E+03  0.10566000000E+00 0. -1.
<mgrwt>
<rscale>  1 0.94821890E+03</rscale>
<asrwt>0</asrwt>
<pdfrwt beam="1">  1       21 0.20584699E+00 0.11538774E+04</pdfrwt>
<pdfrwt beam="2">  1        4 0.81388870E-01 0.11538774E+04</pdfrwt>
<totfact> 0.54428191E+00</totfact>
</mgrwt>
</event>
<event>
 6    1  0.1412458E-005  0.9981324E+03  0.7818608E-02  0.9769807E-01
         21   -1    0    0  501  502  0.00000000000E+00  0.00000000000E+00  0.13821900957E+04  0.13821900957E+04  0.00000000000E+00 0.  1.
          4   -1    0    0  502    0 -0.00000000000E+00 -0.00000000000E+00 -0.26120185402E+03  0.26120185402E+03  0.00000000000E+00 0.  1.
    9000010    2    1    2  501    0  0.39822377132E+02  0.19879589642E+03  0.95422221877E+03  0.13808723357E+04  0.97732427305E+03 0.  0.
        -13    1    3    3    0    0  0.31668889017E+03 -0.19243160765E+03  0.72923355755E+02  0.37767658619E+03  0.10566000000E+00 0.  1.
          4    1    3    3  501    0 -0.27686651304E+03  0.39122750407E+03  0.88129886301E+03  0.10031957496E+04  0.00000000000E+00 0.  1.
         13    1    1    2    0    0 -0.39822377132E+02 -0.19879589642E+03  0.16676602289E+03  0.26251961395E+03  0.10566000000E+00 0. -1.
<mgrwt>
<rscale>  1 0.67008332E+03</rscale>
<asrwt>0</asrwt>
<pdfrwt beam="1">  1       21 0.21264462E+00 0.99813244E+03</pdfrwt>
<pdfrwt beam="2">  1        4 0.40184902E-01 0.99813244E+03</pdfrwt>
<totfact> 0.23035288E+01</totfact>
</mgrwt>
</event>
<event>
 6    1  0.1412458E-005  0.1017061E+04  0.7818608E-02  0.9601051E-01
          4   -1    0    0  502    0 -0.00000000000E+00  0.00000000000E+00  0.33978816803E+03  0.33978816803E+03  0.00000000000E+00 0.  1.
         21   -1    0    0  501  502  0.00000000000E+00 -0.00000000000E+00 -0.15325834513E+04  0.15325834513E+04  0.00000000000E+00 0.  1.
    9000010    2    1    2  501    0  0.85802823692E+02 -0.32701740406E+03 -0.11440775971E+04  0.15307930322E+04  0.95922429703E+03 0.  0.
        -13    1    3    3    0    0 -0.85705579309E+02 -0.57818103827E+03 -0.10676920511E+04  0.12172120138E+04  0.10566000000E+00 0.  1.
          4    1    3    3  501    0  0.17150840300E+03  0.25116363421E+03 -0.76385546002E+02  0.31358101838E+03  0.00000000000E+00 0.  1.
         13    1    1    2    0    0 -0.85802823692E+02  0.32701740406E+03 -0.48717686172E+02  0.34157858719E+03  0.10566000000E+00 0. -1.
<mgrwt>
<rscale>  1 0.77226674E+03</rscale>
<asrwt>0</asrwt>
<pdfrwt beam="2">  1       21 0.23578207E+00 0.10170613E+04</pdfrwt>
<pdfrwt beam="1">  1        4 0.52275102E-01 0.10170613E+04</pdfrwt>
<totfact> 0.93621369E+00</totfact>
</mgrwt>
</event>
<event>
 6    1  0.1412458E-005  0.1038814E+04  0.7818608E-02  0.9654296E-01
         21   -1    0    0  501  502  0.00000000000E+00  0.00000000000E+00  0.25949128216E+04  0.25949128216E+04  0.00000000000E+00 0.  1.
          4   -1    0    0  502    0 -0.00000000000E+00 -0.00000000000E+00 -0.16373186417E+03  0.16373186417E+03  0.00000000000E+00 0.  1.
    9000010    2    1    2  501    0 -0.20352281073E+03 -0.16921031400E+03  0.19204966179E+04  0.21834471800E+04  0.10045300710E+04 0.  0.
        -13    1    3    3    0    0  0.21210308928E+03 -0.28306511903E+03  0.19286009062E+03  0.40287542468E+03  0.10566000000E+00 0.  1.
          4    1    3    3  501    0 -0.41562590001E+03  0.11385480503E+03  0.17276365273E+04  0.17805717553E+04  0.00000000000E+00 0.  1.
         13    1    1    2    0    0  0.20352281073E+03  0.16921031400E+03  0.51068433943E+03  0.57519750569E+03  0.10566000000E+00 0. -1.
<mgrwt>
<rscale>  1 0.73804397E+03</rscale>
<asrwt>0</asrwt>
<pdfrwt beam="1">  1       21 0.39921733E+00 0.10388139E+04</pdfrwt>
<pdfrwt beam="2">  1        4 0.25189519E-01 0.10388139E+04</pdfrwt>
<totfact> 0.37528409E+00</totfact>
</mgrwt>
</event>
<event>
 6    1  0.1412458E-005  0.1014645E+04  0.7818608E-02  0.9978255E-01
         21   -1    0    0  501  502  0.00000000000E+00  0.00000000000E+00  0.13739542868E+04  0.13739542868E+04  0.00000000000E+00 0.  1.
          4   -1    0    0  502    0 -0.00000000000E+00 -0.00000000000E+00 -0.45436046059E+03  0.45436046059E+03  0.00000000000E+00 0.  1.
    9000010    2    1    2  501    0  0.87251807103E+02 -0.45376210277E+02  0.11762830973E+04  0.15534306421E+04  0.10098677915E+04 0.  0.
        -13    1    3    3    0    0  0.23617891491E+03 -0.15118202352E+03 -0.73879344249E+02  0.28999078046E+03  0.10566000000E+00 0.  1.
          4    1    3    3  501    0 -0.14892710781E+03  0.10580581324E+03  0.12501624416E+04  0.12634398616E+04  0.00000000000E+00 0.  1.
         13    1    1    2    0    0 -0.87251807103E+02  0.45376210277E+02 -0.25668927111E+03  0.27488410534E+03  0.10566000000E+00 0. -1.
<mgrwt>
<rscale>  1 0.56614094E+03</rscale>
<asrwt>0</asrwt>
<pdfrwt beam="1">  1       21 0.21137758E+00 0.10146452E+04</pdfrwt>
<pdfrwt beam="2">  1        4 0.69901610E-01 0.10146452E+04</pdfrwt>
<totfact> 0.71901886E+00</totfact>
</mgrwt>
</event>
<event>
 6    1  0.1412458E-005  0.1051939E+04  0.7818608E-02  0.9621000E-01
          4   -1    0    0  502    0 -0.00000000000E+00  0.00000000000E+00  0.11625476227E+04  0.11625476227E+04  0.00000000000E+00 0.  1.
         21   -1    0    0  501  502  0.00000000000E+00 -0.00000000000E+00 -0.40960627299E+03  0.40960627299E+03  0.00000000000E+00 0.  1.
    9000010    2    1    2  501    0  0.28375404188E+03  0.30839110155E+02  0.74054280602E+03  0.12864597549E+04  0.10124759980E+04 0.  0.
        -13    1    3    3    0    0  0.52274487267E+03 -0.30880883145E+03  0.58460463505E+03  0.84284499570E+03  0.10566000000E+00 0.  1.
          4    1    3    3  501    0 -0.23899083079E+03  0.33964794161E+03  0.15593817097E+03  0.44361475923E+03  0.00000000000E+00 0.  1.
         13    1    1    2    0    0 -0.28375404188E+03 -0.30839110155E+02  0.12398543643E+02  0.28569414073E+03  0.10566000000E+00 0. -1.
<mgrwt>
<rscale>  1 0.75921692E+03</rscale>
<asrwt>0</asrwt>
<pdfrwt beam="2">  1       21 0.63016350E-01 0.10519387E+04</pdfrwt>
<pdfrwt beam="1">  1        4 0.17885348E+00 0.10519387E+04</pdfrwt>
<totfact> 0.16448908E+01</totfact>
</mgrwt>
</event>
<event>
 6    1  0.1412458E-005  0.1011844E+04  0.7818608E-02  0.9927209E-01
          4   -1    0    0  502    0 -0.00000000000E+00  0.00000000000E+00  0.80514074433E+03  0.80514074433E+03  0.00000000000E+00 0.  1.
         21   -1    0    0  501  502  0.00000000000E+00 -0.00000000000E+00 -0.42979554629E+03  0.42979554629E+03  0.00000000000E+00 0.  1.
    9000010    2    1    2  501    0 -0.15904123226E+02 -0.11556624075E+03  0.21134698528E+03  0.10336804284E+04  0.10050966037E+04 0.  0.
        -13    1    3    3    0    0  0.43933117286E+03  0.10233221504E+03  0.26978478301E+03  0.52561164559E+03  0.10566000000E+00 0.  1.
          4    1    3    3  501    0 -0.45523529608E+03 -0.21789845580E+03 -0.58437797723E+02  0.50806878278E+03  0.00000000000E+00 0.  1.
         13    1    1    2    0    0  0.15904123226E+02  0.11556624075E+03  0.16399821275E+03  0.20125586224E+03  0.10566000000E+00 0. -1.
<mgrwt>
<rscale>  1 0.58960532E+03</rscale>
<asrwt>0</asrwt>
<pdfrwt beam="2">  1       21 0.66122392E-01 0.10118437E+04</pdfrwt>
<pdfrwt beam="1">  1        4 0.12386781E+00 0.10118437E+04</pdfrwt>
<totfact> 0.39804823E+01</totfact>
</mgrwt>
</event>
<event>
 6    1  0.1412458E-005  0.9567954E+03  0.7818608E-02  0.9904572E-01
          4   -1    0    0  502    0 -0.00000000000E+00  0.00000000000E+00  0.46185003648E+03  0.46185003648E+03  0.00000000000E+00 0.  1.
         21   -1    0    0  501  502  0.00000000000E+00 -0.00000000000E+00 -0.68034286305E+03  0.68034286305E+03  0.00000000000E+00 0.  1.
    9000010    2    1    2  501    0  0.16846228887E+02  0.14739860520E+03 -0.25340226673E+03  0.98978284599E+03  0.94522337529E+03 0.  0.
        -13    1    3    3    0    0  0.37296336396E+03 -0.20453295285E+03  0.70331479808E+01  0.42542317284E+03  0.10566000000E+00 0.  1.
          4    1    3    3  501    0 -0.35611713507E+03  0.35193155805E+03 -0.26043541471E+03  0.56435967315E+03  0.00000000000E+00 0.  1.
         13    1    1    2    0    0 -0.16846228887E+02 -0.14739860520E+03  0.34909440156E+02  0.15241005354E+03  0.10566000000E+00 0. -1.
<mgrwt>
<rscale>  1 0.60040208E+03</rscale>
<asrwt>0</asrwt>
<pdfrwt beam="2">  1       21 0.10466813E+00 0.95679537E+03</pdfrwt>
<pdfrwt beam="1">  1        4 0.71053852E-01 0.95679537E+03</pdfrwt>
<totfact> 0.50376966E+01</totfact>
</mgrwt>
</event>
<event>
 6    1  0.1412458E-005  0.1098688E+04  0.7818608E-02  0.9839639E-01
          4   -1    0    0  502    0 -0.00000000000E+00  0.00000000000E+00  0.12848413410E+04  0.12848413410E+04  0.00000000000E+00 0.  1.
         21   -1    0    0  501  502  0.00000000000E+00 -0.00000000000E+00 -0.42439814446E+03  0.42439814446E+03  0.00000000000E+00 0.  1.
    9000010    2    1    2  501    0  0.10342762149E+03  0.62585306979E+02  0.30421671977E+03  0.11400276636E+04  0.10920169722E+04 0.  0.
        -13    1    3    3    0    0  0.36274755377E+03  0.22496460962E+03 -0.25885292307E+03  0.49919906880E+03  0.10566000000E+00 0.  1.
          4    1    3    3  501    0 -0.25931993229E+03 -0.16237930264E+03  0.56306964284E+03  0.64082859479E+03  0.00000000000E+00 0.  1.
         13    1    1    2    0    0 -0.10342762149E+03 -0.62585306979E+02  0.55622647675E+03  0.56921182186E+03  0.10566000000E+00 0. -1.
<mgrwt>
<rscale>  1 0.63277990E+03</rscale>
<asrwt>0</asrwt>
<pdfrwt beam="2">  1       21 0.65292023E-01 0.10986880E+04</pdfrwt>
<pdfrwt beam="1">  1        4 0.19766790E+00 0.10986880E+04</pdfrwt>
<totfact> 0.11240671E+01</totfact>
</mgrwt>
</event>
<event>
 6    1  0.1412458E-005  0.1018409E+04  0.7818608E-02  0.9826383E-01
         21   -1    0    0  501  502  0.00000000000E+00  0.00000000000E+00  0.39913430889E+03  0.39913430889E+03  0.00000000000E+00 0.  1.
          4   -1    0    0  502    0 -0.00000000000E+00 -0.00000000000E+00 -0.94787700119E+03  0.94787700119E+03  0.00000000000E+00 0.  1.
    9000010    2    1    2  501    0 -0.68864819205E+02  0.14275509352E+03 -0.31767000493E+03  0.10668042829E+04  0.10059998837E+04 0.  0.
        -13    1    3    3    0    0 -0.10370537126E+03  0.57440477062E+03 -0.21243717448E+03  0.62114829856E+03  0.10566000000E+00 0.  1.
          4    1    3    3  501    0  0.34840552052E+02 -0.43164967710E+03 -0.10523283046E+03  0.44565598438E+03  0.00000000000E+00 0.  1.
         13    1    1    2    0    0  0.68864819205E+02 -0.14275509352E+03 -0.23107268736E+03  0.28020702714E+03  0.10566000000E+00 0. -1.
<mgrwt>
<rscale>  1 0.63965702E+03</rscale>
<asrwt>0</asrwt>
<pdfrwt beam="1">  1       21 0.61405278E-01 0.10184091E+04</pdfrwt>
<pdfrwt beam="2">  1        4 0.14582723E+00 0.10184091E+04</pdfrwt>
<totfact> 0.30763599E+01</totfact>
</mgrwt>
</event>
<event>
 6    1  0.1412458E-005  0.1068604E+04  0.7818608E-02  0.9679176E-01
          4   -1    0    0  502    0 -0.00000000000E+00  0.00000000000E+00  0.78745752269E+03  0.78745752269E+03  0.00000000000E+00 0.  1.
         21   -1    0    0  501  502  0.00000000000E+00 -0.00000000000E+00 -0.64056884687E+03  0.64056884687E+03  0.00000000000E+00 0.  1.
    9000010    2    1    2  501    0 -0.18101566838E+03 -0.13119038606E+03  0.35154022321E+03  0.11249424594E+04  0.10449580943E+04 0.  0.
        -13    1    3    3    0    0 -0.15522541393E+03  0.30118156381E+03  0.55197532478E+03  0.64767432698E+03  0.10566000000E+00 0.  1.
          4    1    3    3  501    0 -0.25790254455E+02 -0.43237194987E+03 -0.20043510157E+03  0.47726813240E+03  0.00000000000E+00 0.  1.
         13    1    1    2    0    0  0.18101566838E+03  0.13119038606E+03 -0.20465154739E+03  0.30308391018E+03  0.10566000000E+00 0. -1.
<mgrwt>
<rscale>  1 0.72270265E+03</rscale>
<asrwt>0</asrwt>
<pdfrwt beam="2">  1       21 0.98549053E-01 0.10686042E+04</pdfrwt>
<pdfrwt beam="1">  1        4 0.12114731E+00 0.10686042E+04</pdfrwt>
<totfact> 0.16321699E+01</totfact>
</mgrwt>
</event>
<event>
 6    1  0.1412458E-005  0.1347861E+04  0.7818608E-02  0.9265239E-01
         21   -1    0    0  501  502  0.00000000000E+00  0.00000000000E+00  0.66111594089E+03  0.66111594089E+03  0.00000000000E+00 0. -1.
          4   -1    0    0  502    0 -0.00000000000E+00 -0.00000000000E+00 -0.14507510391E+04  0.14507510391E+04  0.00000000000E+00 0.  1.
    9000010    2    1    2  501    0  0.38568983862E+03 -0.28339312851E+03 -0.89997140960E+03  0.16207026188E+04  0.12600238584E+04 0.  0.
        -13    1    3    3    0    0 -0.22312422987E+03  0.38188708895E+03 -0.35389525670E+03  0.56644861597E+03  0.10566000000E+00 0.  1.
          4    1    3    3  501    0  0.60881406849E+03 -0.66528021746E+03 -0.54607615290E+03  0.10542540028E+04  0.00000000000E+00 0.  1.
         13    1    1    2    0    0 -0.38568983862E+03  0.28339312851E+03  0.11033631140E+03  0.49116436117E+03  0.10566000000E+00 0. -1.
<mgrwt>
<rscale>  1 0.10404697E+04</rscale>
<asrwt>0</asrwt>
<pdfrwt beam="1">  1       21 0.10171015E+00 0.13478607E+04</pdfrwt>
<pdfrwt beam="2">  1        4 0.22319246E+00 0.13478607E+04</pdfrwt>
<totfact> 0.26024398E+00</totfact>
</mgrwt>
</event>
<event>
 6    1  0.1412458E-005  0.1057151E+04  0.7818608E-02  0.9565418E-01
         21   -1    0    0  501  502  0.00000000000E+00  0.00000000000E+00  0.63752375220E+03  0.63752375220E+03  0.00000000000E+00 0.  1.
          4   -1    0    0  502    0 -0.00000000000E+00 -0.00000000000E+00 -0.78560770322E+03  0.78560770322E+03  0.00000000000E+00 0.  1.
    9000010    2    1    2  501    0 -0.52383817252E+02 -0.33623561525E+03 -0.20850613884E+03  0.10775170674E+04  0.10008844925E+04 0.  0.
        -13    1    3    3    0    0  0.97288610649E+02 -0.44877580362E+03  0.29128637078E+03  0.54379459049E+03  0.10566000000E+00 0.  1.
          4    1    3    3  501    0 -0.14967242790E+03  0.11254018837E+03 -0.49979250963E+03  0.53372247690E+03  0.00000000000E+00 0.  1.
         13    1    1    2    0    0  0.52383817252E+02  0.33623561525E+03  0.60422187824E+02  0.34561438804E+03  0.10566000000E+00 0. -1.
<mgrwt>
<rscale>  1 0.79627975E+03</rscale>
<asrwt>0</asrwt>
<pdfrwt beam="1">  1       21 0.98080578E-01 0.10571510E+04</pdfrwt>
<pdfrwt beam="2">  1        4 0.12086272E+00 0.10571510E+04</pdfrwt>
<totfact> 0.16631705E+01</totfact>
</mgrwt>
</event>
<event>
 6    1  0.1412458E-005  0.1001306E+04  0.7818608E-02  0.1016703E+00
         21   -1    0    0  501  502  0.00000000000E+00  0.00000000000E+00  0.81237946191E+03  0.81237946191E+03  0.00000000000E+00 0.  1.
          4   -1    0    0  502    0 -0.00000000000E+00 -0.00000000000E+00 -0.46790234859E+03  0.46790234859E+03  0.00000000000E+00 0.  1.
    9000010    2    1    2  501    0  0.54244620711E+02 -0.17289640315E+02  0.49672029367E+03  0.11177413304E+04  0.99968656140E+03 0.  0.
        -13    1    3    3    0    0 -0.17676312880E+03 -0.26687484336E+03  0.66519900721E+03  0.73821210779E+03  0.10566000000E+00 0.  1.
          4    1    3    3  501    0  0.23100774951E+03  0.24958520304E+03 -0.16847871355E+03  0.37952922263E+03  0.00000000000E+00 0.  1.
         13    1    1    2    0    0 -0.54244620711E+02  0.17289640315E+02 -0.15224318035E+03  0.16254048008E+03  0.10566000000E+00 0. -1.
<mgrwt>
<rscale>  1 0.48895310E+03</rscale>
<asrwt>0</asrwt>
<pdfrwt beam="1">  1       21 0.12498146E+00 0.10013065E+04</pdfrwt>
<pdfrwt beam="2">  1        4 0.71984977E-01 0.10013065E+04</pdfrwt>
<totfact> 0.30938862E+01</totfact>
</mgrwt>
</event>
<event>
 6    1  0.1412458E-005  0.1325531E+04  0.7818608E-02  0.9119052E-01
         21   -1    0    0  501  502  0.00000000000E+00  0.00000000000E+00  0.19245860197E+04  0.19245860197E+04  0.00000000000E+00 0. -1.
          4   -1    0    0  502    0 -0.00000000000E+00 -0.00000000000E+00 -0.98016745937E+03  0.98016745937E+03  0.00000000000E+00 0.  1.
    9000010    2    1    2  501    0  0.50727740514E+02  0.86811092251E+03  0.13958652752E+04  0.19249606311E+04  0.10004217547E+04 0.  0.
        -13    1    3    3    0    0  0.43754066022E+03  0.33147561899E+03  0.25293440308E+03  0.60439534972E+03  0.10566000000E+00 0.  1.
          4    1    3    3  501    0 -0.38681291971E+03  0.53663530352E+03  0.11429308722E+04  0.13205652814E+04  0.00000000000E+00 0.  1.
         13    1    1    2    0    0 -0.50727740514E+02 -0.86811092251E+03 -0.45144671489E+03  0.97979284800E+03  0.10566000000E+00 0. -1.
<mgrwt>
<rscale>  1 0.11929476E+04</rscale>
<asrwt>0</asrwt>
<pdfrwt beam="1">  1       21 0.29609016E+00 0.13255314E+04</pdfrwt>
<pdfrwt beam="2">  1        4 0.15079499E+00 0.13255314E+04</pdfrwt>
<totfact> 0.29971919E-01</totfact>
</mgrwt>
</event>
<event>
 6    1  0.1412458E-005  0.1051447E+04  0.7818608E-02  0.9586433E-01
          4   -1    0    0  502    0 -0.00000000000E+00  0.00000000000E+00  0.35639064056E+03  0.35639064056E+03  0.00000000000E+00 0.  1.
         21   -1    0    0  501  502  0.00000000000E+00 -0.00000000000E+00 -0.13972124021E+04  0.13972124021E+04  0.00000000000E+00 0.  1.
    9000010    2    1    2  501    0 -0.15809186193E+03 -0.28019884012E+03 -0.60890190588E+03  0.12150315992E+04  0.10010173971E+04 0.  0.
        -13    1    3    3    0    0  0.11765953373E+02 -0.65621820579E+02 -0.84861038672E+03  0.85122515271E+03  0.10566000000E+00 0.  1.
          4    1    3    3  501    0 -0.16985781530E+03 -0.21457701954E+03  0.23970848085E+03  0.36380644651E+03  0.00000000000E+00 0.  1.
         13    1    1    2    0    0  0.15809186193E+03  0.28019884012E+03 -0.43191985569E+03  0.53857144346E+03  0.10566000000E+00 0. -1.
<mgrwt>
<rscale>  1 0.78200654E+03</rscale>
<asrwt>0</asrwt>
<pdfrwt beam="2">  1       21 0.21495575E+00 0.10514467E+04</pdfrwt>
<pdfrwt beam="1">  1        4 0.54829329E-01 0.10514467E+04</pdfrwt>
<totfact> 0.11526565E+01</totfact>
</mgrwt>
</event>
<event>
 6    1  0.1412458E-005  0.1012204E+04  0.7818608E-02  0.9832517E-01
         21   -1    0    0  501  502  0.00000000000E+00  0.00000000000E+00  0.64801224128E+03  0.64801224128E+03  0.00000000000E+00 0.  1.
          4   -1    0    0  502    0 -0.00000000000E+00 -0.00000000000E+00 -0.68418155250E+03  0.68418155250E+03  0.00000000000E+00 0.  1.
    9000010    2    1    2  501    0 -0.12819411561E+03  0.92752593223E+02  0.21552449081E+03  0.10348950283E+04  0.99976004050E+03 0.  0.
        -13    1    3    3    0    0  0.21391879022E+03 -0.30313192896E+03  0.33311932525E+03  0.49861679794E+03  0.10566000000E+00 0.  1.
          4    1    3    3  501    0 -0.34211290583E+03  0.39588452219E+03 -0.11759483444E+03  0.53627823034E+03  0.00000000000E+00 0.  1.
         13    1    1    2    0    0  0.12819411561E+03 -0.92752593223E+02 -0.25169380203E+03  0.29729876550E+03  0.10566000000E+00 0. -1.
<mgrwt>
<rscale>  1 0.63646328E+03</rscale>
<asrwt>0</asrwt>
<pdfrwt beam="1">  1       21 0.99694191E-01 0.10122040E+04</pdfrwt>
<pdfrwt beam="2">  1        4 0.10525870E+00 0.10122040E+04</pdfrwt>
<totfact> 0.22595828E+01</totfact>
</mgrwt>
</event>
<event>
 6    1  0.1412458E-005  0.7112679E+03  0.7818608E-02  0.1049790E+00
         21   -1    0    0  501  502  0.00000000000E+00  0.00000000000E+00  0.55882693809E+03  0.55882693809E+03  0.00000000000E+00 0.  1.
          4   -1    0    0  502    0 -0.00000000000E+00 -0.00000000000E+00 -0.28272793705E+03  0.28272793705E+03  0.00000000000E+00 0.  1.
    9000010    2    1    2  501    0 -0.59846336030E+02  0.16370078072E+01  0.30639789984E+03  0.77445570850E+03  0.70874375319E+03 0.  0.
        -13    1    3    3    0    0  0.18264250889E+03  0.86136671819E+02 -0.14947206594E+03  0.25123638659E+03  0.10566000000E+00 0.  1.
          4    1    3    3  501    0 -0.24248884492E+03 -0.84499664011E+02  0.45586996578E+03  0.52321932192E+03  0.00000000000E+00 0.  1.
         13    1    1    2    0    0  0.59846336030E+02 -0.16370078072E+01 -0.30298898794E+02  0.67099166634E+02  0.10566000000E+00 0. -1.
<mgrwt>
<rscale>  1 0.38311138E+03</rscale>
<asrwt>0</asrwt>
<pdfrwt beam="1">  1       21 0.85973375E-01 0.71126786E+03</pdfrwt>
<pdfrwt beam="2">  1        4 0.43496606E-01 0.71126786E+03</pdfrwt>
<totfact> 0.23789663E+02</totfact>
</mgrwt>
</event>
<event>
 6    1  0.1412458E-005  0.1000819E+04  0.7818608E-02  0.9915194E-01
         21   -1    0    0  501  502  0.00000000000E+00  0.00000000000E+00  0.14247171328E+04  0.14247171328E+04  0.00000000000E+00 0.  1.
          4   -1    0    0  502    0 -0.00000000000E+00 -0.00000000000E+00 -0.29560856013E+03  0.29560856013E+03  0.00000000000E+00 0.  1.
    9000010    2    1    2  501    0 -0.90370719507E+02  0.86769485334E+02  0.57921925246E+03  0.11563451204E+04  0.99294676824E+03 0.  0.
        -13    1    3    3    0    0  0.37326965816E+03  0.10784239133E+03  0.57284921619E+03  0.69218238545E+03  0.10566000000E+00 0.  1.
          4    1    3    3  501    0 -0.46364037767E+03 -0.21072905994E+02  0.63700362639E+01  0.46416273497E+03  0.00000000000E+00 0.  1.
         13    1    1    2    0    0  0.90370719507E+02 -0.86769485334E+02  0.54988932017E+03  0.56398057248E+03  0.10566000000E+00 0. -1.
<mgrwt>
<rscale>  1 0.59530535E+03</rscale>
<asrwt>0</asrwt>
<pdfrwt beam="1">  1       21 0.21918725E+00 0.10008192E+04</pdfrwt>
<pdfrwt beam="2">  1        4 0.45478241E-01 0.10008192E+04</pdfrwt>
<totfact> 0.16143278E+01</totfact>
</mgrwt>
</event>
<event>
 6    1  0.1412458E-005  0.1043659E+04  0.7818608E-02  0.9744206E-01
          4   -1    0    0  502    0 -0.00000000000E+00  0.00000000000E+00  0.76504504052E+03  0.76504504052E+03  0.00000000000E+00 0.  1.
         21   -1    0    0  501  502  0.00000000000E+00 -0.00000000000E+00 -0.88315325816E+03  0.88315325816E+03  0.00000000000E+00 0.  1.
    9000010    2    1    2  501    0  0.45854325448E+02 -0.18753077342E+03 -0.54666654233E+03  0.11781635564E+04  0.10256484032E+04 0.  0.
        -13    1    3    3    0    0  0.38908325402E+02  0.28875586683E+03  0.15504540842E+03  0.33004984206E+03  0.10566000000E+00 0.  1.
          4    1    3    3  501    0  0.69460000455E+01 -0.47628664025E+03 -0.70171195075E+03  0.84811371432E+03  0.00000000000E+00 0.  1.
         13    1    1    2    0    0 -0.45854325448E+02  0.18753077342E+03  0.42855832469E+03  0.47003474230E+03  0.10566000000E+00 0. -1.
<mgrwt>
<rscale>  1 0.68444672E+03</rscale>
<asrwt>0</asrwt>
<pdfrwt beam="2">  1       21 0.13586973E+00 0.10436595E+04</pdfrwt>
<pdfrwt beam="1">  1        4 0.11769924E+00 0.10436595E+04</pdfrwt>
<totfact> 0.76930549E+00</totfact>
</mgrwt>
</event>
<event>
 6    1  0.1412458E-005  0.1042435E+04  0.7818608E-02  0.9588508E-01
         21   -1    0    0  501  502  0.00000000000E+00  0.00000000000E+00  0.36176023111E+03  0.36176023111E+03  0.00000000000E+00 0. -1.
          4   -1    0    0  502    0 -0.00000000000E+00 -0.00000000000E+00 -0.12979005843E+04  0.12979005843E+04  0.00000000000E+00 0.  1.
    9000010    2    1    2  501    0  0.25804813279E+03  0.20213807873E+03 -0.72465740550E+03  0.12695663525E+04  0.98955632797E+03 0.  0.
        -13    1    3    3    0    0  0.40753580925E+03  0.35512700932E+03 -0.28519092549E+02  0.54130765593E+03  0.10566000000E+00 0.  1.
          4    1    3    3  501    0 -0.14948767645E+03 -0.15298893059E+03 -0.69613831295E+03  0.72825869652E+03  0.00000000000E+00 0.  1.
         13    1    1    2    0    0 -0.25804813279E+03 -0.20213807873E+03 -0.21148294771E+03  0.39009446298E+03  0.10566000000E+00 0. -1.
<mgrwt>
<rscale>  1 0.78061494E+03</rscale>
<asrwt>0</asrwt>
<pdfrwt beam="1">  1       21 0.55655421E-01 0.10424348E+04</pdfrwt>
<pdfrwt beam="2">  1        4 0.19967701E+00 0.10424348E+04</pdfrwt>
<totfact> 0.15662318E+01</totfact>
</mgrwt>
</event>
<event>
 6    1  0.1412458E-005  0.1010477E+04  0.7818608E-02  0.9906767E-01
         21   -1    0    0  501  502  0.00000000000E+00  0.00000000000E+00  0.30787853001E+03  0.30787853001E+03  0.00000000000E+00 0.  1.
          4   -1    0    0  502    0 -0.00000000000E+00 -0.00000000000E+00 -0.14834788526E+04  0.14834788526E+04  0.00000000000E+00 0.  1.
    9000010    2    1    2  501    0 -0.12484423174E+03 -0.73835866042E+01 -0.54422054785E+03  0.11477107166E+04  0.10027079758E+04 0.  0.
        -13    1    3    3    0    0  0.38137242902E+03 -0.90926285972E+02 -0.49620946440E+03  0.63240522043E+03  0.10566000000E+00 0.  1.
          4    1    3    3  501    0 -0.50621666076E+03  0.83542699368E+02 -0.48011083447E+02  0.51530549617E+03  0.00000000000E+00 0.  1.
         13    1    1    2    0    0  0.12484423174E+03  0.73835866042E+01 -0.63137977473E+03  0.64364666599E+03  0.10566000000E+00 0. -1.
<mgrwt>
<rscale>  1 0.59934454E+03</rscale>
<asrwt>0</asrwt>
<pdfrwt beam="1">  1       21 0.47365929E-01 0.10104771E+04</pdfrwt>
<pdfrwt beam="2">  1        4 0.22822751E+00 0.10104771E+04</pdfrwt>
<totfact> 0.14597293E+01</totfact>
</mgrwt>
</event>
<event>
 6    1  0.1412458E-005  0.1017145E+04  0.7818608E-02  0.9843684E-01
         21   -1    0    0  501  502  0.00000000000E+00  0.00000000000E+00  0.57804361966E+03  0.57804361966E+03  0.00000000000E+00 0.  1.
          4   -1    0    0  502    0 -0.00000000000E+00 -0.00000000000E+00 -0.79518038198E+03  0.79518038198E+03  0.00000000000E+00 0.  1.
    9000010    2    1    2  501    0 -0.14131736662E+03  0.51366054063E+02  0.10019743174E+03  0.10220686635E+04  0.10059700582E+04 0.  0.
        -13    1    3    3    0    0 -0.58490951476E+02 -0.44234655361E+03  0.23407040214E+03  0.50386568569E+03  0.10566000000E+00 0.  1.
          4    1    3    3  501    0 -0.82826415144E+02  0.49371260767E+03 -0.13387297040E+03  0.51820297782E+03  0.00000000000E+00 0.  1.
         13    1    1    2    0    0  0.14131736662E+03 -0.51366054063E+02 -0.31733419406E+03  0.35115533814E+03  0.10566000000E+00 0. -1.
<mgrwt>
<rscale>  1 0.63069974E+03</rscale>
<asrwt>0</asrwt>
<pdfrwt beam="1">  1       21 0.88929787E-01 0.10171454E+04</pdfrwt>
<pdfrwt beam="2">  1        4 0.12233544E+00 0.10171454E+04</pdfrwt>
<totfact> 0.20556681E+01</totfact>
</mgrwt>
</event>
<event>
 6    1  0.1412458E-005  0.1037916E+04  0.7818608E-02  0.9646528E-01
         21   -1    0    0  501  502  0.00000000000E+00  0.00000000000E+00  0.15992932933E+04  0.15992932933E+04  0.00000000000E+00 0.  1.
          4   -1    0    0  502    0 -0.00000000000E+00 -0.00000000000E+00 -0.27050445281E+03  0.27050445281E+03  0.00000000000E+00 0.  1.
    9000010    2    1    2  501    0  0.23349942464E+03  0.14036621044E+03  0.98253535793E+03  0.14292116141E+04  0.10015215694E+04 0.  0.
        -13    1    3    3    0    0  0.19448601306E+03  0.35662906265E+03 -0.16248748316E+02  0.40653798173E+03  0.10566000000E+00 0.  1.
          4    1    3    3  501    0  0.39013411573E+02 -0.21626285221E+03  0.99878410624E+03  0.10226736324E+04  0.00000000000E+00 0.  1.
         13    1    1    2    0    0 -0.23349942464E+03 -0.14036621044E+03  0.34625348259E+03  0.44058613199E+03  0.10566000000E+00 0. -1.
<mgrwt>
<rscale>  1 0.74291703E+03</rscale>
<asrwt>0</asrwt>
<pdfrwt beam="1">  1       21 0.24604512E+00 0.10379162E+04</pdfrwt>
<pdfrwt beam="2">  1        4 0.41616071E-01 0.10379162E+04</pdfrwt>
<totfact> 0.12913429E+01</totfact>
</mgrwt>
</event>
<event>
 6    1  0.1412458E-005  0.1145213E+04  0.7818608E-02  0.9356001E-01
         21   -1    0    0  501  502  0.00000000000E+00  0.00000000000E+00  0.77418196887E+03  0.77418196887E+03  0.00000000000E+00 0. -1.
          4   -1    0    0  502    0 -0.00000000000E+00 -0.00000000000E+00 -0.95385429663E+03  0.95385429663E+03  0.00000000000E+00 0.  1.
    9000010    2    1    2  501    0  0.43840739817E+03 -0.34920376748E+03 -0.21980263046E+03  0.11661156569E+04  0.99868323856E+03 0.  0.
        -13    1    3    3    0    0 -0.32341011183E+03 -0.13881716556E+03 -0.29400429611E+02  0.35316950932E+03  0.10566000000E+00 0.  1.
          4    1    3    3  501    0  0.76181751000E+03 -0.21038660192E+03 -0.19040220085E+03  0.81294614760E+03  0.00000000000E+00 0.  1.
         13    1    1    2    0    0 -0.43840739817E+03  0.34920376748E+03  0.40130302694E+02  0.56192060858E+03  0.10566000000E+00 0. -1.
<mgrwt>
<rscale>  1 0.95786846E+03</rscale>
<asrwt>0</asrwt>
<pdfrwt beam="1">  1       21 0.11910492E+00 0.11452129E+04</pdfrwt>
<pdfrwt beam="2">  1        4 0.14674682E+00 0.11452129E+04</pdfrwt>
<totfact> 0.60924794E+00</totfact>
</mgrwt>
</event>
<event>
 6    1  0.1412458E-005  0.1174162E+04  0.7818608E-02  0.9314157E-01
          4   -1    0    0  502    0 -0.00000000000E+00  0.00000000000E+00  0.13469611229E+04  0.13469611229E+04  0.00000000000E+00 0.  1.
         21   -1    0    0  501  502  0.00000000000E+00 -0.00000000000E+00 -0.60095515652E+03  0.60095515652E+03  0.00000000000E+00 0. -1.
    9000010    2    1    2  501    0  0.57017838087E+03  0.20302381634E+03  0.35225810915E+03  0.12258640360E+04  0.10061484996E+04 0.  0.
        -13    1    3    3    0    0  0.65228720630E+03 -0.16433041969E+03 -0.50532981261E+02  0.67456406641E+03  0.10566000000E+00 0.  1.
          4    1    3    3  501    0 -0.82108825423E+02  0.36735423604E+03  0.40279109042E+03  0.55129996959E+03  0.00000000000E+00 0.  1.
         13    1    1    2    0    0 -0.57017838087E+03 -0.20302381634E+03  0.39374785727E+03  0.72205224346E+03  0.10566000000E+00 0. -1.
<mgrwt>
<rscale>  1 0.99489891E+03</rscale>
<asrwt>0</asrwt>
<pdfrwt beam="2">  1       21 0.92454640E-01 0.11741622E+04</pdfrwt>
<pdfrwt beam="1">  1        4 0.20722479E+00 0.11741622E+04</pdfrwt>
<totfact> 0.42606172E+00</totfact>
</mgrwt>
</event>
<event>
 6    1  0.1412458E-005  0.9965685E+03  0.7818608E-02  0.1025958E+00
         21   -1    0    0  501  502  0.00000000000E+00  0.00000000000E+00  0.34270793514E+03  0.34270793514E+03  0.00000000000E+00 0.  1.
          4   -1    0    0  502    0 -0.00000000000E+00 -0.00000000000E+00 -0.81300065600E+03  0.81300065600E+03  0.00000000000E+00 0.  1.
    9000010    2    1    2  501    0 -0.39115775563E+02  0.19421439702E+02 -0.40188957110E+03  0.10745529488E+04  0.99561115716E+03 0.  0.
        -13    1    3    3    0    0  0.24724277203E+03  0.36161772212E+03  0.48281738718E+02  0.44071249441E+03  0.10566000000E+00 0.  1.
          4    1    3    3  501    0 -0.28635854759E+03 -0.34219628241E+03 -0.45017130982E+03  0.63384045442E+03  0.00000000000E+00 0.  1.
         13    1    1    2    0    0  0.39115775563E+02 -0.19421439702E+02 -0.68403149763E+02  0.81155642315E+02  0.10566000000E+00 0. -1.
<mgrwt>
<rscale>  1 0.45596473E+03</rscale>
<asrwt>0</asrwt>
<pdfrwt beam="1">  1       21 0.52724298E-01 0.99656852E+03</pdfrwt>
<pdfrwt beam="2">  1        4 0.12507702E+00 0.99656852E+03</pdfrwt>
<totfact> 0.64318380E+01</totfact>
</mgrwt>
</event>
<event>
 6    1  0.1412458E-005  0.1042173E+04  0.7818608E-02  0.9651894E-01
          4   -1    0    0  502    0 -0.00000000000E+00  0.00000000000E+00  0.26792809522E+03  0.26792809522E+03  0.00000000000E+00 0.  1.
         21   -1    0    0  501  502  0.00000000000E+00 -0.00000000000E+00 -0.16001985809E+04  0.16001985809E+04  0.00000000000E+00 0.  1.
    9000010    2    1    2  501    0  0.58002545902E+02 -0.25782340338E+03 -0.11127416057E+04  0.15245715234E+04  0.10081107311E+04 0.  0.
        -13    1    3    3    0    0  0.25239415193E+02 -0.44838033914E+03 -0.58662360087E+02  0.45290533256E+03  0.10566000000E+00 0.  1.
          4    1    3    3  501    0  0.32763130709E+02  0.19055693575E+03 -0.10540792457E+04  0.10716661909E+04  0.00000000000E+00 0.  1.
         13    1    1    2    0    0 -0.58002545902E+02  0.25782340338E+03 -0.21952887995E+03  0.34355515272E+03  0.10566000000E+00 0. -1.
<mgrwt>
<rscale>  1 0.73954688E+03</rscale>
<asrwt>0</asrwt>
<pdfrwt beam="2">  1       21 0.24618439E+00 0.10421729E+04</pdfrwt>
<pdfrwt beam="1">  1        4 0.41219707E-01 0.10421729E+04</pdfrwt>
<totfact> 0.13134421E+01</totfact>
</mgrwt>
</event>
<event>
 6    1  0.1412458E-005  0.1045768E+04  0.7818608E-02  0.9570637E-01
          4   -1    0    0  502    0 -0.00000000000E+00  0.00000000000E+00  0.12762805536E+04  0.12762805536E+04  0.00000000000E+00 0.  1.
         21   -1    0    0  501  502  0.00000000000E+00 -0.00000000000E+00 -0.41103470822E+03  0.41103470822E+03  0.00000000000E+00 0.  1.
    9000010    2    1    2  501    0  0.29214916844E+03  0.18398268125E+03  0.42743152917E+03  0.11297471940E+04  0.98713233488E+03 0.  0.
        -13    1    3    3    0    0  0.59239674903E+03 -0.12719086779E+03  0.18249149151E+03  0.63278320201E+03  0.10566000000E+00 0.  1.
          4    1    3    3  501    0 -0.30024758059E+03  0.31117354905E+03  0.24494003766E+03  0.49696399198E+03  0.00000000000E+00 0.  1.
         13    1    1    2    0    0 -0.29214916844E+03 -0.18398268125E+03  0.43781431621E+03  0.55756806783E+03  0.10566000000E+00 0. -1.
<mgrwt>
<rscale>  1 0.79270471E+03</rscale>
<asrwt>0</asrwt>
<pdfrwt beam="2">  1       21 0.63236109E-01 0.10457681E+04</pdfrwt>
<pdfrwt beam="1">  1        4 0.19635085E+00 0.10457681E+04</pdfrwt>
<totfact> 0.12398873E+01</totfact>
</mgrwt>
</event>
<event>
 6    1  0.1412458E-005  0.1009915E+04  0.7818608E-02  0.1000593E+00
         21   -1    0    0  501  502  0.00000000000E+00  0.00000000000E+00  0.57860688739E+03  0.57860688739E+03  0.00000000000E+00 0.  1.
          4   -1    0    0  502    0 -0.00000000000E+00 -0.00000000000E+00 -0.55161102459E+03  0.55161102459E+03  0.00000000000E+00 0.  1.
    9000010    2    1    2  501    0 -0.20247089713E+02 -0.89120406861E+02 -0.49369266046E+02  0.10111211630E+04  0.10057714900E+04 0.  0.
        -13    1    3    3    0    0  0.25112965390E+03  0.38617345938E+03  0.87675536952E+01  0.46073085956E+03  0.10566000000E+00 0.  1.
          4    1    3    3  501    0 -0.27137674361E+03 -0.47529386624E+03 -0.58136819742E+02  0.55039030339E+03  0.00000000000E+00 0.  1.
         13    1    1    2    0    0  0.20247089713E+02  0.89120406861E+02  0.76365128846E+02  0.11909674903E+03  0.10566000000E+00 0. -1.
<mgrwt>
<rscale>  1 0.55391122E+03</rscale>
<asrwt>0</asrwt>
<pdfrwt beam="1">  1       21 0.89016444E-01 0.10099152E+04</pdfrwt>
<pdfrwt beam="2">  1        4 0.84863235E-01 0.10099152E+04</pdfrwt>
<totfact> 0.49761249E+01</totfact>
</mgrwt>
</event>
<event>
 6    1  0.1412458E-005  0.1058488E+04  0.7818608E-02  0.9766878E-01
          4   -1    0    0  502    0 -0.00000000000E+00  0.00000000000E+00  0.12198321268E+04  0.12198321268E+04  0.00000000000E+00 0.  1.
         21   -1    0    0  501  502  0.00000000000E+00 -0.00000000000E+00 -0.48047007753E+03  0.48047007753E+03  0.00000000000E+00 0.  1.
    9000010    2    1    2  501    0  0.16348928531E+01  0.17164940531E+03  0.12907018590E+03  0.10663287342E+04  0.10444767423E+04 0.  0.
        -13    1    3    3    0    0 -0.24745220272E+03  0.22336318753E+03 -0.37497224017E+03  0.50172492287E+03  0.10566000000E+00 0.  1.
          4    1    3    3  501    0  0.24908709557E+03 -0.51713782221E+02  0.50404242607E+03  0.56460381130E+03  0.00000000000E+00 0.  1.
         13    1    1    2    0    0 -0.16348928531E+01 -0.17164940531E+03  0.61029186337E+03  0.63397347017E+03  0.10566000000E+00 0. -1.
<mgrwt>
<rscale>  1 0.67170738E+03</rscale>
<asrwt>0</asrwt>
<pdfrwt beam="2">  1       21 0.73918474E-01 0.10584885E+04</pdfrwt>
<pdfrwt beam="1">  1        4 0.18766648E+00 0.10584885E+04</pdfrwt>
<totfact> 0.99223853E+00</totfact>
</mgrwt>
</event>
<event>
 6    1  0.1412458E-005  0.1036750E+04  0.7818608E-02  0.9622187E-01
          4   -1    0    0  502    0 -0.00000000000E+00  0.00000000000E+00  0.67437817525E+03  0.67437817525E+03  0.00000000000E+00 0.  1.
         21   -1    0    0  501  502  0.00000000000E+00 -0.00000000000E+00 -0.66741892714E+03  0.66741892714E+03  0.00000000000E+00 0.  1.
    9000010    2    1    2  501    0 -0.12935952023E+03  0.26729331411E+03 -0.55941097503E+02  0.10382578695E+04  0.99331283894E+03 0.  0.
        -13    1    3    3    0    0 -0.38179606156E+03 -0.36781095020E+02  0.31493019306E+03  0.49628834284E+03  0.10566000000E+00 0.  1.
          4    1    3    3  501    0  0.25243654133E+03  0.30407440913E+03 -0.37087129056E+03  0.54196952668E+03  0.00000000000E+00 0.  1.
         13    1    1    2    0    0  0.12935952023E+03 -0.26729331411E+03  0.62900345615E+02  0.30353923286E+03  0.10566000000E+00 0. -1.
<mgrwt>
<rscale>  1 0.75844915E+03</rscale>
<asrwt>0</asrwt>
<pdfrwt beam="2">  1       21 0.10267984E+00 0.10367497E+04</pdfrwt>
<pdfrwt beam="1">  1        4 0.10375049E+00 0.10367497E+04</pdfrwt>
<totfact> 0.21694718E+01</totfact>
</mgrwt>
</event>
<event>
 6    1  0.1412458E-005  0.9853308E+03  0.7818608E-02  0.9779701E-01
          4   -1    0    0  502    0 -0.00000000000E+00  0.00000000000E+00  0.24477627327E+03  0.24477627327E+03  0.00000000000E+00 0.  1.
         21   -1    0    0  501  502  0.00000000000E+00 -0.00000000000E+00 -0.20046766297E+04  0.20046766297E+04  0.00000000000E+00 0.  1.
    9000010    2    1    2  501    0  0.98109633746E+02  0.17883347204E+03 -0.17899905263E+04  0.20432676939E+04  0.96398644895E+03 0.  0.
        -13    1    3    3    0    0  0.38619836237E+03 -0.22993594155E+03 -0.11231238232E+04  0.12097218051E+04  0.10566000000E+00 0.  1.
          4    1    3    3  501    0 -0.28808872863E+03  0.40876941358E+03 -0.66686670307E+03  0.83354588878E+03  0.00000000000E+00 0.  1.
         13    1    1    2    0    0 -0.98109633746E+02 -0.17883347204E+03  0.30090169867E+02  0.20618520908E+03  0.10566000000E+00 0. -1.
<mgrwt>
<rscale>  1 0.66463352E+03</rscale>
<asrwt>0</asrwt>
<pdfrwt beam="2">  1       21 0.30841181E+00 0.98533080E+03</pdfrwt>
<pdfrwt beam="1">  1        4 0.37657886E-01 0.98533080E+03</pdfrwt>
<totfact> 0.64929257E+00</totfact>
</mgrwt>
</event>
<event>
 6    1  0.1412458E-005  0.1189320E+04  0.7818608E-02  0.9275082E-01
         21   -1    0    0  501  502  0.00000000000E+00  0.00000000000E+00  0.17273203146E+04  0.17273203146E+04  0.00000000000E+00 0. -1.
          4   -1    0    0  502    0 -0.00000000000E+00 -0.00000000000E+00 -0.11949866143E+04  0.11949866143E+04  0.00000000000E+00 0.  1.
    9000010    2    1    2  501    0 -0.65546871002E+03 -0.14765285140E+03 -0.79779127701E+03  0.14321146390E+04  0.98134643392E+03 0.  0.
        -13    1    3    3    0    0 -0.31001027326E+03 -0.53017589029E+03 -0.65364944120E+03  0.89691161623E+03  0.10566000000E+00 0.  1.
          4    1    3    3  501    0 -0.34545843675E+03  0.38252303889E+03 -0.14414183581E+03  0.53520302282E+03  0.00000000000E+00 0.  1.
         13    1    1    2    0    0  0.65546871002E+03  0.14765285140E+03  0.13301249773E+04  0.14901922898E+04  0.10566000000E+00 0. -1.
<mgrwt>
<rscale>  1 0.10310960E+04</rscale>
<asrwt>0</asrwt>
<pdfrwt beam="1">  1       21 0.26574159E+00 0.11893197E+04</pdfrwt>
<pdfrwt beam="2">  1        4 0.18384409E+00 0.11893197E+04</pdfrwt>
<totfact> 0.27286853E-01</totfact>
</mgrwt>
</event>
<event>
 6    1  0.1412458E-005  0.1054836E+04  0.7818608E-02  0.9568916E-01
         21   -1    0    0  501  502  0.00000000000E+00  0.00000000000E+00  0.19523625010E+04  0.19523625010E+04  0.00000000000E+00 0.  1.
          4   -1    0    0  502    0 -0.00000000000E+00 -0.00000000000E+00 -0.25995529519E+03  0.25995529519E+03  0.00000000000E+00 0.  1.
    9000010    2    1    2  501    0  0.16169367085E+03 -0.29730340166E+03  0.14623705051E+04  0.18031099631E+04  0.99907151348E+03 0.  0.
        -13    1    3    3    0    0  0.34889788240E+03  0.27983351650E+03  0.58512334447E+03  0.73648208988E+03  0.10566000000E+00 0.  1.
          4    1    3    3  501    0 -0.18720421155E+03 -0.57713691816E+03  0.87724716058E+03  0.10666278732E+04  0.00000000000E+00 0.  1.
         13    1    1    2    0    0 -0.16169367085E+03  0.29730340166E+03  0.23003670075E+03  0.40920783312E+03  0.10566000000E+00 0. -1.
<mgrwt>
<rscale>  1 0.79388108E+03</rscale>
<asrwt>0</asrwt>
<pdfrwt beam="1">  1       21 0.30036345E+00 0.10548356E+04</pdfrwt>
<pdfrwt beam="2">  1        4 0.39993124E-01 0.10548356E+04</pdfrwt>
<totfact> 0.63706565E+00</totfact>
</mgrwt>
</event>
<event>
 6    1  0.1412458E-005  0.1087854E+04  0.7818608E-02  0.9456982E-01
         21   -1    0    0  501  502  0.00000000000E+00  0.00000000000E+00  0.17656293214E+04  0.17656293214E+04  0.00000000000E+00 0. -1.
          4   -1    0    0  502    0 -0.00000000000E+00 -0.00000000000E+00 -0.33791093091E+03  0.33791093091E+03  0.00000000000E+00 0.  1.
    9000010    2    1    2  501    0  0.45480618674E+03 -0.32563681452E+02  0.97102926688E+03  0.14581922628E+04  0.98768303478E+03 0.  0.
        -13    1    3    3    0    0  0.53511108457E+03 -0.38529970497E+03  0.36842598938E+03  0.75533929879E+03  0.10566000000E+00 0.  1.
          4    1    3    3  501    0 -0.80304897828E+02  0.35273602352E+03  0.60260327750E+03  0.70285296397E+03  0.00000000000E+00 0.  1.
         13    1    1    2    0    0 -0.45480618674E+03  0.32563681452E+02  0.45668912363E+03  0.64534798958E+03  0.10566000000E+00 0. -1.
<mgrwt>
<rscale>  1 0.87531075E+03</rscale>
<asrwt>0</asrwt>
<pdfrwt beam="1">  1       21 0.27163527E+00 0.10878542E+04</pdfrwt>
<pdfrwt beam="2">  1        4 0.51986298E-01 0.10878542E+04</pdfrwt>
<totfact> 0.55478594E+00</totfact>
</mgrwt>
</event>
<event>
 6    1  0.1412458E-005  0.1111708E+04  0.7818608E-02  0.9539772E-01
          4   -1    0    0  502    0 -0.00000000000E+00  0.00000000000E+00  0.55772737408E+03  0.55772737408E+03  0.00000000000E+00 0.  1.
         21   -1    0    0  501  502  0.00000000000E+00 -0.00000000000E+00 -0.95771189964E+03  0.95771189964E+03  0.00000000000E+00 0.  1.
    9000010    2    1    2  501    0  0.20525079651E+03  0.24519118575E+03 -0.17724892828E+03  0.11257499558E+04  0.10647296245E+04 0.  0.
        -13    1    3    3    0    0 -0.24307280729E+03 -0.30096252262E+03 -0.16083343878E+03  0.41896328701E+03  0.10566000000E+00 0.  1.
          4    1    3    3  501    0  0.44832360380E+03  0.54615370837E+03 -0.16415489501E+02  0.70678666880E+03  0.00000000000E+00 0.  1.
         13    1    1    2    0    0 -0.20525079651E+03 -0.24519118575E+03 -0.22273559728E+03  0.38968931792E+03  0.10566000000E+00 0. -1.
<mgrwt>
<rscale>  1 0.81414051E+03</rscale>
<asrwt>0</asrwt>
<pdfrwt beam="2">  1       21 0.14734029E+00 0.11117085E+04</pdfrwt>
<pdfrwt beam="1">  1        4 0.85804212E-01 0.11117085E+04</pdfrwt>
<totfact> 0.13121496E+01</totfact>
</mgrwt>
</event>
<event>
 6    1  0.1412458E-005  0.1068029E+04  0.7818608E-02  0.9571740E-01
         21   -1    0    0  501  502  0.00000000000E+00  0.00000000000E+00  0.42148456482E+03  0.42148456482E+03  0.00000000000E+00 0.  1.
          4   -1    0    0  502    0 -0.00000000000E+00 -0.00000000000E+00 -0.12976235466E+04  0.12976235466E+04  0.00000000000E+00 0.  1.
    9000010    2    1    2  501    0 -0.46720691701E+02 -0.31948612497E+03 -0.39306594332E+03  0.11380626926E+04  0.10180528716E+04 0.  0.
        -13    1    3    3    0    0  0.82124811281E+02 -0.51913724777E+03  0.14891479378E+03  0.54628160652E+03  0.10566000000E+00 0.  1.
          4    1    3    3  501    0 -0.12884550298E+03  0.19965112280E+03 -0.54198073710E+03  0.59178108609E+03  0.00000000000E+00 0.  1.
         13    1    1    2    0    0  0.46720691701E+02  0.31948612497E+03 -0.48307303849E+03  0.58104541884E+03  0.10566000000E+00 0. -1.
<mgrwt>
<rscale>  1 0.79195221E+03</rscale>
<asrwt>0</asrwt>
<pdfrwt beam="1">  1       21 0.64843780E-01 0.10680290E+04</pdfrwt>
<pdfrwt beam="2">  1        4 0.19963439E+00 0.10680290E+04</pdfrwt>
<totfact> 0.11113920E+01</totfact>
</mgrwt>
</event>
<event>
 6    1  0.1412458E-005  0.1034916E+04  0.7818608E-02  0.9752150E-01
          4   -1    0    0  502    0 -0.00000000000E+00  0.00000000000E+00  0.56907378817E+03  0.56907378817E+03  0.00000000000E+00 0.  1.
         21   -1    0    0  501  502  0.00000000000E+00 -0.00000000000E+00 -0.70634019426E+03  0.70634019426E+03  0.00000000000E+00 0.  1.
    9000010    2    1    2  501    0 -0.18789459432E+03 -0.43378664404E+02  0.64124265640E+01  0.10349359061E+04  0.10167915830E+04 0.  0.
        -13    1    3    3    0    0  0.29080380362E+03 -0.35697313323E+03  0.36495868789E+02  0.46187512344E+03  0.10566000000E+00 0.  1.
          4    1    3    3  501    0 -0.47869839794E+03  0.31359446883E+03 -0.30083442225E+02  0.57306078261E+03  0.00000000000E+00 0.  1.
         13    1    1    2    0    0  0.18789459432E+03  0.43378664404E+02 -0.14367883265E+03  0.24047807637E+03  0.10566000000E+00 0. -1.
<mgrwt>
<rscale>  1 0.67994920E+03</rscale>
<asrwt>0</asrwt>
<pdfrwt beam="2">  1       21 0.10866772E+00 0.10349160E+04</pdfrwt>
<pdfrwt beam="1">  1        4 0.87549814E-01 0.10349160E+04</pdfrwt>
<totfact> 0.28209812E+01</totfact>
</mgrwt>
</event>
<event>
 6    1  0.1412458E-005  0.1023226E+04  0.7818608E-02  0.9736348E-01
          4   -1    0    0  502    0 -0.00000000000E+00  0.00000000000E+00  0.59826890664E+03  0.59826890664E+03  0.00000000000E+00 0.  1.
         21   -1    0    0  501  502  0.00000000000E+00 -0.00000000000E+00 -0.63720444425E+03  0.63720444425E+03  0.00000000000E+00 0.  1.
    9000010    2    1    2  501    0 -0.20819843475E+03  0.29494832349E+02 -0.54055298877E+02  0.10246531628E+04  0.10013868360E+04 0.  0.
        -13    1    3    3    0    0  0.11836067193E+03  0.23161044802E+03 -0.42010267180E+03  0.49410415330E+03  0.10566000000E+00 0.  1.
          4    1    3    3  501    0 -0.32655910667E+03 -0.20211561568E+03  0.36604737292E+03  0.53054900949E+03  0.00000000000E+00 0.  1.
         13    1    1    2    0    0  0.20819843475E+03 -0.29494832349E+02  0.15119761257E+02  0.21082018810E+03  0.10566000000E+00 0. -1.
<mgrwt>
<rscale>  1 0.68893283E+03</rscale>
<asrwt>0</asrwt>
<pdfrwt beam="2">  1       21 0.98031453E-01 0.10232263E+04</pdfrwt>
<pdfrwt beam="1">  1        4 0.92041370E-01 0.10232263E+04</pdfrwt>
<totfact> 0.32484618E+01</totfact>
</mgrwt>
</event>
<event>
 6    1  0.1412458E-005  0.1035768E+04  0.7818608E-02  0.9879968E-01
         21   -1    0    0  501  502  0.00000000000E+00  0.00000000000E+00  0.14097441175E+04  0.14097441175E+04  0.00000000000E+00 0.  1.
          4   -1    0    0  502    0 -0.00000000000E+00 -0.00000000000E+00 -0.38921307663E+03  0.38921307663E+03  0.00000000000E+00 0.  1.
    9000010    2    1    2  501    0  0.67762900255E+02 -0.10692999951E+03  0.11962736481E+04  0.15823670037E+04  0.10280023627E+04 0.  0.
        -13    1    3    3    0    0 -0.46183386732E+03  0.59563994871E+02  0.41373218706E+03  0.62290667380E+03  0.10566000000E+00 0.  1.
          4    1    3    3  501    0  0.52959676758E+03 -0.16649399438E+03  0.78254146105E+03  0.95946032990E+03  0.00000000000E+00 0.  1.
         13    1    1    2    0    0 -0.67762900255E+02  0.10692999951E+03 -0.17574260721E+03  0.21659019045E+03  0.10566000000E+00 0. -1.
<mgrwt>
<rscale>  1 0.61242004E+03</rscale>
<asrwt>0</asrwt>
<pdfrwt beam="1">  1       21 0.21688371E+00 0.10357677E+04</pdfrwt>
<pdfrwt beam="2">  1        4 0.59878936E-01 0.10357677E+04</pdfrwt>
<totfact> 0.92693974E+00</totfact>
</mgrwt>
</event>
<event>
 6    1  0.1412458E-005  0.1097937E+04  0.7818608E-02  0.9455189E-01
          4   -1    0    0  502    0 -0.00000000000E+00  0.00000000000E+00  0.14076921972E+04  0.14076921972E+04  0.00000000000E+00 0.  1.
         21   -1    0    0  501  502  0.00000000000E+00 -0.00000000000E+00 -0.47235603718E+03  0.47235603718E+03  0.00000000000E+00 0.  1.
    9000010    2    1    2  501    0  0.30841012194E+03 -0.32265033288E+03  0.36754151603E+03  0.11578219475E+04  0.10031175681E+04 0.  0.
        -13    1    3    3    0    0  0.47253169629E+03  0.16444097352E+03  0.40322554544E+03  0.64258687306E+03  0.10566000000E+00 0.  1.
          4    1    3    3  501    0 -0.16412157435E+03 -0.48709130639E+03 -0.35684029410E+02  0.51523507439E+03  0.00000000000E+00 0.  1.
         13    1    1    2    0    0 -0.30841012194E+03  0.32265033288E+03  0.56779464403E+03  0.72222628695E+03  0.10566000000E+00 0. -1.
<mgrwt>
<rscale>  1 0.87669715E+03</rscale>
<asrwt>0</asrwt>
<pdfrwt beam="2">  1       21 0.72670160E-01 0.10979367E+04</pdfrwt>
<pdfrwt beam="1">  1        4 0.21656803E+00 0.10979367E+04</pdfrwt>
<totfact> 0.66181930E+00</totfact>
</mgrwt>
</event>
<event>
 6    1  0.1412458E-005  0.9961730E+03  0.7818608E-02  0.9756435E-01
          4   -1    0    0  502    0 -0.00000000000E+00  0.00000000000E+00  0.15747366497E+04  0.15747366497E+04  0.00000000000E+00 0.  1.
         21   -1    0    0  501  502  0.00000000000E+00 -0.00000000000E+00 -0.27045097847E+03  0.27045097847E+03  0.00000000000E+00 0.  1.
    9000010    2    1    2  501    0  0.19440476216E+03  0.87459643264E+02  0.73698052456E+03  0.12391533541E+04  0.97309729249E+03 0.  0.
        -13    1    3    3    0    0  0.37698191625E+03 -0.35461726049E+03  0.39863513217E+03  0.65328305226E+03  0.10566000000E+00 0.  1.
          4    1    3    3  501    0 -0.18257715409E+03  0.44207690375E+03  0.33834539239E+03  0.58587030184E+03  0.00000000000E+00 0.  1.
         13    1    1    2    0    0 -0.19440476216E+03 -0.87459643264E+02  0.56730514665E+03  0.60603427406E+03  0.10566000000E+00 0. -1.
<mgrwt>
<rscale>  1 0.67753816E+03</rscale>
<asrwt>0</asrwt>
<pdfrwt beam="2">  1       21 0.41607844E-01 0.99617305E+03</pdfrwt>
<pdfrwt beam="1">  1        4 0.24226717E+00 0.99617305E+03</pdfrwt>
<totfact> 0.15727090E+01</totfact>
</mgrwt>
</event>
<event>
 6    1  0.1412458E-005  0.1047667E+04  0.7818608E-02  0.9563876E-01
         21   -1    0    0  501  502  0.00000000000E+00  0.00000000000E+00  0.26761448269E+04  0.26761448269E+04  0.00000000000E+00 0.  1.
          4   -1    0    0  502    0 -0.00000000000E+00 -0.00000000000E+00 -0.26573049655E+03  0.26573049655E+03  0.00000000000E+00 0.  1.
    9000010    2    1    2  501    0 -0.29925636207E+03 -0.18435269634E+03  0.23660240068E+04  0.25876002906E+04  0.98694750431E+03 0.  0.
        -13    1    3    3    0    0  0.42166944263E+02  0.31798903265E+03  0.31909093305E+03  0.45245343495E+03  0.10566000000E+00 0.  1.
          4    1    3    3  501    0 -0.34142330633E+03 -0.50234172900E+03  0.20469330738E+04  0.21351468557E+04  0.00000000000E+00 0.  1.
         13    1    1    2    0    0  0.29925636207E+03  0.18435269634E+03  0.44390323508E+02  0.35427503281E+03  0.10566000000E+00 0. -1.
<mgrwt>
<rscale>  1 0.79733983E+03</rscale>
<asrwt>0</asrwt>
<pdfrwt beam="1">  1       21 0.41171457E+00 0.10476668E+04</pdfrwt>
<pdfrwt beam="2">  1        4 0.40881617E-01 0.10476668E+04</pdfrwt>
<totfact> 0.11888249E+00</totfact>
</mgrwt>
</event>
<event>
 6    1  0.1412458E-005  0.9987541E+03  0.7818608E-02  0.9860480E-01
         21   -1    0    0  501  502  0.00000000000E+00  0.00000000000E+00  0.19256515727E+04  0.19256515727E+04  0.00000000000E+00 0.  1.
          4   -1    0    0  502    0 -0.00000000000E+00 -0.00000000000E+00 -0.27564961473E+03  0.27564961473E+03  0.00000000000E+00 0.  1.
    9000010    2    1    2  501    0  0.11963063171E+03  0.91133724202E+02  0.17540237656E+04  0.20184422491E+04  0.98736664854E+03 0.  0.
        -13    1    3    3    0    0 -0.11952781707E+03 -0.24500359487E+03  0.15197945622E+04  0.15440496051E+04  0.10566000000E+00 0.  1.
          4    1    3    3  501    0  0.23915844878E+03  0.33613731908E+03  0.23422920343E+03  0.47439264395E+03  0.00000000000E+00 0.  1.
         13    1    1    2    0    0 -0.11963063171E+03 -0.91133724202E+02 -0.10402180763E+03  0.18285893841E+03  0.10566000000E+00 0. -1.
<mgrwt>
<rscale>  1 0.62215408E+03</rscale>
<asrwt>0</asrwt>
<pdfrwt beam="1">  1       21 0.29625408E+00 0.99875410E+03</pdfrwt>
<pdfrwt beam="2">  1        4 0.42407634E-01 0.99875410E+03</pdfrwt>
<totfact> 0.60506303E+00</totfact>
</mgrwt>
</event>
<event>
 6    1  0.1412458E-005  0.1022291E+04  0.7818608E-02  0.9706019E-01
         21   -1    0    0  501  502  0.00000000000E+00  0.00000000000E+00  0.56783618788E+03  0.56783618788E+03  0.00000000000E+00 0.  1.
          4   -1    0    0  502    0 -0.00000000000E+00 -0.00000000000E+00 -0.96297917535E+03  0.96297917535E+03  0.00000000000E+00 0.  1.
    9000010    2    1    2  501    0 -0.21997063002E+03 -0.77800578009E+02  0.55027569907E+02  0.10237714303E+04  0.99530894705E+03 0.  0.
        -13    1    3    3    0    0 -0.17719666622E+03 -0.51815517904E+03  0.15713451188E+03  0.56971459001E+03  0.10566000000E+00 0.  1.
          4    1    3    3  501    0 -0.42773963795E+02  0.44035460103E+03 -0.10210694197E+03  0.45405684031E+03  0.00000000000E+00 0.  1.
         13    1    1    2    0    0  0.21997063002E+03  0.77800578009E+02 -0.45017055737E+03  0.50704393291E+03  0.10566000000E+00 0. -1.
<mgrwt>
<rscale>  1 0.70659546E+03</rscale>
<asrwt>0</asrwt>
<pdfrwt beam="1">  1       21 0.87359415E-01 0.10222915E+04</pdfrwt>
<pdfrwt beam="2">  1        4 0.14815064E+00 0.10222915E+04</pdfrwt>
<totfact> 0.13036850E+01</totfact>
</mgrwt>
</event>
<event>
 6    1  0.1412458E-005  0.9502066E+03  0.7818608E-02  0.9674508E-01
          4   -1    0    0  502    0 -0.00000000000E+00  0.00000000000E+00  0.94144484475E+03  0.94144484475E+03  0.00000000000E+00 0.  1.
         21   -1    0    0  501  502  0.00000000000E+00 -0.00000000000E+00 -0.43661709835E+03  0.43661709835E+03  0.00000000000E+00 0.  1.
    9000010    2    1    2  501    0  0.72878995547E+02 -0.31468149120E+03  0.44627383519E+03  0.10497871183E+04  0.89362009206E+03 0.  0.
        -13    1    3    3    0    0 -0.30128687462E+03 -0.37922589292E+03  0.46257197411E+03  0.66974540019E+03  0.10566000000E+00 0.  1.
          4    1    3    3  501    0  0.37416587017E+03  0.64544401720E+02 -0.16298138927E+02  0.38004171814E+03  0.00000000000E+00 0.  1.
         13    1    1    2    0    0 -0.72878995547E+02  0.31468149120E+03  0.58553911213E+02  0.32827482477E+03  0.10566000000E+00 0. -1.
<mgrwt>
<rscale>  1 0.72555071E+03</rscale>
<asrwt>0</asrwt>
<pdfrwt beam="2">  1       21 0.67171862E-01 0.95020664E+03</pdfrwt>
<pdfrwt beam="1">  1        4 0.14483767E+00 0.95020664E+03</pdfrwt>
<totfact> 0.25747695E+01</totfact>
</mgrwt>
</event>
<event>
 6    1  0.1412458E-005  0.1111750E+04  0.7818608E-02  0.9422322E-01
         21   -1    0    0  501  502  0.00000000000E+00  0.00000000000E+00  0.20414986467E+04  0.20414986467E+04  0.00000000000E+00 0.  1.
          4   -1    0    0  502    0 -0.00000000000E+00 -0.00000000000E+00 -0.36454165370E+03  0.36454165370E+03  0.00000000000E+00 0.  1.
    9000010    2    1    2  501    0  0.16561678125E+03  0.45376208771E+03  0.15484043402E+04  0.19061855753E+04  0.10013283659E+04 0.  0.
        -13    1    3    3    0    0  0.32781136229E+03  0.26104871651E+03  0.15957800032E+04  0.16498850115E+04  0.10566000000E+00 0.  1.
          4    1    3    3  501    0 -0.16219458104E+03  0.19271337120E+03 -0.47375662987E+02  0.25630056379E+03  0.00000000000E+00 0.  1.
         13    1    1    2    0    0 -0.16561678125E+03 -0.45376208771E+03  0.12855265284E+03  0.49985472509E+03  0.10566000000E+00 0. -1.
<mgrwt>
<rscale>  1 0.90261252E+03</rscale>
<asrwt>0</asrwt>
<pdfrwt beam="1">  1       21 0.31407671E+00 0.11117497E+04</pdfrwt>
<pdfrwt beam="2">  1        4 0.56083333E-01 0.11117497E+04</pdfrwt>
<totfact> 0.25511360E+00</totfact>
</mgrwt>
</event>
<event>
 6    1  0.1412458E-005  0.1011989E+04  0.7818608E-02  0.9731231E-01
         21   -1    0    0  501  502  0.00000000000E+00  0.00000000000E+00  0.68614906855E+03  0.68614906855E+03  0.00000000000E+00 0.  1.
          4   -1    0    0  502    0 -0.00000000000E+00 -0.00000000000E+00 -0.11657973605E+04  0.11657973605E+04  0.00000000000E+00 0.  1.
    9000010    2    1    2  501    0 -0.13475127360E+03  0.17528593622E+03  0.28874571136E+03  0.10523762816E+04  0.98754173944E+03 0.  0.
        -13    1    3    3    0    0 -0.12515776554E+03 -0.35709344685E+03  0.35120366618E+03  0.51625983996E+03  0.10566000000E+00 0.  1.
          4    1    3    3  501    0 -0.95935080623E+01  0.53237938306E+03 -0.62457954820E+02  0.53611644167E+03  0.00000000000E+00 0.  1.
         13    1    1    2    0    0  0.13475127360E+03 -0.17528593622E+03 -0.76839400330E+03  0.79957014742E+03  0.10566000000E+00 0. -1.
<mgrwt>
<rscale>  1 0.69187345E+03</rscale>
<asrwt>0</asrwt>
<pdfrwt beam="1">  1       21 0.10556140E+00 0.10119890E+04</pdfrwt>
<pdfrwt beam="2">  1        4 0.17935344E+00 0.10119890E+04</pdfrwt>
<totfact> 0.48254555E+00</totfact>
</mgrwt>
</event>
<event>
 6    1  0.1412458E-005  0.1036278E+04  0.7818608E-02  0.1014119E+00
         21   -1    0    0  501  502  0.00000000000E+00  0.00000000000E+00  0.32070346155E+03  0.32070346155E+03  0.00000000000E+00 0.  1.
          4   -1    0    0  502    0 -0.00000000000E+00 -0.00000000000E+00 -0.11040070247E+04  0.11040070247E+04  0.00000000000E+00 0.  1.
    9000010    2    1    2  501    0 -0.10059499793E+02  0.54663264900E+02 -0.52725657770E+03  0.11627003033E+04  0.10347865627E+04 0.  0.
        -13    1    3    3    0    0  0.30655901298E+03  0.36407922635E+03 -0.54000059020E+03  0.71981439280E+03  0.10566000000E+00 0.  1.
          4    1    3    3  501    0 -0.31661851277E+03 -0.30941596145E+03  0.12744012503E+02  0.44288591046E+03  0.00000000000E+00 0.  1.
         13    1    1    2    0    0  0.10059499793E+02 -0.54663264900E+02 -0.25604698541E+03  0.26201018294E+03  0.10566000000E+00 0. -1.
<mgrwt>
<rscale>  1 0.49870001E+03</rscale>
<asrwt>0</asrwt>
<pdfrwt beam="1">  1       21 0.49338995E-01 0.10362782E+04</pdfrwt>
<pdfrwt beam="2">  1        4 0.16984723E+00 0.10362782E+04</pdfrwt>
<totfact> 0.32726571E+01</totfact>
</mgrwt>
</event>
<event>
 6    1  0.1412458E-005  0.1046620E+04  0.7818608E-02  0.9581077E-01
         21   -1    0    0  501  502  0.00000000000E+00  0.00000000000E+00  0.41546365515E+03  0.41546365515E+03  0.00000000000E+00 0.  1.
          4   -1    0    0  502    0 -0.00000000000E+00 -0.00000000000E+00 -0.16308713613E+04  0.16308713613E+04  0.00000000000E+00 0.  1.
    9000010    2    1    2  501    0  0.35929748544E+02  0.33030448832E+03 -0.32494079454E+03  0.10959017817E+04  0.99248284287E+03 0.  0.
        -13    1    3    3    0    0  0.20634032930E+03 -0.19359826418E+03  0.19078689070E+03  0.34125689475E+03  0.10566000000E+00 0.  1.
          4    1    3    3  501    0 -0.17041058076E+03  0.52390275250E+03 -0.51572768524E+03  0.75464488697E+03  0.00000000000E+00 0.  1.
         13    1    1    2    0    0 -0.35929748544E+02 -0.33030448832E+03 -0.89046691157E+03  0.95043323469E+03  0.10566000000E+00 0. -1.
<mgrwt>
<rscale>  1 0.78561378E+03</rscale>
<asrwt>0</asrwt>
<pdfrwt beam="1">  1       21 0.63917485E-01 0.10466204E+04</pdfrwt>
<pdfrwt beam="2">  1        4 0.25090329E+00 0.10466204E+04</pdfrwt>
<totfact> 0.54282685E+00</totfact>
</mgrwt>
</event>
<event>
 6    1  0.1412458E-005  0.1395008E+04  0.7818608E-02  0.9050451E-01
          4   -1    0    0  502    0 -0.00000000000E+00  0.00000000000E+00  0.10090978275E+04  0.10090978275E+04  0.00000000000E+00 0.  1.
         21   -1    0    0  501  502  0.00000000000E+00 -0.00000000000E+00 -0.14311351003E+04  0.14311351003E+04  0.00000000000E+00 0. -1.
    9000010    2    1    2  501    0  0.37775393937E+03  0.89380612512E+03 -0.34734745664E+02  0.13954407539E+04  0.10022280015E+04 0.  0.
        -13    1    3    3    0    0 -0.20116469358E+03 -0.11357077611E+03 -0.34454025983E+02  0.23356507915E+03  0.10566000000E+00 0.  1.
          4    1    3    3  501    0  0.57891863295E+03  0.10073769012E+04 -0.28071968082E+00  0.11618756747E+04  0.00000000000E+00 0.  1.
         13    1    1    2    0    0 -0.37775393937E+03 -0.89380612512E+03 -0.38730252708E+03  0.10447921739E+04  0.10566000000E+00 0. -1.
<mgrwt>
<rscale>  1 0.12739877E+04</rscale>
<asrwt>0</asrwt>
<pdfrwt beam="2">  1       21 0.22017463E+00 0.13950084E+04</pdfrwt>
<pdfrwt beam="1">  1        4 0.15524582E+00 0.13950084E+04</pdfrwt>
<totfact> 0.84146173E-01</totfact>
</mgrwt>
</event>
<event>
 6    1  0.1412458E-005  0.1049373E+04  0.7818608E-02  0.9578635E-01
         21   -1    0    0  501  502  0.00000000000E+00  0.00000000000E+00  0.81153870386E+03  0.81153870386E+03  0.00000000000E+00 0.  1.
          4   -1    0    0  502    0 -0.00000000000E+00 -0.00000000000E+00 -0.62117830687E+03  0.62117830687E+03  0.00000000000E+00 0.  1.
    9000010    2    1    2  501    0  0.28906884979E+03  0.16415262563E+03  0.28443068952E+03  0.10872374664E+04  0.99532788913E+03 0.  0.
        -13    1    3    3    0    0  0.49580738139E+03  0.40362290338E+03  0.39570136185E+03  0.75187498063E+03  0.10566000000E+00 0.  1.
          4    1    3    3  501    0 -0.20673853160E+03 -0.23947027775E+03 -0.11127067232E+03  0.33536248582E+03  0.00000000000E+00 0.  1.
         13    1    1    2    0    0 -0.28906884979E+03 -0.16415262563E+03 -0.94070292531E+02  0.34547954429E+03  0.10566000000E+00 0. -1.
<mgrwt>
<rscale>  1 0.78726547E+03</rscale>
<asrwt>0</asrwt>
<pdfrwt beam="1">  1       21 0.12485211E+00 0.10493734E+04</pdfrwt>
<pdfrwt beam="2">  1        4 0.95565893E-01 0.10493734E+04</pdfrwt>
<totfact> 0.16018080E+01</totfact>
</mgrwt>
</event>
<event>
 6    1  0.1412458E-005  0.9871076E+03  0.7818608E-02  0.9976498E-01
          4   -1    0    0  502    0 -0.00000000000E+00  0.00000000000E+00  0.72724600045E+03  0.72724600045E+03  0.00000000000E+00 0.  1.
         21   -1    0    0  501  502  0.00000000000E+00 -0.00000000000E+00 -0.18534853286E+04  0.18534853286E+04  0.00000000000E+00 0.  1.
    9000010    2    1    2  501    0 -0.10157655031E+03 -0.34897610757E+02 -0.17168724282E+04  0.19804121566E+04  0.98124703128E+03 0.  0.
        -13    1    3    3    0    0 -0.86285944060E+02 -0.32738887843E+03 -0.16441237791E+04  0.16786219807E+04  0.10566000000E+00 0.  1.
          4    1    3    3  501    0 -0.15290606246E+02  0.29249126767E+03 -0.72748649057E+02  0.30179017585E+03  0.00000000000E+00 0.  1.
         13    1    1    2    0    0  0.10157655031E+03  0.34897610757E+02  0.59063310005E+03  0.60031917248E+03  0.10566000000E+00 0. -1.
<mgrwt>
<rscale>  1 0.56692894E+03</rscale>
<asrwt>0</asrwt>
<pdfrwt beam="2">  1       21 0.28515159E+00 0.98710758E+03</pdfrwt>
<pdfrwt beam="1">  1        4 0.11188400E+00 0.98710758E+03</pdfrwt>
<totfact> 0.80690086E-01</totfact>
</mgrwt>
</event>
<event>
 6    1  0.1412458E-005  0.9620176E+03  0.7818608E-02  0.9742248E-01
         21   -1    0    0  501  502  0.00000000000E+00  0.00000000000E+00  0.23040712094E+04  0.23040712094E+04  0.00000000000E+00 0.  1.
          4   -1    0    0  502    0 -0.00000000000E+00 -0.00000000000E+00 -0.49425148240E+03  0.49425148240E+03  0.00000000000E+00 0.  1.
    9000010    2    1    2  501    0 -0.23598710088E+03  0.76591284711E+02  0.21626649785E+04  0.23669806937E+04  0.92947386117E+03 0.  0.
        -13    1    3    3    0    0 -0.38675310427E+01  0.22343307422E+03  0.20625749961E+04  0.20746452521E+04  0.10566000000E+00 0.  1.
          4    1    3    3  501    0 -0.23211956983E+03 -0.14684178951E+03  0.10008998240E+03  0.29233544161E+03  0.00000000000E+00 0.  1.
         13    1    1    2    0    0  0.23598710088E+03 -0.76591284711E+02 -0.35284525147E+03  0.43134199810E+03  0.10566000000E+00 0. -1.
<mgrwt>
<rscale>  1 0.68556112E+03</rscale>
<asrwt>0</asrwt>
<pdfrwt beam="1">  1       21 0.35447249E+00 0.96201756E+03</pdfrwt>
<pdfrwt beam="2">  1        4 0.76038691E-01 0.96201756E+03</pdfrwt>
<totfact> 0.74767327E-01</totfact>
</mgrwt>
</event>
<event>
 6    1  0.1412458E-005  0.9539823E+03  0.7818608E-02  0.9924612E-01
         21   -1    0    0  501  502  0.00000000000E+00  0.00000000000E+00  0.17259798114E+04  0.17259798114E+04  0.00000000000E+00 0.  1.
          4   -1    0    0  502    0 -0.00000000000E+00 -0.00000000000E+00 -0.17786843537E+03  0.17786843537E+03  0.00000000000E+00 0.  1.
    9000010    2    1    2  501    0  0.91899587052E+01 -0.14005565353E+03  0.14370056159E+04  0.17248383517E+04  0.94360063480E+03 0.  0.
        -13    1    3    3    0    0  0.85518388349E+01  0.38025886105E+03  0.90017025831E+03  0.97722896010E+03  0.10566000000E+00 0.  1.
          4    1    3    3  501    0  0.63811987031E+00 -0.52031451458E+03  0.53683535760E+03  0.74760939163E+03  0.00000000000E+00 0.  1.
         13    1    1    2    0    0 -0.91899587052E+01  0.14005565353E+03  0.11110576012E+03  0.17900989504E+03  0.10566000000E+00 0. -1.
<mgrwt>
<rscale>  1 0.59083152E+03</rscale>
<asrwt>0</asrwt>
<pdfrwt beam="1">  1       21 0.26553535E+00 0.95398228E+03</pdfrwt>
<pdfrwt beam="2">  1        4 0.27364376E-01 0.95398228E+03</pdfrwt>
<totfact> 0.22673854E+01</totfact>
</mgrwt>
</event>
<event>
 6    1  0.1412458E-005  0.1124428E+04  0.7818608E-02  0.9355360E-01
         21   -1    0    0  501  502  0.00000000000E+00  0.00000000000E+00  0.48903484407E+03  0.48903484407E+03  0.00000000000E+00 0. -1.
          4   -1    0    0  502    0 -0.00000000000E+00 -0.00000000000E+00 -0.17291092522E+04  0.17291092522E+04  0.00000000000E+00 0.  1.
    9000010    2    1    2  501    0 -0.51411492198E+03  0.29655942569E+03 -0.11663001580E+04  0.16200602417E+04  0.95502747714E+03 0.  0.
        -13    1    3    3    0    0 -0.49269853052E+03  0.60821207749E+03 -0.98760703922E+03  0.12601751657E+04  0.10566000000E+00 0.  1.
          4    1    3    3  501    0 -0.21416391457E+02 -0.31165265180E+03 -0.17869311879E+03  0.35988507596E+03  0.00000000000E+00 0.  1.
         13    1    1    2    0    0  0.51411492198E+03 -0.29655942569E+03 -0.73774250088E+02  0.59808385458E+03  0.10566000000E+00 0. -1.
<mgrwt>
<rscale>  1 0.95842265E+03</rscale>
<asrwt>0</asrwt>
<pdfrwt beam="1">  1       21 0.75236129E-01 0.11244284E+04</pdfrwt>
<pdfrwt beam="2">  1        4 0.26601681E+00 0.11244284E+04</pdfrwt>
<totfact> 0.29826496E+00</totfact>
</mgrwt>
</event>
<event>
 6    1  0.1412458E-005  0.1058947E+04  0.7818608E-02  0.9543609E-01
         21   -1    0    0  501  502  0.00000000000E+00  0.00000000000E+00  0.33794970876E+03  0.33794970876E+03  0.00000000000E+00 0.  1.
          4   -1    0    0  502    0 -0.00000000000E+00 -0.00000000000E+00 -0.15038673623E+04  0.15038673623E+04  0.00000000000E+00 0.  1.
    9000010    2    1    2  501    0 -0.27536436255E+03  0.23971240677E+03 -0.82617911238E+03  0.13431088822E+04  0.99402312530E+03 0.  0.
        -13    1    3    3    0    0 -0.44153111242E+03  0.33823580687E+03 -0.95903912712E+03  0.11086519935E+04  0.10566000000E+00 0.  1.
          4    1    3    3  501    0  0.16616674988E+03 -0.98523400096E+02  0.13286001473E+03  0.23445688867E+03  0.00000000000E+00 0.  1.
         13    1    1    2    0    0  0.27536436255E+03 -0.23971240677E+03 -0.33973854118E+03  0.49870818887E+03  0.10566000000E+00 0. -1.
<mgrwt>
<rscale>  1 0.81143642E+03</rscale>
<asrwt>0</asrwt>
<pdfrwt beam="1">  1       21 0.51992262E-01 0.10589474E+04</pdfrwt>
<pdfrwt beam="2">  1        4 0.23136421E+00 0.10589474E+04</pdfrwt>
<totfact> 0.11341649E+01</totfact>
</mgrwt>
</event>
<event>
 6    1  0.1412458E-005  0.1005940E+04  0.7818608E-02  0.9889578E-01
          4   -1    0    0  502    0 -0.00000000000E+00  0.00000000000E+00  0.57395300346E+03  0.57395300346E+03  0.00000000000E+00 0.  1.
         21   -1    0    0  501  502  0.00000000000E+00 -0.00000000000E+00 -0.66271700170E+03  0.66271700170E+03  0.00000000000E+00 0.  1.
    9000010    2    1    2  501    0 -0.86595780456E+02 -0.10222318701E+03 -0.24046352725E+03  0.10342813508E+04  0.99697883403E+03 0.  0.
        -13    1    3    3    0    0  0.35680410421E+03  0.23828587997E+03 -0.88679193448E+01  0.42914797044E+03  0.10566000000E+00 0.  1.
          4    1    3    3  501    0 -0.44339988466E+03 -0.34050906698E+03 -0.23159560791E+03  0.60513338035E+03  0.00000000000E+00 0.  1.
         13    1    1    2    0    0  0.86595780456E+02  0.10222318701E+03  0.15169952901E+03  0.20238865438E+03  0.10566000000E+00 0. -1.
<mgrwt>
<rscale>  1 0.60769033E+03</rscale>
<asrwt>0</asrwt>
<pdfrwt beam="2">  1       21 0.10195646E+00 0.10059400E+04</pdfrwt>
<pdfrwt beam="1">  1        4 0.88300462E-01 0.10059400E+04</pdfrwt>
<totfact> 0.32544532E+01</totfact>
</mgrwt>
</event>
<event>
 6    1  0.1412458E-005  0.1004962E+04  0.7818608E-02  0.9833905E-01
         21   -1    0    0  501  502  0.00000000000E+00  0.00000000000E+00  0.27197853323E+03  0.27197853323E+03  0.00000000000E+00 0.  1.
          4   -1    0    0  502    0 -0.00000000000E+00 -0.00000000000E+00 -0.13377139091E+04  0.13377139091E+04  0.00000000000E+00 0.  1.
    9000010    2    1    2  501    0  0.14757719384E+03  0.64220905555E+02 -0.74549660393E+03  0.12512845252E+04  0.99199013284E+03 0.  0.
        -13    1    3    3    0    0 -0.40843825124E+03 -0.10676146445E+03 -0.34238639941E+03  0.54355153669E+03  0.10566000000E+00 0.  1.
          4    1    3    3  501    0  0.55601544508E+03  0.17098237000E+03 -0.40311020452E+03  0.70773298850E+03  0.00000000000E+00 0.  1.
         13    1    1    2    0    0 -0.14757719384E+03 -0.64220905555E+02 -0.32023877190E+03  0.35840791711E+03  0.10566000000E+00 0. -1.
<mgrwt>
<rscale>  1 0.63574304E+03</rscale>
<asrwt>0</asrwt>
<pdfrwt beam="1">  1       21 0.41842852E-01 0.10049616E+04</pdfrwt>
<pdfrwt beam="2">  1        4 0.20580213E+00 0.10049616E+04</pdfrwt>
<totfact> 0.26475238E+01</totfact>
</mgrwt>
</event>
<event>
 6    1  0.1412458E-005  0.1339932E+04  0.7818608E-02  0.9105453E-01
         21   -1    0    0  501  502  0.00000000000E+00  0.00000000000E+00  0.11594763847E+04  0.11594763847E+04  0.00000000000E+00 0. -1.
          4   -1    0    0  502    0 -0.00000000000E+00 -0.00000000000E+00 -0.10706696292E+04  0.10706696292E+04  0.00000000000E+00 0.  1.
    9000010    2    1    2  501    0 -0.86960954443E+03  0.17277655189E+03  0.97765904807E+02  0.13434934471E+04  0.10046611238E+04 0.  0.
        -13    1    3    3    0    0 -0.10394957365E+04  0.10672198965E+03 -0.12862192233E+03  0.10528459428E+04  0.10566000000E+00 0.  1.
          4    1    3    3  501    0  0.16988619207E+03  0.66054562244E+02  0.22638782714E+03  0.29064750425E+03  0.00000000000E+00 0.  1.
         13    1    1    2    0    0  0.86960954443E+03 -0.17277655189E+03 -0.89591492792E+01  0.88665256677E+03  0.10566000000E+00 0. -1.
<mgrwt>
<rscale>  1 0.12084948E+04</rscale>
<asrwt>0</asrwt>
<pdfrwt beam="1">  1       21 0.17838098E+00 0.13399315E+04</pdfrwt>
<pdfrwt beam="2">  1        4 0.16471840E+00 0.13399315E+04</pdfrwt>
<totfact> 0.14078616E+00</totfact>
</mgrwt>
</event>
<event>
 6    1  0.1412458E-005  0.7622889E+03  0.7818608E-02  0.1000006E+00
          4   -1    0    0  502    0 -0.00000000000E+00  0.00000000000E+00  0.34915623909E+03  0.34915623909E+03  0.00000000000E+00 0.  1.
         21   -1    0    0  501  502  0.00000000000E+00 -0.00000000000E+00 -0.14201753880E+04  0.14201753880E+04  0.00000000000E+00 0.  1.
    9000010    2    1    2  501    0 -0.21493447828E+03 -0.25855298723E+02 -0.12661328309E+04  0.14778960656E+04  0.73090294093E+03 0.  0.
        -13    1    3    3    0    0  0.27331905082E+03 -0.98940800982E+01 -0.47365737011E+03  0.54694836300E+03  0.10566000000E+00 0.  1.
          4    1    3    3  501    0 -0.48825352910E+03 -0.15961218625E+02 -0.79247546074E+03  0.93094770265E+03  0.00000000000E+00 0.  1.
         13    1    1    2    0    0  0.21493447828E+03  0.25855298723E+02  0.19511368195E+03  0.29143556145E+03  0.10566000000E+00 0. -1.
<mgrwt>
<rscale>  1 0.55647567E+03</rscale>
<asrwt>0</asrwt>
<pdfrwt beam="2">  1       21 0.21848852E+00 0.76228894E+03</pdfrwt>
<pdfrwt beam="1">  1        4 0.53716344E-01 0.76228894E+03</pdfrwt>
<totfact> 0.11931180E+01</totfact>
</mgrwt>
</event>
<event>
 6    1  0.1412458E-005  0.1051387E+04  0.7818608E-02  0.9613710E-01
          4   -1    0    0  502    0 -0.00000000000E+00  0.00000000000E+00  0.85559463355E+03  0.85559463355E+03  0.00000000000E+00 0.  1.
         21   -1    0    0  501  502  0.00000000000E+00 -0.00000000000E+00 -0.11584078673E+04  0.11584078673E+04  0.00000000000E+00 0.  1.
    9000010    2    1    2  501    0  0.23689377960E+03  0.17255406796E+03 -0.87713373722E+03  0.13692253137E+04  0.10097132254E+04 0.  0.
        -13    1    3    3    0    0 -0.64488107819E+02  0.52234321584E+03 -0.69751218508E+03  0.87379883880E+03  0.10566000000E+00 0.  1.
          4    1    3    3  501    0  0.30138188742E+03 -0.34978914788E+03 -0.17962155214E+03  0.49542647489E+03  0.00000000000E+00 0.  1.
         13    1    1    2    0    0 -0.23689377960E+03 -0.17255406796E+03  0.57432050348E+03  0.64477718715E+03  0.10566000000E+00 0. -1.
<mgrwt>
<rscale>  1 0.76395364E+03</rscale>
<asrwt>0</asrwt>
<pdfrwt beam="2">  1       21 0.17821660E+00 0.10513869E+04</pdfrwt>
<pdfrwt beam="1">  1        4 0.13162994E+00 0.10513869E+04</pdfrwt>
<totfact> 0.26774356E+00</totfact>
</mgrwt>
</event>
<event>
 6    1  0.1412458E-005  0.1064468E+04  0.7818608E-02  0.9557108E-01
         21   -1    0    0  501  502  0.00000000000E+00  0.00000000000E+00  0.84299484388E+03  0.84299484388E+03  0.00000000000E+00 0.  1.
          4   -1    0    0  502    0 -0.00000000000E+00 -0.00000000000E+00 -0.11717882123E+04  0.11717882123E+04  0.00000000000E+00 0.  1.
    9000010    2    1    2  501    0  0.34060043670E+03 -0.40727799821E+02  0.45620604507E+03  0.11581083796E+04  0.10076823171E+04 0.  0.
        -13    1    3    3    0    0  0.52940812600E+03  0.14697859965E+02  0.67882906916E+03  0.86098658948E+03  0.10566000000E+00 0.  1.
          4    1    3    3  501    0 -0.18880768930E+03 -0.55425659786E+02 -0.22262302410E+03  0.29712179011E+03  0.00000000000E+00 0.  1.
         13    1    1    2    0    0 -0.34060043670E+03  0.40727799821E+02 -0.78499941346E+03  0.85667467656E+03  0.10566000000E+00 0. -1.
<mgrwt>
<rscale>  1 0.80201287E+03</rscale>
<asrwt>0</asrwt>
<pdfrwt beam="1">  1       21 0.12969151E+00 0.10644675E+04</pdfrwt>
<pdfrwt beam="2">  1        4 0.18027511E+00 0.10644675E+04</pdfrwt>
<totfact> 0.27754599E+00</totfact>
</mgrwt>
</event>
<event>
 6    1  0.1412458E-005  0.9898801E+03  0.7818608E-02  0.9897828E-01
          4   -1    0    0  502    0 -0.00000000000E+00  0.00000000000E+00  0.77182286253E+03  0.77182286253E+03  0.00000000000E+00 0.  1.
         21   -1    0    0  501  502  0.00000000000E+00 -0.00000000000E+00 -0.41126031528E+03  0.41126031528E+03  0.00000000000E+00 0.  1.
    9000010    2    1    2  501    0  0.45347025093E+02 -0.12918395434E+03  0.31829529163E+03  0.10397954295E+04  0.98036615398E+03 0.  0.
        -13    1    3    3    0    0  0.19421102492E+03 -0.11371528180E+03  0.64354566122E+03  0.68176250759E+03  0.10566000000E+00 0.  1.
          4    1    3    3  501    0 -0.14886399983E+03 -0.15468672546E+02 -0.32525036959E+03  0.35803292194E+03  0.00000000000E+00 0.  1.
         13    1    1    2    0    0 -0.45347025093E+02  0.12918395434E+03  0.42267255621E+02  0.14328774828E+03  0.10566000000E+00 0. -1.
<mgrwt>
<rscale>  1 0.60366678E+03</rscale>
<asrwt>0</asrwt>
<pdfrwt beam="2">  1       21 0.63270818E-01 0.98988012E+03</pdfrwt>
<pdfrwt beam="1">  1        4 0.11874198E+00 0.98988012E+03</pdfrwt>
<totfact> 0.49021460E+01</totfact>
</mgrwt>
</event>
<event>
 6    1  0.1412458E-005  0.9718514E+03  0.7818608E-02  0.9792634E-01
         21   -1    0    0  501  502  0.00000000000E+00  0.00000000000E+00  0.60869250926E+03  0.60869250926E+03  0.00000000000E+00 0.  1.
          4   -1    0    0  502    0 -0.00000000000E+00 -0.00000000000E+00 -0.97492808313E+03  0.97492808313E+03  0.00000000000E+00 0.  1.
    9000010    2    1    2  501    0 -0.32551520652E+02  0.20110103756E+03  0.19088652221E+03  0.99042056719E+03  0.95025996798E+03 0.  0.
        -13    1    3    3    0    0 -0.77332974713E+02  0.58174052633E+03  0.86533683035E+02  0.59320360621E+03  0.10566000000E+00 0.  1.
          4    1    3    3  501    0  0.44781454061E+02 -0.38063948878E+03  0.10435283918E+03  0.39721696098E+03  0.00000000000E+00 0.  1.
         13    1    1    2    0    0  0.32551520652E+02 -0.20110103756E+03 -0.55712209608E+03  0.59320002520E+03  0.10566000000E+00 0. -1.
<mgrwt>
<rscale>  1 0.65759356E+03</rscale>
<asrwt>0</asrwt>
<pdfrwt beam="1">  1       21 0.93645001E-01 0.97185145E+03</pdfrwt>
<pdfrwt beam="2">  1        4 0.14998894E+00 0.97185145E+03</pdfrwt>
<totfact> 0.10722977E+01</totfact>
</mgrwt>
</event>
<event>
 6    1  0.1412458E-005  0.9562327E+03  0.7818608E-02  0.9792934E-01
         21   -1    0    0  501  502  0.00000000000E+00  0.00000000000E+00  0.15126734380E+04  0.15126734380E+04  0.00000000000E+00 0.  1.
          4   -1    0    0  502    0 -0.00000000000E+00 -0.00000000000E+00 -0.10470676647E+04  0.10470676647E+04  0.00000000000E+00 0.  1.
    9000010    2    1    2  501    0 -0.21004782485E+03  0.39089090593E+02  0.13475125860E+04  0.16523229614E+04  0.93205844956E+03 0.  0.
        -13    1    3    3    0    0 -0.40858739948E+03  0.21685753853E+03  0.25586759434E+03  0.52861998830E+03  0.10566000000E+00 0.  1.
          4    1    3    3  501    0  0.19853957463E+03 -0.17776844794E+03  0.10916449917E+04  0.11237029731E+04  0.00000000000E+00 0.  1.
         13    1    1    2    0    0  0.21004782485E+03 -0.39089090593E+02 -0.88190681273E+03  0.90741814134E+03  0.10566000000E+00 0. -1.
<mgrwt>
<rscale>  1 0.65743146E+03</rscale>
<asrwt>0</asrwt>
<pdfrwt beam="1">  1       21 0.23271899E+00 0.95623271E+03</pdfrwt>
<pdfrwt beam="2">  1        4 0.16108733E+00 0.95623271E+03</pdfrwt>
<totfact> 0.67505267E-01</totfact>
</mgrwt>
</event>
<event>
 6    1  0.1412458E-005  0.9610664E+03  0.7818608E-02  0.9847290E-01
         21   -1    0    0  501  502  0.00000000000E+00  0.00000000000E+00  0.39753626004E+03  0.39753626004E+03  0.00000000000E+00 0.  1.
          4   -1    0    0  502    0 -0.00000000000E+00 -0.00000000000E+00 -0.94745449590E+03  0.94745449590E+03  0.00000000000E+00 0.  1.
    9000010    2    1    2  501    0 -0.75829473720E+02 -0.15901667033E+03 -0.24333159508E+03  0.99139241037E+03  0.94478158092E+03 0.  0.
        -13    1    3    3    0    0  0.17243881961E+03  0.25924393433E+03  0.16853554796E+03  0.35404350875E+03  0.10566000000E+00 0.  1.
          4    1    3    3  501    0 -0.24826829333E+03 -0.41826060466E+03 -0.41186714304E+03  0.63734890162E+03  0.00000000000E+00 0.  1.
         13    1    1    2    0    0  0.75829473720E+02  0.15901667033E+03 -0.30658664078E+03  0.35359834558E+03  0.10566000000E+00 0. -1.
<mgrwt>
<rscale>  1 0.62885281E+03</rscale>
<asrwt>0</asrwt>
<pdfrwt beam="1">  1       21 0.61159425E-01 0.96106641E+03</pdfrwt>
<pdfrwt beam="2">  1        4 0.14576223E+00 0.96106641E+03</pdfrwt>
<totfact> 0.31239212E+01</totfact>
</mgrwt>
</event>
<event>
 6    1  0.1412458E-005  0.1030407E+04  0.7818608E-02  0.9815678E-01
          4   -1    0    0  502    0 -0.00000000000E+00  0.00000000000E+00  0.31872168496E+03  0.31872168496E+03  0.00000000000E+00 0.  1.
         21   -1    0    0  501  502  0.00000000000E+00 -0.00000000000E+00 -0.11308462684E+04  0.11308462684E+04  0.00000000000E+00 0.  1.
    9000010    2    1    2  501    0  0.91817807174E+02 -0.12916744407E+03 -0.62827192745E+03  0.12068406401E+04  0.10181473260E+04 0.  0.
        -13    1    3    3    0    0 -0.19646410890E+02  0.40037986894E+03 -0.32787685750E+02  0.40220027899E+03  0.10566000000E+00 0.  1.
          4    1    3    3  501    0  0.11146421806E+03 -0.52954731301E+03 -0.59548424170E+03  0.80464036112E+03  0.00000000000E+00 0.  1.
         13    1    1    2    0    0 -0.91817807174E+02  0.12916744407E+03 -0.18385265597E+03  0.24272731324E+03  0.10566000000E+00 0. -1.
<mgrwt>
<rscale>  1 0.64527937E+03</rscale>
<asrwt>0</asrwt>
<pdfrwt beam="2">  1       21 0.17397635E+00 0.10304071E+04</pdfrwt>
<pdfrwt beam="1">  1        4 0.49034106E-01 0.10304071E+04</pdfrwt>
<totfact> 0.28364378E+01</totfact>
</mgrwt>
</event>
<event>
 6    1  0.1412458E-005  0.1027639E+04  0.7818608E-02  0.9911561E-01
         21   -1    0    0  501  502  0.00000000000E+00  0.00000000000E+00  0.28652980912E+04  0.28652980912E+04  0.00000000000E+00 0.  1.
          4   -1    0    0  502    0 -0.00000000000E+00 -0.00000000000E+00 -0.12733990013E+03  0.12733990013E+03  0.00000000000E+00 0.  1.
    9000010    2    1    2  501    0  0.11013204323E+03 -0.39745938784E+02  0.26609734760E+04  0.28525113910E+04  0.10209469083E+04 0.  0.
        -13    1    3    3    0    0  0.15153887040E+03  0.40612994377E+03  0.58105313657E+03  0.72493332048E+03  0.10566000000E+00 0.  1.
          4    1    3    3  501    0 -0.41406827172E+02 -0.44587588256E+03  0.20799203394E+04  0.21275780705E+04  0.00000000000E+00 0.  1.
         13    1    1    2    0    0 -0.11013204323E+03  0.39745938784E+02  0.76984715142E+02  0.14012660035E+03  0.10566000000E+00 0. -1.
<mgrwt>
<rscale>  1 0.59704265E+03</rscale>
<asrwt>0</asrwt>
<pdfrwt beam="1">  1       21 0.44081504E+00 0.10276387E+04</pdfrwt>
<pdfrwt beam="2">  1        4 0.19590756E-01 0.10276387E+04</pdfrwt>
<totfact> 0.31862909E+00</totfact>
</mgrwt>
</event>
<event>
 6    1  0.1412458E-005  0.9839432E+03  0.7818608E-02  0.9820855E-01
          4   -1    0    0  502    0 -0.00000000000E+00  0.00000000000E+00  0.38273070932E+03  0.38273070932E+03  0.00000000000E+00 0.  1.
         21   -1    0    0  501  502  0.00000000000E+00 -0.00000000000E+00 -0.89579210757E+03  0.89579210757E+03  0.00000000000E+00 0.  1.
    9000010    2    1    2  501    0  0.40144129670E+02  0.17438619030E+03 -0.48639609249E+03  0.10975997830E+04  0.96753399436E+03 0.  0.
        -13    1    3    3    0    0 -0.78858478413E+02 -0.22257501041E+03 -0.61898111246E+03  0.66249220646E+03  0.10566000000E+00 0.  1.
          4    1    3    3  501    0  0.11900260808E+03  0.39696120071E+03  0.13258501997E+03  0.43510757649E+03  0.00000000000E+00 0.  1.
         13    1    1    2    0    0 -0.40144129670E+02 -0.17438619030E+03 -0.26665305764E+02  0.18092303394E+03  0.10566000000E+00 0. -1.
<mgrwt>
<rscale>  1 0.64255268E+03</rscale>
<asrwt>0</asrwt>
<pdfrwt beam="2">  1       21 0.13781417E+00 0.98394315E+03</pdfrwt>
<pdfrwt beam="1">  1        4 0.58881648E-01 0.98394315E+03</pdfrwt>
<totfact> 0.37244595E+01</totfact>
</mgrwt>
</event>
<event>
 6    1  0.1412458E-005  0.1029767E+04  0.7818608E-02  0.9616745E-01
         21   -1    0    0  501  502  0.00000000000E+00  0.00000000000E+00  0.29663316084E+03  0.29663316084E+03  0.00000000000E+00 0.  1.
          4   -1    0    0  502    0 -0.00000000000E+00 -0.00000000000E+00 -0.16657777439E+04  0.16657777439E+04  0.00000000000E+00 0.  1.
    9000010    2    1    2  501    0 -0.30407858343E+03 -0.53278425730E+02 -0.76116135213E+03  0.12805414188E+04  0.98240386085E+03 0.  0.
        -13    1    3    3    0    0  0.16972829003E+03 -0.38059861764E+03 -0.49229460294E+03  0.64499378868E+03  0.10566000000E+00 0.  1.
          4    1    3    3  501    0 -0.47380687346E+03  0.32732019191E+03 -0.26886674918E+03  0.63554763015E+03  0.00000000000E+00 0.  1.
         13    1    1    2    0    0  0.30407858343E+03  0.53278425730E+02 -0.60798323093E+03  0.68186948590E+03  0.10566000000E+00 0. -1.
<mgrwt>
<rscale>  1 0.76197750E+03</rscale>
<asrwt>0</asrwt>
<pdfrwt beam="1">  1       21 0.45635870E-01 0.10297668E+04</pdfrwt>
<pdfrwt beam="2">  1        4 0.25627350E+00 0.10297668E+04</pdfrwt>
<totfact> 0.10545896E+01</totfact>
</mgrwt>
</event>
<event>
 6    1  0.1412458E-005  0.9956183E+03  0.7818608E-02  0.9978110E-01
         21   -1    0    0  501  502  0.00000000000E+00  0.00000000000E+00  0.31281646361E+03  0.31281646361E+03  0.00000000000E+00 0.  1.
          4   -1    0    0  502    0 -0.00000000000E+00 -0.00000000000E+00 -0.13677448692E+04  0.13677448692E+04  0.00000000000E+00 0.  1.
    9000010    2    1    2  501    0  0.19008904615E+01  0.10412272312E+03 -0.49658335113E+03  0.11125874198E+04  0.99015684980E+03 0.  0.
        -13    1    3    3    0    0  0.15135286893E+03 -0.29487355868E+03  0.12902213366E+03  0.35567517299E+03  0.10566000000E+00 0.  1.
          4    1    3    3  501    0 -0.14945197847E+03  0.39899628181E+03 -0.62560548479E+03  0.75691224680E+03  0.00000000000E+00 0.  1.
         13    1    1    2    0    0 -0.19008904615E+01 -0.10412272312E+03 -0.55834505447E+03  0.56797391302E+03  0.10566000000E+00 0. -1.
<mgrwt>
<rscale>  1 0.56620561E+03</rscale>
<asrwt>0</asrwt>
<pdfrwt beam="1">  1       21 0.48125610E-01 0.99561827E+03</pdfrwt>
<pdfrwt beam="2">  1        4 0.21042228E+00 0.99561827E+03</pdfrwt>
<totfact> 0.18360926E+01</totfact>
</mgrwt>
</event>
<event>
 6    1  0.1412458E-005  0.1070928E+04  0.7818608E-02  0.9667173E-01
          4   -1    0    0  502    0 -0.00000000000E+00  0.00000000000E+00  0.20989670336E+03  0.20989670336E+03  0.00000000000E+00 0.  1.
         21   -1    0    0  501  502  0.00000000000E+00 -0.00000000000E+00 -0.21837177927E+04  0.21837177927E+04  0.00000000000E+00 0.  1.
    9000010    2    1    2  501    0 -0.19313715449E+03  0.12723418525E+03 -0.18327634849E+04  0.21227127476E+04  0.10456562146E+04 0.  0.
        -13    1    3    3    0    0  0.18315525325E+03 -0.35497918189E+03 -0.10877749510E+04  0.11587969717E+04  0.10566000000E+00 0.  1.
          4    1    3    3  501    0 -0.37629240774E+03  0.48221336715E+03 -0.74498853387E+03  0.96391577597E+03  0.00000000000E+00 0.  1.
         13    1    1    2    0    0  0.19313715449E+03 -0.12723418525E+03 -0.14105760444E+03  0.27090174839E+03  0.10566000000E+00 0. -1.
<mgrwt>
<rscale>  1 0.73005384E+03</rscale>
<asrwt>0</asrwt>
<pdfrwt beam="2">  1       21 0.33595660E+00 0.10709283E+04</pdfrwt>
<pdfrwt beam="1">  1        4 0.32291799E-01 0.10709283E+04</pdfrwt>
<totfact> 0.58511587E+00</totfact>
</mgrwt>
</event>
<event>
 6    1  0.1412458E-005  0.1074967E+04  0.7818608E-02  0.9528914E-01
          4   -1    0    0  502    0 -0.00000000000E+00  0.00000000000E+00  0.25102376175E+04  0.25102376175E+04  0.00000000000E+00 0.  1.
         21   -1    0    0  501  502  0.00000000000E+00 -0.00000000000E+00 -0.20715823196E+03  0.20715823196E+03  0.00000000000E+00 0. -1.
    9000010    2    1    2  501    0 -0.11676699780E+03  0.34821768337E+03  0.17185810884E+04  0.20270855154E+04  0.10102794873E+04 0.  0.
        -13    1    3    3    0    0 -0.53392856376E+03  0.25753564104E+02  0.10231144119E+04  0.11543422665E+04  0.10566000000E+00 0.  1.
          4    1    3    3  501    0  0.41716156596E+03  0.32246411926E+03  0.69546667643E+03  0.87274324881E+03  0.00000000000E+00 0.  1.
         13    1    1    2    0    0  0.11676699780E+03 -0.34821768337E+03  0.58449829715E+03  0.69031033407E+03  0.10566000000E+00 0. -1.
<mgrwt>
<rscale>  1 0.82185274E+03</rscale>
<asrwt>0</asrwt>
<pdfrwt beam="2">  1       21 0.31870499E-01 0.10749673E+04</pdfrwt>
<pdfrwt beam="1">  1        4 0.38619038E+00 0.10749673E+04</pdfrwt>
<totfact> 0.33061512E+00</totfact>
</mgrwt>
</event>
<event>
 6    1  0.1412458E-005  0.1096813E+04  0.7818608E-02  0.9458599E-01
          4   -1    0    0  502    0 -0.00000000000E+00  0.00000000000E+00  0.13454092362E+04  0.13454092362E+04  0.00000000000E+00 0.  1.
         21   -1    0    0  501  502  0.00000000000E+00 -0.00000000000E+00 -0.44284523182E+03  0.44284523182E+03  0.00000000000E+00 0. -1.
    9000010    2    1    2  501    0 -0.44024396584E+03 -0.43157184275E+02  0.70452327535E+03  0.13035922831E+04  0.10036545735E+04 0.  0.
        -13    1    3    3    0    0 -0.70316872116E+03 -0.26234134533E+03  0.43127983199E+03  0.86560472302E+03  0.10566000000E+00 0.  1.
          4    1    3    3  501    0  0.26292475531E+03  0.21918416105E+03  0.27324344337E+03  0.43798756005E+03  0.00000000000E+00 0.  1.
         13    1    1    2    0    0  0.44024396584E+03  0.43157184275E+02  0.19804072905E+03  0.48466218497E+03  0.10566000000E+00 0. -1.
<mgrwt>
<rscale>  1 0.87406191E+03</rscale>
<asrwt>0</asrwt>
<pdfrwt beam="2">  1       21 0.68130036E-01 0.10968135E+04</pdfrwt>
<pdfrwt beam="1">  1        4 0.20698603E+00 0.10968135E+04</pdfrwt>
<totfact> 0.88574149E+00</totfact>
</mgrwt>
</event>
<event>
 6    1  0.1412458E-005  0.1052190E+04  0.7818608E-02  0.9676074E-01
          4   -1    0    0  502    0 -0.00000000000E+00  0.00000000000E+00  0.80745861886E+03  0.80745861886E+03  0.00000000000E+00 0.  1.
         21   -1    0    0  501  502  0.00000000000E+00 -0.00000000000E+00 -0.73506556148E+03  0.73506556148E+03  0.00000000000E+00 0.  1.
    9000010    2    1    2  501    0  0.20912923386E+03  0.11074971428E+03 -0.30639349848E+03  0.10958925629E+04  0.10252331431E+04 0.  0.
        -13    1    3    3    0    0  0.99726405833E+01  0.29128363266E+03  0.30874857515E+03  0.42458368084E+03  0.10566000000E+00 0.  1.
          4    1    3    3  501    0  0.19915659327E+03 -0.18053391837E+03 -0.61514207363E+03  0.67130888202E+03  0.00000000000E+00 0.  1.
         13    1    1    2    0    0 -0.20912923386E+03 -0.11074971428E+03  0.37878655587E+03  0.44663161749E+03  0.10566000000E+00 0. -1.
<mgrwt>
<rscale>  1 0.72459381E+03</rscale>
<asrwt>0</asrwt>
<pdfrwt beam="2">  1       21 0.11308701E+00 0.10521899E+04</pdfrwt>
<pdfrwt beam="1">  1        4 0.12422440E+00 0.10521899E+04</pdfrwt>
<totfact> 0.10851095E+01</totfact>
</mgrwt>
</event>
<event>
 6    1  0.1412458E-005  0.1091132E+04  0.7818608E-02  0.9476510E-01
         21   -1    0    0  501  502  0.00000000000E+00  0.00000000000E+00  0.95657729600E+03  0.95657729600E+03  0.00000000000E+00 0.  1.
          4   -1    0    0  502    0 -0.00000000000E+00 -0.00000000000E+00 -0.67390007167E+03  0.67390007167E+03  0.00000000000E+00 0.  1.
    9000010    2    1    2  501    0 -0.28197097739E+03  0.31372927059E+03  0.44515575244E+03  0.11784453217E+04  0.10062981889E+04 0.  0.
        -13    1    3    3    0    0 -0.29528970177E+03 -0.25389010586E+03 -0.88369882898E+02  0.39933124245E+03  0.10566000000E+00 0.  1.
          4    1    3    3  501    0  0.13318724379E+02  0.56761937645E+03  0.53352563534E+03  0.77911407926E+03  0.00000000000E+00 0.  1.
         13    1    1    2    0    0  0.28197097739E+03 -0.31372927059E+03 -0.16247852811E+03  0.45203204596E+03  0.10566000000E+00 0. -1.
<mgrwt>
<rscale>  1 0.86038007E+03</rscale>
<asrwt>0</asrwt>
<pdfrwt beam="1">  1       21 0.14716574E+00 0.10911323E+04</pdfrwt>
<pdfrwt beam="2">  1        4 0.10367693E+00 0.10911323E+04</pdfrwt>
<totfact> 0.84054183E+00</totfact>
</mgrwt>
</event>
<event>
 6    1  0.1412458E-005  0.9846857E+03  0.7818608E-02  0.1012566E+00
          4   -1    0    0  502    0 -0.00000000000E+00  0.00000000000E+00  0.44729643610E+03  0.44729643610E+03  0.00000000000E+00 0.  1.
         21   -1    0    0  501  502  0.00000000000E+00 -0.00000000000E+00 -0.12368577611E+04  0.12368577611E+04  0.00000000000E+00 0.  1.
    9000010    2    1    2  501    0  0.66726220185E+02 -0.12807561370E+02 -0.10355378366E+04  0.14289662714E+04  0.98233882738E+03 0.  0.
        -13    1    3    3    0    0  0.44940675855E+03 -0.20907909780E+03 -0.79314279203E+03  0.93528391597E+03  0.10566000000E+00 0.  1.
          4    1    3    3  501    0 -0.38268053837E+03  0.19627153643E+03 -0.24239504456E+03  0.49368235545E+03  0.00000000000E+00 0.  1.
         13    1    1    2    0    0 -0.66726220185E+02  0.12807561370E+02  0.24597651155E+03  0.25518792582E+03  0.10566000000E+00 0. -1.
<mgrwt>
<rscale>  1 0.50467472E+03</rscale>
<asrwt>0</asrwt>
<pdfrwt beam="2">  1       21 0.19028581E+00 0.98468573E+03</pdfrwt>
<pdfrwt beam="1">  1        4 0.68814837E-01 0.98468573E+03</pdfrwt>
<totfact> 0.10438558E+01</totfact>
</mgrwt>
</event>
<event>
 6    1  0.1412458E-005  0.1073580E+04  0.7818608E-02  0.9494051E-01
         21   -1    0    0  501  502  0.00000000000E+00  0.00000000000E+00  0.10644905584E+04  0.10644905584E+04  0.00000000000E+00 0.  1.
          4   -1    0    0  502    0 -0.00000000000E+00 -0.00000000000E+00 -0.79957677122E+03  0.79957677122E+03  0.00000000000E+00 0.  1.
    9000010    2    1    2  501    0  0.15522818128E+03 -0.38639366287E+03  0.68425584366E+03  0.12730989527E+04  0.98953475578E+03 0.  0.
        -13    1    3    3    0    0  0.54686848958E+03 -0.75723282019E+02  0.23154036961E+03  0.59867362917E+03  0.10566000000E+00 0.  1.
          4    1    3    3  501    0 -0.39164030830E+03 -0.31067038085E+03  0.45271547405E+03  0.67442532357E+03  0.00000000000E+00 0.  1.
         13    1    1    2    0    0 -0.15522818128E+03  0.38639366287E+03 -0.41934205649E+03  0.59096837688E+03  0.10566000000E+00 0. -1.
<mgrwt>
<rscale>  1 0.84723868E+03</rscale>
<asrwt>0</asrwt>
<pdfrwt beam="1">  1       21 0.16376778E+00 0.10735804E+04</pdfrwt>
<pdfrwt beam="2">  1        4 0.12301181E+00 0.10735804E+04</pdfrwt>
<totfact> 0.40710813E+00</totfact>
</mgrwt>
</event>
<event>
 6    1  0.1412458E-005  0.1004617E+04  0.7818608E-02  0.9922373E-01
          4   -1    0    0  502    0 -0.00000000000E+00  0.00000000000E+00  0.27683705776E+03  0.27683705776E+03  0.00000000000E+00 0.  1.
         21   -1    0    0  501  502  0.00000000000E+00 -0.00000000000E+00 -0.21911286942E+04  0.21911286942E+04  0.00000000000E+00 0.  1.
    9000010    2    1    2  501    0 -0.81154888013E+02 -0.89817089123E+02 -0.20519355531E+04  0.22846652219E+04  0.99729756679E+03 0.  0.
        -13    1    3    3    0    0 -0.28556889727E+03 -0.24923954324E+03 -0.19795584505E+04  0.20155201847E+04  0.10566000000E+00 0.  1.
          4    1    3    3  501    0  0.20441400926E+03  0.15942245411E+03 -0.72377102640E+02  0.26914503719E+03  0.00000000000E+00 0.  1.
         13    1    1    2    0    0  0.81154888013E+02  0.89817089123E+02  0.13764391669E+03  0.18330053004E+03  0.10566000000E+00 0. -1.
<mgrwt>
<rscale>  1 0.59189155E+03</rscale>
<asrwt>0</asrwt>
<pdfrwt beam="2">  1       21 0.33709671E+00 0.10046172E+04</pdfrwt>
<pdfrwt beam="1">  1        4 0.42590318E-01 0.10046172E+04</pdfrwt>
<totfact> 0.33334490E+00</totfact>
</mgrwt>
</event>
<event>
 6    1  0.1412458E-005  0.1050248E+04  0.7818608E-02  0.9604963E-01
         21   -1    0    0  501  502  0.00000000000E+00  0.00000000000E+00  0.16291304787E+04  0.16291304787E+04  0.00000000000E+00 0.  1.
          4   -1    0    0  502    0 -0.00000000000E+00 -0.00000000000E+00 -0.38406546127E+03  0.38406546127E+03  0.00000000000E+00 0.  1.
    9000010    2    1    2  501    0  0.21215013457E+03  0.21627217119E+03  0.13336643216E+04  0.16975518691E+04  0.10056045414E+04 0.  0.
        -13    1    3    3    0    0 -0.26428770660E+02  0.21269011466E+02 -0.16453401153E+03  0.16799494898E+03  0.10566000000E+00 0.  1.
          4    1    3    3  501    0  0.23857890523E+03  0.19500315973E+03  0.14981983331E+04  0.15295569201E+04  0.00000000000E+00 0.  1.
         13    1    1    2    0    0 -0.21215013457E+03 -0.21627217119E+03 -0.88599304195E+02  0.31564407090E+03  0.10566000000E+00 0. -1.
<mgrwt>
<rscale>  1 0.76968556E+03</rscale>
<asrwt>0</asrwt>
<pdfrwt beam="1">  1       21 0.25063545E+00 0.10502485E+04</pdfrwt>
<pdfrwt beam="2">  1        4 0.59086995E-01 0.10502485E+04</pdfrwt>
<totfact> 0.57498760E+00</totfact>
</mgrwt>
</event>
<event>
 6    1  0.1412458E-005  0.1077297E+04  0.7818608E-02  0.9474095E-01
         21   -1    0    0  501  502  0.00000000000E+00  0.00000000000E+00  0.46845178999E+03  0.46845178999E+03  0.00000000000E+00 0. -1.
          4   -1    0    0  502    0 -0.00000000000E+00 -0.00000000000E+00 -0.13271474278E+04  0.13271474278E+04  0.00000000000E+00 0.  1.
    9000010    2    1    2  501    0 -0.44128647577E+03  0.25486455360E+02 -0.81613179885E+03  0.13515327761E+04  0.98243901526E+03 0.  0.
        -13    1    3    3    0    0 -0.59256746035E+03  0.37144915777E+03 -0.54612126053E+03  0.88733258378E+03  0.10566000000E+00 0.  1.
          4    1    3    3  501    0  0.15128098458E+03 -0.34596270241E+03 -0.27001053832E+03  0.46420019233E+03  0.00000000000E+00 0.  1.
         13    1    1    2    0    0  0.44128647577E+03 -0.25486455360E+02 -0.42563839003E+02  0.44406644172E+03  0.10566000000E+00 0. -1.
<mgrwt>
<rscale>  1 0.86220931E+03</rscale>
<asrwt>0</asrwt>
<pdfrwt beam="1">  1       21 0.72069508E-01 0.10772974E+04</pdfrwt>
<pdfrwt beam="2">  1        4 0.20417652E+00 0.10772974E+04</pdfrwt>
<totfact> 0.81394490E+00</totfact>
</mgrwt>
</event>
<event>
 6    1  0.1412458E-005  0.8754850E+03  0.7818608E-02  0.9704543E-01
         21   -1    0    0  501  502  0.00000000000E+00  0.00000000000E+00  0.10751930293E+04  0.10751930293E+04  0.00000000000E+00 0.  1.
          4   -1    0    0  502    0 -0.00000000000E+00 -0.00000000000E+00 -0.65016597811E+03  0.65016597811E+03  0.00000000000E+00 0.  1.
    9000010    2    1    2  501    0 -0.10134377271E+03  0.35930367365E+03  0.80740750279E+03  0.11909579304E+04  0.79189912633E+03 0.  0.
        -13    1    3    3    0    0 -0.41520332696E+03  0.60810548745E+02  0.53239445115E+03  0.67789054304E+03  0.10566000000E+00 0.  1.
          4    1    3    3  501    0  0.31385955425E+03  0.29849312491E+03  0.27501305164E+03  0.51306738737E+03  0.00000000000E+00 0.  1.
         13    1    1    2    0    0  0.10134377271E+03 -0.35930367365E+03 -0.38238045160E+03  0.53440107700E+03  0.10566000000E+00 0. -1.
<mgrwt>
<rscale>  1 0.70746924E+03</rscale>
<asrwt>0</asrwt>
<pdfrwt beam="1">  1       21 0.16541431E+00 0.87548496E+03</pdfrwt>
<pdfrwt beam="2">  1        4 0.10002554E+00 0.87548496E+03</pdfrwt>
<totfact> 0.67748931E+00</totfact>
</mgrwt>
</event>
<event>
 6    1  0.1412458E-005  0.1011930E+04  0.7818608E-02  0.9766202E-01
          4   -1    0    0  502    0 -0.00000000000E+00  0.00000000000E+00  0.66429467344E+03  0.66429467344E+03  0.00000000000E+00 0.  1.
         21   -1    0    0  501  502  0.00000000000E+00 -0.00000000000E+00 -0.72106516364E+03  0.72106516364E+03  0.00000000000E+00 0.  1.
    9000010    2    1    2  501    0  0.24506253121E+01  0.19688218916E+03 -0.31573492553E+03  0.10600427734E+04  0.99258930900E+03 0.  0.
        -13    1    3    3    0    0  0.18714551674E+03 -0.25243315024E+03  0.18314251710E+03  0.36371298095E+03  0.10566000000E+00 0.  1.
          4    1    3    3  501    0 -0.18469489143E+03  0.44931533940E+03 -0.49887744263E+03  0.69632979248E+03  0.00000000000E+00 0.  1.
         13    1    1    2    0    0 -0.24506253121E+01 -0.19688218916E+03  0.25896443533E+03  0.32531706365E+03  0.10566000000E+00 0. -1.
<mgrwt>
<rscale>  1 0.67208292E+03</rscale>
<asrwt>0</asrwt>
<pdfrwt beam="2">  1       21 0.11093310E+00 0.10119299E+04</pdfrwt>
<pdfrwt beam="1">  1        4 0.10219918E+00 0.10119299E+04</pdfrwt>
<totfact> 0.18564941E+01</totfact>
</mgrwt>
</event>
<event>
 6    1  0.1412458E-005  0.1104422E+04  0.7818608E-02  0.9439093E-01
         21   -1    0    0  501  502  0.00000000000E+00  0.00000000000E+00  0.14603684404E+04  0.14603684404E+04  0.00000000000E+00 0.  1.
          4   -1    0    0  502    0 -0.00000000000E+00 -0.00000000000E+00 -0.43711710366E+03  0.43711710366E+03  0.00000000000E+00 0.  1.
    9000010    2    1    2  501    0 -0.30354736319E+03 -0.35123560567E+03  0.87851388918E+03  0.14112177246E+04  0.10021184363E+04 0.  0.
        -13    1    3    3    0    0 -0.19290794168E+02 -0.42773949613E+03 -0.55645339133E+02  0.43177497174E+03  0.10566000000E+00 0.  1.
          4    1    3    3  501    0 -0.28425656902E+03  0.76503890458E+02  0.93415922831E+03  0.97944275286E+03  0.00000000000E+00 0.  1.
         13    1    1    2    0    0  0.30354736319E+03  0.35123560567E+03  0.14473744761E+03  0.48626781951E+03  0.10566000000E+00 0. -1.
<mgrwt>
<rscale>  1 0.88927113E+03</rscale>
<asrwt>0</asrwt>
<pdfrwt beam="1">  1       21 0.22467207E+00 0.11044224E+04</pdfrwt>
<pdfrwt beam="2">  1        4 0.67248786E-01 0.11044224E+04</pdfrwt>
<totfact> 0.63170750E+00</totfact>
</mgrwt>
</event>
<event>
 6    1  0.1412458E-005  0.1063945E+04  0.7818608E-02  0.9539658E-01
          4   -1    0    0  502    0 -0.00000000000E+00  0.00000000000E+00  0.11590492424E+04  0.11590492424E+04  0.00000000000E+00 0.  1.
         21   -1    0    0  501  502  0.00000000000E+00 -0.00000000000E+00 -0.65877516301E+03  0.65877516301E+03  0.00000000000E+00 0.  1.
    9000010    2    1    2  501    0 -0.24300463136E+03 -0.27225707533E+03 -0.14770626587E+03  0.10741485991E+04  0.99940127376E+03 0.  0.
        -13    1    3    3    0    0 -0.32304546780E+03 -0.33795509183E+03  0.33839930361E+03  0.57713613490E+03  0.10566000000E+00 0.  1.
          4    1    3    3  501    0  0.80040836441E+02  0.65698016492E+02 -0.48610556948E+03  0.49701246417E+03  0.00000000000E+00 0.  1.
         13    1    1    2    0    0  0.24300463136E+03  0.27225707533E+03  0.64798034526E+03  0.74367580634E+03  0.10566000000E+00 0. -1.
<mgrwt>
<rscale>  1 0.81422075E+03</rscale>
<asrwt>0</asrwt>
<pdfrwt beam="2">  1       21 0.10135003E+00 0.10639446E+04</pdfrwt>
<pdfrwt beam="1">  1        4 0.17831527E+00 0.10639446E+04</pdfrwt>
<totfact> 0.53990775E+00</totfact>
</mgrwt>
</event>
<event>
 6    1  0.1412458E-005  0.1162729E+04  0.7818608E-02  0.9331639E-01
         21   -1    0    0  501  502  0.00000000000E+00  0.00000000000E+00  0.11623543491E+04  0.11623543491E+04  0.00000000000E+00 0. -1.
          4   -1    0    0  502    0 -0.00000000000E+00 -0.00000000000E+00 -0.65885366891E+03  0.65885366891E+03  0.00000000000E+00 0.  1.
    9000010    2    1    2  501    0 -0.30686769962E+03  0.49792944068E+03  0.28789579929E+03  0.11978405591E+04  0.10049062150E+04 0.  0.
        -13    1    3    3    0    0 -0.80550690162E+01 -0.10237472611E+03 -0.29311433332E+03  0.31058250474E+03  0.10566000000E+00 0.  1.
          4    1    3    3  501    0 -0.29881263060E+03  0.60030416679E+03  0.58101013262E+03  0.88725805439E+03  0.00000000000E+00 0.  1.
         13    1    1    2    0    0  0.30686769962E+03 -0.49792944068E+03  0.21560488089E+03  0.62336745888E+03  0.10566000000E+00 0. -1.
<mgrwt>
<rscale>  1 0.97921537E+03</rscale>
<asrwt>0</asrwt>
<pdfrwt beam="1">  1       21 0.17882375E+00 0.11627287E+04</pdfrwt>
<pdfrwt beam="2">  1        4 0.10136210E+00 0.11627287E+04</pdfrwt>
<totfact> 0.50180530E+00</totfact>
</mgrwt>
</event>
<event>
 6    1  0.1412458E-005  0.1010200E+04  0.7818608E-02  0.9822028E-01
         21   -1    0    0  501  502  0.00000000000E+00  0.00000000000E+00  0.12435909266E+04  0.12435909266E+04  0.00000000000E+00 0.  1.
          4   -1    0    0  502    0 -0.00000000000E+00 -0.00000000000E+00 -0.57214692557E+03  0.57214692557E+03  0.00000000000E+00 0.  1.
    9000010    2    1    2  501    0 -0.74745110711E+02 -0.14678488495E+03  0.10166743846E+04  0.14332242408E+04  0.99668063401E+03 0.  0.
        -13    1    3    3    0    0 -0.26050601749E+03  0.25963511061E+03  0.53799163986E+02  0.37170974836E+03  0.10566000000E+00 0.  1.
          4    1    3    3  501    0  0.18576090678E+03 -0.40641999556E+03  0.96287522061E+03  0.10615144925E+04  0.00000000000E+00 0.  1.
         13    1    1    2    0    0  0.74745110711E+02  0.14678488495E+03 -0.34523038352E+03  0.38251361139E+03  0.10566000000E+00 0. -1.
<mgrwt>
<rscale>  1 0.64193666E+03</rscale>
<asrwt>0</asrwt>
<pdfrwt beam="1">  1       21 0.19132168E+00 0.10102004E+04</pdfrwt>
<pdfrwt beam="2">  1        4 0.88022605E-01 0.10102004E+04</pdfrwt>
<totfact> 0.58275011E+00</totfact>
</mgrwt>
</event>
<event>
 6    1  0.1412458E-005  0.1012286E+04  0.7818608E-02  0.9804539E-01
         21   -1    0    0  501  502  0.00000000000E+00  0.00000000000E+00  0.29329874026E+03  0.29329874026E+03  0.00000000000E+00 0.  1.
          4   -1    0    0  502    0 -0.00000000000E+00 -0.00000000000E+00 -0.15510579800E+04  0.15510579800E+04  0.00000000000E+00 0.  1.
    9000010    2    1    2  501    0 -0.84489538402E+02  0.15137161718E+03 -0.62820468633E+03  0.11913706596E+04  0.99733197679E+03 0.  0.
        -13    1    3    3    0    0  0.15213775378E+03 -0.39153337446E+03 -0.25962282380E+03  0.49380998495E+03  0.10566000000E+00 0.  1.
          4    1    3    3  501    0 -0.23662729218E+03  0.54290499164E+03 -0.36858186254E+03  0.69756067460E+03  0.00000000000E+00 0.  1.
         13    1    1    2    0    0  0.84489538402E+02 -0.15137161718E+03 -0.62955455346E+03  0.65298606075E+03  0.10566000000E+00 0. -1.
<mgrwt>
<rscale>  1 0.65119542E+03</rscale>
<asrwt>0</asrwt>
<pdfrwt beam="1">  1       21 0.45122883E-01 0.10122860E+04</pdfrwt>
<pdfrwt beam="2">  1        4 0.23862431E+00 0.10122860E+04</pdfrwt>
<totfact> 0.13930239E+01</totfact>
</mgrwt>
</event>
<event>
 6    1  0.1412458E-005  0.1038679E+04  0.7818608E-02  0.9590669E-01
          4   -1    0    0  502    0 -0.00000000000E+00  0.00000000000E+00  0.23093748582E+03  0.23093748582E+03  0.00000000000E+00 0.  1.
         21   -1    0    0  501  502  0.00000000000E+00 -0.00000000000E+00 -0.20462509232E+04  0.20462509232E+04  0.00000000000E+00 0.  1.
    9000010    2    1    2  501    0 -0.24822137441E+03 -0.21580133054E+03 -0.14738466736E+04  0.18030748921E+04  0.98522636194E+03 0.  0.
        -13    1    3    3    0    0  0.57862922432E+02  0.36855978990E+03 -0.44225297529E+03  0.57859497219E+03  0.10566000000E+00 0.  1.
          4    1    3    3  501    0 -0.30608429685E+03 -0.58436112044E+03 -0.10315936983E+04  0.12244799199E+04  0.00000000000E+00 0.  1.
         13    1    1    2    0    0  0.24822137441E+03  0.21580133054E+03 -0.34146676372E+03  0.47411351686E+03  0.10566000000E+00 0. -1.
<mgrwt>
<rscale>  1 0.77916885E+03</rscale>
<asrwt>0</asrwt>
<pdfrwt beam="2">  1       21 0.31480785E+00 0.10386795E+04</pdfrwt>
<pdfrwt beam="1">  1        4 0.35528843E-01 0.10386795E+04</pdfrwt>
<totfact> 0.65966278E+00</totfact>
</mgrwt>
</event>
<event>
 6    1  0.1412458E-005  0.1019179E+04  0.7818608E-02  0.9821007E-01
         21   -1    0    0  501  502  0.00000000000E+00  0.00000000000E+00  0.15636831467E+04  0.15636831467E+04  0.00000000000E+00 0.  1.
          4   -1    0    0  502    0 -0.00000000000E+00 -0.00000000000E+00 -0.25483528064E+03  0.25483528064E+03  0.00000000000E+00 0.  1.
    9000010    2    1    2  501    0 -0.71036457711E+02  0.14441536924E+03  0.13072143361E+04  0.16575691907E+04  0.10063917350E+04 0.  0.
        -13    1    3    3    0    0  0.41160558886E+03  0.23166779912E+03  0.91443163329E+03  0.10292105485E+04  0.10566000000E+00 0.  1.
          4    1    3    3  501    0 -0.48264204657E+03 -0.87252429876E+02  0.39278270278E+03  0.62835864221E+03  0.00000000000E+00 0.  1.
         13    1    1    2    0    0  0.71036457711E+02 -0.14441536924E+03  0.16335299826E+01  0.16094923666E+03  0.10566000000E+00 0. -1.
<mgrwt>
<rscale>  1 0.64247253E+03</rscale>
<asrwt>0</asrwt>
<pdfrwt beam="1">  1       21 0.24056663E+00 0.10191792E+04</pdfrwt>
<pdfrwt beam="2">  1        4 0.39205429E-01 0.10191792E+04</pdfrwt>
<totfact> 0.15856237E+01</totfact>
</mgrwt>
</event>
<event>
 6    1  0.1412458E-005  0.1008879E+04  0.7818608E-02  0.9833438E-01
         21   -1    0    0  501  502  0.00000000000E+00  0.00000000000E+00  0.18437236061E+04  0.18437236061E+04  0.00000000000E+00 0.  1.
          4   -1    0    0  502    0 -0.00000000000E+00 -0.00000000000E+00 -0.27563643439E+03  0.27563643439E+03  0.00000000000E+00 0.  1.
    9000010    2    1    2  501    0 -0.15771393033E+03 -0.22569788088E+02  0.16547089787E+04  0.19380138860E+04  0.99621932268E+03 0.  0.
        -13    1    3    3    0    0 -0.45642162058E+02 -0.10985614220E+02 -0.13594304501E+03  0.14382076807E+03  0.10566000000E+00 0.  1.
          4    1    3    3  501    0 -0.11207176827E+03 -0.11584173869E+02  0.17906520237E+04  0.17941931179E+04  0.00000000000E+00 0.  1.
         13    1    1    2    0    0  0.15771393033E+03  0.22569788088E+02 -0.86621806968E+02  0.18134615453E+03  0.10566000000E+00 0. -1.
<mgrwt>
<rscale>  1 0.63598554E+03</rscale>
<asrwt>0</asrwt>
<pdfrwt beam="1">  1       21 0.28364978E+00 0.10088786E+04</pdfrwt>
<pdfrwt beam="2">  1        4 0.42405606E-01 0.10088786E+04</pdfrwt>
<totfact> 0.72365078E+00</totfact>
</mgrwt>
</event>
<event>
 6    1  0.1412458E-005  0.1070916E+04  0.7818608E-02  0.9524559E-01
          4   -1    0    0  502    0 -0.00000000000E+00  0.00000000000E+00  0.18948911829E+03  0.18948911829E+03  0.00000000000E+00 0.  1.
         21   -1    0    0  501  502  0.00000000000E+00 -0.00000000000E+00 -0.27682707628E+04  0.27682707628E+04  0.00000000000E+00 0.  1.
    9000010    2    1    2  501    0 -0.29113034201E+03 -0.23972690885E+03 -0.18732757945E+04  0.21577821424E+04  0.10023151724E+04 0.  0.
        -13    1    3    3    0    0  0.49981021911E+02 -0.45903085233E+03 -0.16085180808E+04  0.16734807598E+04  0.10566000000E+00 0.  1.
          4    1    3    3  501    0 -0.34111136392E+03  0.21930394348E+03 -0.26475771371E+03  0.48430138260E+03  0.00000000000E+00 0.  1.
         13    1    1    2    0    0  0.29113034201E+03  0.23972690885E+03 -0.70550584996E+03  0.79997773866E+03  0.10566000000E+00 0. -1.
<mgrwt>
<rscale>  1 0.82497162E+03</rscale>
<asrwt>0</asrwt>
<pdfrwt beam="2">  1       21 0.42588777E+00 0.10709162E+04</pdfrwt>
<pdfrwt beam="1">  1        4 0.29152175E-01 0.10709162E+04</pdfrwt>
<totfact> 0.18697124E+00</totfact>
</mgrwt>
</event>
<event>
 6    1  0.1412458E-005  0.1104246E+04  0.7818608E-02  0.9450575E-01
         21   -1    0    0  501  502  0.00000000000E+00  0.00000000000E+00  0.11032618345E+04  0.11032618345E+04  0.00000000000E+00 0. -1.
          4   -1    0    0  502    0 -0.00000000000E+00 -0.00000000000E+00 -0.56233442067E+03  0.56233442067E+03  0.00000000000E+00 0.  1.
    9000010    2    1    2  501    0  0.28813573879E+03 -0.34036328589E+03  0.51625497306E+03  0.12189665306E+04  0.10101934642E+04 0.  0.
        -13    1    3    3    0    0  0.50244918189E+03 -0.58847132960E+03  0.32387490378E+03  0.83883767835E+03  0.10566000000E+00 0.  1.
          4    1    3    3  501    0 -0.21431344310E+03  0.24810804371E+03  0.19238006928E+03  0.38012885224E+03  0.00000000000E+00 0.  1.
         13    1    1    2    0    0 -0.28813573879E+03  0.34036328589E+03  0.24672440728E+02  0.44662972454E+03  0.10566000000E+00 0. -1.
<mgrwt>
<rscale>  1 0.88027932E+03</rscale>
<asrwt>0</asrwt>
<pdfrwt beam="1">  1       21 0.16973259E+00 0.11042464E+04</pdfrwt>
<pdfrwt beam="2">  1        4 0.86512988E-01 0.11042464E+04</pdfrwt>
<totfact> 0.86017751E+00</totfact>
</mgrwt>
</event>
<event>
 6    1  0.1412458E-005  0.1000309E+04  0.7818608E-02  0.1001223E+00
         21   -1    0    0  501  502  0.00000000000E+00  0.00000000000E+00  0.11725709070E+04  0.11725709070E+04  0.00000000000E+00 0.  1.
          4   -1    0    0  502    0 -0.00000000000E+00 -0.00000000000E+00 -0.25466416480E+03  0.25466416480E+03  0.00000000000E+00 0.  1.
    9000010    2    1    2  501    0  0.67695329510E+02 -0.62600878852E+02  0.85083089112E+03  0.13132144217E+04  0.99605089455E+03 0.  0.
        -13    1    3    3    0    0  0.15547279969E+03  0.29408945617E+03  0.88387195564E+03  0.94439930368E+03  0.10566000000E+00 0.  1.
          4    1    3    3  501    0 -0.87777470182E+02 -0.35669033502E+03 -0.33041064518E+02  0.36881511806E+03  0.00000000000E+00 0.  1.
         13    1    1    2    0    0 -0.67695329510E+02  0.62600878852E+02  0.67075851043E+02  0.11402065001E+03  0.10566000000E+00 0. -1.
<mgrwt>
<rscale>  1 0.55117303E+03</rscale>
<asrwt>0</asrwt>
<pdfrwt beam="1">  1       21 0.18039552E+00 0.10003094E+04</pdfrwt>
<pdfrwt beam="2">  1        4 0.39179103E-01 0.10003094E+04</pdfrwt>
<totfact> 0.40615048E+01</totfact>
</mgrwt>
</event>
<event>
 6    1  0.1412458E-005  0.1030036E+04  0.7818608E-02  0.9745983E-01
          4   -1    0    0  502    0 -0.00000000000E+00  0.00000000000E+00  0.37650471940E+04  0.37650471940E+04  0.00000000000E+00 0.  1.
         21   -1    0    0  501  502  0.00000000000E+00 -0.00000000000E+00 -0.10066264541E+03  0.10066264541E+03  0.00000000000E+00 0.  1.
    9000010    2    1    2  501    0  0.13468107251E+03  0.14736169373E+03  0.31387232842E+04  0.33034161118E+04  0.10105046723E+04 0.  0.
        -13    1    3    3    0    0  0.37738614021E+03 -0.19544257835E+03  0.63109338263E+03  0.76085279064E+03  0.10566000000E+00 0.  1.
          4    1    3    3  501    0 -0.24270506771E+03  0.34280427209E+03  0.25076299016E+04  0.25425633212E+04  0.00000000000E+00 0.  1.
         13    1    1    2    0    0 -0.13468107251E+03 -0.14736169373E+03  0.52566126441E+03  0.56229372764E+03  0.10566000000E+00 0. -1.
<mgrwt>
<rscale>  1 0.68343779E+03</rscale>
<asrwt>0</asrwt>
<pdfrwt beam="2">  1       21 0.15486564E-01 0.10300360E+04</pdfrwt>
<pdfrwt beam="1">  1        4 0.57923792E+00 0.10300360E+04</pdfrwt>
<totfact> 0.42405535E-01</totfact>
</mgrwt>
</event>
<event>
 6    1  0.1412458E-005  0.1014608E+04  0.7818608E-02  0.1004384E+00
         21   -1    0    0  501  502  0.00000000000E+00  0.00000000000E+00  0.28672189304E+04  0.28672189304E+04  0.00000000000E+00 0.  1.
          4   -1    0    0  502    0 -0.00000000000E+00 -0.00000000000E+00 -0.16642711412E+03  0.16642711412E+03  0.00000000000E+00 0.  1.
    9000010    2    1    2  501    0  0.49957327038E+01  0.79870114630E+02  0.27557307926E+04  0.29365765084E+04  0.10114470799E+04 0.  0.
        -13    1    3    3    0    0 -0.34800870900E+03 -0.30395062473E+03  0.16596790570E+04  0.17227973262E+04  0.10566000000E+00 0.  1.
          4    1    3    3  501    0  0.35300444171E+03  0.38382073936E+03  0.10960517356E+04  0.12137791821E+04  0.00000000000E+00 0.  1.
         13    1    1    2    0    0 -0.49957327038E+01 -0.79870114630E+02 -0.54938976372E+02  0.97069536133E+02  0.10566000000E+00 0. -1.
<mgrwt>
<rscale>  1 0.53768987E+03</rscale>
<asrwt>0</asrwt>
<pdfrwt beam="1">  1       21 0.44111057E+00 0.10146080E+04</pdfrwt>
<pdfrwt beam="2">  1        4 0.25604174E-01 0.10146080E+04</pdfrwt>
<totfact> 0.19186168E+00</totfact>
</mgrwt>
</event>
<event>
 6    1  0.1412458E-005  0.1004204E+04  0.7818608E-02  0.9699725E-01
         21   -1    0    0  501  502  0.00000000000E+00  0.00000000000E+00  0.28408541246E+03  0.28408541246E+03  0.00000000000E+00 0.  1.
          4   -1    0    0  502    0 -0.00000000000E+00 -0.00000000000E+00 -0.14356542461E+04  0.14356542461E+04  0.00000000000E+00 0.  1.
    9000010    2    1    2  501    0 -0.19211193234E+03  0.16216907008E+03 -0.78203804625E+03  0.12727957965E+04  0.97222416755E+03 0.  0.
        -13    1    3    3    0    0 -0.44766529303E+03  0.65078739721E+02 -0.85852453189E+01  0.45245240031E+03  0.10566000000E+00 0.  1.
          4    1    3    3  501    0  0.25555336068E+03  0.97090330357E+02 -0.77345280093E+03  0.82034339619E+03  0.00000000000E+00 0.  1.
         13    1    1    2    0    0  0.19211193234E+03 -0.16216907008E+03 -0.36953078743E+03  0.44694386209E+03  0.10566000000E+00 0. -1.
<mgrwt>
<rscale>  1 0.71033151E+03</rscale>
<asrwt>0</asrwt>
<pdfrwt beam="1">  1       21 0.43705447E-01 0.10042040E+04</pdfrwt>
<pdfrwt beam="2">  1        4 0.22086989E+00 0.10042040E+04</pdfrwt>
<totfact> 0.19305673E+01</totfact>
</mgrwt>
</event>
<event>
 6    1  0.1412458E-005  0.9755773E+03  0.7818608E-02  0.9732562E-01
         21   -1    0    0  501  502  0.00000000000E+00  0.00000000000E+00  0.64167642607E+03  0.64167642607E+03  0.00000000000E+00 0.  1.
          4   -1    0    0  502    0 -0.00000000000E+00 -0.00000000000E+00 -0.59692907547E+03  0.59692907547E+03  0.00000000000E+00 0.  1.
    9000010    2    1    2  501    0 -0.24552796480E+03 -0.90545578704E+01  0.11684775243E+03  0.98254994970E+03  0.94413189751E+03 0.  0.
        -13    1    3    3    0    0  0.17115096906E+03 -0.26824429058E+03 -0.22044338563E+03  0.38709553223E+03  0.10566000000E+00 0.  1.
          4    1    3    3  501    0 -0.41667893387E+03  0.25918973271E+03  0.33729113807E+03  0.59545441747E+03  0.00000000000E+00 0.  1.
         13    1    1    2    0    0  0.24552796480E+03  0.90545578704E+01 -0.72100401835E+02  0.25605555184E+03  0.10566000000E+00 0. -1.
<mgrwt>
<rscale>  1 0.69110699E+03</rscale>
<asrwt>0</asrwt>
<pdfrwt beam="1">  1       21 0.98719451E-01 0.97557727E+03</pdfrwt>
<pdfrwt beam="2">  1        4 0.91835242E-01 0.97557727E+03</pdfrwt>
<totfact> 0.32238577E+01</totfact>
</mgrwt>
</event>
<event>
 6    1  0.1412458E-005  0.8521466E+03  0.7818608E-02  0.1001690E+00
         21   -1    0    0  501  502  0.00000000000E+00  0.00000000000E+00  0.10628981100E+03  0.10628981100E+03  0.00000000000E+00 0.  1.
          4   -1    0    0  502    0 -0.00000000000E+00 -0.00000000000E+00 -0.23761821798E+04  0.23761821798E+04  0.00000000000E+00 0.  1.
    9000010    2    1    2  501    0  0.14605352750E+03 -0.16395893460E+02 -0.18299817513E+04  0.20186597219E+04  0.83937679531E+03 0.  0.
        -13    1    3    3    0    0  0.42194087655E+03  0.23131058982E+03 -0.10546146891E+04  0.11592026768E+04  0.10566000000E+00 0.  1.
          4    1    3    3  501    0 -0.27588734905E+03 -0.24770648329E+03 -0.77536706218E+03  0.85945704508E+03  0.00000000000E+00 0.  1.
         13    1    1    2    0    0 -0.14605352750E+03  0.16395893460E+02 -0.43991061749E+03  0.46381226888E+03  0.10566000000E+00 0. -1.
<mgrwt>
<rscale>  1 0.54915336E+03</rscale>
<asrwt>0</asrwt>
<pdfrwt beam="1">  1       21 0.16352279E-01 0.85214662E+03</pdfrwt>
<pdfrwt beam="2">  1        4 0.36556648E+00 0.85214662E+03</pdfrwt>
<totfact> 0.17346019E+01</totfact>
</mgrwt>
</event>
<event>
 6    1  0.1412458E-005  0.1030221E+04  0.7818608E-02  0.9714368E-01
          4   -1    0    0  502    0 -0.00000000000E+00  0.00000000000E+00  0.10601261306E+04  0.10601261306E+04  0.00000000000E+00 0.  1.
         21   -1    0    0  501  502  0.00000000000E+00 -0.00000000000E+00 -0.41783016151E+03  0.41783016151E+03  0.00000000000E+00 0.  1.
    9000010    2    1    2  501    0  0.20121065274E+03  0.93078639853E+02  0.30517270160E+03  0.10744696522E+04  0.10060841394E+04 0.  0.
        -13    1    3    3    0    0 -0.14827584651E+03 -0.22154774425E+03  0.49907681576E+03  0.56581517197E+03  0.10566000000E+00 0.  1.
          4    1    3    3  501    0  0.34948649925E+03  0.31462638410E+03 -0.19390411416E+03  0.50865448019E+03  0.00000000000E+00 0.  1.
         13    1    1    2    0    0 -0.20121065274E+03 -0.93078639853E+02  0.33712326748E+03  0.40348663994E+03  0.10566000000E+00 0. -1.
<mgrwt>
<rscale>  1 0.70167733E+03</rscale>
<asrwt>0</asrwt>
<pdfrwt beam="2">  1       21 0.64281564E-01 0.10302207E+04</pdfrwt>
<pdfrwt beam="1">  1        4 0.16309633E+00 0.10302207E+04</pdfrwt>
<totfact> 0.20457533E+01</totfact>
</mgrwt>
</event>
<event>
 6    1  0.1412458E-005  0.1365450E+04  0.7818608E-02  0.9078112E-01
          4   -1    0    0  502    0 -0.00000000000E+00  0.00000000000E+00  0.21901586405E+04  0.21901586405E+04  0.00000000000E+00 0.  1.
         21   -1    0    0  501  502  0.00000000000E+00 -0.00000000000E+00 -0.60218255009E+03  0.60218255009E+03  0.00000000000E+00 0. -1.
    9000010    2    1    2  501    0 -0.61571553804E+03 -0.69728293047E+03  0.98822458508E+03  0.16855390455E+04  0.99957237586E+03 0.  0.
        -13    1    3    3    0    0 -0.44269699560E+03  0.21891218534E+02  0.81207187044E+03  0.92515976419E+03  0.10566000000E+00 0.  1.
          4    1    3    3  501    0 -0.17301854245E+03 -0.71917414901E+03  0.17615271464E+03  0.76037928135E+03  0.00000000000E+00 0.  1.
         13    1    1    2    0    0  0.61571553804E+03  0.69728293047E+03  0.59975150529E+03  0.11068021450E+04  0.10566000000E+00 0. -1.
<mgrwt>
<rscale>  1 0.12405188E+04</rscale>
<asrwt>0</asrwt>
<pdfrwt beam="2">  1       21 0.92643470E-01 0.13654501E+04</pdfrwt>
<pdfrwt beam="1">  1        4 0.33694748E+00 0.13654501E+04</pdfrwt>
<totfact> 0.63260414E-01</totfact>
</mgrwt>
</event>
<event>
 6    1  0.1412458E-005  0.1024675E+04  0.7818608E-02  0.9684026E-01
         21   -1    0    0  501  502  0.00000000000E+00  0.00000000000E+00  0.37952020591E+03  0.37952020591E+03  0.00000000000E+00 0.  1.
          4   -1    0    0  502    0 -0.00000000000E+00 -0.00000000000E+00 -0.15369216193E+04  0.15369216193E+04  0.00000000000E+00 0.  1.
    9000010    2    1    2  501    0 -0.17731789384E+03 -0.17545732654E+03 -0.36830739916E+03  0.10888572172E+04  0.99384746834E+03 0.  0.
        -13    1    3    3    0    0 -0.55066023656E+03  0.83671393880E+02 -0.28912845404E+03  0.62755308332E+03  0.10566000000E+00 0.  1.
          4    1    3    3  501    0  0.37334234272E+03 -0.25912872042E+03 -0.79178945116E+02  0.46130413391E+03  0.00000000000E+00 0.  1.
         13    1    1    2    0    0  0.17731789384E+03  0.17545732654E+03 -0.78909401427E+03  0.82758460802E+03  0.10566000000E+00 0. -1.
<mgrwt>
<rscale>  1 0.71975887E+03</rscale>
<asrwt>0</asrwt>
<pdfrwt beam="1">  1       21 0.58387724E-01 0.10246754E+04</pdfrwt>
<pdfrwt beam="2">  1        4 0.23644948E+00 0.10246754E+04</pdfrwt>
<totfact> 0.81986979E+00</totfact>
</mgrwt>
</event>
<event>
 6    1  0.1412458E-005  0.1024402E+04  0.7818608E-02  0.9663812E-01
         21   -1    0    0  501  502  0.00000000000E+00  0.00000000000E+00  0.13482048277E+03  0.13482048277E+03  0.00000000000E+00 0.  1.
          4   -1    0    0  502    0 -0.00000000000E+00 -0.00000000000E+00 -0.31153630662E+04  0.31153630662E+04  0.00000000000E+00 0.  1.
    9000010    2    1    2  501    0  0.54466313894E+01  0.26720730198E+03 -0.24676505628E+04  0.26718344814E+04  0.98892405553E+03 0.  0.
        -13    1    3    3    0    0  0.59211340192E+02  0.16408118633E+03  0.25220685078E+02  0.17625184434E+03  0.10566000000E+00 0.  1.
          4    1    3    3  501    0 -0.53764708802E+02  0.10312611565E+03 -0.24928712479E+04  0.24955826370E+04  0.00000000000E+00 0.  1.
         13    1    1    2    0    0 -0.54466313894E+01 -0.26720730198E+03 -0.51289202068E+03  0.57834906766E+03  0.10566000000E+00 0. -1.
<mgrwt>
<rscale>  1 0.73212902E+03</rscale>
<asrwt>0</asrwt>
<pdfrwt beam="1">  1       21 0.20741612E-01 0.10244024E+04</pdfrwt>
<pdfrwt beam="2">  1        4 0.47928664E+00 0.10244024E+04</pdfrwt>
<totfact> 0.16430399E+00</totfact>
</mgrwt>
</event>
<event>
 6    1  0.1412458E-005  0.9709503E+03  0.7818608E-02  0.9968283E-01
         21   -1    0    0  501  502  0.00000000000E+00  0.00000000000E+00  0.24298914311E+03  0.24298914311E+03  0.00000000000E+00 0.  1.
          4   -1    0    0  502    0 -0.00000000000E+00 -0.00000000000E+00 -0.13387942124E+04  0.13387942124E+04  0.00000000000E+00 0.  1.
    9000010    2    1    2  501    0 -0.11550091489E+03 -0.87589719676E+01 -0.78014068879E+03  0.12455376221E+04  0.96401623064E+03 0.  0.
        -13    1    3    3    0    0 -0.17439583104E+03 -0.22402917818E+03 -0.93286056222E+03  0.97510605489E+03  0.10566000000E+00 0.  1.
          4    1    3    3  501    0  0.58894916144E+02  0.21527020621E+03  0.15271987343E+03  0.27043156726E+03  0.00000000000E+00 0.  1.
         13    1    1    2    0    0  0.11550091489E+03  0.87589719676E+01 -0.31566438054E+03  0.33624573341E+03  0.10566000000E+00 0. -1.
<mgrwt>
<rscale>  1 0.57063112E+03</rscale>
<asrwt>0</asrwt>
<pdfrwt beam="1">  1       21 0.37382945E-01 0.97095029E+03</pdfrwt>
<pdfrwt beam="2">  1        4 0.20596834E+00 0.97095029E+03</pdfrwt>
<totfact> 0.33532195E+01</totfact>
</mgrwt>
</event>
<event>
 6    1  0.1412458E-005  0.9807542E+03  0.7818608E-02  0.9878654E-01
          4   -1    0    0  502    0 -0.00000000000E+00  0.00000000000E+00  0.78069719122E+03  0.78069719122E+03  0.00000000000E+00 0.  1.
         21   -1    0    0  501  502  0.00000000000E+00 -0.00000000000E+00 -0.42106317669E+03  0.42106317669E+03  0.00000000000E+00 0.  1.
    9000010    2    1    2  501    0  0.13848538456E+03  0.56975738552E+02  0.23897169014E+03  0.10094485268E+04  0.96925457087E+03 0.  0.
        -13    1    3    3    0    0 -0.21246386995E+03  0.24028922260E+03  0.45632313321E+03  0.55777291042E+03  0.10566000000E+00 0.  1.
          4    1    3    3  501    0  0.35094925451E+03 -0.18331348405E+03 -0.21735144307E+03  0.45167561643E+03  0.00000000000E+00 0.  1.
         13    1    1    2    0    0 -0.13848538456E+03 -0.56975738552E+02  0.12066232439E+03  0.19231184106E+03  0.10566000000E+00 0. -1.
<mgrwt>
<rscale>  1 0.61307042E+03</rscale>
<asrwt>0</asrwt>
<pdfrwt beam="2">  1       21 0.64778950E-01 0.98075423E+03</pdfrwt>
<pdfrwt beam="1">  1        4 0.12010726E+00 0.98075423E+03</pdfrwt>
<totfact> 0.45200240E+01</totfact>
</mgrwt>
</event>
<event>
 6    1  0.1412458E-005  0.1023167E+04  0.7818608E-02  0.9733220E-01
         21   -1    0    0  501  502  0.00000000000E+00  0.00000000000E+00  0.15404917605E+04  0.15404917605E+04  0.00000000000E+00 0.  1.
          4   -1    0    0  502    0 -0.00000000000E+00 -0.00000000000E+00 -0.26296016186E+03  0.26296016186E+03  0.00000000000E+00 0.  1.
    9000010    2    1    2  501    0 -0.17611111161E+03 -0.11894504414E+03  0.12006044407E+04  0.15774412015E+04  0.10008529732E+04 0.  0.
        -13    1    3    3    0    0 -0.47886399388E+03 -0.35790485883E+03  0.93262225882E+03  0.11077864873E+04  0.10566000000E+00 0.  1.
          4    1    3    3  501    0  0.30275288227E+03  0.23895981469E+03  0.26798218188E+03  0.46965471419E+03  0.00000000000E+00 0.  1.
         13    1    1    2    0    0  0.17611111161E+03  0.11894504414E+03  0.76927157955E+02  0.22601072088E+03  0.10566000000E+00 0. -1.
<mgrwt>
<rscale>  1 0.69072895E+03</rscale>
<asrwt>0</asrwt>
<pdfrwt beam="1">  1       21 0.23699873E+00 0.10231665E+04</pdfrwt>
<pdfrwt beam="2">  1        4 0.40455410E-01 0.10231665E+04</pdfrwt>
<totfact> 0.15672554E+01</totfact>
</mgrwt>
</event>
<event>
 6    1  0.1412458E-005  0.1122945E+04  0.7818608E-02  0.9385219E-01
         21   -1    0    0  501  502  0.00000000000E+00  0.00000000000E+00  0.82212036923E+03  0.82212036923E+03  0.00000000000E+00 0.  1.
          4   -1    0    0  502    0 -0.00000000000E+00 -0.00000000000E+00 -0.10960716917E+04  0.10960716917E+04  0.00000000000E+00 0.  1.
    9000010    2    1    2  501    0 -0.30584610001E+03 -0.43916388231E+03  0.27017427388E+03  0.11549886620E+04  0.98721726008E+03 0.  0.
        -13    1    3    3    0    0 -0.39515418084E+03 -0.57188731460E+03 -0.14497454940E+03  0.71008419104E+03  0.10566000000E+00 0.  1.
          4    1    3    3  501    0  0.89308080836E+02  0.13272343229E+03  0.41514882328E+03  0.44490447093E+03  0.00000000000E+00 0.  1.
         13    1    1    2    0    0  0.30584610001E+03  0.43916388231E+03 -0.54412559634E+03  0.76320339895E+03  0.10566000000E+00 0. -1.
<mgrwt>
<rscale>  1 0.93302154E+03</rscale>
<asrwt>0</asrwt>
<pdfrwt beam="1">  1       21 0.12648006E+00 0.11229446E+04</pdfrwt>
<pdfrwt beam="2">  1        4 0.16862641E+00 0.11229446E+04</pdfrwt>
<totfact> 0.35629779E+00</totfact>
</mgrwt>
</event>
<event>
 6    1  0.1412458E-005  0.1018835E+04  0.7818608E-02  0.9800519E-01
         21   -1    0    0  501  502  0.00000000000E+00  0.00000000000E+00  0.65064821197E+03  0.65064821197E+03  0.00000000000E+00 0.  1.
          4   -1    0    0  502    0 -0.00000000000E+00 -0.00000000000E+00 -0.54722052372E+03  0.54722052372E+03  0.00000000000E+00 0.  1.
    9000010    2    1    2  501    0 -0.16801002245E+03 -0.38171312688E+02  0.11434489265E+03  0.10252315054E+04  0.10041615749E+04 0.  0.
        -13    1    3    3    0    0  0.13669598912E+03  0.10324124436E+03 -0.38615856638E+03  0.42244881054E+03  0.10566000000E+00 0.  1.
          4    1    3    3  501    0 -0.30470601156E+03 -0.14141255704E+03  0.50050345903E+03  0.60278269490E+03  0.00000000000E+00 0.  1.
         13    1    1    2    0    0  0.16801002245E+03  0.38171312688E+02 -0.10917204400E+02  0.17263723026E+03  0.10566000000E+00 0. -1.
<mgrwt>
<rscale>  1 0.65334714E+03</rscale>
<asrwt>0</asrwt>
<pdfrwt beam="1">  1       21 0.10009972E+00 0.10188351E+04</pdfrwt>
<pdfrwt beam="2">  1        4 0.84187773E-01 0.10188351E+04</pdfrwt>
<totfact> 0.38035306E+01</totfact>
</mgrwt>
</event>
<event>
 6    1  0.1412458E-005  0.1021643E+04  0.7818608E-02  0.9712438E-01
          4   -1    0    0  502    0 -0.00000000000E+00  0.00000000000E+00  0.55002392630E+03  0.55002392630E+03  0.00000000000E+00 0.  1.
         21   -1    0    0  501  502  0.00000000000E+00 -0.00000000000E+00 -0.71441724089E+03  0.71441724089E+03  0.00000000000E+00 0.  1.
    9000010    2    1    2  501    0  0.20177924529E+02  0.22790845210E+03 -0.16937063393E+03  0.10355870738E+04  0.99569310767E+03 0.  0.
        -13    1    3    3    0    0 -0.35017614091E+03  0.92981364924E+02 -0.43057481609E+03  0.56272866223E+03  0.10566000000E+00 0.  1.
          4    1    3    3  501    0  0.37035406543E+03  0.13492708717E+03  0.26120418216E+03  0.47285841159E+03  0.00000000000E+00 0.  1.
         13    1    1    2    0    0 -0.20177924529E+02 -0.22790845210E+03  0.49773193381E+01  0.22885409336E+03  0.10566000000E+00 0. -1.
<mgrwt>
<rscale>  1 0.70281063E+03</rscale>
<asrwt>0</asrwt>
<pdfrwt beam="2">  1       21 0.10991034E+00 0.10216429E+04</pdfrwt>
<pdfrwt beam="1">  1        4 0.84619066E-01 0.10216429E+04</pdfrwt>
<totfact> 0.29710520E+01</totfact>
</mgrwt>
</event>
<event>
 6    1  0.1412458E-005  0.1144070E+04  0.7818608E-02  0.9367886E-01
          4   -1    0    0  502    0 -0.00000000000E+00  0.00000000000E+00  0.14138469859E+04  0.14138469859E+04  0.00000000000E+00 0.  1.
         21   -1    0    0  501  502  0.00000000000E+00 -0.00000000000E+00 -0.70615605497E+03  0.70615605497E+03  0.00000000000E+00 0. -1.
    9000010    2    1    2  501    0 -0.53851665283E+03  0.88557863947E+01 -0.10084354566E+03  0.11485059378E+04  0.10093650767E+04 0.  0.
        -13    1    3    3    0    0 -0.37320975634E+03 -0.49136006718E+03 -0.65673489458E+02  0.62051048035E+03  0.10566000000E+00 0.  1.
          4    1    3    3  501    0 -0.16530689649E+03  0.50021585357E+03 -0.35170056202E+02  0.52799545741E+03  0.00000000000E+00 0.  1.
         13    1    1    2    0    0  0.53851665283E+03 -0.88557863947E+01  0.80853447654E+03  0.97149710306E+03  0.10566000000E+00 0. -1.
<mgrwt>
<rscale>  1 0.94766306E+03</rscale>
<asrwt>0</asrwt>
<pdfrwt beam="2">  1       21 0.10863939E+00 0.11440701E+04</pdfrwt>
<pdfrwt beam="1">  1        4 0.21751492E+00 0.11440701E+04</pdfrwt>
<totfact> 0.24543655E+00</totfact>
</mgrwt>
</event>
<event>
 6    1  0.1412458E-005  0.1032030E+04  0.7818608E-02  0.9731643E-01
          4   -1    0    0  502    0 -0.00000000000E+00  0.00000000000E+00  0.73550908983E+03  0.73550908983E+03  0.00000000000E+00 0.  1.
         21   -1    0    0  501  502  0.00000000000E+00 -0.00000000000E+00 -0.53614497995E+03  0.53614497995E+03  0.00000000000E+00 0.  1.
    9000010    2    1    2  501    0  0.20609570129E+03  0.29366766797E+02  0.88555006181E+02  0.10358225331E+04  0.10108157526E+04 0.  0.
        -13    1    3    3    0    0  0.57598018372E+03 -0.18199833518E+03  0.20443992527E+02  0.60439600763E+03  0.10566000000E+00 0.  1.
          4    1    3    3  501    0 -0.36988448242E+03  0.21136510197E+03  0.68111013654E+02  0.43142652544E+03  0.00000000000E+00 0.  1.
         13    1    1    2    0    0 -0.20609570129E+03 -0.29366766797E+02  0.11080910369E+03  0.23583153671E+03  0.10566000000E+00 0. -1.
<mgrwt>
<rscale>  1 0.69163623E+03</rscale>
<asrwt>0</asrwt>
<pdfrwt beam="2">  1       21 0.82483843E-01 0.10320302E+04</pdfrwt>
<pdfrwt beam="1">  1        4 0.11315525E+00 0.10320302E+04</pdfrwt>
<totfact> 0.29866245E+01</totfact>
</mgrwt>
</event>
<event>
 6    1  0.1412458E-005  0.1110225E+04  0.7818608E-02  0.9427763E-01
          4   -1    0    0  502    0 -0.00000000000E+00  0.00000000000E+00  0.70987439308E+03  0.70987439308E+03  0.00000000000E+00 0.  1.
         21   -1    0    0  501  502  0.00000000000E+00 -0.00000000000E+00 -0.88585476049E+03  0.88585476049E+03  0.00000000000E+00 0.  1.
    9000010    2    1    2  501    0  0.16539206524E+03  0.44606505934E+03 -0.12775956171E+03  0.11175515405E+04  0.10031302844E+04 0.  0.
        -13    1    3    3    0    0  0.12820358532E+03 -0.26481943066E+03  0.17682803281E+03  0.34326907011E+03  0.10566000000E+00 0.  1.
          4    1    3    3  501    0  0.37188479919E+02  0.71088449000E+03 -0.30458759452E+03  0.77428247035E+03  0.00000000000E+00 0.  1.
         13    1    1    2    0    0 -0.16539206524E+03 -0.44606505934E+03 -0.48220805698E+02  0.47817761311E+03  0.10566000000E+00 0. -1.
<mgrwt>
<rscale>  1 0.89825697E+03</rscale>
<asrwt>0</asrwt>
<pdfrwt beam="2">  1       21 0.13628535E+00 0.11102247E+04</pdfrwt>
<pdfrwt beam="1">  1        4 0.10921145E+00 0.11102247E+04</pdfrwt>
<totfact> 0.91161250E+00</totfact>
</mgrwt>
</event>
<event>
 6    1  0.1412458E-005  0.1065715E+04  0.7818608E-02  0.9651279E-01
         21   -1    0    0  501  502  0.00000000000E+00  0.00000000000E+00  0.18343224592E+04  0.18343224592E+04  0.00000000000E+00 0.  1.
          4   -1    0    0  502    0 -0.00000000000E+00 -0.00000000000E+00 -0.23545693144E+03  0.23545693144E+03  0.00000000000E+00 0.  1.
    9000010    2    1    2  501    0  0.52970089743E+02  0.24192167475E+03  0.12647051914E+04  0.16538526318E+04  0.10365410651E+04 0.  0.
        -13    1    3    3    0    0  0.13301714998E+03 -0.39656512680E+03  0.42968483339E+03  0.59965534201E+03  0.10566000000E+00 0.  1.
          4    1    3    3  501    0 -0.80047060237E+02  0.63848680155E+03  0.83502035802E+03  0.10541972898E+04  0.00000000000E+00 0.  1.
         13    1    1    2    0    0 -0.52970089743E+02 -0.24192167475E+03  0.33416033633E+03  0.41592675877E+03  0.10566000000E+00 0. -1.
<mgrwt>
<rscale>  1 0.73993202E+03</rscale>
<asrwt>0</asrwt>
<pdfrwt beam="1">  1       21 0.28220345E+00 0.10657154E+04</pdfrwt>
<pdfrwt beam="2">  1        4 0.36224145E-01 0.10657154E+04</pdfrwt>
<totfact> 0.10086532E+01</totfact>
</mgrwt>
</event>
<event>
 6    1  0.1412458E-005  0.1207083E+04  0.7818608E-02  0.9257550E-01
          4   -1    0    0  502    0 -0.00000000000E+00  0.00000000000E+00  0.70383247405E+03  0.70383247405E+03  0.00000000000E+00 0.  1.
         21   -1    0    0  501  502  0.00000000000E+00 -0.00000000000E+00 -0.13305370424E+04  0.13305370424E+04  0.00000000000E+00 0. -1.
    9000010    2    1    2  501    0  0.68330473091E+03  0.54893334851E+02 -0.60089368691E+03  0.13483776460E+04  0.99354437234E+03 0.  0.
        -13    1    3    3    0    0  0.81095222492E+03  0.52392516558E+02 -0.78133929654E+03  0.11273329563E+04  0.10566000000E+00 0.  1.
          4    1    3    3  501    0 -0.12764749400E+03  0.25008182928E+01  0.18044560963E+03  0.22104468972E+03  0.00000000000E+00 0.  1.
         13    1    1    2    0    0 -0.68330473091E+03 -0.54893334851E+02 -0.25810881414E+02  0.68599187041E+03  0.10566000000E+00 0. -1.
<mgrwt>
<rscale>  1 0.10478658E+04</rscale>
<asrwt>0</asrwt>
<pdfrwt beam="2">  1       21 0.20469801E+00 0.12070829E+04</pdfrwt>
<pdfrwt beam="1">  1        4 0.10828192E+00 0.12070829E+04</pdfrwt>
<totfact> 0.27864636E+00</totfact>
</mgrwt>
</event>
<event>
 6    1  0.1412458E-005  0.1042638E+04  0.7818608E-02  0.9484109E-01
         21   -1    0    0  501  502  0.00000000000E+00  0.00000000000E+00  0.52110338129E+03  0.52110338129E+03  0.00000000000E+00 0.  1.
          4   -1    0    0  502    0 -0.00000000000E+00 -0.00000000000E+00 -0.11196388865E+04  0.11196388865E+04  0.00000000000E+00 0.  1.
    9000010    2    1    2  501    0  0.28466403011E+03  0.37489562581E+03 -0.30636233298E+03  0.10867156312E+04  0.93032932007E+03 0.  0.
        -13    1    3    3    0    0  0.25776811999E+03  0.18955300616E+03 -0.63352582855E+03  0.70973920029E+03  0.10566000000E+00 0.  1.
          4    1    3    3  501    0  0.26895910122E+02  0.18534261965E+03  0.32716349557E+03  0.37697643093E+03  0.00000000000E+00 0.  1.
         13    1    1    2    0    0 -0.28466403011E+03 -0.37489562581E+03 -0.29217317220E+03  0.55402663655E+03  0.10566000000E+00 0. -1.
<mgrwt>
<rscale>  1 0.85465614E+03</rscale>
<asrwt>0</asrwt>
<pdfrwt beam="1">  1       21 0.80169752E-01 0.10426375E+04</pdfrwt>
<pdfrwt beam="2">  1        4 0.17225213E+00 0.10426375E+04</pdfrwt>
<totfact> 0.10536831E+01</totfact>
</mgrwt>
</event>
<event>
 6    1  0.1412458E-005  0.1135524E+04  0.7818608E-02  0.9389708E-01
          4   -1    0    0  502    0 -0.00000000000E+00  0.00000000000E+00  0.48563479675E+03  0.48563479675E+03  0.00000000000E+00 0.  1.
         21   -1    0    0  501  502  0.00000000000E+00 -0.00000000000E+00 -0.14698422512E+04  0.14698422512E+04  0.00000000000E+00 0.  1.
    9000010    2    1    2  501    0  0.43286709075E+03  0.26838370658E+03 -0.87758194279E+03  0.14351187646E+04  0.10148951029E+04 0.  0.
        -13    1    3    3    0    0  0.10276605157E+02 -0.28336156343E+03 -0.64109209588E+03  0.70099819601E+03  0.10566000000E+00 0.  1.
          4    1    3    3  501    0  0.42259048560E+03  0.55174527001E+03 -0.23648984691E+03  0.73412056856E+03  0.00000000000E+00 0.  1.
         13    1    1    2    0    0 -0.43286709075E+03 -0.26838370658E+03 -0.10662551171E+03  0.52035828342E+03  0.10566000000E+00 0. -1.
<mgrwt>
<rscale>  1 0.92927531E+03</rscale>
<asrwt>0</asrwt>
<pdfrwt beam="2">  1       21 0.22612957E+00 0.11355245E+04</pdfrwt>
<pdfrwt beam="1">  1        4 0.74713048E-01 0.11355245E+04</pdfrwt>
<totfact> 0.48564962E+00</totfact>
</mgrwt>
</event>
<event>
 6    1  0.1412458E-005  0.1008125E+04  0.7818608E-02  0.9742556E-01
         21   -1    0    0  501  502  0.00000000000E+00  0.00000000000E+00  0.34976907035E+03  0.34976907035E+03  0.00000000000E+00 0.  1.
          4   -1    0    0  502    0 -0.00000000000E+00 -0.00000000000E+00 -0.12575382578E+04  0.12575382578E+04  0.00000000000E+00 0.  1.
    9000010    2    1    2  501    0  0.19083274538E+03  0.99847069442E+02 -0.45525460413E+03  0.11061526282E+04  0.98485039898E+03 0.  0.
        -13    1    3    3    0    0 -0.43666880424E+02 -0.32644387875E+03  0.12199068437E+03  0.35121808133E+03  0.10566000000E+00 0.  1.
          4    1    3    3  501    0  0.23449962580E+03  0.42629094819E+03 -0.57724528850E+03  0.75493454690E+03  0.00000000000E+00 0.  1.
         13    1    1    2    0    0 -0.19083274538E+03 -0.99847069442E+02 -0.45251458336E+03  0.50115469997E+03  0.10566000000E+00 0. -1.
<mgrwt>
<rscale>  1 0.68538560E+03</rscale>
<asrwt>0</asrwt>
<pdfrwt beam="1">  1       21 0.53810627E-01 0.10081254E+04</pdfrwt>
<pdfrwt beam="2">  1        4 0.19346742E+00 0.10081254E+04</pdfrwt>
<totfact> 0.18620624E+01</totfact>
</mgrwt>
</event>
<event>
 6    1  0.1412458E-005  0.1034156E+04  0.7818608E-02  0.9678516E-01
          4   -1    0    0  502    0 -0.00000000000E+00  0.00000000000E+00  0.11613093176E+04  0.11613093176E+04  0.00000000000E+00 0.  1.
         21   -1    0    0  501  502  0.00000000000E+00 -0.00000000000E+00 -0.42757926623E+03  0.42757926623E+03  0.00000000000E+00 0.  1.
    9000010    2    1    2  501    0 -0.62558082975E+02  0.23915225673E+03  0.27870813940E+03  0.10710543756E+04  0.10041772418E+04 0.  0.
        -13    1    3    3    0    0  0.30679651682E+03  0.44200284845E+03  0.35252580923E+03  0.64324573696E+03  0.10566000000E+00 0.  1.
          4    1    3    3  501    0 -0.36935459980E+03 -0.20285059172E+03 -0.73817669825E+02  0.42780863868E+03  0.00000000000E+00 0.  1.
         13    1    1    2    0    0  0.62558082975E+02 -0.23915225673E+03  0.45502191201E+03  0.51783420824E+03  0.10566000000E+00 0. -1.
<mgrwt>
<rscale>  1 0.72310489E+03</rscale>
<asrwt>0</asrwt>
<pdfrwt beam="2">  1       21 0.65781426E-01 0.10341563E+04</pdfrwt>
<pdfrwt beam="1">  1        4 0.17866297E+00 0.10341563E+04</pdfrwt>
<totfact> 0.15001176E+01</totfact>
</mgrwt>
</event>
<event>
 6    1  0.1412458E-005  0.1029229E+04  0.7818608E-02  0.9762607E-01
         21   -1    0    0  501  502  0.00000000000E+00  0.00000000000E+00  0.12025360595E+04  0.12025360595E+04  0.00000000000E+00 0.  1.
          4   -1    0    0  502    0 -0.00000000000E+00 -0.00000000000E+00 -0.34923893187E+03  0.34923893187E+03  0.00000000000E+00 0.  1.
    9000010    2    1    2  501    0  0.15437819667E+03  0.10968207077E+03  0.88786583847E+03  0.13592709883E+04  0.10116566059E+04 0.  0.
        -13    1    3    3    0    0 -0.55542077366E+02  0.25064317376E+03 -0.14572553994E+03  0.29519970709E+03  0.10566000000E+00 0.  1.
          4    1    3    3  501    0  0.20992027404E+03 -0.14096110300E+03  0.10335913784E+04  0.10640712812E+04  0.00000000000E+00 0.  1.
         13    1    1    2    0    0 -0.15437819667E+03 -0.10968207077E+03 -0.34568710837E+02  0.19250400304E+03  0.10566000000E+00 0. -1.
<mgrwt>
<rscale>  1 0.67408468E+03</rscale>
<asrwt>0</asrwt>
<pdfrwt beam="1">  1       21 0.18500555E+00 0.10292288E+04</pdfrwt>
<pdfrwt beam="2">  1        4 0.53729067E-01 0.10292288E+04</pdfrwt>
<totfact> 0.19423532E+01</totfact>
</mgrwt>
</event>
<event>
 6    1  0.1412458E-005  0.9986597E+03  0.7818608E-02  0.1011934E+00
         21   -1    0    0  501  502  0.00000000000E+00  0.00000000000E+00  0.12012071494E+04  0.12012071494E+04  0.00000000000E+00 0.  1.
          4   -1    0    0  502    0 -0.00000000000E+00 -0.00000000000E+00 -0.26843184935E+03  0.26843184935E+03  0.00000000000E+00 0.  1.
    9000010    2    1    2  501    0  0.54526607090E+02 -0.37908206396E+02  0.97109810966E+03  0.13929654578E+04  0.99644921845E+03 0.  0.
        -13    1    3    3    0    0  0.41463931309E+03 -0.21383701546E+03  0.16880144352E+03  0.49613099847E+03  0.10566000000E+00 0.  1.
          4    1    3    3  501    0 -0.36011270600E+03  0.17592880907E+03  0.80229666614E+03  0.89683445929E+03  0.00000000000E+00 0.  1.
         13    1    1    2    0    0 -0.54526607090E+02  0.37908206396E+02 -0.38322809584E+02  0.76673541012E+02  0.10566000000E+00 0. -1.
<mgrwt>
<rscale>  1 0.50713124E+03</rscale>
<asrwt>0</asrwt>
<pdfrwt beam="1">  1       21 0.18480110E+00 0.99865972E+03</pdfrwt>
<pdfrwt beam="2">  1        4 0.41297208E-01 0.99865972E+03</pdfrwt>
<totfact> 0.33915359E+01</totfact>
</mgrwt>
</event>
<event>
 6    1  0.1412458E-005  0.1048881E+04  0.7818608E-02  0.9704289E-01
          4   -1    0    0  502    0 -0.00000000000E+00  0.00000000000E+00  0.83131540821E+03  0.83131540821E+03  0.00000000000E+00 0.  1.
         21   -1    0    0  501  502  0.00000000000E+00 -0.00000000000E+00 -0.52483495561E+03  0.52483495561E+03  0.00000000000E+00 0.  1.
    9000010    2    1    2  501    0 -0.78136041543E+02 -0.20274534375E+03  0.95381887509E+02  0.10532088996E+04  0.10261288254E+04 0.  0.
        -13    1    3    3    0    0  0.18990780557E+03 -0.54209224028E+03 -0.92362575796E+02  0.58177300399E+03  0.10566000000E+00 0.  1.
          4    1    3    3  501    0 -0.26804384712E+03  0.33934689653E+03  0.18774446331E+03  0.47143589561E+03  0.00000000000E+00 0.  1.
         13    1    1    2    0    0  0.78136041543E+02  0.20274534375E+03  0.21109856509E+03  0.30294146422E+03  0.10566000000E+00 0. -1.
<mgrwt>
<rscale>  1 0.70761979E+03</rscale>
<asrwt>0</asrwt>
<pdfrwt beam="2">  1       21 0.80743839E-01 0.10488810E+04</pdfrwt>
<pdfrwt beam="1">  1        4 0.12789468E+00 0.10488810E+04</pdfrwt>
<totfact> 0.23038871E+01</totfact>
</mgrwt>
</event>
<event>
 6    1  0.1412458E-005  0.1127143E+04  0.7818608E-02  0.9396501E-01
          4   -1    0    0  502    0 -0.00000000000E+00  0.00000000000E+00  0.55380485814E+03  0.55380485814E+03  0.00000000000E+00 0.  1.
         21   -1    0    0  501  502  0.00000000000E+00 -0.00000000000E+00 -0.14300029952E+04  0.14300029952E+04  0.00000000000E+00 0. -1.
    9000010    2    1    2  501    0  0.45072026031E+03  0.23488148420E+03 -0.94505972185E+03  0.14709141083E+04  0.10060478972E+04 0.  0.
        -13    1    3    3    0    0  0.34553263389E+03  0.61374458052E+03 -0.43854300925E+03  0.82969584387E+03  0.10566000000E+00 0.  1.
          4    1    3    3  501    0  0.10518762642E+03 -0.37886309632E+03 -0.50651671260E+03  0.64121826444E+03  0.00000000000E+00 0.  1.
         13    1    1    2    0    0 -0.45072026031E+03 -0.23488148420E+03  0.68861584785E+02  0.51289374504E+03  0.10566000000E+00 0. -1.
<mgrwt>
<rscale>  1 0.92364163E+03</rscale>
<asrwt>0</asrwt>
<pdfrwt beam="2">  1       21 0.22000046E+00 0.11271426E+04</pdfrwt>
<pdfrwt beam="1">  1        4 0.85200747E-01 0.11271426E+04</pdfrwt>
<totfact> 0.39446602E+00</totfact>
</mgrwt>
</event>
<event>
 6    1  0.1412458E-005  0.9981168E+03  0.7818608E-02  0.9923854E-01
         21   -1    0    0  501  502  0.00000000000E+00  0.00000000000E+00  0.41010295616E+03  0.41010295616E+03  0.00000000000E+00 0.  1.
          4   -1    0    0  502    0 -0.00000000000E+00 -0.00000000000E+00 -0.11722961734E+04  0.11722961734E+04  0.00000000000E+00 0.  1.
    9000010    2    1    2  501    0  0.88365191413E+02 -0.85340323509E+02 -0.21424848993E+03  0.10208523254E+04  0.99052797893E+03 0.  0.
        -13    1    3    3    0    0 -0.27681378511E+03  0.23191661174E+03  0.17373240489E+03  0.40074199444E+03  0.10566000000E+00 0.  1.
          4    1    3    3  501    0  0.36517897653E+03 -0.31725693525E+03 -0.38798089482E+03  0.62011033100E+03  0.00000000000E+00 0.  1.
         13    1    1    2    0    0 -0.88365191413E+02  0.85340323509E+02 -0.54794472734E+03  0.56154680415E+03  0.10566000000E+00 0. -1.
<mgrwt>
<rscale>  1 0.59119011E+03</rscale>
<asrwt>0</asrwt>
<pdfrwt beam="1">  1       21 0.63092763E-01 0.99811675E+03</pdfrwt>
<pdfrwt beam="2">  1        4 0.18035326E+00 0.99811675E+03</pdfrwt>
<totfact> 0.16101013E+01</totfact>
</mgrwt>
</event>
<event>
 6    1  0.1412458E-005  0.1082370E+04  0.7818608E-02  0.9479695E-01
          4   -1    0    0  502    0 -0.00000000000E+00  0.00000000000E+00  0.38907257160E+03  0.38907257160E+03  0.00000000000E+00 0.  1.
         21   -1    0    0  501  502  0.00000000000E+00 -0.00000000000E+00 -0.16271356318E+04  0.16271356318E+04  0.00000000000E+00 0.  1.
    9000010    2    1    2  501    0  0.40963773288E+03  0.12171882365E+03 -0.57033184684E+03  0.12234386728E+04  0.99443714045E+03 0.  0.
        -13    1    3    3    0    0  0.17794860527E+03  0.28448353151E+03 -0.79439796486E+03  0.86235997330E+03  0.10566000000E+00 0.  1.
          4    1    3    3  501    0  0.23168912761E+03 -0.16276470786E+03  0.22406611801E+03  0.36107869948E+03  0.00000000000E+00 0.  1.
         13    1    1    2    0    0 -0.40963773288E+03 -0.12171882365E+03 -0.66773121334E+03  0.79276953061E+03  0.10566000000E+00 0. -1.
<mgrwt>
<rscale>  1 0.85797539E+03</rscale>
<asrwt>0</asrwt>
<pdfrwt beam="2">  1       21 0.25032856E+00 0.10823695E+04</pdfrwt>
<pdfrwt beam="1">  1        4 0.59857319E-01 0.10823695E+04</pdfrwt>
<totfact> 0.55888069E+00</totfact>
</mgrwt>
</event>
<event>
 6    1  0.1412458E-005  0.1021361E+04  0.7818608E-02  0.9712008E-01
          4   -1    0    0  502    0 -0.00000000000E+00  0.00000000000E+00  0.19481052240E+03  0.19481052240E+03  0.00000000000E+00 0.  1.
         21   -1    0    0  501  502  0.00000000000E+00 -0.00000000000E+00 -0.21408878487E+04  0.21408878487E+04  0.00000000000E+00 0.  1.
    9000010    2    1    2  501    0 -0.22889569069E+03 -0.13923536673E+02 -0.13204073333E+04  0.16693275633E+04  0.99528482652E+03 0.  0.
        -13    1    3    3    0    0  0.45791014854E+02  0.21333007546E+03  0.73745059052E+02  0.23031474776E+03  0.10566000000E+00 0.  1.
          4    1    3    3  501    0 -0.27468670554E+03 -0.22725361213E+03 -0.13941523923E+04  0.14390128156E+04  0.00000000000E+00 0.  1.
         13    1    1    2    0    0  0.22889569069E+03  0.13923536673E+02 -0.62566999308E+03  0.66637080780E+03  0.10566000000E+00 0. -1.
<mgrwt>
<rscale>  1 0.70306347E+03</rscale>
<asrwt>0</asrwt>
<pdfrwt beam="2">  1       21 0.32936738E+00 0.10213613E+04</pdfrwt>
<pdfrwt beam="1">  1        4 0.29970848E-01 0.10213613E+04</pdfrwt>
<totfact> 0.75181601E+00</totfact>
</mgrwt>
</event>
<event>
 6    1  0.1412458E-005  0.1011560E+04  0.7818608E-02  0.9564881E-01
         21   -1    0    0  501  502  0.00000000000E+00  0.00000000000E+00  0.95598858819E+03  0.95598858819E+03  0.00000000000E+00 0.  1.
          4   -1    0    0  502    0 -0.00000000000E+00 -0.00000000000E+00 -0.51326945396E+03  0.51326945396E+03  0.00000000000E+00 0.  1.
    9000010    2    1    2  501    0 -0.25159623187E+03  0.29684862846E+03  0.33292374832E+03  0.10649378596E+04  0.93372086324E+03 0.  0.
        -13    1    3    3    0    0 -0.21998482873E+03 -0.10003778202E+03 -0.25729236026E+03  0.35298760958E+03  0.10566000000E+00 0.  1.
          4    1    3    3  501    0 -0.31611403138E+02  0.39688641048E+03  0.59021610858E+03  0.71195024999E+03  0.00000000000E+00 0.  1.
         13    1    1    2    0    0  0.25159623187E+03 -0.29684862846E+03  0.10979538592E+03  0.40432018258E+03  0.10566000000E+00 0. -1.
<mgrwt>
<rscale>  1 0.79664840E+03</rscale>
<asrwt>0</asrwt>
<pdfrwt beam="1">  1       21 0.14707517E+00 0.10115604E+04</pdfrwt>
<pdfrwt beam="2">  1        4 0.78964532E-01 0.10115604E+04</pdfrwt>
<totfact> 0.16152348E+01</totfact>
</mgrwt>
</event>
<event>
 6    1  0.1412458E-005  0.1119476E+04  0.7818608E-02  0.9402914E-01
         21   -1    0    0  501  502  0.00000000000E+00  0.00000000000E+00  0.14570199644E+04  0.14570199644E+04  0.00000000000E+00 0.  1.
          4   -1    0    0  502    0 -0.00000000000E+00 -0.00000000000E+00 -0.46507671716E+03  0.46507671716E+03  0.00000000000E+00 0.  1.
    9000010    2    1    2  501    0 -0.46185837202E+03  0.20914204845E+03  0.81646624383E+03  0.13855841075E+04  0.99808448509E+03 0.  0.
        -13    1    3    3    0    0 -0.69741434461E+02  0.11995393053E+03 -0.22770725760E+03  0.26665224442E+03  0.10566000000E+00 0.  1.
          4    1    3    3  501    0 -0.39211693755E+03  0.89188117922E+02  0.10441735014E+04  0.11189318631E+04  0.00000000000E+00 0.  1.
         13    1    1    2    0    0  0.46185837202E+03 -0.20914204845E+03  0.17547700340E+03  0.53651257405E+03  0.10566000000E+00 0. -1.
<mgrwt>
<rscale>  1 0.91836220E+03</rscale>
<asrwt>0</asrwt>
<pdfrwt beam="1">  1       21 0.22415692E+00 0.11194759E+04</pdfrwt>
<pdfrwt beam="2">  1        4 0.71550265E-01 0.11194759E+04</pdfrwt>
<totfact> 0.55300496E+00</totfact>
</mgrwt>
</event>
<event>
 6    1  0.1412458E-005  0.1048254E+04  0.7818608E-02  0.9643989E-01
         21   -1    0    0  501  502  0.00000000000E+00  0.00000000000E+00  0.24877559462E+03  0.24877559462E+03  0.00000000000E+00 0.  1.
          4   -1    0    0  502    0 -0.00000000000E+00 -0.00000000000E+00 -0.17406183599E+04  0.17406183599E+04  0.00000000000E+00 0.  1.
    9000010    2    1    2  501    0  0.26455435869E+03  0.34144972520E+02 -0.12210219971E+04  0.16092639932E+04  0.10137460207E+04 0.  0.
        -13    1    3    3    0    0 -0.34736144397E+03 -0.11311332819E+03 -0.71027902814E+03  0.79871828998E+03  0.10566000000E+00 0.  1.
          4    1    3    3  501    0  0.61191580266E+03  0.14725830071E+03 -0.51074296894E+03  0.81054570321E+03  0.00000000000E+00 0.  1.
         13    1    1    2    0    0 -0.26455435869E+03 -0.34144972520E+02 -0.27082076823E+03  0.38012996135E+03  0.10566000000E+00 0. -1.
<mgrwt>
<rscale>  1 0.74451845E+03</rscale>
<asrwt>0</asrwt>
<pdfrwt beam="1">  1       21 0.38273168E-01 0.10482537E+04</pdfrwt>
<pdfrwt beam="2">  1        4 0.26778744E+00 0.10482537E+04</pdfrwt>
<totfact> 0.12949234E+01</totfact>
</mgrwt>
</event>
<event>
 6    1  0.1412458E-005  0.1106509E+04  0.7818608E-02  0.9433152E-01
         21   -1    0    0  501  502  0.00000000000E+00  0.00000000000E+00  0.67067224278E+03  0.67067224278E+03  0.00000000000E+00 0. -1.
          4   -1    0    0  502    0 -0.00000000000E+00 -0.00000000000E+00 -0.96228050234E+03  0.96228050234E+03  0.00000000000E+00 0.  1.
    9000010    2    1    2  501    0 -0.43580372438E+03  0.17980250163E+03 -0.61142783236E+02  0.11081973995E+04  0.10010540498E+04 0.  0.
        -13    1    3    3    0    0 -0.71381165389E+02 -0.40198108458E+03 -0.10089547121E+03  0.42055198300E+03  0.10566000000E+00 0.  1.
          4    1    3    3  501    0 -0.36442255899E+03  0.58178358621E+03  0.39752687977E+02  0.68764541653E+03  0.00000000000E+00 0.  1.
         13    1    1    2    0    0  0.43580372438E+03 -0.17980250163E+03 -0.23046547633E+03  0.52475534558E+03  0.10566000000E+00 0. -1.
<mgrwt>
<rscale>  1 0.89396906E+03</rscale>
<asrwt>0</asrwt>
<pdfrwt beam="1">  1       21 0.10318035E+00 0.11065094E+04</pdfrwt>
<pdfrwt beam="2">  1        4 0.14804315E+00 0.11065094E+04</pdfrwt>
<totfact> 0.86110331E+00</totfact>
</mgrwt>
</event>
<event>
 6    1  0.1412458E-005  0.1002416E+04  0.7818608E-02  0.1002718E+00
         21   -1    0    0  501  502  0.00000000000E+00  0.00000000000E+00  0.35129753700E+03  0.35129753700E+03  0.00000000000E+00 0.  1.
          4   -1    0    0  502    0 -0.00000000000E+00 -0.00000000000E+00 -0.10533690796E+04  0.10533690796E+04  0.00000000000E+00 0.  1.
    9000010    2    1    2  501    0 -0.15749213921E+02  0.85992566659E+02 -0.38177897758E+03  0.10726574335E+04  0.99859702720E+03 0.  0.
        -13    1    3    3    0    0  0.27999166089E+03  0.15734874742E+03 -0.61198812386E+03  0.69114646305E+03  0.10566000000E+00 0.  1.
          4    1    3    3  501    0 -0.29574087481E+03 -0.71356180761E+02  0.23020914628E+03  0.38151097048E+03  0.00000000000E+00 0.  1.
         13    1    1    2    0    0  0.15749213921E+02 -0.85992566659E+02 -0.32029256499E+03  0.33200918303E+03  0.10566000000E+00 0. -1.
<mgrwt>
<rscale>  1 0.54474405E+03</rscale>
<asrwt>0</asrwt>
<pdfrwt beam="1">  1       21 0.54045776E-01 0.10024165E+04</pdfrwt>
<pdfrwt beam="2">  1        4 0.16205678E+00 0.10024165E+04</pdfrwt>
<totfact> 0.30697393E+01</totfact>
</mgrwt>
</event>
<event>
 6    1  0.1412458E-005  0.1026235E+04  0.7818608E-02  0.1000853E+00
         21   -1    0    0  501  502  0.00000000000E+00  0.00000000000E+00  0.45255678860E+03  0.45255678860E+03  0.00000000000E+00 0.  1.
          4   -1    0    0  502    0 -0.00000000000E+00 -0.00000000000E+00 -0.70620417464E+03  0.70620417464E+03  0.00000000000E+00 0.  1.
    9000010    2    1    2  501    0 -0.61002159048E+02 -0.61171965142E+02 -0.17326661755E+03  0.10407594724E+04  0.10225926295E+04 0.  0.
        -13    1    3    3    0    0  0.87218189707E+02 -0.21134033907E+03  0.38287195333E+03  0.44594023741E+03  0.10566000000E+00 0.  1.
          4    1    3    3  501    0 -0.14822034876E+03  0.15016837393E+03 -0.55613857088E+03  0.59481923501E+03  0.00000000000E+00 0.  1.
         13    1    1    2    0    0  0.61002159048E+02  0.61171965142E+02 -0.80380768491E+02  0.11800149082E+03  0.10566000000E+00 0. -1.
<mgrwt>
<rscale>  1 0.55277891E+03</rscale>
<asrwt>0</asrwt>
<pdfrwt beam="1">  1       21 0.69624122E-01 0.10262353E+04</pdfrwt>
<pdfrwt beam="2">  1        4 0.10864680E+00 0.10262353E+04</pdfrwt>
<totfact> 0.49015838E+01</totfact>
</mgrwt>
</event>
<event>
 6    1  0.1412458E-005  0.1355516E+04  0.7818608E-02  0.9088260E-01
          4   -1    0    0  502    0 -0.00000000000E+00  0.00000000000E+00  0.23377400865E+04  0.23377400865E+04  0.00000000000E+00 0.  1.
         21   -1    0    0  501  502  0.00000000000E+00 -0.00000000000E+00 -0.83463468497E+03  0.83463468497E+03  0.00000000000E+00 0. -1.
    9000010    2    1    2  501    0  0.49466205885E+03  0.76921426916E+03 -0.64994478612E+02  0.13570735872E+04  0.10005215112E+04 0.  0.
        -13    1    3    3    0    0  0.26045465878E+03  0.74177307986E+03  0.36491904673E+03  0.86673516896E+03  0.10566000000E+00 0.  1.
          4    1    3    3  501    0  0.23420740008E+03  0.27441189300E+02 -0.42991352534E+03  0.49033841823E+03  0.00000000000E+00 0.  1.
         13    1    1    2    0    0 -0.49466205885E+03 -0.76921426916E+03  0.15680998801E+04  0.18153011842E+04  0.10566000000E+00 0. -1.
<mgrwt>
<rscale>  1 0.12285111E+04</rscale>
<asrwt>0</asrwt>
<pdfrwt beam="2">  1       21 0.12840534E+00 0.13555163E+04</pdfrwt>
<pdfrwt beam="1">  1        4 0.35965232E+00 0.13555163E+04</pdfrwt>
<totfact> 0.19593417E-01</totfact>
</mgrwt>
</event>
<event>
 6    1  0.1412458E-005  0.1048438E+04  0.7818608E-02  0.9604590E-01
         21   -1    0    0  501  502  0.00000000000E+00  0.00000000000E+00  0.15775244988E+04  0.15775244988E+04  0.00000000000E+00 0. -1.
          4   -1    0    0  502    0 -0.00000000000E+00 -0.00000000000E+00 -0.29056232160E+03  0.29056232160E+03  0.00000000000E+00 0.  1.
    9000010    2    1    2  501    0  0.28737306985E+03  0.10193295757E+03  0.10218312102E+04  0.14640224073E+04  0.10031196229E+04 0.  0.
        -13    1    3    3    0    0  0.40503758004E+03  0.46322321232E+03  0.39557913190E+03  0.73151489831E+03  0.10566000000E+00 0.  1.
          4    1    3    3  501    0 -0.11766451019E+03 -0.36129025475E+03  0.62625207827E+03  0.73250750895E+03  0.00000000000E+00 0.  1.
         13    1    1    2    0    0 -0.28737306985E+03 -0.10193295757E+03  0.26513096699E+03  0.40406441310E+03  0.10566000000E+00 0. -1.
<mgrwt>
<rscale>  1 0.76993149E+03</rscale>
<asrwt>0</asrwt>
<pdfrwt beam="1">  1       21 0.24269607E+00 0.10484382E+04</pdfrwt>
<pdfrwt beam="2">  1        4 0.44701897E-01 0.10484382E+04</pdfrwt>
<totfact> 0.11686976E+01</totfact>
</mgrwt>
</event>
<event>
 6    1  0.1412458E-005  0.1160069E+04  0.7818608E-02  0.9334771E-01
         21   -1    0    0  501  502  0.00000000000E+00  0.00000000000E+00  0.56659737378E+03  0.56659737378E+03  0.00000000000E+00 0.  1.
          4   -1    0    0  502    0 -0.00000000000E+00 -0.00000000000E+00 -0.13440118632E+04  0.13440118632E+04  0.00000000000E+00 0.  1.
    9000010    2    1    2  501    0  0.21163487491E+03 -0.54245304695E+03 -0.56956922969E+03  0.12923501557E+04  0.10033519767E+04 0.  0.
        -13    1    3    3    0    0 -0.15064718522E+03  0.19087497214E+03  0.71131638500E+02  0.25335262099E+03  0.10566000000E+00 0.  1.
          4    1    3    3  501    0  0.36228206013E+03 -0.73332801909E+03 -0.64070086819E+03  0.10389975347E+04  0.00000000000E+00 0.  1.
         13    1    1    2    0    0 -0.21163487491E+03  0.54245304695E+03 -0.20784525974E+03  0.61825908128E+03  0.10566000000E+00 0. -1.
<mgrwt>
<rscale>  1 0.97643873E+03</rscale>
<asrwt>0</asrwt>
<pdfrwt beam="1">  1       21 0.87168829E-01 0.11600689E+04</pdfrwt>
<pdfrwt beam="2">  1        4 0.20677105E+00 0.11600689E+04</pdfrwt>
<totfact> 0.49550010E+00</totfact>
</mgrwt>
</event>
<event>
 6    1  0.1412458E-005  0.1109176E+04  0.7818608E-02  0.9423255E-01
         21   -1    0    0  501  502  0.00000000000E+00  0.00000000000E+00  0.10651695943E+04  0.10651695943E+04  0.00000000000E+00 0.  1.
          4   -1    0    0  502    0 -0.00000000000E+00 -0.00000000000E+00 -0.59993445072E+03  0.59993445072E+03  0.00000000000E+00 0.  1.
    9000010    2    1    2  501    0  0.46421417955E+03  0.13976609556E+03  0.38262822150E+03  0.11733182373E+04  0.99761814544E+03 0.  0.
        -13    1    3    3    0    0  0.49173427398E+03 -0.35400685159E+03  0.13728491881E+03  0.62126532760E+03  0.10566000000E+00 0.  1.
          4    1    3    3  501    0 -0.27520094428E+02  0.49377294714E+03  0.24534330269E+03  0.55205290969E+03  0.00000000000E+00 0.  1.
         13    1    1    2    0    0 -0.46421417955E+03 -0.13976609556E+03  0.82606922115E+02  0.49178580776E+03  0.10566000000E+00 0. -1.
<mgrwt>
<rscale>  1 0.90186308E+03</rscale>
<asrwt>0</asrwt>
<pdfrwt beam="1">  1       21 0.16387224E+00 0.11091760E+04</pdfrwt>
<pdfrwt beam="2">  1        4 0.92297608E-01 0.11091760E+04</pdfrwt>
<totfact> 0.81784955E+00</totfact>
</mgrwt>
</event>
<event>
 6    1  0.1412458E-005  0.1174372E+04  0.7818608E-02  0.9312507E-01
          4   -1    0    0  502    0 -0.00000000000E+00  0.00000000000E+00  0.16343709252E+04  0.16343709252E+04  0.00000000000E+00 0.  1.
         21   -1    0    0  501  502  0.00000000000E+00 -0.00000000000E+00 -0.48640718216E+03  0.48640718216E+03  0.00000000000E+00 0.  1.
    9000010    2    1    2  501    0 -0.33797398111E+03 -0.50609290368E+03  0.73823039435E+03  0.13871311437E+04  0.10043865071E+04 0.  0.
        -13    1    3    3    0    0  0.31967966581E+03 -0.20780873735E+03  0.49565098488E+03  0.62533948382E+03  0.10566000000E+00 0.  1.
          4    1    3    3  501    0 -0.65765364692E+03 -0.29828416633E+03  0.24257940947E+03  0.76179165990E+03  0.00000000000E+00 0.  1.
         13    1    1    2    0    0  0.33797398111E+03  0.50609290368E+03  0.40973334869E+03  0.73364696364E+03  0.10566000000E+00 0. -1.
<mgrwt>
<rscale>  1 0.99639525E+03</rscale>
<asrwt>0</asrwt>
<pdfrwt beam="2">  1       21 0.74831875E-01 0.11743716E+04</pdfrwt>
<pdfrwt beam="1">  1        4 0.25144168E+00 0.11743716E+04</pdfrwt>
<totfact> 0.36945784E+00</totfact>
</mgrwt>
</event>
<event>
 6    1  0.1412458E-005  0.1002913E+04  0.7818608E-02  0.1007094E+00
          4   -1    0    0  502    0 -0.00000000000E+00  0.00000000000E+00  0.62491871543E+03  0.62491871543E+03  0.00000000000E+00 0.  1.
         21   -1    0    0  501  502  0.00000000000E+00 -0.00000000000E+00 -0.64320844293E+03  0.64320844293E+03  0.00000000000E+00 0.  1.
    9000010    2    1    2  501    0 -0.32273370075E+02 -0.68974364866E+02 -0.24209698479E+03  0.10317191784E+04  0.10000172396E+04 0.  0.
        -13    1    3    3    0    0  0.29201292618E+02 -0.14947095292E+03 -0.62105672136E+03  0.63945738214E+03  0.10566000000E+00 0.  1.
          4    1    3    3  501    0 -0.61474662693E+02  0.80496588057E+02  0.37895973657E+03  0.39226179623E+03  0.00000000000E+00 0.  1.
         13    1    1    2    0    0  0.32273370075E+02  0.68974364866E+02  0.22380725729E+03  0.23640797999E+03  0.10566000000E+00 0. -1.
<mgrwt>
<rscale>  1 0.52646178E+03</rscale>
<asrwt>0</asrwt>
<pdfrwt beam="2">  1       21 0.98955145E-01 0.10029125E+04</pdfrwt>
<pdfrwt beam="1">  1        4 0.96141341E-01 0.10029125E+04</pdfrwt>
<totfact> 0.28673118E+01</totfact>
</mgrwt>
</event>
<event>
 6    1  0.1412458E-005  0.9975487E+03  0.7818608E-02  0.1000814E+00
         21   -1    0    0  501  502  0.00000000000E+00  0.00000000000E+00  0.82229188711E+03  0.82229188711E+03  0.00000000000E+00 0.  1.
          4   -1    0    0  502    0 -0.00000000000E+00 -0.00000000000E+00 -0.78431037771E+03  0.78431037771E+03  0.00000000000E+00 0.  1.
    9000010    2    1    2  501    0 -0.81395893006E+02 -0.47363003812E+02  0.51342501386E+03  0.11219218726E+04  0.99309359970E+03 0.  0.
        -13    1    3    3    0    0  0.43646409360E+03  0.82033985774E+02  0.12371516433E+03  0.46101619590E+03  0.10566000000E+00 0.  1.
          4    1    3    3  501    0 -0.51785998661E+03 -0.12939698959E+03  0.38970984953E+03  0.66090567668E+03  0.00000000000E+00 0.  1.
         13    1    1    2    0    0  0.81395893006E+02  0.47363003812E+02 -0.47544350446E+03  0.48468039225E+03  0.10566000000E+00 0. -1.
<mgrwt>
<rscale>  1 0.55294534E+03</rscale>
<asrwt>0</asrwt>
<pdfrwt beam="1">  1       21 0.12650644E+00 0.99754872E+03</pdfrwt>
<pdfrwt beam="2">  1        4 0.12066314E+00 0.99754872E+03</pdfrwt>
<totfact> 0.87875141E+00</totfact>
</mgrwt>
</event>
<event>
 6    1  0.1412458E-005  0.1034530E+04  0.7818608E-02  0.9623963E-01
          4   -1    0    0  502    0 -0.00000000000E+00  0.00000000000E+00  0.20199345796E+03  0.20199345796E+03  0.00000000000E+00 0.  1.
         21   -1    0    0  501  502  0.00000000000E+00 -0.00000000000E+00 -0.22055927484E+04  0.22055927484E+04  0.00000000000E+00 0.  1.
    9000010    2    1    2  501    0 -0.80950732132E+02 -0.28581989209E+03 -0.14828422579E+04  0.18080581171E+04  0.99096264366E+03 0.  0.
        -13    1    3    3    0    0 -0.32660058118E+03 -0.51883301908E+03 -0.58054858292E+03  0.84432950299E+03  0.10566000000E+00 0.  1.
          4    1    3    3  501    0  0.24564984905E+03  0.23301312699E+03 -0.90229367500E+03  0.96372861410E+03  0.00000000000E+00 0.  1.
         13    1    1    2    0    0  0.80950732132E+02  0.28581989209E+03 -0.52075703250E+03  0.59952808926E+03  0.10566000000E+00 0. -1.
<mgrwt>
<rscale>  1 0.75730248E+03</rscale>
<asrwt>0</asrwt>
<pdfrwt beam="2">  1       21 0.33932195E+00 0.10345303E+04</pdfrwt>
<pdfrwt beam="1">  1        4 0.31075917E-01 0.10345303E+04</pdfrwt>
<totfact> 0.60502646E+00</totfact>
</mgrwt>
</event>
<event>
 6    1  0.1412458E-005  0.1015009E+04  0.7818608E-02  0.9688375E-01
         21   -1    0    0  501  502  0.00000000000E+00  0.00000000000E+00  0.88491326628E+03  0.88491326628E+03  0.00000000000E+00 0.  1.
          4   -1    0    0  502    0 -0.00000000000E+00 -0.00000000000E+00 -0.56044060538E+03  0.56044060538E+03  0.00000000000E+00 0.  1.
    9000010    2    1    2  501    0  0.85546347208E+02 -0.23801523582E+03  0.50589217118E+03  0.11340943660E+04  0.98299222381E+03 0.  0.
        -13    1    3    3    0    0  0.36986992971E+02  0.38468248227E+03  0.14516458831E+03  0.41282129145E+03  0.10566000000E+00 0.  1.
          4    1    3    3  501    0  0.48559354237E+02 -0.62269771809E+03  0.36072758287E+03  0.72127307453E+03  0.00000000000E+00 0.  1.
         13    1    1    2    0    0 -0.85546347208E+02  0.23801523582E+03 -0.18141951028E+03  0.31125950568E+03  0.10566000000E+00 0. -1.
<mgrwt>
<rscale>  1 0.71713178E+03</rscale>
<asrwt>0</asrwt>
<pdfrwt beam="1">  1       21 0.13614050E+00 0.10150089E+04</pdfrwt>
<pdfrwt beam="2">  1        4 0.86221632E-01 0.10150089E+04</pdfrwt>
<totfact> 0.16278205E+01</totfact>
</mgrwt>
</event>
<event>
 6    1  0.1412458E-005  0.1107375E+04  0.7818608E-02  0.9430506E-01
         21   -1    0    0  501  502  0.00000000000E+00  0.00000000000E+00  0.15934438958E+04  0.15934438958E+04  0.00000000000E+00 0.  1.
          4   -1    0    0  502    0 -0.00000000000E+00 -0.00000000000E+00 -0.49950586550E+03  0.49950586550E+03  0.00000000000E+00 0.  1.
    9000010    2    1    2  501    0 -0.14466528268E+03  0.45219636362E+03  0.11713163491E+04  0.16119123296E+04  0.10004347922E+04 0.  0.
        -13    1    3    3    0    0 -0.40286481078E+03  0.38076640829E+03  0.12196287916E+04  0.13396930670E+04  0.10566000000E+00 0.  1.
          4    1    3    3  501    0  0.25819952809E+03  0.71429955324E+02 -0.48312442490E+02  0.27221926259E+03  0.00000000000E+00 0.  1.
         13    1    1    2    0    0  0.14466528268E+03 -0.45219636362E+03 -0.77378318803E+02  0.48103743167E+03  0.10566000000E+00 0. -1.
<mgrwt>
<rscale>  1 0.89607134E+03</rscale>
<asrwt>0</asrwt>
<pdfrwt beam="1">  1       21 0.24514521E+00 0.11073750E+04</pdfrwt>
<pdfrwt beam="2">  1        4 0.76847057E-01 0.11073750E+04</pdfrwt>
<totfact> 0.34423666E+00</totfact>
</mgrwt>
</event>
<event>
 6    1  0.1412458E-005  0.1321338E+04  0.7818608E-02  0.9124155E-01
          4   -1    0    0  502    0 -0.00000000000E+00  0.00000000000E+00  0.10702883281E+04  0.10702883281E+04  0.00000000000E+00 0.  1.
         21   -1    0    0  501  502  0.00000000000E+00 -0.00000000000E+00 -0.12773102944E+04  0.12773102944E+04  0.00000000000E+00 0.  1.
    9000010    2    1    2  501    0 -0.29890890713E+03 -0.80748678114E+03 -0.53592257143E+03  0.14258844284E+04  0.10022733978E+04 0.  0.
        -13    1    3    3    0    0 -0.29352595244E+03  0.10085523333E+03 -0.40174571441E+03  0.50767006318E+03  0.10566000000E+00 0.  1.
          4    1    3    3  501    0 -0.53829546978E+01 -0.90834201447E+03 -0.13417685702E+03  0.91821436517E+03  0.00000000000E+00 0.  1.
         13    1    1    2    0    0  0.29890890713E+03  0.80748678114E+03  0.32890060508E+03  0.92171419413E+03  0.10566000000E+00 0. -1.
<mgrwt>
<rscale>  1 0.11871773E+04</rscale>
<asrwt>0</asrwt>
<pdfrwt beam="2">  1       21 0.19650928E+00 0.13213377E+04</pdfrwt>
<pdfrwt beam="1">  1        4 0.16465974E+00 0.13213377E+04</pdfrwt>
<totfact> 0.10471300E+00</totfact>
</mgrwt>
</event>
<event>
 6    1  0.1412458E-005  0.1030741E+04  0.7818608E-02  0.9694159E-01
          4   -1    0    0  502    0 -0.00000000000E+00  0.00000000000E+00  0.68519679375E+03  0.68519679375E+03  0.00000000000E+00 0.  1.
         21   -1    0    0  501  502  0.00000000000E+00 -0.00000000000E+00 -0.63253061052E+03  0.63253061052E+03  0.00000000000E+00 0.  1.
    9000010    2    1    2  501    0  0.18807277860E+03  0.14399886893E+03  0.18377296154E+03  0.10469949851E+04  0.10031545011E+04 0.  0.
        -13    1    3    3    0    0  0.49378301158E+03 -0.48533898535E+02 -0.18613407734E+03  0.52992745517E+03  0.10566000000E+00 0.  1.
          4    1    3    3  501    0 -0.30571023298E+03  0.19253276746E+03  0.36990703888E+03  0.51706752993E+03  0.00000000000E+00 0.  1.
         13    1    1    2    0    0 -0.18807277860E+03 -0.14399886893E+03 -0.13110677830E+03  0.27073241916E+03  0.10566000000E+00 0. -1.
<mgrwt>
<rscale>  1 0.71365654E+03</rscale>
<asrwt>0</asrwt>
<pdfrwt beam="2">  1       21 0.97312401E-01 0.10307405E+04</pdfrwt>
<pdfrwt beam="1">  1        4 0.10541489E+00 0.10307405E+04</pdfrwt>
<totfact> 0.23855590E+01</totfact>
</mgrwt>
</event>
<event>
 6    1  0.1412458E-005  0.1016728E+04  0.7818608E-02  0.1000396E+00
         21   -1    0    0  501  502  0.00000000000E+00  0.00000000000E+00  0.46378505454E+03  0.46378505454E+03  0.00000000000E+00 0.  1.
          4   -1    0    0  502    0 -0.00000000000E+00 -0.00000000000E+00 -0.72123780065E+03  0.72123780065E+03  0.00000000000E+00 0.  1.
    9000010    2    1    2  501    0  0.94784024623E+01  0.89622808973E+02 -0.12438493788E+03  0.10243083856E+04  0.10127260083E+04 0.  0.
        -13    1    3    3    0    0 -0.68874875483E+02 -0.45696719339E+03 -0.91889810406E+02  0.47117567077E+03  0.10566000000E+00 0.  1.
          4    1    3    3  501    0  0.78353277945E+02  0.54659000236E+03 -0.32495127472E+02  0.55313271478E+03  0.00000000000E+00 0.  1.
         13    1    1    2    0    0 -0.94784024623E+01 -0.89622808973E+02 -0.13306780823E+03  0.16071446965E+03  0.10566000000E+00 0. -1.
<mgrwt>
<rscale>  1 0.55476897E+03</rscale>
<asrwt>0</asrwt>
<pdfrwt beam="1">  1       21 0.71351547E-01 0.10167281E+04</pdfrwt>
<pdfrwt beam="2">  1        4 0.11095966E+00 0.10167281E+04</pdfrwt>
<totfact> 0.44026771E+01</totfact>
</mgrwt>
</event>
<event>
 6    1  0.1412458E-005  0.1012428E+04  0.7818608E-02  0.9848909E-01
         21   -1    0    0  501  502  0.00000000000E+00  0.00000000000E+00  0.23830029976E+04  0.23830029976E+04  0.00000000000E+00 0.  1.
          4   -1    0    0  502    0 -0.00000000000E+00 -0.00000000000E+00 -0.16129989963E+03  0.16129989963E+03  0.00000000000E+00 0.  1.
    9000010    2    1    2  501    0  0.12048371658E+03  0.89193079672E+02  0.21534900005E+04  0.23796069068E+04  0.10012682544E+04 0.  0.
        -13    1    3    3    0    0 -0.84856913520E+02  0.18969538732E+03 -0.61490265286E+01  0.20790107608E+03  0.10566000000E+00 0.  1.
          4    1    3    3  501    0  0.20534063010E+03 -0.10050230765E+03  0.21596390270E+04  0.21717058308E+04  0.00000000000E+00 0.  1.
         13    1    1    2    0    0 -0.12048371658E+03 -0.89193079672E+02  0.68213097454E+02  0.16469599039E+03  0.10566000000E+00 0. -1.
<mgrwt>
<rscale>  1 0.62802598E+03</rscale>
<asrwt>0</asrwt>
<pdfrwt beam="1">  1       21 0.36661582E+00 0.10124277E+04</pdfrwt>
<pdfrwt beam="2">  1        4 0.24815371E-01 0.10124277E+04</pdfrwt>
<totfact> 0.63111019E+00</totfact>
</mgrwt>
</event>
<event>
 6    1  0.1412458E-005  0.1337622E+04  0.7818608E-02  0.9101940E-01
         21   -1    0    0  501  502  0.00000000000E+00  0.00000000000E+00  0.51993345674E+03  0.51993345674E+03  0.00000000000E+00 0.  1.
          4   -1    0    0  502    0 -0.00000000000E+00 -0.00000000000E+00 -0.24160921556E+04  0.24160921556E+04  0.00000000000E+00 0.  1.
    9000010    2    1    2  501    0  0.83462017968E+03 -0.34531832920E+03 -0.10943602370E+04  0.17282522986E+04  0.98660837544E+03 0.  0.
        -13    1    3    3    0    0  0.13743792073E+02 -0.31507819259E+03 -0.79277998356E+03  0.85320763755E+03  0.10566000000E+00 0.  1.
          4    1    3    3  501    0  0.82087638761E+03 -0.30240136616E+02 -0.30158025345E+03  0.87504466107E+03  0.00000000000E+00 0.  1.
         13    1    1    2    0    0 -0.83462017968E+03  0.34531832920E+03 -0.80179846189E+03  0.12077733138E+04  0.10566000000E+00 0. -1.
<mgrwt>
<rscale>  1 0.12125518E+04</rscale>
<asrwt>0</asrwt>
<pdfrwt beam="1">  1       21 0.79989763E-01 0.13376217E+04</pdfrwt>
<pdfrwt beam="2">  1        4 0.37170648E+00 0.13376217E+04</pdfrwt>
<totfact> 0.53505573E-01</totfact>
</mgrwt>
</event>
<event>
 6    1  0.1412458E-005  0.1010159E+04  0.7818608E-02  0.9662534E-01
         21   -1    0    0  501  502  0.00000000000E+00  0.00000000000E+00  0.40855364148E+03  0.40855364148E+03  0.00000000000E+00 0.  1.
          4   -1    0    0  502    0 -0.00000000000E+00 -0.00000000000E+00 -0.10186735972E+04  0.10186735972E+04  0.00000000000E+00 0.  1.
    9000010    2    1    2  501    0 -0.99117622495E+02  0.26179964865E+03 -0.48668095708E+03  0.11212851581E+04  0.97059708052E+03 0.  0.
        -13    1    3    3    0    0  0.91899109092E+02  0.14359558642E+03  0.27699571821E+03  0.32525647996E+03  0.10566000000E+00 0.  1.
          4    1    3    3  501    0 -0.19101673159E+03  0.11820406223E+03 -0.76367667529E+03  0.79602867816E+03  0.00000000000E+00 0.  1.
         13    1    1    2    0    0  0.99117622495E+02 -0.26179964865E+03 -0.12343899868E+03  0.30594208060E+03  0.10566000000E+00 0. -1.
<mgrwt>
<rscale>  1 0.73292010E+03</rscale>
<asrwt>0</asrwt>
<pdfrwt beam="1">  1       21 0.62854407E-01 0.10101594E+04</pdfrwt>
<pdfrwt beam="2">  1        4 0.15671901E+00 0.10101594E+04</pdfrwt>
<totfact> 0.24064560E+01</totfact>
</mgrwt>
</event>
<event>
 6    1  0.1412458E-005  0.1064089E+04  0.7818608E-02  0.9537268E-01
          4   -1    0    0  502    0 -0.00000000000E+00  0.00000000000E+00  0.10391155792E+04  0.10391155792E+04  0.00000000000E+00 0.  1.
         21   -1    0    0  501  502  0.00000000000E+00 -0.00000000000E+00 -0.84312803065E+03  0.84312803065E+03  0.00000000000E+00 0.  1.
    9000010    2    1    2  501    0 -0.20583225243E+03  0.30483706970E+03 -0.43685453282E+03  0.11502725269E+04  0.99849509164E+03 0.  0.
        -13    1    3    3    0    0  0.48129105505E+02  0.31316631392E+03  0.25915548210E+03  0.40933009422E+03  0.10566000000E+00 0.  1.
          4    1    3    3  501    0 -0.25396135793E+03 -0.83292442199E+01 -0.69601001492E+03  0.74094243265E+03  0.00000000000E+00 0.  1.
         13    1    1    2    0    0  0.20583225243E+03 -0.30483706970E+03  0.63284208136E+03  0.73197108297E+03  0.10566000000E+00 0. -1.
<mgrwt>
<rscale>  1 0.81591074E+03</rscale>
<asrwt>0</asrwt>
<pdfrwt beam="2">  1       21 0.12971200E+00 0.10640888E+04</pdfrwt>
<pdfrwt beam="1">  1        4 0.15986394E+00 0.10640888E+04</pdfrwt>
<totfact> 0.38949612E+00</totfact>
</mgrwt>
</event>
<event>
 6    1  0.1412458E-005  0.9925268E+03  0.7818608E-02  0.1002929E+00
         21   -1    0    0  501  502  0.00000000000E+00  0.00000000000E+00  0.74111511996E+03  0.74111511996E+03  0.00000000000E+00 0.  1.
          4   -1    0    0  502    0 -0.00000000000E+00 -0.00000000000E+00 -0.39791986101E+03  0.39791986101E+03  0.00000000000E+00 0.  1.
    9000010    2    1    2  501    0  0.66549685691E+02  0.59797443786E+02  0.28624645424E+03  0.10329794650E+04  0.98848618987E+03 0.  0.
        -13    1    3    3    0    0 -0.39630950503E+03 -0.19464628548E+03  0.24059019175E+03  0.50282407635E+03  0.10566000000E+00 0.  1.
          4    1    3    3  501    0  0.46285919072E+03  0.25444372927E+03  0.45656262496E+02  0.53015538864E+03  0.00000000000E+00 0.  1.
         13    1    1    2    0    0 -0.66549685691E+02 -0.59797443786E+02  0.56948804710E+02  0.10605551599E+03  0.10566000000E+00 0. -1.
<mgrwt>
<rscale>  1 0.54384388E+03</rscale>
<asrwt>0</asrwt>
<pdfrwt beam="1">  1       21 0.11401771E+00 0.99252685E+03</pdfrwt>
<pdfrwt beam="2">  1        4 0.61218440E-01 0.99252685E+03</pdfrwt>
<totfact> 0.56260193E+01</totfact>
</mgrwt>
</event>
<event>
 6    1  0.1412458E-005  0.1057534E+04  0.7818608E-02  0.9575546E-01
          4   -1    0    0  502    0 -0.00000000000E+00  0.00000000000E+00  0.72600125561E+03  0.72600125561E+03  0.00000000000E+00 0.  1.
         21   -1    0    0  501  502  0.00000000000E+00 -0.00000000000E+00 -0.75683592041E+03  0.75683592041E+03  0.00000000000E+00 0.  1.
    9000010    2    1    2  501    0 -0.22893078196E+03  0.23525687312E+03 -0.25184610345E+03  0.10871085235E+04  0.10052976587E+04 0.  0.
        -13    1    3    3    0    0 -0.14945266302E+03  0.42376979744E+03 -0.55952341855E+03  0.71762344358E+03  0.10566000000E+00 0.  1.
          4    1    3    3  501    0 -0.79478118943E+02 -0.18851292432E+03  0.30767731509E+03  0.36948507988E+03  0.00000000000E+00 0.  1.
         13    1    1    2    0    0  0.22893078196E+03 -0.23525687312E+03  0.22101143866E+03  0.39572865256E+03  0.10566000000E+00 0. -1.
<mgrwt>
<rscale>  1 0.78936076E+03</rscale>
<asrwt>0</asrwt>
<pdfrwt beam="2">  1       21 0.11643630E+00 0.10575342E+04</pdfrwt>
<pdfrwt beam="1">  1        4 0.11169250E+00 0.10575342E+04</pdfrwt>
<totfact> 0.13137025E+01</totfact>
</mgrwt>
</event>
<event>
 6    1  0.1412458E-005  0.1011154E+04  0.7818608E-02  0.9794859E-01
          4   -1    0    0  502    0 -0.00000000000E+00  0.00000000000E+00  0.11130113044E+04  0.11130113044E+04  0.00000000000E+00 0.  1.
         21   -1    0    0  501  502  0.00000000000E+00 -0.00000000000E+00 -0.40677913745E+03  0.40677913745E+03  0.00000000000E+00 0.  1.
    9000010    2    1    2  501    0  0.14380454302E+03 -0.10752093189E+03  0.26780167769E+03  0.10460164425E+04  0.99508399747E+03 0.  0.
        -13    1    3    3    0    0  0.42078003244E+03 -0.34627261306E+03  0.37903517744E+03  0.66379833922E+03  0.10566000000E+00 0.  1.
          4    1    3    3  501    0 -0.27697548942E+03  0.23875168118E+03 -0.11123349975E+03  0.38221810327E+03  0.00000000000E+00 0.  1.
         13    1    1    2    0    0 -0.14380454302E+03  0.10752093189E+03  0.43843048921E+03  0.47377399931E+03  0.10566000000E+00 0. -1.
<mgrwt>
<rscale>  1 0.65639196E+03</rscale>
<asrwt>0</asrwt>
<pdfrwt beam="2">  1       21 0.62581406E-01 0.10111541E+04</pdfrwt>
<pdfrwt beam="1">  1        4 0.17123251E+00 0.10111541E+04</pdfrwt>
<totfact> 0.18997683E+01</totfact>
</mgrwt>
</event>
<event>
 6    1  0.1412458E-005  0.9651966E+03  0.7818608E-02  0.1034330E+00
         21   -1    0    0  501  502  0.00000000000E+00  0.00000000000E+00  0.12095390297E+04  0.12095390297E+04  0.00000000000E+00 0.  1.
          4   -1    0    0  502    0 -0.00000000000E+00 -0.00000000000E+00 -0.21498738545E+03  0.21498738545E+03  0.00000000000E+00 0.  1.
    9000010    2    1    2  501    0 -0.29491840962E+02  0.23160056234E+02  0.99607011484E+03  0.13869967761E+04  0.96446784623E+03 0.  0.
        -13    1    3    3    0    0 -0.79669644967E+02  0.25290908536E+03  0.10988228802E+04  0.11303636543E+04  0.10566000000E+00 0.  1.
          4    1    3    3  501    0  0.50177804005E+02 -0.22974902912E+03 -0.10275276539E+03  0.25663312178E+03  0.00000000000E+00 0.  1.
         13    1    1    2    0    0  0.29491840962E+02 -0.23160056234E+02 -0.15184706049E+01  0.37529639022E+02  0.10566000000E+00 0. -1.
<mgrwt>
<rscale>  1 0.42851544E+03</rscale>
<asrwt>0</asrwt>
<pdfrwt beam="1">  1       21 0.18608292E+00 0.96519655E+03</pdfrwt>
<pdfrwt beam="2">  1        4 0.33074983E-01 0.96519655E+03</pdfrwt>
<totfact> 0.52132929E+01</totfact>
</mgrwt>
</event>
<event>
 6    1  0.1412458E-005  0.9637917E+03  0.7818608E-02  0.1007388E+00
          4   -1    0    0  502    0 -0.00000000000E+00  0.00000000000E+00  0.30359384479E+03  0.30359384479E+03  0.00000000000E+00 0.  1.
         21   -1    0    0  501  502  0.00000000000E+00 -0.00000000000E+00 -0.90684392283E+03  0.90684392283E+03  0.00000000000E+00 0.  1.
    9000010    2    1    2  501    0  0.73061125569E+02  0.43493106120E+02 -0.56511100891E+03  0.11172488299E+04  0.96003381047E+03 0.  0.
        -13    1    3    3    0    0 -0.21991887631E+03 -0.38251988802E+03 -0.20091363473E+03  0.48482169576E+03  0.10566000000E+00 0.  1.
          4    1    3    3  501    0  0.29298000188E+03  0.42601299414E+03 -0.36419737418E+03  0.63242713417E+03  0.00000000000E+00 0.  1.
         13    1    1    2    0    0 -0.73061125569E+02 -0.43493106120E+02 -0.38139069128E+02  0.93188937687E+02  0.10566000000E+00 0. -1.
<mgrwt>
<rscale>  1 0.52526275E+03</rscale>
<asrwt>0</asrwt>
<pdfrwt beam="2">  1       21 0.13951445E+00 0.96379173E+03</pdfrwt>
<pdfrwt beam="1">  1        4 0.46706746E-01 0.96379173E+03</pdfrwt>
<totfact> 0.59080433E+01</totfact>
</mgrwt>
</event>
<event>
 6    1  0.1412458E-005  0.1110629E+04  0.7818608E-02  0.9412630E-01
          4   -1    0    0  502    0 -0.00000000000E+00  0.00000000000E+00  0.19807455773E+04  0.19807455773E+04  0.00000000000E+00 0.  1.
         21   -1    0    0  501  502  0.00000000000E+00 -0.00000000000E+00 -0.57366812852E+03  0.57366812852E+03  0.00000000000E+00 0. -1.
    9000010    2    1    2  501    0  0.27684684827E+03 -0.41818586543E+03  0.16564439310E+04  0.19943179560E+04  0.99094602162E+03 0.  0.
        -13    1    3    3    0    0 -0.13882013680E+03  0.22373311734E+03  0.81875565605E+03  0.86005137850E+03  0.10566000000E+00 0.  1.
          4    1    3    3  501    0  0.41566698507E+03 -0.64191898277E+03  0.83768827491E+03  0.11342665775E+04  0.00000000000E+00 0.  1.
         13    1    1    2    0    0 -0.27684684827E+03  0.41818586543E+03 -0.24936648214E+03  0.56009574987E+03  0.10566000000E+00 0. -1.
<mgrwt>
<rscale>  1 0.91043567E+03</rscale>
<asrwt>0</asrwt>
<pdfrwt beam="2">  1       21 0.88256637E-01 0.11106294E+04</pdfrwt>
<pdfrwt beam="1">  1        4 0.30473008E+00 0.11106294E+04</pdfrwt>
<totfact> 0.11797988E+00</totfact>
</mgrwt>
</event>
<event>
 6    1  0.1412458E-005  0.1340407E+04  0.7818608E-02  0.9158656E-01
         21   -1    0    0  501  502  0.00000000000E+00  0.00000000000E+00  0.17127715259E+04  0.17127715259E+04  0.00000000000E+00 0. -1.
          4   -1    0    0  502    0 -0.00000000000E+00 -0.00000000000E+00 -0.11236252746E+04  0.11236252746E+04  0.00000000000E+00 0.  1.
    9000010    2    1    2  501    0  0.50204303036E+03  0.52146192884E+03  0.12671883383E+04  0.18445748253E+04  0.11281490389E+04 0.  0.
        -13    1    3    3    0    0 -0.36079279121E+03  0.22086254222E+03  0.46585893300E+03  0.62926644386E+03  0.10566000000E+00 0.  1.
          4    1    3    3  501    0  0.86283582157E+03  0.30059938662E+03  0.80132940530E+03  0.12153083815E+04  0.00000000000E+00 0.  1.
         13    1    1    2    0    0 -0.50204303036E+03 -0.52146192884E+03 -0.67804208705E+03  0.99182197522E+03  0.10566000000E+00 0. -1.
<mgrwt>
<rscale>  1 0.11490547E+04</rscale>
<asrwt>0</asrwt>
<pdfrwt beam="1">  1       21 0.26350331E+00 0.13404067E+04</pdfrwt>
<pdfrwt beam="2">  1        4 0.17286543E+00 0.13404067E+04</pdfrwt>
<totfact> 0.32836217E-01</totfact>
</mgrwt>
</event>
<event>
 6    1  0.1412458E-005  0.9859696E+03  0.7818608E-02  0.1010778E+00
          4   -1    0    0  502    0 -0.00000000000E+00  0.00000000000E+00  0.22909699119E+03  0.22909699119E+03  0.00000000000E+00 0.  1.
         21   -1    0    0  501  502  0.00000000000E+00 -0.00000000000E+00 -0.17704194538E+04  0.17704194538E+04  0.00000000000E+00 0.  1.
    9000010    2    1    2  501    0  0.23873333699E+02 -0.67404552884E+02 -0.16179524873E+04  0.18947047965E+04  0.98337312602E+03 0.  0.
        -13    1    3    3    0    0 -0.11823896423E+03 -0.48051928811E+03 -0.11632817024E+04  0.12641612117E+04  0.10566000000E+00 0.  1.
          4    1    3    3  501    0  0.14211229793E+03  0.41311473523E+03 -0.45467078490E+03  0.63054358479E+03  0.00000000000E+00 0.  1.
         13    1    1    2    0    0 -0.23873333699E+02  0.67404552884E+02  0.76630024677E+02  0.10481164848E+03  0.10566000000E+00 0. -1.
<mgrwt>
<rscale>  1 0.51166477E+03</rscale>
<asrwt>0</asrwt>
<pdfrwt beam="2">  1       21 0.27237222E+00 0.98596958E+03</pdfrwt>
<pdfrwt beam="1">  1        4 0.35245691E-01 0.98596958E+03</pdfrwt>
<totfact> 0.12428971E+01</totfact>
</mgrwt>
</event>
<event>
 6    1  0.1412458E-005  0.1077258E+04  0.7818608E-02  0.9515838E-01
         21   -1    0    0  501  502  0.00000000000E+00  0.00000000000E+00  0.69694119386E+03  0.69694119386E+03  0.00000000000E+00 0.  1.
          4   -1    0    0  502    0 -0.00000000000E+00 -0.00000000000E+00 -0.78120681230E+03  0.78120681230E+03  0.00000000000E+00 0.  1.
    9000010    2    1    2  501    0  0.33401518937E+03  0.18522903137E+03  0.35593164185E+02  0.10778455209E+04  0.10072775947E+04 0.  0.
        -13    1    3    3    0    0  0.55776384391E+03  0.43039333141E+03 -0.11417211824E+03  0.71370456706E+03  0.10566000000E+00 0.  1.
          4    1    3    3  501    0 -0.22374865454E+03 -0.24516430004E+03  0.14976528243E+03  0.36414095381E+03  0.00000000000E+00 0.  1.
         13    1    1    2    0    0 -0.33401518937E+03 -0.18522903137E+03 -0.11985878263E+03  0.40030248529E+03  0.10566000000E+00 0. -1.
<mgrwt>
<rscale>  1 0.83126149E+03</rscale>
<asrwt>0</asrwt>
<pdfrwt beam="1">  1       21 0.10722172E+00 0.10772577E+04</pdfrwt>
<pdfrwt beam="2">  1        4 0.12018566E+00 0.10772577E+04</pdfrwt>
<totfact> 0.13473178E+01</totfact>
</mgrwt>
</event>
<event>
 6    1  0.1412458E-005  0.1016047E+04  0.7818608E-02  0.9798364E-01
          4   -1    0    0  502    0 -0.00000000000E+00  0.00000000000E+00  0.47151102574E+03  0.47151102574E+03  0.00000000000E+00 0.  1.
         21   -1    0    0  501  502  0.00000000000E+00 -0.00000000000E+00 -0.11763250293E+04  0.11763250293E+04  0.00000000000E+00 0.  1.
    9000010    2    1    2  501    0 -0.25532817904E+02 -0.17307425709E+03 -0.91988294970E+03  0.13705973744E+04  0.10008725684E+04 0.  0.
        -13    1    3    3    0    0 -0.41578829806E+03 -0.17196175429E+03 -0.97605643664E+02  0.46041028071E+03  0.10566000000E+00 0.  1.
          4    1    3    3  501    0  0.39025548016E+03 -0.11125028020E+01 -0.82227730604E+03  0.91018709367E+03  0.00000000000E+00 0.  1.
         13    1    1    2    0    0  0.25532817904E+02  0.17307425709E+03  0.21506894618E+03  0.27723868062E+03  0.10566000000E+00 0. -1.
<mgrwt>
<rscale>  1 0.65450423E+03</rscale>
<asrwt>0</asrwt>
<pdfrwt beam="2">  1       21 0.18097308E+00 0.10160475E+04</pdfrwt>
<pdfrwt beam="1">  1        4 0.72540159E-01 0.10160475E+04</pdfrwt>
<totfact> 0.10762772E+01</totfact>
</mgrwt>
</event>
<event>
 6    1  0.1412458E-005  0.1041930E+04  0.7818608E-02  0.9719591E-01
          4   -1    0    0  502    0 -0.00000000000E+00  0.00000000000E+00  0.75262782477E+03  0.75262782477E+03  0.00000000000E+00 0.  1.
         21   -1    0    0  501  502  0.00000000000E+00 -0.00000000000E+00 -0.10802497452E+04  0.10802497452E+04  0.00000000000E+00 0.  1.
    9000010    2    1    2  501    0  0.20092191613E+03 -0.63101853076E+02 -0.80134780789E+03  0.13144494768E+04  0.10204252337E+04 0.  0.
        -13    1    3    3    0    0  0.17443499851E+03  0.19631153065E+03  0.16726044088E+03  0.31135486509E+03  0.10566000000E+00 0.  1.
          4    1    3    3  501    0  0.26486917618E+02 -0.25941338372E+03 -0.96860824877E+03  0.10030946117E+04  0.00000000000E+00 0.  1.
         13    1    1    2    0    0 -0.20092191613E+03  0.63101853076E+02  0.47372588743E+03  0.51842809320E+03  0.10566000000E+00 0. -1.
<mgrwt>
<rscale>  1 0.69862249E+03</rscale>
<asrwt>0</asrwt>
<pdfrwt beam="2">  1       21 0.16619227E+00 0.10419305E+04</pdfrwt>
<pdfrwt beam="1">  1        4 0.11578890E+00 0.10419305E+04</pdfrwt>
<totfact> 0.45614308E+00</totfact>
</mgrwt>
</event>
<event>
 6    1  0.1412458E-005  0.1006184E+04  0.7818608E-02  0.9911941E-01
          4   -1    0    0  502    0 -0.00000000000E+00  0.00000000000E+00  0.37152171101E+03  0.37152171101E+03  0.00000000000E+00 0.  1.
         21   -1    0    0  501  502  0.00000000000E+00 -0.00000000000E+00 -0.12137102988E+04  0.12137102988E+04  0.00000000000E+00 0.  1.
    9000010    2    1    2  501    0  0.91526257112E+02 -0.84521614833E+02 -0.97643718759E+03  0.14020827352E+04  0.99844151349E+03 0.  0.
        -13    1    3    3    0    0  0.10028850939E+03 -0.46774482427E+02 -0.11848963085E+04  0.11900524822E+04  0.10566000000E+00 0.  1.
          4    1    3    3  501    0 -0.87622522800E+01 -0.37747132405E+02  0.20845912093E+03  0.21203025296E+03  0.00000000000E+00 0.  1.
         13    1    1    2    0    0 -0.91526257112E+02  0.84521614833E+02  0.13424859976E+03  0.18314927468E+03  0.10566000000E+00 0. -1.
<mgrwt>
<rscale>  1 0.59686064E+03</rscale>
<asrwt>0</asrwt>
<pdfrwt beam="2">  1       21 0.18672466E+00 0.10061841E+04</pdfrwt>
<pdfrwt beam="1">  1        4 0.57157186E-01 0.10061841E+04</pdfrwt>
<totfact> 0.16579482E+01</totfact>
</mgrwt>
</event>
<event>
 6    1  0.1412458E-005  0.1016977E+04  0.7818608E-02  0.9910603E-01
          4   -1    0    0  502    0 -0.00000000000E+00  0.00000000000E+00  0.34383632397E+03  0.34383632397E+03  0.00000000000E+00 0.  1.
         21   -1    0    0  501  502  0.00000000000E+00 -0.00000000000E+00 -0.10041155624E+04  0.10041155624E+04  0.00000000000E+00 0.  1.
    9000010    2    1    2  501    0  0.57776201224E+02  0.10651761275E+03 -0.68248496547E+03  0.12247561204E+04  0.10097315164E+04 0.  0.
        -13    1    3    3    0    0  0.13913733572E+03  0.54917422898E+03 -0.39691673440E+03  0.69173292330E+03  0.10566000000E+00 0.  1.
          4    1    3    3  501    0 -0.81361134494E+02 -0.44265661623E+03 -0.28556823107E+03  0.53302319714E+03  0.00000000000E+00 0.  1.
         13    1    1    2    0    0 -0.57776201224E+02 -0.10651761275E+03  0.22205727077E+02  0.12319576589E+03  0.10566000000E+00 0. -1.
<mgrwt>
<rscale>  1 0.59750179E+03</rscale>
<asrwt>0</asrwt>
<pdfrwt beam="2">  1       21 0.15447932E+00 0.10169768E+04</pdfrwt>
<pdfrwt beam="1">  1        4 0.52897896E-01 0.10169768E+04</pdfrwt>
<totfact> 0.34101955E+01</totfact>
</mgrwt>
</event>
<event>
 6    1  0.1412458E-005  0.1058911E+04  0.7818608E-02  0.9542790E-01
          4   -1    0    0  502    0 -0.00000000000E+00  0.00000000000E+00  0.13163843639E+04  0.13163843639E+04  0.00000000000E+00 0.  1.
         21   -1    0    0  501  502  0.00000000000E+00 -0.00000000000E+00 -0.39310993635E+03  0.39310993635E+03  0.00000000000E+00 0.  1.
    9000010    2    1    2  501    0 -0.34873066819E+03 -0.11163003793E+03  0.78477031550E+03  0.13180128262E+04  0.99358895810E+03 0.  0.
        -13    1    3    3    0    0  0.10344817076E+03  0.37499192855E+03  0.35647150615E+03  0.52762905187E+03  0.10566000000E+00 0.  1.
          4    1    3    3  501    0 -0.45217883895E+03 -0.48662196648E+03  0.42829880934E+03  0.79038377434E+03  0.00000000000E+00 0.  1.
         13    1    1    2    0    0  0.34873066819E+03  0.11163003793E+03  0.13850411205E+03  0.39148147405E+03  0.10566000000E+00 0. -1.
<mgrwt>
<rscale>  1 0.81201301E+03</rscale>
<asrwt>0</asrwt>
<pdfrwt beam="2">  1       21 0.60478452E-01 0.10589114E+04</pdfrwt>
<pdfrwt beam="1">  1        4 0.20252067E+00 0.10589114E+04</pdfrwt>
<totfact> 0.12452421E+01</totfact>
</mgrwt>
</event>
<event>
 6    1  0.1412458E-005  0.1037543E+04  0.7818608E-02  0.9710706E-01
          4   -1    0    0  502    0 -0.00000000000E+00  0.00000000000E+00  0.40261923709E+03  0.40261923709E+03  0.00000000000E+00 0.  1.
         21   -1    0    0  501  502  0.00000000000E+00 -0.00000000000E+00 -0.98177197002E+03  0.98177197002E+03  0.00000000000E+00 0. -1.
    9000010    2    1    2  501    0 -0.21598798484E+03 -0.40275038445E+02 -0.46917731498E+03  0.11386932380E+04  0.10140128446E+04 0.  0.
        -13    1    3    3    0    0 -0.48802349850E+03  0.26732192950E+02  0.10491214775E+03  0.49988810261E+03  0.10566000000E+00 0.  1.
          4    1    3    3  501    0  0.27203551365E+03 -0.67007231395E+02 -0.57408946273E+03  0.63880513536E+03  0.00000000000E+00 0.  1.
         13    1    1    2    0    0  0.21598798484E+03  0.40275038445E+02 -0.10997541795E+03  0.24569796913E+03  0.10566000000E+00 0. -1.
<mgrwt>
<rscale>  1 0.70382951E+03</rscale>
<asrwt>0</asrwt>
<pdfrwt beam="2">  1       21 0.15104184E+00 0.10375427E+04</pdfrwt>
<pdfrwt beam="1">  1        4 0.61941422E-01 0.10375427E+04</pdfrwt>
<totfact> 0.25772050E+01</totfact>
</mgrwt>
</event>
<event>
 6    1  0.1412458E-005  0.9306515E+03  0.7818608E-02  0.9715760E-01
         21   -1    0    0  501  502  0.00000000000E+00  0.00000000000E+00  0.77534319533E+03  0.77534319533E+03  0.00000000000E+00 0. -1.
          4   -1    0    0  502    0 -0.00000000000E+00 -0.00000000000E+00 -0.50310366147E+03  0.50310366147E+03  0.00000000000E+00 0.  1.
    9000010    2    1    2  501    0 -0.25267455864E+03  0.16050216597E+03  0.10769521874E+03  0.93686199083E+03  0.88119620509E+03 0.  0.
        -13    1    3    3    0    0 -0.30013835301E+03  0.24308194770E+03  0.44332993941E+03  0.58797390298E+03  0.10566000000E+00 0.  1.
          4    1    3    3  501    0  0.47463794377E+02 -0.82579781729E+02 -0.33563472067E+03  0.34888808785E+03  0.00000000000E+00 0.  1.
         13    1    1    2    0    0  0.25267455864E+03 -0.16050216597E+03  0.16454431512E+03  0.34158486598E+03  0.10566000000E+00 0. -1.
<mgrwt>
<rscale>  1 0.70086136E+03</rscale>
<asrwt>0</asrwt>
<pdfrwt beam="1">  1       21 0.11928357E+00 0.93065145E+03</pdfrwt>
<pdfrwt beam="2">  1        4 0.77400564E-01 0.93065145E+03</pdfrwt>
<totfact> 0.29863474E+01</totfact>
</mgrwt>
</event>
<event>
 6    1  0.1412458E-005  0.1099642E+04  0.7818608E-02  0.9511811E-01
         21   -1    0    0  501  502  0.00000000000E+00  0.00000000000E+00  0.12390788602E+04  0.12390788602E+04  0.00000000000E+00 0.  1.
          4   -1    0    0  502    0 -0.00000000000E+00 -0.00000000000E+00 -0.43713757748E+03  0.43713757748E+03  0.00000000000E+00 0.  1.
    9000010    2    1    2  501    0  0.10553608807E+01 -0.36416386316E+03  0.67640127158E+03  0.12910194250E+04  0.10375914622E+04 0.  0.
        -13    1    3    3    0    0  0.14272859452E+03 -0.26425951658E+02  0.86636228896E+03  0.87843805104E+03  0.10566000000E+00 0.  1.
          4    1    3    3  501    0 -0.14167323364E+03 -0.33773791150E+03 -0.18996101738E+03  0.41258137393E+03  0.00000000000E+00 0.  1.
         13    1    1    2    0    0 -0.10553608807E+01  0.36416386316E+03  0.12554001110E+03  0.38519701267E+03  0.10566000000E+00 0. -1.
<mgrwt>
<rscale>  1 0.83418649E+03</rscale>
<asrwt>0</asrwt>
<pdfrwt beam="1">  1       21 0.19062752E+00 0.10996420E+04</pdfrwt>
<pdfrwt beam="2">  1        4 0.67251936E-01 0.10996420E+04</pdfrwt>
<totfact> 0.10769811E+01</totfact>
</mgrwt>
</event>
<event>
 6    1  0.1412458E-005  0.1001880E+04  0.7818608E-02  0.9615705E-01
         21   -1    0    0  501  502  0.00000000000E+00  0.00000000000E+00  0.15477037781E+04  0.15477037781E+04  0.00000000000E+00 0.  1.
          4   -1    0    0  502    0 -0.00000000000E+00 -0.00000000000E+00 -0.39605557541E+03  0.39605557541E+03  0.00000000000E+00 0.  1.
    9000010    2    1    2  501    0  0.20506899876E+02  0.33577909534E+03  0.12417210944E+04  0.15955047472E+04  0.94371393357E+03 0.  0.
        -13    1    3    3    0    0  0.31403878214E+03  0.53288772825E+03  0.59402629503E+03  0.85758786020E+03  0.10566000000E+00 0.  1.
          4    1    3    3  501    0 -0.29353188226E+03 -0.19710863292E+03  0.64769479934E+03  0.73791688703E+03  0.00000000000E+00 0.  1.
         13    1    1    2    0    0 -0.20506899876E+02 -0.33577909534E+03 -0.90072891689E+02  0.34825460627E+03  0.10566000000E+00 0. -1.
<mgrwt>
<rscale>  1 0.76265373E+03</rscale>
<asrwt>0</asrwt>
<pdfrwt beam="1">  1       21 0.23810827E+00 0.10018803E+04</pdfrwt>
<pdfrwt beam="2">  1        4 0.60931628E-01 0.10018803E+04</pdfrwt>
<totfact> 0.65156988E+00</totfact>
</mgrwt>
</event>
<event>
 6    1  0.1412458E-005  0.1140627E+04  0.7818608E-02  0.9407094E-01
         21   -1    0    0  501  502  0.00000000000E+00  0.00000000000E+00  0.20797175675E+04  0.20797175675E+04  0.00000000000E+00 0. -1.
          4   -1    0    0  502    0 -0.00000000000E+00 -0.00000000000E+00 -0.34273632686E+03  0.34273632686E+03  0.00000000000E+00 0.  1.
    9000010    2    1    2  501    0 -0.46550968936E+03 -0.79315365912E+02  0.86756658262E+03  0.14330742620E+04  0.10382869868E+04 0.  0.
        -13    1    3    3    0    0  0.21634826005E+03  0.25610245472E+03  0.46465359281E+03  0.57297295697E+03  0.10566000000E+00 0.  1.
          4    1    3    3  501    0 -0.68185794941E+03 -0.33541782063E+03  0.40291298981E+03  0.86010130504E+03  0.00000000000E+00 0.  1.
         13    1    1    2    0    0  0.46550968936E+03  0.79315365912E+02  0.86941465799E+03  0.98937963232E+03  0.10566000000E+00 0. -1.
<mgrwt>
<rscale>  1 0.91494192E+03</rscale>
<asrwt>0</asrwt>
<pdfrwt beam="1">  1       21 0.31995654E+00 0.11406270E+04</pdfrwt>
<pdfrwt beam="2">  1        4 0.52728667E-01 0.11406270E+04</pdfrwt>
<totfact> 0.26625336E+00</totfact>
</mgrwt>
</event>
<event>
 6    1  0.1412458E-005  0.1063189E+04  0.7818608E-02  0.9629822E-01
          4   -1    0    0  502    0 -0.00000000000E+00  0.00000000000E+00  0.49284044635E+03  0.49284044635E+03  0.00000000000E+00 0.  1.
         21   -1    0    0  501  502  0.00000000000E+00 -0.00000000000E+00 -0.11495413636E+04  0.11495413636E+04  0.00000000000E+00 0.  1.
    9000010    2    1    2  501    0 -0.10756238281E+03  0.24576772647E+03 -0.80709181542E+03  0.13348287657E+04  0.10287853001E+04 0.  0.
        -13    1    3    3    0    0 -0.41880120648E+03 -0.23817560971E+03 -0.43881552903E+03  0.65167564884E+03  0.10566000000E+00 0.  1.
          4    1    3    3  501    0  0.31123882366E+03  0.48394333618E+03 -0.36827628638E+03  0.68315311688E+03  0.00000000000E+00 0.  1.
         13    1    1    2    0    0  0.10756238281E+03 -0.24576772647E+03  0.15039089820E+03  0.30755304420E+03  0.10566000000E+00 0. -1.
<mgrwt>
<rscale>  1 0.75353401E+03</rscale>
<asrwt>0</asrwt>
<pdfrwt beam="2">  1       21 0.17685252E+00 0.10631889E+04</pdfrwt>
<pdfrwt beam="1">  1        4 0.75821607E-01 0.10631889E+04</pdfrwt>
<totfact> 0.10373531E+01</totfact>
</mgrwt>
</event>
<event>
 6    1  0.1412458E-005  0.1022976E+04  0.7818608E-02  0.9846153E-01
          4   -1    0    0  502    0 -0.00000000000E+00  0.00000000000E+00  0.13544563668E+04  0.13544563668E+04  0.00000000000E+00 0.  1.
         21   -1    0    0  501  502  0.00000000000E+00 -0.00000000000E+00 -0.25903186981E+03  0.25903186981E+03  0.00000000000E+00 0.  1.
    9000010    2    1    2  501    0 -0.10514398385E+03 -0.10219320523E+03  0.10339855250E+04  0.14545119271E+04  0.10124130440E+04 0.  0.
        -13    1    3    3    0    0 -0.35575700802E+03  0.35213459210E+03  0.44725594370E+03  0.67126724191E+03  0.10566000000E+00 0.  1.
          4    1    3    3  501    0  0.25061302418E+03 -0.45432779734E+03  0.58672958128E+03  0.78324468518E+03  0.00000000000E+00 0.  1.
         13    1    1    2    0    0  0.10514398385E+03  0.10219320523E+03  0.61438971977E+02  0.15897630948E+03  0.10566000000E+00 0. -1.
<mgrwt>
<rscale>  1 0.62943452E+03</rscale>
<asrwt>0</asrwt>
<pdfrwt beam="2">  1       21 0.39851058E-01 0.10229755E+04</pdfrwt>
<pdfrwt beam="1">  1        4 0.20837790E+00 0.10229755E+04</pdfrwt>
<totfact> 0.28170520E+01</totfact>
</mgrwt>
</event>
<event>
 6    1  0.1412458E-005  0.1030670E+04  0.7818608E-02  0.9647327E-01
          4   -1    0    0  502    0 -0.00000000000E+00  0.00000000000E+00  0.11580900516E+04  0.11580900516E+04  0.00000000000E+00 0.  1.
         21   -1    0    0  501  502  0.00000000000E+00 -0.00000000000E+00 -0.38214968357E+03  0.38214968357E+03  0.00000000000E+00 0. -1.
    9000010    2    1    2  501    0 -0.46592638825E+01  0.27743696111E+03  0.71981173286E+03  0.12571436190E+04  0.99261683037E+03 0.  0.
        -13    1    3    3    0    0 -0.47477757111E+03  0.28194642763E+03  0.46790036803E+03  0.72376674119E+03  0.10566000000E+00 0.  1.
          4    1    3    3  501    0  0.47011830722E+03 -0.45094665220E+01  0.25191136483E+03  0.53337687783E+03  0.00000000000E+00 0.  1.
         13    1    1    2    0    0  0.46592638825E+01 -0.27743696111E+03  0.56128635180E+02  0.28309611615E+03  0.10566000000E+00 0. -1.
<mgrwt>
<rscale>  1 0.74241417E+03</rscale>
<asrwt>0</asrwt>
<pdfrwt beam="2">  1       21 0.58792260E-01 0.10306702E+04</pdfrwt>
<pdfrwt beam="1">  1        4 0.17816770E+00 0.10306702E+04</pdfrwt>
<totfact> 0.19465147E+01</totfact>
</mgrwt>
</event>
<event>
 6    1  0.1412458E-005  0.1009191E+04  0.7818608E-02  0.9965993E-01
         21   -1    0    0  501  502  0.00000000000E+00  0.00000000000E+00  0.94957773426E+03  0.94957773426E+03  0.00000000000E+00 0.  1.
          4   -1    0    0  502    0 -0.00000000000E+00 -0.00000000000E+00 -0.32621159744E+03  0.32621159744E+03  0.00000000000E+00 0.  1.
    9000010    2    1    2  501    0  0.63748369690E+02  0.82057262799E+02  0.56259081508E+03  0.11554111779E+04  0.10038273337E+04 0.  0.
        -13    1    3    3    0    0 -0.46537785138E+03  0.11035479487E+03  0.29293160541E+03  0.56085975245E+03  0.10566000000E+00 0.  1.
          4    1    3    3  501    0  0.52912622107E+03 -0.28297532071E+02  0.26965920967E+03  0.59455142545E+03  0.00000000000E+00 0.  1.
         13    1    1    2    0    0 -0.63748369690E+02 -0.82057262799E+02  0.60775321735E+02  0.12037815380E+03  0.10566000000E+00 0. -1.
<mgrwt>
<rscale>  1 0.57166854E+03</rscale>
<asrwt>0</asrwt>
<pdfrwt beam="1">  1       21 0.14608888E+00 0.10091910E+04</pdfrwt>
<pdfrwt beam="2">  1        4 0.50186400E-01 0.10091910E+04</pdfrwt>
<totfact> 0.44586927E+01</totfact>
</mgrwt>
</event>
<event>
 6    1  0.1412458E-005  0.9900660E+03  0.7818608E-02  0.1013759E+00
         21   -1    0    0  501  502  0.00000000000E+00  0.00000000000E+00  0.36785655173E+03  0.36785655173E+03  0.00000000000E+00 0.  1.
          4   -1    0    0  502    0 -0.00000000000E+00 -0.00000000000E+00 -0.75666852053E+03  0.75666852053E+03  0.00000000000E+00 0.  1.
    9000010    2    1    2  501    0 -0.64372227267E+02 -0.29579314884E+01 -0.37440416470E+03  0.10584937995E+04  0.98796665530E+03 0.  0.
        -13    1    3    3    0    0  0.40743759220E+03 -0.92880470614E+02 -0.39870169494E+03  0.57757703042E+03  0.10566000000E+00 0.  1.
          4    1    3    3  501    0 -0.47180981947E+03  0.89922539125E+02  0.24297530233E+02  0.48091676906E+03  0.00000000000E+00 0.  1.
         13    1    1    2    0    0  0.64372227267E+02  0.29579314884E+01 -0.14407804091E+02  0.66031272779E+02  0.10566000000E+00 0. -1.
<mgrwt>
<rscale>  1 0.50007764E+03</rscale>
<asrwt>0</asrwt>
<pdfrwt beam="1">  1       21 0.56593316E-01 0.99006598E+03</pdfrwt>
<pdfrwt beam="2">  1        4 0.11641054E+00 0.99006598E+03</pdfrwt>
<totfact> 0.66031114E+01</totfact>
</mgrwt>
</event>
<event>
 6    1  0.1412458E-005  0.1009469E+04  0.7818608E-02  0.9913648E-01
         21   -1    0    0  501  502  0.00000000000E+00  0.00000000000E+00  0.37586577575E+03  0.37586577575E+03  0.00000000000E+00 0.  1.
          4   -1    0    0  502    0 -0.00000000000E+00 -0.00000000000E+00 -0.10831749669E+04  0.10831749669E+04  0.00000000000E+00 0.  1.
    9000010    2    1    2  501    0  0.99405953212E+01 -0.12229335528E+03 -0.32962007013E+03  0.10619216629E+04  0.10019849038E+04 0.  0.
        -13    1    3    3    0    0  0.34314217910E+02  0.20016845242E+03  0.29523731349E+03  0.35834335118E+03  0.10566000000E+00 0.  1.
          4    1    3    3  501    0 -0.24373622588E+02 -0.32246180770E+03 -0.62485738363E+03  0.70357831176E+03  0.00000000000E+00 0.  1.
         13    1    1    2    0    0 -0.99405953212E+01  0.12229335528E+03 -0.37768912102E+03  0.39711907973E+03  0.10566000000E+00 0. -1.
<mgrwt>
<rscale>  1 0.59604369E+03</rscale>
<asrwt>0</asrwt>
<pdfrwt beam="1">  1       21 0.57825505E-01 0.10094693E+04</pdfrwt>
<pdfrwt beam="2">  1        4 0.16664230E+00 0.10094693E+04</pdfrwt>
<totfact> 0.24462241E+01</totfact>
</mgrwt>
</event>
<event>
 6    1  0.1412458E-005  0.1083449E+04  0.7818608E-02  0.9569847E-01
          4   -1    0    0  502    0 -0.00000000000E+00  0.00000000000E+00  0.55455181237E+03  0.55455181237E+03  0.00000000000E+00 0.  1.
         21   -1    0    0  501  502  0.00000000000E+00 -0.00000000000E+00 -0.98793264290E+03  0.98793264290E+03  0.00000000000E+00 0.  1.
    9000010    2    1    2  501    0  0.51882570167E+02  0.30696329279E+03 -0.54367614105E+03  0.12122067980E+04  0.10377587921E+04 0.  0.
        -13    1    3    3    0    0  0.13053732501E+03  0.57752539606E+03 -0.67793196421E+03  0.90009295941E+03  0.10566000000E+00 0.  1.
          4    1    3    3  501    0 -0.78654754842E+02 -0.27056210327E+03  0.13425582316E+03  0.31211383859E+03  0.00000000000E+00 0.  1.
         13    1    1    2    0    0 -0.51882570167E+02 -0.30696329279E+03  0.11029531052E+03  0.33027765727E+03  0.10566000000E+00 0. -1.
<mgrwt>
<rscale>  1 0.79324445E+03</rscale>
<asrwt>0</asrwt>
<pdfrwt beam="2">  1       21 0.15198964E+00 0.10834489E+04</pdfrwt>
<pdfrwt beam="1">  1        4 0.85315663E-01 0.10834489E+04</pdfrwt>
<totfact> 0.12229533E+01</totfact>
</mgrwt>
</event>
<event>
 6    1  0.1412458E-005  0.9952244E+03  0.7818608E-02  0.1026936E+00
         21   -1    0    0  501  502  0.00000000000E+00  0.00000000000E+00  0.98002387506E+03  0.98002387506E+03  0.00000000000E+00 0.  1.
          4   -1    0    0  502    0 -0.00000000000E+00 -0.00000000000E+00 -0.39355402577E+03  0.39355402577E+03  0.00000000000E+00 0.  1.
    9000010    2    1    2  501    0 -0.24141650190E+02 -0.35081683473E+02  0.72328403181E+03  0.12302891173E+04  0.99431281680E+03 0.  0.
        -13    1    3    3    0    0 -0.23737804849E+03  0.12120878960E+03  0.88236305263E+03  0.92173991797E+03  0.10566000000E+00 0.  1.
          4    1    3    3  501    0  0.21323639830E+03 -0.15629047307E+03 -0.15907902081E+03  0.30854919931E+03  0.00000000000E+00 0.  1.
         13    1    1    2    0    0  0.24141650190E+02  0.35081683473E+02 -0.13681418252E+03  0.14328878355E+03  0.10566000000E+00 0. -1.
<mgrwt>
<rscale>  1 0.45264433E+03</rscale>
<asrwt>0</asrwt>
<pdfrwt beam="1">  1       21 0.15077290E+00 0.99522436E+03</pdfrwt>
<pdfrwt beam="2">  1        4 0.60546773E-01 0.99522436E+03</pdfrwt>
<totfact> 0.27343009E+01</totfact>
</mgrwt>
</event>
<event>
 6    1  0.1412458E-005  0.9573693E+03  0.7818608E-02  0.9833556E-01
         21   -1    0    0  501  502  0.00000000000E+00  0.00000000000E+00  0.64601272312E+03  0.64601272312E+03  0.00000000000E+00 0.  1.
          4   -1    0    0  502    0 -0.00000000000E+00 -0.00000000000E+00 -0.56947739405E+03  0.56947739405E+03  0.00000000000E+00 0.  1.
    9000010    2    1    2  501    0 -0.71311468485E+02 -0.17219014243E+03 -0.95157670859E+02  0.96208674687E+03  0.93905332942E+03 0.  0.
        -13    1    3    3    0    0 -0.44422505381E+03 -0.32903626727E+03 -0.55907273248E+02  0.55563153076E+03  0.10566000000E+00 0.  1.
          4    1    3    3  501    0  0.37291358532E+03  0.15684612484E+03 -0.39250397611E+02  0.40645521611E+03  0.00000000000E+00 0.  1.
         13    1    1    2    0    0  0.71311468485E+02  0.17219014243E+03  0.17169299993E+03  0.25340337029E+03  0.10566000000E+00 0. -1.
<mgrwt>
<rscale>  1 0.63592404E+03</rscale>
<asrwt>0</asrwt>
<pdfrwt beam="1">  1       21 0.99386572E-01 0.95736927E+03</pdfrwt>
<pdfrwt beam="2">  1        4 0.87611907E-01 0.95736927E+03</pdfrwt>
<totfact> 0.35476213E+01</totfact>
</mgrwt>
</event>
<event>
 6    1  0.1412458E-005  0.1147862E+04  0.7818608E-02  0.9361933E-01
          4   -1    0    0  502    0 -0.00000000000E+00  0.00000000000E+00  0.13958359094E+04  0.13958359094E+04  0.00000000000E+00 0.  1.
         21   -1    0    0  501  502  0.00000000000E+00 -0.00000000000E+00 -0.61674596143E+03  0.61674596143E+03  0.00000000000E+00 0.  1.
    9000010    2    1    2  501    0 -0.22874195810E+03 -0.49448524312E+03  0.11501664292E+03  0.11536104483E+04  0.10103215821E+04 0.  0.
        -13    1    3    3    0    0  0.18468303082E+03 -0.31627670861E+03  0.45887437986E+03  0.58711539406E+03  0.10566000000E+00 0.  1.
          4    1    3    3  501    0 -0.41342498892E+03 -0.17820853451E+03 -0.34385773694E+03  0.56649505425E+03  0.00000000000E+00 0.  1.
         13    1    1    2    0    0  0.22874195810E+03  0.49448524312E+03  0.66407330500E+03  0.85897142248E+03  0.10566000000E+00 0. -1.
<mgrwt>
<rscale>  1 0.95275762E+03</rscale>
<asrwt>0</asrwt>
<pdfrwt beam="2">  1       21 0.94883995E-01 0.11478625E+04</pdfrwt>
<pdfrwt beam="1">  1        4 0.21474398E+00 0.11478625E+04</pdfrwt>
<totfact> 0.35842010E+00</totfact>
</mgrwt>
</event>
<event>
 6    1  0.1412458E-005  0.9994472E+03  0.7818608E-02  0.9961003E-01
          4   -1    0    0  502    0 -0.00000000000E+00  0.00000000000E+00  0.12355157323E+04  0.12355157323E+04  0.00000000000E+00 0.  1.
         21   -1    0    0  501  502  0.00000000000E+00 -0.00000000000E+00 -0.31781145579E+03  0.31781145579E+03  0.00000000000E+00 0.  1.
    9000010    2    1    2  501    0 -0.65392569766E+02 -0.86814293495E+02  0.49203017096E+03  0.11139966007E+04  0.99351991800E+03 0.  0.
        -13    1    3    3    0    0  0.80403276968E+02 -0.51633403744E+03  0.14330908509E+03  0.54185148352E+03  0.10566000000E+00 0.  1.
          4    1    3    3  501    0 -0.14579584673E+03  0.42951974394E+03  0.34872108588E+03  0.57214511717E+03  0.00000000000E+00 0.  1.
         13    1    1    2    0    0  0.65392569766E+02  0.86814293495E+02  0.42567410549E+03  0.43933058736E+03  0.10566000000E+00 0. -1.
<mgrwt>
<rscale>  1 0.57393744E+03</rscale>
<asrwt>0</asrwt>
<pdfrwt beam="2">  1       21 0.48894071E-01 0.99944722E+03</pdfrwt>
<pdfrwt beam="1">  1        4 0.19007934E+00 0.99944722E+03</pdfrwt>
<totfact> 0.24186950E+01</totfact>
</mgrwt>
</event>
<event>
 6    1  0.1412458E-005  0.9702180E+03  0.7818608E-02  0.9806378E-01
          4   -1    0    0  502    0 -0.00000000000E+00  0.00000000000E+00  0.82769796633E+03  0.82769796633E+03  0.00000000000E+00 0.  1.
         21   -1    0    0  501  502  0.00000000000E+00 -0.00000000000E+00 -0.61844081985E+03  0.61844081985E+03  0.00000000000E+00 0.  1.
    9000010    2    1    2  501    0 -0.44023027094E+02  0.19069621862E+03 -0.20169701166E+03  0.99096145154E+03  0.95027356020E+03 0.  0.
        -13    1    3    3    0    0  0.27899761993E+03 -0.26019699556E+03  0.44558841392E+02  0.38409328286E+03  0.10566000000E+00 0.  1.
          4    1    3    3  501    0 -0.32302064703E+03  0.45089321418E+03 -0.24625585306E+03  0.60686816868E+03  0.00000000000E+00 0.  1.
         13    1    1    2    0    0  0.44023027094E+02 -0.19069621862E+03  0.41095415814E+03  0.45517733464E+03  0.10566000000E+00 0. -1.
<mgrwt>
<rscale>  1 0.65021384E+03</rscale>
<asrwt>0</asrwt>
<pdfrwt beam="2">  1       21 0.95144741E-01 0.97021797E+03</pdfrwt>
<pdfrwt beam="1">  1        4 0.12733815E+00 0.97021797E+03</pdfrwt>
<totfact> 0.15832779E+01</totfact>
</mgrwt>
</event>
<event>
 6    1  0.1412458E-005  0.1336473E+04  0.7818608E-02  0.9105492E-01
          4   -1    0    0  502    0 -0.00000000000E+00  0.00000000000E+00  0.10773471018E+04  0.10773471018E+04  0.00000000000E+00 0.  1.
         21   -1    0    0  501  502  0.00000000000E+00 -0.00000000000E+00 -0.12780258793E+04  0.12780258793E+04  0.00000000000E+00 0. -1.
    9000010    2    1    2  501    0  0.87086079104E+03  0.19930768064E+03 -0.47888638990E+03  0.14196798927E+04  0.99400037951E+03 0.  0.
        -13    1    3    3    0    0  0.55208245246E+03  0.12304050861E+03  0.25157341932E+03  0.61905023831E+03  0.10566000000E+00 0.  1.
          4    1    3    3  501    0  0.31877833858E+03  0.76267172027E+02 -0.73045980921E+03  0.80062965443E+03  0.00000000000E+00 0.  1.
         13    1    1    2    0    0 -0.87086079104E+03 -0.19930768064E+03  0.27820761241E+03  0.93569308841E+03  0.10566000000E+00 0. -1.
<mgrwt>
<rscale>  1 0.12084500E+04</rscale>
<asrwt>0</asrwt>
<pdfrwt beam="2">  1       21 0.19661937E+00 0.13364725E+04</pdfrwt>
<pdfrwt beam="1">  1        4 0.16574571E+00 0.13364725E+04</pdfrwt>
<totfact> 0.10241670E+00</totfact>
</mgrwt>
</event>
<event>
 6    1  0.1412458E-005  0.1001528E+04  0.7818608E-02  0.9670184E-01
          4   -1    0    0  502    0 -0.00000000000E+00  0.00000000000E+00  0.49871908467E+03  0.49871908467E+03  0.00000000000E+00 0.  1.
         21   -1    0    0  501  502  0.00000000000E+00 -0.00000000000E+00 -0.12322862373E+04  0.12322862373E+04  0.00000000000E+00 0.  1.
    9000010    2    1    2  501    0  0.26142441525E+03  0.10002905792E+03 -0.94750308807E+03  0.13787027063E+04  0.96161869430E+03 0.  0.
        -13    1    3    3    0    0  0.38317452980E+03  0.41859068085E+03 -0.85351615681E+03  0.10249540085E+04  0.10566000000E+00 0.  1.
          4    1    3    3  501    0 -0.12175011454E+03 -0.31856162293E+03 -0.93986931266E+02  0.35374869787E+03  0.00000000000E+00 0.  1.
         13    1    1    2    0    0 -0.26142441525E+03 -0.10002905792E+03  0.21393593547E+03  0.35230261561E+03  0.10566000000E+00 0. -1.
<mgrwt>
<rscale>  1 0.72820106E+03</rscale>
<asrwt>0</asrwt>
<pdfrwt beam="2">  1       21 0.18958249E+00 0.10015284E+04</pdfrwt>
<pdfrwt beam="1">  1        4 0.76726015E-01 0.10015284E+04</pdfrwt>
<totfact> 0.82419500E+00</totfact>
</mgrwt>
</event>
<event>
 6    1  0.1412458E-005  0.1103045E+04  0.7818608E-02  0.9434806E-01
         21   -1    0    0  501  502  0.00000000000E+00  0.00000000000E+00  0.13693050778E+04  0.13693050778E+04  0.00000000000E+00 0.  1.
          4   -1    0    0  502    0 -0.00000000000E+00 -0.00000000000E+00 -0.66611710686E+03  0.66611710686E+03  0.00000000000E+00 0.  1.
    9000010    2    1    2  501    0  0.47260254447E+03  0.21860394195E+02  0.99000221095E+03  0.14821650461E+04  0.99643253876E+03 0.  0.
        -13    1    3    3    0    0  0.61810446924E+03  0.33146291529E+03  0.42034881127E+03  0.81768816392E+03  0.10566000000E+00 0.  1.
          4    1    3    3  501    0 -0.14550192477E+03 -0.30960252110E+03  0.56965339967E+03  0.66447688217E+03  0.00000000000E+00 0.  1.
         13    1    1    2    0    0 -0.47260254447E+03 -0.21860394195E+02 -0.28681424005E+03  0.55325713853E+03  0.10566000000E+00 0. -1.
<mgrwt>
<rscale>  1 0.89265788E+03</rscale>
<asrwt>0</asrwt>
<pdfrwt beam="1">  1       21 0.21066232E+00 0.11030453E+04</pdfrwt>
<pdfrwt beam="2">  1        4 0.10247956E+00 0.11030453E+04</pdfrwt>
<totfact> 0.29462459E+00</totfact>
</mgrwt>
</event>
<event>
 6    1  0.1412458E-005  0.1022374E+04  0.7818608E-02  0.9742075E-01
         21   -1    0    0  501  502  0.00000000000E+00  0.00000000000E+00  0.39880805016E+03  0.39880805016E+03  0.00000000000E+00 0.  1.
          4   -1    0    0  502    0 -0.00000000000E+00 -0.00000000000E+00 -0.10274541846E+04  0.10274541846E+04  0.00000000000E+00 0.  1.
    9000010    2    1    2  501    0 -0.16558922689E+03 -0.12392383946E+03 -0.66024795023E+03  0.12170360510E+04  0.10012354787E+04 0.  0.
        -13    1    3    3    0    0 -0.47308452669E+03  0.14244262624E+02 -0.73265592951E+03  0.87223654511E+03  0.10566000000E+00 0.  1.
          4    1    3    3  501    0  0.30749529980E+03 -0.13816810209E+03  0.72407979280E+02  0.34479950594E+03  0.00000000000E+00 0.  1.
         13    1    1    2    0    0  0.16558922689E+03  0.12392383946E+03  0.31601815748E+02  0.20922618376E+03  0.10566000000E+00 0. -1.
<mgrwt>
<rscale>  1 0.68565985E+03</rscale>
<asrwt>0</asrwt>
<pdfrwt beam="1">  1       21 0.61355085E-01 0.10223744E+04</pdfrwt>
<pdfrwt beam="2">  1        4 0.15806987E+00 0.10223744E+04</pdfrwt>
<totfact> 0.24785060E+01</totfact>
</mgrwt>
</event>
<event>
 6    1  0.1412458E-005  0.9905531E+03  0.7818608E-02  0.1014719E+00
         21   -1    0    0  501  502  0.00000000000E+00  0.00000000000E+00  0.10275955002E+04  0.10275955002E+04  0.00000000000E+00 0.  1.
          4   -1    0    0  502    0 -0.00000000000E+00 -0.00000000000E+00 -0.32578909649E+03  0.32578909649E+03  0.00000000000E+00 0.  1.
    9000010    2    1    2  501    0 -0.62426659968E+02  0.26077586933E+01  0.77459663447E+03  0.12574558881E+04  0.98858053603E+03 0.  0.
        -13    1    3    3    0    0  0.43703759304E+03 -0.12977151833E+03  0.24503983424E+03  0.51757804844E+03  0.10566000000E+00 0.  1.
          4    1    3    3  501    0 -0.49946425301E+03  0.13237927702E+03  0.52955680024E+03  0.73987783971E+03  0.00000000000E+00 0.  1.
         13    1    1    2    0    0  0.62426659968E+02 -0.26077586933E+01 -0.72790230718E+02  0.95928708592E+02  0.10566000000E+00 0. -1.
<mgrwt>
<rscale>  1 0.49641585E+03</rscale>
<asrwt>0</asrwt>
<pdfrwt beam="1">  1       21 0.15809161E+00 0.99055306E+03</pdfrwt>
<pdfrwt beam="2">  1        4 0.50121400E-01 0.99055306E+03</pdfrwt>
<totfact> 0.35906029E+01</totfact>
</mgrwt>
</event>
<event>
 6    1  0.1412458E-005  0.1135996E+04  0.7818608E-02  0.9362156E-01
          4   -1    0    0  502    0 -0.00000000000E+00  0.00000000000E+00  0.14996665877E+04  0.14996665877E+04  0.00000000000E+00 0.  1.
         21   -1    0    0  501  502  0.00000000000E+00 -0.00000000000E+00 -0.61575501195E+03  0.61575501195E+03  0.00000000000E+00 0.  1.
    9000010    2    1    2  501    0  0.29939702236E+03  0.47517221696E+03  0.85429354080E+02  0.11392038564E+04  0.98745128442E+03 0.  0.
        -13    1    3    3    0    0  0.40479144350E+03 -0.14474274424E+03 -0.16758226173E+03  0.46140047719E+03  0.10566000000E+00 0.  1.
          4    1    3    3  501    0 -0.10539442113E+03  0.61991496120E+03  0.25301161581E+03  0.67780337920E+03  0.00000000000E+00 0.  1.
         13    1    1    2    0    0 -0.29939702236E+03 -0.47517221696E+03  0.79848222164E+03  0.97621774323E+03  0.10566000000E+00 0. -1.
<mgrwt>
<rscale>  1 0.95256592E+03</rscale>
<asrwt>0</asrwt>
<pdfrwt beam="2">  1       21 0.94731541E-01 0.11359961E+04</pdfrwt>
<pdfrwt beam="1">  1        4 0.23071794E+00 0.11359961E+04</pdfrwt>
<totfact> 0.28499893E+00</totfact>
</mgrwt>
</event>
<event>
 6    1  0.1412458E-005  0.1121773E+04  0.7818608E-02  0.9391768E-01
          4   -1    0    0  502    0 -0.00000000000E+00  0.00000000000E+00  0.28272866263E+04  0.28272866263E+04  0.00000000000E+00 0.  1.
         21   -1    0    0  501  502  0.00000000000E+00 -0.00000000000E+00 -0.23965389044E+03  0.23965389044E+03  0.00000000000E+00 0.  1.
    9000010    2    1    2  501    0 -0.52233602925E+03 -0.46401966343E+02  0.17810133627E+04  0.21048475409E+04  0.99165846045E+03 0.  0.
        -13    1    3    3    0    0 -0.64907191072E+02 -0.45816070635E+03  0.10617742285E+04  0.11582265321E+04  0.10566000000E+00 0.  1.
          4    1    3    3  501    0 -0.45742883817E+03  0.41175874001E+03  0.71923913424E+03  0.94662100874E+03  0.00000000000E+00 0.  1.
         13    1    1    2    0    0  0.52233602925E+03  0.46401966343E+02  0.80661937317E+03  0.96209297589E+03  0.10566000000E+00 0. -1.
<mgrwt>
<rscale>  1 0.92756214E+03</rscale>
<asrwt>0</asrwt>
<pdfrwt beam="2">  1       21 0.36869831E-01 0.11217730E+04</pdfrwt>
<pdfrwt beam="1">  1        4 0.43496715E+00 0.11217730E+04</pdfrwt>
<totfact> 0.11031622E+00</totfact>
</mgrwt>
</event>
<event>
 6    1  0.1412458E-005  0.1039001E+04  0.7818608E-02  0.9612199E-01
         21   -1    0    0  501  502  0.00000000000E+00  0.00000000000E+00  0.14137242755E+04  0.14137242755E+04  0.00000000000E+00 0. -1.
          4   -1    0    0  502    0 -0.00000000000E+00 -0.00000000000E+00 -0.34810291210E+03  0.34810291210E+03  0.00000000000E+00 0.  1.
    9000010    2    1    2  501    0  0.23761104735E+03 -0.19162758303E+03  0.10148264605E+04  0.14523756183E+04  0.99314754766E+03 0.  0.
        -13    1    3    3    0    0  0.15726854273E+03 -0.54241740680E+03  0.27173752773E+03  0.62673067012E+03  0.10566000000E+00 0.  1.
          4    1    3    3  501    0  0.80342504616E+02  0.35078982377E+03  0.74308893276E+03  0.82564494821E+03  0.00000000000E+00 0.  1.
         13    1    1    2    0    0 -0.23761104735E+03  0.19162758303E+03  0.50794902913E+02  0.30945156927E+03  0.10566000000E+00 0. -1.
<mgrwt>
<rscale>  1 0.76493982E+03</rscale>
<asrwt>0</asrwt>
<pdfrwt beam="1">  1       21 0.21749604E+00 0.10390006E+04</pdfrwt>
<pdfrwt beam="2">  1        4 0.53554295E-01 0.10390006E+04</pdfrwt>
<totfact> 0.11677771E+01</totfact>
</mgrwt>
</event>
<event>
 6    1  0.1412458E-005  0.1088227E+04  0.7818608E-02  0.9519553E-01
         21   -1    0    0  501  502  0.00000000000E+00  0.00000000000E+00  0.37203128748E+03  0.37203128748E+03  0.00000000000E+00 0.  1.
          4   -1    0    0  502    0 -0.00000000000E+00 -0.00000000000E+00 -0.14210053412E+04  0.14210053412E+04  0.00000000000E+00 0.  1.
    9000010    2    1    2  501    0 -0.36788799319E+02 -0.36388147541E+03 -0.77166524142E+03  0.13340558748E+04  0.10249266746E+04 0.  0.
        -13    1    3    3    0    0  0.18277717989E+03  0.17238309598E+03 -0.70780648622E+03  0.75107487134E+03  0.10566000000E+00 0.  1.
          4    1    3    3  501    0 -0.21956597921E+03 -0.53626457139E+03 -0.63858755200E+02  0.58298100344E+03  0.00000000000E+00 0.  1.
         13    1    1    2    0    0  0.36788799319E+02  0.36388147541E+03 -0.27730881230E+03  0.45898075389E+03  0.10566000000E+00 0. -1.
<mgrwt>
<rscale>  1 0.82857469E+03</rscale>
<asrwt>0</asrwt>
<pdfrwt beam="1">  1       21 0.57235582E-01 0.10882269E+04</pdfrwt>
<pdfrwt beam="2">  1        4 0.21861621E+00 0.10882269E+04</pdfrwt>
<totfact> 0.11031368E+01</totfact>
</mgrwt>
</event>
<event>
 6    1  0.1412458E-005  0.8551157E+03  0.7818608E-02  0.1014610E+00
         21   -1    0    0  501  502  0.00000000000E+00  0.00000000000E+00  0.59947377141E+03  0.59947377141E+03  0.00000000000E+00 0.  1.
          4   -1    0    0  502    0 -0.00000000000E+00 -0.00000000000E+00 -0.48012412981E+03  0.48012412981E+03  0.00000000000E+00 0.  1.
    9000010    2    1    2  501    0 -0.97384887460E+02 -0.33351317237E+01  0.27301546583E+03  0.89764148855E+03  0.84954567739E+03 0.  0.
        -13    1    3    3    0    0  0.34239196342E+03 -0.15539590434E+03  0.20230834131E+03  0.42697636917E+03  0.10566000000E+00 0.  1.
          4    1    3    3  501    0 -0.43977685088E+03  0.15206077262E+03  0.70707124522E+02  0.47066511938E+03  0.00000000000E+00 0.  1.
         13    1    1    2    0    0  0.97384887460E+02  0.33351317237E+01 -0.15366582424E+03  0.18195641267E+03  0.10566000000E+00 0. -1.
<mgrwt>
<rscale>  1 0.49682705E+03</rscale>
<asrwt>0</asrwt>
<pdfrwt beam="1">  1       21 0.92226734E-01 0.85511566E+03</pdfrwt>
<pdfrwt beam="2">  1        4 0.73865251E-01 0.85511566E+03</pdfrwt>
<totfact> 0.63615683E+01</totfact>
</mgrwt>
</event>
<event>
 6    1  0.1412458E-005  0.1006972E+04  0.7818608E-02  0.9923949E-01
          4   -1    0    0  502    0 -0.00000000000E+00  0.00000000000E+00  0.58007773569E+03  0.58007773569E+03  0.00000000000E+00 0.  1.
         21   -1    0    0  501  502  0.00000000000E+00 -0.00000000000E+00 -0.54817420785E+03  0.54817420785E+03  0.00000000000E+00 0.  1.
    9000010    2    1    2  501    0  0.60528998620E+02  0.10315013708E+03  0.12226239634E+02  0.10070458493E+04  0.99984406342E+03 0.  0.
        -13    1    3    3    0    0 -0.22203164406E+03 -0.38208789352E+03 -0.36516644510E+02  0.44342156672E+03  0.10566000000E+00 0.  1.
          4    1    3    3  501    0  0.28256064268E+03  0.48523803060E+03  0.48742884144E+02  0.56362428255E+03  0.00000000000E+00 0.  1.
         13    1    1    2    0    0 -0.60528998620E+02 -0.10315013708E+03  0.19677288208E+02  0.12120609427E+03  0.10566000000E+00 0. -1.
<mgrwt>
<rscale>  1 0.59114505E+03</rscale>
<asrwt>0</asrwt>
<pdfrwt beam="2">  1       21 0.84334493E-01 0.10069716E+04</pdfrwt>
<pdfrwt beam="1">  1        4 0.89242729E-01 0.10069716E+04</pdfrwt>
<totfact> 0.50364482E+01</totfact>
</mgrwt>
</event>
<event>
 6    1  0.1412458E-005  0.1185556E+04  0.7818608E-02  0.9281991E-01
          4   -1    0    0  502    0 -0.00000000000E+00  0.00000000000E+00  0.75376310700E+03  0.75376310700E+03  0.00000000000E+00 0.  1.
         21   -1    0    0  501  502  0.00000000000E+00 -0.00000000000E+00 -0.11720867415E+04  0.11720867415E+04  0.00000000000E+00 0. -1.
    9000010    2    1    2  501    0  0.60016722601E+03 -0.27775655435E+03 -0.93990130625E+02  0.11892755918E+04  0.98396792935E+03 0.  0.
        -13    1    3    3    0    0  0.31384275626E+03 -0.36421513139E+03  0.39084691737E+03  0.61960573074E+03  0.10566000000E+00 0.  1.
          4    1    3    3  501    0  0.28632446976E+03  0.86458577039E+02 -0.48483704799E+03  0.56966986109E+03  0.00000000000E+00 0.  1.
         13    1    1    2    0    0 -0.60016722601E+03  0.27775655435E+03 -0.32433350382E+03  0.73657425663E+03  0.10566000000E+00 0. -1.
<mgrwt>
<rscale>  1 0.10245782E+04</rscale>
<asrwt>0</asrwt>
<pdfrwt beam="2">  1       21 0.18032104E+00 0.11855557E+04</pdfrwt>
<pdfrwt beam="1">  1        4 0.11596355E+00 0.11855557E+04</pdfrwt>
<totfact> 0.35034355E+00</totfact>
</mgrwt>
</event>
<event>
 6    1  0.1412458E-005  0.1082588E+04  0.7818608E-02  0.9481198E-01
          4   -1    0    0  502    0 -0.00000000000E+00  0.00000000000E+00  0.24830974730E+04  0.24830974730E+04  0.00000000000E+00 0.  1.
         21   -1    0    0  501  502  0.00000000000E+00 -0.00000000000E+00 -0.23765245456E+03  0.23765245456E+03  0.00000000000E+00 0.  1.
    9000010    2    1    2  501    0  0.61106020938E+02 -0.42041301608E+03  0.18318968961E+04  0.21278729500E+04  0.99574896605E+03 0.  0.
        -13    1    3    3    0    0 -0.46478477217E+03 -0.26052458395E+03  0.91672874247E+03  0.10603252056E+04  0.10566000000E+00 0.  1.
          4    1    3    3  501    0  0.52589079311E+03 -0.15988843213E+03  0.91516815363E+03  0.10675477443E+04  0.00000000000E+00 0.  1.
         13    1    1    2    0    0 -0.61106020938E+02  0.42041301608E+03  0.41354812233E+03  0.59287697757E+03  0.10566000000E+00 0. -1.
<mgrwt>
<rscale>  1 0.85684340E+03</rscale>
<asrwt>0</asrwt>
<pdfrwt beam="2">  1       21 0.36561918E-01 0.10825881E+04</pdfrwt>
<pdfrwt beam="1">  1        4 0.38201498E+00 0.10825881E+04</pdfrwt>
<totfact> 0.26589583E+00</totfact>
</mgrwt>
</event>
<event>
 6    1  0.1412458E-005  0.1102352E+04  0.7818608E-02  0.9462685E-01
          4   -1    0    0  502    0 -0.00000000000E+00  0.00000000000E+00  0.69702658964E+03  0.69702658964E+03  0.00000000000E+00 0.  1.
         21   -1    0    0  501  502  0.00000000000E+00 -0.00000000000E+00 -0.11062775713E+04  0.11062775713E+04  0.00000000000E+00 0.  1.
    9000010    2    1    2  501    0 -0.12638766190E+03 -0.41046570872E+03 -0.68036661649E+03  0.12954068902E+04  0.10152459501E+04 0.  0.
        -13    1    3    3    0    0  0.41073828092E+03 -0.24897768343E+03 -0.10451286845E+03  0.49154732539E+03  0.10566000000E+00 0.  1.
          4    1    3    3  501    0 -0.53712594281E+03 -0.16148802528E+03 -0.57585374804E+03  0.80385956478E+03  0.00000000000E+00 0.  1.
         13    1    1    2    0    0  0.12638766190E+03  0.41046570872E+03  0.27111563479E+03  0.50789727082E+03  0.10566000000E+00 0. -1.
<mgrwt>
<rscale>  1 0.87091717E+03</rscale>
<asrwt>0</asrwt>
<pdfrwt beam="2">  1       21 0.17019655E+00 0.11023522E+04</pdfrwt>
<pdfrwt beam="1">  1        4 0.10723486E+00 0.11023522E+04</pdfrwt>
<totfact> 0.51033795E+00</totfact>
</mgrwt>
</event>
<event>
 6    1  0.1412458E-005  0.1053105E+04  0.7818608E-02  0.9862920E-01
         21   -1    0    0  501  502  0.00000000000E+00  0.00000000000E+00  0.30453456279E+03  0.30453456279E+03  0.00000000000E+00 0.  1.
          4   -1    0    0  502    0 -0.00000000000E+00 -0.00000000000E+00 -0.12112967077E+04  0.12112967077E+04  0.00000000000E+00 0.  1.
    9000010    2    1    2  501    0  0.10765652311E+03 -0.67888427556E+02 -0.67334396671E+03  0.12499688575E+04  0.10453857095E+04 0.  0.
        -13    1    3    3    0    0  0.20766861362E+03  0.30282781666E+03  0.10513384745E+03  0.38194774076E+03  0.10566000000E+00 0.  1.
          4    1    3    3  501    0 -0.10001209051E+03 -0.37071624421E+03 -0.77847781415E+03  0.86802111674E+03  0.00000000000E+00 0.  1.
         13    1    1    2    0    0 -0.10765652311E+03  0.67888427556E+02 -0.23341817823E+03  0.26586241302E+03  0.10566000000E+00 0. -1.
<mgrwt>
<rscale>  1 0.62092482E+03</rscale>
<asrwt>0</asrwt>
<pdfrwt beam="1">  1       21 0.46851471E-01 0.10531050E+04</pdfrwt>
<pdfrwt beam="2">  1        4 0.18635334E+00 0.10531050E+04</pdfrwt>
<totfact> 0.27964650E+01</totfact>
</mgrwt>
</event>
<event>
 6    1  0.1412458E-005  0.1056834E+04  0.7818608E-02  0.9586934E-01
          4   -1    0    0  502    0 -0.00000000000E+00  0.00000000000E+00  0.16469143384E+04  0.16469143384E+04  0.00000000000E+00 0.  1.
         21   -1    0    0  501  502  0.00000000000E+00 -0.00000000000E+00 -0.45434292196E+03  0.45434292196E+03  0.00000000000E+00 0.  1.
    9000010    2    1    2  501    0  0.26978659549E+03 -0.16507340516E+03  0.22125846102E+03  0.10797471504E+04  0.10083970280E+04 0.  0.
        -13    1    3    3    0    0  0.57116425404E+02 -0.49482664763E+03 -0.16932340481E+03  0.52610467004E+03  0.10566000000E+00 0.  1.
          4    1    3    3  501    0  0.21267017009E+03  0.32975324247E+03  0.39058186582E+03  0.55364248037E+03  0.00000000000E+00 0.  1.
         13    1    1    2    0    0 -0.26978659549E+03  0.16507340516E+03  0.97131295546E+03  0.10215101100E+04  0.10566000000E+00 0. -1.
<mgrwt>
<rscale>  1 0.78167034E+03</rscale>
<asrwt>0</asrwt>
<pdfrwt beam="2">  1       21 0.69898912E-01 0.10568342E+04</pdfrwt>
<pdfrwt beam="1">  1        4 0.25337143E+00 0.10568342E+04</pdfrwt>
<totfact> 0.42700281E+00</totfact>
</mgrwt>
</event>
<event>
 6    1  0.1412458E-005  0.1024474E+04  0.7818608E-02  0.9882028E-01
         21   -1    0    0  501  502  0.00000000000E+00  0.00000000000E+00  0.82063619452E+03  0.82063619452E+03  0.00000000000E+00 0.  1.
          4   -1    0    0  502    0 -0.00000000000E+00 -0.00000000000E+00 -0.57220454279E+03  0.57220454279E+03  0.00000000000E+00 0.  1.
    9000010    2    1    2  501    0  0.59727936803E+02  0.11542059213E+03  0.47686958366E+03  0.11300228547E+04  0.10161976741E+04 0.  0.
        -13    1    3    3    0    0 -0.46307931403E+03  0.11410447645E+03  0.10473132717E+03  0.48829391219E+03  0.10566000000E+00 0.  1.
          4    1    3    3  501    0  0.52280725083E+03  0.13161156834E+01  0.37213825649E+03  0.64172894249E+03  0.00000000000E+00 0.  1.
         13    1    1    2    0    0 -0.59727936803E+02 -0.11542059213E+03 -0.22843793193E+03  0.26281788263E+03  0.10566000000E+00 0. -1.
<mgrwt>
<rscale>  1 0.61140268E+03</rscale>
<asrwt>0</asrwt>
<pdfrwt beam="1">  1       21 0.12625172E+00 0.10244740E+04</pdfrwt>
<pdfrwt beam="2">  1        4 0.88031467E-01 0.10244740E+04</pdfrwt>
<totfact> 0.18934885E+01</totfact>
</mgrwt>
</event>
<event>
 6    1  0.1412458E-005  0.1042735E+04  0.7818608E-02  0.9614163E-01
         21   -1    0    0  501  502  0.00000000000E+00  0.00000000000E+00  0.10174005825E+04  0.10174005825E+04  0.00000000000E+00 0.  1.
          4   -1    0    0  502    0 -0.00000000000E+00 -0.00000000000E+00 -0.50550092042E+03  0.50550092042E+03  0.00000000000E+00 0.  1.
    9000010    2    1    2  501    0 -0.27416279104E+03  0.12171929944E+03  0.60907270320E+03  0.12075866842E+04  0.99865670689E+03 0.  0.
        -13    1    3    3    0    0 -0.41293123030E+03  0.10296291507E+03  0.83763158659E+03  0.93954257426E+03  0.10566000000E+00 0.  1.
          4    1    3    3  501    0  0.13876843926E+03  0.18756384374E+02 -0.22855888339E+03  0.26804410993E+03  0.00000000000E+00 0.  1.
         13    1    1    2    0    0  0.27416279104E+03 -0.12171929944E+03 -0.97173041100E+02  0.31531481875E+03  0.10566000000E+00 0. -1.
<mgrwt>
<rscale>  1 0.76365848E+03</rscale>
<asrwt>0</asrwt>
<pdfrwt beam="1">  1       21 0.15652317E+00 0.10427349E+04</pdfrwt>
<pdfrwt beam="2">  1        4 0.77769372E-01 0.10427349E+04</pdfrwt>
<totfact> 0.14001589E+01</totfact>
</mgrwt>
</event>
<event>
 6    1  0.1412458E-005  0.1047208E+04  0.7818608E-02  0.9725203E-01
          4   -1    0    0  502    0 -0.00000000000E+00  0.00000000000E+00  0.57500480112E+03  0.57500480112E+03  0.00000000000E+00 0.  1.
         21   -1    0    0  501  502  0.00000000000E+00 -0.00000000000E+00 -0.78033579742E+03  0.78033579742E+03  0.00000000000E+00 0.  1.
    9000010    2    1    2  501    0  0.13475102989E+03  0.15260095797E+03 -0.35160583659E+03  0.11046590625E+04  0.10272293258E+04 0.  0.
        -13    1    3    3    0    0 -0.23096658759E+03  0.14293603322E+03 -0.60260347728E+03  0.66098958855E+03  0.10566000000E+00 0.  1.
          4    1    3    3  501    0  0.36571761748E+03  0.96649247476E+01  0.25099764070E+03  0.44366947398E+03  0.00000000000E+00 0.  1.
         13    1    1    2    0    0 -0.13475102989E+03 -0.15260095797E+03  0.14627484028E+03  0.25068153600E+03  0.10566000000E+00 0. -1.
<mgrwt>
<rscale>  1 0.69535833E+03</rscale>
<asrwt>0</asrwt>
<pdfrwt beam="2">  1       21 0.12005166E+00 0.10472082E+04</pdfrwt>
<pdfrwt beam="1">  1        4 0.88462278E-01 0.10472082E+04</pdfrwt>
<totfact> 0.21314344E+01</totfact>
</mgrwt>
</event>
<event>
 6    1  0.1412458E-005  0.1008501E+04  0.7818608E-02  0.1034165E+00
          4   -1    0    0  502    0 -0.00000000000E+00  0.00000000000E+00  0.42336858907E+03  0.42336858907E+03  0.00000000000E+00 0.  1.
         21   -1    0    0  501  502  0.00000000000E+00 -0.00000000000E+00 -0.87731556041E+03  0.87731556041E+03  0.00000000000E+00 0.  1.
    9000010    2    1    2  501    0 -0.33029920336E+02 -0.44734727698E+00 -0.58475706211E+03  0.11657676317E+04  0.10079594107E+04 0.  0.
        -13    1    3    3    0    0 -0.42478430534E+03 -0.23766122029E+03 -0.96285465099E+02  0.49618087796E+03  0.10566000000E+00 0.  1.
          4    1    3    3  501    0  0.39175438501E+03  0.23721387301E+03 -0.48847159701E+03  0.66958675376E+03  0.00000000000E+00 0.  1.
         13    1    1    2    0    0  0.33029920336E+02  0.44734727698E+00  0.13081009077E+03  0.13491651777E+03  0.10566000000E+00 0. -1.
<mgrwt>
<rscale>  1 0.42903675E+03</rscale>
<asrwt>0</asrwt>
<pdfrwt beam="2">  1       21 0.13497162E+00 0.10085005E+04</pdfrwt>
<pdfrwt beam="1">  1        4 0.65133630E-01 0.10085005E+04</pdfrwt>
<totfact> 0.31508429E+01</totfact>
</mgrwt>
</event>
<event>
 6    1  0.1412458E-005  0.9917379E+03  0.7818608E-02  0.1000143E+00
         21   -1    0    0  501  502  0.00000000000E+00  0.00000000000E+00  0.18086538529E+04  0.18086538529E+04  0.00000000000E+00 0. -1.
          4   -1    0    0  502    0 -0.00000000000E+00 -0.00000000000E+00 -0.17637432921E+03  0.17637432921E+03  0.00000000000E+00 0.  1.
    9000010    2    1    2  501    0 -0.39970832787E+02 -0.89351853257E+02  0.12790735934E+04  0.16185096130E+04  0.98689548021E+03 0.  0.
        -13    1    3    3    0    0  0.38828263589E+03  0.83017623294E+02  0.19946698990E+03  0.44434493621E+03  0.10566000000E+00 0.  1.
          4    1    3    3  501    0 -0.42825346868E+03 -0.17236947655E+03  0.10796066035E+04  0.11741646767E+04  0.00000000000E+00 0.  1.
         13    1    1    2    0    0  0.39970832787E+02  0.89351853257E+02  0.35320593037E+03  0.36651856920E+03  0.10566000000E+00 0. -1.
<mgrwt>
<rscale>  1 0.55587424E+03</rscale>
<asrwt>0</asrwt>
<pdfrwt beam="1">  1       21 0.27825443E+00 0.99173792E+03</pdfrwt>
<pdfrwt beam="2">  1        4 0.27134513E-01 0.99173792E+03</pdfrwt>
<totfact> 0.19079454E+01</totfact>
</mgrwt>
</event>
<event>
 6    1  0.1412458E-005  0.1019159E+04  0.7818608E-02  0.9747866E-01
         21   -1    0    0  501  502  0.00000000000E+00  0.00000000000E+00  0.11071859459E+04  0.11071859459E+04  0.00000000000E+00 0.  1.
          4   -1    0    0  502    0 -0.00000000000E+00 -0.00000000000E+00 -0.11169491645E+04  0.11169491645E+04  0.00000000000E+00 0.  1.
    9000010    2    1    2  501    0 -0.16611824943E+03  0.11980188724E+03  0.85818243875E+03  0.13323518183E+04  0.99836691875E+03 0.  0.
        -13    1    3    3    0    0 -0.51913036674E+03  0.80199162309E+02  0.82170453760E+03  0.97525719765E+03  0.10566000000E+00 0.  1.
          4    1    3    3  501    0  0.35301211731E+03  0.39602724932E+02  0.36477901149E+02  0.35709462060E+03  0.00000000000E+00 0.  1.
         13    1    1    2    0    0  0.16611824943E+03 -0.11980188724E+03 -0.86794565732E+03  0.89178329217E+03  0.10566000000E+00 0. -1.
<mgrwt>
<rscale>  1 0.68237004E+03</rscale>
<asrwt>0</asrwt>
<pdfrwt beam="1">  1       21 0.17033630E+00 0.10191586E+04</pdfrwt>
<pdfrwt beam="2">  1        4 0.17183833E+00 0.10191586E+04</pdfrwt>
<totfact> 0.14994816E+00</totfact>
</mgrwt>
</event>
<event>
 6    1  0.1412458E-005  0.1042423E+04  0.7818608E-02  0.9632293E-01
         21   -1    0    0  501  502  0.00000000000E+00  0.00000000000E+00  0.25200267705E+04  0.25200267705E+04  0.00000000000E+00 0. -1.
          4   -1    0    0  502    0 -0.00000000000E+00 -0.00000000000E+00 -0.18517606839E+03  0.18517606839E+03  0.00000000000E+00 0.  1.
    9000010    2    1    2  501    0 -0.12902684925E+03  0.25102746181E+03  0.20723367216E+04  0.23197468549E+04  0.10034855599E+04 0.  0.
        -13    1    3    3    0    0  0.15592548011E+01  0.55138470782E+03  0.18329024399E+04  0.19140425525E+04  0.10566000000E+00 0.  1.
          4    1    3    3  501    0 -0.13058610406E+03 -0.30035724601E+03  0.23943428166E+03  0.40570430246E+03  0.00000000000E+00 0.  1.
         13    1    1    2    0    0  0.12902684925E+03 -0.25102746181E+03  0.26251398051E+03  0.38545598392E+03  0.10566000000E+00 0. -1.
<mgrwt>
<rscale>  1 0.75195166E+03</rscale>
<asrwt>0</asrwt>
<pdfrwt beam="1">  1       21 0.38769640E+00 0.10424231E+04</pdfrwt>
<pdfrwt beam="2">  1        4 0.28488628E-01 0.10424231E+04</pdfrwt>
<totfact> 0.35164962E+00</totfact>
</mgrwt>
</event>
<event>
 6    1  0.1412458E-005  0.1034763E+04  0.7818608E-02  0.9613815E-01
         21   -1    0    0  501  502  0.00000000000E+00  0.00000000000E+00  0.13092425296E+04  0.13092425296E+04  0.00000000000E+00 0.  1.
          4   -1    0    0  502    0 -0.00000000000E+00 -0.00000000000E+00 -0.50069330157E+03  0.50069330157E+03  0.00000000000E+00 0.  1.
    9000010    2    1    2  501    0  0.30702971440E+03  0.13341607702E+02  0.10071878402E+04  0.14440088529E+04  0.98807336667E+03 0.  0.
        -13    1    3    3    0    0  0.31695042258E+03 -0.72958531864E+01 -0.10318220646E+03  0.33340272756E+03  0.10566000000E+00 0.  1.
          4    1    3    3  501    0 -0.99207081855E+01  0.20637460889E+02  0.11103700466E+04  0.11106061254E+04  0.00000000000E+00 0.  1.
         13    1    1    2    0    0 -0.30702971440E+03 -0.13341607702E+02 -0.19863861213E+03  0.36592697825E+03  0.10566000000E+00 0. -1.
<mgrwt>
<rscale>  1 0.76388529E+03</rscale>
<asrwt>0</asrwt>
<pdfrwt beam="1">  1       21 0.20142193E+00 0.10347629E+04</pdfrwt>
<pdfrwt beam="2">  1        4 0.77029739E-01 0.10347629E+04</pdfrwt>
<totfact> 0.67255888E+00</totfact>
</mgrwt>
</event>
<event>
 6    1  0.1412458E-005  0.1007477E+04  0.7818608E-02  0.9732386E-01
          4   -1    0    0  502    0 -0.00000000000E+00  0.00000000000E+00  0.25597515392E+03  0.25597515392E+03  0.00000000000E+00 0.  1.
         21   -1    0    0  501  502  0.00000000000E+00 -0.00000000000E+00 -0.15722142600E+04  0.15722142600E+04  0.00000000000E+00 0. -1.
    9000010    2    1    2  501    0  0.18473456311E+03 -0.12529869390E+03 -0.87798698093E+03  0.13363646912E+04  0.98243718770E+03 0.  0.
        -13    1    3    3    0    0  0.14129459858E+03  0.16433241659E+03 -0.99696499230E+03  0.10202492410E+04  0.10566000000E+00 0.  1.
          4    1    3    3  501    0  0.43439964523E+02 -0.28963111048E+03  0.11897801137E+03  0.31611545022E+03  0.00000000000E+00 0.  1.
         13    1    1    2    0    0 -0.18473456311E+03  0.12529869390E+03 -0.43825212511E+03  0.49182472267E+03  0.10566000000E+00 0. -1.
<mgrwt>
<rscale>  1 0.69120843E+03</rscale>
<asrwt>0</asrwt>
<pdfrwt beam="2">  1       21 0.24187911E+00 0.10074768E+04</pdfrwt>
<pdfrwt beam="1">  1        4 0.39380793E-01 0.10074768E+04</pdfrwt>
<totfact> 0.15437014E+01</totfact>
</mgrwt>
</event>
<event>
 6    1  0.1412458E-005  0.1023110E+04  0.7818608E-02  0.9644822E-01
         21   -1    0    0  501  502  0.00000000000E+00  0.00000000000E+00  0.37759771581E+03  0.37759771581E+03  0.00000000000E+00 0.  1.
          4   -1    0    0  502    0 -0.00000000000E+00 -0.00000000000E+00 -0.14171617247E+04  0.14171617247E+04  0.00000000000E+00 0.  1.
    9000010    2    1    2  501    0 -0.25052357394E+01 -0.28608196313E+03 -0.40808173584E+03  0.11014925091E+04  0.98229622755E+03 0.  0.
        -13    1    3    3    0    0  0.16365251146E+03 -0.60152303012E+03 -0.10215447994E+03  0.63170218395E+03  0.10566000000E+00 0.  1.
          4    1    3    3  501    0 -0.16615774719E+03  0.31544106700E+03 -0.30592725590E+03  0.46979032515E+03  0.00000000000E+00 0.  1.
         13    1    1    2    0    0  0.25052357394E+01  0.28608196313E+03 -0.63148227306E+03  0.69326693141E+03  0.10566000000E+00 0. -1.
<mgrwt>
<rscale>  1 0.74399272E+03</rscale>
<asrwt>0</asrwt>
<pdfrwt beam="1">  1       21 0.58091956E-01 0.10231105E+04</pdfrwt>
<pdfrwt beam="2">  1        4 0.21802488E+00 0.10231105E+04</pdfrwt>
<totfact> 0.10845007E+01</totfact>
</mgrwt>
</event>
<event>
 6    1  0.1412458E-005  0.1010261E+04  0.7818608E-02  0.9899890E-01
          4   -1    0    0  502    0 -0.00000000000E+00  0.00000000000E+00  0.20714790255E+03  0.20714790255E+03  0.00000000000E+00 0.  1.
         21   -1    0    0  501  502  0.00000000000E+00 -0.00000000000E+00 -0.19136794363E+04  0.19136794363E+04  0.00000000000E+00 0.  1.
    9000010    2    1    2  501    0  0.97814139677E+02 -0.82468515120E+02 -0.17173131946E+04  0.19924337359E+04  0.10021271983E+04 0.  0.
        -13    1    3    3    0    0 -0.24519775938E+03 -0.37267908281E+03 -0.13175585565E+04  0.13910327821E+04  0.10566000000E+00 0.  1.
          4    1    3    3  501    0  0.34301189906E+03  0.29021056769E+03 -0.39975463815E+03  0.60140095379E+03  0.00000000000E+00 0.  1.
         13    1    1    2    0    0 -0.97814139677E+02  0.82468515120E+02  0.10781660863E+02  0.12839360296E+03  0.10566000000E+00 0. -1.
<mgrwt>
<rscale>  1 0.60266632E+03</rscale>
<asrwt>0</asrwt>
<pdfrwt beam="2">  1       21 0.29441223E+00 0.10102611E+04</pdfrwt>
<pdfrwt beam="1">  1        4 0.31868907E-01 0.10102611E+04</pdfrwt>
<totfact> 0.11022553E+01</totfact>
</mgrwt>
</event>
<event>
 6    1  0.1412458E-005  0.9991083E+03  0.7818608E-02  0.9884610E-01
          4   -1    0    0  502    0 -0.00000000000E+00  0.00000000000E+00  0.19506007046E+03  0.19506007046E+03  0.00000000000E+00 0.  1.
         21   -1    0    0  501  502  0.00000000000E+00 -0.00000000000E+00 -0.18470831110E+04  0.18470831110E+04  0.00000000000E+00 0.  1.
    9000010    2    1    2  501    0 -0.37376125735E+02 -0.13382609751E+03 -0.16137845977E+04  0.18980300703E+04  0.98939932313E+03 0.  0.
        -13    1    3    3    0    0  0.22260161388E+03  0.16067898860E+03 -0.41793565262E+02  0.27769754976E+03  0.10566000000E+00 0.  1.
          4    1    3    3  501    0 -0.25997773962E+03 -0.29450508611E+03 -0.15719910325E+04  0.16203325205E+04  0.00000000000E+00 0.  1.
         13    1    1    2    0    0  0.37376125735E+02  0.13382609751E+03 -0.38238442836E+02  0.14411311122E+03  0.10566000000E+00 0. -1.
<mgrwt>
<rscale>  1 0.61012964E+03</rscale>
<asrwt>0</asrwt>
<pdfrwt beam="2">  1       21 0.28416664E+00 0.99910831E+03</pdfrwt>
<pdfrwt beam="1">  1        4 0.30009241E-01 0.99910831E+03</pdfrwt>
<totfact> 0.14393888E+01</totfact>
</mgrwt>
</event>
<event>
 6    1  0.1412458E-005  0.1084699E+04  0.7818608E-02  0.9471095E-01
         21   -1    0    0  501  502  0.00000000000E+00  0.00000000000E+00  0.97357623289E+03  0.97357623289E+03  0.00000000000E+00 0.  1.
          4   -1    0    0  502    0 -0.00000000000E+00 -0.00000000000E+00 -0.74487546655E+03  0.74487546655E+03  0.00000000000E+00 0.  1.
    9000010    2    1    2  501    0  0.43175207950E+03 -0.71497887136E+02  0.50958386944E+03  0.11984352239E+04  0.99249657932E+03 0.  0.
        -13    1    3    3    0    0 -0.31713708886E+02 -0.45458953154E+03  0.35481320790E+03  0.57753772620E+03  0.10566000000E+00 0.  1.
          4    1    3    3  501    0  0.46346578839E+03  0.38309164441E+03  0.15477066154E+03  0.62089749774E+03  0.00000000000E+00 0.  1.
         13    1    1    2    0    0 -0.43175207950E+03  0.71497887136E+02 -0.28088310310E+03  0.52001647550E+03  0.10566000000E+00 0. -1.
<mgrwt>
<rscale>  1 0.86448830E+03</rscale>
<asrwt>0</asrwt>
<pdfrwt beam="1">  1       21 0.14978096E+00 0.10846987E+04</pdfrwt>
<pdfrwt beam="2">  1        4 0.11459623E+00 0.10846987E+04</pdfrwt>
<totfact> 0.62599067E+00</totfact>
</mgrwt>
</event>
<event>
 6    1  0.1412458E-005  0.1049607E+04  0.7818608E-02  0.9589972E-01
          4   -1    0    0  502    0 -0.00000000000E+00  0.00000000000E+00  0.10335302489E+04  0.10335302489E+04  0.00000000000E+00 0.  1.
         21   -1    0    0  501  502  0.00000000000E+00 -0.00000000000E+00 -0.52621543103E+03  0.52621543103E+03  0.00000000000E+00 0.  1.
    9000010    2    1    2  501    0  0.29360607584E+03  0.12602425771E+03  0.11816999939E+03  0.10562376440E+04  0.99979356399E+03 0.  0.
        -13    1    3    3    0    0 -0.18667118286E+03 -0.19225207036E+03  0.34516166972E+03  0.43697091261E+03  0.10566000000E+00 0.  1.
          4    1    3    3  501    0  0.48027725870E+03  0.31827632807E+03 -0.22699167033E+03  0.61926673141E+03  0.00000000000E+00 0.  1.
         13    1    1    2    0    0 -0.29360607584E+03 -0.12602425771E+03  0.38914481851E+03  0.50350803592E+03  0.10566000000E+00 0. -1.
<mgrwt>
<rscale>  1 0.77963442E+03</rscale>
<asrwt>0</asrwt>
<pdfrwt beam="2">  1       21 0.80956220E-01 0.10496065E+04</pdfrwt>
<pdfrwt beam="1">  1        4 0.15900465E+00 0.10496065E+04</pdfrwt>
<totfact> 0.12864670E+01</totfact>
</mgrwt>
</event>
<event>
 6    1  0.1412458E-005  0.9907472E+03  0.7818608E-02  0.9869387E-01
         21   -1    0    0  501  502  0.00000000000E+00  0.00000000000E+00  0.81962519255E+03  0.81962519255E+03  0.00000000000E+00 0.  1.
          4   -1    0    0  502    0 -0.00000000000E+00 -0.00000000000E+00 -0.68820282440E+03  0.68820282440E+03  0.00000000000E+00 0.  1.
    9000010    2    1    2  501    0  0.14365126265E+03 -0.42059777576E+02  0.50018192598E+03  0.11098476998E+04  0.97937492699E+03 0.  0.
        -13    1    3    3    0    0 -0.18736771113E+03 -0.39252703678E+03  0.44888656462E+03  0.62504663253E+03  0.10566000000E+00 0.  1.
          4    1    3    3  501    0  0.33101897378E+03  0.35046725920E+03  0.51295361366E+02  0.48480106732E+03  0.00000000000E+00 0.  1.
         13    1    1    2    0    0 -0.14365126265E+03  0.42059777576E+02 -0.36875955783E+03  0.39798031711E+03  0.10566000000E+00 0. -1.
<mgrwt>
<rscale>  1 0.61768147E+03</rscale>
<asrwt>0</asrwt>
<pdfrwt beam="1">  1       21 0.12609618E+00 0.99074717E+03</pdfrwt>
<pdfrwt beam="2">  1        4 0.10587736E+00 0.99074717E+03</pdfrwt>
<totfact> 0.12259785E+01</totfact>
</mgrwt>
</event>
<event>
 6    1  0.1412458E-005  0.1055322E+04  0.7818608E-02  0.9542869E-01
         21   -1    0    0  501  502  0.00000000000E+00  0.00000000000E+00  0.15482168761E+04  0.15482168761E+04  0.00000000000E+00 0.  1.
          4   -1    0    0  502    0 -0.00000000000E+00 -0.00000000000E+00 -0.34489741402E+03  0.34489741402E+03  0.00000000000E+00 0.  1.
    9000010    2    1    2  501    0  0.21365752067E+03 -0.30184297004E+03  0.10621209230E+04  0.14972661459E+04  0.98840596005E+03 0.  0.
        -13    1    3    3    0    0 -0.35253179592E+03 -0.14085106463E+03  0.72641682637E+03  0.81963351953E+03  0.10566000000E+00 0.  1.
          4    1    3    3  501    0  0.56618931659E+03 -0.16099190541E+03  0.33570409667E+03  0.67763262639E+03  0.00000000000E+00 0.  1.
         13    1    1    2    0    0 -0.21365752067E+03  0.30184297004E+03  0.14119853910E+03  0.39584814425E+03  0.10566000000E+00 0. -1.
<mgrwt>
<rscale>  1 0.81195732E+03</rscale>
<asrwt>0</asrwt>
<pdfrwt beam="1">  1       21 0.23818721E+00 0.10553223E+04</pdfrwt>
<pdfrwt beam="2">  1        4 0.53061142E-01 0.10553223E+04</pdfrwt>
<totfact> 0.87023586E+00</totfact>
</mgrwt>
</event>
<event>
 6    1  0.1412458E-005  0.1145774E+04  0.7818608E-02  0.9367421E-01
          4   -1    0    0  502    0 -0.00000000000E+00  0.00000000000E+00  0.12979785895E+04  0.12979785895E+04  0.00000000000E+00 0.  1.
         21   -1    0    0  501  502  0.00000000000E+00 -0.00000000000E+00 -0.58860404650E+03  0.58860404650E+03  0.00000000000E+00 0. -1.
    9000010    2    1    2  501    0 -0.53230216735E+03  0.71551093114E+02  0.71295309055E+03  0.13494811805E+04  0.10120929755E+04 0.  0.
        -13    1    3    3    0    0  0.18505958082E+03 -0.12584968714E+03 -0.10202649845E+03  0.24595652005E+03  0.10566000000E+00 0.  1.
          4    1    3    3  501    0 -0.71736174817E+03  0.19740078026E+03  0.81497958899E+03  0.11035246605E+04  0.00000000000E+00 0.  1.
         13    1    1    2    0    0  0.53230216735E+03 -0.71551093114E+02 -0.35785475735E+01  0.53710145546E+03  0.10566000000E+00 0. -1.
<mgrwt>
<rscale>  1 0.94806008E+03</rscale>
<asrwt>0</asrwt>
<pdfrwt beam="2">  1       21 0.90554469E-01 0.11457737E+04</pdfrwt>
<pdfrwt beam="1">  1        4 0.19968901E+00 0.11457737E+04</pdfrwt>
<totfact> 0.50408282E+00</totfact>
</mgrwt>
</event>
<event>
 6    1  0.1412458E-005  0.1185903E+04  0.7818608E-02  0.9250795E-01
          4   -1    0    0  502    0 -0.00000000000E+00  0.00000000000E+00  0.13842279526E+04  0.13842279526E+04  0.00000000000E+00 0.  1.
         21   -1    0    0  501  502  0.00000000000E+00 -0.00000000000E+00 -0.86031265739E+03  0.86031265739E+03  0.00000000000E+00 0.  1.
    9000010    2    1    2  501    0  0.66664113871E+03 -0.32385823901E+03  0.82492797679E+03  0.14446011046E+04  0.92578162524E+03 0.  0.
        -13    1    3    3    0    0  0.88992101734E+03 -0.35939794749E+03  0.67329447331E+03  0.11723701466E+04  0.10566000000E+00 0.  1.
          4    1    3    3  501    0 -0.22327987863E+03  0.35539708480E+02  0.15163350348E+03  0.27223095793E+03  0.00000000000E+00 0.  1.
         13    1    1    2    0    0 -0.66664113871E+03  0.32385823901E+03 -0.30101268154E+03  0.79993950547E+03  0.10566000000E+00 0. -1.
<mgrwt>
<rscale>  1 0.10544175E+04</rscale>
<asrwt>0</asrwt>
<pdfrwt beam="2">  1       21 0.13235579E+00 0.11859031E+04</pdfrwt>
<pdfrwt beam="1">  1        4 0.21295815E+00 0.11859031E+04</pdfrwt>
<totfact> 0.15616481E+00</totfact>
</mgrwt>
</event>
<event>
 6    1  0.1412458E-005  0.1030049E+04  0.7818608E-02  0.9788285E-01
          4   -1    0    0  502    0 -0.00000000000E+00  0.00000000000E+00  0.98672323520E+03  0.98672323520E+03  0.00000000000E+00 0.  1.
         21   -1    0    0  501  502  0.00000000000E+00 -0.00000000000E+00 -0.44467396178E+03  0.44467396178E+03  0.00000000000E+00 0.  1.
    9000010    2    1    2  501    0 -0.14867936130E+03  0.89556964048E+02  0.20208091190E+03  0.10496846084E+04  0.10153201859E+04 0.  0.
        -13    1    3    3    0    0 -0.13578924249E+03  0.56340355527E+02 -0.41051916431E+03  0.43604925119E+03  0.10566000000E+00 0.  1.
          4    1    3    3  501    0 -0.12890118812E+02  0.33216608522E+02  0.61260007621E+03  0.61363535721E+03  0.00000000000E+00 0.  1.
         13    1    1    2    0    0  0.14867936130E+03 -0.89556964048E+02  0.33996836152E+03  0.38171258858E+03  0.10566000000E+00 0. -1.
<mgrwt>
<rscale>  1 0.65995017E+03</rscale>
<asrwt>0</asrwt>
<pdfrwt beam="2">  1       21 0.68411379E-01 0.10300491E+04</pdfrwt>
<pdfrwt beam="1">  1        4 0.15180357E+00 0.10300491E+04</pdfrwt>
<totfact> 0.21615287E+01</totfact>
</mgrwt>
</event>
<event>
 6    1  0.1412458E-005  0.1044668E+04  0.7818608E-02  0.9645612E-01
          4   -1    0    0  502    0 -0.00000000000E+00  0.00000000000E+00  0.38511248322E+03  0.38511248322E+03  0.00000000000E+00 0.  1.
         21   -1    0    0  501  502  0.00000000000E+00 -0.00000000000E+00 -0.12916593388E+04  0.12916593388E+04  0.00000000000E+00 0.  1.
    9000010    2    1    2  501    0 -0.24126751212E+03  0.11673695028E+03 -0.94168828705E+03  0.14064526416E+04  0.10097002897E+04 0.  0.
        -13    1    3    3    0    0 -0.56622387510E+03  0.25309107757E+01 -0.89469902959E+03  0.10588211591E+04  0.10566000000E+00 0.  1.
          4    1    3    3  501    0  0.32495636298E+03  0.11420603951E+03 -0.46989257461E+02  0.34763148249E+03  0.00000000000E+00 0.  1.
         13    1    1    2    0    0  0.24126751212E+03 -0.11673695028E+03  0.35141431429E+02  0.27031918048E+03  0.10566000000E+00 0. -1.
<mgrwt>
<rscale>  1 0.74349456E+03</rscale>
<asrwt>0</asrwt>
<pdfrwt beam="2">  1       21 0.19871682E+00 0.10446685E+04</pdfrwt>
<pdfrwt beam="1">  1        4 0.59248074E-01 0.10446685E+04</pdfrwt>
<totfact> 0.12578133E+01</totfact>
</mgrwt>
</event>
<event>
 6    1  0.1412458E-005  0.1020761E+04  0.7818608E-02  0.9758147E-01
         21   -1    0    0  501  502  0.00000000000E+00  0.00000000000E+00  0.94352701458E+03  0.94352701458E+03  0.00000000000E+00 0.  1.
          4   -1    0    0  502    0 -0.00000000000E+00 -0.00000000000E+00 -0.39336451571E+03  0.39336451571E+03  0.00000000000E+00 0.  1.
    9000010    2    1    2  501    0 -0.16054616010E+03  0.11419281967E+03  0.47723192180E+03  0.11268107129E+04  0.10015672748E+04 0.  0.
        -13    1    3    3    0    0 -0.52841027093E+03  0.30034150925E+03  0.26413158500E+03  0.66271256361E+03  0.10566000000E+00 0.  1.
          4    1    3    3  501    0  0.36786411083E+03 -0.18614868958E+03  0.21310033680E+03  0.46409814933E+03  0.00000000000E+00 0.  1.
         13    1    1    2    0    0  0.16054616010E+03 -0.11419281967E+03  0.72930577069E+02  0.21008081736E+03  0.10566000000E+00 0. -1.
<mgrwt>
<rscale>  1 0.67657815E+03</rscale>
<asrwt>0</asrwt>
<pdfrwt beam="1">  1       21 0.14515800E+00 0.10207605E+04</pdfrwt>
<pdfrwt beam="2">  1        4 0.60517618E-01 0.10207605E+04</pdfrwt>
<totfact> 0.30330525E+01</totfact>
</mgrwt>
</event>
<event>
 6    1  0.1412458E-005  0.1007994E+04  0.7818608E-02  0.9893985E-01
         21   -1    0    0  501  502  0.00000000000E+00  0.00000000000E+00  0.43051706761E+03  0.43051706761E+03  0.00000000000E+00 0.  1.
          4   -1    0    0  502    0 -0.00000000000E+00 -0.00000000000E+00 -0.75602902784E+03  0.75602902784E+03  0.00000000000E+00 0.  1.
    9000010    2    1    2  501    0 -0.12159831513E+03  0.49471235598E+02 -0.30865298230E+03  0.10541913082E+04  0.99940937433E+03 0.  0.
        -13    1    3    3    0    0 -0.24554026423E+03 -0.11203701758E+03  0.30522449195E+03  0.40743627271E+03  0.10566000000E+00 0.  1.
          4    1    3    3  501    0  0.12394194909E+03  0.16150825318E+03 -0.61387747425E+03  0.64675503553E+03  0.00000000000E+00 0.  1.
         13    1    1    2    0    0  0.12159831513E+03 -0.49471235598E+02 -0.16858977932E+02  0.13235478720E+03  0.10566000000E+00 0. -1.
<mgrwt>
<rscale>  1 0.60553678E+03</rscale>
<asrwt>0</asrwt>
<pdfrwt beam="1">  1       21 0.66233396E-01 0.10079944E+04</pdfrwt>
<pdfrwt beam="2">  1        4 0.11631216E+00 0.10079944E+04</pdfrwt>
<totfact> 0.46477182E+01</totfact>
</mgrwt>
</event>
<event>
 6    1  0.1412458E-005  0.9887621E+03  0.7818608E-02  0.9964033E-01
         21   -1    0    0  501  502  0.00000000000E+00  0.00000000000E+00  0.58427771060E+03  0.58427771060E+03  0.00000000000E+00 0.  1.
          4   -1    0    0  502    0 -0.00000000000E+00 -0.00000000000E+00 -0.53300051864E+03  0.53300051864E+03  0.00000000000E+00 0.  1.
    9000010    2    1    2  501    0 -0.44424603324E+02 -0.10191234669E+03  0.10403666862E+03  0.99422033502E+03  0.98249212432E+03 0.  0.
        -13    1    3    3    0    0  0.14090547956E+03  0.39574274487E+03  0.18139641895E+03  0.45757113792E+03  0.10566000000E+00 0.  1.
          4    1    3    3  501    0 -0.18533008289E+03 -0.49765509156E+03 -0.77359750330E+02  0.53664919710E+03  0.00000000000E+00 0.  1.
         13    1    1    2    0    0  0.44424603324E+02  0.10191234669E+03 -0.52759476658E+02  0.12305789422E+03  0.10566000000E+00 0. -1.
<mgrwt>
<rscale>  1 0.57255837E+03</rscale>
<asrwt>0</asrwt>
<pdfrwt beam="1">  1       21 0.89888878E-01 0.98876208E+03</pdfrwt>
<pdfrwt beam="2">  1        4 0.82000080E-01 0.98876208E+03</pdfrwt>
<totfact> 0.52717412E+01</totfact>
</mgrwt>
</event>
<event>
 6    1  0.1412458E-005  0.1135751E+04  0.7818608E-02  0.9372217E-01
          4   -1    0    0  502    0 -0.00000000000E+00  0.00000000000E+00  0.85555312916E+03  0.85555312916E+03  0.00000000000E+00 0.  1.
         21   -1    0    0  501  502  0.00000000000E+00 -0.00000000000E+00 -0.13059606527E+04  0.13059606527E+04  0.00000000000E+00 0.  1.
    9000010    2    1    2  501    0  0.18993211651E+03  0.50762953812E+03 -0.90649079564E+03  0.14531537611E+04  0.99808232822E+03 0.  0.
        -13    1    3    3    0    0 -0.19544911092E+03  0.67195241779E+03 -0.68499415403E+03  0.97925349576E+03  0.10566000000E+00 0.  1.
          4    1    3    3  501    0  0.38538122742E+03 -0.16432287967E+03 -0.22149664161E+03  0.47390026532E+03  0.00000000000E+00 0.  1.
         13    1    1    2    0    0 -0.18993211651E+03 -0.50762953812E+03  0.45608327207E+03  0.70836002081E+03  0.10566000000E+00 0. -1.
<mgrwt>
<rscale>  1 0.94397781E+03</rscale>
<asrwt>0</asrwt>
<pdfrwt beam="2">  1       21 0.20091702E+00 0.11357510E+04</pdfrwt>
<pdfrwt beam="1">  1        4 0.13162356E+00 0.11357510E+04</pdfrwt>
<totfact> 0.18266054E+00</totfact>
</mgrwt>
</event>
<event>
 6    1  0.1412458E-005  0.1036086E+04  0.7818608E-02  0.9567172E-01
          4   -1    0    0  502    0 -0.00000000000E+00  0.00000000000E+00  0.50120165740E+03  0.50120165740E+03  0.00000000000E+00 0.  1.
         21   -1    0    0  501  502  0.00000000000E+00 -0.00000000000E+00 -0.11944446816E+04  0.11944446816E+04  0.00000000000E+00 0.  1.
    9000010    2    1    2  501    0  0.17516901328E+03 -0.31369787163E+03 -0.81293513716E+03  0.13169422976E+04  0.97179367158E+03 0.  0.
        -13    1    3    3    0    0  0.43690214727E+02 -0.55980944639E+03 -0.12596539817E+03  0.57546741335E+03  0.10566000000E+00 0.  1.
          4    1    3    3  501    0  0.13147879855E+03  0.24611157475E+03 -0.68696973899E+03  0.74147488426E+03  0.00000000000E+00 0.  1.
         13    1    1    2    0    0 -0.17516901328E+03  0.31369787163E+03  0.11969211298E+03  0.37870404138E+03  0.10566000000E+00 0. -1.
<mgrwt>
<rscale>  1 0.79507583E+03</rscale>
<asrwt>0</asrwt>
<pdfrwt beam="2">  1       21 0.18376072E+00 0.10360857E+04</pdfrwt>
<pdfrwt beam="1">  1        4 0.77107947E-01 0.10360857E+04</pdfrwt>
<totfact> 0.89237717E+00</totfact>
</mgrwt>
</event>
<event>
 6    1  0.1412458E-005  0.1022975E+04  0.7818608E-02  0.1001407E+00
          4   -1    0    0  502    0 -0.00000000000E+00  0.00000000000E+00  0.33628117692E+03  0.33628117692E+03  0.00000000000E+00 0.  1.
         21   -1    0    0  501  502  0.00000000000E+00 -0.00000000000E+00 -0.12365658719E+04  0.12365658719E+04  0.00000000000E+00 0.  1.
    9000010    2    1    2  501    0  0.75031514466E+02  0.41435424219E+02 -0.10073497962E+04  0.14356990645E+04  0.10193780307E+04 0.  0.
        -13    1    3    3    0    0 -0.30830682394E+03 -0.41147807326E+02 -0.99596127802E+03  0.10434007467E+04  0.10566000000E+00 0.  1.
          4    1    3    3  501    0  0.38333833841E+03  0.82583231545E+02 -0.11388518190E+02  0.39229831783E+03  0.00000000000E+00 0.  1.
         13    1    1    2    0    0 -0.75031514466E+02 -0.41435424219E+02  0.10706510120E+03  0.13714798432E+03  0.10566000000E+00 0. -1.
<mgrwt>
<rscale>  1 0.55037648E+03</rscale>
<asrwt>0</asrwt>
<pdfrwt beam="2">  1       21 0.19024090E+00 0.10229752E+04</pdfrwt>
<pdfrwt beam="1">  1        4 0.51735565E-01 0.10229752E+04</pdfrwt>
<totfact> 0.19341236E+01</totfact>
</mgrwt>
</event>
<event>
 6    1  0.1412458E-005  0.1155483E+04  0.7818608E-02  0.9319132E-01
          4   -1    0    0  502    0 -0.00000000000E+00  0.00000000000E+00  0.84375815131E+03  0.84375815131E+03  0.00000000000E+00 0.  1.
         21   -1    0    0  501  502  0.00000000000E+00 -0.00000000000E+00 -0.11551184563E+04  0.11551184563E+04  0.00000000000E+00 0.  1.
    9000010    2    1    2  501    0  0.65639613177E+02  0.62021374984E+03 -0.61085823161E+03  0.13070148631E+04  0.97271086091E+03 0.  0.
        -13    1    3    3    0    0 -0.28218412353E+03 -0.10185096385E+03 -0.35696402530E+03  0.46628834956E+03  0.10566000000E+00 0.  1.
          4    1    3    3  501    0  0.34782373671E+03  0.72206471369E+03 -0.25389420631E+03  0.84072651354E+03  0.00000000000E+00 0.  1.
         13    1    1    2    0    0 -0.65639613177E+02 -0.62021374984E+03  0.29949792662E+03  0.69186174451E+03  0.10566000000E+00 0. -1.
<mgrwt>
<rscale>  1 0.99040446E+03</rscale>
<asrwt>0</asrwt>
<pdfrwt beam="2">  1       21 0.17771053E+00 0.11554826E+04</pdfrwt>
<pdfrwt beam="1">  1        4 0.12980895E+00 0.11554826E+04</pdfrwt>
<totfact> 0.27597045E+00</totfact>
</mgrwt>
</event>
<event>
 6    1  0.1412458E-005  0.1032231E+04  0.7818608E-02  0.9600607E-01
          4   -1    0    0  502    0 -0.00000000000E+00  0.00000000000E+00  0.46417709794E+03  0.46417709794E+03  0.00000000000E+00 0.  1.
         21   -1    0    0  501  502  0.00000000000E+00 -0.00000000000E+00 -0.10850999024E+04  0.10850999024E+04  0.00000000000E+00 0.  1.
    9000010    2    1    2  501    0  0.20969225295E+03  0.24684903692E+03 -0.65669391647E+03  0.12234167979E+04  0.98010023640E+03 0.  0.
        -13    1    3    3    0    0  0.87227428101E+02 -0.99250161157E+02 -0.81353148955E+03  0.82419215864E+03  0.10566000000E+00 0.  1.
          4    1    3    3  501    0  0.12246482485E+03  0.34609919808E+03  0.15683757308E+03  0.39922463923E+03  0.00000000000E+00 0.  1.
         13    1    1    2    0    0 -0.20969225295E+03 -0.24684903692E+03  0.35771111961E+02  0.32586020253E+03  0.10566000000E+00 0. -1.
<mgrwt>
<rscale>  1 0.77256049E+03</rscale>
<asrwt>0</asrwt>
<pdfrwt beam="2">  1       21 0.16693845E+00 0.10322314E+04</pdfrwt>
<pdfrwt beam="1">  1        4 0.71411862E-01 0.10322314E+04</pdfrwt>
<totfact> 0.14132683E+01</totfact>
</mgrwt>
</event>
<event>
 6    1  0.1412458E-005  0.1080561E+04  0.7818608E-02  0.9532903E-01
         21   -1    0    0  501  502  0.00000000000E+00  0.00000000000E+00  0.27806034832E+03  0.27806034832E+03  0.00000000000E+00 0.  1.
          4   -1    0    0  502    0 -0.00000000000E+00 -0.00000000000E+00 -0.20570900478E+04  0.20570900478E+04  0.00000000000E+00 0.  1.
    9000010    2    1    2  501    0  0.11912102480E+03 -0.33613842885E+03 -0.97432613522E+03  0.14549647910E+04  0.10200158153E+04 0.  0.
        -13    1    3    3    0    0  0.30825222484E+03  0.22794384535E+03 -0.97897416704E+02  0.39567884213E+03  0.10566000000E+00 0.  1.
          4    1    3    3  501    0 -0.18913120004E+03 -0.56408227420E+03 -0.87642871852E+03  0.10592859489E+04  0.00000000000E+00 0.  1.
         13    1    1    2    0    0 -0.11912102480E+03  0.33613842885E+03 -0.80470356425E+03  0.88018560507E+03  0.10566000000E+00 0. -1.
<mgrwt>
<rscale>  1 0.81900906E+03</rscale>
<asrwt>0</asrwt>
<pdfrwt beam="1">  1       21 0.42778514E-01 0.10805606E+04</pdfrwt>
<pdfrwt beam="2">  1        4 0.31647540E+00 0.10805606E+04</pdfrwt>
<totfact> 0.50988008E+00</totfact>
</mgrwt>
</event>
<event>
 6    1  0.1412458E-005  0.1031745E+04  0.7818608E-02  0.9918713E-01
          4   -1    0    0  502    0 -0.00000000000E+00  0.00000000000E+00  0.33935878385E+03  0.33935878385E+03  0.00000000000E+00 0.  1.
         21   -1    0    0  501  502  0.00000000000E+00 -0.00000000000E+00 -0.11371413153E+04  0.11371413153E+04  0.00000000000E+00 0.  1.
    9000010    2    1    2  501    0 -0.91470951871E+02  0.66465121056E+02 -0.86377067570E+03  0.13455841196E+04  0.10255302508E+04 0.  0.
        -13    1    3    3    0    0 -0.18456289561E+03  0.52651230454E+03 -0.40660660468E+03  0.69036773636E+03  0.10566000000E+00 0.  1.
          4    1    3    3  501    0  0.93091943737E+02 -0.46004718349E+03 -0.45716407102E+03  0.65521638323E+03  0.00000000000E+00 0.  1.
         13    1    1    2    0    0  0.91470951871E+02 -0.66465121056E+02  0.65988144264E+02  0.13091597955E+03  0.10566000000E+00 0. -1.
<mgrwt>
<rscale>  1 0.59362866E+03</rscale>
<asrwt>0</asrwt>
<pdfrwt beam="2">  1       21 0.17494481E+00 0.10317446E+04</pdfrwt>
<pdfrwt beam="1">  1        4 0.52209045E-01 0.10317446E+04</pdfrwt>
<totfact> 0.24427796E+01</totfact>
</mgrwt>
</event>
<event>
 6    1  0.1412458E-005  0.1037296E+04  0.7818608E-02  0.9641423E-01
         21   -1    0    0  501  502  0.00000000000E+00  0.00000000000E+00  0.48652446748E+03  0.48652446748E+03  0.00000000000E+00 0.  1.
          4   -1    0    0  502    0 -0.00000000000E+00 -0.00000000000E+00 -0.97741309314E+03  0.97741309314E+03  0.00000000000E+00 0.  1.
    9000010    2    1    2  501    0  0.25713161093E+03 -0.10488722394E+03 -0.19012443863E+03  0.10545757372E+04  0.99943218295E+03 0.  0.
        -13    1    3    3    0    0  0.37125196892E+03 -0.36001253854E+03 -0.44051585159E+03  0.67933149419E+03  0.10566000000E+00 0.  1.
          4    1    3    3  501    0 -0.11412035799E+03  0.25512531461E+03  0.25039141296E+03  0.37524424305E+03  0.00000000000E+00 0.  1.
         13    1    1    2    0    0 -0.25713161093E+03  0.10488722394E+03 -0.30076418703E+03  0.40936182339E+03  0.10566000000E+00 0. -1.
<mgrwt>
<rscale>  1 0.74614194E+03</rscale>
<asrwt>0</asrwt>
<pdfrwt beam="1">  1       21 0.74849919E-01 0.10372959E+04</pdfrwt>
<pdfrwt beam="2">  1        4 0.15037124E+00 0.10372959E+04</pdfrwt>
<totfact> 0.18013109E+01</totfact>
</mgrwt>
</event>
<event>
 6    1  0.1412458E-005  0.1002727E+04  0.7818608E-02  0.1029911E+00
         21   -1    0    0  501  502  0.00000000000E+00  0.00000000000E+00  0.11020063112E+04  0.11020063112E+04  0.00000000000E+00 0.  1.
          4   -1    0    0  502    0 -0.00000000000E+00 -0.00000000000E+00 -0.33809673645E+03  0.33809673645E+03  0.00000000000E+00 0.  1.
    9000010    2    1    2  501    0 -0.52112910901E+01  0.37750857123E+02  0.86989737569E+03  0.13274721909E+04  0.10020023397E+04 0.  0.
        -13    1    3    3    0    0  0.11245647744E+03 -0.13465360725E+02 -0.21073708019E+03  0.23924444275E+03  0.10566000000E+00 0.  1.
          4    1    3    3  501    0 -0.11766776853E+03  0.51216217848E+02  0.10806344559E+04  0.10882277482E+04  0.00000000000E+00 0.  1.
         13    1    1    2    0    0  0.52112910901E+01 -0.37750857123E+02 -0.10598780094E+03  0.11263085670E+03  0.10566000000E+00 0. -1.
<mgrwt>
<rscale>  1 0.44273499E+03</rscale>
<asrwt>0</asrwt>
<pdfrwt beam="1">  1       21 0.16953943E+00 0.10027268E+04</pdfrwt>
<pdfrwt beam="2">  1        4 0.52014883E-01 0.10027268E+04</pdfrwt>
<totfact> 0.27094131E+01</totfact>
</mgrwt>
</event>
<event>
 6    1  0.1412458E-005  0.1007571E+04  0.7818608E-02  0.9886238E-01
          4   -1    0    0  502    0 -0.00000000000E+00  0.00000000000E+00  0.12266624124E+04  0.12266624124E+04  0.00000000000E+00 0.  1.
         21   -1    0    0  501  502  0.00000000000E+00 -0.00000000000E+00 -0.28981092594E+03  0.28981092594E+03  0.00000000000E+00 0.  1.
    9000010    2    1    2  501    0 -0.12946417072E+03 -0.37428488616E+02  0.64862437911E+03  0.11982961238E+04  0.99851797776E+03 0.  0.
        -13    1    3    3    0    0 -0.30552687066E+03 -0.11323708530E+03 -0.16300668476E+03  0.36433569222E+03  0.10566000000E+00 0.  1.
          4    1    3    3  501    0  0.17606269995E+03  0.75808596682E+02  0.81163106386E+03  0.83396043160E+03  0.00000000000E+00 0.  1.
         13    1    1    2    0    0  0.12946417072E+03  0.37428488616E+02  0.28822710731E+03  0.31817721448E+03  0.10566000000E+00 0. -1.
<mgrwt>
<rscale>  1 0.60932913E+03</rscale>
<asrwt>0</asrwt>
<pdfrwt beam="2">  1       21 0.44586297E-01 0.10075713E+04</pdfrwt>
<pdfrwt beam="1">  1        4 0.18871729E+00 0.10075713E+04</pdfrwt>
<totfact> 0.30076731E+01</totfact>
</mgrwt>
</event>
<event>
 6    1  0.1412458E-005  0.9980611E+03  0.7818608E-02  0.1017154E+00
          4   -1    0    0  502    0 -0.00000000000E+00  0.00000000000E+00  0.26141729341E+03  0.26141729341E+03  0.00000000000E+00 0.  1.
         21   -1    0    0  501  502  0.00000000000E+00 -0.00000000000E+00 -0.10893724827E+04  0.10893724827E+04  0.00000000000E+00 0.  1.
    9000010    2    1    2  501    0  0.16215789618E+02  0.54338135011E+02 -0.82344586734E+03  0.12939045416E+04  0.99644883543E+03 0.  0.
        -13    1    3    3    0    0 -0.38539374747E+03  0.10536019245E+03 -0.79295210471E+03  0.88792013283E+03  0.10566000000E+00 0.  1.
          4    1    3    3  501    0  0.40160953709E+03 -0.51022057443E+02 -0.30493762624E+02  0.40598440879E+03  0.00000000000E+00 0.  1.
         13    1    1    2    0    0 -0.16215789618E+02 -0.54338135011E+02 -0.45093219027E+01  0.56885234442E+02  0.10566000000E+00 0. -1.
<mgrwt>
<rscale>  1 0.48727655E+03</rscale>
<asrwt>0</asrwt>
<pdfrwt beam="2">  1       21 0.16759577E+00 0.99806105E+03</pdfrwt>
<pdfrwt beam="1">  1        4 0.40218045E-01 0.99806105E+03</pdfrwt>
<totfact> 0.47889139E+01</totfact>
</mgrwt>
</event>
<event>
 6    1  0.1412458E-005  0.1005078E+04  0.7818608E-02  0.1004853E+00
         21   -1    0    0  501  502  0.00000000000E+00  0.00000000000E+00  0.75702776351E+03  0.75702776351E+03  0.00000000000E+00 0.  1.
          4   -1    0    0  502    0 -0.00000000000E+00 -0.00000000000E+00 -0.48360350699E+03  0.48360350699E+03  0.00000000000E+00 0.  1.
    9000010    2    1    2  501    0  0.80418409473E+02 -0.10704828787E+02  0.40699278056E+03  0.10843549904E+04  0.10017988360E+04 0.  0.
        -13    1    3    3    0    0 -0.33339581623E+03 -0.13868261006E+03  0.52336480394E+03  0.63584303548E+03  0.10566000000E+00 0.  1.
          4    1    3    3  501    0  0.41381422570E+03  0.12797778127E+03 -0.11637202338E+03  0.44851195493E+03  0.00000000000E+00 0.  1.
         13    1    1    2    0    0 -0.80418409473E+02  0.10704828787E+02 -0.13356852403E+03  0.15627628009E+03  0.10566000000E+00 0. -1.
<mgrwt>
<rscale>  1 0.53572563E+03</rscale>
<asrwt>0</asrwt>
<pdfrwt beam="1">  1       21 0.11646581E+00 0.10050784E+04</pdfrwt>
<pdfrwt beam="2">  1        4 0.74400540E-01 0.10050784E+04</pdfrwt>
<totfact> 0.34492598E+01</totfact>
</mgrwt>
</event>
<event>
 6    1  0.1412458E-005  0.1017599E+04  0.7818608E-02  0.9811731E-01
          4   -1    0    0  502    0 -0.00000000000E+00  0.00000000000E+00  0.60364135418E+03  0.60364135418E+03  0.00000000000E+00 0.  1.
         21   -1    0    0  501  502  0.00000000000E+00 -0.00000000000E+00 -0.60557903225E+03  0.60557903225E+03  0.00000000000E+00 0.  1.
    9000010    2    1    2  501    0 -0.11502901184E+02 -0.16627907409E+03 -0.88438996162E+02  0.10214345073E+04  0.10038555421E+04 0.  0.
        -13    1    3    3    0    0 -0.49605264752E+03  0.23914800399E+02 -0.58015138021E+02  0.50000591416E+03  0.10566000000E+00 0.  1.
          4    1    3    3  501    0  0.48454974633E+03 -0.19019387449E+03 -0.30423858142E+02  0.52142859311E+03  0.00000000000E+00 0.  1.
         13    1    1    2    0    0  0.11502901184E+02  0.16627907409E+03  0.86501318089E+02  0.18778587916E+03  0.10566000000E+00 0. -1.
<mgrwt>
<rscale>  1 0.64736764E+03</rscale>
<asrwt>0</asrwt>
<pdfrwt beam="2">  1       21 0.93166005E-01 0.10175986E+04</pdfrwt>
<pdfrwt beam="1">  1        4 0.92867901E-01 0.10175986E+04</pdfrwt>
<totfact> 0.36044613E+01</totfact>
</mgrwt>
</event>
<event>
 6    1  0.1420783E-005  0.8013592E+03  0.7818608E-02  0.9872451E-01
          4   -1    0    0  502    0 -0.00000000000E+00  0.00000000000E+00  0.26344356666E+03  0.26344356666E+03  0.00000000000E+00 0.  1.
         21   -1    0    0  501  502  0.00000000000E+00 -0.00000000000E+00 -0.11326510106E+04  0.11326510106E+04  0.00000000000E+00 0.  1.
    9000010    2    1    2  501    0  0.27572083354E+03  0.49176090033E+02 -0.55276581028E+03  0.97351253249E+03  0.75082377695E+03 0.  0.
        -13    1    3    3    0    0  0.98146888546E+02  0.31061827683E+03 -0.57051902267E+03  0.65696917129E+03  0.10566000000E+00 0.  1.
          4    1    3    3  501    0  0.17757394499E+03 -0.26144218679E+03  0.17753212392E+02  0.31654336121E+03  0.00000000000E+00 0.  1.
         13    1    1    2    0    0 -0.27572083354E+03 -0.49176090033E+02 -0.31644163366E+03  0.42258204477E+03  0.10566000000E+00 0. -1.
<mgrwt>
<rscale>  1 0.61615202E+03</rscale>
<asrwt>0</asrwt>
<pdfrwt beam="2">  1       21 0.17425400E+00 0.80135923E+03</pdfrwt>
<pdfrwt beam="1">  1        4 0.40529780E-01 0.80135923E+03</pdfrwt>
<totfact> 0.43024996E+01</totfact>
</mgrwt>
</event>
<event>
 6    1  0.1412458E-005  0.9958420E+03  0.7818608E-02  0.9894727E-01
          4   -1    0    0  502    0 -0.00000000000E+00  0.00000000000E+00  0.29185584447E+03  0.29185584447E+03  0.00000000000E+00 0.  1.
         21   -1    0    0  501  502  0.00000000000E+00 -0.00000000000E+00 -0.11197468281E+04  0.11197468281E+04  0.00000000000E+00 0.  1.
    9000010    2    1    2  501    0 -0.13339183284E+03  0.25550286591E+02 -0.65583720239E+03  0.11924025060E+04  0.98653692384E+03 0.  0.
        -13    1    3    3    0    0  0.13358040409E+03 -0.43961365807E+03 -0.30855634371E+03  0.55345363051E+03  0.10566000000E+00 0.  1.
          4    1    3    3  501    0 -0.26697223693E+03  0.46516394466E+03 -0.34728085868E+03  0.63894887550E+03  0.00000000000E+00 0.  1.
         13    1    1    2    0    0  0.13339183284E+03 -0.25550286591E+02 -0.17205378122E+03  0.21920016653E+03  0.10566000000E+00 0. -1.
<mgrwt>
<rscale>  1 0.60517542E+03</rscale>
<asrwt>0</asrwt>
<pdfrwt beam="2">  1       21 0.17226874E+00 0.99584201E+03</pdfrwt>
<pdfrwt beam="1">  1        4 0.44900899E-01 0.99584201E+03</pdfrwt>
<totfact> 0.35235134E+01</totfact>
</mgrwt>
</event>
<event>
 6    1  0.1412458E-005  0.1261425E+04  0.7818608E-02  0.9215924E-01
          4   -1    0    0  502    0 -0.00000000000E+00  0.00000000000E+00  0.74989582089E+03  0.74989582089E+03  0.00000000000E+00 0.  1.
         21   -1    0    0  501  502  0.00000000000E+00 -0.00000000000E+00 -0.13987494176E+04  0.13987494176E+04  0.00000000000E+00 0. -1.
    9000010    2    1    2  501    0 -0.29317589169E+03 -0.63656863452E+03 -0.70587269991E+03  0.14454931076E+04  0.10488194914E+04 0.  0.
        -13    1    3    3    0    0  0.32329869231E+03  0.62489823219E+02 -0.17674155175E+03  0.37371728584E+03  0.10566000000E+00 0.  1.
          4    1    3    3  501    0 -0.61647458401E+03 -0.69905845774E+03 -0.52913114816E+03  0.10717758217E+04  0.00000000000E+00 0.  1.
         13    1    1    2    0    0  0.29317589169E+03  0.63656863452E+03  0.57019103209E+02  0.70315213092E+03  0.10566000000E+00 0. -1.
<mgrwt>
<rscale>  1 0.10890564E+04</rscale>
<asrwt>0</asrwt>
<pdfrwt beam="2">  1       21 0.21519222E+00 0.12614254E+04</pdfrwt>
<pdfrwt beam="1">  1        4 0.11536859E+00 0.12614254E+04</pdfrwt>
<totfact> 0.20070828E+00</totfact>
</mgrwt>
</event>
<event>
 6    1  0.1412458E-005  0.1000626E+04  0.7818608E-02  0.1001700E+00
          4   -1    0    0  502    0 -0.00000000000E+00  0.00000000000E+00  0.60603897729E+03  0.60603897729E+03  0.00000000000E+00 0.  1.
         21   -1    0    0  501  502  0.00000000000E+00 -0.00000000000E+00 -0.11108312596E+04  0.11108312596E+04  0.00000000000E+00 0.  1.
    9000010    2    1    2  501    0  0.41055862485E+02  0.80927867851E+02 -0.87896362299E+03  0.13318519166E+04  0.99650267115E+03 0.  0.
        -13    1    3    3    0    0 -0.47293705558E+03 -0.47869455623E+01 -0.34236217843E+03  0.58387005897E+03  0.10566000000E+00 0.  1.
          4    1    3    3  501    0  0.51399291806E+03  0.85714813414E+02 -0.53660144457E+03  0.74798185764E+03  0.00000000000E+00 0.  1.
         13    1    1    2    0    0 -0.41055862485E+02 -0.80927867851E+02  0.37417134065E+03  0.38501832030E+03  0.10566000000E+00 0. -1.
<mgrwt>
<rscale>  1 0.54911239E+03</rscale>
<asrwt>0</asrwt>
<pdfrwt beam="2">  1       21 0.17089711E+00 0.10006260E+04</pdfrwt>
<pdfrwt beam="1">  1        4 0.93236767E-01 0.10006260E+04</pdfrwt>
<totfact> 0.71601585E+00</totfact>
</mgrwt>
</event>
<event>
 6    1  0.1412458E-005  0.1063180E+04  0.7818608E-02  0.9553402E-01
          4   -1    0    0  502    0 -0.00000000000E+00  0.00000000000E+00  0.12525119984E+04  0.12525119984E+04  0.00000000000E+00 0.  1.
         21   -1    0    0  501  502  0.00000000000E+00 -0.00000000000E+00 -0.45057371700E+03  0.45057371700E+03  0.00000000000E+00 0.  1.
    9000010    2    1    2  501    0  0.22541605317E+03 -0.26606346528E+03  0.32399565090E+03  0.11114512558E+04  0.10043647483E+04 0.  0.
        -13    1    3    3    0    0 -0.17184639830E+02  0.36371321354E+03  0.30395456999E+01  0.36413165689E+03  0.10566000000E+00 0.  1.
          4    1    3    3  501    0  0.24260069300E+03 -0.62977667882E+03  0.32095610520E+03  0.74731959890E+03  0.00000000000E+00 0.  1.
         13    1    1    2    0    0 -0.22541605317E+03  0.26606346528E+03  0.47794263047E+03  0.59163445959E+03  0.10566000000E+00 0. -1.
<mgrwt>
<rscale>  1 0.80458628E+03</rscale>
<asrwt>0</asrwt>
<pdfrwt beam="2">  1       21 0.69319034E-01 0.10631795E+04</pdfrwt>
<pdfrwt beam="1">  1        4 0.19269415E+00 0.10631795E+04</pdfrwt>
<totfact> 0.10631106E+01</totfact>
</mgrwt>
</event>
<event>
 6    1  0.1412458E-005  0.9880452E+03  0.7818608E-02  0.9987167E-01
          4   -1    0    0  502    0 -0.00000000000E+00  0.00000000000E+00  0.10172323231E+03  0.10172323231E+03  0.00000000000E+00 0.  1.
         21   -1    0    0  501  502  0.00000000000E+00 -0.00000000000E+00 -0.29744357660E+04  0.29744357660E+04  0.00000000000E+00 0.  1.
    9000010    2    1    2  501    0  0.76351146212E+02 -0.69941948153E+02 -0.26959400002E+04  0.28712933999E+04  0.98260466623E+03 0.  0.
        -13    1    3    3    0    0 -0.22392948841E+03  0.31093621564E+03 -0.54418937295E+03  0.66555828503E+03  0.10566000000E+00 0.  1.
          4    1    3    3  501    0  0.30028063462E+03 -0.38087816379E+03 -0.21517506272E+04  0.22057351149E+04  0.00000000000E+00 0.  1.
         13    1    1    2    0    0 -0.76351146212E+02  0.69941948153E+02 -0.17677253347E+03  0.20486559836E+03  0.10566000000E+00 0. -1.
<mgrwt>
<rscale>  1 0.56216521E+03</rscale>
<asrwt>0</asrwt>
<pdfrwt beam="2">  1       21 0.45760544E+00 0.98804519E+03</pdfrwt>
<pdfrwt beam="1">  1        4 0.15649730E-01 0.98804519E+03</pdfrwt>
<totfact> 0.37233159E+00</totfact>
</mgrwt>
</event>
<event>
 6    1  0.1412458E-005  0.8576167E+03  0.7818608E-02  0.1025266E+00
          4   -1    0    0  502    0 -0.00000000000E+00  0.00000000000E+00  0.46720259109E+03  0.46720259109E+03  0.00000000000E+00 0.  1.
         21   -1    0    0  501  502  0.00000000000E+00 -0.00000000000E+00 -0.46195574887E+03  0.46195574887E+03  0.00000000000E+00 0.  1.
    9000010    2    1    2  501    0 -0.26687219449E+02  0.64669475813E+02 -0.94628613678E+01  0.85766893286E+03  0.85475850617E+03 0.  0.
        -13    1    3    3    0    0  0.21354974582E+03  0.35186296837E+03  0.16645116754E+03  0.44397865353E+03  0.10566000000E+00 0.  1.
          4    1    3    3  501    0 -0.24023696527E+03 -0.28719349255E+03 -0.17591402891E+03  0.41369027933E+03  0.00000000000E+00 0.  1.
         13    1    1    2    0    0  0.26687219449E+02 -0.64669475813E+02  0.14709703583E+02  0.71489407099E+02  0.10566000000E+00 0. -1.
<mgrwt>
<rscale>  1 0.45833384E+03</rscale>
<asrwt>0</asrwt>
<pdfrwt beam="2">  1       21 0.71070115E-01 0.85761673E+03</pdfrwt>
<pdfrwt beam="1">  1        4 0.71877322E-01 0.85761673E+03</pdfrwt>
<totfact> 0.12483494E+02</totfact>
</mgrwt>
</event>
<event>
 6    1  0.1412458E-005  0.1023833E+04  0.7818608E-02  0.9678637E-01
          4   -1    0    0  502    0 -0.00000000000E+00  0.00000000000E+00  0.58891653924E+03  0.58891653924E+03  0.00000000000E+00 0.  1.
         21   -1    0    0  501  502  0.00000000000E+00 -0.00000000000E+00 -0.69387770981E+03  0.69387770981E+03  0.00000000000E+00 0.  1.
    9000010    2    1    2  501    0  0.14406595814E+03 -0.20997811504E+03 -0.86226882697E+02  0.10274576207E+04  0.99165935576E+03 0.  0.
        -13    1    3    3    0    0  0.32739433587E+03 -0.12746879224E+03 -0.47438932453E+03  0.59032244286E+03  0.10566000000E+00 0.  1.
          4    1    3    3  501    0 -0.18332837773E+03 -0.82509322802E+02  0.38816244183E+03  0.43713517781E+03  0.00000000000E+00 0.  1.
         13    1    1    2    0    0 -0.14406595814E+03  0.20997811504E+03 -0.18734287868E+02  0.25533662838E+03  0.10566000000E+00 0. -1.
<mgrwt>
<rscale>  1 0.72303131E+03</rscale>
<asrwt>0</asrwt>
<pdfrwt beam="2">  1       21 0.10675042E+00 0.10238330E+04</pdfrwt>
<pdfrwt beam="1">  1        4 0.90602545E-01 0.10238330E+04</pdfrwt>
<totfact> 0.27252983E+01</totfact>
</mgrwt>
</event>
<event>
 6    1  0.1412458E-005  0.1005470E+04  0.7818608E-02  0.9944499E-01
         21   -1    0    0  501  502  0.00000000000E+00  0.00000000000E+00  0.17975690837E+03  0.17975690837E+03  0.00000000000E+00 0.  1.
          4   -1    0    0  502    0 -0.00000000000E+00 -0.00000000000E+00 -0.20942338343E+04  0.20942338343E+04  0.00000000000E+00 0.  1.
    9000010    2    1    2  501    0 -0.78607975943E+02 -0.80482851404E+02 -0.12703398992E+04  0.16201029666E+04  0.99915637406E+03 0.  0.
        -13    1    3    3    0    0 -0.36830087099E+03  0.31180976857E+03 -0.41948669224E+03  0.63940594264E+03  0.10566000000E+00 0.  1.
          4    1    3    3  501    0  0.28969289505E+03 -0.39229261997E+03 -0.85085320692E+03  0.98069702398E+03  0.00000000000E+00 0.  1.
         13    1    1    2    0    0  0.78607975943E+02  0.80482851404E+02 -0.64413702678E+03  0.65388777606E+03  0.10566000000E+00 0. -1.
<mgrwt>
<rscale>  1 0.58152314E+03</rscale>
<asrwt>0</asrwt>
<pdfrwt beam="1">  1       21 0.27654909E-01 0.10054701E+04</pdfrwt>
<pdfrwt beam="2">  1        4 0.32218982E+00 0.10054701E+04</pdfrwt>
<totfact> 0.11618761E+01</totfact>
</mgrwt>
</event>
<event>
 6    1  0.1412458E-005  0.1007658E+04  0.7818608E-02  0.9889504E-01
          4   -1    0    0  502    0 -0.00000000000E+00  0.00000000000E+00  0.18725355339E+04  0.18725355339E+04  0.00000000000E+00 0.  1.
         21   -1    0    0  501  502  0.00000000000E+00 -0.00000000000E+00 -0.19041207543E+03  0.19041207543E+03  0.00000000000E+00 0. -1.
    9000010    2    1    2  501    0  0.11447258047E+03  0.68338663518E+02  0.12218713242E+04  0.15837752157E+04  0.99879940738E+03 0.  0.
        -13    1    3    3    0    0 -0.13939689423E+03  0.48849812522E+03  0.72538115830E+03  0.88557311864E+03  0.10566000000E+00 0.  1.
          4    1    3    3  501    0  0.25386947469E+03 -0.42015946170E+03  0.49649016591E+03  0.69820209702E+03  0.00000000000E+00 0.  1.
         13    1    1    2    0    0 -0.11447258047E+03 -0.68338663518E+02  0.46025213427E+03  0.47917239369E+03  0.10566000000E+00 0. -1.
<mgrwt>
<rscale>  1 0.60772689E+03</rscale>
<asrwt>0</asrwt>
<pdfrwt beam="2">  1       21 0.29294167E-01 0.10076579E+04</pdfrwt>
<pdfrwt beam="1">  1        4 0.28808238E+00 0.10076579E+04</pdfrwt>
<totfact> 0.16861797E+01</totfact>
</mgrwt>
</event>
<event>
 6    1  0.1412458E-005  0.9830026E+03  0.7818608E-02  0.1007367E+00
         21   -1    0    0  501  502  0.00000000000E+00  0.00000000000E+00  0.93678636883E+03  0.93678636883E+03  0.00000000000E+00 0.  1.
          4   -1    0    0  502    0 -0.00000000000E+00 -0.00000000000E+00 -0.41399727472E+03  0.41399727472E+03  0.00000000000E+00 0.  1.
    9000010    2    1    2  501    0 -0.79293267196E+02  0.11954653942E+02  0.66549707316E+03  0.11870890669E+04  0.97972637118E+03 0.  0.
        -13    1    3    3    0    0 -0.27025162180E+03  0.43622068484E+03  0.40611532269E+03  0.65441125560E+03  0.10566000000E+00 0.  1.
          4    1    3    3  501    0  0.19095835460E+03 -0.42426603090E+03  0.25938175047E+03  0.53267781130E+03  0.00000000000E+00 0.  1.
         13    1    1    2    0    0  0.79293267196E+02 -0.11954653942E+02 -0.14270797905E+03  0.16369457665E+03  0.10566000000E+00 0. -1.
<mgrwt>
<rscale>  1 0.52534584E+03</rscale>
<asrwt>0</asrwt>
<pdfrwt beam="1">  1       21 0.14412098E+00 0.98300259E+03</pdfrwt>
<pdfrwt beam="2">  1        4 0.63691889E-01 0.98300259E+03</pdfrwt>
<totfact> 0.27764473E+01</totfact>
</mgrwt>
</event>
<event>
 6    1  0.1412458E-005  0.1082713E+04  0.7818608E-02  0.9524214E-01
          4   -1    0    0  502    0 -0.00000000000E+00  0.00000000000E+00  0.61221701695E+03  0.61221701695E+03  0.00000000000E+00 0.  1.
         21   -1    0    0  501  502  0.00000000000E+00 -0.00000000000E+00 -0.11459969015E+04  0.11459969015E+04  0.00000000000E+00 0.  1.
    9000010    2    1    2  501    0 -0.24236077860E+01  0.36536497176E+03 -0.76510800343E+03  0.13257672209E+04  0.10192011727E+04 0.  0.
        -13    1    3    3    0    0 -0.31089711228E+03  0.60609225130E+03 -0.57167563031E+03  0.88927940995E+03  0.10566000000E+00 0.  1.
          4    1    3    3  501    0  0.30847350450E+03 -0.24072727955E+03 -0.19343237312E+03  0.43648781090E+03  0.00000000000E+00 0.  1.
         13    1    1    2    0    0  0.24236077860E+01 -0.36536497176E+03  0.23132811892E+03  0.43244669755E+03  0.10566000000E+00 0. -1.
<mgrwt>
<rscale>  1 0.82521911E+03</rscale>
<asrwt>0</asrwt>
<pdfrwt beam="2">  1       21 0.17630721E+00 0.10827135E+04</pdfrwt>
<pdfrwt beam="1">  1        4 0.94187235E-01 0.10827135E+04</pdfrwt>
<totfact> 0.63069291E+00</totfact>
</mgrwt>
</event>
<event>
 6    1  0.1412458E-005  0.1044342E+04  0.7818608E-02  0.9588862E-01
          4   -1    0    0  502    0 -0.00000000000E+00  0.00000000000E+00  0.16911248899E+04  0.16911248899E+04  0.00000000000E+00 0.  1.
         21   -1    0    0  501  502  0.00000000000E+00 -0.00000000000E+00 -0.28445398875E+03  0.28445398875E+03  0.00000000000E+00 0.  1.
    9000010    2    1    2  501    0  0.78462726243E+01  0.32551034397E+03  0.11958886249E+04  0.15877029614E+04  0.99228652240E+03 0.  0.
        -13    1    3    3    0    0 -0.13683841523E+03 -0.33343989832E+03  0.52027358303E+03  0.63292300482E+03  0.10566000000E+00 0.  1.
          4    1    3    3  501    0  0.14468468785E+03  0.65895024230E+03  0.67561504188E+03  0.95477995660E+03  0.00000000000E+00 0.  1.
         13    1    1    2    0    0 -0.78462726243E+01 -0.32551034397E+03  0.21078227629E+03  0.38787591726E+03  0.10566000000E+00 0. -1.
<mgrwt>
<rscale>  1 0.78037793E+03</rscale>
<asrwt>0</asrwt>
<pdfrwt beam="2">  1       21 0.43762153E-01 0.10443424E+04</pdfrwt>
<pdfrwt beam="1">  1        4 0.26017305E+00 0.10443424E+04</pdfrwt>
<totfact> 0.10889754E+01</totfact>
</mgrwt>
</event>
<event>
 6    1  0.1412458E-005  0.9926426E+03  0.7818608E-02  0.1034797E+00
         21   -1    0    0  501  502  0.00000000000E+00  0.00000000000E+00  0.15584800514E+04  0.15584800514E+04  0.00000000000E+00 0.  1.
          4   -1    0    0  502    0 -0.00000000000E+00 -0.00000000000E+00 -0.22001966536E+03  0.22001966536E+03  0.00000000000E+00 0.  1.
    9000010    2    1    2  501    0  0.17601182743E+02  0.29093285302E+02  0.13952391866E+04  0.17123176630E+04  0.99206006387E+03 0.  0.
        -13    1    3    3    0    0  0.31950424796E+03 -0.14924272666E+03  0.94412914380E+02  0.36506186529E+03  0.10566000000E+00 0.  1.
          4    1    3    3  501    0 -0.30190306522E+03  0.17833601196E+03  0.13008262723E+04  0.13472557977E+04  0.00000000000E+00 0.  1.
         13    1    1    2    0    0 -0.17601182743E+02 -0.29093285302E+02 -0.56778800559E+02  0.66182053765E+02  0.10566000000E+00 0. -1.
<mgrwt>
<rscale>  1 0.42704665E+03</rscale>
<asrwt>0</asrwt>
<pdfrwt beam="1">  1       21 0.23976615E+00 0.99264263E+03</pdfrwt>
<pdfrwt beam="2">  1        4 0.33849180E-01 0.99264263E+03</pdfrwt>
<totfact> 0.21638871E+01</totfact>
</mgrwt>
</event>
<event>
 6    1  0.1412458E-005  0.1046835E+04  0.7818608E-02  0.9589245E-01
          4   -1    0    0  502    0 -0.00000000000E+00  0.00000000000E+00  0.67067240585E+03  0.67067240585E+03  0.00000000000E+00 0.  1.
         21   -1    0    0  501  502  0.00000000000E+00 -0.00000000000E+00 -0.97240287105E+03  0.97240287105E+03  0.00000000000E+00 0.  1.
    9000010    2    1    2  501    0  0.15680350941E+03 -0.28222479122E+03 -0.59738804013E+03  0.12052949825E+04  0.99580387181E+03 0.  0.
        -13    1    3    3    0    0 -0.30261211833E+03  0.67661189858E+02 -0.54294683028E+03  0.62525467007E+03  0.10566000000E+00 0.  1.
          4    1    3    3  501    0  0.45941562774E+03 -0.34988598108E+03 -0.54441209856E+02  0.58004031248E+03  0.00000000000E+00 0.  1.
         13    1    1    2    0    0 -0.15680350941E+03  0.28222479122E+03  0.29565757493E+03  0.43778029435E+03  0.10566000000E+00 0. -1.
<mgrwt>
<rscale>  1 0.78012111E+03</rscale>
<asrwt>0</asrwt>
<pdfrwt beam="2">  1       21 0.14960044E+00 0.10468350E+04</pdfrwt>
<pdfrwt beam="1">  1        4 0.10318037E+00 0.10468350E+04</pdfrwt>
<totfact> 0.81663971E+00</totfact>
</mgrwt>
</event>
<event>
 6    1  0.1412458E-005  0.9759741E+03  0.7818608E-02  0.1014832E+00
         21   -1    0    0  501  502  0.00000000000E+00  0.00000000000E+00  0.18552673717E+04  0.18552673717E+04  0.00000000000E+00 0.  1.
          4   -1    0    0  502    0 -0.00000000000E+00 -0.00000000000E+00 -0.14636193414E+03  0.14636193414E+03  0.00000000000E+00 0.  1.
    9000010    2    1    2  501    0  0.32731050105E+02 -0.56270847296E+02  0.16229733610E+04  0.18938236342E+04  0.97380064538E+03 0.  0.
        -13    1    3    3    0    0 -0.74443409894E+02 -0.24203751154E+03 -0.35200856840E+01  0.25325161487E+03  0.10566000000E+00 0.  1.
          4    1    3    3  501    0  0.10717446000E+03  0.18576666424E+03  0.16264934467E+04  0.16405720193E+04  0.00000000000E+00 0.  1.
         13    1    1    2    0    0 -0.32731050105E+02  0.56270847296E+02  0.85932076545E+02  0.10780567165E+03  0.10566000000E+00 0. -1.
<mgrwt>
<rscale>  1 0.49598726E+03</rscale>
<asrwt>0</asrwt>
<pdfrwt beam="1">  1       21 0.28542573E+00 0.97597409E+03</pdfrwt>
<pdfrwt beam="2">  1        4 0.22517222E-01 0.97597409E+03</pdfrwt>
<totfact> 0.24638839E+01</totfact>
</mgrwt>
</event>
<event>
 6    1  0.1412458E-005  0.1020769E+04  0.7818608E-02  0.9635915E-01
          4   -1    0    0  502    0 -0.00000000000E+00  0.00000000000E+00  0.75101737645E+03  0.75101737645E+03  0.00000000000E+00 0.  1.
         21   -1    0    0  501  502  0.00000000000E+00 -0.00000000000E+00 -0.60914642487E+03  0.60914642487E+03  0.00000000000E+00 0.  1.
    9000010    2    1    2  501    0  0.91066041569E+02 -0.28260311796E+03 -0.22049506138E+02  0.10210067966E+04  0.97663255722E+03 0.  0.
        -13    1    3    3    0    0 -0.40263973328E+03 -0.74645246285E+02 -0.20102886932E+03  0.45618338974E+03  0.10566000000E+00 0.  1.
          4    1    3    3  501    0  0.49370577485E+03 -0.20795787168E+03  0.17897936318E+03  0.56482340688E+03  0.00000000000E+00 0.  1.
         13    1    1    2    0    0 -0.91066041569E+02  0.28260311796E+03  0.16392045772E+03  0.33915700469E+03  0.10566000000E+00 0. -1.
<mgrwt>
<rscale>  1 0.74964033E+03</rscale>
<asrwt>0</asrwt>
<pdfrwt beam="2">  1       21 0.93714835E-01 0.10207687E+04</pdfrwt>
<pdfrwt beam="1">  1        4 0.11554113E+00 0.10207687E+04</pdfrwt>
<totfact> 0.20889574E+01</totfact>
</mgrwt>
</event>
<event>
 6    1  0.1412458E-005  0.1014686E+04  0.7818608E-02  0.9888208E-01
          4   -1    0    0  502    0 -0.00000000000E+00  0.00000000000E+00  0.61371769790E+03  0.61371769790E+03  0.00000000000E+00 0.  1.
         21   -1    0    0  501  502  0.00000000000E+00 -0.00000000000E+00 -0.61435390168E+03  0.61435390168E+03  0.00000000000E+00 0.  1.
    9000010    2    1    2  501    0 -0.11565549185E+03 -0.61764938305E+02 -0.15399377121E+03  0.10263052618E+04  0.10061795608E+04 0.  0.
        -13    1    3    3    0    0  0.28115606549E+03 -0.32325052010E+03 -0.30700474798E+03  0.52705934994E+03  0.10566000000E+00 0.  1.
          4    1    3    3  501    0 -0.39681155734E+03  0.26148558180E+03  0.15301097677E+03  0.49924591189E+03  0.00000000000E+00 0.  1.
         13    1    1    2    0    0  0.11565549185E+03  0.61764938305E+02  0.15335756744E+03  0.20176633776E+03  0.10566000000E+00 0. -1.
<mgrwt>
<rscale>  1 0.60836170E+03</rscale>
<asrwt>0</asrwt>
<pdfrwt beam="2">  1       21 0.94515984E-01 0.10146864E+04</pdfrwt>
<pdfrwt beam="1">  1        4 0.94418108E-01 0.10146864E+04</pdfrwt>
<totfact> 0.33469985E+01</totfact>
</mgrwt>
</event>
<event>
 6    1  0.1412458E-005  0.1042738E+04  0.7818608E-02  0.9663062E-01
         21   -1    0    0  501  502  0.00000000000E+00  0.00000000000E+00  0.29306054146E+04  0.29306054146E+04  0.00000000000E+00 0.  1.
          4   -1    0    0  502    0 -0.00000000000E+00 -0.00000000000E+00 -0.18480466207E+03  0.18480466207E+03  0.00000000000E+00 0.  1.
    9000010    2    1    2  501    0 -0.86087011420E+02 -0.23902295257E+03  0.26431572858E+04  0.28414052632E+04  0.10113162151E+04 0.  0.
        -13    1    3    3    0    0 -0.42285330121E+03 -0.86582399293E+02  0.47440664050E+03  0.64137594118E+03  0.10566000000E+00 0.  1.
          4    1    3    3  501    0  0.33676628979E+03 -0.15244055327E+03  0.21687506453E+04  0.22000293220E+04  0.00000000000E+00 0.  1.
         13    1    1    2    0    0  0.86087011420E+02  0.23902295257E+03  0.10264346674E+03  0.27400481349E+03  0.10566000000E+00 0. -1.
<mgrwt>
<rscale>  1 0.73259279E+03</rscale>
<asrwt>0</asrwt>
<pdfrwt beam="1">  1       21 0.45086234E+00 0.10427384E+04</pdfrwt>
<pdfrwt beam="2">  1        4 0.28431489E-01 0.10427384E+04</pdfrwt>
<totfact> 0.13354614E+00</totfact>
</mgrwt>
</event>
<event>
 6    1  0.1412458E-005  0.1001321E+04  0.7818608E-02  0.9952348E-01
         21   -1    0    0  501  502  0.00000000000E+00  0.00000000000E+00  0.87392588886E+03  0.87392588886E+03  0.00000000000E+00 0.  1.
          4   -1    0    0  502    0 -0.00000000000E+00 -0.00000000000E+00 -0.63149841733E+03  0.63149841733E+03  0.00000000000E+00 0.  1.
    9000010    2    1    2  501    0 -0.63701212677E+02  0.91016533335E+02  0.57507934629E+03  0.11547119814E+04  0.99513901117E+03 0.  0.
        -13    1    3    3    0    0  0.45446716196E+03 -0.45084912284E+02  0.34151685160E+03  0.57026907834E+03  0.10566000000E+00 0.  1.
          4    1    3    3  501    0 -0.51816837464E+03  0.13610144562E+03  0.23356249469E+03  0.58444290303E+03  0.00000000000E+00 0.  1.
         13    1    1    2    0    0  0.63701212677E+02 -0.91016533335E+02 -0.33265187476E+03  0.35071232482E+03  0.10566000000E+00 0. -1.
<mgrwt>
<rscale>  1 0.57789981E+03</rscale>
<asrwt>0</asrwt>
<pdfrwt beam="1">  1       21 0.13445014E+00 0.10013209E+04</pdfrwt>
<pdfrwt beam="2">  1        4 0.97153603E-01 0.10013209E+04</pdfrwt>
<totfact> 0.12717156E+01</totfact>
</mgrwt>
</event>
<event>
 6    1  0.1412458E-005  0.1037707E+04  0.7818608E-02  0.9669988E-01
         21   -1    0    0  501  502  0.00000000000E+00  0.00000000000E+00  0.42277765351E+03  0.42277765351E+03  0.00000000000E+00 0.  1.
          4   -1    0    0  502    0 -0.00000000000E+00 -0.00000000000E+00 -0.10202825062E+04  0.10202825062E+04  0.00000000000E+00 0.  1.
    9000010    2    1    2  501    0  0.44235676732E+02 -0.24789054503E+03 -0.58431696733E+03  0.11909085211E+04  0.10066927385E+04 0.  0.
        -13    1    3    3    0    0 -0.30830706781E+03  0.91206196892E+02  0.11155163292E+03  0.34031690581E+03  0.10566000000E+00 0.  1.
          4    1    3    3  501    0  0.35254274454E+03 -0.33909674192E+03 -0.69586860025E+03  0.85059161524E+03  0.00000000000E+00 0.  1.
         13    1    1    2    0    0 -0.44235676732E+02  0.24789054503E+03 -0.13187885395E+02  0.25215163869E+03  0.10566000000E+00 0. -1.
<mgrwt>
<rscale>  1 0.72832129E+03</rscale>
<asrwt>0</asrwt>
<pdfrwt beam="1">  1       21 0.65042716E-01 0.10377075E+04</pdfrwt>
<pdfrwt beam="2">  1        4 0.15696654E+00 0.10377075E+04</pdfrwt>
<totfact> 0.22123873E+01</totfact>
</mgrwt>
</event>
<event>
 6    1  0.1412458E-005  0.8886538E+03  0.7818608E-02  0.9716202E-01
          4   -1    0    0  502    0 -0.00000000000E+00  0.00000000000E+00  0.11008207659E+04  0.11008207659E+04  0.00000000000E+00 0.  1.
         21   -1    0    0  501  502  0.00000000000E+00 -0.00000000000E+00 -0.35324817189E+03  0.35324817189E+03  0.00000000000E+00 0.  1.
    9000010    2    1    2  501    0  0.24680291376E+03 -0.23864606982E+03  0.43342798302E+03  0.98871909879E+03  0.81965969461E+03 0.  0.
        -13    1    3    3    0    0  0.16978397648E+03 -0.54102382534E+03  0.34758859687E+03  0.66509489705E+03  0.10566000000E+00 0.  1.
          4    1    3    3  501    0  0.77018937279E+02  0.30237775552E+03  0.85839386158E+02  0.32362420174E+03  0.00000000000E+00 0.  1.
         13    1    1    2    0    0 -0.24680291376E+03  0.23864606982E+03  0.31414461095E+03  0.46534983897E+03  0.10566000000E+00 0. -1.
<mgrwt>
<rscale>  1 0.70060292E+03</rscale>
<asrwt>0</asrwt>
<pdfrwt beam="2">  1       21 0.54345873E-01 0.88865384E+03</pdfrwt>
<pdfrwt beam="1">  1        4 0.16935704E+00 0.88865384E+03</pdfrwt>
<totfact> 0.27124155E+01</totfact>
</mgrwt>
</event>
<event>
 6    1  0.1412458E-005  0.9997697E+03  0.7818608E-02  0.1000197E+00
          4   -1    0    0  502    0 -0.00000000000E+00  0.00000000000E+00  0.74693310633E+03  0.74693310633E+03  0.00000000000E+00 0.  1.
         21   -1    0    0  501  502  0.00000000000E+00 -0.00000000000E+00 -0.45620433889E+03  0.45620433889E+03  0.00000000000E+00 0.  1.
    9000010    2    1    2  501    0  0.66987767339E+02 -0.67903039832E+02  0.11917234343E+03  0.10068473498E+04  0.99520920136E+03 0.  0.
        -13    1    3    3    0    0  0.33953898198E+03  0.22697158425E+03  0.35503459852E+03  0.54115838499E+03  0.10566000000E+00 0.  1.
          4    1    3    3  501    0 -0.27255121464E+03 -0.29487462408E+03 -0.23586225509E+03  0.46568896476E+03  0.00000000000E+00 0.  1.
         13    1    1    2    0    0 -0.66987767339E+02  0.67903039832E+02  0.17155642401E+03  0.19629009546E+03  0.10566000000E+00 0. -1.
<mgrwt>
<rscale>  1 0.55564114E+03</rscale>
<asrwt>0</asrwt>
<pdfrwt beam="2">  1       21 0.70185283E-01 0.99976974E+03</pdfrwt>
<pdfrwt beam="1">  1        4 0.11491279E+00 0.99976974E+03</pdfrwt>
<totfact> 0.41993020E+01</totfact>
</mgrwt>
</event>
<event>
 6    1  0.1412458E-005  0.1018900E+04  0.7818608E-02  0.9843864E-01
         21   -1    0    0  501  502  0.00000000000E+00  0.00000000000E+00  0.30569360385E+03  0.30569360385E+03  0.00000000000E+00 0. -1.
          4   -1    0    0  502    0 -0.00000000000E+00 -0.00000000000E+00 -0.11947721968E+04  0.11947721968E+04  0.00000000000E+00 0.  1.
    9000010    2    1    2  501    0  0.12987040137E+03 -0.74053284613E+02 -0.88708262787E+03  0.13509525733E+04  0.10078725398E+04 0.  0.
        -13    1    3    3    0    0 -0.32147345785E+03  0.14842962008E+03 -0.27802483280E+02  0.35517534467E+03  0.10566000000E+00 0.  1.
          4    1    3    3  501    0  0.45134385922E+03 -0.22248290470E+03 -0.85928014459E+03  0.99577722862E+03  0.00000000000E+00 0.  1.
         13    1    1    2    0    0 -0.12987040137E+03  0.74053284613E+02 -0.19959650725E+01  0.14951322736E+03  0.10566000000E+00 0. -1.
<mgrwt>
<rscale>  1 0.63060726E+03</rscale>
<asrwt>0</asrwt>
<pdfrwt beam="1">  1       21 0.47029785E-01 0.10189000E+04</pdfrwt>
<pdfrwt beam="2">  1        4 0.18381111E+00 0.10189000E+04</pdfrwt>
<totfact> 0.28966919E+01</totfact>
</mgrwt>
</event>
<event>
 6    1  0.1412458E-005  0.1087827E+04  0.7818608E-02  0.9823393E-01
          4   -1    0    0  502    0 -0.00000000000E+00  0.00000000000E+00  0.17496592683E+04  0.17496592683E+04  0.00000000000E+00 0.  1.
         21   -1    0    0  501  502  0.00000000000E+00 -0.00000000000E+00 -0.24718976898E+03  0.24718976898E+03  0.00000000000E+00 0. -1.
    9000010    2    1    2  501    0 -0.80626738071E+02 -0.10366232048E+03  0.15148099443E+04  0.18649443545E+04  0.10798711639E+04 0.  0.
        -13    1    3    3    0    0 -0.95989256786E+02  0.25212143034E+03 -0.37446043328E+02  0.27236257155E+03  0.10566000000E+00 0.  1.
          4    1    3    3  501    0  0.15362518715E+02 -0.35578375082E+03  0.15522559876E+04  0.15925817830E+04  0.00000000000E+00 0.  1.
         13    1    1    2    0    0  0.80626738071E+02  0.10366232048E+03 -0.12340445016E+02  0.13190468273E+03  0.10566000000E+00 0. -1.
<mgrwt>
<rscale>  1 0.64122114E+03</rscale>
<asrwt>0</asrwt>
<pdfrwt beam="2">  1       21 0.38029196E-01 0.10878273E+04</pdfrwt>
<pdfrwt beam="1">  1        4 0.26917834E+00 0.10878273E+04</pdfrwt>
<totfact> 0.12809428E+01</totfact>
</mgrwt>
</event>
<event>
 6    1  0.1412458E-005  0.1090563E+04  0.7818608E-02  0.9431976E-01
          4   -1    0    0  502    0 -0.00000000000E+00  0.00000000000E+00  0.14512117478E+04  0.14512117478E+04  0.00000000000E+00 0.  1.
         21   -1    0    0  501  502  0.00000000000E+00 -0.00000000000E+00 -0.47100168960E+03  0.47100168960E+03  0.00000000000E+00 0. -1.
    9000010    2    1    2  501    0  0.15644505128E+02 -0.49423530615E+03  0.40417460442E+03  0.11630493290E+04  0.97201509367E+03 0.  0.
        -13    1    3    3    0    0  0.47051030429E+02  0.25003031519E+03 -0.89143409996E+02  0.26958396964E+03  0.10566000000E+00 0.  1.
          4    1    3    3  501    0 -0.31406525301E+02 -0.74426562134E+03  0.49331801442E+03  0.89346535931E+03  0.00000000000E+00 0.  1.
         13    1    1    2    0    0 -0.15644505128E+02  0.49423530615E+03  0.57603545382E+03  0.75916410848E+03  0.10566000000E+00 0. -1.
<mgrwt>
<rscale>  1 0.89490254E+03</rscale>
<asrwt>0</asrwt>
<pdfrwt beam="2">  1       21 0.72461799E-01 0.10905625E+04</pdfrwt>
<pdfrwt beam="1">  1        4 0.22326334E+00 0.10905625E+04</pdfrwt>
<totfact> 0.60418387E+00</totfact>
</mgrwt>
</event>
<event>
 6    1  0.1412458E-005  0.1034580E+04  0.7818608E-02  0.9669125E-01
         21   -1    0    0  501  502  0.00000000000E+00  0.00000000000E+00  0.11303270438E+04  0.11303270438E+04  0.00000000000E+00 0.  1.
          4   -1    0    0  502    0 -0.00000000000E+00 -0.00000000000E+00 -0.70238480610E+03  0.70238480610E+03  0.00000000000E+00 0.  1.
    9000010    2    1    2  501    0  0.25481659869E+03  0.33436803536E+01  0.85047553214E+03  0.13392778876E+04  0.10027033211E+04 0.  0.
        -13    1    3    3    0    0  0.11815035230E+03  0.24785793152E+03  0.98926527795E+03  0.10266639476E+04  0.10566000000E+00 0.  1.
          4    1    3    3  501    0  0.13666624639E+03 -0.24451425117E+03 -0.13878974580E+03  0.31261393998E+03  0.00000000000E+00 0.  1.
         13    1    1    2    0    0 -0.25481659869E+03 -0.33436803536E+01 -0.42253329441E+03  0.49343396236E+03  0.10566000000E+00 0. -1.
<mgrwt>
<rscale>  1 0.72885221E+03</rscale>
<asrwt>0</asrwt>
<pdfrwt beam="1">  1       21 0.17389647E+00 0.10345804E+04</pdfrwt>
<pdfrwt beam="2">  1        4 0.10805920E+00 0.10345804E+04</pdfrwt>
<totfact> 0.47419425E+00</totfact>
</mgrwt>
</event>
<event>
 6    1  0.1412458E-005  0.1018860E+04  0.7818608E-02  0.9798485E-01
          4   -1    0    0  502    0 -0.00000000000E+00  0.00000000000E+00  0.32672954631E+03  0.32672954631E+03  0.00000000000E+00 0.  1.
         21   -1    0    0  501  502  0.00000000000E+00 -0.00000000000E+00 -0.11093897754E+04  0.11093897754E+04  0.00000000000E+00 0.  1.
    9000010    2    1    2  501    0 -0.86591098368E+02 -0.15027038248E+03 -0.73484851384E+03  0.12562160771E+04  0.10039906811E+04 0.  0.
        -13    1    3    3    0    0 -0.50012137262E+03 -0.26002613292E+03 -0.55831579927E+03  0.79337980818E+03  0.10566000000E+00 0.  1.
          4    1    3    3  501    0  0.41353027425E+03  0.10975575044E+03 -0.17653271456E+03  0.46283626888E+03  0.00000000000E+00 0.  1.
         13    1    1    2    0    0  0.86591098368E+02  0.15027038248E+03 -0.47811715288E+02  0.17990324469E+03  0.10566000000E+00 0. -1.
<mgrwt>
<rscale>  1 0.65443923E+03</rscale>
<asrwt>0</asrwt>
<pdfrwt beam="2">  1       21 0.17067535E+00 0.10188604E+04</pdfrwt>
<pdfrwt beam="1">  1        4 0.50266084E-01 0.10188604E+04</pdfrwt>
<totfact> 0.28516276E+01</totfact>
</mgrwt>
</event>
<event>
 6    1  0.1412458E-005  0.1091611E+04  0.7818608E-02  0.9491522E-01
          4   -1    0    0  502    0 -0.00000000000E+00  0.00000000000E+00  0.25249431655E+03  0.25249431655E+03  0.00000000000E+00 0.  1.
         21   -1    0    0  501  502  0.00000000000E+00 -0.00000000000E+00 -0.26030384603E+04  0.26030384603E+04  0.00000000000E+00 0.  1.
    9000010    2    1    2  501    0  0.62967241134E+02  0.39464741226E+03 -0.21434811954E+04  0.24054366435E+04  0.10158259486E+04 0.  0.
        -13    1    3    3    0    0 -0.32925804204E+03  0.43067288404E+03 -0.18096969861E+04  0.18891514455E+04  0.10566000000E+00 0.  1.
          4    1    3    3  501    0  0.39222528317E+03 -0.36025471781E+02 -0.33378420921E+03  0.51628519802E+03  0.00000000000E+00 0.  1.
         13    1    1    2    0    0 -0.62967241134E+02 -0.39464741226E+03 -0.20706294842E+03  0.45009613332E+03  0.10566000000E+00 0. -1.
<mgrwt>
<rscale>  1 0.84911758E+03</rscale>
<asrwt>0</asrwt>
<pdfrwt beam="2">  1       21 0.40046743E+00 0.10916107E+04</pdfrwt>
<pdfrwt beam="1">  1        4 0.38845282E-01 0.10916107E+04</pdfrwt>
<totfact> 0.15516768E+00</totfact>
</mgrwt>
</event>
<event>
 6    1  0.1412458E-005  0.1103657E+04  0.7818608E-02  0.9500509E-01
          4   -1    0    0  502    0 -0.00000000000E+00  0.00000000000E+00  0.16312704463E+04  0.16312704463E+04  0.00000000000E+00 0.  1.
         21   -1    0    0  501  502  0.00000000000E+00 -0.00000000000E+00 -0.41997956883E+03  0.41997956883E+03  0.00000000000E+00 0.  1.
    9000010    2    1    2  501    0  0.35457269164E+03 -0.12120178949E+03  0.42947717238E+03  0.11842757664E+04  0.10380976745E+04 0.  0.
        -13    1    3    3    0    0  0.34836884851E+02 -0.42949995698E+03 -0.14811260975E+03  0.45565466960E+03  0.10566000000E+00 0.  1.
          4    1    3    3  501    0  0.31973580678E+03  0.30829816749E+03  0.57758978213E+03  0.72862109676E+03  0.00000000000E+00 0.  1.
         13    1    1    2    0    0 -0.35457269164E+03  0.12120178949E+03  0.78181370512E+03  0.86697424882E+03  0.10566000000E+00 0. -1.
<mgrwt>
<rscale>  1 0.84246322E+03</rscale>
<asrwt>0</asrwt>
<pdfrwt beam="2">  1       21 0.64612242E-01 0.11036569E+04</pdfrwt>
<pdfrwt beam="1">  1        4 0.25096468E+00 0.11036569E+04</pdfrwt>
<totfact> 0.52552907E+00</totfact>
</mgrwt>
</event>
<event>
 6    1  0.1412458E-005  0.1088008E+04  0.7818608E-02  0.9474718E-01
         21   -1    0    0  501  502  0.00000000000E+00  0.00000000000E+00  0.10663599242E+04  0.10663599242E+04  0.00000000000E+00 0.  1.
          4   -1    0    0  502    0 -0.00000000000E+00 -0.00000000000E+00 -0.56092515261E+03  0.56092515261E+03  0.00000000000E+00 0.  1.
    9000010    2    1    2  501    0 -0.42765454512E+03 -0.20732397845E+02  0.50412526241E+03  0.11991262648E+04  0.10002216137E+04 0.  0.
        -13    1    3    3    0    0  0.58808978586E+02  0.15846677387E+03 -0.23918835827E+03  0.29288444185E+03  0.10566000000E+00 0.  1.
          4    1    3    3  501    0 -0.48646352371E+03 -0.17919917171E+03  0.74331362067E+03  0.90624182298E+03  0.00000000000E+00 0.  1.
         13    1    1    2    0    0  0.42765454512E+03  0.20732397845E+02  0.13095091584E+01  0.42815881196E+03  0.10566000000E+00 0. -1.
<mgrwt>
<rscale>  1 0.86173711E+03</rscale>
<asrwt>0</asrwt>
<pdfrwt beam="1">  1       21 0.16405537E+00 0.10880081E+04</pdfrwt>
<pdfrwt beam="2">  1        4 0.86296178E-01 0.10880081E+04</pdfrwt>
<totfact> 0.95719337E+00</totfact>
</mgrwt>
</event>
<event>
 6    1  0.1412458E-005  0.1066012E+04  0.7818608E-02  0.9523703E-01
         21   -1    0    0  501  502  0.00000000000E+00  0.00000000000E+00  0.18239834286E+04  0.18239834286E+04  0.00000000000E+00 0.  1.
          4   -1    0    0  502    0 -0.00000000000E+00 -0.00000000000E+00 -0.29466849287E+03  0.29466849287E+03  0.00000000000E+00 0.  1.
    9000010    2    1    2  501    0 -0.72740620937E+02 -0.37653685764E+03  0.12577865124E+04  0.16487594881E+04  0.99464050574E+03 0.  0.
        -13    1    3    3    0    0 -0.78893996908E+02  0.33411782217E+03  0.53051215715E+03  0.63190358591E+03  0.10566000000E+00 0.  1.
          4    1    3    3  501    0  0.61533759714E+01 -0.71065467981E+03  0.72727435529E+03  0.10168559022E+04  0.00000000000E+00 0.  1.
         13    1    1    2    0    0  0.72740620937E+02  0.37653685764E+03  0.27152842324E+03  0.46989243332E+03  0.10566000000E+00 0. -1.
<mgrwt>
<rscale>  1 0.82558622E+03</rscale>
<asrwt>0</asrwt>
<pdfrwt beam="1">  1       21 0.28061283E+00 0.10660117E+04</pdfrwt>
<pdfrwt beam="2">  1        4 0.45333616E-01 0.10660117E+04</pdfrwt>
<totfact> 0.65229082E+00</totfact>
</mgrwt>
</event>
<event>
 6    1  0.1412458E-005  0.9541863E+03  0.7818608E-02  0.9749123E-01
          4   -1    0    0  502    0 -0.00000000000E+00  0.00000000000E+00  0.45715607270E+03  0.45715607270E+03  0.00000000000E+00 0.  1.
         21   -1    0    0  501  502  0.00000000000E+00 -0.00000000000E+00 -0.11075786321E+04  0.11075786321E+04  0.00000000000E+00 0.  1.
    9000010    2    1    2  501    0  0.15371692010E+03  0.19528224681E+03 -0.82470319841E+03  0.12611926159E+04  0.92125316898E+03 0.  0.
        -13    1    3    3    0    0 -0.20818476425E+03 -0.23871505076E+03 -0.54573783785E+03  0.63099569757E+03  0.10566000000E+00 0.  1.
          4    1    3    3  501    0  0.36190168434E+03  0.43399729756E+03 -0.27896536056E+03  0.63019691829E+03  0.00000000000E+00 0.  1.
         13    1    1    2    0    0 -0.15371692010E+03 -0.19528224681E+03  0.17428063903E+03  0.30354208892E+03  0.10566000000E+00 0. -1.
<mgrwt>
<rscale>  1 0.68165850E+03</rscale>
<asrwt>0</asrwt>
<pdfrwt beam="2">  1       21 0.17039671E+00 0.95418628E+03</pdfrwt>
<pdfrwt beam="1">  1        4 0.70331704E-01 0.95418628E+03</pdfrwt>
<totfact> 0.13906790E+01</totfact>
</mgrwt>
</event>
<event>
 6    1  0.1412458E-005  0.9940793E+03  0.7818608E-02  0.1014309E+00
         21   -1    0    0  501  502  0.00000000000E+00  0.00000000000E+00  0.58067531095E+03  0.58067531095E+03  0.00000000000E+00 0.  1.
          4   -1    0    0  502    0 -0.00000000000E+00 -0.00000000000E+00 -0.48086270534E+03  0.48086270534E+03  0.00000000000E+00 0.  1.
    9000010    2    1    2  501    0 -0.37247104408E+01 -0.62488370687E+02  0.98199981394E+02  0.99891787847E+03  0.99210635601E+03 0.  0.
        -13    1    3    3    0    0 -0.46166663659E+03  0.99190625106E+02 -0.85143596058E+02  0.47981695110E+03  0.10566000000E+00 0.  1.
          4    1    3    3  501    0  0.45794192615E+03 -0.16167899579E+03  0.18334357745E+03  0.51910092737E+03  0.00000000000E+00 0.  1.
         13    1    1    2    0    0  0.37247104408E+01  0.62488370687E+02  0.16126242153E+01  0.62620137815E+02  0.10566000000E+00 0. -1.
<mgrwt>
<rscale>  1 0.49797584E+03</rscale>
<asrwt>0</asrwt>
<pdfrwt beam="1">  1       21 0.89334663E-01 0.99407932E+03</pdfrwt>
<pdfrwt beam="2">  1        4 0.73978878E-01 0.99407932E+03</pdfrwt>
<totfact> 0.67672882E+01</totfact>
</mgrwt>
</event>
<event>
 6    1  0.1412458E-005  0.1019847E+04  0.7818608E-02  0.9840272E-01
         21   -1    0    0  501  502  0.00000000000E+00  0.00000000000E+00  0.41869166548E+03  0.41869166548E+03  0.00000000000E+00 0.  1.
          4   -1    0    0  502    0 -0.00000000000E+00 -0.00000000000E+00 -0.88363273121E+03  0.88363273121E+03  0.00000000000E+00 0.  1.
    9000010    2    1    2  501    0 -0.13565062111E+03 -0.65962325764E+02 -0.26840066267E+03  0.10545739968E+04  0.10086303979E+04 0.  0.
        -13    1    3    3    0    0  0.33367929261E+03 -0.21527920059E+03 -0.37994959095E+03  0.54958958082E+03  0.10566000000E+00 0.  1.
          4    1    3    3  501    0 -0.46932991372E+03  0.14931687483E+03  0.11154892828E+03  0.50498441602E+03  0.00000000000E+00 0.  1.
         13    1    1    2    0    0  0.13565062111E+03  0.65962325764E+02 -0.19654040306E+03  0.24775039985E+03  0.10566000000E+00 0. -1.
<mgrwt>
<rscale>  1 0.63245400E+03</rscale>
<asrwt>0</asrwt>
<pdfrwt beam="1">  1       21 0.64414103E-01 0.10198468E+04</pdfrwt>
<pdfrwt beam="2">  1        4 0.13594350E+00 0.10198468E+04</pdfrwt>
<totfact> 0.33237882E+01</totfact>
</mgrwt>
</event>
<event>
 6    1  0.1412458E-005  0.1171251E+04  0.7818608E-02  0.9314702E-01
          4   -1    0    0  502    0 -0.00000000000E+00  0.00000000000E+00  0.85180844905E+03  0.85180844905E+03  0.00000000000E+00 0.  1.
         21   -1    0    0  501  502  0.00000000000E+00 -0.00000000000E+00 -0.10105661380E+04  0.10105661380E+04  0.00000000000E+00 0.  1.
    9000010    2    1    2  501    0 -0.25109025125E+03 -0.55434836075E+03 -0.35346320439E+03  0.12234233618E+04  0.10007397594E+04 0.  0.
        -13    1    3    3    0    0 -0.26683994846E+03 -0.47582016356E+03 -0.68879354472E+03  0.87866088144E+03  0.10566000000E+00 0.  1.
          4    1    3    3  501    0  0.15749697215E+02 -0.78528197183E+02  0.33533034034E+03  0.34476248036E+03  0.00000000000E+00 0.  1.
         13    1    1    2    0    0  0.25109025125E+03  0.55434836075E+03  0.19470551545E+03  0.63895122524E+03  0.10566000000E+00 0. -1.
<mgrwt>
<rscale>  1 0.99440602E+03</rscale>
<asrwt>0</asrwt>
<pdfrwt beam="2">  1       21 0.15547171E+00 0.11712508E+04</pdfrwt>
<pdfrwt beam="1">  1        4 0.13104745E+00 0.11712508E+04</pdfrwt>
<totfact> 0.39707178E+00</totfact>
</mgrwt>
</event>
<event>
 6    1  0.1412458E-005  0.1008348E+04  0.7818608E-02  0.9844913E-01
         21   -1    0    0  501  502  0.00000000000E+00  0.00000000000E+00  0.64897846331E+03  0.64897846331E+03  0.00000000000E+00 0.  1.
          4   -1    0    0  502    0 -0.00000000000E+00 -0.00000000000E+00 -0.54964474353E+03  0.54964474353E+03  0.00000000000E+00 0.  1.
    9000010    2    1    2  501    0 -0.33871065473E+01 -0.15367989093E+03  0.18114633469E+03  0.10244902218E+04  0.99656271181E+03 0.  0.
        -13    1    3    3    0    0  0.10553274633E+03  0.18009351684E+03  0.50525031119E+03  0.54667058041E+03  0.10566000000E+00 0.  1.
          4    1    3    3  501    0 -0.10891985287E+03 -0.33377340778E+03 -0.32410397650E+03  0.47781964136E+03  0.00000000000E+00 0.  1.
         13    1    1    2    0    0  0.33871065473E+01  0.15367989093E+03 -0.81812614911E+02  0.17413298507E+03  0.10566000000E+00 0. -1.
<mgrwt>
<rscale>  1 0.63006966E+03</rscale>
<asrwt>0</asrwt>
<pdfrwt beam="1">  1       21 0.99842840E-01 0.10083483E+04</pdfrwt>
<pdfrwt beam="2">  1        4 0.84560730E-01 0.10083483E+04</pdfrwt>
<totfact> 0.37922240E+01</totfact>
</mgrwt>
</event>
<event>
 6    1  0.1412458E-005  0.1212939E+04  0.7818608E-02  0.9259686E-01
          4   -1    0    0  502    0 -0.00000000000E+00  0.00000000000E+00  0.10102240368E+04  0.10102240368E+04  0.00000000000E+00 0.  1.
         21   -1    0    0  501  502  0.00000000000E+00 -0.00000000000E+00 -0.10460546709E+04  0.10460546709E+04  0.00000000000E+00 0. -1.
    9000010    2    1    2  501    0  0.39809404767E+03 -0.53931196927E+03  0.37559718642E+03  0.12697616171E+04  0.10108833003E+04 0.  0.
        -13    1    3    3    0    0 -0.27444813243E+03  0.87704143103E+02  0.14122656912E+03  0.32087185776E+03  0.10566000000E+00 0.  1.
          4    1    3    3  501    0  0.67254218011E+03 -0.62701611237E+03  0.23437061730E+03  0.94888975937E+03  0.00000000000E+00 0.  1.
         13    1    1    2    0    0 -0.39809404767E+03  0.53931196927E+03 -0.41142782052E+03  0.78651709050E+03  0.10566000000E+00 0. -1.
<mgrwt>
<rscale>  1 0.10458051E+04</rscale>
<asrwt>0</asrwt>
<pdfrwt beam="2">  1       21 0.16093149E+00 0.12129391E+04</pdfrwt>
<pdfrwt beam="1">  1        4 0.15541908E+00 0.12129391E+04</pdfrwt>
<totfact> 0.22758330E+00</totfact>
</mgrwt>
</event>
<event>
 6    1  0.1412458E-005  0.1303831E+04  0.7818608E-02  0.9136286E-01
         21   -1    0    0  501  502  0.00000000000E+00  0.00000000000E+00  0.52324840813E+03  0.52324840813E+03  0.00000000000E+00 0. -1.
          4   -1    0    0  502    0 -0.00000000000E+00 -0.00000000000E+00 -0.25365673987E+04  0.25365673987E+04  0.00000000000E+00 0.  1.
    9000010    2    1    2  501    0  0.53424013440E+03 -0.66866771377E+03 -0.17130512016E+04  0.21527933215E+04  0.98358814203E+03 0.  0.
        -13    1    3    3    0    0  0.69242579310E+03 -0.62628790669E+03 -0.17512957441E+04  0.19846225877E+04  0.10566000000E+00 0.  1.
          4    1    3    3  501    0 -0.15818565870E+03 -0.42379807081E+02  0.38244542552E+02  0.16817073379E+03  0.00000000000E+00 0.  1.
         13    1    1    2    0    0 -0.53424013440E+03  0.66866771377E+03 -0.30026778899E+03  0.90702248534E+03  0.10566000000E+00 0. -1.
<mgrwt>
<rscale>  1 0.11735972E+04</rscale>
<asrwt>0</asrwt>
<pdfrwt beam="1">  1       21 0.80499757E-01 0.13038308E+04</pdfrwt>
<pdfrwt beam="2">  1        4 0.39024113E+00 0.13038308E+04</pdfrwt>
<totfact> 0.39660914E-01</totfact>
</mgrwt>
</event>
<event>
 6    1  0.1412458E-005  0.1015514E+04  0.7818608E-02  0.9716050E-01
          4   -1    0    0  502    0 -0.00000000000E+00  0.00000000000E+00  0.38478808323E+03  0.38478808323E+03  0.00000000000E+00 0.  1.
         21   -1    0    0  501  502  0.00000000000E+00 -0.00000000000E+00 -0.10101570056E+04  0.10101570056E+04  0.00000000000E+00 0. -1.
    9000010    2    1    2  501    0  0.20789156401E+03 -0.98791244653E+02 -0.53344024468E+03  0.11470953252E+04  0.98908572832E+03 0.  0.
        -13    1    3    3    0    0  0.31604913483E+03  0.21398809839E+03 -0.68417232388E+03  0.78343458043E+03  0.10566000000E+00 0.  1.
          4    1    3    3  501    0 -0.10815757082E+03 -0.31277934304E+03  0.15073207920E+03  0.36366074474E+03  0.00000000000E+00 0.  1.
         13    1    1    2    0    0 -0.20789156401E+03  0.98791244653E+02 -0.91928677700E+02  0.24784976368E+03  0.10566000000E+00 0. -1.
<mgrwt>
<rscale>  1 0.70069190E+03</rscale>
<asrwt>0</asrwt>
<pdfrwt beam="2">  1       21 0.15540877E+00 0.10155142E+04</pdfrwt>
<pdfrwt beam="1">  1        4 0.59198167E-01 0.10155142E+04</pdfrwt>
<totfact> 0.26322840E+01</totfact>
</mgrwt>
</event>
<event>
 6    1  0.1412458E-005  0.1030744E+04  0.7818608E-02  0.9775068E-01
         21   -1    0    0  501  502  0.00000000000E+00  0.00000000000E+00  0.40481191944E+03  0.40481191944E+03  0.00000000000E+00 0.  1.
          4   -1    0    0  502    0 -0.00000000000E+00 -0.00000000000E+00 -0.98125714020E+03  0.98125714020E+03  0.00000000000E+00 0.  1.
    9000010    2    1    2  501    0 -0.18035599054E+03 -0.14430134779E+02 -0.33390875366E+03  0.10834794677E+04  0.10147394686E+04 0.  0.
        -13    1    3    3    0    0 -0.14240829842E+03  0.19472595563E+03 -0.65521810746E+03  0.69821851935E+03  0.10566000000E+00 0.  1.
          4    1    3    3  501    0 -0.37947692115E+02 -0.20915609041E+03  0.32130935380E+03  0.38526094836E+03  0.00000000000E+00 0.  1.
         13    1    1    2    0    0  0.18035599054E+03  0.14430134779E+02 -0.24253646709E+03  0.30258959193E+03  0.10566000000E+00 0. -1.
<mgrwt>
<rscale>  1 0.66717860E+03</rscale>
<asrwt>0</asrwt>
<pdfrwt beam="1">  1       21 0.62278758E-01 0.10307438E+04</pdfrwt>
<pdfrwt beam="2">  1        4 0.15096263E+00 0.10307438E+04</pdfrwt>
<totfact> 0.27137528E+01</totfact>
</mgrwt>
</event>
<event>
 6    1  0.1412458E-005  0.9368119E+03  0.7818608E-02  0.1007276E+00
          4   -1    0    0  502    0 -0.00000000000E+00  0.00000000000E+00  0.22464478367E+04  0.22464478367E+04  0.00000000000E+00 0.  1.
         21   -1    0    0  501  502  0.00000000000E+00 -0.00000000000E+00 -0.11819565770E+03  0.11819565770E+03  0.00000000000E+00 0.  1.
    9000010    2    1    2  501    0 -0.99266873604E+01  0.92376173214E+02  0.19623955055E+04  0.21745373561E+04  0.93219348674E+03 0.  0.
        -13    1    3    3    0    0 -0.22575174262E+03 -0.19024214459E+03  0.17176834701E+04  0.17428690247E+04  0.10566000000E+00 0.  1.
          4    1    3    3  501    0  0.21582505526E+03  0.28261831781E+03  0.24471203540E+03  0.43166833137E+03  0.00000000000E+00 0.  1.
         13    1    1    2    0    0  0.99266873604E+01 -0.92376173214E+02  0.16585667351E+03  0.19010613827E+03  0.10566000000E+00 0. -1.
<mgrwt>
<rscale>  1 0.52571784E+03</rscale>
<asrwt>0</asrwt>
<pdfrwt beam="2">  1       21 0.18183949E-01 0.93681193E+03</pdfrwt>
<pdfrwt beam="1">  1        4 0.34560733E+00 0.93681193E+03</pdfrwt>
<totfact> 0.18882461E+01</totfact>
</mgrwt>
</event>
<event>
 6    1  0.1412458E-005  0.1001619E+04  0.7818608E-02  0.9743754E-01
          4   -1    0    0  502    0 -0.00000000000E+00  0.00000000000E+00  0.11546026232E+04  0.11546026232E+04  0.00000000000E+00 0.  1.
         21   -1    0    0  501  502  0.00000000000E+00 -0.00000000000E+00 -0.32345885864E+03  0.32345885864E+03  0.00000000000E+00 0.  1.
    9000010    2    1    2  501    0 -0.92010177149E+02 -0.19843371093E+03  0.71290818687E+03  0.12294222385E+04  0.97744521448E+03 0.  0.
        -13    1    3    3    0    0  0.42677662231E+03 -0.21661767892E+03  0.39631519829E+03  0.62139138369E+03  0.10566000000E+00 0.  1.
          4    1    3    3  501    0 -0.51878679946E+03  0.18183967994E+02  0.31659298858E+03  0.60803085482E+03  0.00000000000E+00 0.  1.
         13    1    1    2    0    0  0.92010177149E+02  0.19843371093E+03  0.11823557770E+03  0.24863924334E+03  0.10566000000E+00 0. -1.
<mgrwt>
<rscale>  1 0.68470419E+03</rscale>
<asrwt>0</asrwt>
<pdfrwt beam="2">  1       21 0.49762902E-01 0.10016192E+04</pdfrwt>
<pdfrwt beam="1">  1        4 0.17763117E+00 0.10016192E+04</pdfrwt>
<totfact> 0.28368871E+01</totfact>
</mgrwt>
</event>
<event>
 6    1  0.1412458E-005  0.9912102E+03  0.7818608E-02  0.9828175E-01
         21   -1    0    0  501  502  0.00000000000E+00  0.00000000000E+00  0.37452725693E+03  0.37452725693E+03  0.00000000000E+00 0.  1.
          4   -1    0    0  502    0 -0.00000000000E+00 -0.00000000000E+00 -0.91135791381E+03  0.91135791381E+03  0.00000000000E+00 0.  1.
    9000010    2    1    2  501    0  0.71358548471E+02  0.15529262535E+03 -0.40814725279E+03  0.10719523038E+04  0.97636556659E+03 0.  0.
        -13    1    3    3    0    0 -0.11826046177E+03  0.54464099322E+03 -0.25113239254E+03  0.61129930317E+03  0.10566000000E+00 0.  1.
          4    1    3    3  501    0  0.18961901024E+03 -0.38934836787E+03 -0.15701486025E+03  0.46065300058E+03  0.00000000000E+00 0.  1.
         13    1    1    2    0    0 -0.71358548471E+02 -0.15529262535E+03 -0.12868340409E+03  0.21393286700E+03  0.10566000000E+00 0. -1.
<mgrwt>
<rscale>  1 0.63872183E+03</rscale>
<asrwt>0</asrwt>
<pdfrwt beam="1">  1       21 0.57619579E-01 0.99121015E+03</pdfrwt>
<pdfrwt beam="2">  1        4 0.14020891E+00 0.99121015E+03</pdfrwt>
<totfact> 0.39425177E+01</totfact>
</mgrwt>
</event>
<event>
 6    1  0.1412458E-005  0.1013323E+04  0.7818608E-02  0.1029465E+00
          4   -1    0    0  502    0 -0.00000000000E+00  0.00000000000E+00  0.39261444844E+03  0.39261444844E+03  0.00000000000E+00 0.  1.
         21   -1    0    0  501  502  0.00000000000E+00 -0.00000000000E+00 -0.70423565980E+03  0.70423565980E+03  0.00000000000E+00 0.  1.
    9000010    2    1    2  501    0 -0.16688438538E+02 -0.33489702096E+02 -0.30878005765E+03  0.10593248175E+04  0.10126321547E+04 0.  0.
        -13    1    3    3    0    0  0.99951146905E+02 -0.43205808589E+03 -0.43909430811E+03  0.62407390902E+03  0.10566000000E+00 0.  1.
          4    1    3    3  501    0 -0.11663958544E+03  0.39856838379E+03  0.13031425045E+03  0.43525090847E+03  0.00000000000E+00 0.  1.
         13    1    1    2    0    0  0.16688438538E+02  0.33489702096E+02 -0.28411537091E+01  0.37525290748E+02  0.10566000000E+00 0. -1.
<mgrwt>
<rscale>  1 0.44420140E+03</rscale>
<asrwt>0</asrwt>
<pdfrwt beam="2">  1       21 0.10834395E+00 0.10133232E+04</pdfrwt>
<pdfrwt beam="1">  1        4 0.60402224E-01 0.10133232E+04</pdfrwt>
<totfact> 0.65834028E+01</totfact>
</mgrwt>
</event>
<event>
 6    1  0.1412458E-005  0.1017275E+04  0.7818608E-02  0.9994360E-01
         21   -1    0    0  501  502  0.00000000000E+00  0.00000000000E+00  0.16781020908E+04  0.16781020908E+04  0.00000000000E+00 0.  1.
          4   -1    0    0  502    0 -0.00000000000E+00 -0.00000000000E+00 -0.18448519895E+03  0.18448519895E+03  0.00000000000E+00 0.  1.
    9000010    2    1    2  501    0 -0.87653893639E+02 -0.30296525128E+02  0.14023888161E+04  0.17324963313E+04  0.10130390229E+04 0.  0.
        -13    1    3    3    0    0  0.63996122704E+00 -0.24899596860E+03  0.14669799357E+04  0.14879615401E+04  0.10566000000E+00 0.  1.
          4    1    3    3  501    0 -0.88293854866E+02  0.21869944348E+03 -0.64591119560E+02  0.24453479120E+03  0.00000000000E+00 0.  1.
         13    1    1    2    0    0  0.87653893639E+02  0.30296525128E+02  0.91228075711E+02  0.13009095844E+03  0.10566000000E+00 0. -1.
<mgrwt>
<rscale>  1 0.55898237E+03</rscale>
<asrwt>0</asrwt>
<pdfrwt beam="1">  1       21 0.25816954E+00 0.10172754E+04</pdfrwt>
<pdfrwt beam="2">  1        4 0.28382339E-01 0.10172754E+04</pdfrwt>
<totfact> 0.23283772E+01</totfact>
</mgrwt>
</event>
<event>
 6    1  0.1412458E-005  0.9916601E+03  0.7818608E-02  0.9948797E-01
          4   -1    0    0  502    0 -0.00000000000E+00  0.00000000000E+00  0.20647962543E+03  0.20647962543E+03  0.00000000000E+00 0.  1.
         21   -1    0    0  501  502  0.00000000000E+00 -0.00000000000E+00 -0.16820395651E+04  0.16820395651E+04  0.00000000000E+00 0.  1.
    9000010    2    1    2  501    0  0.61252009909E+02  0.98124570975E+02 -0.14693549720E+04  0.17726798495E+04  0.98489064100E+03 0.  0.
        -13    1    3    3    0    0  0.23966693378E+03  0.48915723080E+03 -0.65539475557E+03  0.85220732946E+03  0.10566000000E+00 0.  1.
          4    1    3    3  501    0 -0.17841492387E+03 -0.39103265982E+03 -0.81396021647E+03  0.92047252002E+03  0.00000000000E+00 0.  1.
         13    1    1    2    0    0 -0.61252009909E+02 -0.98124570975E+02 -0.62049676129E+01  0.11583934105E+03  0.10566000000E+00 0. -1.
<mgrwt>
<rscale>  1 0.57953567E+03</rscale>
<asrwt>0</asrwt>
<pdfrwt beam="2">  1       21 0.25877532E+00 0.99166013E+03</pdfrwt>
<pdfrwt beam="1">  1        4 0.31766095E-01 0.99166013E+03</pdfrwt>
<totfact> 0.18580864E+01</totfact>
</mgrwt>
</event>
<event>
 6    1  0.1412458E-005  0.1062659E+04  0.7818608E-02  0.9510613E-01
          4   -1    0    0  502    0 -0.00000000000E+00  0.00000000000E+00  0.13338216653E+04  0.13338216653E+04  0.00000000000E+00 0.  1.
         21   -1    0    0  501  502  0.00000000000E+00 -0.00000000000E+00 -0.44427705451E+03  0.44427705451E+03  0.00000000000E+00 0.  1.
    9000010    2    1    2  501    0  0.39760457894E+03 -0.78171406041E+02  0.38335057306E+03  0.11296909894E+04  0.98236647930E+03 0.  0.
        -13    1    3    3    0    0  0.38713170340E+03 -0.10297445123E+03 -0.26530272640E+03  0.48047917872E+03  0.10566000000E+00 0.  1.
          4    1    3    3  501    0  0.10472875541E+02  0.24803045189E+02  0.64865329946E+03  0.64921181063E+03  0.00000000000E+00 0.  1.
         13    1    1    2    0    0 -0.39760457894E+03  0.78171406041E+02  0.50619403774E+03  0.64840773046E+03  0.10566000000E+00 0. -1.
<mgrwt>
<rscale>  1 0.83505895E+03</rscale>
<asrwt>0</asrwt>
<pdfrwt beam="2">  1       21 0.68350317E-01 0.10626590E+04</pdfrwt>
<pdfrwt beam="1">  1        4 0.20520333E+00 0.10626590E+04</pdfrwt>
<totfact> 0.90655341E+00</totfact>
</mgrwt>
</event>
<event>
 6    1  0.1412458E-005  0.1269172E+04  0.7818608E-02  0.9182520E-01
         21   -1    0    0  501  502  0.00000000000E+00  0.00000000000E+00  0.18427993133E+04  0.18427993133E+04  0.00000000000E+00 0. -1.
          4   -1    0    0  502    0 -0.00000000000E+00 -0.00000000000E+00 -0.79830879287E+03  0.79830879287E+03  0.00000000000E+00 0.  1.
    9000010    2    1    2  501    0 -0.77270699592E+03 -0.10296292106E+03 -0.81298072899E+02  0.12717734383E+04  0.10015592030E+04 0.  0.
        -13    1    3    3    0    0 -0.32308384513E+03 -0.53464129109E+03  0.75018054183E+02  0.62916786372E+03  0.10566000000E+00 0.  1.
          4    1    3    3  501    0 -0.44962315080E+03  0.43167837003E+03 -0.15631612708E+03  0.64260557457E+03  0.00000000000E+00 0.  1.
         13    1    1    2    0    0  0.77270699592E+03  0.10296292106E+03  0.11257885934E+04  0.13693346679E+04  0.10566000000E+00 0. -1.
<mgrwt>
<rscale>  1 0.11235687E+04</rscale>
<asrwt>0</asrwt>
<pdfrwt beam="1">  1       21 0.28350758E+00 0.12691723E+04</pdfrwt>
<pdfrwt beam="2">  1        4 0.12281674E+00 0.12691723E+04</pdfrwt>
<totfact> 0.62135152E-01</totfact>
</mgrwt>
</event>
<event>
 6    1  0.1412458E-005  0.1165386E+04  0.7818608E-02  0.9305747E-01
          4   -1    0    0  502    0 -0.00000000000E+00  0.00000000000E+00  0.12934683230E+04  0.12934683230E+04  0.00000000000E+00 0.  1.
         21   -1    0    0  501  502  0.00000000000E+00 -0.00000000000E+00 -0.63453135403E+03  0.63453135403E+03  0.00000000000E+00 0.  1.
    9000010    2    1    2  501    0  0.11764391437E+03 -0.62736331397E+03  0.33714342981E+03  0.12131738861E+04  0.97503864919E+03 0.  0.
        -13    1    3    3    0    0 -0.23432572902E+03  0.10644065955E+03  0.30446427736E+03  0.39866862008E+03  0.10566000000E+00 0.  1.
          4    1    3    3  501    0  0.35196964339E+03 -0.73380397352E+03  0.32679152451E+02  0.81450526605E+03  0.00000000000E+00 0.  1.
         13    1    1    2    0    0 -0.11764391437E+03  0.62736331397E+03  0.32179353913E+03  0.71482579087E+03  0.10566000000E+00 0. -1.
<mgrwt>
<rscale>  1 0.10025554E+04</rscale>
<asrwt>0</asrwt>
<pdfrwt beam="2">  1       21 0.97620208E-01 0.11653863E+04</pdfrwt>
<pdfrwt beam="1">  1        4 0.19899513E+00 0.11653863E+04</pdfrwt>
<totfact> 0.42298134E+00</totfact>
</mgrwt>
</event>
<event>
 6    1  0.1412458E-005  0.1030197E+04  0.7818608E-02  0.9808454E-01
         21   -1    0    0  501  502  0.00000000000E+00  0.00000000000E+00  0.98344869445E+03  0.98344869445E+03  0.00000000000E+00 0.  1.
          4   -1    0    0  502    0 -0.00000000000E+00 -0.00000000000E+00 -0.36272593640E+03  0.36272593640E+03  0.00000000000E+00 0.  1.
    9000010    2    1    2  501    0  0.80707244745E+02  0.14089203166E+03  0.56193862105E+03  0.11734904976E+04  0.10173203577E+04 0.  0.
        -13    1    3    3    0    0  0.29581832532E+03  0.34119390130E+03  0.71226448091E+03  0.84335192050E+03  0.10566000000E+00 0.  1.
          4    1    3    3  501    0 -0.21511108057E+03 -0.20030186964E+03 -0.15032585987E+03  0.33013857713E+03  0.00000000000E+00 0.  1.
         13    1    1    2    0    0 -0.80707244745E+02 -0.14089203166E+03  0.58784137001E+02  0.17268413322E+03  0.10566000000E+00 0. -1.
<mgrwt>
<rscale>  1 0.64910801E+03</rscale>
<asrwt>0</asrwt>
<pdfrwt beam="1">  1       21 0.15129980E+00 0.10301966E+04</pdfrwt>
<pdfrwt beam="2">  1        4 0.55803991E-01 0.10301966E+04</pdfrwt>
<totfact> 0.32195126E+01</totfact>
</mgrwt>
</event>
<event>
 6    1  0.1412458E-005  0.1036047E+04  0.7818608E-02  0.9932509E-01
         21   -1    0    0  501  502  0.00000000000E+00  0.00000000000E+00  0.58035263094E+03  0.58035263094E+03  0.00000000000E+00 0.  1.
          4   -1    0    0  502    0 -0.00000000000E+00 -0.00000000000E+00 -0.66917080979E+03  0.66917080979E+03  0.00000000000E+00 0.  1.
    9000010    2    1    2  501    0  0.19203892361E+02  0.10510356635E+03  0.91339781853E+02  0.10400659245E+04  0.10305234701E+04 0.  0.
        -13    1    3    3    0    0 -0.17534865321E+03 -0.37066616035E+03 -0.19239652164E+03  0.45294258501E+03  0.10566000000E+00 0.  1.
          4    1    3    3  501    0  0.19455254557E+03  0.47576972670E+03  0.28373630350E+03  0.58712333948E+03  0.00000000000E+00 0.  1.
         13    1    1    2    0    0 -0.19203892361E+02 -0.10510356635E+03 -0.18015796071E+03  0.20945751625E+03  0.10566000000E+00 0. -1.
<mgrwt>
<rscale>  1 0.58711323E+03</rscale>
<asrwt>0</asrwt>
<pdfrwt beam="1">  1       21 0.89285020E-01 0.10360474E+04</pdfrwt>
<pdfrwt beam="2">  1        4 0.10294936E+00 0.10360474E+04</pdfrwt>
<totfact> 0.31154432E+01</totfact>
</mgrwt>
</event>
<event>
 6    1  0.1412458E-005  0.8159709E+03  0.7818608E-02  0.9800611E-01
          4   -1    0    0  502    0 -0.00000000000E+00  0.00000000000E+00  0.15536346820E+03  0.15536346820E+03  0.00000000000E+00 0.  1.
         21   -1    0    0  501  502  0.00000000000E+00 -0.00000000000E+00 -0.24127554475E+04  0.24127554475E+04  0.00000000000E+00 0.  1.
    9000010    2    1    2  501    0 -0.15495998203E+03  0.29733264945E+03 -0.19475891417E+04  0.21116135929E+04  0.74390133763E+03 0.  0.
        -13    1    3    3    0    0 -0.62536452592E+02  0.18391413045E+03 -0.39885803129E+02  0.19830810305E+03  0.10566000000E+00 0.  1.
          4    1    3    3  501    0 -0.92423529437E+02  0.11341851901E+03 -0.19077033386E+04  0.19133054898E+04  0.00000000000E+00 0.  1.
         13    1    1    2    0    0  0.15495998203E+03 -0.29733264945E+03 -0.30980283761E+03  0.45650532287E+03  0.10566000000E+00 0. -1.
<mgrwt>
<rscale>  1 0.65329768E+03</rscale>
<asrwt>0</asrwt>
<pdfrwt beam="2">  1       21 0.37119314E+00 0.81597089E+03</pdfrwt>
<pdfrwt beam="1">  1        4 0.23902073E-01 0.81597089E+03</pdfrwt>
<totfact> 0.66118091E+00</totfact>
</mgrwt>
</event>
<event>
 6    1  0.1412458E-005  0.1052830E+04  0.7818608E-02  0.9562387E-01
         21   -1    0    0  501  502  0.00000000000E+00  0.00000000000E+00  0.63398908425E+03  0.63398908425E+03  0.00000000000E+00 0. -1.
          4   -1    0    0  502    0 -0.00000000000E+00 -0.00000000000E+00 -0.89710707476E+03  0.89710707476E+03  0.00000000000E+00 0.  1.
    9000010    2    1    2  501    0  0.34804140429E+03  0.74256024980E+01 -0.43945157750E+03  0.11408635313E+04  0.99361156867E+03 0.  0.
        -13    1    3    3    0    0 -0.19370495178E+03  0.14379441063E+03 -0.52304401928E+03  0.57599782824E+03  0.10566000000E+00 0.  1.
          4    1    3    3  501    0  0.54174635608E+03 -0.13636880813E+03  0.83592441784E+02  0.56486570305E+03  0.00000000000E+00 0.  1.
         13    1    1    2    0    0 -0.34804140429E+03 -0.74256024980E+01  0.17633358699E+03  0.39023262772E+03  0.10566000000E+00 0. -1.
<mgrwt>
<rscale>  1 0.79836468E+03</rscale>
<asrwt>0</asrwt>
<pdfrwt beam="1">  1       21 0.97536782E-01 0.10528304E+04</pdfrwt>
<pdfrwt beam="2">  1        4 0.13801647E+00 0.10528304E+04</pdfrwt>
<totfact> 0.11995652E+01</totfact>
</mgrwt>
</event>
<event>
 6    1  0.1412458E-005  0.9903820E+03  0.7818608E-02  0.9862813E-01
          4   -1    0    0  502    0 -0.00000000000E+00  0.00000000000E+00  0.75499536767E+03  0.75499536767E+03  0.00000000000E+00 0.  1.
         21   -1    0    0  501  502  0.00000000000E+00 -0.00000000000E+00 -0.78195612547E+03  0.78195612547E+03  0.00000000000E+00 0.  1.
    9000010    2    1    2  501    0 -0.68577065252E+02 -0.13685218538E+03 -0.44944442761E+03  0.10875921748E+04  0.97848102218E+03 0.  0.
        -13    1    3    3    0    0  0.11188376438E+03  0.38198601934E+03 -0.35210620272E+02  0.39958865680E+03  0.10566000000E+00 0.  1.
          4    1    3    3  501    0 -0.18046082963E+03 -0.51883820472E+03 -0.41423380733E+03  0.68800351805E+03  0.00000000000E+00 0.  1.
         13    1    1    2    0    0  0.68577065252E+02  0.13685218538E+03  0.42248366980E+03  0.44935931829E+03  0.10566000000E+00 0. -1.
<mgrwt>
<rscale>  1 0.62097869E+03</rscale>
<asrwt>0</asrwt>
<pdfrwt beam="2">  1       21 0.12030094E+00 0.99038197E+03</pdfrwt>
<pdfrwt beam="1">  1        4 0.11615313E+00 0.99038197E+03</pdfrwt>
<totfact> 0.11039004E+01</totfact>
</mgrwt>
</event>
<event>
 6    1  0.1412458E-005  0.1069979E+04  0.7818608E-02  0.9523989E-01
          4   -1    0    0  502    0 -0.00000000000E+00  0.00000000000E+00  0.12470573164E+04  0.12470573164E+04  0.00000000000E+00 0.  1.
         21   -1    0    0  501  502  0.00000000000E+00 -0.00000000000E+00 -0.42455136711E+03  0.42455136711E+03  0.00000000000E+00 0. -1.
    9000010    2    1    2  501    0  0.23773729735E+03  0.29499990564E+03  0.67461691162E+03  0.12648960755E+04  0.10006548543E+04 0.  0.
        -13    1    3    3    0    0  0.46330813014E+03  0.24292297306E+03  0.83353379164E+03  0.98409582219E+03  0.10566000000E+00 0.  1.
          4    1    3    3  501    0 -0.22557083278E+03  0.52076932579E+02 -0.15891688001E+03  0.28080025331E+03  0.00000000000E+00 0.  1.
         13    1    1    2    0    0 -0.23773729735E+03 -0.29499990564E+03  0.14788903767E+03  0.40671260800E+03  0.10566000000E+00 0. -1.
<mgrwt>
<rscale>  1 0.82538103E+03</rscale>
<asrwt>0</asrwt>
<pdfrwt beam="2">  1       21 0.65315596E-01 0.10699786E+04</pdfrwt>
<pdfrwt beam="1">  1        4 0.19185497E+00 0.10699786E+04</pdfrwt>
<totfact> 0.12325172E+01</totfact>
</mgrwt>
</event>
<event>
 6    1  0.1412458E-005  0.1052408E+04  0.7818608E-02  0.9541004E-01
          4   -1    0    0  502    0 -0.00000000000E+00  0.00000000000E+00  0.79619300684E+03  0.79619300684E+03  0.00000000000E+00 0.  1.
         21   -1    0    0  501  502  0.00000000000E+00 -0.00000000000E+00 -0.91505067269E+03  0.91505067269E+03  0.00000000000E+00 0.  1.
    9000010    2    1    2  501    0  0.55611952170E+02  0.37116633069E+03 -0.50973573204E+03  0.11693554918E+04  0.98321137876E+03 0.  0.
        -13    1    3    3    0    0  0.47303263139E+03  0.84915793243E+01 -0.10641696923E+03  0.48492943794E+03  0.10566000000E+00 0.  1.
          4    1    3    3  501    0 -0.41742067922E+03  0.36267475136E+03 -0.40331876282E+03  0.68442605382E+03  0.00000000000E+00 0.  1.
         13    1    1    2    0    0 -0.55611952170E+02 -0.37116633069E+03  0.39087806619E+03  0.54188818778E+03  0.10566000000E+00 0. -1.
<mgrwt>
<rscale>  1 0.81327110E+03</rscale>
<asrwt>0</asrwt>
<pdfrwt beam="2">  1       21 0.14077703E+00 0.10524076E+04</pdfrwt>
<pdfrwt beam="1">  1        4 0.12249123E+00 0.10524076E+04</pdfrwt>
<totfact> 0.63101286E+00</totfact>
</mgrwt>
</event>
<event>
 6    1  0.1412458E-005  0.1032955E+04  0.7818608E-02  0.9673327E-01
         21   -1    0    0  501  502  0.00000000000E+00  0.00000000000E+00  0.20981653874E+04  0.20981653874E+04  0.00000000000E+00 0.  1.
          4   -1    0    0  502    0 -0.00000000000E+00 -0.00000000000E+00 -0.21902691623E+03  0.21902691623E+03  0.00000000000E+00 0.  1.
    9000010    2    1    2  501    0 -0.12523930513E+03 -0.21918119515E+03  0.17537051858E+04  0.20353079300E+04  0.10016342702E+04 0.  0.
        -13    1    3    3    0    0  0.17980983930E+02 -0.59045635010E+03  0.74389453819E+03  0.94991637120E+03  0.10566000000E+00 0.  1.
          4    1    3    3  501    0 -0.14322028906E+03  0.37127515494E+03  0.10098106476E+04  0.10853915588E+04  0.00000000000E+00 0.  1.
         13    1    1    2    0    0  0.12523930513E+03  0.21918119515E+03  0.12543328538E+03  0.28188437364E+03  0.10566000000E+00 0. -1.
<mgrwt>
<rscale>  1 0.72627334E+03</rscale>
<asrwt>0</asrwt>
<pdfrwt beam="1">  1       21 0.32279466E+00 0.10329552E+04</pdfrwt>
<pdfrwt beam="2">  1        4 0.33696450E-01 0.10329552E+04</pdfrwt>
<totfact> 0.65443614E+00</totfact>
</mgrwt>
</event>
<event>
 6    1  0.1412458E-005  0.1040501E+04  0.7818608E-02  0.9618294E-01
         21   -1    0    0  501  502  0.00000000000E+00  0.00000000000E+00  0.53779136938E+03  0.53779136938E+03  0.00000000000E+00 0.  1.
          4   -1    0    0  502    0 -0.00000000000E+00 -0.00000000000E+00 -0.88424640285E+03  0.88424640285E+03  0.00000000000E+00 0.  1.
    9000010    2    1    2  501    0 -0.27774300262E+03  0.10710055676E+03 -0.11874775119E+03  0.10472547386E+04  0.99701040829E+03 0.  0.
        -13    1    3    3    0    0 -0.35784010720E+03 -0.81911062274E+02  0.36750774459E+03  0.51944289190E+03  0.10566000000E+00 0.  1.
          4    1    3    3  501    0  0.80097104579E+02  0.18901161904E+03 -0.48625549578E+03  0.52781184666E+03  0.00000000000E+00 0.  1.
         13    1    1    2    0    0  0.27774300262E+03 -0.10710055676E+03 -0.22770728227E+03  0.37478303367E+03  0.10566000000E+00 0. -1.
<mgrwt>
<rscale>  1 0.76097106E+03</rscale>
<asrwt>0</asrwt>
<pdfrwt beam="1">  1       21 0.82737134E-01 0.10405006E+04</pdfrwt>
<pdfrwt beam="2">  1        4 0.13603791E+00 0.10405006E+04</pdfrwt>
<totfact> 0.18562501E+01</totfact>
</mgrwt>
</event>
<event>
 6    1  0.1412458E-005  0.1069185E+04  0.7818608E-02  0.9440108E-01
         21   -1    0    0  501  502  0.00000000000E+00  0.00000000000E+00  0.16305903092E+04  0.16305903092E+04  0.00000000000E+00 0. -1.
          4   -1    0    0  502    0 -0.00000000000E+00 -0.00000000000E+00 -0.39233474793E+03  0.39233474793E+03  0.00000000000E+00 0.  1.
    9000010    2    1    2  501    0  0.27536155891E+03  0.42905831213E+03  0.68099120197E+03  0.12676379590E+04  0.93980953098E+03 0.  0.
        -13    1    3    3    0    0 -0.28680367876E+03  0.37790578144E+03  0.46187141601E+03  0.66211354456E+03  0.10566000000E+00 0.  1.
          4    1    3    3  501    0  0.56216523767E+03  0.51152530689E+02  0.21911978595E+03  0.60552441440E+03  0.00000000000E+00 0.  1.
         13    1    1    2    0    0 -0.27536155891E+03 -0.42905831213E+03  0.55726435928E+03  0.75528709814E+03  0.10566000000E+00 0. -1.
<mgrwt>
<rscale>  1 0.88847187E+03</rscale>
<asrwt>0</asrwt>
<pdfrwt beam="1">  1       21 0.25086004E+00 0.10691852E+04</pdfrwt>
<pdfrwt beam="2">  1        4 0.60359193E-01 0.10691852E+04</pdfrwt>
<totfact> 0.54558405E+00</totfact>
</mgrwt>
</event>
<event>
 6    1  0.1412458E-005  0.1006264E+04  0.7818608E-02  0.1011357E+00
          4   -1    0    0  502    0 -0.00000000000E+00  0.00000000000E+00  0.31612754559E+03  0.31612754559E+03  0.00000000000E+00 0.  1.
         21   -1    0    0  501  502  0.00000000000E+00 -0.00000000000E+00 -0.91605609405E+03  0.91605609405E+03  0.00000000000E+00 0.  1.
    9000010    2    1    2  501    0  0.26771784964E+02 -0.60412069724E+02 -0.53544066098E+03  0.11398524670E+04  0.10040919273E+04 0.  0.
        -13    1    3    3    0    0 -0.37667949668E+03  0.26213827337E+03 -0.39257895129E+03  0.60392231433E+03  0.10566000000E+00 0.  1.
          4    1    3    3  501    0  0.40345128164E+03 -0.32255034310E+03 -0.14286170969E+03  0.53593015271E+03  0.00000000000E+00 0.  1.
         13    1    1    2    0    0 -0.26771784964E+02  0.60412069724E+02 -0.64487887483E+02  0.92331172605E+02  0.10566000000E+00 0. -1.
<mgrwt>
<rscale>  1 0.50938819E+03</rscale>
<asrwt>0</asrwt>
<pdfrwt beam="2">  1       21 0.14093170E+00 0.10062639E+04</pdfrwt>
<pdfrwt beam="1">  1        4 0.48635008E-01 0.10062639E+04</pdfrwt>
<totfact> 0.52597568E+01</totfact>
</mgrwt>
</event>
<event>
 6    1  0.1412458E-005  0.1117218E+04  0.7818608E-02  0.9419798E-01
          4   -1    0    0  502    0 -0.00000000000E+00  0.00000000000E+00  0.33743816311E+03  0.33743816311E+03  0.00000000000E+00 0.  1.
         21   -1    0    0  501  502  0.00000000000E+00 -0.00000000000E+00 -0.20859558707E+04  0.20859558707E+04  0.00000000000E+00 0. -1.
    9000010    2    1    2  501    0 -0.35754635219E+03  0.32066414174E+03 -0.84724632835E+03  0.14021423528E+04  0.10087179739E+04 0.  0.
        -13    1    3    3    0    0  0.22372112634E+03 -0.67078870492E+02  0.74808793640E+02  0.24524902448E+03  0.10566000000E+00 0.  1.
          4    1    3    3  501    0 -0.58126747853E+03  0.38774301224E+03 -0.92205512199E+03  0.11568933283E+04  0.00000000000E+00 0.  1.
         13    1    1    2    0    0  0.35754635219E+03 -0.32066414174E+03 -0.90127137921E+03  0.10212516810E+04  0.10566000000E+00 0. -1.
<mgrwt>
<rscale>  1 0.90464104E+03</rscale>
<asrwt>0</asrwt>
<pdfrwt beam="2">  1       21 0.32091629E+00 0.11172183E+04</pdfrwt>
<pdfrwt beam="1">  1        4 0.51913563E-01 0.11172183E+04</pdfrwt>
<totfact> 0.27253786E+00</totfact>
</mgrwt>
</event>
<event>
 6    1  0.1412458E-005  0.1024219E+04  0.7818608E-02  0.9745138E-01
         21   -1    0    0  501  502  0.00000000000E+00  0.00000000000E+00  0.21244754945E+03  0.21244754945E+03  0.00000000000E+00 0.  1.
          4   -1    0    0  502    0 -0.00000000000E+00 -0.00000000000E+00 -0.19327992077E+04  0.19327992077E+04  0.00000000000E+00 0.  1.
    9000010    2    1    2  501    0  0.14689032173E+03 -0.14102275704E+03 -0.11517464590E+04  0.15412798141E+04  0.10037725712E+04 0.  0.
        -13    1    3    3    0    0  0.81360982494E+02  0.37674196590E+03 -0.15355962014E+03  0.41489117422E+03  0.10566000000E+00 0.  1.
          4    1    3    3  501    0  0.65529339232E+02 -0.51776472294E+03 -0.99818683890E+03  0.11263886398E+04  0.00000000000E+00 0.  1.
         13    1    1    2    0    0 -0.14689032173E+03  0.14102275704E+03 -0.56860519924E+03  0.60396694312E+03  0.10566000000E+00 0. -1.
<mgrwt>
<rscale>  1 0.68391735E+03</rscale>
<asrwt>0</asrwt>
<pdfrwt beam="1">  1       21 0.32684239E-01 0.10242185E+04</pdfrwt>
<pdfrwt beam="2">  1        4 0.29735372E+00 0.10242185E+04</pdfrwt>
<totfact> 0.11814168E+01</totfact>
</mgrwt>
</event>
<event>
 6    1  0.1412458E-005  0.1000354E+04  0.7818608E-02  0.9916826E-01
         21   -1    0    0  501  502  0.00000000000E+00  0.00000000000E+00  0.41259451299E+03  0.41259451299E+03  0.00000000000E+00 0.  1.
          4   -1    0    0  502    0 -0.00000000000E+00 -0.00000000000E+00 -0.80765529976E+03  0.80765529976E+03  0.00000000000E+00 0.  1.
    9000010    2    1    2  501    0  0.84007733855E+02  0.92295526841E+02 -0.25438386813E+03  0.10321919221E+04  0.99253878923E+03 0.  0.
        -13    1    3    3    0    0 -0.43510445577E+03 -0.86622329600E+02 -0.50617371153E+02  0.44652149427E+03  0.10566000000E+00 0.  1.
          4    1    3    3  501    0  0.51911218963E+03  0.17891785644E+03 -0.20376649698E+03  0.58567042786E+03  0.00000000000E+00 0.  1.
         13    1    1    2    0    0 -0.84007733855E+02 -0.92295526841E+02 -0.14067691864E+03  0.18805789062E+03  0.10566000000E+00 0. -1.
<mgrwt>
<rscale>  1 0.59452707E+03</rscale>
<asrwt>0</asrwt>
<pdfrwt beam="1">  1       21 0.63476080E-01 0.10003544E+04</pdfrwt>
<pdfrwt beam="2">  1        4 0.12425466E+00 0.10003544E+04</pdfrwt>
<totfact> 0.43349860E+01</totfact>
</mgrwt>
</event>
<event>
 6    1  0.1412458E-005  0.1016297E+04  0.7818608E-02  0.9756005E-01
          4   -1    0    0  502    0 -0.00000000000E+00  0.00000000000E+00  0.36910848683E+03  0.36910848683E+03  0.00000000000E+00 0.  1.
         21   -1    0    0  501  502  0.00000000000E+00 -0.00000000000E+00 -0.12462269528E+04  0.12462269528E+04  0.00000000000E+00 0. -1.
    9000010    2    1    2  501    0  0.50835590113E+01 -0.20097980464E+03 -0.95986614353E+03  0.13979281864E+04  0.99621356969E+03 0.  0.
        -13    1    3    3    0    0  0.30377565762E+03  0.13258730361E+03  0.79603083111E+01  0.33154550353E+03  0.10566000000E+00 0.  1.
          4    1    3    3  501    0 -0.29869209860E+03 -0.33356710825E+03 -0.96782645184E+03  0.10663826829E+04  0.00000000000E+00 0.  1.
         13    1    1    2    0    0 -0.50835590113E+01  0.20097980464E+03  0.82747677560E+02  0.21740725322E+03  0.10566000000E+00 0. -1.
<mgrwt>
<rscale>  1 0.67777948E+03</rscale>
<asrwt>0</asrwt>
<pdfrwt beam="2">  1       21 0.19172722E+00 0.10162973E+04</pdfrwt>
<pdfrwt beam="1">  1        4 0.56785922E-01 0.10162973E+04</pdfrwt>
<totfact> 0.15481745E+01</totfact>
</mgrwt>
</event>
<event>
 6    1  0.1412458E-005  0.1080871E+04  0.7818608E-02  0.9494755E-01
          4   -1    0    0  502    0 -0.00000000000E+00  0.00000000000E+00  0.10310428607E+04  0.10310428607E+04  0.00000000000E+00 0.  1.
         21   -1    0    0  501  502  0.00000000000E+00 -0.00000000000E+00 -0.56767149205E+03  0.56767149205E+03  0.00000000000E+00 0. -1.
    9000010    2    1    2  501    0 -0.17627120182E+03 -0.36688468680E+03  0.16354668776E+03  0.10931742847E+04  0.10013024456E+04 0.  0.
        -13    1    3    3    0    0  0.37114525322E+03 -0.22836720262E+03  0.27816722998E+03  0.51698877862E+03  0.10566000000E+00 0.  1.
          4    1    3    3  501    0 -0.54741645504E+03 -0.13851748419E+03 -0.11462054222E+03  0.57618550605E+03  0.00000000000E+00 0.  1.
         13    1    1    2    0    0  0.17627120182E+03  0.36688468680E+03  0.29982468091E+03  0.50554006809E+03  0.10566000000E+00 0. -1.
<mgrwt>
<rscale>  1 0.84671621E+03</rscale>
<asrwt>0</asrwt>
<pdfrwt beam="2">  1       21 0.87334076E-01 0.10808712E+04</pdfrwt>
<pdfrwt beam="1">  1        4 0.15862198E+00 0.10808712E+04</pdfrwt>
<totfact> 0.10775847E+01</totfact>
</mgrwt>
</event>
<event>
 6    1  0.1412458E-005  0.1022560E+04  0.7818608E-02  0.9707950E-01
          4   -1    0    0  502    0 -0.00000000000E+00  0.00000000000E+00  0.77800594928E+03  0.77800594928E+03  0.00000000000E+00 0.  1.
         21   -1    0    0  501  502  0.00000000000E+00 -0.00000000000E+00 -0.50581773657E+03  0.50581773657E+03  0.00000000000E+00 0.  1.
    9000010    2    1    2  501    0 -0.19648931479E+03  0.12266997868E+03  0.23506601532E+03  0.10492303287E+04  0.99597805031E+03 0.  0.
        -13    1    3    3    0    0  0.20017487291E+03  0.44586175335E+03  0.63467320196E+01  0.48877701973E+03  0.10566000000E+00 0.  1.
          4    1    3    3  501    0 -0.39666418771E+03 -0.32319177467E+03  0.22871928330E+03  0.56045330901E+03  0.00000000000E+00 0.  1.
         13    1    1    2    0    0  0.19648931479E+03 -0.12266997868E+03  0.37122197395E+02  0.23459335711E+03  0.10566000000E+00 0. -1.
<mgrwt>
<rscale>  1 0.70545419E+03</rscale>
<asrwt>0</asrwt>
<pdfrwt beam="2">  1       21 0.77818114E-01 0.10225597E+04</pdfrwt>
<pdfrwt beam="1">  1        4 0.11969322E+00 0.10225597E+04</pdfrwt>
<totfact> 0.29807414E+01</totfact>
</mgrwt>
</event>
<event>
 6    1  0.1412458E-005  0.1153126E+04  0.7818608E-02  0.9349857E-01
          4   -1    0    0  502    0 -0.00000000000E+00  0.00000000000E+00  0.12422147993E+04  0.12422147993E+04  0.00000000000E+00 0.  1.
         21   -1    0    0  501  502  0.00000000000E+00 -0.00000000000E+00 -0.60044736945E+03  0.60044736945E+03  0.00000000000E+00 0.  1.
    9000010    2    1    2  501    0  0.27997552532E+03 -0.48654188211E+03  0.32474008165E+03  0.11979795736E+04  0.10072684053E+04 0.  0.
        -13    1    3    3    0    0 -0.13541322372E+03 -0.25927369472E+03  0.58762489457E+03  0.65640126280E+03  0.10566000000E+00 0.  1.
          4    1    3    3  501    0  0.41538874905E+03 -0.22726818739E+03 -0.26288481291E+03  0.54157831077E+03  0.00000000000E+00 0.  1.
         13    1    1    2    0    0 -0.27997552532E+03  0.48654188211E+03  0.31702734816E+03  0.64468259514E+03  0.10566000000E+00 0. -1.
<mgrwt>
<rscale>  1 0.96319706E+03</rscale>
<asrwt>0</asrwt>
<pdfrwt beam="2">  1       21 0.92376518E-01 0.11531257E+04</pdfrwt>
<pdfrwt beam="1">  1        4 0.19110997E+00 0.11531257E+04</pdfrwt>
<totfact> 0.54797862E+00</totfact>
</mgrwt>
</event>
<event>
 6    1  0.1412458E-005  0.1038808E+04  0.7818608E-02  0.9814174E-01
          4   -1    0    0  502    0 -0.00000000000E+00  0.00000000000E+00  0.28078197354E+03  0.28078197354E+03  0.00000000000E+00 0.  1.
         21   -1    0    0  501  502  0.00000000000E+00 -0.00000000000E+00 -0.15083670229E+04  0.15083670229E+04  0.00000000000E+00 0.  1.
    9000010    2    1    2  501    0 -0.15521484979E+03 -0.80985888138E+01 -0.12572792875E+04  0.16309118463E+04  0.10271148947E+04 0.  0.
        -13    1    3    3    0    0 -0.39234254976E+03  0.35073676598E+03 -0.36520840779E+03  0.64056705164E+03  0.10566000000E+00 0.  1.
          4    1    3    3  501    0  0.23712769997E+03 -0.35883535479E+03 -0.89207087973E+03  0.99034479470E+03  0.00000000000E+00 0.  1.
         13    1    1    2    0    0  0.15521484979E+03  0.80985888138E+01  0.29694238141E+02  0.15823715012E+03  0.10566000000E+00 0. -1.
<mgrwt>
<rscale>  1 0.64607424E+03</rscale>
<asrwt>0</asrwt>
<pdfrwt beam="2">  1       21 0.23205647E+00 0.10388081E+04</pdfrwt>
<pdfrwt beam="1">  1        4 0.43197226E-01 0.10388081E+04</pdfrwt>
<totfact> 0.14713863E+01</totfact>
</mgrwt>
</event>
<event>
 6    1  0.1412458E-005  0.1012565E+04  0.7818608E-02  0.9756657E-01
         21   -1    0    0  501  502  0.00000000000E+00  0.00000000000E+00  0.15831236736E+04  0.15831236736E+04  0.00000000000E+00 0.  1.
          4   -1    0    0  502    0 -0.00000000000E+00 -0.00000000000E+00 -0.28483751401E+03  0.28483751401E+03  0.00000000000E+00 0.  1.
    9000010    2    1    2  501    0 -0.18987150727E+03 -0.71356877398E+02  0.13203642547E+04  0.16639257822E+04  0.99204044796E+03 0.  0.
        -13    1    3    3    0    0 -0.59783480540E+03 -0.18266010911E+01  0.74591678816E+03  0.95592973437E+03  0.10566000000E+00 0.  1.
          4    1    3    3  501    0  0.40796329813E+03 -0.69530276307E+02  0.57444746651E+03  0.70799604782E+03  0.00000000000E+00 0.  1.
         13    1    1    2    0    0  0.18987150727E+03  0.71356877398E+02 -0.22078095067E+02  0.20403540544E+03  0.10566000000E+00 0. -1.
<mgrwt>
<rscale>  1 0.67741387E+03</rscale>
<asrwt>0</asrwt>
<pdfrwt beam="1">  1       21 0.24355748E+00 0.10125647E+04</pdfrwt>
<pdfrwt beam="2">  1        4 0.43821157E-01 0.10125647E+04</pdfrwt>
<totfact> 0.12087666E+01</totfact>
</mgrwt>
</event>
<event>
 6    1  0.1412458E-005  0.1008648E+04  0.7818608E-02  0.9899885E-01
          4   -1    0    0  502    0 -0.00000000000E+00  0.00000000000E+00  0.22691836978E+03  0.22691836978E+03  0.00000000000E+00 0.  1.
         21   -1    0    0  501  502  0.00000000000E+00 -0.00000000000E+00 -0.17413921181E+04  0.17413921181E+04  0.00000000000E+00 0.  1.
    9000010    2    1    2  501    0  0.11825994699E+03  0.50412781543E+02 -0.15363919522E+04  0.18378985159E+04  0.10004218413E+04 0.  0.
        -13    1    3    3    0    0 -0.20620223742E+03 -0.39904792710E+03 -0.78061040150E+03  0.90061713337E+03  0.10566000000E+00 0.  1.
          4    1    3    3  501    0  0.32446218440E+03  0.44946070864E+03 -0.75578155066E+03  0.93728138253E+03  0.00000000000E+00 0.  1.
         13    1    1    2    0    0 -0.11825994699E+03 -0.50412781543E+02  0.21918203864E+02  0.13041197195E+03  0.10566000000E+00 0. -1.
<mgrwt>
<rscale>  1 0.60266859E+03</rscale>
<asrwt>0</asrwt>
<pdfrwt beam="2">  1       21 0.26790647E+00 0.10086480E+04</pdfrwt>
<pdfrwt beam="1">  1        4 0.34910520E-01 0.10086480E+04</pdfrwt>
<totfact> 0.13463596E+01</totfact>
</mgrwt>
</event>
<event>
 6    1  0.1412458E-005  0.1027001E+04  0.7818608E-02  0.9821216E-01
          4   -1    0    0  502    0 -0.00000000000E+00  0.00000000000E+00  0.12425040247E+04  0.12425040247E+04  0.00000000000E+00 0.  1.
         21   -1    0    0  501  502  0.00000000000E+00 -0.00000000000E+00 -0.31511676259E+03  0.31511676259E+03  0.00000000000E+00 0.  1.
    9000010    2    1    2  501    0  0.11159925075E+03  0.11069147849E+03  0.58755067977E+03  0.11831933443E+04  0.10149008290E+04 0.  0.
        -13    1    3    3    0    0  0.48133163026E+03  0.29206990217E+03  0.15071302283E+03  0.58283736365E+03  0.10566000000E+00 0.  1.
          4    1    3    3  501    0 -0.36973237951E+03 -0.18137842368E+03  0.43683765694E+03  0.60035598069E+03  0.00000000000E+00 0.  1.
         13    1    1    2    0    0 -0.11159925075E+03 -0.11069147849E+03  0.33983658237E+03  0.37442744299E+03  0.10566000000E+00 0. -1.
<mgrwt>
<rscale>  1 0.64236314E+03</rscale>
<asrwt>0</asrwt>
<pdfrwt beam="2">  1       21 0.48479503E-01 0.10270008E+04</pdfrwt>
<pdfrwt beam="1">  1        4 0.19115446E+00 0.10270008E+04</pdfrwt>
<totfact> 0.24161319E+01</totfact>
</mgrwt>
</event>
<event>
 6    1  0.1412458E-005  0.1016384E+04  0.7818608E-02  0.9720436E-01
          4   -1    0    0  502    0 -0.00000000000E+00  0.00000000000E+00  0.16504155188E+04  0.16504155188E+04  0.00000000000E+00 0.  1.
         21   -1    0    0  501  502  0.00000000000E+00 -0.00000000000E+00 -0.23896956622E+03  0.23896956622E+03  0.00000000000E+00 0.  1.
    9000010    2    1    2  501    0  0.72529872741E+02  0.21429967251E+03  0.10379694056E+04  0.14527276972E+04  0.99088462650E+03 0.  0.
        -13    1    3    3    0    0 -0.32755517098E+03  0.26666614919E+03  0.10351258521E+03  0.43487709944E+03  0.10566000000E+00 0.  1.
          4    1    3    3  501    0  0.40008504372E+03 -0.52366476673E+02  0.93445682039E+03  0.10178505977E+04  0.00000000000E+00 0.  1.
         13    1    1    2    0    0 -0.72529872741E+02 -0.21429967251E+03  0.37347654703E+03  0.43665738792E+03  0.10566000000E+00 0. -1.
<mgrwt>
<rscale>  1 0.69812996E+03</rscale>
<asrwt>0</asrwt>
<pdfrwt beam="2">  1       21 0.36764550E-01 0.10163844E+04</pdfrwt>
<pdfrwt beam="1">  1        4 0.25391007E+00 0.10163844E+04</pdfrwt>
<totfact> 0.17204810E+01</totfact>
</mgrwt>
</event>
<event>
 6    1  0.1412458E-005  0.1006815E+04  0.7818608E-02  0.1006128E+00
          4   -1    0    0  502    0 -0.00000000000E+00  0.00000000000E+00  0.30626959176E+03  0.30626959176E+03  0.00000000000E+00 0.  1.
         21   -1    0    0  501  502  0.00000000000E+00 -0.00000000000E+00 -0.12325074992E+04  0.12325074992E+04  0.00000000000E+00 0.  1.
    9000010    2    1    2  501    0 -0.36941473263E+02 -0.68201773861E+02 -0.10089668997E+04  0.14253740410E+04  0.10038230908E+04 0.  0.
        -13    1    3    3    0    0 -0.40877396046E+03 -0.95732130360E+02 -0.84092912592E+02  0.42817335350E+03  0.10566000000E+00 0.  1.
          4    1    3    3  501    0  0.37183248720E+03  0.27530356499E+02 -0.92487398711E+03  0.99720068748E+03  0.00000000000E+00 0.  1.
         13    1    1    2    0    0  0.36941473263E+02  0.68201773861E+02  0.82728992304E+02  0.11340304994E+03  0.10566000000E+00 0. -1.
<mgrwt>
<rscale>  1 0.53042906E+03</rscale>
<asrwt>0</asrwt>
<pdfrwt beam="2">  1       21 0.18961654E+00 0.10068153E+04</pdfrwt>
<pdfrwt beam="1">  1        4 0.47118399E-01 0.10068153E+04</pdfrwt>
<totfact> 0.23838268E+01</totfact>
</mgrwt>
</event>
<event>
 6    1  0.1412458E-005  0.1091025E+04  0.7818608E-02  0.9433488E-01
         21   -1    0    0  501  502  0.00000000000E+00  0.00000000000E+00  0.12467434578E+04  0.12467434578E+04  0.00000000000E+00 0.  1.
          4   -1    0    0  502    0 -0.00000000000E+00 -0.00000000000E+00 -0.57869685519E+03  0.57869685519E+03  0.00000000000E+00 0.  1.
    9000010    2    1    2  501    0  0.38290651057E+03  0.30768596540E+03  0.75473986131E+03  0.13266379659E+04  0.97419093882E+03 0.  0.
        -13    1    3    3    0    0 -0.35431877341E+02  0.19991342307E+02  0.81441216256E+03  0.81542765062E+03  0.10566000000E+00 0.  1.
          4    1    3    3  501    0  0.41833838791E+03  0.28769462310E+03 -0.59672301251E+02  0.51121031532E+03  0.00000000000E+00 0.  1.
         13    1    1    2    0    0 -0.38290651057E+03 -0.30768596540E+03 -0.86693258715E+02  0.49880234704E+03  0.10566000000E+00 0. -1.
<mgrwt>
<rscale>  1 0.89370270E+03</rscale>
<asrwt>0</asrwt>
<pdfrwt beam="1">  1       21 0.19180668E+00 0.10910252E+04</pdfrwt>
<pdfrwt beam="2">  1        4 0.89030286E-01 0.10910252E+04</pdfrwt>
<totfact> 0.55688607E+00</totfact>
</mgrwt>
</event>
<event>
 6    1  0.1412458E-005  0.1007287E+04  0.7818608E-02  0.9805763E-01
          4   -1    0    0  502    0 -0.00000000000E+00  0.00000000000E+00  0.40192783392E+03  0.40192783392E+03  0.00000000000E+00 0.  1.
         21   -1    0    0  501  502  0.00000000000E+00 -0.00000000000E+00 -0.10864298157E+04  0.10864298157E+04  0.00000000000E+00 0.  1.
    9000010    2    1    2  501    0 -0.17295775105E+03 -0.28209801806E+02 -0.79323089467E+03  0.12821243733E+04  0.99192614634E+03 0.  0.
        -13    1    3    3    0    0  0.15901760136E+03 -0.10033102554E+03 -0.90512820181E+03  0.92445118048E+03  0.10566000000E+00 0.  1.
          4    1    3    3  501    0 -0.33197535241E+03  0.72121223738E+02  0.11189730713E+03  0.35767319282E+03  0.00000000000E+00 0.  1.
         13    1    1    2    0    0  0.17295775105E+03  0.28209801806E+02  0.10872891294E+03  0.20623327626E+03  0.10566000000E+00 0. -1.
<mgrwt>
<rscale>  1 0.65054197E+03</rscale>
<asrwt>0</asrwt>
<pdfrwt beam="2">  1       21 0.16714305E+00 0.10072873E+04</pdfrwt>
<pdfrwt beam="1">  1        4 0.61835051E-01 0.10072873E+04</pdfrwt>
<totfact> 0.19439853E+01</totfact>
</mgrwt>
</event>
<event>
 6    1  0.1412458E-005  0.9953900E+03  0.7818608E-02  0.9947103E-01
          4   -1    0    0  502    0 -0.00000000000E+00  0.00000000000E+00  0.10666271105E+04  0.10666271105E+04  0.00000000000E+00 0.  1.
         21   -1    0    0  501  502  0.00000000000E+00 -0.00000000000E+00 -0.31040276958E+03  0.31040276958E+03  0.00000000000E+00 0.  1.
    9000010    2    1    2  501    0 -0.11499504346E+03  0.55601581851E+00  0.54074988144E+03  0.11327893777E+04  0.98872502279E+03 0.  0.
        -13    1    3    3    0    0  0.33844962950E+03 -0.98500378502E+02  0.56730045659E+03  0.66789242808E+03  0.10566000000E+00 0.  1.
          4    1    3    3  501    0 -0.45344467297E+03  0.99056394320E+02 -0.26550575145E+02  0.46489694959E+03  0.00000000000E+00 0.  1.
         13    1    1    2    0    0  0.11499504346E+03 -0.55601581851E+00  0.21547445951E+03  0.24424050246E+03  0.10566000000E+00 0. -1.
<mgrwt>
<rscale>  1 0.58031803E+03</rscale>
<asrwt>0</asrwt>
<pdfrwt beam="2">  1       21 0.47754273E-01 0.99539004E+03</pdfrwt>
<pdfrwt beam="1">  1        4 0.16409648E+00 0.99539004E+03</pdfrwt>
<totfact> 0.38798974E+01</totfact>
</mgrwt>
</event>
<event>
 6    1  0.1412458E-005  0.1062739E+04  0.7818608E-02  0.9595727E-01
         21   -1    0    0  501  502  0.00000000000E+00  0.00000000000E+00  0.12395830043E+04  0.12395830043E+04  0.00000000000E+00 0.  1.
          4   -1    0    0  502    0 -0.00000000000E+00 -0.00000000000E+00 -0.41678694129E+03  0.41678694129E+03  0.00000000000E+00 0.  1.
    9000010    2    1    2  501    0 -0.18076358698E+02  0.30125248418E+03  0.39700719983E+03  0.11344734222E+04  0.10189874459E+04 0.  0.
        -13    1    3    3    0    0 -0.33622796422E+03 -0.21275756465E+03  0.34693029309E+03  0.52789739976E+03  0.10566000000E+00 0.  1.
          4    1    3    3  501    0  0.31815160553E+03  0.51401004883E+03  0.50076906742E+02  0.60657602243E+03  0.00000000000E+00 0.  1.
         13    1    1    2    0    0  0.18076358698E+02 -0.30125248418E+03  0.42578886323E+03  0.52189652344E+03  0.10566000000E+00 0. -1.
<mgrwt>
<rscale>  1 0.77579673E+03</rscale>
<asrwt>0</asrwt>
<pdfrwt beam="1">  1       21 0.19070508E+00 0.10627395E+04</pdfrwt>
<pdfrwt beam="2">  1        4 0.64121068E-01 0.10627395E+04</pdfrwt>
<totfact> 0.12007076E+01</totfact>
</mgrwt>
</event>
<event>
 6    1  0.1412458E-005  0.1004952E+04  0.7818608E-02  0.9846306E-01
         21   -1    0    0  501  502  0.00000000000E+00  0.00000000000E+00  0.42676092476E+03  0.42676092476E+03  0.00000000000E+00 0.  1.
          4   -1    0    0  502    0 -0.00000000000E+00 -0.00000000000E+00 -0.79000417791E+03  0.79000417791E+03  0.00000000000E+00 0.  1.
    9000010    2    1    2  501    0 -0.46525386473E+02 -0.14741129620E+03 -0.33715141856E+03  0.10599993640E+04  0.99299187848E+03 0.  0.
        -13    1    3    3    0    0 -0.44549726413E+03 -0.34118446040E+03 -0.20062919298E+03  0.59592510654E+03  0.10566000000E+00 0.  1.
          4    1    3    3  501    0  0.39897187766E+03  0.19377316420E+03 -0.13652222558E+03  0.46407425742E+03  0.00000000000E+00 0.  1.
         13    1    1    2    0    0  0.46525386473E+02  0.14741129620E+03 -0.26091834588E+02  0.15676573870E+03  0.10566000000E+00 0. -1.
<mgrwt>
<rscale>  1 0.62935635E+03</rscale>
<asrwt>0</asrwt>
<pdfrwt beam="1">  1       21 0.65655527E-01 0.10049515E+04</pdfrwt>
<pdfrwt beam="2">  1        4 0.12153910E+00 0.10049515E+04</pdfrwt>
<totfact> 0.42468266E+01</totfact>
</mgrwt>
</event>
<event>
 6    1  0.1412458E-005  0.1098718E+04  0.7818608E-02  0.9439971E-01
          4   -1    0    0  502    0 -0.00000000000E+00  0.00000000000E+00  0.49864181549E+03  0.49864181549E+03  0.00000000000E+00 0.  1.
         21   -1    0    0  501  502  0.00000000000E+00 -0.00000000000E+00 -0.14265504012E+04  0.14265504012E+04  0.00000000000E+00 0.  1.
    9000010    2    1    2  501    0  0.18568175815E+03 -0.43180094991E+03 -0.95307546725E+03  0.14544872574E+04  0.99310148519E+03 0.  0.
        -13    1    3    3    0    0  0.42335268365E+03  0.51302387361E+02 -0.77997458688E+03  0.88894307863E+03  0.10566000000E+00 0.  1.
          4    1    3    3  501    0 -0.23767092550E+03 -0.48310333727E+03 -0.17310088037E+03  0.56554417873E+03  0.00000000000E+00 0.  1.
         13    1    1    2    0    0 -0.18568175815E+03  0.43180094991E+03  0.25166881543E+02  0.47070495933E+03  0.10566000000E+00 0. -1.
<mgrwt>
<rscale>  1 0.88857961E+03</rscale>
<asrwt>0</asrwt>
<pdfrwt beam="2">  1       21 0.21946929E+00 0.10987176E+04</pdfrwt>
<pdfrwt beam="1">  1        4 0.76714126E-01 0.10987176E+04</pdfrwt>
<totfact> 0.50852783E+00</totfact>
</mgrwt>
</event>
<event>
 6    1  0.1412458E-005  0.7744888E+03  0.7818608E-02  0.1042468E+00
          4   -1    0    0  502    0 -0.00000000000E+00  0.00000000000E+00  0.92636662091E+02  0.92636662091E+02  0.00000000000E+00 0.  1.
         21   -1    0    0  501  502  0.00000000000E+00 -0.00000000000E+00 -0.18705932733E+04  0.18705932733E+04  0.00000000000E+00 0.  1.
    9000010    2    1    2  501    0  0.76090797098E+01 -0.56726950961E+02 -0.16318646259E+04  0.18063263841E+04  0.77237102724E+03 0.  0.
        -13    1    3    3    0    0 -0.14269346752E+03 -0.14878456712E+03 -0.16162920005E+04  0.16293858092E+04  0.10566000000E+00 0.  1.
          4    1    3    3  501    0  0.15030254723E+03  0.92057616159E+02 -0.15572625356E+02  0.17694057493E+03  0.00000000000E+00 0.  1.
         13    1    1    2    0    0 -0.76090797098E+01  0.56726950961E+02 -0.14609198539E+03  0.15690355132E+03  0.10566000000E+00 0. -1.
<mgrwt>
<rscale>  1 0.40380994E+03</rscale>
<asrwt>0</asrwt>
<pdfrwt beam="2">  1       21 0.28778356E+00 0.77448877E+03</pdfrwt>
<pdfrwt beam="1">  1        4 0.14251795E-01 0.77448877E+03</pdfrwt>
<totfact> 0.57119887E+01</totfact>
</mgrwt>
</event>
<event>
 6    1  0.1412458E-005  0.1051942E+04  0.7818608E-02  0.9624915E-01
         21   -1    0    0  501  502  0.00000000000E+00  0.00000000000E+00  0.18588342265E+04  0.18588342265E+04  0.00000000000E+00 0.  1.
          4   -1    0    0  502    0 -0.00000000000E+00 -0.00000000000E+00 -0.24103420838E+03  0.24103420838E+03  0.00000000000E+00 0.  1.
    9000010    2    1    2  501    0 -0.94011324869E+02  0.26548542300E+03  0.11973891800E+04  0.15938388675E+04  0.10135387749E+04 0.  0.
        -13    1    3    3    0    0  0.36331890189E+03  0.35276356437E+03  0.92468161412E+03  0.10542669754E+04  0.10566000000E+00 0.  1.
          4    1    3    3  501    0 -0.45733022676E+03 -0.87278141372E+02  0.27270756585E+03  0.53957189210E+03  0.00000000000E+00 0.  1.
         13    1    1    2    0    0  0.94011324869E+02 -0.26548542300E+03  0.42041083814E+03  0.50602956733E+03  0.10566000000E+00 0. -1.
<mgrwt>
<rscale>  1 0.75668846E+03</rscale>
<asrwt>0</asrwt>
<pdfrwt beam="1">  1       21 0.28597449E+00 0.10519418E+04</pdfrwt>
<pdfrwt beam="2">  1        4 0.37082187E-01 0.10519418E+04</pdfrwt>
<totfact> 0.91331859E+00</totfact>
</mgrwt>
</event>
<event>
 6    1  0.1412458E-005  0.1075174E+04  0.7818608E-02  0.9742171E-01
          4   -1    0    0  502    0 -0.00000000000E+00  0.00000000000E+00  0.76910119613E+03  0.76910119613E+03  0.00000000000E+00 0.  1.
         21   -1    0    0  501  502  0.00000000000E+00 -0.00000000000E+00 -0.10396467853E+04  0.10396467853E+04  0.00000000000E+00 0.  1.
    9000010    2    1    2  501    0 -0.14146818094E+03 -0.10765232584E+03 -0.74102636284E+03  0.13058022199E+04  0.10603759228E+04 0.  0.
        -13    1    3    3    0    0  0.22205495461E+03  0.38912356755E+03 -0.21902509430E+03  0.49869585600E+03  0.10566000000E+00 0.  1.
          4    1    3    3  501    0 -0.36352313555E+03 -0.49677589339E+03 -0.52200126854E+03  0.80710636393E+03  0.00000000000E+00 0.  1.
         13    1    1    2    0    0  0.14146818094E+03  0.10765232584E+03  0.47048077366E+03  0.50294576151E+03  0.10566000000E+00 0. -1.
<mgrwt>
<rscale>  1 0.68560488E+03</rscale>
<asrwt>0</asrwt>
<pdfrwt beam="2">  1       21 0.15994566E+00 0.10751741E+04</pdfrwt>
<pdfrwt beam="1">  1        4 0.11832326E+00 0.10751741E+04</pdfrwt>
<totfact> 0.48068023E+00</totfact>
</mgrwt>
</event>
<event>
 6    1  0.1412458E-005  0.1136918E+04  0.7818608E-02  0.9368645E-01
          4   -1    0    0  502    0 -0.00000000000E+00  0.00000000000E+00  0.13374698945E+04  0.13374698945E+04  0.00000000000E+00 0.  1.
         21   -1    0    0  501  502  0.00000000000E+00 -0.00000000000E+00 -0.53025553211E+03  0.53025553211E+03  0.00000000000E+00 0.  1.
    9000010    2    1    2  501    0  0.54717880449E+03  0.12433658062E+02  0.53865116378E+03  0.12580653223E+04  0.99650591524E+03 0.  0.
        -13    1    3    3    0    0  0.77057933062E+03 -0.13170933560E+03  0.16417424110E+03  0.79880726491E+03  0.10566000000E+00 0.  1.
          4    1    3    3  501    0 -0.22340052613E+03  0.14414299366E+03  0.37447692268E+03  0.45925805744E+03  0.00000000000E+00 0.  1.
         13    1    1    2    0    0 -0.54717880449E+03 -0.12433658062E+02  0.26856319862E+03  0.60966010428E+03  0.10566000000E+00 0. -1.
<mgrwt>
<rscale>  1 0.94701595E+03</rscale>
<asrwt>0</asrwt>
<pdfrwt beam="2">  1       21 0.81577775E-01 0.11369183E+04</pdfrwt>
<pdfrwt beam="1">  1        4 0.20576460E+00 0.11369183E+04</pdfrwt>
<totfact> 0.59086219E+00</totfact>
</mgrwt>
</event>
<event>
 6    1  0.1412458E-005  0.1068001E+04  0.7818608E-02  0.9531803E-01
          4   -1    0    0  502    0 -0.00000000000E+00  0.00000000000E+00  0.73178830452E+03  0.73178830452E+03  0.00000000000E+00 0.  1.
         21   -1    0    0  501  502  0.00000000000E+00 -0.00000000000E+00 -0.73829938915E+03  0.73829938915E+03  0.00000000000E+00 0.  1.
    9000010    2    1    2  501    0 -0.36153861613E+03 -0.82197813531E+02  0.12807181251E+03  0.10756523772E+04  0.10015782525E+04 0.  0.
        -13    1    3    3    0    0 -0.10125365446E+03  0.15537716321E+03  0.51792520382E+03  0.55012806991E+03  0.10566000000E+00 0.  1.
          4    1    3    3  501    0 -0.26028496168E+03 -0.23757497674E+03 -0.38985339131E+03  0.52552430730E+03  0.00000000000E+00 0.  1.
         13    1    1    2    0    0  0.36153861613E+03  0.82197813531E+02 -0.13458289713E+03  0.39443531646E+03  0.10566000000E+00 0. -1.
<mgrwt>
<rscale>  1 0.81979148E+03</rscale>
<asrwt>0</asrwt>
<pdfrwt beam="2">  1       21 0.11358452E+00 0.10680008E+04</pdfrwt>
<pdfrwt beam="1">  1        4 0.11258282E+00 0.10680008E+04</pdfrwt>
<totfact> 0.13710706E+01</totfact>
</mgrwt>
</event>
<event>
 6    1  0.1412458E-005  0.1031168E+04  0.7818608E-02  0.9721070E-01
          4   -1    0    0  502    0 -0.00000000000E+00  0.00000000000E+00  0.96615173539E+03  0.96615173539E+03  0.00000000000E+00 0.  1.
         21   -1    0    0  501  502  0.00000000000E+00 -0.00000000000E+00 -0.51836510697E+03  0.51836510697E+03  0.00000000000E+00 0.  1.
    9000010    2    1    2  501    0  0.17686918030E+03 -0.12432059851E+03  0.50725689944E+02  0.10324153956E+04  0.10082510279E+04 0.  0.
        -13    1    3    3    0    0 -0.33940281361E+03  0.74987703105E+02  0.26694687383E+03  0.43826712187E+03  0.10566000000E+00 0.  1.
          4    1    3    3  501    0  0.51627199391E+03 -0.19930830161E+03 -0.21622118388E+03  0.59414827371E+03  0.00000000000E+00 0.  1.
         13    1    1    2    0    0 -0.17686918030E+03  0.12432059851E+03  0.39706093848E+03  0.45210144678E+03  0.10566000000E+00 0. -1.
<mgrwt>
<rscale>  1 0.69776049E+03</rscale>
<asrwt>0</asrwt>
<pdfrwt beam="2">  1       21 0.79748478E-01 0.10311685E+04</pdfrwt>
<pdfrwt beam="1">  1        4 0.14863873E+00 0.10311685E+04</pdfrwt>
<totfact> 0.16032585E+01</totfact>
</mgrwt>
</event>
<event>
 6    1  0.1412458E-005  0.1030819E+04  0.7818608E-02  0.9868099E-01
         21   -1    0    0  501  502  0.00000000000E+00  0.00000000000E+00  0.16997161670E+04  0.16997161670E+04  0.00000000000E+00 0.  1.
          4   -1    0    0  502    0 -0.00000000000E+00 -0.00000000000E+00 -0.25290018677E+03  0.25290018677E+03  0.00000000000E+00 0.  1.
    9000010    2    1    2  501    0  0.10402971655E+03 -0.83588561982E+02  0.14904710687E+04  0.18122062134E+04  0.10221438860E+04 0.  0.
        -13    1    3    3    0    0 -0.21796445972E+03  0.37818784360E+03  0.87672833991E+03  0.97938100039E+03  0.10566000000E+00 0.  1.
          4    1    3    3  501    0  0.32199417628E+03 -0.46177640559E+03  0.61374272877E+03  0.83282521301E+03  0.00000000000E+00 0.  1.
         13    1    1    2    0    0 -0.10402971655E+03  0.83588561982E+02 -0.43655088412E+02  0.14041014041E+03  0.10566000000E+00 0. -1.
<mgrwt>
<rscale>  1 0.61832587E+03</rscale>
<asrwt>0</asrwt>
<pdfrwt beam="1">  1       21 0.26149479E+00 0.10308188E+04</pdfrwt>
<pdfrwt beam="2">  1        4 0.38907722E-01 0.10308188E+04</pdfrwt>
<totfact> 0.11834613E+01</totfact>
</mgrwt>
</event>
<event>
 6    1  0.1412458E-005  0.8018423E+03  0.7818608E-02  0.1035876E+00
          4   -1    0    0  502    0 -0.00000000000E+00  0.00000000000E+00  0.60702851776E+03  0.60702851776E+03  0.00000000000E+00 0.  1.
         21   -1    0    0  501  502  0.00000000000E+00 -0.00000000000E+00 -0.31048300528E+03  0.31048300528E+03  0.00000000000E+00 0.  1.
    9000010    2    1    2  501    0  0.60893950336E+02  0.14073539867E+02  0.25111053222E+03  0.84024260104E+03  0.79940289686E+03 0.  0.
        -13    1    3    3    0    0 -0.52812202396E+02  0.96954629132E+02 -0.27463377089E+03  0.29599501366E+03  0.10566000000E+00 0.  1.
          4    1    3    3  501    0  0.11370615273E+03 -0.82881089266E+02  0.52574430311E+03  0.54424758739E+03  0.00000000000E+00 0.  1.
         13    1    1    2    0    0 -0.60893950336E+02 -0.14073539867E+02  0.45434980255E+02  0.77268921998E+02  0.10566000000E+00 0. -1.
<mgrwt>
<rscale>  1 0.42367744E+03</rscale>
<asrwt>0</asrwt>
<pdfrwt beam="2">  1       21 0.47766616E-01 0.80184233E+03</pdfrwt>
<pdfrwt beam="1">  1        4 0.93389003E-01 0.80184233E+03</pdfrwt>
<totfact> 0.16513202E+02</totfact>
</mgrwt>
</event>
<event>
 6    1  0.1412458E-005  0.1018495E+04  0.7818608E-02  0.9973296E-01
          4   -1    0    0  502    0 -0.00000000000E+00  0.00000000000E+00  0.15476546793E+04  0.15476546793E+04  0.00000000000E+00 0.  1.
         21   -1    0    0  501  502  0.00000000000E+00 -0.00000000000E+00 -0.20877839530E+03  0.20877839530E+03  0.00000000000E+00 0.  1.
    9000010    2    1    2  501    0 -0.82140658108E+02  0.54856267490E+02  0.11062346463E+04  0.15036912290E+04  0.10136941953E+04 0.  0.
        -13    1    3    3    0    0 -0.62546478514E+02 -0.22487863123E+03 -0.10822007782E+03  0.25728205761E+03  0.10566000000E+00 0.  1.
          4    1    3    3  501    0 -0.19594179595E+02  0.27973489872E+03  0.12144547241E+04  0.12464091714E+04  0.00000000000E+00 0.  1.
         13    1    1    2    0    0  0.82140658108E+02 -0.54856267490E+02  0.23264163768E+03  0.25274184566E+03  0.10566000000E+00 0. -1.
<mgrwt>
<rscale>  1 0.56836836E+03</rscale>
<asrwt>0</asrwt>
<pdfrwt beam="2">  1       21 0.32119754E-01 0.10184951E+04</pdfrwt>
<pdfrwt beam="1">  1        4 0.23810071E+00 0.10184951E+04</pdfrwt>
<totfact> 0.28451380E+01</totfact>
</mgrwt>
</event>
<event>
 6    1  0.1412458E-005  0.9745794E+03  0.7818608E-02  0.9749558E-01
          4   -1    0    0  502    0 -0.00000000000E+00  0.00000000000E+00  0.82283162457E+03  0.82283162457E+03  0.00000000000E+00 0.  1.
         21   -1    0    0  501  502  0.00000000000E+00 -0.00000000000E+00 -0.49614547262E+03  0.49614547262E+03  0.00000000000E+00 0.  1.
    9000010    2    1    2  501    0  0.23005963478E+03 -0.36330711613E+02  0.77142462565E+02  0.97762768641E+03  0.94633903943E+03 0.  0.
        -13    1    3    3    0    0 -0.15757967452E+03  0.31281225675E+03 -0.18243257611E+03  0.39492343281E+03  0.10566000000E+00 0.  1.
          4    1    3    3  501    0  0.38763930930E+03 -0.34914296836E+03  0.25957503867E+03  0.58270425360E+03  0.00000000000E+00 0.  1.
         13    1    1    2    0    0 -0.23005963478E+03  0.36330711613E+02  0.24954368939E+03  0.34134941078E+03  0.10566000000E+00 0. -1.
<mgrwt>
<rscale>  1 0.68141273E+03</rscale>
<asrwt>0</asrwt>
<pdfrwt beam="2">  1       21 0.76330073E-01 0.97457936E+03</pdfrwt>
<pdfrwt beam="1">  1        4 0.12658948E+00 0.97457936E+03</pdfrwt>
<totfact> 0.27168330E+01</totfact>
</mgrwt>
</event>
<event>
 6    1  0.1412458E-005  0.1133048E+04  0.7818608E-02  0.9431443E-01
         21   -1    0    0  501  502  0.00000000000E+00  0.00000000000E+00  0.12736578247E+04  0.12736578247E+04  0.00000000000E+00 0.  1.
          4   -1    0    0  502    0 -0.00000000000E+00 -0.00000000000E+00 -0.10714337374E+04  0.10714337374E+04  0.00000000000E+00 0.  1.
    9000010    2    1    2  501    0 -0.10488526559E+03 -0.42912079548E+03  0.94864634721E+03  0.14777440094E+04  0.10433848231E+04 0.  0.
        -13    1    3    3    0    0 -0.25079659572E+03 -0.71469010456E+03  0.43855226668E+03  0.87521938949E+03  0.10566000000E+00 0.  1.
          4    1    3    3  501    0  0.14591133012E+03  0.28556930908E+03  0.51009408053E+03  0.60252461986E+03  0.00000000000E+00 0.  1.
         13    1    1    2    0    0  0.10488526559E+03  0.42912079548E+03 -0.74642225986E+03  0.86734755273E+03  0.10566000000E+00 0. -1.
<mgrwt>
<rscale>  1 0.89532567E+03</rscale>
<asrwt>0</asrwt>
<pdfrwt beam="1">  1       21 0.19594736E+00 0.11330479E+04</pdfrwt>
<pdfrwt beam="2">  1        4 0.16483596E+00 0.11330479E+04</pdfrwt>
<totfact> 0.10820710E+00</totfact>
</mgrwt>
</event>
<event>
 6    1  0.1412458E-005  0.1030020E+04  0.7818608E-02  0.9903837E-01
          4   -1    0    0  502    0 -0.00000000000E+00  0.00000000000E+00  0.48761080033E+03  0.48761080033E+03  0.00000000000E+00 0.  1.
         21   -1    0    0  501  502  0.00000000000E+00 -0.00000000000E+00 -0.72974006776E+03  0.72974006776E+03  0.00000000000E+00 0.  1.
    9000010    2    1    2  501    0 -0.10879261780E+03 -0.48699147951E+02 -0.31565559357E+03  0.10773024033E+04  0.10231004710E+04 0.  0.
        -13    1    3    3    0    0 -0.48960587737E+02 -0.45041156072E+03  0.13293941757E+03  0.47216587455E+03  0.10566000000E+00 0.  1.
          4    1    3    3  501    0 -0.59832030059E+02  0.40171241276E+03 -0.44859501114E+03  0.60513652873E+03  0.00000000000E+00 0.  1.
         13    1    1    2    0    0  0.10879261780E+03  0.48699147951E+02  0.73526326133E+02  0.14004846481E+03  0.10566000000E+00 0. -1.
<mgrwt>
<rscale>  1 0.60075707E+03</rscale>
<asrwt>0</asrwt>
<pdfrwt beam="2">  1       21 0.11226770E+00 0.10300204E+04</pdfrwt>
<pdfrwt beam="1">  1        4 0.75017047E-01 0.10300204E+04</pdfrwt>
<totfact> 0.37094705E+01</totfact>
</mgrwt>
</event>
<event>
 6    1  0.1412458E-005  0.1025370E+04  0.7818608E-02  0.9626240E-01
          4   -1    0    0  502    0 -0.00000000000E+00  0.00000000000E+00  0.73650848631E+03  0.73650848631E+03  0.00000000000E+00 0.  1.
         21   -1    0    0  501  502  0.00000000000E+00 -0.00000000000E+00 -0.59922083116E+03  0.59922083116E+03  0.00000000000E+00 0.  1.
    9000010    2    1    2  501    0  0.41251937488E+02  0.29991384181E+03  0.89875185966E+02  0.10293015311E+04  0.97966017478E+03 0.  0.
        -13    1    3    3    0    0 -0.42889439701E+03  0.33189810887E+03 -0.29717651265E+02  0.54312973442E+03  0.10566000000E+00 0.  1.
          4    1    3    3  501    0  0.47014633450E+03 -0.31984267060E+02  0.11959283723E+03  0.48617179669E+03  0.00000000000E+00 0.  1.
         13    1    1    2    0    0 -0.41251937488E+02 -0.29991384181E+03  0.47412469191E+02  0.30642778636E+03  0.10566000000E+00 0. -1.
<mgrwt>
<rscale>  1 0.75583520E+03</rscale>
<asrwt>0</asrwt>
<pdfrwt beam="2">  1       21 0.92187820E-01 0.10253702E+04</pdfrwt>
<pdfrwt beam="1">  1        4 0.11330900E+00 0.10253702E+04</pdfrwt>
<totfact> 0.22808366E+01</totfact>
</mgrwt>
</event>
<event>
 6    1  0.1412458E-005  0.1002267E+04  0.7818608E-02  0.9897876E-01
         21   -1    0    0  501  502  0.00000000000E+00  0.00000000000E+00  0.14239309915E+04  0.14239309915E+04  0.00000000000E+00 0.  1.
          4   -1    0    0  502    0 -0.00000000000E+00 -0.00000000000E+00 -0.46553173378E+03  0.46553173378E+03  0.00000000000E+00 0.  1.
    9000010    2    1    2  501    0 -0.10642666731E+03 -0.77878141656E+02  0.12305334940E+04  0.15870578738E+04  0.99355340793E+03 0.  0.
        -13    1    3    3    0    0 -0.46085428707E+03 -0.86231206023E+02  0.11224282612E+04  0.12164159270E+04  0.10566000000E+00 0.  1.
          4    1    3    3  501    0  0.35442761976E+03  0.83530643667E+01  0.10810523279E+03  0.37064194675E+03  0.00000000000E+00 0.  1.
         13    1    1    2    0    0  0.10642666731E+03  0.77878141656E+02 -0.27213423630E+03  0.30240485147E+03  0.10566000000E+00 0. -1.
<mgrwt>
<rscale>  1 0.60364321E+03</rscale>
<asrwt>0</asrwt>
<pdfrwt beam="1">  1       21 0.21906630E+00 0.10022674E+04</pdfrwt>
<pdfrwt beam="2">  1        4 0.71620267E-01 0.10022674E+04</pdfrwt>
<totfact> 0.60613202E+00</totfact>
</mgrwt>
</event>
<event>
 6    1  0.1412458E-005  0.1034400E+04  0.7818608E-02  0.9600197E-01
          4   -1    0    0  502    0 -0.00000000000E+00  0.00000000000E+00  0.80581107907E+03  0.80581107907E+03  0.00000000000E+00 0.  1.
         21   -1    0    0  501  502  0.00000000000E+00 -0.00000000000E+00 -0.10980774297E+04  0.10980774297E+04  0.00000000000E+00 0.  1.
    9000010    2    1    2  501    0 -0.31175744298E+03  0.81798068720E+02 -0.79644446724E+03  0.13054913065E+04  0.98290392952E+03 0.  0.
        -13    1    3    3    0    0 -0.61631260441E+03  0.49779877411E+02 -0.78469514807E+03  0.99903240644E+03  0.10566000000E+00 0.  1.
          4    1    3    3  501    0  0.30455516143E+03  0.32018191309E+02 -0.11749319171E+02  0.30645890007E+03  0.00000000000E+00 0.  1.
         13    1    1    2    0    0  0.31175744298E+03 -0.81798068720E+02  0.50417811659E+03  0.59839720229E+03  0.10566000000E+00 0. -1.
<mgrwt>
<rscale>  1 0.77283154E+03</rscale>
<asrwt>0</asrwt>
<pdfrwt beam="2">  1       21 0.16893499E+00 0.10344002E+04</pdfrwt>
<pdfrwt beam="1">  1        4 0.12397094E+00 0.10344002E+04</pdfrwt>
<totfact> 0.36660156E+00</totfact>
</mgrwt>
</event>
<event>
 6    1  0.1412458E-005  0.1195921E+04  0.7818608E-02  0.9238800E-01
         21   -1    0    0  501  502  0.00000000000E+00  0.00000000000E+00  0.11498687454E+04  0.11498687454E+04  0.00000000000E+00 0. -1.
          4   -1    0    0  502    0 -0.00000000000E+00 -0.00000000000E+00 -0.87030254013E+03  0.87030254013E+03  0.00000000000E+00 0.  1.
    9000010    2    1    2  501    0 -0.39490161397E+03  0.64402365342E+03 -0.47707411665E+02  0.11968719582E+04  0.92709909736E+03 0.  0.
        -13    1    3    3    0    0  0.81451875981E-01 -0.20146524820E+03  0.13954056881E+03  0.24507108025E+03  0.10566000000E+00 0.  1.
          4    1    3    3  501    0 -0.39498306585E+03  0.84548890163E+03 -0.18724798047E+03  0.95180087795E+03  0.00000000000E+00 0.  1.
         13    1    1    2    0    0  0.39490161397E+03 -0.64402365342E+03  0.32727361695E+03  0.82329932734E+03  0.10566000000E+00 0. -1.
<mgrwt>
<rscale>  1 0.10661766E+04</rscale>
<asrwt>0</asrwt>
<pdfrwt beam="1">  1       21 0.17690289E+00 0.11959208E+04</pdfrwt>
<pdfrwt beam="2">  1        4 0.13389270E+00 0.11959208E+04</pdfrwt>
<totfact> 0.25691392E+00</totfact>
</mgrwt>
</event>
<event>
 6    1  0.1412458E-005  0.1025328E+04  0.7818608E-02  0.9741953E-01
         21   -1    0    0  501  502  0.00000000000E+00  0.00000000000E+00  0.84819397811E+03  0.84819397811E+03  0.00000000000E+00 0.  1.
          4   -1    0    0  502    0 -0.00000000000E+00 -0.00000000000E+00 -0.44626697708E+03  0.44626697708E+03  0.00000000000E+00 0.  1.
    9000010    2    1    2  501    0  0.17288743490E+03  0.11039425331E+03  0.33178364187E+03  0.10776729059E+04  0.10046001945E+04 0.  0.
        -13    1    3    3    0    0  0.25070139436E+03  0.17231476042E+01 -0.32328624492E+03  0.40910654565E+03  0.10566000000E+00 0.  1.
          4    1    3    3  501    0 -0.77813959458E+02  0.10867110571E+03  0.65506988679E+03  0.66856636027E+03  0.00000000000E+00 0.  1.
         13    1    1    2    0    0 -0.17288743490E+03 -0.11039425331E+03  0.70143359156E+02  0.21678804928E+03  0.10566000000E+00 0. -1.
<mgrwt>
<rscale>  1 0.68572957E+03</rscale>
<asrwt>0</asrwt>
<pdfrwt beam="1">  1       21 0.13049138E+00 0.10253285E+04</pdfrwt>
<pdfrwt beam="2">  1        4 0.68656458E-01 0.10253285E+04</pdfrwt>
<totfact> 0.30622422E+01</totfact>
</mgrwt>
</event>
<event>
 6    1  0.1412458E-005  0.1054218E+04  0.7818608E-02  0.9471233E-01
         21   -1    0    0  501  502  0.00000000000E+00  0.00000000000E+00  0.55254957238E+03  0.55254957238E+03  0.00000000000E+00 0. -1.
          4   -1    0    0  502    0 -0.00000000000E+00 -0.00000000000E+00 -0.11055591784E+04  0.11055591784E+04  0.00000000000E+00 0.  1.
    9000010    2    1    2  501    0  0.29147413699E+03  0.37691556609E+03 -0.53280929040E+03  0.11812119271E+04  0.94040063823E+03 0.  0.
        -13    1    3    3    0    0  0.51850455621E+03  0.55808369455E+03 -0.41768887141E+03  0.86877407270E+03  0.10566000000E+00 0.  1.
          4    1    3    3  501    0 -0.22703041922E+03 -0.18116812846E+03 -0.11512041899E+03  0.31243785444E+03  0.00000000000E+00 0.  1.
         13    1    1    2    0    0 -0.29147413699E+03 -0.37691556609E+03 -0.20200315637E+02  0.47689682366E+03  0.10566000000E+00 0. -1.
<mgrwt>
<rscale>  1 0.86438363E+03</rscale>
<asrwt>0</asrwt>
<pdfrwt beam="1">  1       21 0.85007627E-01 0.10542181E+04</pdfrwt>
<pdfrwt beam="2">  1        4 0.17008603E+00 0.10542181E+04</pdfrwt>
<totfact> 0.94920153E+00</totfact>
</mgrwt>
</event>
<event>
 6    1  0.1412458E-005  0.1010107E+04  0.7818608E-02  0.9783785E-01
         21   -1    0    0  501  502  0.00000000000E+00  0.00000000000E+00  0.33856309208E+03  0.33856309208E+03  0.00000000000E+00 0.  1.
          4   -1    0    0  502    0 -0.00000000000E+00 -0.00000000000E+00 -0.10578471690E+04  0.10578471690E+04  0.00000000000E+00 0.  1.
    9000010    2    1    2  501    0  0.22944201954E+02 -0.18538681929E+03 -0.60773056939E+03  0.11788352042E+04  0.99268387943E+03 0.  0.
        -13    1    3    3    0    0  0.46985671824E+03 -0.15271543953E+02 -0.98572226207E+02  0.48032806567E+03  0.10566000000E+00 0.  1.
          4    1    3    3  501    0 -0.44691251629E+03 -0.17011527533E+03 -0.50915834319E+03  0.69850713851E+03  0.00000000000E+00 0.  1.
         13    1    1    2    0    0 -0.22944201954E+02  0.18538681929E+03 -0.11155350748E+03  0.21757505685E+03  0.10566000000E+00 0. -1.
<mgrwt>
<rscale>  1 0.66240031E+03</rscale>
<asrwt>0</asrwt>
<pdfrwt beam="1">  1       21 0.52086629E-01 0.10101069E+04</pdfrwt>
<pdfrwt beam="2">  1        4 0.16274572E+00 0.10101069E+04</pdfrwt>
<totfact> 0.32862247E+01</totfact>
</mgrwt>
</event>
<event>
 6    1  0.1412458E-005  0.9791374E+03  0.7818608E-02  0.9841297E-01
          4   -1    0    0  502    0 -0.00000000000E+00  0.00000000000E+00  0.49431666306E+03  0.49431666306E+03  0.00000000000E+00 0.  1.
         21   -1    0    0  501  502  0.00000000000E+00 -0.00000000000E+00 -0.87069620554E+03  0.87069620554E+03  0.00000000000E+00 0.  1.
    9000010    2    1    2  501    0  0.14213192559E+03 -0.93041317659E+02 -0.54922976078E+03  0.11226590360E+04  0.96428824003E+03 0.  0.
        -13    1    3    3    0    0 -0.12270684464E+03  0.14297113085E+03 -0.70899419088E+03  0.73360104133E+03  0.10566000000E+00 0.  1.
          4    1    3    3  501    0  0.26483877023E+03 -0.23601244851E+03  0.15976443010E+03  0.38905799464E+03  0.00000000000E+00 0.  1.
         13    1    1    2    0    0 -0.14213192559E+03  0.93041317659E+02  0.17285021829E+03  0.24235383263E+03  0.10566000000E+00 0. -1.
<mgrwt>
<rscale>  1 0.63192617E+03</rscale>
<asrwt>0</asrwt>
<pdfrwt beam="2">  1       21 0.13395326E+00 0.97913737E+03</pdfrwt>
<pdfrwt beam="1">  1        4 0.76048718E-01 0.97913737E+03</pdfrwt>
<totfact> 0.22787102E+01</totfact>
</mgrwt>
</event>
<event>
 6    1  0.1412458E-005  0.1200297E+04  0.7818608E-02  0.9616595E-01
         21   -1    0    0  501  502  0.00000000000E+00  0.00000000000E+00  0.10885772861E+04  0.10885772861E+04  0.00000000000E+00 0.  1.
          4   -1    0    0  502    0 -0.00000000000E+00 -0.00000000000E+00 -0.58121902825E+03  0.58121902825E+03  0.00000000000E+00 0.  1.
    9000010    2    1    2  501    0 -0.19478533605E+03  0.99719180682E+01  0.70507814754E+03  0.13920663516E+04  0.11843448682E+04 0.  0.
        -13    1    3    3    0    0  0.10373428435E+03  0.23255963721E+03 -0.25617627867E+03  0.36120781210E+03  0.10566000000E+00 0.  1.
          4    1    3    3  501    0 -0.29851962040E+03 -0.22258771914E+03  0.96125442621E+03  0.10308585395E+04  0.00000000000E+00 0.  1.
         13    1    1    2    0    0  0.19478533605E+03 -0.99719180682E+01 -0.19771988968E+03  0.27772996279E+03  0.10566000000E+00 0. -1.
<mgrwt>
<rscale>  1 0.76207513E+03</rscale>
<asrwt>0</asrwt>
<pdfrwt beam="1">  1       21 0.16747343E+00 0.12002973E+04</pdfrwt>
<pdfrwt beam="2">  1        4 0.89418312E-01 0.12002973E+04</pdfrwt>
<totfact> 0.81911195E+00</totfact>
</mgrwt>
</event>
<event>
 6    1  0.1412458E-005  0.9980591E+03  0.7818608E-02  0.9926115E-01
          4   -1    0    0  502    0 -0.00000000000E+00  0.00000000000E+00  0.95944871805E+03  0.95944871805E+03  0.00000000000E+00 0.  1.
         21   -1    0    0  501  502  0.00000000000E+00 -0.00000000000E+00 -0.33275576773E+03  0.33275576773E+03  0.00000000000E+00 0.  1.
    9000010    2    1    2  501    0  0.66899895374E+02  0.10200054001E+03  0.60835004174E+03  0.11688506061E+04  0.99057673101E+03 0.  0.
        -13    1    3    3    0    0  0.18529827531E+03  0.41114783384E+03  0.69331082686E+03  0.82707793219E+03  0.10566000000E+00 0.  1.
          4    1    3    3  501    0 -0.11839837994E+03 -0.30914729383E+03 -0.84960785124E+02  0.34177267395E+03  0.00000000000E+00 0.  1.
         13    1    1    2    0    0 -0.66899895374E+02 -0.10200054001E+03  0.18342908577E+02  0.12335387964E+03  0.10566000000E+00 0. -1.
<mgrwt>
<rscale>  1 0.59012170E+03</rscale>
<asrwt>0</asrwt>
<pdfrwt beam="2">  1       21 0.51193196E-01 0.99805910E+03</pdfrwt>
<pdfrwt beam="1">  1        4 0.14760749E+00 0.99805910E+03</pdfrwt>
<totfact> 0.44543140E+01</totfact>
</mgrwt>
</event>
<event>
 6    1  0.1412458E-005  0.1014493E+04  0.7818608E-02  0.9832769E-01
          4   -1    0    0  502    0 -0.00000000000E+00  0.00000000000E+00  0.96502385026E+03  0.96502385026E+03  0.00000000000E+00 0.  1.
         21   -1    0    0  501  502  0.00000000000E+00 -0.00000000000E+00 -0.42048492667E+03  0.42048492667E+03  0.00000000000E+00 0.  1.
    9000010    2    1    2  501    0 -0.15272378603E+03  0.36530966783E+02  0.23943551045E+03  0.10423657015E+04  0.10022663446E+04 0.  0.
        -13    1    3    3    0    0  0.19684371192E+03 -0.18024125916E+02  0.54194662760E+03  0.57686954709E+03  0.10566000000E+00 0.  1.
          4    1    3    3  501    0 -0.34956749795E+03  0.54555092699E+02 -0.30251111714E+03  0.46549615439E+03  0.00000000000E+00 0.  1.
         13    1    1    2    0    0  0.15272378603E+03 -0.36530966783E+02  0.30510341313E+03  0.34314307544E+03  0.10566000000E+00 0. -1.
<mgrwt>
<rscale>  1 0.63633239E+03</rscale>
<asrwt>0</asrwt>
<pdfrwt beam="2">  1       21 0.64689989E-01 0.10144934E+04</pdfrwt>
<pdfrwt beam="1">  1        4 0.14846521E+00 0.10144934E+04</pdfrwt>
<totfact> 0.26091472E+01</totfact>
</mgrwt>
</event>
<event>
 6    1  0.1412458E-005  0.1152359E+04  0.7818608E-02  0.9346470E-01
         21   -1    0    0  501  502  0.00000000000E+00  0.00000000000E+00  0.15762065914E+04  0.15762065914E+04  0.00000000000E+00 0. -1.
          4   -1    0    0  502    0 -0.00000000000E+00 -0.00000000000E+00 -0.49433794783E+03  0.49433794783E+03  0.00000000000E+00 0.  1.
    9000010    2    1    2  501    0 -0.80750344029E+02  0.56364287359E+03  0.93113138064E+03  0.14815321110E+04  0.10018571959E+04 0.  0.
        -13    1    3    3    0    0 -0.13538574451E+03  0.12428339227E+03 -0.19713021399E+03  0.26951065627E+03  0.10566000000E+00 0.  1.
          4    1    3    3  501    0  0.54635400486E+02  0.43935948132E+03  0.11282615946E+04  0.12120214547E+04  0.00000000000E+00 0.  1.
         13    1    1    2    0    0  0.80750344029E+02 -0.56364287359E+03  0.15073726292E+03  0.58901242823E+03  0.10566000000E+00 0. -1.
<mgrwt>
<rscale>  1 0.96615068E+03</rscale>
<asrwt>0</asrwt>
<pdfrwt beam="1">  1       21 0.24249332E+00 0.11523592E+04</pdfrwt>
<pdfrwt beam="2">  1        4 0.76051993E-01 0.11523592E+04</pdfrwt>
<totfact> 0.36421478E+00</totfact>
</mgrwt>
</event>
<event>
 6    1  0.1412458E-005  0.1010700E+04  0.7818608E-02  0.9803311E-01
         21   -1    0    0  501  502  0.00000000000E+00  0.00000000000E+00  0.13580729681E+04  0.13580729681E+04  0.00000000000E+00 0.  1.
          4   -1    0    0  502    0 -0.00000000000E+00 -0.00000000000E+00 -0.82139810774E+03  0.82139810774E+03  0.00000000000E+00 0.  1.
    9000010    2    1    2  501    0  0.16655309471E+03 -0.53304920241E+02  0.11562335697E+04  0.15357053161E+04  0.99545637887E+03 0.  0.
        -13    1    3    3    0    0  0.52536621111E+03 -0.26957487143E+03  0.71385945690E+03  0.92643165018E+03  0.10566000000E+00 0.  1.
          4    1    3    3  501    0 -0.35881311640E+03  0.21626995119E+03  0.44237411284E+03  0.60927366593E+03  0.00000000000E+00 0.  1.
         13    1    1    2    0    0 -0.16655309471E+03  0.53304920241E+02 -0.61955870938E+03  0.64376575974E+03  0.10566000000E+00 0. -1.
<mgrwt>
<rscale>  1 0.65185175E+03</rscale>
<asrwt>0</asrwt>
<pdfrwt beam="1">  1       21 0.20893430E+00 0.10107001E+04</pdfrwt>
<pdfrwt beam="2">  1        4 0.12636894E+00 0.10107001E+04</pdfrwt>
<totfact> 0.18229533E+00</totfact>
</mgrwt>
</event>
<event>
 6    1  0.1412458E-005  0.1025557E+04  0.7818608E-02  0.9828219E-01
         21   -1    0    0  501  502  0.00000000000E+00  0.00000000000E+00  0.70375748737E+03  0.70375748737E+03  0.00000000000E+00 0.  1.
          4   -1    0    0  502    0 -0.00000000000E+00 -0.00000000000E+00 -0.50363745253E+03  0.50363745253E+03  0.00000000000E+00 0.  1.
    9000010    2    1    2  501    0 -0.15182040926E+03  0.27429598062E+02  0.11716464111E+03  0.10322280822E+04  0.10138863058E+04 0.  0.
        -13    1    3    3    0    0 -0.27878865178E+03 -0.87441506165E+02 -0.39550355330E+03  0.49172370412E+03  0.10566000000E+00 0.  1.
          4    1    3    3  501    0  0.12696824252E+03  0.11487110423E+03  0.51266819440E+03  0.54050437810E+03  0.00000000000E+00 0.  1.
         13    1    1    2    0    0  0.15182040926E+03 -0.27429598062E+02  0.82955393729E+02  0.17516685768E+03  0.10566000000E+00 0. -1.
<mgrwt>
<rscale>  1 0.63869897E+03</rscale>
<asrwt>0</asrwt>
<pdfrwt beam="1">  1       21 0.10827038E+00 0.10255570E+04</pdfrwt>
<pdfrwt beam="2">  1        4 0.77482685E-01 0.10255570E+04</pdfrwt>
<totfact> 0.37795235E+01</totfact>
</mgrwt>
</event>
<event>
 6    1  0.1412458E-005  0.1028052E+04  0.7818608E-02  0.9669557E-01
          4   -1    0    0  502    0 -0.00000000000E+00  0.00000000000E+00  0.41005619645E+03  0.41005619645E+03  0.00000000000E+00 0.  1.
         21   -1    0    0  501  502  0.00000000000E+00 -0.00000000000E+00 -0.11614331249E+04  0.11614331249E+04  0.00000000000E+00 0.  1.
    9000010    2    1    2  501    0  0.25402877758E+03 -0.52247705473E+02 -0.80613659619E+03  0.13064250368E+04  0.99480134825E+03 0.  0.
        -13    1    3    3    0    0 -0.35068050267E+03  0.49490565305E+01 -0.79976911419E+02  0.35971881468E+03  0.10566000000E+00 0.  1.
          4    1    3    3  501    0  0.60470928025E+03 -0.57196762004E+02 -0.72615968477E+03  0.94670622211E+03  0.00000000000E+00 0.  1.
         13    1    1    2    0    0 -0.25402877758E+03  0.52247705473E+02  0.54759667745E+02  0.26506428455E+03  0.10566000000E+00 0. -1.
<mgrwt>
<rscale>  1 0.72858658E+03</rscale>
<asrwt>0</asrwt>
<pdfrwt beam="2">  1       21 0.17868201E+00 0.10280516E+04</pdfrwt>
<pdfrwt beam="1">  1        4 0.63085570E-01 0.10280516E+04</pdfrwt>
<totfact> 0.15238831E+01</totfact>
</mgrwt>
</event>
<event>
 6    1  0.1412458E-005  0.8429822E+03  0.7818608E-02  0.9839105E-01
          4   -1    0    0  502    0 -0.00000000000E+00  0.00000000000E+00  0.46524163318E+03  0.46524163318E+03  0.00000000000E+00 0.  1.
         21   -1    0    0  501  502  0.00000000000E+00 -0.00000000000E+00 -0.67906789492E+03  0.67906789492E+03  0.00000000000E+00 0. -1.
    9000010    2    1    2  501    0  0.23256391148E+03 -0.13340195995E+03 -0.86211145982E+02  0.84737909050E+03  0.79921017604E+03 0.  0.
        -13    1    3    3    0    0  0.35969831292E+03 -0.21997859442E+03  0.24112156082E+03  0.48570883930E+03  0.10566000000E+00 0.  1.
          4    1    3    3  501    0 -0.12713440144E+03  0.86576634470E+02 -0.32733270680E+03  0.36167025120E+03  0.00000000000E+00 0.  1.
         13    1    1    2    0    0 -0.23256391148E+03  0.13340195995E+03 -0.12761511575E+03  0.29693043760E+03  0.10566000000E+00 0. -1.
<mgrwt>
<rscale>  1 0.63305497E+03</rscale>
<asrwt>0</asrwt>
<pdfrwt beam="2">  1       21 0.10447198E+00 0.84298218E+03</pdfrwt>
<pdfrwt beam="1">  1        4 0.71575636E-01 0.84298218E+03</pdfrwt>
<totfact> 0.50322279E+01</totfact>
</mgrwt>
</event>
<event>
 6    1  0.1412458E-005  0.1040219E+04  0.7818608E-02  0.9640669E-01
         21   -1    0    0  501  502  0.00000000000E+00  0.00000000000E+00  0.16315103654E+03  0.16315103654E+03  0.00000000000E+00 0.  1.
          4   -1    0    0  502    0 -0.00000000000E+00 -0.00000000000E+00 -0.27052801217E+04  0.27052801217E+04  0.00000000000E+00 0.  1.
    9000010    2    1    2  501    0  0.12904077596E+03  0.24405823941E+03 -0.18351656850E+04  0.21094758193E+04  0.10029153479E+04 0.  0.
        -13    1    3    3    0    0  0.41358524171E+03 -0.14608088090E+03 -0.39413011506E+03  0.58968714984E+03  0.10566000000E+00 0.  1.
          4    1    3    3  501    0 -0.28454446575E+03  0.39013912031E+03 -0.14410355699E+04  0.15197886695E+04  0.00000000000E+00 0.  1.
         13    1    1    2    0    0 -0.12904077596E+03 -0.24405823941E+03 -0.70696340023E+03  0.75895533894E+03  0.10566000000E+00 0. -1.
<mgrwt>
<rscale>  1 0.74661938E+03</rscale>
<asrwt>0</asrwt>
<pdfrwt beam="1">  1       21 0.25100160E-01 0.10402188E+04</pdfrwt>
<pdfrwt beam="2">  1        4 0.41619693E+00 0.10402188E+04</pdfrwt>
<totfact> 0.33220430E+00</totfact>
</mgrwt>
</event>
<event>
 6    1  0.1412458E-005  0.1012869E+04  0.7818608E-02  0.9803498E-01
          4   -1    0    0  502    0 -0.00000000000E+00  0.00000000000E+00  0.33648354385E+03  0.33648354385E+03  0.00000000000E+00 0.  1.
         21   -1    0    0  501  502  0.00000000000E+00 -0.00000000000E+00 -0.21330037993E+04  0.21330037993E+04  0.00000000000E+00 0.  1.
    9000010    2    1    2  501    0 -0.13777689792E+03  0.10569329495E+03 -0.19755561724E+04  0.22200731958E+04  0.99787236554E+03 0.  0.
        -13    1    3    3    0    0 -0.11761188966E+03 -0.43754529604E+03 -0.10977160869E+04  0.11875432882E+04  0.10566000000E+00 0.  1.
          4    1    3    3  501    0 -0.20165008261E+02  0.54323859099E+03 -0.87784008552E+03  0.10325299076E+04  0.00000000000E+00 0.  1.
         13    1    1    2    0    0  0.13777689792E+03 -0.10569329495E+03  0.17903591697E+03  0.24941414740E+03  0.10566000000E+00 0. -1.
<mgrwt>
<rscale>  1 0.65175167E+03</rscale>
<asrwt>0</asrwt>
<pdfrwt beam="2">  1       21 0.32815443E+00 0.10128686E+04</pdfrwt>
<pdfrwt beam="1">  1        4 0.51766700E-01 0.10128686E+04</pdfrwt>
<totfact> 0.25178640E+00</totfact>
</mgrwt>
</event>
<event>
 6    1  0.1412458E-005  0.1053475E+04  0.7818608E-02  0.9552858E-01
          4   -1    0    0  502    0 -0.00000000000E+00  0.00000000000E+00  0.75603620037E+03  0.75603620037E+03  0.00000000000E+00 0.  1.
         21   -1    0    0  501  502  0.00000000000E+00 -0.00000000000E+00 -0.66200567085E+03  0.66200567085E+03  0.00000000000E+00 0.  1.
    9000010    2    1    2  501    0 -0.69980810462E+02 -0.35223257052E+03  0.34620966030E+02  0.10540437875E+04  0.99037598774E+03 0.  0.
        -13    1    3    3    0    0 -0.62029349576E+02  0.32564307929E+03 -0.13056939676E+03  0.35628560711E+03  0.10566000000E+00 0.  1.
          4    1    3    3  501    0 -0.79514608861E+01 -0.67787564981E+03  0.16519036279E+03  0.69775818038E+03  0.00000000000E+00 0.  1.
         13    1    1    2    0    0  0.69980810462E+02  0.35223257052E+03  0.59409563495E+02  0.36399808374E+03  0.10566000000E+00 0. -1.
<mgrwt>
<rscale>  1 0.80496541E+03</rscale>
<asrwt>0</asrwt>
<pdfrwt beam="2">  1       21 0.10184703E+00 0.10534751E+04</pdfrwt>
<pdfrwt beam="1">  1        4 0.11631326E+00 0.10534751E+04</pdfrwt>
<totfact> 0.16682751E+01</totfact>
</mgrwt>
</event>
<event>
 6    1  0.1412458E-005  0.1057275E+04  0.7818608E-02  0.9544882E-01
          4   -1    0    0  502    0 -0.00000000000E+00  0.00000000000E+00  0.14630891468E+04  0.14630891468E+04  0.00000000000E+00 0.  1.
         21   -1    0    0  501  502  0.00000000000E+00 -0.00000000000E+00 -0.60341210577E+03  0.60341210577E+03  0.00000000000E+00 0.  1.
    9000010    2    1    2  501    0  0.23631788303E+03 -0.27844041269E+03 -0.78065250219E+02  0.10601534890E+04  0.99219757695E+03 0.  0.
        -13    1    3    3    0    0  0.43718805601E+03  0.16766386617E+03  0.18643847309E+03  0.50398797977E+03  0.10566000000E+00 0.  1.
          4    1    3    3  501    0 -0.20087017299E+03 -0.44610427886E+03 -0.26450372331E+03  0.55616550923E+03  0.00000000000E+00 0.  1.
         13    1    1    2    0    0 -0.23631788303E+03  0.27844041269E+03  0.93774229127E+03  0.10063477636E+04  0.10566000000E+00 0. -1.
<mgrwt>
<rscale>  1 0.81054192E+03</rscale>
<asrwt>0</asrwt>
<pdfrwt beam="2">  1       21 0.92832632E-01 0.10572754E+04</pdfrwt>
<pdfrwt beam="1">  1        4 0.22509064E+00 0.10572754E+04</pdfrwt>
<totfact> 0.32837348E+00</totfact>
</mgrwt>
</event>
<event>
 6    1  0.1412458E-005  0.9832765E+03  0.7818608E-02  0.1007866E+00
         21   -1    0    0  501  502  0.00000000000E+00  0.00000000000E+00  0.17644750755E+04  0.17644750755E+04  0.00000000000E+00 0.  1.
          4   -1    0    0  502    0 -0.00000000000E+00 -0.00000000000E+00 -0.26120214059E+03  0.26120214059E+03  0.00000000000E+00 0.  1.
    9000010    2    1    2  501    0  0.58631561452E+02  0.52784988381E+02  0.16138750887E+04  0.18898215478E+04  0.98010650733E+03 0.  0.
        -13    1    3    3    0    0  0.33596469209E+03  0.41060485367E+03  0.87787336918E+03  0.10257340219E+04  0.10566000000E+00 0.  1.
          4    1    3    3  501    0 -0.27733313064E+03 -0.35781986529E+03  0.73600171952E+03  0.86408752594E+03  0.00000000000E+00 0.  1.
         13    1    1    2    0    0 -0.58631561452E+02 -0.52784988381E+02 -0.11060215382E+03  0.13585566823E+03  0.10566000000E+00 0. -1.
<mgrwt>
<rscale>  1 0.52331695E+03</rscale>
<asrwt>0</asrwt>
<pdfrwt beam="1">  1       21 0.27145770E+00 0.98327650E+03</pdfrwt>
<pdfrwt beam="2">  1        4 0.40184946E-01 0.98327650E+03</pdfrwt>
<totfact> 0.96673921E+00</totfact>
</mgrwt>
</event>
<event>
 6    1  0.1412458E-005  0.9906229E+03  0.7818608E-02  0.9886582E-01
         21   -1    0    0  501  502  0.00000000000E+00  0.00000000000E+00  0.54224620029E+03  0.54224620029E+03  0.00000000000E+00 0.  1.
          4   -1    0    0  502    0 -0.00000000000E+00 -0.00000000000E+00 -0.59573748806E+03  0.59573748806E+03  0.00000000000E+00 0.  1.
    9000010    2    1    2  501    0 -0.55137559601E+01 -0.14153717247E+03 -0.13164439173E+02  0.99071034188E+03  0.98044403530E+03 0.  0.
        -13    1    3    3    0    0 -0.34760000751E+03 -0.36375699672E+03 -0.20076669347E+03  0.54171227996E+03  0.10566000000E+00 0.  1.
          4    1    3    3  501    0  0.34208625155E+03  0.22221982425E+03  0.18760225430E+03  0.44899806192E+03  0.00000000000E+00 0.  1.
         13    1    1    2    0    0  0.55137559601E+01  0.14153717247E+03 -0.40326848594E+02  0.14727334646E+03  0.10566000000E+00 0. -1.
<mgrwt>
<rscale>  1 0.60915981E+03</rscale>
<asrwt>0</asrwt>
<pdfrwt beam="1">  1       21 0.83422492E-01 0.99062287E+03</pdfrwt>
<pdfrwt beam="2">  1        4 0.91651921E-01 0.99062287E+03</pdfrwt>
<totfact> 0.48605454E+01</totfact>
</mgrwt>
</event>
<event>
 6    1  0.1412458E-005  0.1166692E+04  0.7818608E-02  0.9325817E-01
         21   -1    0    0  501  502  0.00000000000E+00  0.00000000000E+00  0.31356722502E+03  0.31356722502E+03  0.00000000000E+00 0.  1.
          4   -1    0    0  502    0 -0.00000000000E+00 -0.00000000000E+00 -0.25289158401E+04  0.25289158401E+04  0.00000000000E+00 0.  1.
    9000010    2    1    2  501    0 -0.11571192872E+03 -0.57989378320E+03 -0.12455457092E+04  0.17066205129E+04  0.10057352589E+04 0.  0.
        -13    1    3    3    0    0 -0.55230079324E+03 -0.22493179170E+03 -0.54301526753E+03  0.80653336513E+03  0.10566000000E+00 0.  1.
          4    1    3    3  501    0  0.43658886452E+03 -0.35496199150E+03 -0.70253044170E+03  0.90008714775E+03  0.00000000000E+00 0.  1.
         13    1    1    2    0    0  0.11571192872E+03  0.57989378320E+03 -0.96980290582E+03  0.11358625522E+04  0.10566000000E+00 0. -1.
<mgrwt>
<rscale>  1 0.98440488E+03</rscale>
<asrwt>0</asrwt>
<pdfrwt beam="1">  1       21 0.48241111E-01 0.11666917E+04</pdfrwt>
<pdfrwt beam="2">  1        4 0.38906398E+00 0.11666917E+04</pdfrwt>
<totfact> 0.13091979E+00</totfact>
</mgrwt>
</event>
<event>
 6    1  0.1412458E-005  0.1036712E+04  0.7818608E-02  0.9637331E-01
         21   -1    0    0  501  502  0.00000000000E+00  0.00000000000E+00  0.42919499492E+03  0.42919499492E+03  0.00000000000E+00 0.  1.
          4   -1    0    0  502    0 -0.00000000000E+00 -0.00000000000E+00 -0.12196117445E+04  0.12196117445E+04  0.00000000000E+00 0.  1.
    9000010    2    1    2  501    0 -0.28178152722E+03  0.12622566372E+02 -0.29356712366E+03  0.10774752068E+04  0.99760262972E+03 0.  0.
        -13    1    3    3    0    0 -0.98958269507E+02 -0.48951665967E+03 -0.10155344858E+03  0.50963949345E+03  0.10566000000E+00 0.  1.
          4    1    3    3  501    0 -0.18282325771E+03  0.50213922605E+03 -0.19201367508E+03  0.56783571331E+03  0.00000000000E+00 0.  1.
         13    1    1    2    0    0  0.28178152722E+03 -0.12622566372E+02 -0.49684962590E+03  0.57133153264E+03  0.10566000000E+00 0. -1.
<mgrwt>
<rscale>  1 0.74873902E+03</rscale>
<asrwt>0</asrwt>
<pdfrwt beam="1">  1       21 0.66029999E-01 0.10367117E+04</pdfrwt>
<pdfrwt beam="2">  1        4 0.18763258E+00 0.10367117E+04</pdfrwt>
<totfact> 0.12889885E+01</totfact>
</mgrwt>
</event>
<event>
 6    1  0.1412458E-005  0.9855998E+03  0.7818608E-02  0.9547979E-01
         21   -1    0    0  501  502  0.00000000000E+00  0.00000000000E+00  0.48852056616E+03  0.48852056616E+03  0.00000000000E+00 0.  1.
          4   -1    0    0  502    0 -0.00000000000E+00 -0.00000000000E+00 -0.10909183875E+04  0.10909183875E+04  0.00000000000E+00 0.  1.
    9000010    2    1    2  501    0  0.17235635388E+03 -0.41135663893E+03 -0.55448504719E+03  0.11308671732E+04  0.87891176966E+03 0.  0.
        -13    1    3    3    0    0 -0.13025646706E+03 -0.32070475109E+02 -0.62617749220E+03  0.64038545071E+03  0.10566000000E+00 0.  1.
          4    1    3    3  501    0  0.30261282094E+03 -0.37928616382E+03  0.71692445008E+02  0.49048172253E+03  0.00000000000E+00 0.  1.
         13    1    1    2    0    0 -0.17235635388E+03  0.41135663893E+03 -0.47912774162E+02  0.44857178044E+03  0.10566000000E+00 0. -1.
<mgrwt>
<rscale>  1 0.80837073E+03</rscale>
<asrwt>0</asrwt>
<pdfrwt beam="1">  1       21 0.75157011E-01 0.98559976E+03</pdfrwt>
<pdfrwt beam="2">  1        4 0.16783360E+00 0.98559976E+03</pdfrwt>
<totfact> 0.13267110E+01</totfact>
</mgrwt>
</event>
<event>
 6    1  0.1412458E-005  0.1001384E+04  0.7818608E-02  0.1004867E+00
          4   -1    0    0  502    0 -0.00000000000E+00  0.00000000000E+00  0.43205321260E+03  0.43205321260E+03  0.00000000000E+00 0.  1.
         21   -1    0    0  501  502  0.00000000000E+00 -0.00000000000E+00 -0.75923080587E+03  0.75923080587E+03  0.00000000000E+00 0.  1.
    9000010    2    1    2  501    0  0.48677024358E+01 -0.81849043106E+02 -0.40316255982E+03  0.10794954382E+04  0.99802173873E+03 0.  0.
        -13    1    3    3    0    0 -0.48520176577E+03 -0.10725112381E+03 -0.29192229562E+03  0.57631778986E+03  0.10566000000E+00 0.  1.
          4    1    3    3  501    0  0.49006946820E+03  0.25402080701E+02 -0.11124026420E+03  0.50317764830E+03  0.00000000000E+00 0.  1.
         13    1    1    2    0    0 -0.48677024358E+01  0.81849043106E+02  0.75984966543E+02  0.11178858032E+03  0.10566000000E+00 0. -1.
<mgrwt>
<rscale>  1 0.53566802E+03</rscale>
<asrwt>0</asrwt>
<pdfrwt beam="2">  1       21 0.11680474E+00 0.10013842E+04</pdfrwt>
<pdfrwt beam="1">  1        4 0.66469726E-01 0.10013842E+04</pdfrwt>
<totfact> 0.44093286E+01</totfact>
</mgrwt>
</event>
<event>
 6    1  0.1412458E-005  0.1044702E+04  0.7818608E-02  0.9572023E-01
         21   -1    0    0  501  502  0.00000000000E+00  0.00000000000E+00  0.83263585548E+03  0.83263585548E+03  0.00000000000E+00 0.  1.
          4   -1    0    0  502    0 -0.00000000000E+00 -0.00000000000E+00 -0.58873017831E+03  0.58873017831E+03  0.00000000000E+00 0.  1.
    9000010    2    1    2  501    0 -0.18409167676E+03  0.29138127205E+03  0.10573449605E+03  0.10500385804E+04  0.98620912873E+03 0.  0.
        -13    1    3    3    0    0 -0.34264190407E+03  0.47512241832E+03 -0.23545846911E+03  0.63133627224E+03  0.10566000000E+00 0.  1.
          4    1    3    3  501    0  0.15855022731E+03 -0.18374114627E+03  0.34119296516E+03  0.41870230819E+03  0.00000000000E+00 0.  1.
         13    1    1    2    0    0  0.18409167676E+03 -0.29138127205E+03  0.13817118112E+03  0.37132745335E+03  0.10566000000E+00 0. -1.
<mgrwt>
<rscale>  1 0.79175896E+03</rscale>
<asrwt>0</asrwt>
<pdfrwt beam="1">  1       21 0.12809782E+00 0.10447015E+04</pdfrwt>
<pdfrwt beam="2">  1        4 0.90573874E-01 0.10447015E+04</pdfrwt>
<totfact> 0.17007173E+01</totfact>
</mgrwt>
</event>
<event>
 6    1  0.1412458E-005  0.1016018E+04  0.7818608E-02  0.9874922E-01
         21   -1    0    0  501  502  0.00000000000E+00  0.00000000000E+00  0.50937145163E+03  0.50937145163E+03  0.00000000000E+00 0.  1.
          4   -1    0    0  502    0 -0.00000000000E+00 -0.00000000000E+00 -0.65824210448E+03  0.65824210448E+03  0.00000000000E+00 0.  1.
    9000010    2    1    2  501    0 -0.55966109601E+02  0.12430773955E+03 -0.92936422675E+02  0.10202593271E+04  0.10068303215E+04 0.  0.
        -13    1    3    3    0    0  0.39130516499E+03 -0.69608261231E+02  0.20675472381E+03  0.44800956370E+03  0.10566000000E+00 0.  1.
          4    1    3    3  501    0 -0.44727127459E+03  0.19391600078E+03 -0.29969114649E+03  0.57224976341E+03  0.00000000000E+00 0.  1.
         13    1    1    2    0    0  0.55966109601E+02 -0.12430773955E+03 -0.55934230168E+02  0.14735422900E+03  0.10566000000E+00 0. -1.
<mgrwt>
<rscale>  1 0.61492222E+03</rscale>
<asrwt>0</asrwt>
<pdfrwt beam="1">  1       21 0.78364838E-01 0.10160177E+04</pdfrwt>
<pdfrwt beam="2">  1        4 0.10126802E+00 0.10160177E+04</pdfrwt>
<totfact> 0.44290188E+01</totfact>
</mgrwt>
</event>
<event>
 6    1  0.1412458E-005  0.1041269E+04  0.7818608E-02  0.9520098E-01
         21   -1    0    0  501  502  0.00000000000E+00  0.00000000000E+00  0.19211835108E+04  0.19211835108E+04  0.00000000000E+00 0.  1.
          4   -1    0    0  502    0 -0.00000000000E+00 -0.00000000000E+00 -0.31513995807E+03  0.31513995807E+03  0.00000000000E+00 0.  1.
    9000010    2    1    2  501    0 -0.10854223377E+03  0.40230560021E+03  0.14630897686E+04  0.17957930976E+04  0.95425885691E+03 0.  0.
        -13    1    3    3    0    0 -0.13335022786E+03  0.68212255991E+03  0.12914275367E+04  0.14665805684E+04  0.10566000000E+00 0.  1.
          4    1    3    3  501    0  0.24807994087E+02 -0.27981695970E+03  0.17166223191E+03  0.32921252919E+03  0.00000000000E+00 0.  1.
         13    1    1    2    0    0  0.10854223377E+03 -0.40230560021E+03  0.14295378420E+03  0.44053037132E+03  0.10566000000E+00 0. -1.
<mgrwt>
<rscale>  1 0.82818181E+03</rscale>
<asrwt>0</asrwt>
<pdfrwt beam="1">  1       21 0.29556669E+00 0.10412690E+04</pdfrwt>
<pdfrwt beam="2">  1        4 0.48483072E-01 0.10412690E+04</pdfrwt>
<totfact> 0.45911700E+00</totfact>
</mgrwt>
</event>
<event>
 6    1  0.1412458E-005  0.1224256E+04  0.7818608E-02  0.9210682E-01
         21   -1    0    0  501  502  0.00000000000E+00  0.00000000000E+00  0.84170772780E+03  0.84170772780E+03  0.00000000000E+00 0.  1.
          4   -1    0    0  502    0 -0.00000000000E+00 -0.00000000000E+00 -0.13772896474E+04  0.13772896474E+04  0.00000000000E+00 0.  1.
    9000010    2    1    2  501    0 -0.76337156999E+03  0.16848032276E+03  0.75756540144E+02  0.12265980118E+04  0.94216869830E+03 0.  0.
        -13    1    3    3    0    0 -0.57564369001E+03  0.21296522386E+02  0.48492151899E+03  0.75297283514E+03  0.10566000000E+00 0.  1.
          4    1    3    3  501    0 -0.18772787998E+03  0.14718380038E+03 -0.40916497885E+03  0.47362517662E+03  0.00000000000E+00 0.  1.
         13    1    1    2    0    0  0.76337156999E+03 -0.16848032276E+03 -0.61133845975E+03  0.99239936344E+03  0.10566000000E+00 0. -1.
<mgrwt>
<rscale>  1 0.10943853E+04</rscale>
<asrwt>0</asrwt>
<pdfrwt beam="1">  1       21 0.12949350E+00 0.12242564E+04</pdfrwt>
<pdfrwt beam="2">  1        4 0.21189071E+00 0.12242564E+04</pdfrwt>
<totfact> 0.16738006E+00</totfact>
</mgrwt>
</event>
<event>
 6    1  0.1412458E-005  0.1023240E+04  0.7818608E-02  0.9717127E-01
         21   -1    0    0  501  502  0.00000000000E+00  0.00000000000E+00  0.35134275041E+03  0.35134275041E+03  0.00000000000E+00 0.  1.
          4   -1    0    0  502    0 -0.00000000000E+00 -0.00000000000E+00 -0.14462901304E+04  0.14462901304E+04  0.00000000000E+00 0.  1.
    9000010    2    1    2  501    0 -0.20802969283E+03 -0.83568799798E+02 -0.45553836614E+03  0.11200607477E+04  0.99837907538E+03 0.  0.
        -13    1    3    3    0    0 -0.45230492316E+03 -0.35083096450E+03 -0.47270016068E+02  0.57436623748E+03  0.10566000000E+00 0.  1.
          4    1    3    3  501    0  0.24427523033E+03  0.26726216470E+03 -0.40826835007E+03  0.54569451024E+03  0.00000000000E+00 0.  1.
         13    1    1    2    0    0  0.20802969283E+03  0.83568799798E+02 -0.63940901382E+03  0.67757213307E+03  0.10566000000E+00 0. -1.
<mgrwt>
<rscale>  1 0.70006148E+03</rscale>
<asrwt>0</asrwt>
<pdfrwt beam="1">  1       21 0.54052732E-01 0.10232404E+04</pdfrwt>
<pdfrwt beam="2">  1        4 0.22250617E+00 0.10232404E+04</pdfrwt>
<totfact> 0.11900855E+01</totfact>
</mgrwt>
</event>
<event>
 6    1  0.1412458E-005  0.1086951E+04  0.7818608E-02  0.9517640E-01
         21   -1    0    0  501  502  0.00000000000E+00  0.00000000000E+00  0.10320554243E+04  0.10320554243E+04  0.00000000000E+00 0.  1.
          4   -1    0    0  502    0 -0.00000000000E+00 -0.00000000000E+00 -0.51454811705E+03  0.51454811705E+03  0.00000000000E+00 0.  1.
    9000010    2    1    2  501    0  0.11902369193E+03  0.34978543446E+03  0.36085930840E+03  0.11452868383E+04  0.10222260084E+04 0.  0.
        -13    1    3    3    0    0 -0.46669555465E+02  0.65967950512E+03  0.42769588757E+03  0.78757785665E+03  0.10566000000E+00 0.  1.
          4    1    3    3  501    0  0.16569324739E+03 -0.30989407066E+03 -0.66836579169E+02  0.35770898168E+03  0.00000000000E+00 0.  1.
         13    1    1    2    0    0 -0.11902369193E+03 -0.34978543446E+03  0.15664799884E+03  0.40131670300E+03  0.10566000000E+00 0. -1.
<mgrwt>
<rscale>  1 0.82995716E+03</rscale>
<asrwt>0</asrwt>
<pdfrwt beam="1">  1       21 0.15877776E+00 0.10869510E+04</pdfrwt>
<pdfrwt beam="2">  1        4 0.79161249E-01 0.10869510E+04</pdfrwt>
<totfact> 0.12844232E+01</totfact>
</mgrwt>
</event>
<event>
 6    1  0.1412458E-005  0.9781484E+03  0.7818608E-02  0.1000768E+00
         21   -1    0    0  501  502  0.00000000000E+00  0.00000000000E+00  0.31584099825E+03  0.31584099825E+03  0.00000000000E+00 0.  1.
          4   -1    0    0  502    0 -0.00000000000E+00 -0.00000000000E+00 -0.10386748741E+04  0.10386748741E+04  0.00000000000E+00 0.  1.
    9000010    2    1    2  501    0  0.57080517718E+02  0.82151207383E+02 -0.47525971232E+03  0.10874953039E+04  0.97301964801E+03 0.  0.
        -13    1    3    3    0    0  0.43016798595E+03  0.10088040829E+02  0.56440556473E+02  0.43397213308E+03  0.10566000000E+00 0.  1.
          4    1    3    3  501    0 -0.37308746824E+03  0.72063166554E+02 -0.53170026879E+03  0.65352317079E+03  0.00000000000E+00 0.  1.
         13    1    1    2    0    0 -0.57080517718E+02 -0.82151207383E+02 -0.24757416349E+03  0.26702056844E+03  0.10566000000E+00 0. -1.
<mgrwt>
<rscale>  1 0.55314837E+03</rscale>
<asrwt>0</asrwt>
<pdfrwt beam="1">  1       21 0.48590924E-01 0.97814837E+03</pdfrwt>
<pdfrwt beam="2">  1        4 0.15979613E+00 0.97814837E+03</pdfrwt>
<totfact> 0.40285519E+01</totfact>
</mgrwt>
</event>
<event>
 6    1  0.1412458E-005  0.1009620E+04  0.7818608E-02  0.1017822E+00
         21   -1    0    0  501  502  0.00000000000E+00  0.00000000000E+00  0.20082672093E+04  0.20082672093E+04  0.00000000000E+00 0.  1.
          4   -1    0    0  502    0 -0.00000000000E+00 -0.00000000000E+00 -0.31837578829E+03  0.31837578829E+03  0.00000000000E+00 0.  1.
    9000010    2    1    2  501    0 -0.47640695331E+02  0.24733832666E+02  0.18773701901E+04  0.21316309508E+04  0.10081915895E+04 0.  0.
        -13    1    3    3    0    0 -0.14284508494E+03  0.45755290086E+03  0.14022454897E+04  0.14819081618E+04  0.10566000000E+00 0.  1.
          4    1    3    3  501    0  0.95204389606E+02 -0.43281906820E+03  0.47512470041E+03  0.64972278899E+03  0.00000000000E+00 0.  1.
         13    1    1    2    0    0  0.47640695331E+02 -0.24733832666E+02 -0.18747876916E+03  0.19501204676E+03  0.10566000000E+00 0. -1.
<mgrwt>
<rscale>  1 0.48480707E+03</rscale>
<asrwt>0</asrwt>
<pdfrwt beam="1">  1       21 0.30896418E+00 0.10096196E+04</pdfrwt>
<pdfrwt beam="2">  1        4 0.48980892E-01 0.10096196E+04</pdfrwt>
<totfact> 0.37301244E+00</totfact>
</mgrwt>
</event>
<event>
 6    1  0.1412458E-005  0.1002573E+04  0.7818608E-02  0.9978839E-01
         21   -1    0    0  501  502  0.00000000000E+00  0.00000000000E+00  0.20686236659E+03  0.20686236659E+03  0.00000000000E+00 0.  1.
          4   -1    0    0  502    0 -0.00000000000E+00 -0.00000000000E+00 -0.16616793934E+04  0.16616793934E+04  0.00000000000E+00 0.  1.
    9000010    2    1    2  501    0  0.16766532882E+01  0.10173932521E+03 -0.10526141903E+04  0.14536672798E+04  0.99739572149E+03 0.  0.
        -13    1    3    3    0    0 -0.20504823223E+03 -0.38281973846E+03 -0.27370956273E+03  0.51333484744E+03  0.10566000000E+00 0.  1.
          4    1    3    3  501    0  0.20672488551E+03  0.48455906368E+03 -0.77890462759E+03  0.94033243237E+03  0.00000000000E+00 0.  1.
         13    1    1    2    0    0 -0.16766532882E+01 -0.10173932521E+03 -0.40220283645E+03  0.41487448015E+03  0.10566000000E+00 0. -1.
<mgrwt>
<rscale>  1 0.56587943E+03</rscale>
<asrwt>0</asrwt>
<pdfrwt beam="1">  1       21 0.31824980E-01 0.10025727E+04</pdfrwt>
<pdfrwt beam="2">  1        4 0.25564298E+00 0.10025727E+04</pdfrwt>
<totfact> 0.22599337E+01</totfact>
</mgrwt>
</event>
<event>
 6    1  0.1412458E-005  0.1020874E+04  0.7818608E-02  0.9792492E-01
         21   -1    0    0  501  502  0.00000000000E+00  0.00000000000E+00  0.12811032150E+04  0.12811032150E+04  0.00000000000E+00 0.  1.
          4   -1    0    0  502    0 -0.00000000000E+00 -0.00000000000E+00 -0.28467907489E+03  0.28467907489E+03  0.00000000000E+00 0.  1.
    9000010    2    1    2  501    0 -0.52275618190E+02  0.16788938047E+03  0.91923913943E+03  0.13737481267E+04  0.10056160976E+04 0.  0.
        -13    1    3    3    0    0 -0.67104641179E+02 -0.76560231393E+02 -0.20193090839E+03  0.22614288586E+03  0.10566000000E+00 0.  1.
          4    1    3    3  501    0  0.14829022989E+02  0.24444961186E+03  0.11211700478E+04  0.11476052408E+04  0.00000000000E+00 0.  1.
         13    1    1    2    0    0  0.52275618190E+02 -0.16788938047E+03  0.77185000642E+02  0.19203416316E+03  0.10566000000E+00 0. -1.
<mgrwt>
<rscale>  1 0.65767036E+03</rscale>
<asrwt>0</asrwt>
<pdfrwt beam="1">  1       21 0.19709280E+00 0.10208738E+04</pdfrwt>
<pdfrwt beam="2">  1        4 0.43796782E-01 0.10208738E+04</pdfrwt>
<totfact> 0.24562194E+01</totfact>
</mgrwt>
</event>
<event>
 6    1  0.1412458E-005  0.1012263E+04  0.7818608E-02  0.9835713E-01
          4   -1    0    0  502    0 -0.00000000000E+00  0.00000000000E+00  0.54826373833E+03  0.54826373833E+03  0.00000000000E+00 0.  1.
         21   -1    0    0  501  502  0.00000000000E+00 -0.00000000000E+00 -0.12089127669E+04  0.12089127669E+04  0.00000000000E+00 0.  1.
    9000010    2    1    2  501    0  0.71907185949E+02  0.13907253902E+03 -0.97534065271E+03  0.14056901699E+04  0.10000818218E+04 0.  0.
        -13    1    3    3    0    0  0.38093599745E+03  0.21956460828E+03 -0.69415119362E+02  0.44512843239E+03  0.10566000000E+00 0.  1.
          4    1    3    3  501    0 -0.30902881150E+03 -0.80492069262E+02 -0.90592553335E+03  0.96056173749E+03  0.00000000000E+00 0.  1.
         13    1    1    2    0    0 -0.71907185949E+02 -0.13907253902E+03  0.31469162412E+03  0.35148633538E+03  0.10566000000E+00 0. -1.
<mgrwt>
<rscale>  1 0.63480719E+03</rscale>
<asrwt>0</asrwt>
<pdfrwt beam="2">  1       21 0.18598658E+00 0.10122625E+04</pdfrwt>
<pdfrwt beam="1">  1        4 0.84348268E-01 0.10122625E+04</pdfrwt>
<totfact> 0.70188317E+00</totfact>
</mgrwt>
</event>
<event>
 6    1  0.1412458E-005  0.1074734E+04  0.7818608E-02  0.9480891E-01
          4   -1    0    0  502    0 -0.00000000000E+00  0.00000000000E+00  0.41158032617E+03  0.41158032617E+03  0.00000000000E+00 0.  1.
         21   -1    0    0  501  502  0.00000000000E+00 -0.00000000000E+00 -0.13848322519E+04  0.13848322519E+04  0.00000000000E+00 0. -1.
    9000010    2    1    2  501    0  0.23610225610E+03 -0.36497112147E+03 -0.71400191616E+03  0.12902912750E+04  0.98290622295E+03 0.  0.
        -13    1    3    3    0    0 -0.29702250192E+03  0.14370117470E+03 -0.29514821754E+03  0.44270179098E+03  0.10566000000E+00 0.  1.
          4    1    3    3  501    0  0.53312475802E+03 -0.50867229617E+03 -0.41885369862E+03  0.84758948398E+03  0.00000000000E+00 0.  1.
         13    1    1    2    0    0 -0.23610225610E+03  0.36497112147E+03 -0.25925000960E+03  0.50612130313E+03  0.10566000000E+00 0. -1.
<mgrwt>
<rscale>  1 0.85707443E+03</rscale>
<asrwt>0</asrwt>
<pdfrwt beam="2">  1       21 0.21305111E+00 0.10747338E+04</pdfrwt>
<pdfrwt beam="1">  1        4 0.63320051E-01 0.10747338E+04</pdfrwt>
<totfact> 0.86554040E+00</totfact>
</mgrwt>
</event>
<event>
 6    1  0.1412458E-005  0.1015064E+04  0.7818608E-02  0.1001986E+00
          4   -1    0    0  502    0 -0.00000000000E+00  0.00000000000E+00  0.94299114215E+03  0.94299114215E+03  0.00000000000E+00 0.  1.
         21   -1    0    0  501  502  0.00000000000E+00 -0.00000000000E+00 -0.34634311536E+03  0.34634311536E+03  0.00000000000E+00 0.  1.
    9000010    2    1    2  501    0  0.87642245340E+01 -0.85704529175E+02  0.43131002600E+03  0.11028972879E+04  0.10114010141E+04 0.  0.
        -13    1    3    3    0    0  0.52194763129E+02  0.32026996420E+03  0.58309483900E+03  0.66730558644E+03  0.10566000000E+00 0.  1.
          4    1    3    3  501    0 -0.43430538595E+02 -0.40597449338E+03 -0.15178481300E+03  0.43559170150E+03  0.00000000000E+00 0.  1.
         13    1    1    2    0    0 -0.87642245340E+01  0.85704529175E+02  0.16533800079E+03  0.18643696957E+03  0.10566000000E+00 0. -1.
<mgrwt>
<rscale>  1 0.54788033E+03</rscale>
<asrwt>0</asrwt>
<pdfrwt beam="2">  1       21 0.53283557E-01 0.10150636E+04</pdfrwt>
<pdfrwt beam="1">  1        4 0.14507556E+00 0.10150636E+04</pdfrwt>
<totfact> 0.42693580E+01</totfact>
</mgrwt>
</event>
<event>
 6    1  0.1412458E-005  0.1026587E+04  0.7818608E-02  0.9704962E-01
          4   -1    0    0  502    0 -0.00000000000E+00  0.00000000000E+00  0.33867069542E+03  0.33867069542E+03  0.00000000000E+00 0.  1.
         21   -1    0    0  501  502  0.00000000000E+00 -0.00000000000E+00 -0.11859667113E+04  0.11859667113E+04  0.00000000000E+00 0. -1.
    9000010    2    1    2  501    0  0.18966381336E+03 -0.13225983956E+03 -0.76077365606E+03  0.12777545253E+04  0.10002075004E+04 0.  0.
        -13    1    3    3    0    0  0.32288256503E+03  0.26729861898E+03 -0.74673578556E+03  0.85633874554E+03  0.10566000000E+00 0.  1.
          4    1    3    3  501    0 -0.13321875167E+03 -0.39955845855E+03 -0.14037870496E+02  0.42141577973E+03  0.00000000000E+00 0.  1.
         13    1    1    2    0    0 -0.18966381336E+03  0.13225983956E+03 -0.86522359858E+02  0.24688288150E+03  0.10566000000E+00 0. -1.
<mgrwt>
<rscale>  1 0.70722146E+03</rscale>
<asrwt>0</asrwt>
<pdfrwt beam="2">  1       21 0.18245642E+00 0.10265866E+04</pdfrwt>
<pdfrwt beam="1">  1        4 0.52103184E-01 0.10265866E+04</pdfrwt>
<totfact> 0.21637791E+01</totfact>
</mgrwt>
</event>
<event>
 6    1  0.1412458E-005  0.8723103E+03  0.7818608E-02  0.1036374E+00
         21   -1    0    0  501  502  0.00000000000E+00  0.00000000000E+00  0.35626992204E+03  0.35626992204E+03  0.00000000000E+00 0.  1.
          4   -1    0    0  502    0 -0.00000000000E+00 -0.00000000000E+00 -0.67424583535E+03  0.67424583535E+03  0.00000000000E+00 0.  1.
    9000010    2    1    2  501    0  0.37494717241E+02  0.29710840272E+02 -0.18844512458E+03  0.89243308562E+03  0.87099750831E+03 0.  0.
        -13    1    3    3    0    0  0.67376387631E+02  0.38936986559E+03 -0.31982356805E+03  0.50836561222E+03  0.10566000000E+00 0.  1.
          4    1    3    3  501    0 -0.29881670390E+02 -0.35965902532E+03  0.13137844347E+03  0.38406747340E+03  0.00000000000E+00 0.  1.
         13    1    1    2    0    0 -0.37494717241E+02 -0.29710840272E+02 -0.12953078873E+03  0.13808267177E+03  0.10566000000E+00 0. -1.
<mgrwt>
<rscale>  1 0.42213315E+03</rscale>
<asrwt>0</asrwt>
<pdfrwt beam="1">  1       21 0.54810758E-01 0.87231029E+03</pdfrwt>
<pdfrwt beam="2">  1        4 0.10373013E+00 0.87231029E+03</pdfrwt>
<totfact> 0.94885253E+01</totfact>
</mgrwt>
</event>
<event>
 6    1  0.1412458E-005  0.1009002E+04  0.7818608E-02  0.9854514E-01
          4   -1    0    0  502    0 -0.00000000000E+00  0.00000000000E+00  0.66209423817E+03  0.66209423817E+03  0.00000000000E+00 0.  1.
         21   -1    0    0  501  502  0.00000000000E+00 -0.00000000000E+00 -0.67177917782E+03  0.67177917782E+03  0.00000000000E+00 0.  1.
    9000010    2    1    2  501    0  0.14629071818E+03  0.26684833968E+02 -0.26068249815E+03  0.10421323662E+04  0.99798369189E+03 0.  0.
        -13    1    3    3    0    0  0.36043907219E+03 -0.40983396580E+02 -0.56042524073E+03  0.66758701692E+03  0.10566000000E+00 0.  1.
          4    1    3    3  501    0 -0.21414835401E+03  0.67668230548E+02  0.29974274257E+03  0.37454534929E+03  0.00000000000E+00 0.  1.
         13    1    1    2    0    0 -0.14629071818E+03 -0.26684833968E+02  0.25099755850E+03  0.29174104978E+03  0.10566000000E+00 0. -1.
<mgrwt>
<rscale>  1 0.62517277E+03</rscale>
<asrwt>0</asrwt>
<pdfrwt beam="2">  1       21 0.10335064E+00 0.10090017E+04</pdfrwt>
<pdfrwt beam="1">  1        4 0.10186065E+00 0.10090017E+04</pdfrwt>
<totfact> 0.22380019E+01</totfact>
</mgrwt>
</event>
<event>
 6    1  0.1412458E-005  0.1025697E+04  0.7818608E-02  0.1012606E+00
          4   -1    0    0  502    0 -0.00000000000E+00  0.00000000000E+00  0.25380354988E+03  0.25380354988E+03  0.00000000000E+00 0.  1.
         21   -1    0    0  501  502  0.00000000000E+00 -0.00000000000E+00 -0.14708642511E+04  0.14708642511E+04  0.00000000000E+00 0.  1.
    9000010    2    1    2  501    0  0.45005054980E+02 -0.39742728426E+02 -0.12782805401E+04  0.16389192192E+04  0.10239385374E+04 0.  0.
        -13    1    3    3    0    0  0.14761590461E+03 -0.51639583474E+03 -0.63303017386E+03  0.83017005825E+03  0.10566000000E+00 0.  1.
          4    1    3    3  501    0 -0.10261084963E+03  0.47665310632E+03 -0.64525036621E+03  0.80874916094E+03  0.00000000000E+00 0.  1.
         13    1    1    2    0    0 -0.45005054980E+02  0.39742728426E+02  0.61219838890E+02  0.85748581763E+02  0.10566000000E+00 0. -1.
<mgrwt>
<rscale>  1 0.50451821E+03</rscale>
<asrwt>0</asrwt>
<pdfrwt beam="2">  1       21 0.22628681E+00 0.10256974E+04</pdfrwt>
<pdfrwt beam="1">  1        4 0.39046700E-01 0.10256974E+04</pdfrwt>
<totfact> 0.19767979E+01</totfact>
</mgrwt>
</event>
<event>
 6    1  0.1412458E-005  0.1063751E+04  0.7818608E-02  0.9633894E-01
         21   -1    0    0  501  502  0.00000000000E+00  0.00000000000E+00  0.39813181199E+03  0.39813181199E+03  0.00000000000E+00 0.  1.
          4   -1    0    0  502    0 -0.00000000000E+00 -0.00000000000E+00 -0.12976553416E+04  0.12976553416E+04  0.00000000000E+00 0.  1.
    9000010    2    1    2  501    0  0.11032254268E+03 -0.24002565733E+03 -0.41095035098E+03  0.11403709658E+04  0.10304282455E+04 0.  0.
        -13    1    3    3    0    0  0.46411706417E+03 -0.44004100008E+03 -0.14850005679E+03  0.65657673507E+03  0.10566000000E+00 0.  1.
          4    1    3    3  501    0 -0.35379452149E+03  0.20001534275E+03 -0.26245029420E+03  0.48379423074E+03  0.00000000000E+00 0.  1.
         13    1    1    2    0    0 -0.11032254268E+03  0.24002565733E+03 -0.48857317859E+03  0.55541618774E+03  0.10566000000E+00 0. -1.
<mgrwt>
<rscale>  1 0.75092909E+03</rscale>
<asrwt>0</asrwt>
<pdfrwt beam="1">  1       21 0.61251047E-01 0.10637508E+04</pdfrwt>
<pdfrwt beam="2">  1        4 0.19963929E+00 0.10637508E+04</pdfrwt>
<totfact> 0.12640364E+01</totfact>
</mgrwt>
</event>
<event>
 6    1  0.1412458E-005  0.1060396E+04  0.7818608E-02  0.9812262E-01
          4   -1    0    0  502    0 -0.00000000000E+00  0.00000000000E+00  0.28139206715E+03  0.28139206715E+03  0.00000000000E+00 0.  1.
         21   -1    0    0  501  502  0.00000000000E+00 -0.00000000000E+00 -0.13381386504E+04  0.13381386504E+04  0.00000000000E+00 0.  1.
    9000010    2    1    2  501    0 -0.78059567620E+02  0.12461273203E+03 -0.10120630690E+04  0.14658483936E+04  0.10501515263E+04 0.  0.
        -13    1    3    3    0    0 -0.49606324275E+03  0.10703744565E+03 -0.18711793366E+03  0.54087788626E+03  0.10566000000E+00 0.  1.
          4    1    3    3  501    0  0.41800367513E+03  0.17575286386E+02 -0.82494513532E+03  0.92497050732E+03  0.00000000000E+00 0.  1.
         13    1    1    2    0    0  0.78059567620E+02 -0.12461273203E+03 -0.44683514214E+02  0.15368232393E+03  0.10566000000E+00 0. -1.
<mgrwt>
<rscale>  1 0.64708624E+03</rscale>
<asrwt>0</asrwt>
<pdfrwt beam="2">  1       21 0.20586749E+00 0.10603961E+04</pdfrwt>
<pdfrwt beam="1">  1        4 0.43291087E-01 0.10603961E+04</pdfrwt>
<totfact> 0.21798288E+01</totfact>
</mgrwt>
</event>
<event>
 6    1  0.1412458E-005  0.9949267E+03  0.7818608E-02  0.9650663E-01
          4   -1    0    0  502    0 -0.00000000000E+00  0.00000000000E+00  0.65901130864E+03  0.65901130864E+03  0.00000000000E+00 0.  1.
         21   -1    0    0  501  502  0.00000000000E+00 -0.00000000000E+00 -0.65152123962E+03  0.65152123962E+03  0.00000000000E+00 0.  1.
    9000010    2    1    2  501    0 -0.30499346382E+03  0.21041344503E+01  0.76360999230E+02  0.99785274951E+03  0.94702358321E+03 0.  0.
        -13    1    3    3    0    0 -0.42487357910E+03 -0.39416349525E+03  0.70325009840E+02  0.58380479389E+03  0.10566000000E+00 0.  1.
          4    1    3    3  501    0  0.11988011528E+03  0.39626762970E+03  0.60359893905E+01  0.41404795562E+03  0.00000000000E+00 0.  1.
         13    1    1    2    0    0  0.30499346382E+03 -0.21041344503E+01 -0.68870930214E+02  0.31267979875E+03  0.10566000000E+00 0. -1.
<mgrwt>
<rscale>  1 0.74031847E+03</rscale>
<asrwt>0</asrwt>
<pdfrwt beam="2">  1       21 0.10023404E+00 0.99492668E+03</pdfrwt>
<pdfrwt beam="1">  1        4 0.10138636E+00 0.99492668E+03</pdfrwt>
<totfact> 0.24466214E+01</totfact>
</mgrwt>
</event>
<event>
 6    1  0.1412458E-005  0.1243026E+04  0.7818608E-02  0.9204055E-01
         21   -1    0    0  501  502  0.00000000000E+00  0.00000000000E+00  0.26782778990E+04  0.26782778990E+04  0.00000000000E+00 0.  1.
          4   -1    0    0  502    0 -0.00000000000E+00 -0.00000000000E+00 -0.40738696268E+03  0.40738696268E+03  0.00000000000E+00 0.  1.
    9000010    2    1    2  501    0 -0.37829768287E+03  0.66554956309E+03  0.97193408539E+03  0.15779002018E+04  0.97930987066E+03 0.  0.
        -13    1    3    3    0    0  0.14086225198E+03 -0.14585977770E+03  0.42324091914E+03  0.46930814566E+03  0.10566000000E+00 0.  1.
          4    1    3    3  501    0 -0.51915993486E+03  0.81140934079E+03  0.54869316625E+03  0.11085920562E+04  0.00000000000E+00 0.  1.
         13    1    1    2    0    0  0.37829768287E+03 -0.66554956309E+03  0.12989568510E+04  0.15077646599E+04  0.10566000000E+00 0. -1.
<mgrwt>
<rscale>  1 0.11011676E+04</rscale>
<asrwt>0</asrwt>
<pdfrwt beam="1">  1       21 0.41204274E+00 0.12430258E+04</pdfrwt>
<pdfrwt beam="2">  1        4 0.62674919E-01 0.12430258E+04</pdfrwt>
<totfact> 0.45949274E-01</totfact>
</mgrwt>
</event>
<event>
 6    1  0.1412458E-005  0.9975638E+03  0.7818608E-02  0.9917569E-01
          4   -1    0    0  502    0 -0.00000000000E+00  0.00000000000E+00  0.56393020107E+03  0.56393020107E+03  0.00000000000E+00 0.  1.
         21   -1    0    0  501  502  0.00000000000E+00 -0.00000000000E+00 -0.57457767934E+03  0.57457767934E+03  0.00000000000E+00 0.  1.
    9000010    2    1    2  501    0 -0.93214087569E+02  0.84112629374E+02  0.50528886325E+02  0.99884271192E+03  0.98963114051E+03 0.  0.
        -13    1    3    3    0    0  0.31597764430E+03  0.14173267632E+03  0.34701503179E+03  0.49025449176E+03  0.10566000000E+00 0.  1.
          4    1    3    3  501    0 -0.40919173187E+03 -0.57620046944E+02 -0.29648614547E+03  0.50858822017E+03  0.00000000000E+00 0.  1.
         13    1    1    2    0    0  0.93214087569E+02 -0.84112629374E+02 -0.61176364593E+02  0.13966516849E+03  0.10566000000E+00 0. -1.
<mgrwt>
<rscale>  1 0.59417343E+03</rscale>
<asrwt>0</asrwt>
<pdfrwt beam="2">  1       21 0.88396566E-01 0.99756383E+03</pdfrwt>
<pdfrwt beam="1">  1        4 0.86758492E-01 0.99756383E+03</pdfrwt>
<totfact> 0.48115942E+01</totfact>
</mgrwt>
</event>
<event>
 6    1  0.1412458E-005  0.1045458E+04  0.7818608E-02  0.9667828E-01
          4   -1    0    0  502    0 -0.00000000000E+00  0.00000000000E+00  0.10526357961E+04  0.10526357961E+04  0.00000000000E+00 0.  1.
         21   -1    0    0  501  502  0.00000000000E+00 -0.00000000000E+00 -0.56561704512E+03  0.56561704512E+03  0.00000000000E+00 0.  1.
    9000010    2    1    2  501    0 -0.85763885939E+02  0.23275148154E+03 -0.28839661591E+02  0.10458555934E+04  0.10156049921E+04 0.  0.
        -13    1    3    3    0    0 -0.44054225663E+03  0.33936592665E+03 -0.25505029209E+03  0.61179847557E+03  0.10566000000E+00 0.  1.
          4    1    3    3  501    0  0.35477837069E+03 -0.10661444510E+03  0.22621063049E+03  0.43405711786E+03  0.00000000000E+00 0.  1.
         13    1    1    2    0    0  0.85763885939E+02 -0.23275148154E+03  0.51585841257E+03  0.57239724779E+03  0.10566000000E+00 0. -1.
<mgrwt>
<rscale>  1 0.72965008E+03</rscale>
<asrwt>0</asrwt>
<pdfrwt beam="2">  1       21 0.87018007E-01 0.10454579E+04</pdfrwt>
<pdfrwt beam="1">  1        4 0.16194397E+00 0.10454579E+04</pdfrwt>
<totfact> 0.10303859E+01</totfact>
</mgrwt>
</event>
<event>
 6    1  0.1412458E-005  0.1000697E+04  0.7818608E-02  0.1004974E+00
          4   -1    0    0  502    0 -0.00000000000E+00  0.00000000000E+00  0.14630552452E+04  0.14630552452E+04  0.00000000000E+00 0.  1.
         21   -1    0    0  501  502  0.00000000000E+00 -0.00000000000E+00 -0.24398927018E+03  0.24398927018E+03  0.00000000000E+00 0.  1.
    9000010    2    1    2  501    0 -0.56312065197E+02 -0.59453889588E+02  0.80313590776E+03  0.12831298474E+04  0.99734101761E+03 0.  0.
        -13    1    3    3    0    0 -0.46021672046E+03  0.94335179754E+02  0.13750459327E+03  0.48949574080E+03  0.10566000000E+00 0.  1.
          4    1    3    3  501    0  0.40390465526E+03 -0.15378906934E+03  0.66563131450E+03  0.79363410665E+03  0.00000000000E+00 0.  1.
         13    1    1    2    0    0  0.56312065197E+02  0.59453889588E+02  0.41593006726E+03  0.42391466794E+03  0.10566000000E+00 0. -1.
<mgrwt>
<rscale>  1 0.53522149E+03</rscale>
<asrwt>0</asrwt>
<pdfrwt beam="2">  1       21 0.37536811E-01 0.10006972E+04</pdfrwt>
<pdfrwt beam="1">  1        4 0.22508542E+00 0.10006972E+04</pdfrwt>
<totfact> 0.24984237E+01</totfact>
</mgrwt>
</event>
<event>
 6    1  0.1412458E-005  0.1042417E+04  0.7818608E-02  0.9580602E-01
         21   -1    0    0  501  502  0.00000000000E+00  0.00000000000E+00  0.24697301960E+04  0.24697301960E+04  0.00000000000E+00 0.  1.
          4   -1    0    0  502    0 -0.00000000000E+00 -0.00000000000E+00 -0.23951683977E+03  0.23951683977E+03  0.00000000000E+00 0.  1.
    9000010    2    1    2  501    0  0.19221488051E+00  0.33683808478E+03  0.10407990225E+04  0.14730567588E+04  0.98649565494E+03 0.  0.
        -13    1    3    3    0    0  0.15396680717E+03  0.47764902383E+03  0.11374496197E+04  0.12432401281E+04  0.10566000000E+00 0.  1.
          4    1    3    3  501    0 -0.15377459229E+03 -0.14081093905E+03 -0.96650597238E+02  0.22981663068E+03  0.00000000000E+00 0.  1.
         13    1    1    2    0    0 -0.19221488051E+00 -0.33683808478E+03  0.11894143338E+04  0.12361902770E+04  0.10566000000E+00 0. -1.
<mgrwt>
<rscale>  1 0.78593486E+03</rscale>
<asrwt>0</asrwt>
<pdfrwt beam="1">  1       21 0.37995847E+00 0.10424172E+04</pdfrwt>
<pdfrwt beam="2">  1        4 0.36848746E-01 0.10424172E+04</pdfrwt>
<totfact> 0.23715570E+00</totfact>
</mgrwt>
</event>
<event>
 6    1  0.1412458E-005  0.1289011E+04  0.7818608E-02  0.9159636E-01
         21   -1    0    0  501  502  0.00000000000E+00  0.00000000000E+00  0.12476175433E+04  0.12476175433E+04  0.00000000000E+00 0. -1.
          4   -1    0    0  502    0 -0.00000000000E+00 -0.00000000000E+00 -0.92120014159E+03  0.92120014159E+03  0.00000000000E+00 0.  1.
    9000010    2    1    2  501    0 -0.39993991923E+03 -0.70546009275E+03  0.41229355049E+03  0.13533419921E+04  0.10019594275E+04 0.  0.
        -13    1    3    3    0    0 -0.73912618838E+03 -0.46530857146E+03  0.27590722847E+03  0.91593908035E+03  0.10566000000E+00 0.  1.
          4    1    3    3  501    0  0.33918626915E+03 -0.24015152129E+03  0.13638632202E+03  0.43740291173E+03  0.00000000000E+00 0.  1.
         13    1    1    2    0    0  0.39993991923E+03  0.70546009275E+03 -0.85876148779E+02  0.81547569280E+03  0.10566000000E+00 0. -1.
<mgrwt>
<rscale>  1 0.11479944E+04</rscale>
<asrwt>0</asrwt>
<pdfrwt beam="1">  1       21 0.19194116E+00 0.12890107E+04</pdfrwt>
<pdfrwt beam="2">  1        4 0.14172310E+00 0.12890107E+04</pdfrwt>
<totfact> 0.17035840E+00</totfact>
</mgrwt>
</event>
<event>
 6    1  0.1412458E-005  0.1063279E+04  0.7818608E-02  0.9523188E-01
          4   -1    0    0  502    0 -0.00000000000E+00  0.00000000000E+00  0.70670274332E+03  0.70670274332E+03  0.00000000000E+00 0.  1.
         21   -1    0    0  501  502  0.00000000000E+00 -0.00000000000E+00 -0.79401915072E+03  0.79401915072E+03  0.00000000000E+00 0. -1.
    9000010    2    1    2  501    0 -0.20170415465E+03  0.33046318908E+03 -0.23042828586E+03  0.10879610598E+04  0.99028863845E+03 0.  0.
        -13    1    3    3    0    0  0.16060875616E+03  0.41213932496E+03 -0.47045837608E+03  0.64574382732E+03  0.10566000000E+00 0.  1.
          4    1    3    3  501    0 -0.36231291081E+03 -0.81676135882E+02  0.24003009022E+03  0.44221723250E+03  0.00000000000E+00 0.  1.
         13    1    1    2    0    0  0.20170415465E+03 -0.33046318908E+03  0.14311187846E+03  0.41276083421E+03  0.10566000000E+00 0. -1.
<mgrwt>
<rscale>  1 0.82595648E+03</rscale>
<asrwt>0</asrwt>
<pdfrwt beam="2">  1       21 0.12215679E+00 0.10632789E+04</pdfrwt>
<pdfrwt beam="1">  1        4 0.10872350E+00 0.10632789E+04</pdfrwt>
<totfact> 0.12388276E+01</totfact>
</mgrwt>
</event>
<event>
 6    1  0.1412458E-005  0.9956800E+03  0.7818608E-02  0.1020677E+00
          4   -1    0    0  502    0 -0.00000000000E+00  0.00000000000E+00  0.18684481809E+03  0.18684481809E+03  0.00000000000E+00 0.  1.
         21   -1    0    0  501  502  0.00000000000E+00 -0.00000000000E+00 -0.15729978878E+04  0.15729978878E+04  0.00000000000E+00 0.  1.
    9000010    2    1    2  501    0 -0.44334247870E+02  0.25860717192E+02 -0.13883417258E+04  0.17084704993E+04  0.99435627287E+03 0.  0.
        -13    1    3    3    0    0 -0.19304428953E+03  0.29142384139E+03 -0.71355369608E+02  0.35677100917E+03  0.10566000000E+00 0.  1.
          4    1    3    3  501    0  0.14871004166E+03 -0.26556312419E+03 -0.13169863562E+04  0.13516994902E+04  0.00000000000E+00 0.  1.
         13    1    1    2    0    0  0.44334247870E+02 -0.25860717192E+02  0.21886560380E+01  0.51372206563E+02  0.10566000000E+00 0. -1.
<mgrwt>
<rscale>  1 0.47443123E+03</rscale>
<asrwt>0</asrwt>
<pdfrwt beam="2">  1       21 0.24199967E+00 0.99568002E+03</pdfrwt>
<pdfrwt beam="1">  1        4 0.28745357E-01 0.99568002E+03</pdfrwt>
<totfact> 0.28867328E+01</totfact>
</mgrwt>
</event>
<event>
 6    1  0.1412458E-005  0.9528633E+03  0.7818608E-02  0.1005941E+00
         21   -1    0    0  501  502  0.00000000000E+00  0.00000000000E+00  0.45759631908E+03  0.45759631908E+03  0.00000000000E+00 0.  1.
          4   -1    0    0  502    0 -0.00000000000E+00 -0.00000000000E+00 -0.60061873678E+03  0.60061873678E+03  0.00000000000E+00 0.  1.
    9000010    2    1    2  501    0 -0.64315210133E+02 -0.65833233628E+02 -0.15505536109E+03  0.96539661052E+03  0.94840813456E+03 0.  0.
        -13    1    3    3    0    0 -0.41774357352E+03  0.22042179348E+03 -0.19029340859E+03  0.50922200735E+03  0.10566000000E+00 0.  1.
          4    1    3    3  501    0  0.35342836338E+03 -0.28625502710E+03  0.35238047503E+02  0.45617460317E+03  0.00000000000E+00 0.  1.
         13    1    1    2    0    0  0.64315210133E+02  0.65833233628E+02  0.12032943390E+02  0.92818445339E+02  0.10566000000E+00 0. -1.
<mgrwt>
<rscale>  1 0.53120414E+03</rscale>
<asrwt>0</asrwt>
<pdfrwt beam="1">  1       21 0.70399434E-01 0.95286329E+03</pdfrwt>
<pdfrwt beam="2">  1        4 0.92402882E-01 0.95286329E+03</pdfrwt>
<totfact> 0.71031322E+01</totfact>
</mgrwt>
</event>
<event>
 6    1  0.1412458E-005  0.1036583E+04  0.7818608E-02  0.9700204E-01
          4   -1    0    0  502    0 -0.00000000000E+00  0.00000000000E+00  0.13220132663E+04  0.13220132663E+04  0.00000000000E+00 0.  1.
         21   -1    0    0  501  502  0.00000000000E+00 -0.00000000000E+00 -0.31062167264E+03  0.31062167264E+03  0.00000000000E+00 0.  1.
    9000010    2    1    2  501    0 -0.17154291837E+03 -0.15050819776E+03  0.71811490209E+03  0.12610290732E+04  0.10111506418E+04 0.  0.
        -13    1    3    3    0    0 -0.31346359035E+03 -0.51371448298E+03  0.60882378696E+03  0.85605397449E+03  0.10566000000E+00 0.  1.
          4    1    3    3  501    0  0.14192067198E+03  0.36320628522E+03  0.10929111513E+03  0.40497509875E+03  0.00000000000E+00 0.  1.
         13    1    1    2    0    0  0.17154291837E+03  0.15050819776E+03  0.29327669153E+03  0.37160586566E+03  0.10566000000E+00 0. -1.
<mgrwt>
<rscale>  1 0.71004647E+03</rscale>
<asrwt>0</asrwt>
<pdfrwt beam="2">  1       21 0.47787950E-01 0.10365835E+04</pdfrwt>
<pdfrwt beam="1">  1        4 0.20338665E+00 0.10365835E+04</pdfrwt>
<totfact> 0.20631899E+01</totfact>
</mgrwt>
</event>
<event>
 6    1  0.1412458E-005  0.1000761E+04  0.7818608E-02  0.9886971E-01
          4   -1    0    0  502    0 -0.00000000000E+00  0.00000000000E+00  0.87599273553E+03  0.87599273553E+03  0.00000000000E+00 0.  1.
         21   -1    0    0  501  502  0.00000000000E+00 -0.00000000000E+00 -0.37300111977E+03  0.37300111977E+03  0.00000000000E+00 0.  1.
    9000010    2    1    2  501    0 -0.10512842549E+02 -0.13680767151E+03  0.40137106765E+03  0.10782495851E+04  0.99131053408E+03 0.  0.
        -13    1    3    3    0    0 -0.24831215557E+03  0.12169155397E+03  0.60997749542E+03  0.66973152606E+03  0.10566000000E+00 0.  1.
          4    1    3    3  501    0  0.23779931302E+03 -0.25849922548E+03 -0.20860642778E+03  0.40851805904E+03  0.00000000000E+00 0.  1.
         13    1    1    2    0    0  0.10512842549E+02  0.13680767151E+03  0.10162054812E+03  0.17074427020E+03  0.10566000000E+00 0. -1.
<mgrwt>
<rscale>  1 0.60896900E+03</rscale>
<asrwt>0</asrwt>
<pdfrwt beam="2">  1       21 0.57384788E-01 0.10007614E+04</pdfrwt>
<pdfrwt beam="1">  1        4 0.13476811E+00 0.10007614E+04</pdfrwt>
<totfact> 0.44082067E+01</totfact>
</mgrwt>
</event>
<event>
 6    1  0.1412458E-005  0.1029013E+04  0.7818608E-02  0.9859408E-01
          4   -1    0    0  502    0 -0.00000000000E+00  0.00000000000E+00  0.20733303356E+03  0.20733303356E+03  0.00000000000E+00 0.  1.
         21   -1    0    0  501  502  0.00000000000E+00 -0.00000000000E+00 -0.22419766942E+04  0.22419766942E+04  0.00000000000E+00 0.  1.
    9000010    2    1    2  501    0 -0.16621068426E+02  0.13698290403E+03 -0.20657546539E+04  0.23078583899E+04  0.10197193151E+04 0.  0.
        -13    1    3    3    0    0  0.47776769231E+03  0.21502625561E+03 -0.11649578879E+04  0.12773508328E+04  0.10566000000E+00 0.  1.
          4    1    3    3  501    0 -0.49438876073E+03 -0.78043351581E+02 -0.90079676606E+03  0.10305075571E+04  0.00000000000E+00 0.  1.
         13    1    1    2    0    0  0.16621068426E+02 -0.13698290403E+03  0.31110993299E+02  0.14145133786E+03  0.10566000000E+00 0. -1.
<mgrwt>
<rscale>  1 0.62269551E+03</rscale>
<asrwt>0</asrwt>
<pdfrwt beam="2">  1       21 0.34491949E+00 0.10290131E+04</pdfrwt>
<pdfrwt beam="1">  1        4 0.31897390E-01 0.10290131E+04</pdfrwt>
<totfact> 0.53044281E+00</totfact>
</mgrwt>
</event>
<event>
 6    1  0.1412458E-005  0.1005237E+04  0.7818608E-02  0.1038192E+00
         21   -1    0    0  501  502  0.00000000000E+00  0.00000000000E+00  0.77853117635E+03  0.77853117635E+03  0.00000000000E+00 0.  1.
          4   -1    0    0  502    0 -0.00000000000E+00 -0.00000000000E+00 -0.39110174891E+03  0.39110174891E+03  0.00000000000E+00 0.  1.
    9000010    2    1    2  501    0 -0.22777904584E+02  0.18967907524E+02  0.44926204102E+03  0.11010625401E+04  0.10048003390E+04 0.  0.
        -13    1    3    3    0    0 -0.29234529686E+03  0.56120222304E+02 -0.22553057658E+03  0.37346928131E+03  0.10566000000E+00 0.  1.
          4    1    3    3  501    0  0.26956739228E+03 -0.37152314779E+02  0.67479261760E+03  0.72759325879E+03  0.00000000000E+00 0.  1.
         13    1    1    2    0    0  0.22777904584E+02 -0.18967907524E+02 -0.61832613589E+02  0.68570385156E+02  0.10566000000E+00 0. -1.
<mgrwt>
<rscale>  1 0.41655944E+03</rscale>
<asrwt>0</asrwt>
<pdfrwt beam="1">  1       21 0.11977403E+00 0.10052375E+04</pdfrwt>
<pdfrwt beam="2">  1        4 0.60169500E-01 0.10052375E+04</pdfrwt>
<totfact> 0.51423085E+01</totfact>
</mgrwt>
</event>
<event>
 6    1  0.1412458E-005  0.1034845E+04  0.7818608E-02  0.9471840E-01
         21   -1    0    0  501  502  0.00000000000E+00  0.00000000000E+00  0.60468850896E+03  0.60468850896E+03  0.00000000000E+00 0.  1.
          4   -1    0    0  502    0 -0.00000000000E+00 -0.00000000000E+00 -0.16064570473E+04  0.16064570473E+04  0.00000000000E+00 0.  1.
    9000010    2    1    2  501    0 -0.27463801484E+03  0.42099560805E+03  0.59814816926E+02  0.10365721986E+04  0.90456661964E+03 0.  0.
        -13    1    3    3    0    0 -0.21596165893E+03  0.66114245353E+03 -0.15094747490E+03  0.71171197358E+03  0.10566000000E+00 0.  1.
          4    1    3    3  501    0 -0.58676355903E+02 -0.24014684548E+03  0.21076229183E+03  0.32486022501E+03  0.00000000000E+00 0.  1.
         13    1    1    2    0    0  0.27463801484E+03 -0.42099560805E+03 -0.10615833552E+04  0.11745733576E+04  0.10566000000E+00 0. -1.
<mgrwt>
<rscale>  1 0.86392144E+03</rscale>
<asrwt>0</asrwt>
<pdfrwt beam="1">  1       21 0.93029003E-01 0.10348450E+04</pdfrwt>
<pdfrwt beam="2">  1        4 0.24714723E+00 0.10348450E+04</pdfrwt>
<totfact> 0.23838345E+00</totfact>
</mgrwt>
</event>
<event>
 6    1  0.1412458E-005  0.1007357E+04  0.7818608E-02  0.9814359E-01
         21   -1    0    0  501  502  0.00000000000E+00  0.00000000000E+00  0.16890716098E+03  0.16890716098E+03  0.00000000000E+00 0.  1.
          4   -1    0    0  502    0 -0.00000000000E+00 -0.00000000000E+00 -0.23147500083E+04  0.23147500083E+04  0.00000000000E+00 0.  1.
    9000010    2    1    2  501    0 -0.16617452447E+03 -0.37437766635E+02 -0.14388488111E+04  0.17564322127E+04  0.99285077323E+03 0.  0.
        -13    1    3    3    0    0 -0.19557621493E+03 -0.50275528146E+03 -0.72142966216E+03  0.90081834877E+03  0.10566000000E+00 0.  1.
          4    1    3    3  501    0  0.29401690452E+02  0.46531751482E+03 -0.71741914891E+03  0.85561386398E+03  0.00000000000E+00 0.  1.
         13    1    1    2    0    0  0.16617452447E+03  0.37437766635E+02 -0.70699403621E+03  0.72722495650E+03  0.10566000000E+00 0. -1.
<mgrwt>
<rscale>  1 0.64597611E+03</rscale>
<asrwt>0</asrwt>
<pdfrwt beam="1">  1       21 0.25985718E-01 0.10073570E+04</pdfrwt>
<pdfrwt beam="2">  1        4 0.35611537E+00 0.10073570E+04</pdfrwt>
<totfact> 0.79774122E+00</totfact>
</mgrwt>
</event>
<event>
 6    1  0.1412458E-005  0.1036906E+04  0.7818608E-02  0.9845043E-01
         21   -1    0    0  501  502  0.00000000000E+00  0.00000000000E+00  0.17730942138E+03  0.17730942138E+03  0.00000000000E+00 0.  1.
          4   -1    0    0  502    0 -0.00000000000E+00 -0.00000000000E+00 -0.20511584385E+04  0.20511584385E+04  0.00000000000E+00 0.  1.
    9000010    2    1    2  501    0  0.10270902024E+03 -0.97043117594E+02 -0.17761851741E+04  0.20566984013E+04  0.10272331925E+04 0.  0.
        -13    1    3    3    0    0 -0.28819530786E+03  0.12265241096E+03 -0.11116215620E+03  0.33235099747E+03  0.10566000000E+00 0.  1.
          4    1    3    3  501    0  0.39090432809E+03 -0.21969552855E+03 -0.16650230179E+04  0.17243474038E+04  0.00000000000E+00 0.  1.
         13    1    1    2    0    0 -0.10270902024E+03  0.97043117594E+02 -0.97663843081E+02  0.17176945864E+03  0.10566000000E+00 0. -1.
<mgrwt>
<rscale>  1 0.63000278E+03</rscale>
<asrwt>0</asrwt>
<pdfrwt beam="1">  1       21 0.27278372E-01 0.10369062E+04</pdfrwt>
<pdfrwt beam="2">  1        4 0.31556284E+00 0.10369062E+04</pdfrwt>
<totfact> 0.13089502E+01</totfact>
</mgrwt>
</event>
<event>
 6    1  0.1412458E-005  0.1002318E+04  0.7818608E-02  0.1020547E+00
          4   -1    0    0  502    0 -0.00000000000E+00  0.00000000000E+00  0.18421303993E+04  0.18421303993E+04  0.00000000000E+00 0.  1.
         21   -1    0    0  501  502  0.00000000000E+00 -0.00000000000E+00 -0.15452132307E+03  0.15452132307E+03  0.00000000000E+00 0.  1.
    9000010    2    1    2  501    0  0.30759383392E+02  0.40065334089E+02  0.15130180902E+04  0.18149008098E+04  0.10010443733E+04 0.  0.
        -13    1    3    3    0    0  0.46989059645E+03 -0.66965542981E+02  0.11181696289E+04  0.12147365503E+04  0.10566000000E+00 0.  1.
          4    1    3    3  501    0 -0.43913121306E+03  0.10703087707E+03  0.39484846137E+03  0.60016425950E+03  0.00000000000E+00 0.  1.
         13    1    1    2    0    0 -0.30759383392E+02 -0.40065334089E+02  0.17459098598E+03  0.18175091255E+03  0.10566000000E+00 0. -1.
<mgrwt>
<rscale>  1 0.47489878E+03</rscale>
<asrwt>0</asrwt>
<pdfrwt beam="2">  1       21 0.23772513E-01 0.10023179E+04</pdfrwt>
<pdfrwt beam="1">  1        4 0.28340466E+00 0.10023179E+04</pdfrwt>
<totfact> 0.27313767E+01</totfact>
</mgrwt>
</event>
<event>
 6    1  0.1412458E-005  0.8157352E+03  0.7818608E-02  0.1048855E+00
         21   -1    0    0  501  502  0.00000000000E+00  0.00000000000E+00  0.12473316179E+03  0.12473316179E+03  0.00000000000E+00 0.  1.
          4   -1    0    0  502    0 -0.00000000000E+00 -0.00000000000E+00 -0.15342244039E+04  0.15342244039E+04  0.00000000000E+00 0.  1.
    9000010    2    1    2  501    0 -0.34931253503E+02  0.21007696288E+02 -0.12372737594E+04  0.14819818943E+04  0.81471618578E+03 0.  0.
        -13    1    3    3    0    0 -0.42035819549E+03 -0.49828134257E+02 -0.61521562267E+03  0.74677582247E+03  0.10566000000E+00 0.  1.
          4    1    3    3  501    0  0.38542694199E+03  0.70835830546E+02 -0.62205813674E+03  0.73520607178E+03  0.00000000000E+00 0.  1.
         13    1    1    2    0    0  0.34931253503E+02 -0.21007696288E+02 -0.17221748270E+03  0.17697567145E+03  0.10566000000E+00 0. -1.
<mgrwt>
<rscale>  1 0.38567842E+03</rscale>
<asrwt>0</asrwt>
<pdfrwt beam="1">  1       21 0.19189717E-01 0.81573524E+03</pdfrwt>
<pdfrwt beam="2">  1        4 0.23603453E+00 0.81573524E+03</pdfrwt>
<totfact> 0.82645757E+01</totfact>
</mgrwt>
</event>
<event>
 6    1  0.1412458E-005  0.1007938E+04  0.7818608E-02  0.9816169E-01
         21   -1    0    0  501  502  0.00000000000E+00  0.00000000000E+00  0.40160304236E+03  0.40160304236E+03  0.00000000000E+00 0.  1.
          4   -1    0    0  502    0 -0.00000000000E+00 -0.00000000000E+00 -0.92449859712E+03  0.92449859712E+03  0.00000000000E+00 0.  1.
    9000010    2    1    2  501    0  0.96870213707E+02  0.13853109182E+03 -0.31056286883E+03  0.10546980979E+04  0.99366195486E+03 0.  0.
        -13    1    3    3    0    0  0.42808527452E+03 -0.24398488328E+03 -0.22441334146E+03  0.54143049833E+03  0.10566000000E+00 0.  1.
          4    1    3    3  501    0 -0.33121506081E+03  0.38251597510E+03 -0.86149527369E+02  0.51326759958E+03  0.00000000000E+00 0.  1.
         13    1    1    2    0    0 -0.96870213707E+02 -0.13853109182E+03 -0.21233268593E+03  0.27140354158E+03  0.10566000000E+00 0. -1.
<mgrwt>
<rscale>  1 0.64501982E+03</rscale>
<asrwt>0</asrwt>
<pdfrwt beam="1">  1       21 0.61785084E-01 0.10079379E+04</pdfrwt>
<pdfrwt beam="2">  1        4 0.14223055E+00 0.10079379E+04</pdfrwt>
<totfact> 0.32450767E+01</totfact>
</mgrwt>
</event>
<event>
 6    1  0.1412458E-005  0.1060504E+04  0.7818608E-02  0.9630494E-01
         21   -1    0    0  501  502  0.00000000000E+00  0.00000000000E+00  0.41955090693E+03  0.41955090693E+03  0.00000000000E+00 0.  1.
          4   -1    0    0  502    0 -0.00000000000E+00 -0.00000000000E+00 -0.11700252248E+04  0.11700252248E+04  0.00000000000E+00 0.  1.
    9000010    2    1    2  501    0  0.59863345282E+02  0.26297297539E+03 -0.36997423662E+03  0.11231871000E+04  0.10256363488E+04 0.  0.
        -13    1    3    3    0    0  0.28284410079E+03  0.59487980641E+03 -0.19701989299E+03  0.68753154024E+03  0.10566000000E+00 0.  1.
          4    1    3    3  501    0 -0.22298075550E+03 -0.33190683103E+03 -0.17295434362E+03  0.43565555980E+03  0.00000000000E+00 0.  1.
         13    1    1    2    0    0 -0.59863345282E+02 -0.26297297539E+03 -0.38050008128E+03  0.46638903172E+03  0.10566000000E+00 0. -1.
<mgrwt>
<rscale>  1 0.75310348E+03</rscale>
<asrwt>0</asrwt>
<pdfrwt beam="1">  1       21 0.64546296E-01 0.10605038E+04</pdfrwt>
<pdfrwt beam="2">  1        4 0.18000387E+00 0.10605038E+04</pdfrwt>
<totfact> 0.15283282E+01</totfact>
</mgrwt>
</event>
<event>
 6    1  0.1412458E-005  0.1045108E+04  0.7818608E-02  0.9586132E-01
          4   -1    0    0  502    0 -0.00000000000E+00  0.00000000000E+00  0.22480120110E+04  0.22480120110E+04  0.00000000000E+00 0.  1.
         21   -1    0    0  501  502  0.00000000000E+00 -0.00000000000E+00 -0.21724211378E+03  0.21724211378E+03  0.00000000000E+00 0.  1.
    9000010    2    1    2  501    0  0.32732361812E+03 -0.20265230264E+02  0.13295912680E+04  0.16911721448E+04  0.99231993470E+03 0.  0.
        -13    1    3    3    0    0 -0.57694503722E+02 -0.41966199451E+03  0.29171878046E+03  0.51433909382E+03  0.10566000000E+00 0.  1.
          4    1    3    3  501    0  0.38501812184E+03  0.39939676424E+03  0.10378724875E+04  0.11768330510E+04  0.00000000000E+00 0.  1.
         13    1    1    2    0    0 -0.32732361812E+03  0.20265230264E+02  0.70117862923E+03  0.77408198002E+03  0.10566000000E+00 0. -1.
<mgrwt>
<rscale>  1 0.78220906E+03</rscale>
<asrwt>0</asrwt>
<pdfrwt beam="2">  1       21 0.33421865E-01 0.10451078E+04</pdfrwt>
<pdfrwt beam="1">  1        4 0.34584799E+00 0.10451078E+04</pdfrwt>
<totfact> 0.55702759E+00</totfact>
</mgrwt>
</event>
<event>
 6    1  0.1412458E-005  0.1016027E+04  0.7818608E-02  0.1009272E+00
          4   -1    0    0  502    0 -0.00000000000E+00  0.00000000000E+00  0.37356939616E+03  0.37356939616E+03  0.00000000000E+00 0.  1.
         21   -1    0    0  501  502  0.00000000000E+00 -0.00000000000E+00 -0.90948308583E+03  0.90948308583E+03  0.00000000000E+00 0.  1.
    9000010    2    1    2  501    0 -0.16683105135E+02  0.66395131577E+02 -0.60766771394E+03  0.11838794481E+04  0.10137178392E+04 0.  0.
        -13    1    3    3    0    0  0.54332105658E+02  0.15087720611E+03  0.26203046760E+03  0.30720658545E+03  0.10566000000E+00 0.  1.
          4    1    3    3  501    0 -0.71015210793E+02 -0.84482074536E+02 -0.86969818154E+03  0.87667286262E+03  0.00000000000E+00 0.  1.
         13    1    1    2    0    0  0.16683105135E+02 -0.66395131577E+02  0.71754024261E+02  0.99173033914E+02  0.10566000000E+00 0. -1.
<mgrwt>
<rscale>  1 0.51765058E+03</rscale>
<asrwt>0</asrwt>
<pdfrwt beam="2">  1       21 0.13992047E+00 0.10160268E+04</pdfrwt>
<pdfrwt beam="1">  1        4 0.57472215E-01 0.10160268E+04</pdfrwt>
<totfact> 0.37547089E+01</totfact>
</mgrwt>
</event>
<event>
 6    1  0.1412458E-005  0.1005830E+04  0.7818608E-02  0.1032207E+00
          4   -1    0    0  502    0 -0.00000000000E+00  0.00000000000E+00  0.57237815003E+03  0.57237815003E+03  0.00000000000E+00 0.  1.
         21   -1    0    0  501  502  0.00000000000E+00 -0.00000000000E+00 -0.50949862358E+03  0.50949862358E+03  0.00000000000E+00 0.  1.
    9000010    2    1    2  501    0  0.34732773175E+02  0.61659516432E+01 -0.44788364289E+01  0.10058403040E+04  0.10052115562E+04 0.  0.
        -13    1    3    3    0    0  0.70522059833E+02  0.49475751372E+03 -0.92076738268E+02  0.50816975038E+03  0.10566000000E+00 0.  1.
          4    1    3    3  501    0 -0.35789286658E+02 -0.48859156208E+03  0.87597901839E+02  0.49767055366E+03  0.00000000000E+00 0.  1.
         13    1    1    2    0    0 -0.34732773175E+02 -0.61659516432E+01  0.67358362876E+02  0.76036469575E+02  0.10566000000E+00 0. -1.
<mgrwt>
<rscale>  1 0.43527463E+03</rscale>
<asrwt>0</asrwt>
<pdfrwt beam="2">  1       21 0.78384404E-01 0.10058303E+04</pdfrwt>
<pdfrwt beam="1">  1        4 0.88058177E-01 0.10058303E+04</pdfrwt>
<totfact> 0.61772805E+01</totfact>
</mgrwt>
</event>
<event>
 6    1  0.1412458E-005  0.1014664E+04  0.7818608E-02  0.9981112E-01
          4   -1    0    0  502    0 -0.00000000000E+00  0.00000000000E+00  0.25773403979E+03  0.25773403979E+03  0.00000000000E+00 0.  1.
         21   -1    0    0  501  502  0.00000000000E+00 -0.00000000000E+00 -0.12026708404E+04  0.12026708404E+04  0.00000000000E+00 0.  1.
    9000010    2    1    2  501    0  0.97310707485E+02  0.53030921544E+01 -0.84057112486E+03  0.13176123663E+04  0.10099727894E+04 0.  0.
        -13    1    3    3    0    0  0.16242719373E+03 -0.46021060593E+03 -0.64421673401E+03  0.80820270144E+03  0.10566000000E+00 0.  1.
          4    1    3    3  501    0 -0.65116486246E+02  0.46551369808E+03 -0.19635439086E+03  0.50940966490E+03  0.00000000000E+00 0.  1.
         13    1    1    2    0    0 -0.97310707485E+02 -0.53030921544E+01 -0.10436567578E+03  0.14279251389E+03  0.10566000000E+00 0. -1.
<mgrwt>
<rscale>  1 0.56486267E+03</rscale>
<asrwt>0</asrwt>
<pdfrwt beam="2">  1       21 0.18502629E+00 0.10146638E+04</pdfrwt>
<pdfrwt beam="1">  1        4 0.39651390E-01 0.10146638E+04</pdfrwt>
<totfact> 0.36651570E+01</totfact>
</mgrwt>
</event>
<event>
 6    1  0.1412458E-005  0.9938205E+03  0.7818608E-02  0.1025716E+00
         21   -1    0    0  501  502  0.00000000000E+00  0.00000000000E+00  0.71392042824E+03  0.71392042824E+03  0.00000000000E+00 0.  1.
          4   -1    0    0  502    0 -0.00000000000E+00 -0.00000000000E+00 -0.44846041593E+03  0.44846041593E+03  0.00000000000E+00 0.  1.
    9000010    2    1    2  501    0  0.20746855228E+02  0.39203433800E+02  0.36075289864E+03  0.10572709656E+04  0.99283024712E+03 0.  0.
        -13    1    3    3    0    0  0.20221645880E+03  0.68632739937E+02 -0.30178650306E+03  0.36969859858E+03  0.10566000000E+00 0.  1.
          4    1    3    3  501    0 -0.18146960357E+03 -0.29429306137E+02  0.66253940170E+03  0.68757236702E+03  0.00000000000E+00 0.  1.
         13    1    1    2    0    0 -0.20746855228E+02 -0.39203433800E+02 -0.95292886335E+02  0.10510987857E+03  0.10566000000E+00 0. -1.
<mgrwt>
<rscale>  1 0.45678964E+03</rscale>
<asrwt>0</asrwt>
<pdfrwt beam="1">  1       21 0.10983391E+00 0.99382053E+03</pdfrwt>
<pdfrwt beam="2">  1        4 0.68993911E-01 0.99382053E+03</pdfrwt>
<totfact> 0.47500363E+01</totfact>
</mgrwt>
</event>
<event>
 6    1  0.1412458E-005  0.1002461E+04  0.7818608E-02  0.9978965E-01
         21   -1    0    0  501  502  0.00000000000E+00  0.00000000000E+00  0.22556501666E+03  0.22556501666E+03  0.00000000000E+00 0.  1.
          4   -1    0    0  502    0 -0.00000000000E+00 -0.00000000000E+00 -0.13677918248E+04  0.13677918248E+04  0.00000000000E+00 0.  1.
    9000010    2    1    2  501    0 -0.35406931672E+02 -0.95387019384E+02 -0.98026017372E+03  0.14020833825E+04  0.99728404630E+03 0.  0.
        -13    1    3    3    0    0 -0.97172881684E+02  0.35727125591E+03 -0.84982077766E+03  0.92697393951E+03  0.10566000000E+00 0.  1.
          4    1    3    3  501    0  0.61765950011E+02 -0.45265827529E+03 -0.13043939607E+03  0.47510944299E+03  0.00000000000E+00 0.  1.
         13    1    1    2    0    0  0.35406931672E+02  0.95387019384E+02 -0.16196663444E+03  0.19127345898E+03  0.10566000000E+00 0. -1.
<mgrwt>
<rscale>  1 0.56582277E+03</rscale>
<asrwt>0</asrwt>
<pdfrwt beam="1">  1       21 0.34702311E-01 0.10024609E+04</pdfrwt>
<pdfrwt beam="2">  1        4 0.21042951E+00 0.10024609E+04</pdfrwt>
<totfact> 0.36461843E+01</totfact>
</mgrwt>
</event>
<event>
 6    1  0.1412458E-005  0.1021561E+04  0.7818608E-02  0.9829713E-01
          4   -1    0    0  502    0 -0.00000000000E+00  0.00000000000E+00  0.18365768311E+04  0.18365768311E+04  0.00000000000E+00 0.  1.
         21   -1    0    0  501  502  0.00000000000E+00 -0.00000000000E+00 -0.20468827630E+03  0.20468827630E+03  0.00000000000E+00 0.  1.
    9000010    2    1    2  501    0  0.44659602894E+02 -0.14877823650E+03  0.11662280319E+04  0.15503789928E+04  0.10096820069E+04 0.  0.
        -13    1    3    3    0    0 -0.23146535372E+03 -0.79327898318E+02  0.12337318847E+04  0.12577613049E+04  0.10566000000E+00 0.  1.
          4    1    3    3  501    0  0.27612495661E+03 -0.69450338182E+02 -0.67503852818E+02  0.29261768792E+03  0.00000000000E+00 0.  1.
         13    1    1    2    0    0 -0.44659602894E+02  0.14877823650E+03  0.46566052288E+03  0.49088611461E+03  0.10566000000E+00 0. -1.
<mgrwt>
<rscale>  1 0.63792073E+03</rscale>
<asrwt>0</asrwt>
<pdfrwt beam="2">  1       21 0.31490505E-01 0.10215612E+04</pdfrwt>
<pdfrwt beam="1">  1        4 0.28255027E+00 0.10215612E+04</pdfrwt>
<totfact> 0.15732892E+01</totfact>
</mgrwt>
</event>
<event>
 6    1  0.1412458E-005  0.1186627E+04  0.7818608E-02  0.9290382E-01
         21   -1    0    0  501  502  0.00000000000E+00  0.00000000000E+00  0.83855379394E+03  0.83855379394E+03  0.00000000000E+00 0. -1.
          4   -1    0    0  502    0 -0.00000000000E+00 -0.00000000000E+00 -0.10061111190E+04  0.10061111190E+04  0.00000000000E+00 0.  1.
    9000010    2    1    2  501    0  0.49377550269E+03 -0.40647685060E+03 -0.20414206772E+03  0.12040588471E+04  0.99952290930E+03 0.  0.
        -13    1    3    3    0    0  0.31570033715E+03  0.59119601428E+02  0.33889395409E+03  0.46691643089E+03  0.10566000000E+00 0.  1.
          4    1    3    3  501    0  0.17807516554E+03 -0.46559645203E+03 -0.54303602181E+03  0.73714241617E+03  0.00000000000E+00 0.  1.
         13    1    1    2    0    0 -0.49377550269E+03  0.40647685060E+03  0.36584742623E+02  0.64060606592E+03  0.10566000000E+00 0. -1.
<mgrwt>
<rscale>  1 0.10167312E+04</rscale>
<asrwt>0</asrwt>
<pdfrwt beam="1">  1       21 0.12900828E+00 0.11866270E+04</pdfrwt>
<pdfrwt beam="2">  1        4 0.15478632E+00 0.11866270E+04</pdfrwt>
<totfact> 0.42549813E+00</totfact>
</mgrwt>
</event>
<event>
 6    1  0.1412458E-005  0.1096918E+04  0.7818608E-02  0.9406988E-01
          4   -1    0    0  502    0 -0.00000000000E+00  0.00000000000E+00  0.17229933037E+04  0.17229933037E+04  0.00000000000E+00 0.  1.
         21   -1    0    0  501  502  0.00000000000E+00 -0.00000000000E+00 -0.40907852505E+03  0.40907852505E+03  0.00000000000E+00 0. -1.
    9000010    2    1    2  501    0 -0.52054048028E+03 -0.10561584306E+03  0.11171567235E+04  0.15656525129E+04  0.95974556436E+03 0.  0.
        -13    1    3    3    0    0 -0.45714031098E+03 -0.45249906510E+03  0.10094086340E+04  0.11969287654E+04  0.10566000000E+00 0.  1.
          4    1    3    3  501    0 -0.63400169306E+02  0.34688322204E+03  0.10774808956E+03  0.36872374754E+03  0.00000000000E+00 0.  1.
         13    1    1    2    0    0  0.52054048028E+03  0.10561584306E+03  0.19675805509E+03  0.56641931582E+03  0.10566000000E+00 0. -1.
<mgrwt>
<rscale>  1 0.91502781E+03</rscale>
<asrwt>0</asrwt>
<pdfrwt beam="2">  1       21 0.62935159E-01 0.10969178E+04</pdfrwt>
<pdfrwt beam="1">  1        4 0.26507589E+00 0.10969178E+04</pdfrwt>
<totfact> 0.45652283E+00</totfact>
</mgrwt>
</event>
<event>
 6    1  0.1412458E-005  0.1065783E+04  0.7818608E-02  0.9493623E-01
         21   -1    0    0  501  502  0.00000000000E+00  0.00000000000E+00  0.15579792782E+04  0.15579792782E+04  0.00000000000E+00 0.  1.
          4   -1    0    0  502    0 -0.00000000000E+00 -0.00000000000E+00 -0.48461768570E+03  0.48461768570E+03  0.00000000000E+00 0.  1.
    9000010    2    1    2  501    0 -0.27536188916E+03 -0.32537288482E+03  0.21935260312E+03  0.10881216896E+04  0.97683241278E+03 0.  0.
        -13    1    3    3    0    0  0.18132011495E+03 -0.25426096167E+03 -0.27157820277E+03  0.41386030505E+03  0.10566000000E+00 0.  1.
          4    1    3    3  501    0 -0.45668200411E+03 -0.71111923143E+02  0.49093080589E+03  0.67426138452E+03  0.00000000000E+00 0.  1.
         13    1    1    2    0    0  0.27536188916E+03  0.32537288482E+03  0.85400898940E+03  0.95447527434E+03  0.10566000000E+00 0. -1.
<mgrwt>
<rscale>  1 0.84755621E+03</rscale>
<asrwt>0</asrwt>
<pdfrwt beam="1">  1       21 0.23968912E+00 0.10657829E+04</pdfrwt>
<pdfrwt beam="2">  1        4 0.74556567E-01 0.10657829E+04</pdfrwt>
<totfact> 0.40223576E+00</totfact>
</mgrwt>
</event>
<event>
 6    1  0.1412458E-005  0.1037059E+04  0.7818608E-02  0.9748828E-01
         21   -1    0    0  501  502  0.00000000000E+00  0.00000000000E+00  0.73740061340E+03  0.73740061340E+03  0.00000000000E+00 0.  1.
          4   -1    0    0  502    0 -0.00000000000E+00 -0.00000000000E+00 -0.60225839925E+03  0.60225839925E+03  0.00000000000E+00 0.  1.
    9000010    2    1    2  501    0 -0.18859447618E+03  0.44475965069E+02 -0.91958406953E+02  0.10411281245E+04  0.10187960714E+04 0.  0.
        -13    1    3    3    0    0 -0.28378445877E+03  0.15926291749E+03  0.40657483308E+03  0.52077000872E+03  0.10566000000E+00 0.  1.
          4    1    3    3  501    0  0.95189982589E+02 -0.11478695243E+03 -0.49853324003E+03  0.52035811577E+03  0.00000000000E+00 0.  1.
         13    1    1    2    0    0  0.18859447618E+03 -0.44475965069E+02  0.22710062110E+03  0.29853088815E+03  0.10566000000E+00 0. -1.
<mgrwt>
<rscale>  1 0.68182531E+03</rscale>
<asrwt>0</asrwt>
<pdfrwt beam="1">  1       21 0.11344625E+00 0.10370590E+04</pdfrwt>
<pdfrwt beam="2">  1        4 0.92655138E-01 0.10370590E+04</pdfrwt>
<totfact> 0.22125222E+01</totfact>
</mgrwt>
</event>
<event>
 6    1  0.1412458E-005  0.1063722E+04  0.7818608E-02  0.9508488E-01
          4   -1    0    0  502    0 -0.00000000000E+00  0.00000000000E+00  0.72588879602E+03  0.72588879602E+03  0.00000000000E+00 0.  1.
         21   -1    0    0  501  502  0.00000000000E+00 -0.00000000000E+00 -0.84082646565E+03  0.84082646565E+03  0.00000000000E+00 0.  1.
    9000010    2    1    2  501    0 -0.28594132036E+03 -0.28964739103E+03 -0.32020662272E+03  0.11108716436E+04  0.98277437777E+03 0.  0.
        -13    1    3    3    0    0 -0.64630414991E+03 -0.16873712781E+03 -0.11141552085E+03  0.67719620638E+03  0.10566000000E+00 0.  1.
          4    1    3    3  501    0  0.36036282954E+03 -0.12091026322E+03 -0.20879110188E+03  0.43367543727E+03  0.00000000000E+00 0.  1.
         13    1    1    2    0    0  0.28594132036E+03  0.28964739103E+03  0.20526895310E+03  0.45584361802E+03  0.10566000000E+00 0. -1.
<mgrwt>
<rscale>  1 0.83660901E+03</rscale>
<asrwt>0</asrwt>
<pdfrwt beam="2">  1       21 0.12935792E+00 0.10637215E+04</pdfrwt>
<pdfrwt beam="1">  1        4 0.11167520E+00 0.10637215E+04</pdfrwt>
<totfact> 0.99699265E+00</totfact>
</mgrwt>
</event>
<event>
 6    1  0.1412458E-005  0.1038219E+04  0.7818608E-02  0.9728168E-01
         21   -1    0    0  501  502  0.00000000000E+00  0.00000000000E+00  0.17225245224E+04  0.17225245224E+04  0.00000000000E+00 0.  1.
          4   -1    0    0  502    0 -0.00000000000E+00 -0.00000000000E+00 -0.22549801495E+03  0.22549801495E+03  0.00000000000E+00 0.  1.
    9000010    2    1    2  501    0 -0.72429948674E+02 -0.19376382836E+03  0.12128134165E+04  0.15965006875E+04  0.10174023508E+04 0.  0.
        -13    1    3    3    0    0  0.97772734984E+02  0.15964189353E+03 -0.10974418556E+03  0.21699962974E+03  0.10566000000E+00 0.  1.
          4    1    3    3  501    0 -0.17020268366E+03 -0.35340572189E+03  0.13225576020E+04  0.13795010578E+04  0.00000000000E+00 0.  1.
         13    1    1    2    0    0  0.72429948674E+02  0.19376382836E+03  0.28421309104E+03  0.35152184986E+03  0.10566000000E+00 0. -1.
<mgrwt>
<rscale>  1 0.69364162E+03</rscale>
<asrwt>0</asrwt>
<pdfrwt beam="1">  1       21 0.26500376E+00 0.10382187E+04</pdfrwt>
<pdfrwt beam="2">  1        4 0.34692003E-01 0.10382187E+04</pdfrwt>
<totfact> 0.14154754E+01</totfact>
</mgrwt>
</event>
<event>
 6    1  0.1412458E-005  0.1034588E+04  0.7818608E-02  0.9657260E-01
          4   -1    0    0  502    0 -0.00000000000E+00  0.00000000000E+00  0.12187526731E+04  0.12187526731E+04  0.00000000000E+00 0.  1.
         21   -1    0    0  501  502  0.00000000000E+00 -0.00000000000E+00 -0.35312486309E+03  0.35312486309E+03  0.00000000000E+00 0.  1.
    9000010    2    1    2  501    0  0.26245069408E+03  0.38496488980E+02  0.59758913649E+03  0.11947739852E+04  0.10000048766E+04 0.  0.
        -13    1    3    3    0    0  0.10040187111E+03  0.32247059331E+03 -0.15696170218E+03  0.37243094178E+03  0.10566000000E+00 0.  1.
          4    1    3    3  501    0  0.16204882296E+03 -0.28397410434E+03  0.75455083867E+03  0.82234304344E+03  0.00000000000E+00 0.  1.
         13    1    1    2    0    0 -0.26245069408E+03 -0.38496488980E+02  0.26803867348E+03  0.37710355094E+03  0.10566000000E+00 0. -1.
<mgrwt>
<rscale>  1 0.73619538E+03</rscale>
<asrwt>0</asrwt>
<pdfrwt beam="2">  1       21 0.54326903E-01 0.10345879E+04</pdfrwt>
<pdfrwt beam="1">  1        4 0.18750041E+00 0.10345879E+04</pdfrwt>
<totfact> 0.19960773E+01</totfact>
</mgrwt>
</event>
<event>
 6    1  0.1412458E-005  0.9880875E+03  0.7818608E-02  0.1014757E+00
          4   -1    0    0  502    0 -0.00000000000E+00  0.00000000000E+00  0.89324237022E+03  0.89324237022E+03  0.00000000000E+00 0.  1.
         21   -1    0    0  501  502  0.00000000000E+00 -0.00000000000E+00 -0.39652333544E+03  0.39652333544E+03  0.00000000000E+00 0.  1.
    9000010    2    1    2  501    0  0.55070110961E+02  0.30343892455E+02  0.22835155507E+03  0.10141308308E+04  0.98608490520E+03 0.  0.
        -13    1    3    3    0    0  0.45614450013E+03  0.26071110167E+03  0.11208415071E+03  0.53721592636E+03  0.10566000000E+00 0.  1.
          4    1    3    3  501    0 -0.40107438917E+03 -0.23036720921E+03  0.11626740437E+03  0.47691490440E+03  0.00000000000E+00 0.  1.
         13    1    1    2    0    0 -0.55070110961E+02 -0.30343892455E+02  0.26836747971E+03  0.27563487489E+03  0.10566000000E+00 0. -1.
<mgrwt>
<rscale>  1 0.49627112E+03</rscale>
<asrwt>0</asrwt>
<pdfrwt beam="2">  1       21 0.61003590E-01 0.98808750E+03</pdfrwt>
<pdfrwt beam="1">  1        4 0.13742190E+00 0.98808750E+03</pdfrwt>
<totfact> 0.36614868E+01</totfact>
</mgrwt>
</event>
<event>
 6    1  0.1412458E-005  0.1006657E+04  0.7818608E-02  0.9789982E-01
         21   -1    0    0  501  502  0.00000000000E+00  0.00000000000E+00  0.50315749765E+03  0.50315749765E+03  0.00000000000E+00 0.  1.
          4   -1    0    0  502    0 -0.00000000000E+00 -0.00000000000E+00 -0.81470637464E+03  0.81470637464E+03  0.00000000000E+00 0.  1.
    9000010    2    1    2  501    0 -0.12106976795E+03 -0.13977167402E+03 -0.43384412573E+03  0.10961655444E+04  0.98952724353E+03 0.  0.
        -13    1    3    3    0    0 -0.11473415279E+03 -0.54139634213E+03 -0.41912947899E+03  0.69422147504E+03  0.10566000000E+00 0.  1.
          4    1    3    3  501    0 -0.63356151543E+01  0.40162466810E+03 -0.14714646744E+02  0.40194406934E+03  0.00000000000E+00 0.  1.
         13    1    1    2    0    0  0.12106976795E+03  0.13977167402E+03  0.12229524874E+03  0.22169832791E+03  0.10566000000E+00 0. -1.
<mgrwt>
<rscale>  1 0.65902963E+03</rscale>
<asrwt>0</asrwt>
<pdfrwt beam="1">  1       21 0.77408846E-01 0.10066569E+04</pdfrwt>
<pdfrwt beam="2">  1        4 0.12533944E+00 0.10066569E+04</pdfrwt>
<totfact> 0.26886866E+01</totfact>
</mgrwt>
</event>
<event>
 6    1  0.1412458E-005  0.1030821E+04  0.7818608E-02  0.9671038E-01
         21   -1    0    0  501  502  0.00000000000E+00  0.00000000000E+00  0.33116521721E+03  0.33116521721E+03  0.00000000000E+00 0.  1.
          4   -1    0    0  502    0 -0.00000000000E+00 -0.00000000000E+00 -0.15488892752E+04  0.15488892752E+04  0.00000000000E+00 0.  1.
    9000010    2    1    2  501    0  0.21522064335E+03  0.13858290829E+03 -0.12520376313E+04  0.16217860656E+04  0.99853225515E+03 0.  0.
        -13    1    3    3    0    0  0.19970639113E+03 -0.42292044632E+03 -0.52689610669E+03  0.70453095388E+03  0.10566000000E+00 0.  1.
          4    1    3    3  501    0  0.15514252223E+02  0.56150335460E+03 -0.72514152462E+03  0.91725511172E+03  0.00000000000E+00 0.  1.
         13    1    1    2    0    0 -0.21522064335E+03 -0.13858290829E+03  0.34313573349E+02  0.25826842678E+03  0.10566000000E+00 0. -1.
<mgrwt>
<rscale>  1 0.72767673E+03</rscale>
<asrwt>0</asrwt>
<pdfrwt beam="1">  1       21 0.50948495E-01 0.10308209E+04</pdfrwt>
<pdfrwt beam="2">  1        4 0.23829066E+00 0.10308209E+04</pdfrwt>
<totfact> 0.10758394E+01</totfact>
</mgrwt>
</event>
<event>
 6    1  0.1412458E-005  0.1022100E+04  0.7818608E-02  0.9760474E-01
          4   -1    0    0  502    0 -0.00000000000E+00  0.00000000000E+00  0.21352697345E+03  0.21352697345E+03  0.00000000000E+00 0.  1.
         21   -1    0    0  501  502  0.00000000000E+00 -0.00000000000E+00 -0.17337383688E+04  0.17337383688E+04  0.00000000000E+00 0.  1.
    9000010    2    1    2  501    0 -0.19198619134E+03  0.32603931717E+02 -0.12831239572E+04  0.16404556642E+04  0.10033772883E+04 0.  0.
        -13    1    3    3    0    0 -0.15552297108E+03  0.12803338839E+03  0.11942953693E+03  0.23418661049E+03  0.10566000000E+00 0.  1.
          4    1    3    3  501    0 -0.36463220260E+02 -0.95429456674E+02 -0.14025534941E+04  0.14062690538E+04  0.00000000000E+00 0.  1.
         13    1    1    2    0    0  0.19198619134E+03 -0.32603931717E+02 -0.23708743809E+03  0.30680967797E+03  0.10566000000E+00 0. -1.
<mgrwt>
<rscale>  1 0.67527542E+03</rscale>
<asrwt>0</asrwt>
<pdfrwt beam="2">  1       21 0.26672897E+00 0.10220997E+04</pdfrwt>
<pdfrwt beam="1">  1        4 0.32850305E-01 0.10220997E+04</pdfrwt>
<totfact> 0.15425725E+01</totfact>
</mgrwt>
</event>
<event>
 6    1  0.1412458E-005  0.1014937E+04  0.7818608E-02  0.9780695E-01
          4   -1    0    0  502    0 -0.00000000000E+00  0.00000000000E+00  0.13575934922E+04  0.13575934922E+04  0.00000000000E+00 0.  1.
         21   -1    0    0  501  502  0.00000000000E+00 -0.00000000000E+00 -0.26758011644E+03  0.26758011644E+03  0.00000000000E+00 0.  1.
    9000010    2    1    2  501    0 -0.56965289575E+02 -0.17709623289E+03  0.86768631606E+03  0.13352814691E+04  0.99774191991E+03 0.  0.
        -13    1    3    3    0    0 -0.33427430029E+03 -0.23265773008E+03 -0.15854988692E+02  0.40757860472E+03  0.10566000000E+00 0.  1.
          4    1    3    3  501    0  0.27730901071E+03  0.55561497183E+02  0.88354130475E+03  0.92770286439E+03  0.00000000000E+00 0.  1.
         13    1    1    2    0    0  0.56965289575E+02  0.17709623289E+03  0.22232705967E+03  0.28989213951E+03  0.10566000000E+00 0. -1.
<mgrwt>
<rscale>  1 0.66408944E+03</rscale>
<asrwt>0</asrwt>
<pdfrwt beam="2">  1       21 0.41166172E-01 0.10149370E+04</pdfrwt>
<pdfrwt beam="1">  1        4 0.20886053E+00 0.10149370E+04</pdfrwt>
<totfact> 0.26145752E+01</totfact>
</mgrwt>
</event>
<event>
 6    1  0.1412458E-005  0.1009978E+04  0.7818608E-02  0.1011026E+00
         21   -1    0    0  501  502  0.00000000000E+00  0.00000000000E+00  0.10338501923E+04  0.10338501923E+04  0.00000000000E+00 0.  1.
          4   -1    0    0  502    0 -0.00000000000E+00 -0.00000000000E+00 -0.28674386829E+03  0.28674386829E+03  0.00000000000E+00 0.  1.
    9000010    2    1    2  501    0  0.80117247617E+01  0.65534768835E+02  0.74412642821E+03  0.12545040871E+04  0.10078181233E+04 0.  0.
        -13    1    3    3    0    0 -0.38533598739E+03  0.31098497174E+03  0.18608128437E+03  0.52898178738E+03  0.10566000000E+00 0.  1.
          4    1    3    3  501    0  0.39334771215E+03 -0.24545020291E+03  0.55804514384E+03  0.72552229967E+03  0.00000000000E+00 0.  1.
         13    1    1    2    0    0 -0.80117247617E+01 -0.65534768835E+02  0.29798958174E+01  0.66089973544E+02  0.10566000000E+00 0. -1.
<mgrwt>
<rscale>  1 0.51069015E+03</rscale>
<asrwt>0</asrwt>
<pdfrwt beam="1">  1       21 0.15905387E+00 0.10099784E+04</pdfrwt>
<pdfrwt beam="2">  1        4 0.44114442E-01 0.10099784E+04</pdfrwt>
<totfact> 0.45993451E+01</totfact>
</mgrwt>
</event>
<event>
 6    1  0.1412458E-005  0.1245367E+04  0.7818608E-02  0.9195784E-01
          4   -1    0    0  502    0 -0.00000000000E+00  0.00000000000E+00  0.63727121150E+03  0.63727121150E+03  0.00000000000E+00 0.  1.
         21   -1    0    0  501  502  0.00000000000E+00 -0.00000000000E+00 -0.22159490744E+04  0.22159490744E+04  0.00000000000E+00 0.  1.
    9000010    2    1    2  501    0  0.78397825494E+03  0.42399949660E+02 -0.16473315591E+04  0.20651003704E+04  0.96670502974E+03 0.  0.
        -13    1    3    3    0    0 -0.17607825266E+03  0.20441650755E+03 -0.31135884987E+03  0.41198786897E+03  0.10566000000E+00 0.  1.
          4    1    3    3  501    0  0.96005650759E+03 -0.16201655789E+03 -0.13359727092E+04  0.16531125015E+04  0.00000000000E+00 0.  1.
         13    1    1    2    0    0 -0.78397825494E+03 -0.42399949660E+02  0.68653696187E+02  0.78811991544E+03  0.10566000000E+00 0. -1.
<mgrwt>
<rscale>  1 0.11097049E+04</rscale>
<asrwt>0</asrwt>
<pdfrwt beam="2">  1       21 0.34091525E+00 0.12453667E+04</pdfrwt>
<pdfrwt beam="1">  1        4 0.98041724E-01 0.12453667E+04</pdfrwt>
<totfact> 0.47459136E-01</totfact>
</mgrwt>
</event>
<event>
 6    1  0.1412458E-005  0.9875743E+03  0.7818608E-02  0.1016534E+00
          4   -1    0    0  502    0 -0.00000000000E+00  0.00000000000E+00  0.58067422475E+03  0.58067422475E+03  0.00000000000E+00 0.  1.
         21   -1    0    0  501  502  0.00000000000E+00 -0.00000000000E+00 -0.50447018858E+03  0.50447018858E+03  0.00000000000E+00 0.  1.
    9000010    2    1    2  501    0 -0.39597495412E+02  0.44608051301E+02 -0.10098290222E+01  0.98757478677E+03  0.98577132228E+03 0.  0.
        -13    1    3    3    0    0 -0.33322872983E+03  0.21268634012E+03  0.32947439740E+03  0.51461661007E+03  0.10566000000E+00 0.  1.
          4    1    3    3  501    0  0.29363123442E+03 -0.16807828882E+03 -0.33048422642E+03  0.47295817670E+03  0.00000000000E+00 0.  1.
         13    1    1    2    0    0  0.39597495412E+02 -0.44608051301E+02  0.77213865200E+02  0.97569626559E+02  0.10566000000E+00 0. -1.
<mgrwt>
<rscale>  1 0.48958240E+03</rscale>
<asrwt>0</asrwt>
<pdfrwt beam="2">  1       21 0.77610798E-01 0.98757427E+03</pdfrwt>
<pdfrwt beam="1">  1        4 0.89334496E-01 0.98757427E+03</pdfrwt>
<totfact> 0.61211237E+01</totfact>
</mgrwt>
</event>
<event>
 6    1  0.1412458E-005  0.1021860E+04  0.7818608E-02  0.9873683E-01
          4   -1    0    0  502    0 -0.00000000000E+00  0.00000000000E+00  0.25330189809E+03  0.25330189809E+03  0.00000000000E+00 0.  1.
         21   -1    0    0  501  502  0.00000000000E+00 -0.00000000000E+00 -0.19346732085E+04  0.19346732085E+04  0.00000000000E+00 0.  1.
    9000010    2    1    2  501    0 -0.77244510064E+02  0.11015403877E+03 -0.17578035306E+04  0.20332413932E+04  0.10129643055E+04 0.  0.
        -13    1    3    3    0    0 -0.50645135477E+03 -0.13885862490E+03 -0.87180623952E+03  0.10177528300E+04  0.10566000000E+00 0.  1.
          4    1    3    3  501    0  0.42920684471E+03  0.24901266368E+03 -0.88599729111E+03  0.10154885632E+04  0.00000000000E+00 0.  1.
         13    1    1    2    0    0  0.77244510064E+02 -0.11015403877E+03  0.76432220257E+02  0.15473371336E+03  0.10566000000E+00 0. -1.
<mgrwt>
<rscale>  1 0.61553847E+03</rscale>
<asrwt>0</asrwt>
<pdfrwt beam="2">  1       21 0.29764203E+00 0.10218597E+04</pdfrwt>
<pdfrwt beam="1">  1        4 0.38969523E-01 0.10218597E+04</pdfrwt>
<totfact> 0.70221609E+00</totfact>
</mgrwt>
</event>
<event>
 6    1  0.1412458E-005  0.1092842E+04  0.7818608E-02  0.9756877E-01
         21   -1    0    0  501  502  0.00000000000E+00  0.00000000000E+00  0.73763411317E+03  0.73763411317E+03  0.00000000000E+00 0.  1.
          4   -1    0    0  502    0 -0.00000000000E+00 -0.00000000000E+00 -0.56344787603E+03  0.56344787603E+03  0.00000000000E+00 0.  1.
    9000010    2    1    2  501    0  0.77376171220E+02  0.14144169879E+03  0.25281981984E+03  0.11217050745E+04  0.10808846316E+04 0.  0.
        -13    1    3    3    0    0  0.57838412491E+03  0.84781009371E+02  0.18393319822E+03  0.61281926216E+03  0.10566000000E+00 0.  1.
          4    1    3    3  501    0 -0.50100795369E+03  0.56660689418E+02  0.68886621616E+02  0.50888581237E+03  0.00000000000E+00 0.  1.
         13    1    1    2    0    0 -0.77376171220E+02 -0.14144169879E+03 -0.78633582691E+02  0.17937691468E+03  0.10566000000E+00 0. -1.
<mgrwt>
<rscale>  1 0.67729029E+03</rscale>
<asrwt>0</asrwt>
<pdfrwt beam="1">  1       21 0.11348217E+00 0.10928424E+04</pdfrwt>
<pdfrwt beam="2">  1        4 0.86684288E-01 0.10928424E+04</pdfrwt>
<totfact> 0.25726388E+01</totfact>
</mgrwt>
</event>
<event>
 6    1  0.1412458E-005  0.1022654E+04  0.7818608E-02  0.9691464E-01
          4   -1    0    0  502    0 -0.00000000000E+00  0.00000000000E+00  0.29186793393E+03  0.29186793393E+03  0.00000000000E+00 0.  1.
         21   -1    0    0  501  502  0.00000000000E+00 -0.00000000000E+00 -0.15716962473E+04  0.15716962473E+04  0.00000000000E+00 0.  1.
    9000010    2    1    2  501    0 -0.17243875525E+03 -0.17367003113E+03 -0.12530116681E+04  0.16173619318E+04  0.99293754776E+03 0.  0.
        -13    1    3    3    0    0 -0.21417336076E+03  0.39645805733E+03 -0.57457285308E+03  0.73019394296E+03  0.10566000000E+00 0.  1.
          4    1    3    3  501    0  0.41734605507E+02 -0.57012808846E+03 -0.67843881507E+03  0.88716798879E+03  0.00000000000E+00 0.  1.
         13    1    1    2    0    0  0.17243875525E+03  0.17367003113E+03 -0.26816645219E+02  0.24620224948E+03  0.10566000000E+00 0. -1.
<mgrwt>
<rscale>  1 0.71527274E+03</rscale>
<asrwt>0</asrwt>
<pdfrwt beam="2">  1       21 0.24179942E+00 0.10226541E+04</pdfrwt>
<pdfrwt beam="1">  1        4 0.44902759E-01 0.10226541E+04</pdfrwt>
<totfact> 0.11776614E+01</totfact>
</mgrwt>
</event>
<event>
 6    1  0.1412458E-005  0.1007339E+04  0.7818608E-02  0.9863791E-01
          4   -1    0    0  502    0 -0.00000000000E+00  0.00000000000E+00  0.24697317313E+03  0.24697317313E+03  0.00000000000E+00 0.  1.
         21   -1    0    0  501  502  0.00000000000E+00 -0.00000000000E+00 -0.15771117808E+04  0.15771117808E+04  0.00000000000E+00 0.  1.
    9000010    2    1    2  501    0  0.14494133264E+03 -0.45066407242E+01 -0.13426626577E+04  0.16785337166E+04  0.99684709233E+03 0.  0.
        -13    1    3    3    0    0 -0.21372340940E+03  0.27802684133E+02 -0.12978680828E+04  0.13156413860E+04  0.10566000000E+00 0.  1.
          4    1    3    3  501    0  0.35866474205E+03 -0.32309324857E+02 -0.44794574929E+02  0.36289233060E+03  0.00000000000E+00 0.  1.
         13    1    1    2    0    0 -0.14494133264E+03  0.45066407242E+01  0.12524050008E+02  0.14555123741E+03  0.10566000000E+00 0. -1.
<mgrwt>
<rscale>  1 0.62048656E+03</rscale>
<asrwt>0</asrwt>
<pdfrwt beam="2">  1       21 0.24263257E+00 0.10073393E+04</pdfrwt>
<pdfrwt beam="1">  1        4 0.37995874E-01 0.10073393E+04</pdfrwt>
<totfact> 0.16416572E+01</totfact>
</mgrwt>
</event>
<event>
 6    1  0.1412458E-005  0.1004553E+04  0.7818608E-02  0.1015655E+00
         21   -1    0    0  501  502  0.00000000000E+00  0.00000000000E+00  0.20656935928E+04  0.20656935928E+04  0.00000000000E+00 0.  1.
          4   -1    0    0  502    0 -0.00000000000E+00 -0.00000000000E+00 -0.21331720706E+03  0.21331720706E+03  0.00000000000E+00 0.  1.
    9000010    2    1    2  501    0 -0.23681683514E+02 -0.53180314758E+02  0.19336608705E+04  0.21790300684E+04  0.10028652496E+04 0.  0.
        -13    1    3    3    0    0 -0.31829611430E+03  0.19706138476E+03  0.16692203767E+04  0.17106847409E+04  0.10566000000E+00 0.  1.
          4    1    3    3  501    0  0.29461443079E+03 -0.25024169952E+03  0.26444049383E+03  0.46834532750E+03  0.00000000000E+00 0.  1.
         13    1    1    2    0    0  0.23681683514E+02  0.53180314758E+02 -0.81284484823E+02  0.99980731388E+02  0.10566000000E+00 0. -1.
<mgrwt>
<rscale>  1 0.49287683E+03</rscale>
<asrwt>0</asrwt>
<pdfrwt beam="1">  1       21 0.31779900E+00 0.10045535E+04</pdfrwt>
<pdfrwt beam="2">  1        4 0.32818033E-01 0.10045535E+04</pdfrwt>
<totfact> 0.74478367E+00</totfact>
</mgrwt>
</event>
<event>
 6    1  0.1412458E-005  0.1093328E+04  0.7818608E-02  0.9456580E-01
         21   -1    0    0  501  502  0.00000000000E+00  0.00000000000E+00  0.84230619815E+03  0.84230619815E+03  0.00000000000E+00 0. -1.
          4   -1    0    0  502    0 -0.00000000000E+00 -0.00000000000E+00 -0.74720569030E+03  0.74720569030E+03  0.00000000000E+00 0.  1.
    9000010    2    1    2  501    0  0.38619193151E+03  0.23058502954E+03  0.23532743387E+03  0.11183672549E+04  0.99652027165E+03 0.  0.
        -13    1    3    3    0    0  0.44160986373E+03  0.57671702133E+03  0.66861339122E+02  0.72944653284E+03  0.10566000000E+00 0.  1.
          4    1    3    3  501    0 -0.55417932218E+02 -0.34613199178E+03  0.16846609475E+03  0.38892072203E+03  0.00000000000E+00 0.  1.
         13    1    1    2    0    0 -0.38619193151E+03 -0.23058502954E+03 -0.14022692602E+03  0.47114463359E+03  0.10566000000E+00 0. -1.
<mgrwt>
<rscale>  1 0.87562073E+03</rscale>
<asrwt>0</asrwt>
<pdfrwt beam="1">  1       21 0.12958557E+00 0.10933281E+04</pdfrwt>
<pdfrwt beam="2">  1        4 0.11495472E+00 0.10933281E+04</pdfrwt>
<totfact> 0.92075439E+00</totfact>
</mgrwt>
</event>
<event>
 6    1  0.1412458E-005  0.1090880E+04  0.7818608E-02  0.9480522E-01
         21   -1    0    0  501  502  0.00000000000E+00  0.00000000000E+00  0.18482585169E+04  0.18482585169E+04  0.00000000000E+00 0.  1.
          4   -1    0    0  502    0 -0.00000000000E+00 -0.00000000000E+00 -0.33814041391E+03  0.33814041391E+03  0.00000000000E+00 0.  1.
    9000010    2    1    2  501    0 -0.40465597647E+03 -0.97361978974E+02  0.13611296488E+04  0.17443317585E+04  0.10083618143E+04 0.  0.
        -13    1    3    3    0    0 -0.44240328078E+03 -0.45385985580E+03  0.11873903987E+04  0.13459589153E+04  0.10566000000E+00 0.  1.
          4    1    3    3  501    0  0.37747304310E+02  0.35649787683E+03  0.17373925009E+03  0.39837284319E+03  0.00000000000E+00 0.  1.
         13    1    1    2    0    0  0.40465597647E+03  0.97361978974E+02  0.14898845427E+03  0.44206717239E+03  0.10566000000E+00 0. -1.
<mgrwt>
<rscale>  1 0.85735235E+03</rscale>
<asrwt>0</asrwt>
<pdfrwt beam="1">  1       21 0.28434746E+00 0.10908801E+04</pdfrwt>
<pdfrwt beam="2">  1        4 0.52021603E-01 0.10908801E+04</pdfrwt>
<totfact> 0.46100615E+00</totfact>
</mgrwt>
</event>
<event>
 6    1  0.1412458E-005  0.1188473E+04  0.7818608E-02  0.9292743E-01
         21   -1    0    0  501  502  0.00000000000E+00  0.00000000000E+00  0.82164050916E+03  0.82164050916E+03  0.00000000000E+00 0. -1.
          4   -1    0    0  502    0 -0.00000000000E+00 -0.00000000000E+00 -0.10116098899E+04  0.10116098899E+04  0.00000000000E+00 0.  1.
    9000010    2    1    2  501    0  0.48365790328E+03 -0.40542901333E+03 -0.18027583048E+03  0.12020676773E+04  0.10070599155E+04 0.  0.
        -13    1    3    3    0    0 -0.28368118048E+03  0.19039764812E+02 -0.15712067041E+03  0.32484525706E+03  0.10566000000E+00 0.  1.
          4    1    3    3  501    0  0.76733908376E+03 -0.42446877814E+03 -0.23155160068E+02  0.87722242021E+03  0.00000000000E+00 0.  1.
         13    1    1    2    0    0 -0.48365790328E+03  0.40542901333E+03 -0.96935503061E+01  0.63118272182E+03  0.10566000000E+00 0. -1.
<mgrwt>
<rscale>  1 0.10145371E+04</rscale>
<asrwt>0</asrwt>
<pdfrwt beam="1">  1       21 0.12640623E+00 0.11884727E+04</pdfrwt>
<pdfrwt beam="2">  1        4 0.15563229E+00 0.11884727E+04</pdfrwt>
<totfact> 0.44242807E+00</totfact>
</mgrwt>
</event>
<event>
 6    1  0.1412458E-005  0.9840649E+03  0.7818608E-02  0.1007736E+00
          4   -1    0    0  502    0 -0.00000000000E+00  0.00000000000E+00  0.41801206207E+03  0.41801206207E+03  0.00000000000E+00 0.  1.
         21   -1    0    0  501  502  0.00000000000E+00 -0.00000000000E+00 -0.80627787894E+03  0.80627787894E+03  0.00000000000E+00 0.  1.
    9000010    2    1    2  501    0  0.49951610075E+02 -0.61229543489E+02 -0.48687840963E+03  0.10979227184E+04  0.98088709309E+03 0.  0.
        -13    1    3    3    0    0 -0.27473327959E+03 -0.12046390935E+03 -0.66018463862E+03  0.72514391440E+03  0.10566000000E+00 0.  1.
          4    1    3    3  501    0  0.32468488966E+03  0.59234365859E+02  0.17330622899E+03  0.37277880396E+03  0.00000000000E+00 0.  1.
         13    1    1    2    0    0 -0.49951610075E+02  0.61229543489E+02  0.98612592756E+02  0.12636722264E+03  0.10566000000E+00 0. -1.
<mgrwt>
<rscale>  1 0.52384485E+03</rscale>
<asrwt>0</asrwt>
<pdfrwt beam="2">  1       21 0.12404275E+00 0.98406489E+03</pdfrwt>
<pdfrwt beam="1">  1        4 0.64309549E-01 0.98406489E+03</pdfrwt>
<totfact> 0.40634464E+01</totfact>
</mgrwt>
</event>
<event>
 6    1  0.1412458E-005  0.1006795E+04  0.7818608E-02  0.9901451E-01
          4   -1    0    0  502    0 -0.00000000000E+00  0.00000000000E+00  0.14944061060E+04  0.14944061060E+04  0.00000000000E+00 0.  1.
         21   -1    0    0  501  502  0.00000000000E+00 -0.00000000000E+00 -0.22461482500E+03  0.22461482500E+03  0.00000000000E+00 0.  1.
    9000010    2    1    2  501    0 -0.12837329305E+03 -0.79358750770E+01  0.99445217582E+03  0.14151224044E+04  0.99854574702E+03 0.  0.
        -13    1    3    3    0    0 -0.33882480839E+03  0.18891516981E+03  0.86105259877E+01  0.38802750481E+03  0.10566000000E+00 0.  1.
          4    1    3    3  501    0  0.21045151534E+03 -0.19685104489E+03  0.98584164983E+03  0.10270948996E+04  0.00000000000E+00 0.  1.
         13    1    1    2    0    0  0.12837329305E+03  0.79358750770E+01  0.27533910517E+03  0.30389852662E+03  0.10566000000E+00 0. -1.
<mgrwt>
<rscale>  1 0.60191003E+03</rscale>
<asrwt>0</asrwt>
<pdfrwt beam="2">  1       21 0.34556128E-01 0.10067951E+04</pdfrwt>
<pdfrwt beam="1">  1        4 0.22990863E+00 0.10067951E+04</pdfrwt>
<totfact> 0.27612186E+01</totfact>
</mgrwt>
</event>
<event>
 6    1  0.1412458E-005  0.1007452E+04  0.7818608E-02  0.9725872E-01
          4   -1    0    0  502    0 -0.00000000000E+00  0.00000000000E+00  0.46473659759E+03  0.46473659759E+03  0.00000000000E+00 0.  1.
         21   -1    0    0  501  502  0.00000000000E+00 -0.00000000000E+00 -0.11902084294E+04  0.11902084294E+04  0.00000000000E+00 0.  1.
    9000010    2    1    2  501    0  0.21360678818E+03  0.80112004653E+02 -0.91301627291E+03  0.13596168675E+04  0.98128156942E+03 0.  0.
        -13    1    3    3    0    0 -0.22581913863E+03  0.12432596805E+03  0.82395175463E+02  0.27062927744E+03  0.10566000000E+00 0.  1.
          4    1    3    3  501    0  0.43942592681E+03 -0.44213963399E+02 -0.99541144837E+03  0.10889875900E+04  0.00000000000E+00 0.  1.
         13    1    1    2    0    0 -0.21360678818E+03 -0.80112004653E+02  0.18754444110E+03  0.29532815951E+03  0.10566000000E+00 0. -1.
<mgrwt>
<rscale>  1 0.69497063E+03</rscale>
<asrwt>0</asrwt>
<pdfrwt beam="2">  1       21 0.18310899E+00 0.10074519E+04</pdfrwt>
<pdfrwt beam="1">  1        4 0.71497937E-01 0.10074519E+04</pdfrwt>
<totfact> 0.10743511E+01</totfact>
</mgrwt>
</event>
<event>
 6    1  0.1412458E-005  0.1072737E+04  0.7818608E-02  0.9513191E-01
          4   -1    0    0  502    0 -0.00000000000E+00  0.00000000000E+00  0.78725252401E+03  0.78725252401E+03  0.00000000000E+00 0.  1.
         21   -1    0    0  501  502  0.00000000000E+00 -0.00000000000E+00 -0.11096814543E+04  0.11096814543E+04  0.00000000000E+00 0.  1.
    9000010    2    1    2  501    0 -0.35805275500E+03  0.15553260997E+03 -0.75687305312E+03  0.13128673081E+04  0.99918545928E+03 0.  0.
        -13    1    3    3    0    0  0.32845384972E+03  0.79725030421E+02 -0.43498614055E+03  0.55086383572E+03  0.10566000000E+00 0.  1.
          4    1    3    3  501    0 -0.68650660472E+03  0.75807579549E+02 -0.32188691257E+03  0.76200347238E+03  0.00000000000E+00 0.  1.
         13    1    1    2    0    0  0.35805275500E+03 -0.15553260997E+03  0.43444412288E+03  0.58406667016E+03  0.10566000000E+00 0. -1.
<mgrwt>
<rscale>  1 0.83318252E+03</rscale>
<asrwt>0</asrwt>
<pdfrwt beam="2">  1       21 0.17072022E+00 0.10727366E+04</pdfrwt>
<pdfrwt beam="1">  1        4 0.12111577E+00 0.10727366E+04</pdfrwt>
<totfact> 0.37518077E+00</totfact>
</mgrwt>
</event>
<event>
 6    1  0.1412458E-005  0.1059327E+04  0.7818608E-02  0.9529888E-01
         21   -1    0    0  501  502  0.00000000000E+00  0.00000000000E+00  0.49322664457E+03  0.49322664457E+03  0.00000000000E+00 0. -1.
          4   -1    0    0  502    0 -0.00000000000E+00 -0.00000000000E+00 -0.10614386642E+04  0.10614386642E+04  0.00000000000E+00 0.  1.
    9000010    2    1    2  501    0 -0.23292618021E+03  0.30338187395E+03 -0.35777970568E+03  0.11181141242E+04  0.98786522868E+03 0.  0.
        -13    1    3    3    0    0  0.29231536066E+03 -0.69326204497E+02  0.11234109821E+03  0.32074121378E+03  0.10566000000E+00 0.  1.
          4    1    3    3  501    0 -0.52524154087E+03  0.37270807844E+03 -0.47012080389E+03  0.79737291040E+03  0.00000000000E+00 0.  1.
         13    1    1    2    0    0  0.23292618021E+03 -0.30338187395E+03 -0.21043231400E+03  0.43655118463E+03  0.10566000000E+00 0. -1.
<mgrwt>
<rscale>  1 0.82115693E+03</rscale>
<asrwt>0</asrwt>
<pdfrwt beam="1">  1       21 0.75881022E-01 0.10593266E+04</pdfrwt>
<pdfrwt beam="2">  1        4 0.16329826E+00 0.10593266E+04</pdfrwt>
<totfact> 0.13896801E+01</totfact>
</mgrwt>
</event>
<event>
 6    1  0.1412458E-005  0.1013284E+04  0.7818608E-02  0.9815587E-01
          4   -1    0    0  502    0 -0.00000000000E+00  0.00000000000E+00  0.10390031710E+04  0.10390031710E+04  0.00000000000E+00 0.  1.
         21   -1    0    0  501  502  0.00000000000E+00 -0.00000000000E+00 -0.33812546917E+03  0.33812546917E+03  0.00000000000E+00 0.  1.
    9000010    2    1    2  501    0 -0.81655559496E+01  0.16649673633E+03  0.55337722762E+03  0.11545432845E+04  0.99947786376E+03 0.  0.
        -13    1    3    3    0    0 -0.26961276647E+03  0.43210971514E+03  0.59072390798E+03  0.77997730505E+03  0.10566000000E+00 0.  1.
          4    1    3    3  501    0  0.26144721052E+03 -0.26561297881E+03 -0.37346680365E+02  0.37456597942E+03  0.00000000000E+00 0.  1.
         13    1    1    2    0    0  0.81655559496E+01 -0.16649673633E+03  0.14750047419E+03  0.22258535568E+03  0.10566000000E+00 0. -1.
<mgrwt>
<rscale>  1 0.64532748E+03</rscale>
<asrwt>0</asrwt>
<pdfrwt beam="2">  1       21 0.52019303E-01 0.10132837E+04</pdfrwt>
<pdfrwt beam="1">  1        4 0.15984664E+00 0.10132837E+04</pdfrwt>
<totfact> 0.34623384E+01</totfact>
</mgrwt>
</event>
<event>
 6    1  0.1412458E-005  0.1026734E+04  0.7818608E-02  0.9732861E-01
          4   -1    0    0  502    0 -0.00000000000E+00  0.00000000000E+00  0.25311756534E+04  0.25311756534E+04  0.00000000000E+00 0.  1.
         21   -1    0    0  501  502  0.00000000000E+00 -0.00000000000E+00 -0.17785128258E+03  0.17785128258E+03  0.00000000000E+00 0.  1.
    9000010    2    1    2  501    0  0.10141042880E+03 -0.18453030157E+03  0.14203740152E+04  0.17526107690E+04  0.10049112684E+04 0.  0.
        -13    1    3    3    0    0  0.19310469599E+03 -0.13383131326E+03  0.15602518642E+04  0.15778422402E+04  0.10566000000E+00 0.  1.
          4    1    3    3  501    0 -0.91694267191E+02 -0.50698988312E+02 -0.13987784895E+03  0.17476852885E+03  0.00000000000E+00 0.  1.
         13    1    1    2    0    0 -0.10141042880E+03  0.18453030157E+03  0.93295035556E+03  0.95641616693E+03  0.10566000000E+00 0. -1.
<mgrwt>
<rscale>  1 0.69093525E+03</rscale>
<asrwt>0</asrwt>
<pdfrwt beam="2">  1       21 0.27361738E-01 0.10267337E+04</pdfrwt>
<pdfrwt beam="1">  1        4 0.38941161E+00 0.10267337E+04</pdfrwt>
<totfact> 0.43062038E+00</totfact>
</mgrwt>
</event>
<event>
 6    1  0.1412458E-005  0.1168088E+04  0.7818608E-02  0.9444778E-01
         21   -1    0    0  501  502  0.00000000000E+00  0.00000000000E+00  0.85861743995E+03  0.85861743995E+03  0.00000000000E+00 0.  1.
          4   -1    0    0  502    0 -0.00000000000E+00 -0.00000000000E+00 -0.99062309770E+03  0.99062309770E+03  0.00000000000E+00 0.  1.
    9000010    2    1    2  501    0  0.34525401621E+03  0.16936738438E+03  0.36228054239E+03  0.12229782081E+04  0.11029700175E+04 0.  0.
        -13    1    3    3    0    0 -0.26627038531E+03  0.33508905129E+03 -0.98956138505E+02  0.43929138268E+03  0.10566000000E+00 0.  1.
          4    1    3    3  501    0  0.61152440152E+03 -0.16572166691E+03  0.46123668090E+03  0.78368682542E+03  0.00000000000E+00 0.  1.
         13    1    1    2    0    0 -0.34525401621E+03 -0.16936738438E+03 -0.49428620014E+03  0.62626232955E+03  0.10566000000E+00 0. -1.
<mgrwt>
<rscale>  1 0.88480446E+03</rscale>
<asrwt>0</asrwt>
<pdfrwt beam="1">  1       21 0.13209499E+00 0.11680875E+04</pdfrwt>
<pdfrwt beam="2">  1        4 0.15240355E+00 0.11680875E+04</pdfrwt>
<totfact> 0.41753046E+00</totfact>
</mgrwt>
</event>
<event>
 6    1  0.1412458E-005  0.1006605E+04  0.7818608E-02  0.9693387E-01
         21   -1    0    0  501  502  0.00000000000E+00  0.00000000000E+00  0.76556257147E+03  0.76556257147E+03  0.00000000000E+00 0.  1.
          4   -1    0    0  502    0 -0.00000000000E+00 -0.00000000000E+00 -0.62209807937E+03  0.62209807937E+03  0.00000000000E+00 0.  1.
    9000010    2    1    2  501    0 -0.13218129406E+03 -0.21804264021E+03  0.34347794112E+03  0.10635929443E+04  0.97377531688E+03 0.  0.
        -13    1    3    3    0    0 -0.70723898086E+02 -0.41025623637E+03  0.60429955718E+03  0.73381878908E+03  0.10566000000E+00 0.  1.
          4    1    3    3  501    0 -0.61457395971E+02  0.19221359616E+03 -0.26082161606E+03  0.32977415525E+03  0.00000000000E+00 0.  1.
         13    1    1    2    0    0  0.13218129406E+03  0.21804264021E+03 -0.20001344901E+03  0.32406770650E+03  0.10566000000E+00 0. -1.
<mgrwt>
<rscale>  1 0.71411880E+03</rscale>
<asrwt>0</asrwt>
<pdfrwt beam="1">  1       21 0.11777886E+00 0.10066046E+04</pdfrwt>
<pdfrwt beam="2">  1        4 0.95707397E-01 0.10066046E+04</pdfrwt>
<totfact> 0.18668993E+01</totfact>
</mgrwt>
</event>
<event>
 6    1  0.1412458E-005  0.1055711E+04  0.7818608E-02  0.9653717E-01
         21   -1    0    0  501  502  0.00000000000E+00  0.00000000000E+00  0.13073884462E+04  0.13073884462E+04  0.00000000000E+00 0.  1.
          4   -1    0    0  502    0 -0.00000000000E+00 -0.00000000000E+00 -0.35535211272E+03  0.35535211272E+03  0.00000000000E+00 0.  1.
    9000010    2    1    2  501    0  0.22974207598E+03 -0.10515979025E+03  0.55653930750E+03  0.11934241287E+04  0.10250293397E+04 0.  0.
        -13    1    3    3    0    0 -0.21093158751E+03 -0.42356852282E+03  0.10033030070E+03  0.48370301687E+03  0.10566000000E+00 0.  1.
          4    1    3    3  501    0  0.44067366349E+03  0.31840873257E+03  0.45620900680E+03  0.70972111182E+03  0.00000000000E+00 0.  1.
         13    1    1    2    0    0 -0.22974207598E+03  0.10515979025E+03  0.39549702596E+03  0.46931643021E+03  0.10566000000E+00 0. -1.
<mgrwt>
<rscale>  1 0.73840627E+03</rscale>
<asrwt>0</asrwt>
<pdfrwt beam="1">  1       21 0.20113668E+00 0.10557107E+04</pdfrwt>
<pdfrwt beam="2">  1        4 0.54669556E-01 0.10557107E+04</pdfrwt>
<totfact> 0.14380263E+01</totfact>
</mgrwt>
</event>
<event>
 6    1  0.1412458E-005  0.1172263E+04  0.7818608E-02  0.9332326E-01
         21   -1    0    0  501  502  0.00000000000E+00  0.00000000000E+00  0.16594242402E+04  0.16594242402E+04  0.00000000000E+00 0.  1.
          4   -1    0    0  502    0 -0.00000000000E+00 -0.00000000000E+00 -0.76176167487E+03  0.76176167487E+03  0.00000000000E+00 0.  1.
    9000010    2    1    2  501    0  0.48789313985E+03 -0.29340309898E+03  0.12797778766E+04  0.17355203867E+04  0.10247314306E+04 0.  0.
        -13    1    3    3    0    0  0.62975502603E+03  0.16152693758E+03  0.96796414968E+03  0.11660347124E+04  0.10566000000E+00 0.  1.
          4    1    3    3  501    0 -0.14186188617E+03 -0.45493003657E+03  0.31181372694E+03  0.56948567430E+03  0.00000000000E+00 0.  1.
         13    1    1    2    0    0 -0.48789313985E+03  0.29340309898E+03 -0.38211531132E+03  0.68566552831E+03  0.10566000000E+00 0. -1.
<mgrwt>
<rscale>  1 0.97860576E+03</rscale>
<asrwt>0</asrwt>
<pdfrwt beam="1">  1       21 0.25529604E+00 0.11722626E+04</pdfrwt>
<pdfrwt beam="2">  1        4 0.11719410E+00 0.11722626E+04</pdfrwt>
<totfact> 0.10710866E+00</totfact>
</mgrwt>
</event>
<event>
 6    1  0.1412458E-005  0.1020094E+04  0.7818608E-02  0.9868007E-01
         21   -1    0    0  501  502  0.00000000000E+00  0.00000000000E+00  0.30088047036E+03  0.30088047036E+03  0.00000000000E+00 0.  1.
          4   -1    0    0  502    0 -0.00000000000E+00 -0.00000000000E+00 -0.11832905103E+04  0.11832905103E+04  0.00000000000E+00 0.  1.
    9000010    2    1    2  501    0 -0.20462350676E+02 -0.13621704259E+03 -0.63671272530E+03  0.12024956852E+04  0.10107516945E+04 0.  0.
        -13    1    3    3    0    0  0.19169172929E+03  0.28913907751E+03  0.66969864774E+02  0.35331586318E+03  0.10566000000E+00 0.  1.
          4    1    3    3  501    0 -0.21215407997E+03 -0.42535612010E+03 -0.70368259008E+03  0.84917982202E+03  0.00000000000E+00 0.  1.
         13    1    1    2    0    0  0.20462350676E+02  0.13621704259E+03 -0.24569731467E+03  0.28167529549E+03  0.10566000000E+00 0. -1.
<mgrwt>
<rscale>  1 0.61837169E+03</rscale>
<asrwt>0</asrwt>
<pdfrwt beam="1">  1       21 0.46289303E-01 0.10200945E+04</pdfrwt>
<pdfrwt beam="2">  1        4 0.18204469E+00 0.10200945E+04</pdfrwt>
<totfact> 0.30819979E+01</totfact>
</mgrwt>
</event>
<event>
 6    1  0.1412458E-005  0.1230389E+04  0.7818608E-02  0.9300758E-01
         21   -1    0    0  501  502  0.00000000000E+00  0.00000000000E+00  0.63630882608E+03  0.63630882608E+03  0.00000000000E+00 0. -1.
          4   -1    0    0  502    0 -0.00000000000E+00 -0.00000000000E+00 -0.12654177741E+04  0.12654177741E+04  0.00000000000E+00 0.  1.
    9000010    2    1    2  501    0  0.46695191079E+03 -0.29504036372E+03 -0.53388030601E+03  0.13412255666E+04  0.10994384640E+04 0.  0.
        -13    1    3    3    0    0  0.44787035273E+03 -0.69430297050E+03 -0.41257692040E+03  0.92350646674E+03  0.10566000000E+00 0.  1.
          4    1    3    3  501    0  0.19081558054E+02  0.39926260678E+03 -0.12130338561E+03  0.41771909986E+03  0.00000000000E+00 0.  1.
         13    1    1    2    0    0 -0.46695191079E+03  0.29504036372E+03 -0.95228642017E+02  0.56050103358E+03  0.10566000000E+00 0. -1.
<mgrwt>
<rscale>  1 0.10071310E+04</rscale>
<asrwt>0</asrwt>
<pdfrwt beam="1">  1       21 0.97893666E-01 0.12303893E+04</pdfrwt>
<pdfrwt beam="2">  1        4 0.19467966E+00 0.12303893E+04</pdfrwt>
<totfact> 0.44576313E+00</totfact>
</mgrwt>
</event>
<event>
 6    1  0.1412458E-005  0.1274331E+04  0.7818608E-02  0.9168701E-01
         21   -1    0    0  501  502  0.00000000000E+00  0.00000000000E+00  0.13415050135E+04  0.13415050135E+04  0.00000000000E+00 0.  1.
          4   -1    0    0  502    0 -0.00000000000E+00 -0.00000000000E+00 -0.81456380975E+03  0.81456380975E+03  0.00000000000E+00 0.  1.
    9000010    2    1    2  501    0  0.55107337569E+03  0.59518710274E+03  0.39598067101E+03  0.13344361651E+04  0.98284771669E+03 0.  0.
        -13    1    3    3    0    0  0.61242857178E+03  0.44490107460E+03 -0.14403269942E+03  0.77055249748E+03  0.10566000000E+00 0.  1.
          4    1    3    3  501    0 -0.61355196084E+02  0.15028602814E+03  0.54001337044E+03  0.56388366760E+03  0.00000000000E+00 0.  1.
         13    1    1    2    0    0 -0.55107337569E+03 -0.59518710274E+03  0.13096053273E+03  0.82163265816E+03  0.10566000000E+00 0. -1.
<mgrwt>
<rscale>  1 0.11382406E+04</rscale>
<asrwt>0</asrwt>
<pdfrwt beam="1">  1       21 0.20638539E+00 0.12743309E+04</pdfrwt>
<pdfrwt beam="2">  1        4 0.12531751E+00 0.12743309E+04</pdfrwt>
<totfact> 0.18650238E+00</totfact>
</mgrwt>
</event>
<event>
 6    1  0.1412458E-005  0.1030197E+04  0.7818608E-02  0.9565808E-01
         21   -1    0    0  501  502  0.00000000000E+00  0.00000000000E+00  0.11524215063E+04  0.11524215063E+04  0.00000000000E+00 0.  1.
          4   -1    0    0  502    0 -0.00000000000E+00 -0.00000000000E+00 -0.59451837272E+03  0.59451837272E+03  0.00000000000E+00 0.  1.
    9000010    2    1    2  501    0  0.26227048158E+02  0.36627375914E+03  0.80236914291E+03  0.13057959506E+04  0.96252921947E+03 0.  0.
        -13    1    3    3    0    0 -0.47551214435E+02  0.46383629071E+03 -0.27388521044E+02  0.46707104901E+03  0.10566000000E+00 0.  1.
          4    1    3    3  501    0  0.73778262593E+02 -0.97562531573E+02  0.82975766395E+03  0.83872490155E+03  0.00000000000E+00 0.  1.
         13    1    1    2    0    0 -0.26227048158E+02 -0.36627375914E+03 -0.24446600937E+03  0.44114392843E+03  0.10566000000E+00 0. -1.
<mgrwt>
<rscale>  1 0.79601169E+03</rscale>
<asrwt>0</asrwt>
<pdfrwt beam="1">  1       21 0.17729562E+00 0.10301975E+04</pdfrwt>
<pdfrwt beam="2">  1        4 0.91464365E-01 0.10301975E+04</pdfrwt>
<totfact> 0.66935097E+00</totfact>
</mgrwt>
</event>
<event>
 6    1  0.1412458E-005  0.1019187E+04  0.7818608E-02  0.1003625E+00
          4   -1    0    0  502    0 -0.00000000000E+00  0.00000000000E+00  0.57793492135E+03  0.57793492135E+03  0.00000000000E+00 0.  1.
         21   -1    0    0  501  502  0.00000000000E+00 -0.00000000000E+00 -0.52370782533E+03  0.52370782533E+03  0.00000000000E+00 0.  1.
    9000010    2    1    2  501    0  0.47449601425E+01 -0.80707984436E+02  0.43828771282E+02  0.10201293753E+04  0.10159757318E+04 0.  0.
        -13    1    3    3    0    0  0.21815418846E+03  0.28297880771E+03 -0.30739622637E+03  0.47133926922E+03  0.10566000000E+00 0.  1.
          4    1    3    3  501    0 -0.21340922832E+03 -0.36368679215E+03  0.35122499766E+03  0.54879010604E+03  0.00000000000E+00 0.  1.
         13    1    1    2    0    0 -0.47449601425E+01  0.80707984436E+02  0.10398324735E+02  0.81513371417E+02  0.10566000000E+00 0. -1.
<mgrwt>
<rscale>  1 0.54088766E+03</rscale>
<asrwt>0</asrwt>
<pdfrwt beam="2">  1       21 0.80570434E-01 0.10191874E+04</pdfrwt>
<pdfrwt beam="1">  1        4 0.88913065E-01 0.10191874E+04</pdfrwt>
<totfact> 0.56551415E+01</totfact>
</mgrwt>
</event>
<event>
 6    1  0.1412458E-005  0.1027943E+04  0.7818608E-02  0.9734627E-01
         21   -1    0    0  501  502  0.00000000000E+00  0.00000000000E+00  0.13600523655E+04  0.13600523655E+04  0.00000000000E+00 0.  1.
          4   -1    0    0  502    0 -0.00000000000E+00 -0.00000000000E+00 -0.33663869030E+03  0.33663869030E+03  0.00000000000E+00 0.  1.
    9000010    2    1    2  501    0 -0.15368097153E+03  0.14103544928E+03  0.10691426248E+04  0.14831495213E+04  0.10065573562E+04 0.  0.
        -13    1    3    3    0    0  0.38759095412E+03  0.94966803020E+01  0.16535754746E+03  0.42149740725E+03  0.10566000000E+00 0.  1.
          4    1    3    3  501    0 -0.54127192565E+03  0.13153876898E+03  0.90378507738E+03  0.10616521141E+04  0.00000000000E+00 0.  1.
         13    1    1    2    0    0  0.15368097153E+03 -0.14103544928E+03 -0.45728949593E+02  0.21354153451E+03  0.10566000000E+00 0. -1.
<mgrwt>
<rscale>  1 0.68992032E+03</rscale>
<asrwt>0</asrwt>
<pdfrwt beam="1">  1       21 0.20923882E+00 0.10279429E+04</pdfrwt>
<pdfrwt beam="2">  1        4 0.51790569E-01 0.10279429E+04</pdfrwt>
<totfact> 0.14265822E+01</totfact>
</mgrwt>
</event>
<event>
 6    1  0.1412458E-005  0.1021620E+04  0.7818608E-02  0.9780960E-01
          4   -1    0    0  502    0 -0.00000000000E+00  0.00000000000E+00  0.62027522028E+03  0.62027522028E+03  0.00000000000E+00 0.  1.
         21   -1    0    0  501  502  0.00000000000E+00 -0.00000000000E+00 -0.63921994137E+03  0.63921994137E+03  0.00000000000E+00 0.  1.
    9000010    2    1    2  501    0  0.12948706632E+03  0.12824494894E+03 -0.15332681962E+03  0.10330614476E+04  0.10052328953E+04 0.  0.
        -13    1    3    3    0    0  0.26153437532E+03  0.40304595227E+03  0.23865417427E+03  0.53647189598E+03  0.10566000000E+00 0.  1.
          4    1    3    3  501    0 -0.13204730901E+03 -0.27480100332E+03 -0.39198099389E+03  0.49658955166E+03  0.00000000000E+00 0.  1.
         13    1    1    2    0    0 -0.12948706632E+03 -0.12824494894E+03  0.13438209853E+03  0.22643371401E+03  0.10566000000E+00 0. -1.
<mgrwt>
<rscale>  1 0.66394418E+03</rscale>
<asrwt>0</asrwt>
<pdfrwt beam="2">  1       21 0.98341529E-01 0.10216197E+04</pdfrwt>
<pdfrwt beam="1">  1        4 0.95426957E-01 0.10216197E+04</pdfrwt>
<totfact> 0.29588149E+01</totfact>
</mgrwt>
</event>
<event>
 6    1  0.1412458E-005  0.1055363E+04  0.7818608E-02  0.9593433E-01
         21   -1    0    0  501  502  0.00000000000E+00  0.00000000000E+00  0.56320681652E+03  0.56320681652E+03  0.00000000000E+00 0.  1.
          4   -1    0    0  502    0 -0.00000000000E+00 -0.00000000000E+00 -0.12782457113E+04  0.12782457113E+04  0.00000000000E+00 0.  1.
    9000010    2    1    2  501    0 -0.30627652006E+03  0.51642032797E+02  0.70603367079E+01  0.10553866797E+04  0.10086223223E+04 0.  0.
        -13    1    3    3    0    0  0.30551237596E+02  0.40565809751E+03  0.28172342132E+03  0.49483327240E+03  0.10566000000E+00 0.  1.
          4    1    3    3  501    0 -0.33682775766E+03 -0.35401606471E+03 -0.27466308461E+03  0.56055340731E+03  0.00000000000E+00 0.  1.
         13    1    1    2    0    0  0.30627652006E+03 -0.51642032797E+02 -0.72209923152E+03  0.78606584814E+03  0.10566000000E+00 0. -1.
<mgrwt>
<rscale>  1 0.77732333E+03</rscale>
<asrwt>0</asrwt>
<pdfrwt beam="1">  1       21 0.86647203E-01 0.10553631E+04</pdfrwt>
<pdfrwt beam="2">  1        4 0.19665318E+00 0.10553631E+04</pdfrwt>
<totfact> 0.59358872E+00</totfact>
</mgrwt>
</event>
<event>
 6    1  0.1412458E-005  0.1082172E+04  0.7818608E-02  0.9728521E-01
         21   -1    0    0  501  502  0.00000000000E+00  0.00000000000E+00  0.57685540640E+03  0.57685540640E+03  0.00000000000E+00 0.  1.
          4   -1    0    0  502    0 -0.00000000000E+00 -0.00000000000E+00 -0.69949490951E+03  0.69949490951E+03  0.00000000000E+00 0.  1.
    9000010    2    1    2  501    0  0.14670888564E+03 -0.10846226193E+03 -0.61454544862E+02  0.10839154706E+04  0.10666810803E+04 0.  0.
        -13    1    3    3    0    0 -0.45718553704E+03  0.42964156744E+02 -0.40322047982E+02  0.46096682393E+03  0.10566000000E+00 0.  1.
          4    1    3    3  501    0  0.60389442269E+03 -0.15142641867E+03 -0.21132496881E+02  0.62294864672E+03  0.00000000000E+00 0.  1.
         13    1    1    2    0    0 -0.14670888564E+03  0.10846226193E+03 -0.61184958248E+02  0.19243484526E+03  0.10566000000E+00 0. -1.
<mgrwt>
<rscale>  1 0.69343772E+03</rscale>
<asrwt>0</asrwt>
<pdfrwt beam="1">  1       21 0.88746986E-01 0.10821719E+04</pdfrwt>
<pdfrwt beam="2">  1        4 0.10761460E+00 0.10821719E+04</pdfrwt>
<totfact> 0.28253077E+01</totfact>
</mgrwt>
</event>
<event>
 6    1  0.1412458E-005  0.1012557E+04  0.7818608E-02  0.9693627E-01
          4   -1    0    0  502    0 -0.00000000000E+00  0.00000000000E+00  0.10566282336E+04  0.10566282336E+04  0.00000000000E+00 0.  1.
         21   -1    0    0  501  502  0.00000000000E+00 -0.00000000000E+00 -0.38397072952E+03  0.38397072952E+03  0.00000000000E+00 0.  1.
    9000010    2    1    2  501    0 -0.66180946228E+02 -0.24139926899E+03  0.45997654849E+03  0.11121378166E+04  0.98113127222E+03 0.  0.
        -13    1    3    3    0    0 -0.35951742927E+03 -0.50330595508E+03  0.30253243148E+03  0.68854596770E+03  0.10566000000E+00 0.  1.
          4    1    3    3  501    0  0.29333648305E+03  0.26190668609E+03  0.15744411700E+03  0.42359184894E+03  0.00000000000E+00 0.  1.
         13    1    1    2    0    0  0.66180946228E+02  0.24139926899E+03  0.21268095558E+03  0.32846114647E+03  0.10566000000E+00 0. -1.
<mgrwt>
<rscale>  1 0.71397479E+03</rscale>
<asrwt>0</asrwt>
<pdfrwt beam="2">  1       21 0.59072420E-01 0.10125572E+04</pdfrwt>
<pdfrwt beam="1">  1        4 0.16255819E+00 0.10125572E+04</pdfrwt>
<totfact> 0.24991551E+01</totfact>
</mgrwt>
</event>
<event>
 6    1  0.1412458E-005  0.1181037E+04  0.7818608E-02  0.9395727E-01
          4   -1    0    0  502    0 -0.00000000000E+00  0.00000000000E+00  0.51427092620E+03  0.51427092620E+03  0.00000000000E+00 0.  1.
         21   -1    0    0  501  502  0.00000000000E+00 -0.00000000000E+00 -0.13370954874E+04  0.13370954874E+04  0.00000000000E+00 0.  1.
    9000010    2    1    2  501    0  0.11399481646E+03  0.42810640780E+03 -0.75867499434E+03  0.14037224784E+04  0.10947963897E+04 0.  0.
        -13    1    3    3    0    0 -0.32458248900E+03  0.61228636482E+03 -0.54794130736E+03  0.88345235988E+03  0.10566000000E+00 0.  1.
          4    1    3    3  501    0  0.43857730545E+03 -0.18417995702E+03 -0.21073368697E+03  0.52027011854E+03  0.00000000000E+00 0.  1.
         13    1    1    2    0    0 -0.11399481646E+03 -0.42810640780E+03 -0.64149566822E+02  0.44764393514E+03  0.10566000000E+00 0. -1.
<mgrwt>
<rscale>  1 0.92428185E+03</rscale>
<asrwt>0</asrwt>
<pdfrwt beam="2">  1       21 0.20570700E+00 0.11810373E+04</pdfrwt>
<pdfrwt beam="1">  1        4 0.79118605E-01 0.11810373E+04</pdfrwt>
<totfact> 0.58027062E+00</totfact>
</mgrwt>
</event>
<event>
 6    1  0.1412458E-005  0.1199256E+04  0.7818608E-02  0.9272134E-01
          4   -1    0    0  502    0 -0.00000000000E+00  0.00000000000E+00  0.28349089629E+04  0.28349089629E+04  0.00000000000E+00 0.  1.
         21   -1    0    0  501  502  0.00000000000E+00 -0.00000000000E+00 -0.16479630765E+04  0.16479630765E+04  0.00000000000E+00 0. -1.
    9000010    2    1    2  501    0 -0.56939612968E+03 -0.33860807888E+03 -0.13820529689E+04  0.18298317997E+04  0.99967325788E+03 0.  0.
        -13    1    3    3    0    0 -0.82617022589E+02  0.19512911248E+03 -0.98093343627E+03  0.10035593458E+04  0.10566000000E+00 0.  1.
          4    1    3    3  501    0 -0.48677910709E+03 -0.53373719136E+03 -0.40111953267E+03  0.82627245388E+03  0.00000000000E+00 0.  1.
         13    1    1    2    0    0  0.56939612968E+03  0.33860807888E+03  0.25689988554E+04  0.26530402397E+04  0.10566000000E+00 0. -1.
<mgrwt>
<rscale>  1 0.10338927E+04</rscale>
<asrwt>0</asrwt>
<pdfrwt beam="2">  1       21 0.25353278E+00 0.11992556E+04</pdfrwt>
<pdfrwt beam="1">  1        4 0.43613984E+00 0.11992556E+04</pdfrwt>
<totfact> 0.72969504E-03</totfact>
</mgrwt>
</event>
<event>
 6    1  0.1412458E-005  0.1037213E+04  0.7818608E-02  0.9654227E-01
         21   -1    0    0  501  502  0.00000000000E+00  0.00000000000E+00  0.86802948259E+03  0.86802948259E+03  0.00000000000E+00 0.  1.
          4   -1    0    0  502    0 -0.00000000000E+00 -0.00000000000E+00 -0.67922978814E+03  0.67922978814E+03  0.00000000000E+00 0.  1.
    9000010    2    1    2  501    0 -0.18722505131E+03  0.18890452841E+03  0.48855993803E+03  0.11465170150E+04  0.10025329481E+04 0.  0.
        -13    1    3    3    0    0 -0.33775572201E+03  0.24770726477E+03 -0.18205254680E+03  0.45670664297E+03  0.10566000000E+00 0.  1.
          4    1    3    3  501    0  0.15053067070E+03 -0.58802736359E+02  0.67061248483E+03  0.68981037208E+03  0.00000000000E+00 0.  1.
         13    1    1    2    0    0  0.18722505131E+03 -0.18890452841E+03 -0.29976024358E+03  0.40074225568E+03  0.10566000000E+00 0. -1.
<mgrwt>
<rscale>  1 0.73808711E+03</rscale>
<asrwt>0</asrwt>
<pdfrwt beam="1">  1       21 0.13354300E+00 0.10372128E+04</pdfrwt>
<pdfrwt beam="2">  1        4 0.10449689E+00 0.10372128E+04</pdfrwt>
<totfact> 0.10813478E+01</totfact>
</mgrwt>
</event>
<event>
 6    1  0.1412458E-005  0.1027372E+04  0.7818608E-02  0.9668466E-01
          4   -1    0    0  502    0 -0.00000000000E+00  0.00000000000E+00  0.12905363872E+04  0.12905363872E+04  0.00000000000E+00 0.  1.
         21   -1    0    0  501  502  0.00000000000E+00 -0.00000000000E+00 -0.33240215169E+03  0.33240215169E+03  0.00000000000E+00 0.  1.
    9000010    2    1    2  501    0  0.11422393735E+03  0.23447742739E+03  0.63538687032E+03  0.12079775230E+04  0.99371346437E+03 0.  0.
        -13    1    3    3    0    0 -0.19656527877E+03  0.26199759777E+03  0.79332119664E+03  0.85827686806E+03  0.10566000000E+00 0.  1.
          4    1    3    3  501    0  0.31078921612E+03 -0.27520170384E+02 -0.15793432632E+03  0.34970065493E+03  0.00000000000E+00 0.  1.
         13    1    1    2    0    0 -0.11422393735E+03 -0.23447742739E+03  0.32274736523E+03  0.41496101593E+03  0.10566000000E+00 0. -1.
<mgrwt>
<rscale>  1 0.72925730E+03</rscale>
<asrwt>0</asrwt>
<pdfrwt beam="2">  1       21 0.51138793E-01 0.10273720E+04</pdfrwt>
<pdfrwt beam="1">  1        4 0.19854406E+00 0.10273720E+04</pdfrwt>
<totfact> 0.19203611E+01</totfact>
</mgrwt>
</event>
<event>
 6    1  0.1412458E-005  0.9800753E+03  0.7818608E-02  0.9701092E-01
         21   -1    0    0  501  502  0.00000000000E+00  0.00000000000E+00  0.27278464512E+03  0.27278464512E+03  0.00000000000E+00 0.  1.
          4   -1    0    0  502    0 -0.00000000000E+00 -0.00000000000E+00 -0.17033410738E+04  0.17033410738E+04  0.00000000000E+00 0.  1.
    9000010    2    1    2  501    0  0.24502551568E+03 -0.11149464421E+03 -0.71952120448E+03  0.12158365238E+04  0.94237950415E+03 0.  0.
        -13    1    3    3    0    0 -0.32393731449E+03 -0.10826485590E+03 -0.63415935273E+02  0.34738775849E+03  0.10566000000E+00 0.  1.
          4    1    3    3  501    0  0.56896283017E+03 -0.32297883166E+01 -0.65610526921E+03  0.86844876529E+03  0.00000000000E+00 0.  1.
         13    1    1    2    0    0 -0.24502551568E+03  0.11149464421E+03 -0.71103522421E+03  0.76028919514E+03  0.10566000000E+00 0. -1.
<mgrwt>
<rscale>  1 0.70951783E+03</rscale>
<asrwt>0</asrwt>
<pdfrwt beam="1">  1       21 0.41966868E-01 0.98007535E+03</pdfrwt>
<pdfrwt beam="2">  1        4 0.26205247E+00 0.98007535E+03</pdfrwt>
<totfact> 0.11675474E+01</totfact>
</mgrwt>
</event>
<event>
 6    1  0.1412458E-005  0.9989647E+03  0.7818608E-02  0.9996634E-01
          4   -1    0    0  502    0 -0.00000000000E+00  0.00000000000E+00  0.27138510804E+03  0.27138510804E+03  0.00000000000E+00 0.  1.
         21   -1    0    0  501  502  0.00000000000E+00 -0.00000000000E+00 -0.14963831815E+04  0.14963831815E+04  0.00000000000E+00 0.  1.
    9000010    2    1    2  501    0 -0.93216972147E+02 -0.27666076116E+02 -0.13038733752E+04  0.16425638964E+04  0.99422108183E+03 0.  0.
        -13    1    3    3    0    0  0.22573796634E+03 -0.41125311772E+03 -0.83592513576E+03  0.95857060253E+03  0.10566000000E+00 0.  1.
          4    1    3    3  501    0 -0.31895493848E+03  0.38358704161E+03 -0.46794823943E+03  0.68399329387E+03  0.00000000000E+00 0.  1.
         13    1    1    2    0    0  0.93216972147E+02  0.27666076116E+02  0.78875301759E+02  0.12520439312E+03  0.10566000000E+00 0. -1.
<mgrwt>
<rscale>  1 0.55798084E+03</rscale>
<asrwt>0</asrwt>
<pdfrwt beam="2">  1       21 0.23021280E+00 0.99896465E+03</pdfrwt>
<pdfrwt beam="1">  1        4 0.41751555E-01 0.99896465E+03</pdfrwt>
<totfact> 0.16312696E+01</totfact>
</mgrwt>
</event>
<event>
 6    1  0.1412458E-005  0.1016603E+04  0.7818608E-02  0.9728140E-01
         21   -1    0    0  501  502  0.00000000000E+00  0.00000000000E+00  0.54737067042E+03  0.54737067042E+03  0.00000000000E+00 0.  1.
          4   -1    0    0  502    0 -0.00000000000E+00 -0.00000000000E+00 -0.77411956515E+03  0.77411956515E+03  0.00000000000E+00 0.  1.
    9000010    2    1    2  501    0 -0.24028837918E+02 -0.21904271615E+03 -0.16225703160E+02  0.10167327551E+04  0.99243394001E+03 0.  0.
        -13    1    3    3    0    0 -0.49603535328E+03 -0.39127511133E+02  0.75704580037E+02  0.50330232309E+03  0.10566000000E+00 0.  1.
          4    1    3    3  501    0  0.47200651536E+03 -0.17991520501E+03 -0.91930283198E+02  0.51343043200E+03  0.00000000000E+00 0.  1.
         13    1    1    2    0    0  0.24028837918E+02  0.21904271615E+03 -0.21052319158E+03  0.30475748047E+03  0.10566000000E+00 0. -1.
<mgrwt>
<rscale>  1 0.69365773E+03</rscale>
<asrwt>0</asrwt>
<pdfrwt beam="1">  1       21 0.84210872E-01 0.10166033E+04</pdfrwt>
<pdfrwt beam="2">  1        4 0.11909532E+00 0.10166033E+04</pdfrwt>
<totfact> 0.25069149E+01</totfact>
</mgrwt>
</event>
<event>
 6    1  0.1412458E-005  0.1017359E+04  0.7818608E-02  0.9705805E-01
         21   -1    0    0  501  502  0.00000000000E+00  0.00000000000E+00  0.19208999813E+04  0.19208999813E+04  0.00000000000E+00 0.  1.
          4   -1    0    0  502    0 -0.00000000000E+00 -0.00000000000E+00 -0.21983446895E+03  0.21983446895E+03  0.00000000000E+00 0.  1.
    9000010    2    1    2  501    0 -0.22192971591E+03 -0.82889743647E+02  0.15676816854E+04  0.18688617505E+04  0.98939115991E+03 0.  0.
        -13    1    3    3    0    0 -0.13613895510E+02 -0.12534591598E+03  0.16395908195E+04  0.16444315137E+04  0.10566000000E+00 0.  1.
          4    1    3    3  501    0 -0.20831582040E+03  0.42456172336E+02 -0.71909134114E+02  0.22443023675E+03  0.00000000000E+00 0.  1.
         13    1    1    2    0    0  0.22192971591E+03  0.82889743647E+02  0.13338382693E+03  0.27187269972E+03  0.10566000000E+00 0. -1.
<mgrwt>
<rscale>  1 0.70672204E+03</rscale>
<asrwt>0</asrwt>
<pdfrwt beam="1">  1       21 0.29552306E+00 0.10173585E+04</pdfrwt>
<pdfrwt beam="2">  1        4 0.33820689E-01 0.10173585E+04</pdfrwt>
<totfact> 0.96315376E+00</totfact>
</mgrwt>
</event>
<event>
 6    1  0.1412458E-005  0.1053023E+04  0.7818608E-02  0.9543137E-01
          4   -1    0    0  502    0 -0.00000000000E+00  0.00000000000E+00  0.16056275130E+04  0.16056275130E+04  0.00000000000E+00 0.  1.
         21   -1    0    0  501  502  0.00000000000E+00 -0.00000000000E+00 -0.67674804000E+03  0.67674804000E+03  0.00000000000E+00 0.  1.
    9000010    2    1    2  501    0  0.35620103742E+03  0.10688148612E+03 -0.21917455363E+03  0.10755901991E+04  0.98516697077E+03 0.  0.
        -13    1    3    3    0    0  0.49194385919E+03  0.65603221538E+01 -0.52921624910E+03  0.72257985572E+03  0.10566000000E+00 0.  1.
          4    1    3    3  501    0 -0.13574282176E+03  0.10032116396E+03  0.31004169547E+03  0.35301034337E+03  0.00000000000E+00 0.  1.
         13    1    1    2    0    0 -0.35620103742E+03 -0.10688148612E+03  0.11480540266E+04  0.12067853539E+04  0.10566000000E+00 0. -1.
<mgrwt>
<rscale>  1 0.81176848E+03</rscale>
<asrwt>0</asrwt>
<pdfrwt beam="2">  1       21 0.10411508E+00 0.10530227E+04</pdfrwt>
<pdfrwt beam="1">  1        4 0.24701962E+00 0.10530227E+04</pdfrwt>
<totfact> 0.18032530E+00</totfact>
</mgrwt>
</event>
<event>
 6    1  0.1412458E-005  0.1052780E+04  0.7818608E-02  0.9694112E-01
         21   -1    0    0  501  502  0.00000000000E+00  0.00000000000E+00  0.25926881485E+03  0.25926881485E+03  0.00000000000E+00 0.  1.
          4   -1    0    0  502    0 -0.00000000000E+00 -0.00000000000E+00 -0.15682254912E+04  0.15682254912E+04  0.00000000000E+00 0.  1.
    9000010    2    1    2  501    0  0.16596750006E+03  0.14794700097E+03 -0.10920695693E+04  0.15168923831E+04  0.10290350001E+04 0.  0.
        -13    1    3    3    0    0  0.33741402864E+03 -0.21253288992E+03 -0.10406289072E+04  0.11144177806E+04  0.10566000000E+00 0.  1.
          4    1    3    3  501    0 -0.17144652858E+03  0.36047989089E+03 -0.51440662024E+02  0.40247460244E+03  0.00000000000E+00 0.  1.
         13    1    1    2    0    0 -0.16596750006E+03 -0.14794700097E+03 -0.21688710706E+03  0.31060192296E+03  0.10566000000E+00 0. -1.
<mgrwt>
<rscale>  1 0.71368424E+03</rscale>
<asrwt>0</asrwt>
<pdfrwt beam="1">  1       21 0.39887510E-01 0.10527804E+04</pdfrwt>
<pdfrwt beam="2">  1        4 0.24126546E+00 0.10527804E+04</pdfrwt>
<totfact> 0.17326954E+01</totfact>
</mgrwt>
</event>
<event>
 6    1  0.1412458E-005  0.1044398E+04  0.7818608E-02  0.9632349E-01
         21   -1    0    0  501  502  0.00000000000E+00  0.00000000000E+00  0.64893941279E+03  0.64893941279E+03  0.00000000000E+00 0.  1.
          4   -1    0    0  502    0 -0.00000000000E+00 -0.00000000000E+00 -0.93260659690E+03  0.93260659690E+03  0.00000000000E+00 0.  1.
    9000010    2    1    2  501    0  0.12782315130E+03  0.24978958684E+03  0.16001194900E+03  0.10565843158E+04  0.10059985074E+04 0.  0.
        -13    1    3    3    0    0 -0.22090177579E+03 -0.34199951206E+02  0.46311929462E+03  0.51424383655E+03  0.10566000000E+00 0.  1.
          4    1    3    3  501    0  0.34872492709E+03  0.28398953805E+03 -0.30310734562E+03  0.54234047928E+03  0.00000000000E+00 0.  1.
         13    1    1    2    0    0 -0.12782315130E+03 -0.24978958684E+03 -0.44367913311E+03  0.52496169386E+03  0.10566000000E+00 0. -1.
<mgrwt>
<rscale>  1 0.75191622E+03</rscale>
<asrwt>0</asrwt>
<pdfrwt beam="1">  1       21 0.99836833E-01 0.10443977E+04</pdfrwt>
<pdfrwt beam="2">  1        4 0.14347794E+00 0.10443977E+04</pdfrwt>
<totfact> 0.10231463E+01</totfact>
</mgrwt>
</event>
<event>
 6    1  0.1412458E-005  0.1229405E+04  0.7818608E-02  0.9374941E-01
          4   -1    0    0  502    0 -0.00000000000E+00  0.00000000000E+00  0.88118287609E+03  0.88118287609E+03  0.00000000000E+00 0.  1.
         21   -1    0    0  501  502  0.00000000000E+00 -0.00000000000E+00 -0.15384239875E+04  0.15384239875E+04  0.00000000000E+00 0.  1.
    9000010    2    1    2  501    0 -0.41727218282E+03  0.70370707909E+02 -0.12089918206E+04  0.17242674017E+04  0.11542827813E+04 0.  0.
        -13    1    3    3    0    0 -0.59684489844E+02 -0.49470932466E+03 -0.79348994587E+03  0.93697697922E+03  0.10566000000E+00 0.  1.
          4    1    3    3  501    0 -0.35758769297E+03  0.56508003257E+03 -0.41550187470E+03  0.78729042243E+03  0.00000000000E+00 0.  1.
         13    1    1    2    0    0  0.41727218282E+03 -0.70370707909E+02  0.55175070916E+03  0.69533946193E+03  0.10566000000E+00 0. -1.
<mgrwt>
<rscale>  1 0.94166957E+03</rscale>
<asrwt>0</asrwt>
<pdfrwt beam="2">  1       21 0.23668061E+00 0.12294051E+04</pdfrwt>
<pdfrwt beam="1">  1        4 0.13556660E+00 0.12294051E+04</pdfrwt>
<totfact> 0.96325837E-01</totfact>
</mgrwt>
</event>
<event>
 6    1  0.1412458E-005  0.9307547E+03  0.7818608E-02  0.1006589E+00
          4   -1    0    0  502    0 -0.00000000000E+00  0.00000000000E+00  0.84523955350E+03  0.84523955350E+03  0.00000000000E+00 0.  1.
         21   -1    0    0  501  502  0.00000000000E+00 -0.00000000000E+00 -0.31572635966E+03  0.31572635966E+03  0.00000000000E+00 0.  1.
    9000010    2    1    2  501    0  0.20176937421E+02 -0.94651948045E+02  0.51306886646E+03  0.10628000986E+04  0.92570961314E+03 0.  0.
        -13    1    3    3    0    0  0.24842144625E+03  0.17402220605E+03 -0.12956174094E+03  0.32982298136E+03  0.10566000000E+00 0.  1.
          4    1    3    3  501    0 -0.22824450883E+03 -0.26867415409E+03  0.64263060740E+03  0.73297711728E+03  0.00000000000E+00 0.  1.
         13    1    1    2    0    0 -0.20176937421E+02  0.94651948045E+02  0.16444327385E+02  0.98165814516E+02  0.10566000000E+00 0. -1.
<mgrwt>
<rscale>  1 0.52853215E+03</rscale>
<asrwt>0</asrwt>
<pdfrwt beam="2">  1       21 0.48573287E-01 0.93075474E+03</pdfrwt>
<pdfrwt beam="1">  1        4 0.13003685E+00 0.93075474E+03</pdfrwt>
<totfact> 0.69897155E+01</totfact>
</mgrwt>
</event>
<event>
 6    1  0.1412458E-005  0.1063791E+04  0.7818608E-02  0.9585834E-01
         21   -1    0    0  501  502  0.00000000000E+00  0.00000000000E+00  0.38666167037E+04  0.38666167037E+04  0.00000000000E+00 0.  1.
          4   -1    0    0  502    0 -0.00000000000E+00 -0.00000000000E+00 -0.12512058975E+03  0.12512058975E+03  0.00000000000E+00 0.  1.
    9000010    2    1    2  501    0  0.11880023836E+03 -0.28772997324E+03  0.26170008308E+04  0.28249503861E+04  0.10172262784E+04 0.  0.
        -13    1    3    3    0    0 -0.23752670604E+02 -0.59611813223E+03  0.93601141323E+03  0.11099722491E+04  0.10566000000E+00 0.  1.
          4    1    3    3  501    0  0.14255290896E+03  0.30838815898E+03  0.16809894176E+04  0.17149781370E+04  0.00000000000E+00 0.  1.
         13    1    1    2    0    0 -0.11880023836E+03  0.28772997324E+03  0.11244952832E+04  0.11667869073E+04  0.10566000000E+00 0. -1.
<mgrwt>
<rscale>  1 0.78240913E+03</rscale>
<asrwt>0</asrwt>
<pdfrwt beam="1">  1       21 0.59486402E+00 0.10637910E+04</pdfrwt>
<pdfrwt beam="2">  1        4 0.19249324E-01 0.10637910E+04</pdfrwt>
<totfact> 0.24401368E-01</totfact>
</mgrwt>
</event>
<event>
 6    1  0.1412458E-005  0.1024823E+04  0.7818608E-02  0.9733688E-01
          4   -1    0    0  502    0 -0.00000000000E+00  0.00000000000E+00  0.15286673335E+04  0.15286673335E+04  0.00000000000E+00 0.  1.
         21   -1    0    0  501  502  0.00000000000E+00 -0.00000000000E+00 -0.29527647264E+03  0.29527647264E+03  0.00000000000E+00 0.  1.
    9000010    2    1    2  501    0  0.94141617687E+02 -0.18901029413E+03  0.67547977798E+03  0.12274102170E+04  0.10028336725E+04 0.  0.
        -13    1    3    3    0    0 -0.18159716043E+03  0.36395710511E+03  0.25710385138E+03  0.48119092322E+03  0.10566000000E+00 0.  1.
          4    1    3    3  501    0  0.27573877811E+03 -0.55296739924E+03  0.41837592661E+03  0.74621929374E+03  0.00000000000E+00 0.  1.
         13    1    1    2    0    0 -0.94141617687E+02  0.18901029413E+03  0.55791108289E+03  0.59653358920E+03  0.10566000000E+00 0. -1.
<mgrwt>
<rscale>  1 0.69045989E+03</rscale>
<asrwt>0</asrwt>
<pdfrwt beam="2">  1       21 0.45427150E-01 0.10248234E+04</pdfrwt>
<pdfrwt beam="1">  1        4 0.23517959E+00 0.10248234E+04</pdfrwt>
<totfact> 0.14410345E+01</totfact>
</mgrwt>
</event>
<event>
 6    1  0.1412458E-005  0.9727465E+03  0.7818608E-02  0.1000144E+00
          4   -1    0    0  502    0 -0.00000000000E+00  0.00000000000E+00  0.74711310408E+03  0.74711310408E+03  0.00000000000E+00 0.  1.
         21   -1    0    0  501  502  0.00000000000E+00 -0.00000000000E+00 -0.80524331781E+03  0.80524331781E+03  0.00000000000E+00 0.  1.
    9000010    2    1    2  501    0 -0.25994461529E+02  0.10041739476E+03 -0.50331644260E+03  0.10952457627E+04  0.96720032782E+03 0.  0.
        -13    1    3    3    0    0 -0.61611171961E+02 -0.43062715548E+03 -0.28449035208E+03  0.51977923693E+03  0.10566000000E+00 0.  1.
          4    1    3    3  501    0  0.35616710432E+02  0.53104455024E+03 -0.21882609052E+03  0.57546652578E+03  0.00000000000E+00 0.  1.
         13    1    1    2    0    0  0.25994461529E+02 -0.10041739476E+03  0.44518622886E+03  0.45711065918E+03  0.10566000000E+00 0. -1.
<mgrwt>
<rscale>  1 0.55586990E+03</rscale>
<asrwt>0</asrwt>
<pdfrwt beam="2">  1       21 0.12388359E+00 0.97274654E+03</pdfrwt>
<pdfrwt beam="1">  1        4 0.11494048E+00 0.97274654E+03</pdfrwt>
<totfact> 0.10515040E+01</totfact>
</mgrwt>
</event>
<event>
 6    1  0.1412458E-005  0.9862447E+03  0.7818608E-02  0.9868655E-01
          4   -1    0    0  502    0 -0.00000000000E+00  0.00000000000E+00  0.12779972338E+04  0.12779972338E+04  0.00000000000E+00 0.  1.
         21   -1    0    0  501  502  0.00000000000E+00 -0.00000000000E+00 -0.32397641793E+03  0.32397641793E+03  0.00000000000E+00 0.  1.
    9000010    2    1    2  501    0 -0.41099902325E+02 -0.14644312669E+03  0.46599248631E+03  0.10907922231E+04  0.97444542454E+03 0.  0.
        -13    1    3    3    0    0  0.38971084412E+03 -0.29007307104E+03  0.40520334759E+03  0.63261891580E+03  0.10566000000E+00 0.  1.
          4    1    3    3  501    0 -0.43081074644E+03  0.14362994435E+03  0.60789138720E+02  0.45817330733E+03  0.00000000000E+00 0.  1.
         13    1    1    2    0    0  0.41099902325E+02  0.14644312669E+03  0.48802832957E+03  0.51118142861E+03  0.10566000000E+00 0. -1.
<mgrwt>
<rscale>  1 0.61804735E+03</rscale>
<asrwt>0</asrwt>
<pdfrwt beam="2">  1       21 0.49842527E-01 0.98624473E+03</pdfrwt>
<pdfrwt beam="1">  1        4 0.19661496E+00 0.98624473E+03</pdfrwt>
<totfact> 0.20998890E+01</totfact>
</mgrwt>
</event>
<event>
 6    1  0.1412458E-005  0.9904563E+03  0.7818608E-02  0.9878013E-01
          4   -1    0    0  502    0 -0.00000000000E+00  0.00000000000E+00  0.44334793444E+03  0.44334793444E+03  0.00000000000E+00 0.  1.
         21   -1    0    0  501  502  0.00000000000E+00 -0.00000000000E+00 -0.73353319519E+03  0.73353319519E+03  0.00000000000E+00 0.  1.
    9000010    2    1    2  501    0  0.79374853543E+02 -0.12217113924E+03 -0.28682288796E+03  0.10311503115E+04  0.97968231647E+03 0.  0.
        -13    1    3    3    0    0 -0.36388374818E+03 -0.11194760675E+03  0.14956854637E+03  0.40904084157E+03  0.10566000000E+00 0.  1.
          4    1    3    3  501    0  0.44325860172E+03 -0.10223532490E+02 -0.43639143433E+03  0.62210946993E+03  0.00000000000E+00 0.  1.
         13    1    1    2    0    0 -0.79374853543E+02  0.12217113924E+03 -0.33623727852E+01  0.14573081813E+03  0.10566000000E+00 0. -1.
<mgrwt>
<rscale>  1 0.61338820E+03</rscale>
<asrwt>0</asrwt>
<pdfrwt beam="2">  1       21 0.11285126E+00 0.99045626E+03</pdfrwt>
<pdfrwt beam="1">  1        4 0.68207375E-01 0.99045626E+03</pdfrwt>
<totfact> 0.45504631E+01</totfact>
</mgrwt>
</event>
<event>
 6    1  0.1412458E-005  0.9993846E+03  0.7818608E-02  0.9998787E-01
         21   -1    0    0  501  502  0.00000000000E+00  0.00000000000E+00  0.35254344881E+03  0.35254344881E+03  0.00000000000E+00 0.  1.
          4   -1    0    0  502    0 -0.00000000000E+00 -0.00000000000E+00 -0.11072347089E+04  0.11072347089E+04  0.00000000000E+00 0.  1.
    9000010    2    1    2  501    0 -0.25426493279E+02 -0.93044672615E+02 -0.85891836934E+03  0.13177671754E+04  0.99471892793E+03 0.  0.
        -13    1    3    3    0    0 -0.18489056572E+03 -0.26616010913E+03 -0.99461784966E+03  0.10460833633E+04  0.10566000000E+00 0.  1.
          4    1    3    3  501    0  0.15946407244E+03  0.17311543651E+03  0.13569948032E+03  0.27168381203E+03  0.00000000000E+00 0.  1.
         13    1    1    2    0    0  0.25426493279E+02  0.93044672615E+02  0.10422710921E+03  0.14201098239E+03  0.10566000000E+00 0. -1.
<mgrwt>
<rscale>  1 0.55703471E+03</rscale>
<asrwt>0</asrwt>
<pdfrwt beam="1">  1       21 0.54237455E-01 0.99938459E+03</pdfrwt>
<pdfrwt beam="2">  1        4 0.17034380E+00 0.99938459E+03</pdfrwt>
<totfact> 0.26508727E+01</totfact>
</mgrwt>
</event>
<event>
 6    1  0.1412458E-005  0.1004140E+04  0.7818608E-02  0.9800843E-01
         21   -1    0    0  501  502  0.00000000000E+00  0.00000000000E+00  0.47354733717E+03  0.47354733717E+03  0.00000000000E+00 0.  1.
          4   -1    0    0  502    0 -0.00000000000E+00 -0.00000000000E+00 -0.83438721899E+03  0.83438721899E+03  0.00000000000E+00 0.  1.
    9000010    2    1    2  501    0 -0.14109325499E+03  0.11140832318E+03 -0.12574866644E+03  0.10119835268E+04  0.98791639843E+03 0.  0.
        -13    1    3    3    0    0 -0.43055619596E+03  0.45796324842E+02 -0.41341041976E+03  0.59865192523E+03  0.10566000000E+00 0.  1.
          4    1    3    3  501    0  0.28946294097E+03  0.65611998338E+02  0.28766175332E+03  0.41333160155E+03  0.00000000000E+00 0.  1.
         13    1    1    2    0    0  0.14109325499E+03 -0.11140832318E+03 -0.23509121538E+03  0.29595102938E+03  0.10566000000E+00 0. -1.
<mgrwt>
<rscale>  1 0.65317310E+03</rscale>
<asrwt>0</asrwt>
<pdfrwt beam="1">  1       21 0.72853437E-01 0.10041404E+04</pdfrwt>
<pdfrwt beam="2">  1        4 0.12836726E+00 0.10041404E+04</pdfrwt>
<totfact> 0.29130321E+01</totfact>
</mgrwt>
</event>
<event>
 6    1  0.1412458E-005  0.1015617E+04  0.7818608E-02  0.9900287E-01
          4   -1    0    0  502    0 -0.00000000000E+00  0.00000000000E+00  0.64411508849E+03  0.64411508849E+03  0.00000000000E+00 0.  1.
         21   -1    0    0  501  502  0.00000000000E+00 -0.00000000000E+00 -0.59519541340E+03  0.59519541340E+03  0.00000000000E+00 0.  1.
    9000010    2    1    2  501    0  0.11454369602E+03  0.51931020176E+02 -0.12650064676E+03  0.10234647476E+04  0.10077998744E+04 0.  0.
        -13    1    3    3    0    0  0.22941056437E+03 -0.36753278586E+03 -0.32871900087E+03  0.54384349626E+03  0.10566000000E+00 0.  1.
          4    1    3    3  501    0 -0.11486686835E+03  0.41946380604E+03  0.20221835411E+03  0.47962125136E+03  0.00000000000E+00 0.  1.
         13    1    1    2    0    0 -0.11454369602E+03 -0.51931020176E+02  0.17542032184E+03  0.21584575427E+03  0.10566000000E+00 0. -1.
<mgrwt>
<rscale>  1 0.60247398E+03</rscale>
<asrwt>0</asrwt>
<pdfrwt beam="2">  1       21 0.91568525E-01 0.10156169E+04</pdfrwt>
<pdfrwt beam="1">  1        4 0.99094629E-01 0.10156169E+04</pdfrwt>
<totfact> 0.32204645E+01</totfact>
</mgrwt>
</event>
<event>
 6    1  0.1412458E-005  0.1038060E+04  0.7818608E-02  0.9602111E-01
         21   -1    0    0  501  502  0.00000000000E+00  0.00000000000E+00  0.49259979210E+03  0.49259979210E+03  0.00000000000E+00 0.  1.
          4   -1    0    0  502    0 -0.00000000000E+00 -0.00000000000E+00 -0.97779686488E+03  0.97779686488E+03  0.00000000000E+00 0.  1.
    9000010    2    1    2  501    0  0.16880153787E+03 -0.26811803321E+03 -0.22918277367E+03  0.10630582578E+04  0.98852763080E+03 0.  0.
        -13    1    3    3    0    0  0.36676102362E+03  0.13139004732E+03  0.20541838335E+03  0.44042447294E+03  0.10566000000E+00 0.  1.
          4    1    3    3  501    0 -0.19795948575E+03 -0.39950808053E+03 -0.43460115702E+03  0.62263378489E+03  0.00000000000E+00 0.  1.
         13    1    1    2    0    0 -0.16880153787E+03  0.26811803321E+03 -0.25601429911E+03  0.40733839916E+03  0.10566000000E+00 0. -1.
<mgrwt>
<rscale>  1 0.77156648E+03</rscale>
<asrwt>0</asrwt>
<pdfrwt beam="1">  1       21 0.75784584E-01 0.10380598E+04</pdfrwt>
<pdfrwt beam="2">  1        4 0.15043029E+00 0.10380598E+04</pdfrwt>
<totfact> 0.17480885E+01</totfact>
</mgrwt>
</event>
<event>
 6    1  0.1412458E-005  0.1024496E+04  0.7818608E-02  0.9630756E-01
          4   -1    0    0  502    0 -0.00000000000E+00  0.00000000000E+00  0.81613616718E+03  0.81613616718E+03  0.00000000000E+00 0.  1.
         21   -1    0    0  501  502  0.00000000000E+00 -0.00000000000E+00 -0.69850279646E+03  0.69850279646E+03  0.00000000000E+00 0.  1.
    9000010    2    1    2  501    0 -0.23354320974E+03 -0.18651657982E+03  0.40346617371E+03  0.11010796961E+04  0.97992891497E+03 0.  0.
        -13    1    3    3    0    0 -0.18187270002E+03  0.38230304771E+03  0.30429601680E+03  0.52137258876E+03  0.10566000000E+00 0.  1.
          4    1    3    3  501    0 -0.51670509717E+02 -0.56881962753E+03  0.99170156909E+02  0.57970710731E+03  0.00000000000E+00 0.  1.
         13    1    1    2    0    0  0.23354320974E+03  0.18651657982E+03 -0.28583280300E+03  0.41355926757E+03  0.10566000000E+00 0. -1.
<mgrwt>
<rscale>  1 0.75293567E+03</rscale>
<asrwt>0</asrwt>
<pdfrwt beam="2">  1       21 0.10746197E+00 0.10244958E+04</pdfrwt>
<pdfrwt beam="1">  1        4 0.12555941E+00 0.10244958E+04</pdfrwt>
<totfact> 0.12054711E+01</totfact>
</mgrwt>
</event>
<event>
 6    1  0.1412458E-005  0.1155120E+04  0.7818608E-02  0.9351202E-01
          4   -1    0    0  502    0 -0.00000000000E+00  0.00000000000E+00  0.77898776544E+03  0.77898776544E+03  0.00000000000E+00 0.  1.
         21   -1    0    0  501  502  0.00000000000E+00 -0.00000000000E+00 -0.95418366099E+03  0.95418366099E+03  0.00000000000E+00 0.  1.
    9000010    2    1    2  501    0  0.34382039121E+03  0.43661027956E+03 -0.21905963767E+03  0.11757083903E+04  0.10126510240E+04 0.  0.
        -13    1    3    3    0    0  0.72235197156E+02  0.59829659589E+03  0.21405495489E+03  0.63952816610E+03  0.10566000000E+00 0.  1.
          4    1    3    3  501    0  0.27158519406E+03 -0.16168631633E+03 -0.43311459256E+03  0.53618022418E+03  0.00000000000E+00 0.  1.
         13    1    1    2    0    0 -0.34382039121E+03 -0.43661027956E+03  0.43863742115E+02  0.55746303615E+03  0.10566000000E+00 0. -1.
<mgrwt>
<rscale>  1 0.96202710E+03</rscale>
<asrwt>0</asrwt>
<pdfrwt beam="2">  1       21 0.14679749E+00 0.11551204E+04</pdfrwt>
<pdfrwt beam="1">  1        4 0.11984427E+00 0.11551204E+04</pdfrwt>
<totfact> 0.58717426E+00</totfact>
</mgrwt>
</event>
<event>
 6    1  0.1412458E-005  0.1057215E+04  0.7818608E-02  0.9573545E-01
          4   -1    0    0  502    0 -0.00000000000E+00  0.00000000000E+00  0.10300407246E+04  0.10300407246E+04  0.00000000000E+00 0.  1.
         21   -1    0    0  501  502  0.00000000000E+00 -0.00000000000E+00 -0.59855500790E+03  0.59855500790E+03  0.00000000000E+00 0.  1.
    9000010    2    1    2  501    0 -0.31030190817E+03  0.11472126996E+03 -0.33717468351E+02  0.10577522701E+04  0.10041188940E+04 0.  0.
        -13    1    3    3    0    0  0.80018338277E+02  0.75368604936E+02 -0.46320333544E+03  0.47606795964E+03  0.10566000000E+00 0.  1.
          4    1    3    3  501    0 -0.39032024645E+03  0.39352665027E+02  0.42948586708E+03  0.58168431048E+03  0.00000000000E+00 0.  1.
         13    1    1    2    0    0  0.31030190817E+03 -0.11472126996E+03  0.46520318505E+03  0.57084346238E+03  0.10566000000E+00 0. -1.
<mgrwt>
<rscale>  1 0.79072143E+03</rscale>
<asrwt>0</asrwt>
<pdfrwt beam="2">  1       21 0.92085386E-01 0.10572147E+04</pdfrwt>
<pdfrwt beam="1">  1        4 0.15846780E+00 0.10572147E+04</pdfrwt>
<totfact> 0.95303430E+00</totfact>
</mgrwt>
</event>
<event>
 6    1  0.1412458E-005  0.1027055E+04  0.7818608E-02  0.9774330E-01
         21   -1    0    0  501  502  0.00000000000E+00  0.00000000000E+00  0.63245318912E+03  0.63245318912E+03  0.00000000000E+00 0.  1.
          4   -1    0    0  502    0 -0.00000000000E+00 -0.00000000000E+00 -0.64911408046E+03  0.64911408046E+03  0.00000000000E+00 0.  1.
    9000010    2    1    2  501    0 -0.15333215667E+03 -0.10050338595E+03  0.14487145531E+03  0.10372224496E+04  0.10105597412E+04 0.  0.
        -13    1    3    3    0    0  0.15586189757E+01  0.31877552038E+02 -0.42800336096E+03  0.42919167720E+03  0.10566000000E+00 0.  1.
          4    1    3    3  501    0 -0.15489077564E+03 -0.13238093799E+03  0.57287481627E+03  0.60803077244E+03  0.00000000000E+00 0.  1.
         13    1    1    2    0    0  0.15333215667E+03  0.10050338595E+03 -0.16153234665E+03  0.24434481994E+03  0.10566000000E+00 0. -1.
<mgrwt>
<rscale>  1 0.66758517E+03</rscale>
<asrwt>0</asrwt>
<pdfrwt beam="1">  1       21 0.97300490E-01 0.10270553E+04</pdfrwt>
<pdfrwt beam="2">  1        4 0.99863705E-01 0.10270553E+04</pdfrwt>
<totfact> 0.27227455E+01</totfact>
</mgrwt>
</event>
<event>
 6    1  0.1412458E-005  0.9971501E+03  0.7818608E-02  0.9793640E-01
          4   -1    0    0  502    0 -0.00000000000E+00  0.00000000000E+00  0.19207213737E+04  0.19207213737E+04  0.00000000000E+00 0.  1.
         21   -1    0    0  501  502  0.00000000000E+00 -0.00000000000E+00 -0.18903707176E+03  0.18903707176E+03  0.00000000000E+00 0.  1.
    9000010    2    1    2  501    0  0.18697575182E+03 -0.19402136360E+02  0.12957036650E+04  0.16349790213E+04  0.97927117690E+03 0.  0.
        -13    1    3    3    0    0  0.43990361500E+03  0.31349717769E+03  0.49972266045E+03  0.73587935114E+03  0.10566000000E+00 0.  1.
          4    1    3    3  501    0 -0.25292786317E+03 -0.33289931405E+03  0.79598100451E+03  0.89909967012E+03  0.00000000000E+00 0.  1.
         13    1    1    2    0    0 -0.18697575182E+03  0.19402136360E+02  0.43598063700E+03  0.47477942423E+03  0.10566000000E+00 0. -1.
<mgrwt>
<rscale>  1 0.65704964E+03</rscale>
<asrwt>0</asrwt>
<pdfrwt beam="2">  1       21 0.29082628E-01 0.99715015E+03</pdfrwt>
<pdfrwt beam="1">  1        4 0.29549558E+00 0.99715015E+03</pdfrwt>
<totfact> 0.15417851E+01</totfact>
</mgrwt>
</event>
<event>
 6    1  0.1412458E-005  0.1063251E+04  0.7818608E-02  0.9561926E-01
         21   -1    0    0  501  502  0.00000000000E+00  0.00000000000E+00  0.44076350246E+03  0.44076350246E+03  0.00000000000E+00 0.  1.
          4   -1    0    0  502    0 -0.00000000000E+00 -0.00000000000E+00 -0.11722219708E+04  0.11722219708E+04  0.00000000000E+00 0.  1.
    9000010    2    1    2  501    0  0.29425848766E+03 -0.16736312894E+03 -0.39098514814E+03  0.11328598986E+04  0.10079204777E+04 0.  0.
        -13    1    3    3    0    0  0.48160206160E+03  0.15258084794E+03  0.10262889265E+03  0.51551349319E+03  0.10566000000E+00 0.  1.
          4    1    3    3  501    0 -0.18734357394E+03 -0.31994397688E+03 -0.49361404079E+03  0.61734640543E+03  0.00000000000E+00 0.  1.
         13    1    1    2    0    0 -0.29425848766E+03  0.16736312894E+03 -0.34047332017E+03  0.48012557462E+03  0.10566000000E+00 0. -1.
<mgrwt>
<rscale>  1 0.79868244E+03</rscale>
<asrwt>0</asrwt>
<pdfrwt beam="1">  1       21 0.67809769E-01 0.10632508E+04</pdfrwt>
<pdfrwt beam="2">  1        4 0.18034184E+00 0.10632508E+04</pdfrwt>
<totfact> 0.13586146E+01</totfact>
</mgrwt>
</event>
<event>
 6    1  0.1412458E-005  0.9939755E+03  0.7818608E-02  0.1021297E+00
          4   -1    0    0  502    0 -0.00000000000E+00  0.00000000000E+00  0.38072126837E+03  0.38072126837E+03  0.00000000000E+00 0.  1.
         21   -1    0    0  501  502  0.00000000000E+00 -0.00000000000E+00 -0.16312710506E+04  0.16312710506E+04  0.00000000000E+00 0.  1.
    9000010    2    1    2  501    0  0.40198511629E+02 -0.30784869193E+02 -0.14767989905E+04  0.17801468016E+04  0.99268512056E+03 0.  0.
        -13    1    3    3    0    0 -0.74490820470E+02 -0.50241972091E+03 -0.78814161361E+03  0.93762555029E+03  0.10566000000E+00 0.  1.
          4    1    3    3  501    0  0.11468933210E+03  0.47163485172E+03 -0.68865737689E+03  0.84252125136E+03  0.00000000000E+00 0.  1.
         13    1    1    2    0    0 -0.40198511629E+02  0.30784869193E+02  0.22624920825E+03  0.23184551733E+03  0.10566000000E+00 0. -1.
<mgrwt>
<rscale>  1 0.47221404E+03</rscale>
<asrwt>0</asrwt>
<pdfrwt beam="2">  1       21 0.25096477E+00 0.99397554E+03</pdfrwt>
<pdfrwt beam="1">  1        4 0.58572503E-01 0.99397554E+03</pdfrwt>
<totfact> 0.58842560E+00</totfact>
</mgrwt>
</event>
<event>
 6    1  0.1412458E-005  0.1014829E+04  0.7818608E-02  0.9825374E-01
          4   -1    0    0  502    0 -0.00000000000E+00  0.00000000000E+00  0.34788164141E+03  0.34788164141E+03  0.00000000000E+00 0.  1.
         21   -1    0    0  501  502  0.00000000000E+00 -0.00000000000E+00 -0.12200908215E+04  0.12200908215E+04  0.00000000000E+00 0.  1.
    9000010    2    1    2  501    0 -0.56406529042E+02  0.15048529386E+03 -0.94939641019E+03  0.13896878594E+04  0.10020235939E+04 0.  0.
        -13    1    3    3    0    0  0.23158130051E+03 -0.72903621706E+02 -0.99333722652E+03  0.10225769866E+04  0.10566000000E+00 0.  1.
          4    1    3    3  501    0 -0.28798782955E+03  0.22338891557E+03  0.43940816325E+02  0.36711087277E+03  0.00000000000E+00 0.  1.
         13    1    1    2    0    0  0.56406529042E+02 -0.15048529386E+03  0.77187230126E+02  0.17828460350E+03  0.10566000000E+00 0. -1.
<mgrwt>
<rscale>  1 0.64018450E+03</rscale>
<asrwt>0</asrwt>
<pdfrwt beam="2">  1       21 0.18770628E+00 0.10148294E+04</pdfrwt>
<pdfrwt beam="1">  1        4 0.53520254E-01 0.10148294E+04</pdfrwt>
<totfact> 0.18769531E+01</totfact>
</mgrwt>
</event>
<event>
 6    1  0.1412458E-005  0.1048828E+04  0.7818608E-02  0.9582460E-01
          4   -1    0    0  502    0 -0.00000000000E+00  0.00000000000E+00  0.34554351726E+03  0.34554351726E+03  0.00000000000E+00 0.  1.
         21   -1    0    0  501  502  0.00000000000E+00 -0.00000000000E+00 -0.18873993873E+04  0.18873993873E+04  0.00000000000E+00 0.  1.
    9000010    2    1    2  501    0  0.19224766608E+03  0.26648562505E+03 -0.15859664330E+04  0.19014017963E+04  0.99602485466E+03 0.  0.
        -13    1    3    3    0    0  0.29263732892E+03  0.38376036604E+03 -0.16610484377E+04  0.17297371328E+04  0.10566000000E+00 0.  1.
          4    1    3    3  501    0 -0.10038966284E+03 -0.11727474100E+03  0.75082004749E+02  0.17166466357E+03  0.00000000000E+00 0.  1.
         13    1    1    2    0    0 -0.19224766608E+03 -0.26648562505E+03  0.44110562995E+02  0.33154110816E+03  0.10566000000E+00 0. -1.
<mgrwt>
<rscale>  1 0.78468048E+03</rscale>
<asrwt>0</asrwt>
<pdfrwt beam="2">  1       21 0.29036914E+00 0.10488276E+04</pdfrwt>
<pdfrwt beam="1">  1        4 0.53160541E-01 0.10488276E+04</pdfrwt>
<totfact> 0.40645791E+00</totfact>
</mgrwt>
</event>
<event>
 6    1  0.1412458E-005  0.1014350E+04  0.7818608E-02  0.9616103E-01
          4   -1    0    0  502    0 -0.00000000000E+00  0.00000000000E+00  0.41091089895E+03  0.41091089895E+03  0.00000000000E+00 0.  1.
         21   -1    0    0  501  502  0.00000000000E+00 -0.00000000000E+00 -0.22053255794E+04  0.22053255794E+04  0.00000000000E+00 0.  1.
    9000010    2    1    2  501    0  0.15519222495E+03 -0.28408376689E+03 -0.19931317560E+04  0.22363987490E+04  0.96131002004E+03 0.  0.
        -13    1    3    3    0    0  0.23151459699E+03  0.26743471720E+03 -0.33460070876E+03  0.48690654344E+03  0.10566000000E+00 0.  1.
          4    1    3    3  501    0 -0.76322372037E+02 -0.55151848410E+03 -0.16585310472E+04  0.17494922056E+04  0.00000000000E+00 0.  1.
         13    1    1    2    0    0 -0.15519222495E+03  0.28408376689E+03  0.19871707557E+03  0.37983772928E+03  0.10566000000E+00 0. -1.
<mgrwt>
<rscale>  1 0.76239461E+03</rscale>
<asrwt>0</asrwt>
<pdfrwt beam="2">  1       21 0.33928086E+00 0.10143496E+04</pdfrwt>
<pdfrwt beam="1">  1        4 0.63217061E-01 0.10143496E+04</pdfrwt>
<totfact> 0.13922007E+00</totfact>
</mgrwt>
</event>
<event>
 6    1  0.1412458E-005  0.1125674E+04  0.7818608E-02  0.9381667E-01
         21   -1    0    0  501  502  0.00000000000E+00  0.00000000000E+00  0.59413033384E+03  0.59413033384E+03  0.00000000000E+00 0.  1.
          4   -1    0    0  502    0 -0.00000000000E+00 -0.00000000000E+00 -0.11731293566E+04  0.11731293566E+04  0.00000000000E+00 0.  1.
    9000010    2    1    2  501    0 -0.53448059940E+03  0.62313988470E+02 -0.46074798166E+03  0.12163188005E+04  0.98873160039E+03 0.  0.
        -13    1    3    3    0    0 -0.31766076660E+03  0.21026550862E+03  0.25201278405E+03  0.45676077025E+03  0.10566000000E+00 0.  1.
          4    1    3    3  501    0 -0.21681983280E+03 -0.14795152015E+03 -0.71276076571E+03  0.75955803027E+03  0.00000000000E+00 0.  1.
         13    1    1    2    0    0  0.53448059940E+03 -0.62313988470E+02 -0.11825104110E+03  0.55094088992E+03  0.10566000000E+00 0. -1.
<mgrwt>
<rscale>  1 0.93599937E+03</rscale>
<asrwt>0</asrwt>
<pdfrwt beam="1">  1       21 0.91404667E-01 0.11256743E+04</pdfrwt>
<pdfrwt beam="2">  1        4 0.18048144E+00 0.11256743E+04</pdfrwt>
<totfact> 0.66736373E+00</totfact>
</mgrwt>
</event>
<event>
 6    1  0.1412458E-005  0.1091661E+04  0.7818608E-02  0.9516364E-01
         21   -1    0    0  501  502  0.00000000000E+00  0.00000000000E+00  0.24719236632E+04  0.24719236632E+04  0.00000000000E+00 0.  1.
          4   -1    0    0  502    0 -0.00000000000E+00 -0.00000000000E+00 -0.21500299362E+03  0.21500299362E+03  0.00000000000E+00 0.  1.
    9000010    2    1    2  501    0  0.17515950808E+03  0.32175844592E+03  0.16978189465E+04  0.20184925922E+04  0.10283549091E+04 0.  0.
        -13    1    3    3    0    0  0.46968313735E+03  0.16044685463E+03  0.15902087618E+04  0.16658659490E+04  0.10566000000E+00 0.  1.
          4    1    3    3  501    0 -0.29452362927E+03  0.16131159129E+03  0.10761018470E+03  0.35262664326E+03  0.00000000000E+00 0.  1.
         13    1    1    2    0    0 -0.17515950808E+03 -0.32175844592E+03  0.55910172304E+03  0.66843406455E+03  0.10566000000E+00 0. -1.
<mgrwt>
<rscale>  1 0.83088060E+03</rscale>
<asrwt>0</asrwt>
<pdfrwt beam="1">  1       21 0.38029593E+00 0.10916607E+04</pdfrwt>
<pdfrwt beam="2">  1        4 0.33077385E-01 0.10916607E+04</pdfrwt>
<totfact> 0.29010685E+00</totfact>
</mgrwt>
</event>
<event>
 6    1  0.1412458E-005  0.9943519E+03  0.7818608E-02  0.1041216E+00
         21   -1    0    0  501  502  0.00000000000E+00  0.00000000000E+00  0.13267041374E+04  0.13267041374E+04  0.00000000000E+00 0.  1.
          4   -1    0    0  502    0 -0.00000000000E+00 -0.00000000000E+00 -0.24115300198E+03  0.24115300198E+03  0.00000000000E+00 0.  1.
    9000010    2    1    2  501    0 -0.24193845080E+02  0.14182908316E+02  0.11362610294E+04  0.15099088734E+04  0.99395632796E+03 0.  0.
        -13    1    3    3    0    0 -0.80065113831E+02  0.95235111994E+02 -0.16404007034E+03  0.20588663107E+03  0.10566000000E+00 0.  1.
          4    1    3    3  501    0  0.55871268751E+02 -0.81052203678E+02  0.13003010998E+04  0.13040222423E+04  0.00000000000E+00 0.  1.
         13    1    1    2    0    0  0.24193845080E+02 -0.14182908316E+02 -0.50709893960E+02  0.57948266044E+02  0.10566000000E+00 0. -1.
<mgrwt>
<rscale>  1 0.40749096E+03</rscale>
<asrwt>0</asrwt>
<pdfrwt beam="1">  1       21 0.20410833E+00 0.99435189E+03</pdfrwt>
<pdfrwt beam="2">  1        4 0.37100462E-01 0.99435189E+03</pdfrwt>
<totfact> 0.30941573E+01</totfact>
</mgrwt>
</event>
<event>
 6    1  0.1412458E-005  0.1034878E+04  0.7818608E-02  0.9699189E-01
         21   -1    0    0  501  502  0.00000000000E+00  0.00000000000E+00  0.15484242943E+04  0.15484242943E+04  0.00000000000E+00 0.  1.
          4   -1    0    0  502    0 -0.00000000000E+00 -0.00000000000E+00 -0.37644970451E+03  0.37644970451E+03  0.00000000000E+00 0.  1.
    9000010    2    1    2  501    0  0.22176957346E+03  0.61434664442E+02  0.12999363047E+04  0.16615677638E+04  0.10089683225E+04 0.  0.
        -13    1    3    3    0    0  0.43923483611E+03  0.24325442735E+03  0.12828329775E+04  0.13775922535E+04  0.10566000000E+00 0.  1.
          4    1    3    3  501    0 -0.21746526265E+03 -0.18181976291E+03  0.17103327206E+02  0.28397551029E+03  0.00000000000E+00 0.  1.
         13    1    1    2    0    0 -0.22176957346E+03 -0.61434664442E+02 -0.12796171495E+03  0.26330623495E+03  0.10566000000E+00 0. -1.
<mgrwt>
<rscale>  1 0.71065092E+03</rscale>
<asrwt>0</asrwt>
<pdfrwt beam="1">  1       21 0.23821912E+00 0.10348783E+04</pdfrwt>
<pdfrwt beam="2">  1        4 0.57915340E-01 0.10348783E+04</pdfrwt>
<totfact> 0.72278589E+00</totfact>
</mgrwt>
</event>
<event>
 6    1  0.1412458E-005  0.9967039E+03  0.7818608E-02  0.9832520E-01
          4   -1    0    0  502    0 -0.00000000000E+00  0.00000000000E+00  0.37008298232E+03  0.37008298232E+03  0.00000000000E+00 0.  1.
         21   -1    0    0  501  502  0.00000000000E+00 -0.00000000000E+00 -0.94267774781E+03  0.94267774781E+03  0.00000000000E+00 0.  1.
    9000010    2    1    2  501    0  0.91028125831E+02 -0.13848774176E+03 -0.40141421479E+03  0.10745008585E+04  0.98282946072E+03 0.  0.
        -13    1    3    3    0    0  0.16660756814E+03  0.29131038312E+03  0.15310058584E+03  0.36886260535E+03  0.10566000000E+00 0.  1.
          4    1    3    3  501    0 -0.75579442310E+02 -0.42979812488E+03 -0.55451480063E+03  0.70563825319E+03  0.00000000000E+00 0.  1.
         13    1    1    2    0    0 -0.91028125831E+02  0.13848774176E+03 -0.17118055070E+03  0.23825987159E+03  0.10566000000E+00 0. -1.
<mgrwt>
<rscale>  1 0.63646145E+03</rscale>
<asrwt>0</asrwt>
<pdfrwt beam="2">  1       21 0.14502734E+00 0.99670393E+03</pdfrwt>
<pdfrwt beam="1">  1        4 0.56935844E-01 0.99670393E+03</pdfrwt>
<totfact> 0.34793219E+01</totfact>
</mgrwt>
</event>
<event>
 6    1  0.1412458E-005  0.1129749E+04  0.7818608E-02  0.9390461E-01
         21   -1    0    0  501  502  0.00000000000E+00  0.00000000000E+00  0.26809898248E+03  0.26809898248E+03  0.00000000000E+00 0.  1.
          4   -1    0    0  502    0 -0.00000000000E+00 -0.00000000000E+00 -0.27770963780E+04  0.27770963780E+04  0.00000000000E+00 0.  1.
    9000010    2    1    2  501    0 -0.30844410569E+03  0.41338471598E+03 -0.12513051538E+04  0.16858519617E+04  0.10051405668E+04 0.  0.
        -13    1    3    3    0    0  0.85672295318E+02  0.30096313075E+03 -0.12367859992E+04  0.12757578795E+04  0.10566000000E+00 0.  1.
          4    1    3    3  501    0 -0.39411640101E+03  0.11242158523E+03 -0.14519154599E+02  0.41009408216E+03  0.00000000000E+00 0.  1.
         13    1    1    2    0    0  0.30844410569E+03 -0.41338471598E+03 -0.12576922417E+04  0.13593433988E+04  0.10566000000E+00 0. -1.
<mgrwt>
<rscale>  1 0.92864911E+03</rscale>
<asrwt>0</asrwt>
<pdfrwt beam="1">  1       21 0.41246000E-01 0.11297488E+04</pdfrwt>
<pdfrwt beam="2">  1        4 0.42724557E+00 0.11297488E+04</pdfrwt>
<totfact> 0.99163197E-01</totfact>
</mgrwt>
</event>
<event>
 6    1  0.1412458E-005  0.1003194E+04  0.7818608E-02  0.1003186E+00
         21   -1    0    0  501  502  0.00000000000E+00  0.00000000000E+00  0.13835851941E+04  0.13835851941E+04  0.00000000000E+00 0.  1.
          4   -1    0    0  502    0 -0.00000000000E+00 -0.00000000000E+00 -0.27512829031E+03  0.27512829031E+03  0.00000000000E+00 0.  1.
    9000010    2    1    2  501    0  0.69811578815E+02 -0.50138087658E+02  0.11786252903E+04  0.15477580970E+04  0.99950491132E+03 0.  0.
        -13    1    3    3    0    0 -0.39933451052E+03 -0.23677232807E+02  0.16924635731E+03  0.43436505761E+03  0.10566000000E+00 0.  1.
          4    1    3    3  501    0  0.46914608933E+03 -0.26460854851E+02  0.10093789329E+04  0.11133930394E+04  0.00000000000E+00 0.  1.
         13    1    1    2    0    0 -0.69811578815E+02  0.50138087658E+02 -0.70168386452E+02  0.11095538740E+03  0.10566000000E+00 0. -1.
<mgrwt>
<rscale>  1 0.54275114E+03</rscale>
<asrwt>0</asrwt>
<pdfrwt beam="1">  1       21 0.21285926E+00 0.10031937E+04</pdfrwt>
<pdfrwt beam="2">  1        4 0.42327430E-01 0.10031937E+04</pdfrwt>
<totfact> 0.20628462E+01</totfact>
</mgrwt>
</event>
<event>
 6    1  0.1412458E-005  0.1009088E+04  0.7818608E-02  0.9808442E-01
         21   -1    0    0  501  502  0.00000000000E+00  0.00000000000E+00  0.15337650267E+03  0.15337650267E+03  0.00000000000E+00 0.  1.
          4   -1    0    0  502    0 -0.00000000000E+00 -0.00000000000E+00 -0.22807691487E+04  0.22807691487E+04  0.00000000000E+00 0.  1.
    9000010    2    1    2  501    0  0.10863153836E+03  0.13436025019E+03 -0.18510724056E+04  0.21082524566E+04  0.99418603996E+03 0.  0.
        -13    1    3    3    0    0  0.33114770361E+03 -0.11970652466E+02 -0.11331088398E+03  0.35020203558E+03  0.10566000000E+00 0.  1.
          4    1    3    3  501    0 -0.22251616525E+03  0.14633090265E+03 -0.17377615216E+04  0.17580504210E+04  0.00000000000E+00 0.  1.
         13    1    1    2    0    0 -0.10863153836E+03 -0.13436025019E+03 -0.27632024039E+03  0.32589319473E+03  0.10566000000E+00 0. -1.
<mgrwt>
<rscale>  1 0.64911458E+03</rscale>
<asrwt>0</asrwt>
<pdfrwt beam="1">  1       21 0.23596385E-01 0.10090884E+04</pdfrwt>
<pdfrwt beam="2">  1        4 0.35088756E+00 0.10090884E+04</pdfrwt>
<totfact> 0.10433869E+01</totfact>
</mgrwt>
</event>
<event>
 6    1  0.1412458E-005  0.1009643E+04  0.7818608E-02  0.9955710E-01
         21   -1    0    0  501  502  0.00000000000E+00  0.00000000000E+00  0.23015339296E+04  0.23015339296E+04  0.00000000000E+00 0.  1.
          4   -1    0    0  502    0 -0.00000000000E+00 -0.00000000000E+00 -0.18966058008E+03  0.18966058008E+03  0.00000000000E+00 0.  1.
    9000010    2    1    2  501    0  0.10158679946E+03  0.34285916077E+02  0.21517134970E+04  0.23768150955E+04  0.10039340730E+04 0.  0.
        -13    1    3    3    0    0  0.33045534622E+03 -0.33390053262E+03  0.16409658137E+04  0.17068857942E+04  0.10566000000E+00 0.  1.
          4    1    3    3  501    0 -0.22886854675E+03  0.36818644870E+03  0.51074768330E+03  0.66992930127E+03  0.00000000000E+00 0.  1.
         13    1    1    2    0    0 -0.10158679946E+03 -0.34285916077E+02 -0.39840147536E+02  0.11437941417E+03  0.10566000000E+00 0. -1.
<mgrwt>
<rscale>  1 0.57635685E+03</rscale>
<asrwt>0</asrwt>
<pdfrwt beam="1">  1       21 0.35408212E+00 0.10096430E+04</pdfrwt>
<pdfrwt beam="2">  1        4 0.29178552E-01 0.10096430E+04</pdfrwt>
<totfact> 0.55500345E+00</totfact>
</mgrwt>
</event>
<event>
 6    1  0.1412458E-005  0.1116437E+04  0.7818608E-02  0.9425368E-01
          4   -1    0    0  502    0 -0.00000000000E+00  0.00000000000E+00  0.57290536060E+03  0.57290536060E+03  0.00000000000E+00 0.  1.
         21   -1    0    0  501  502  0.00000000000E+00 -0.00000000000E+00 -0.11575743601E+04  0.11575743601E+04  0.00000000000E+00 0.  1.
    9000010    2    1    2  501    0  0.19083799737E+03  0.43152841620E+03 -0.58112080036E+03  0.12586232636E+04  0.10118276630E+04 0.  0.
        -13    1    3    3    0    0 -0.13326297231E+03 -0.29321063298E+03 -0.18411531049E+03  0.37098511264E+03  0.10566000000E+00 0.  1.
          4    1    3    3  501    0  0.32410096969E+03  0.72473904918E+03 -0.39700548988E+03  0.88763815091E+03  0.00000000000E+00 0.  1.
         13    1    1    2    0    0 -0.19083799737E+03 -0.43152841620E+03 -0.35481991006E+01  0.47185645711E+03  0.10566000000E+00 0. -1.
<mgrwt>
<rscale>  1 0.90017099E+03</rscale>
<asrwt>0</asrwt>
<pdfrwt beam="2">  1       21 0.17808836E+00 0.11164368E+04</pdfrwt>
<pdfrwt beam="1">  1        4 0.88139288E-01 0.11164368E+04</pdfrwt>
<totfact> 0.71294888E+00</totfact>
</mgrwt>
</event>
<event>
 6    1  0.1412458E-005  0.1032283E+04  0.7818608E-02  0.9634866E-01
          4   -1    0    0  502    0 -0.00000000000E+00  0.00000000000E+00  0.17545086050E+04  0.17545086050E+04  0.00000000000E+00 0.  1.
         21   -1    0    0  501  502  0.00000000000E+00 -0.00000000000E+00 -0.48134998111E+03  0.48134998111E+03  0.00000000000E+00 0.  1.
    9000010    2    1    2  501    0 -0.12881442564E+03  0.25771388668E+03  0.11066932467E+03  0.10381979557E+04  0.99126065805E+03 0.  0.
        -13    1    3    3    0    0 -0.45734770193E+03  0.43737027280E+03  0.17882179284E+03  0.65759936189E+03  0.10566000000E+00 0.  1.
          4    1    3    3  501    0  0.32853327630E+03 -0.17965638612E+03 -0.68152468168E+02  0.38059859383E+03  0.00000000000E+00 0.  1.
         13    1    1    2    0    0  0.12881442564E+03 -0.25771388668E+03  0.11624892993E+04  0.11976606304E+04  0.10566000000E+00 0. -1.
<mgrwt>
<rscale>  1 0.75030872E+03</rscale>
<asrwt>0</asrwt>
<pdfrwt beam="2">  1       21 0.74053844E-01 0.10322826E+04</pdfrwt>
<pdfrwt beam="1">  1        4 0.26992440E+00 0.10322826E+04</pdfrwt>
<totfact> 0.29645536E+00</totfact>
</mgrwt>
</event>
<event>
 6    1  0.1412458E-005  0.1011273E+04  0.7818608E-02  0.1008957E+00
         21   -1    0    0  501  502  0.00000000000E+00  0.00000000000E+00  0.47115224668E+03  0.47115224668E+03  0.00000000000E+00 0.  1.
          4   -1    0    0  502    0 -0.00000000000E+00 -0.00000000000E+00 -0.62804085896E+03  0.62804085896E+03  0.00000000000E+00 0.  1.
    9000010    2    1    2  501    0  0.61869590684E+02  0.32974630801E+02 -0.17612074621E+03  0.10264946967E+04  0.10088397655E+04 0.  0.
        -13    1    3    3    0    0  0.22774401518E+03  0.13804982967E+03 -0.54613477495E+03  0.60760866970E+03  0.10566000000E+00 0.  1.
          4    1    3    3  501    0 -0.16587442449E+03 -0.10507519887E+03  0.37001402874E+03  0.41888602696E+03  0.00000000000E+00 0.  1.
         13    1    1    2    0    0 -0.61869590684E+02 -0.32974630801E+02  0.19232133939E+02  0.72698408976E+02  0.10566000000E+00 0. -1.
<mgrwt>
<rscale>  1 0.51891210E+03</rscale>
<asrwt>0</asrwt>
<pdfrwt beam="1">  1       21 0.72484961E-01 0.10112729E+04</pdfrwt>
<pdfrwt beam="2">  1        4 0.96621671E-01 0.10112729E+04</pdfrwt>
<totfact> 0.59467657E+01</totfact>
</mgrwt>
</event>
<event>
 6    1  0.1412458E-005  0.9830287E+03  0.7818608E-02  0.1044049E+00
          4   -1    0    0  502    0 -0.00000000000E+00  0.00000000000E+00  0.51079329500E+03  0.51079329500E+03  0.00000000000E+00 0.  1.
         21   -1    0    0  501  502  0.00000000000E+00 -0.00000000000E+00 -0.51362686701E+03  0.51362686701E+03  0.00000000000E+00 0.  1.
    9000010    2    1    2  501    0  0.26073984513E+02 -0.59309527394E+01 -0.33669125487E+02  0.98360507422E+03  0.98266489870E+03 0.  0.
        -13    1    3    3    0    0  0.73402109185E+02 -0.36693738186E+03 -0.34165835117E+03  0.50671624399E+03  0.10566000000E+00 0.  1.
          4    1    3    3  501    0 -0.47328124672E+02  0.36100642912E+03  0.30798922568E+03  0.47688883022E+03  0.00000000000E+00 0.  1.
         13    1    1    2    0    0 -0.26073984513E+02  0.59309527394E+01  0.30835553479E+02  0.40815087788E+02  0.10566000000E+00 0. -1.
<mgrwt>
<rscale>  1 0.39922334E+03</rscale>
<asrwt>0</asrwt>
<pdfrwt beam="2">  1       21 0.79019518E-01 0.98302865E+03</pdfrwt>
<pdfrwt beam="1">  1        4 0.78583584E-01 0.98302865E+03</pdfrwt>
<totfact> 0.79027269E+01</totfact>
</mgrwt>
</event>
<event>
 6    1  0.1412458E-005  0.1007928E+04  0.7818608E-02  0.9963858E-01
          4   -1    0    0  502    0 -0.00000000000E+00  0.00000000000E+00  0.93754188456E+03  0.93754188456E+03  0.00000000000E+00 0.  1.
         21   -1    0    0  501  502  0.00000000000E+00 -0.00000000000E+00 -0.35408064612E+03  0.35408064612E+03  0.00000000000E+00 0.  1.
    9000010    2    1    2  501    0  0.79683809523E+02  0.68393240503E+02  0.61652000268E+03  0.11815314870E+04  0.10024433132E+04 0.  0.
        -13    1    3    3    0    0  0.27202630751E+03 -0.30621483192E+03 -0.29203668525E+02  0.41063207459E+03  0.10566000000E+00 0.  1.
          4    1    3    3  501    0 -0.19234249798E+03  0.37460807243E+03  0.64572367121E+03  0.77089941239E+03  0.00000000000E+00 0.  1.
         13    1    1    2    0    0 -0.79683809523E+02 -0.68393240503E+02 -0.33058764234E+02  0.11009104370E+03  0.10566000000E+00 0. -1.
<mgrwt>
<rscale>  1 0.57263814E+03</rscale>
<asrwt>0</asrwt>
<pdfrwt beam="2">  1       21 0.54473946E-01 0.10079284E+04</pdfrwt>
<pdfrwt beam="1">  1        4 0.14423721E+00 0.10079284E+04</pdfrwt>
<totfact> 0.41334401E+01</totfact>
</mgrwt>
</event>
<event>
 6    1  0.1412458E-005  0.1022654E+04  0.7818608E-02  0.9993324E-01
          4   -1    0    0  502    0 -0.00000000000E+00  0.00000000000E+00  0.78273686560E+03  0.78273686560E+03  0.00000000000E+00 0.  1.
         21   -1    0    0  501  502  0.00000000000E+00 -0.00000000000E+00 -0.73949529049E+03  0.73949529049E+03  0.00000000000E+00 0.  1.
    9000010    2    1    2  501    0 -0.71368755130E+02 -0.57396606574E+02 -0.37865868374E+03  0.10905057274E+04  0.10185442912E+04 0.  0.
        -13    1    3    3    0    0  0.42269957897E+03  0.12041688969E+03 -0.35483434978E+03  0.56487395791E+03  0.10566000000E+00 0.  1.
          4    1    3    3  501    0 -0.49406833410E+03 -0.17781349626E+03 -0.23824333959E+02  0.52563176949E+03  0.00000000000E+00 0.  1.
         13    1    1    2    0    0  0.71368755130E+02  0.57396606574E+02  0.42190025884E+03  0.43172642869E+03  0.10566000000E+00 0. -1.
<mgrwt>
<rscale>  1 0.55943926E+03</rscale>
<asrwt>0</asrwt>
<pdfrwt beam="2">  1       21 0.11376851E+00 0.10226536E+04</pdfrwt>
<pdfrwt beam="1">  1        4 0.12042106E+00 0.10226536E+04</pdfrwt>
<totfact> 0.11600147E+01</totfact>
</mgrwt>
</event>
<event>
 6    1  0.1412458E-005  0.1029503E+04  0.7818608E-02  0.9733379E-01
         21   -1    0    0  501  502  0.00000000000E+00  0.00000000000E+00  0.42975520635E+03  0.42975520635E+03  0.00000000000E+00 0.  1.
          4   -1    0    0  502    0 -0.00000000000E+00 -0.00000000000E+00 -0.11294306167E+04  0.11294306167E+04  0.00000000000E+00 0.  1.
    9000010    2    1    2  501    0  0.13212626601E+03 -0.16129856382E+03 -0.24392637001E+03  0.10580054406E+04  0.10081670801E+04 0.  0.
        -13    1    3    3    0    0  0.58016242931E+02 -0.54559026553E+03  0.74182796170E+02  0.55365848743E+03  0.10566000000E+00 0.  1.
          4    1    3    3  501    0  0.74110023083E+02  0.38429170172E+03 -0.31810916618E+03  0.50434695314E+03  0.00000000000E+00 0.  1.
         13    1    1    2    0    0 -0.13212626601E+03  0.16129856382E+03 -0.45574904037E+03  0.50118038252E+03  0.10566000000E+00 0. -1.
<mgrwt>
<rscale>  1 0.69063724E+03</rscale>
<asrwt>0</asrwt>
<pdfrwt beam="1">  1       21 0.66116187E-01 0.10295025E+04</pdfrwt>
<pdfrwt beam="2">  1        4 0.17375855E+00 0.10295025E+04</pdfrwt>
<totfact> 0.16069743E+01</totfact>
</mgrwt>
</event>
<event>
 6    1  0.1412458E-005  0.1017033E+04  0.7818608E-02  0.9861233E-01
         21   -1    0    0  501  502  0.00000000000E+00  0.00000000000E+00  0.10258893048E+04  0.10258893048E+04  0.00000000000E+00 0.  1.
          4   -1    0    0  502    0 -0.00000000000E+00 -0.00000000000E+00 -0.43795695405E+03  0.43795695405E+03  0.00000000000E+00 0.  1.
    9000010    2    1    2  501    0  0.30678514282E+00 -0.14207764562E+03  0.73846271019E+03  0.12568545881E+04  0.10070601421E+04 0.  0.
        -13    1    3    3    0    0 -0.37041491618E+03  0.24451781010E+03  0.16860600518E+03  0.47478854844E+03  0.10566000000E+00 0.  1.
          4    1    3    3  501    0  0.37072170132E+03 -0.38659545571E+03  0.56985670501E+03  0.78206603970E+03  0.00000000000E+00 0.  1.
         13    1    1    2    0    0 -0.30678514282E+00  0.14207764562E+03 -0.15053035939E+03  0.20699167076E+03  0.10566000000E+00 0. -1.
<mgrwt>
<rscale>  1 0.62177468E+03</rscale>
<asrwt>0</asrwt>
<pdfrwt beam="1">  1       21 0.15782912E+00 0.10170331E+04</pdfrwt>
<pdfrwt beam="2">  1        4 0.67377993E-01 0.10170331E+04</pdfrwt>
<totfact> 0.18950397E+01</totfact>
</mgrwt>
</event>
<event>
 6    1  0.1412458E-005  0.1003071E+04  0.7818608E-02  0.1015901E+00
          4   -1    0    0  502    0 -0.00000000000E+00  0.00000000000E+00  0.10893587449E+04  0.10893587449E+04  0.00000000000E+00 0.  1.
         21   -1    0    0  501  502  0.00000000000E+00 -0.00000000000E+00 -0.30010615991E+03  0.30010615991E+03  0.00000000000E+00 0.  1.
    9000010    2    1    2  501    0  0.25262139676E+02 -0.52249809086E+02  0.55140476085E+03  0.11446388097E+04  0.10013903215E+04 0.  0.
        -13    1    3    3    0    0  0.14454502135E+03 -0.19865733110E+03 -0.23253355828E+03  0.33827483691E+03  0.10566000000E+00 0.  1.
          4    1    3    3  501    0 -0.11928288167E+03  0.14640752201E+03  0.78393831913E+03  0.80636397276E+03  0.00000000000E+00 0.  1.
         13    1    1    2    0    0 -0.25262139676E+02  0.52249809086E+02  0.23784782416E+03  0.24482609516E+03  0.10566000000E+00 0. -1.
<mgrwt>
<rscale>  1 0.49195328E+03</rscale>
<asrwt>0</asrwt>
<pdfrwt beam="2">  1       21 0.46170179E-01 0.10030707E+04</pdfrwt>
<pdfrwt beam="1">  1        4 0.16759365E+00 0.10030707E+04</pdfrwt>
<totfact> 0.39297897E+01</totfact>
</mgrwt>
</event>
<event>
 6    1  0.1412458E-005  0.1016535E+04  0.7818608E-02  0.9786104E-01
         21   -1    0    0  501  502  0.00000000000E+00  0.00000000000E+00  0.28031273690E+03  0.28031273690E+03  0.00000000000E+00 0.  1.
          4   -1    0    0  502    0 -0.00000000000E+00 -0.00000000000E+00 -0.13765101378E+04  0.13765101378E+04  0.00000000000E+00 0.  1.
    9000010    2    1    2  501    0 -0.23122668076E+02  0.18040955798E+03 -0.74159879728E+03  0.12582975339E+04  0.10001308121E+04 0.  0.
        -13    1    3    3    0    0 -0.16174705293E+03 -0.31627422683E+03 -0.64108504600E+03  0.73292669692E+03  0.10566000000E+00 0.  1.
          4    1    3    3  501    0  0.13862438485E+03  0.49668378481E+03 -0.10051375127E+03  0.52537083699E+03  0.00000000000E+00 0.  1.
         13    1    1    2    0    0  0.23122668076E+02 -0.18040955798E+03 -0.35459860364E+03  0.39852534079E+03  0.10566000000E+00 0. -1.
<mgrwt>
<rscale>  1 0.66113669E+03</rscale>
<asrwt>0</asrwt>
<pdfrwt beam="1">  1       21 0.43125037E-01 0.10165352E+04</pdfrwt>
<pdfrwt beam="2">  1        4 0.21177079E+00 0.10165352E+04</pdfrwt>
<totfact> 0.22691382E+01</totfact>
</mgrwt>
</event>
<event>
 6    1  0.1412458E-005  0.9771355E+03  0.7818608E-02  0.9879562E-01
          4   -1    0    0  502    0 -0.00000000000E+00  0.00000000000E+00  0.11682021503E+04  0.11682021503E+04  0.00000000000E+00 0.  1.
         21   -1    0    0  501  502  0.00000000000E+00 -0.00000000000E+00 -0.31675451174E+03  0.31675451174E+03  0.00000000000E+00 0.  1.
    9000010    2    1    2  501    0 -0.68665501197E+01 -0.15081796242E+03  0.48971867809E+03  0.10929859242E+04  0.96540180214E+03 0.  0.
        -13    1    3    3    0    0 -0.21194236998E+03 -0.85664564965E+02  0.73322236570E+03  0.76803192291E+03  0.10566000000E+00 0.  1.
          4    1    3    3  501    0  0.20507581986E+03 -0.65153397450E+02 -0.24350368761E+03  0.32495400131E+03  0.00000000000E+00 0.  1.
         13    1    1    2    0    0  0.68665501197E+01  0.15081796242E+03  0.36172896045E+03  0.39197073779E+03  0.10566000000E+00 0. -1.
<mgrwt>
<rscale>  1 0.61262090E+03</rscale>
<asrwt>0</asrwt>
<pdfrwt beam="2">  1       21 0.48731464E-01 0.97713553E+03</pdfrwt>
<pdfrwt beam="1">  1        4 0.17972341E+00 0.97713553E+03</pdfrwt>
<totfact> 0.28761146E+01</totfact>
</mgrwt>
</event>
<event>
 6    1  0.1412458E-005  0.1172213E+04  0.7818608E-02  0.9326683E-01
          4   -1    0    0  502    0 -0.00000000000E+00  0.00000000000E+00  0.19910918282E+04  0.19910918282E+04  0.00000000000E+00 0.  1.
         21   -1    0    0  501  502  0.00000000000E+00 -0.00000000000E+00 -0.96722129876E+03  0.96722129876E+03  0.00000000000E+00 0. -1.
    9000010    2    1    2  501    0  0.17744576601E+03  0.55342370064E+03  0.17011167947E+04  0.20658853667E+04  0.10179976458E+04 0.  0.
        -13    1    3    3    0    0  0.18050519306E+02  0.48230340771E+03  0.18011608387E+04  0.18647044743E+04  0.10566000000E+00 0.  1.
          4    1    3    3  501    0  0.15939524671E+03  0.71120292928E+02 -0.10004404401E+03  0.20118089243E+03  0.00000000000E+00 0.  1.
         13    1    1    2    0    0 -0.17744576601E+03 -0.55342370064E+03 -0.67724626526E+03  0.89242776026E+03  0.10566000000E+00 0. -1.
<mgrwt>
<rscale>  1 0.98363015E+03</rscale>
<asrwt>0</asrwt>
<pdfrwt beam="2">  1       21 0.14880328E+00 0.11722133E+04</pdfrwt>
<pdfrwt beam="1">  1        4 0.30632182E+00 0.11722133E+04</pdfrwt>
<totfact> 0.29638809E-01</totfact>
</mgrwt>
</event>
<event>
 6    1  0.1412458E-005  0.1073690E+04  0.7818608E-02  0.9534413E-01
          4   -1    0    0  502    0 -0.00000000000E+00  0.00000000000E+00  0.17664346791E+04  0.17664346791E+04  0.00000000000E+00 0.  1.
         21   -1    0    0  501  502  0.00000000000E+00 -0.00000000000E+00 -0.52778741083E+03  0.52778741083E+03  0.00000000000E+00 0.  1.
    9000010    2    1    2  501    0  0.31675017935E+03 -0.17444434895E+03  0.15024144753E+04  0.18466344922E+04  0.10109639881E+04 0.  0.
        -13    1    3    3    0    0 -0.14289063995E+03 -0.28589401257E+03  0.12885000215E+04  0.13275486574E+04  0.10566000000E+00 0.  1.
          4    1    3    3  501    0  0.45964081930E+03  0.11144966363E+03  0.21391445385E+03  0.51908583476E+03  0.00000000000E+00 0.  1.
         13    1    1    2    0    0 -0.31675017935E+03  0.17444434895E+03 -0.26376720702E+03  0.44758759775E+03  0.10566000000E+00 0. -1.
<mgrwt>
<rscale>  1 0.81793568E+03</rscale>
<asrwt>0</asrwt>
<pdfrwt beam="2">  1       21 0.81198064E-01 0.10736898E+04</pdfrwt>
<pdfrwt beam="1">  1        4 0.27175918E+00 0.10736898E+04</pdfrwt>
<totfact> 0.23145969E+00</totfact>
</mgrwt>
</event>
<event>
 6    1  0.1412458E-005  0.7689686E+03  0.7818608E-02  0.1003516E+00
          4   -1    0    0  502    0 -0.00000000000E+00  0.00000000000E+00  0.25356871150E+03  0.25356871150E+03  0.00000000000E+00 0.  1.
         21   -1    0    0  501  502  0.00000000000E+00 -0.00000000000E+00 -0.91143826838E+03  0.91143826838E+03  0.00000000000E+00 0.  1.
    9000010    2    1    2  501    0 -0.28212677240E+01 -0.18886183875E+03 -0.56697432878E+03  0.95539136180E+03  0.74540996171E+03 0.  0.
        -13    1    3    3    0    0 -0.20342230468E+03  0.18733463661E+03 -0.42304627358E+03  0.50541375216E+03  0.10566000000E+00 0.  1.
          4    1    3    3  501    0  0.20060103696E+03 -0.37619647536E+03 -0.14392805520E+03  0.44997760964E+03  0.00000000000E+00 0.  1.
         13    1    1    2    0    0  0.28212677240E+01  0.18886183875E+03 -0.90895228099E+02  0.20961561808E+03  0.10566000000E+00 0. -1.
<mgrwt>
<rscale>  1 0.54135189E+03</rscale>
<asrwt>0</asrwt>
<pdfrwt beam="2">  1       21 0.14022127E+00 0.76896864E+03</pdfrwt>
<pdfrwt beam="1">  1        4 0.39010572E-01 0.76896864E+03</pdfrwt>
<totfact> 0.86025281E+01</totfact>
</mgrwt>
</event>
<event>
 6    1  0.1412458E-005  0.1023151E+04  0.7818608E-02  0.9846400E-01
          4   -1    0    0  502    0 -0.00000000000E+00  0.00000000000E+00  0.11955784961E+04  0.11955784961E+04  0.00000000000E+00 0.  1.
         21   -1    0    0  501  502  0.00000000000E+00 -0.00000000000E+00 -0.34544475866E+03  0.34544475866E+03  0.00000000000E+00 0.  1.
    9000010    2    1    2  501    0  0.12072268012E+03 -0.82874985012E+02  0.45524599225E+03  0.11198599003E+04  0.10126179212E+04 0.  0.
        -13    1    3    3    0    0  0.48477162604E+03 -0.28282437404E+03  0.93316058307E+02  0.56894732081E+03  0.10566000000E+00 0.  1.
          4    1    3    3  501    0 -0.36404894592E+03  0.19994938903E+03  0.36192993395E+03  0.55091257953E+03  0.00000000000E+00 0.  1.
         13    1    1    2    0    0 -0.12072268012E+03  0.82874985012E+02  0.39488774519E+03  0.42116335441E+03  0.10566000000E+00 0. -1.
<mgrwt>
<rscale>  1 0.62930830E+03</rscale>
<asrwt>0</asrwt>
<pdfrwt beam="2">  1       21 0.53145348E-01 0.10231507E+04</pdfrwt>
<pdfrwt beam="1">  1        4 0.18393515E+00 0.10231507E+04</pdfrwt>
<totfact> 0.22182800E+01</totfact>
</mgrwt>
</event>
<event>
 6    1  0.1412458E-005  0.1038479E+04  0.7818608E-02  0.9657803E-01
         21   -1    0    0  501  502  0.00000000000E+00  0.00000000000E+00  0.10696916237E+04  0.10696916237E+04  0.00000000000E+00 0.  1.
          4   -1    0    0  502    0 -0.00000000000E+00 -0.00000000000E+00 -0.89760142745E+03  0.89760142745E+03  0.00000000000E+00 0.  1.
    9000010    2    1    2  501    0 -0.26046974437E+03  0.26427927352E+02  0.78435365381E+03  0.13014030634E+04  0.10049359961E+04 0.  0.
        -13    1    3    3    0    0  0.12357986706E+03 -0.31893175888E+03  0.69859951646E+03  0.77783722329E+03  0.10566000000E+00 0.  1.
          4    1    3    3  501    0 -0.38404961142E+03  0.34535968623E+03  0.85754137344E+02  0.52356584016E+03  0.00000000000E+00 0.  1.
         13    1    1    2    0    0  0.26046974437E+03 -0.26427927352E+02 -0.61226345757E+03  0.66588998769E+03  0.10566000000E+00 0. -1.
<mgrwt>
<rscale>  1 0.73585750E+03</rscale>
<asrwt>0</asrwt>
<pdfrwt beam="1">  1       21 0.16456794E+00 0.10384793E+04</pdfrwt>
<pdfrwt beam="2">  1        4 0.13809253E+00 0.10384793E+04</pdfrwt>
<totfact> 0.29948267E+00</totfact>
</mgrwt>
</event>
<event>
 6    1  0.1412458E-005  0.1129203E+04  0.7818608E-02  0.9410206E-01
          4   -1    0    0  502    0 -0.00000000000E+00  0.00000000000E+00  0.15392114184E+04  0.15392114184E+04  0.00000000000E+00 0.  1.
         21   -1    0    0  501  502  0.00000000000E+00 -0.00000000000E+00 -0.43195736475E+03  0.43195736475E+03  0.00000000000E+00 0. -1.
    9000010    2    1    2  501    0  0.46651947012E+03  0.11844438830E+03  0.91300804300E+03  0.14521302365E+04  0.10214837483E+04 0.  0.
        -13    1    3    3    0    0  0.47547451501E+03  0.46491422739E+03  0.88137673405E+03  0.11041042576E+04  0.10566000000E+00 0.  1.
          4    1    3    3  501    0 -0.89550448944E+01 -0.34646983909E+03  0.31631308943E+02  0.34802597882E+03  0.00000000000E+00 0.  1.
         13    1    1    2    0    0 -0.46651947012E+03 -0.11844438830E+03  0.19424601065E+03  0.51903854667E+03  0.10566000000E+00 0. -1.
<mgrwt>
<rscale>  1 0.91240481E+03</rscale>
<asrwt>0</asrwt>
<pdfrwt beam="2">  1       21 0.66454980E-01 0.11292026E+04</pdfrwt>
<pdfrwt beam="1">  1        4 0.23680175E+00 0.11292026E+04</pdfrwt>
<totfact> 0.60239715E+00</totfact>
</mgrwt>
</event>
<event>
 6    1  0.1412458E-005  0.1147861E+04  0.7818608E-02  0.9358602E-01
          4   -1    0    0  502    0 -0.00000000000E+00  0.00000000000E+00  0.84476125410E+03  0.84476125410E+03  0.00000000000E+00 0.  1.
         21   -1    0    0  501  502  0.00000000000E+00 -0.00000000000E+00 -0.93859516180E+03  0.93859516180E+03  0.00000000000E+00 0. -1.
    9000010    2    1    2  501    0  0.46935074589E+03 -0.28942588654E+03  0.18951638216E+03  0.11634008817E+04  0.10067411216E+04 0.  0.
        -13    1    3    3    0    0  0.41395486089E+02  0.30471286139E+03 -0.16597827057E+03  0.34944572058E+03  0.10566000000E+00 0.  1.
          4    1    3    3  501    0  0.42795525980E+03 -0.59413874793E+03  0.35549465273E+03  0.81395516112E+03  0.00000000000E+00 0.  1.
         13    1    1    2    0    0 -0.46935074589E+03  0.28942588654E+03 -0.28335028986E+03  0.61995553421E+03  0.10566000000E+00 0. -1.
<mgrwt>
<rscale>  1 0.95562285E+03</rscale>
<asrwt>0</asrwt>
<pdfrwt beam="2">  1       21 0.14439925E+00 0.11478611E+04</pdfrwt>
<pdfrwt beam="1">  1        4 0.12996327E+00 0.11478611E+04</pdfrwt>
<totfact> 0.50014440E+00</totfact>
</mgrwt>
</event>
<event>
 6    1  0.1412458E-005  0.9886008E+03  0.7818608E-02  0.9732338E-01
          4   -1    0    0  502    0 -0.00000000000E+00  0.00000000000E+00  0.61041850464E+03  0.61041850464E+03  0.00000000000E+00 0.  1.
         21   -1    0    0  501  502  0.00000000000E+00 -0.00000000000E+00 -0.61712314143E+03  0.61712314143E+03  0.00000000000E+00 0.  1.
    9000010    2    1    2  501    0  0.73028623354E+02 -0.22472027056E+03  0.26350908887E+02  0.98895191432E+03  0.95994746659E+03 0.  0.
        -13    1    3    3    0    0 -0.29196805671E+03 -0.13588196885E+03 -0.33713678647E+03  0.46623007148E+03  0.10566000000E+00 0.  1.
          4    1    3    3  501    0  0.36499668007E+03 -0.88838301711E+02  0.36348769535E+03  0.52272184284E+03  0.00000000000E+00 0.  1.
         13    1    1    2    0    0 -0.73028623354E+02  0.22472027056E+03 -0.33055545673E+02  0.23858973175E+03  0.10566000000E+00 0. -1.
<mgrwt>
<rscale>  1 0.69123632E+03</rscale>
<asrwt>0</asrwt>
<pdfrwt beam="2">  1       21 0.94942021E-01 0.98860079E+03</pdfrwt>
<pdfrwt beam="1">  1        4 0.93910540E-01 0.98860079E+03</pdfrwt>
<totfact> 0.33609352E+01</totfact>
</mgrwt>
</event>
<event>
 6    1  0.1412458E-005  0.1037105E+04  0.7818608E-02  0.9709585E-01
         21   -1    0    0  501  502  0.00000000000E+00  0.00000000000E+00  0.81367057398E+03  0.81367057398E+03  0.00000000000E+00 0. -1.
          4   -1    0    0  502    0 -0.00000000000E+00 -0.00000000000E+00 -0.58901434602E+03  0.58901434602E+03  0.00000000000E+00 0.  1.
    9000010    2    1    2  501    0  0.18709477538E+03 -0.11728195288E+03 -0.64205618289E+02  0.10390907935E+04  0.10133251227E+04 0.  0.
        -13    1    3    3    0    0 -0.32995204041E+03 -0.26676891143E+02 -0.31533819947E+03  0.45718507926E+03  0.10566000000E+00 0.  1.
          4    1    3    3  501    0  0.51704681579E+03 -0.90605061734E+02  0.25113258118E+03  0.58190571423E+03  0.00000000000E+00 0.  1.
         13    1    1    2    0    0 -0.18709477538E+03  0.11728195288E+03  0.28886184625E+03  0.36359412650E+03  0.10566000000E+00 0. -1.
<mgrwt>
<rscale>  1 0.70448964E+03</rscale>
<asrwt>0</asrwt>
<pdfrwt beam="1">  1       21 0.12518009E+00 0.10371053E+04</pdfrwt>
<pdfrwt beam="2">  1        4 0.90617591E-01 0.10371053E+04</pdfrwt>
<totfact> 0.18067923E+01</totfact>
</mgrwt>
</event>
<event>
 6    1  0.1412458E-005  0.1019459E+04  0.7818608E-02  0.9817814E-01
          4   -1    0    0  502    0 -0.00000000000E+00  0.00000000000E+00  0.26412506349E+03  0.26412506349E+03  0.00000000000E+00 0.  1.
         21   -1    0    0  501  502  0.00000000000E+00 -0.00000000000E+00 -0.13223155021E+04  0.13223155021E+04  0.00000000000E+00 0.  1.
    9000010    2    1    2  501    0  0.54013113178E+02  0.15325714563E+03 -0.91146865207E+03  0.13675057285E+04  0.10064251809E+04 0.  0.
        -13    1    3    3    0    0 -0.39330217324E+03 -0.14802112020E+03 -0.17626726325E+03  0.45570496020E+03  0.10566000000E+00 0.  1.
          4    1    3    3  501    0  0.44731528641E+03  0.30127826583E+03 -0.73520138882E+03  0.91180076828E+03  0.00000000000E+00 0.  1.
         13    1    1    2    0    0 -0.54013113178E+02 -0.15325714563E+03 -0.14672178649E+03  0.21893483706E+03  0.10566000000E+00 0. -1.
<mgrwt>
<rscale>  1 0.64415227E+03</rscale>
<asrwt>0</asrwt>
<pdfrwt beam="2">  1       21 0.20343316E+00 0.10194591E+04</pdfrwt>
<pdfrwt beam="1">  1        4 0.40634625E-01 0.10194591E+04</pdfrwt>
<totfact> 0.25919545E+01</totfact>
</mgrwt>
</event>
<event>
 6    1  0.1412458E-005  0.1013007E+04  0.7818608E-02  0.9782882E-01
          4   -1    0    0  502    0 -0.00000000000E+00  0.00000000000E+00  0.50406854410E+03  0.50406854410E+03  0.00000000000E+00 0.  1.
         21   -1    0    0  501  502  0.00000000000E+00 -0.00000000000E+00 -0.80125736017E+03  0.80125736017E+03  0.00000000000E+00 0.  1.
    9000010    2    1    2  501    0 -0.11130443079E+03 -0.14871362114E+03 -0.40452466806E+03  0.10907905605E+04  0.99583102103E+03 0.  0.
        -13    1    3    3    0    0 -0.17707794836E+03 -0.10787534081E+03  0.30952394502E+03  0.37255707302E+03  0.10566000000E+00 0.  1.
          4    1    3    3  501    0  0.65773517577E+02 -0.40838280335E+02 -0.71404861308E+03  0.71823348752E+03  0.00000000000E+00 0.  1.
         13    1    1    2    0    0  0.11130443079E+03  0.14871362114E+03  0.10733585199E+03  0.21453534374E+03  0.10566000000E+00 0. -1.
<mgrwt>
<rscale>  1 0.66289355E+03</rscale>
<asrwt>0</asrwt>
<pdfrwt beam="2">  1       21 0.12327036E+00 0.10130073E+04</pdfrwt>
<pdfrwt beam="1">  1        4 0.77549007E-01 0.10130073E+04</pdfrwt>
<totfact> 0.27065545E+01</totfact>
</mgrwt>
</event>
<event>
 6    1  0.1412458E-005  0.9981211E+03  0.7818608E-02  0.1056285E+00
         21   -1    0    0  501  502  0.00000000000E+00  0.00000000000E+00  0.29774170315E+03  0.29774170315E+03  0.00000000000E+00 0.  1.
          4   -1    0    0  502    0 -0.00000000000E+00 -0.00000000000E+00 -0.94187493795E+03  0.94187493795E+03  0.00000000000E+00 0.  1.
    9000010    2    1    2  501    0 -0.65420823645E+01 -0.16789273002E+02 -0.54176338327E+03  0.11356730208E+04  0.99795840005E+03 0.  0.
        -13    1    3    3    0    0 -0.15560197319E+03 -0.99676120478E+02  0.25832119824E+03  0.31761164286E+03  0.10566000000E+00 0.  1.
          4    1    3    3  501    0  0.14905989082E+03  0.82886847475E+02 -0.80008458151E+03  0.81806137796E+03  0.00000000000E+00 0.  1.
         13    1    1    2    0    0  0.65420823645E+01  0.16789273002E+02 -0.10236985153E+03  0.10394362028E+03  0.10566000000E+00 0. -1.
<mgrwt>
<rscale>  1 0.36586509E+03</rscale>
<asrwt>0</asrwt>
<pdfrwt beam="1">  1       21 0.45806416E-01 0.99812106E+03</pdfrwt>
<pdfrwt beam="2">  1        4 0.14490384E+00 0.99812106E+03</pdfrwt>
<totfact> 0.59440742E+01</totfact>
</mgrwt>
</event>
<event>
 6    1  0.1412458E-005  0.1005640E+04  0.7818608E-02  0.1036935E+00
          4   -1    0    0  502    0 -0.00000000000E+00  0.00000000000E+00  0.32783891529E+03  0.32783891529E+03  0.00000000000E+00 0.  1.
         21   -1    0    0  501  502  0.00000000000E+00 -0.00000000000E+00 -0.10972239184E+04  0.10972239184E+04  0.00000000000E+00 0.  1.
    9000010    2    1    2  501    0  0.11135780775E+02 -0.28623879929E+02 -0.86385264863E+03  0.13257276469E+04  0.10051711611E+04 0.  0.
        -13    1    3    3    0    0 -0.37336312894E+03  0.72899443182E+02 -0.63134003722E+01  0.38046580011E+03  0.10566000000E+00 0.  1.
          4    1    3    3  501    0  0.38449890971E+03 -0.10152332311E+03 -0.85753924826E+03  0.94526184680E+03  0.00000000000E+00 0.  1.
         13    1    1    2    0    0 -0.11135780775E+02  0.28623879929E+02  0.94467645528E+02  0.99335186773E+02  0.10566000000E+00 0. -1.
<mgrwt>
<rscale>  1 0.42040292E+03</rscale>
<asrwt>0</asrwt>
<pdfrwt beam="2">  1       21 0.16880368E+00 0.10056403E+04</pdfrwt>
<pdfrwt beam="1">  1        4 0.50436756E-01 0.10056403E+04</pdfrwt>
<totfact> 0.29282981E+01</totfact>
</mgrwt>
</event>
<event>
 6    1  0.1412458E-005  0.1196345E+04  0.7818608E-02  0.9324493E-01
          4   -1    0    0  502    0 -0.00000000000E+00  0.00000000000E+00  0.14281517384E+04  0.14281517384E+04  0.00000000000E+00 0.  1.
         21   -1    0    0  501  502  0.00000000000E+00 -0.00000000000E+00 -0.70636503778E+03  0.70636503778E+03  0.00000000000E+00 0.  1.
    9000010    2    1    2  501    0 -0.12610318990E+03 -0.53645701208E+03 -0.36775986113E+02  0.11969105149E+04  0.10618635351E+04 0.  0.
        -13    1    3    3    0    0  0.22709000553E+03  0.14996307852E+03 -0.27712402133E+03  0.38840253589E+03  0.10566000000E+00 0.  1.
          4    1    3    3  501    0 -0.35319319543E+03 -0.68642009060E+03  0.24034803521E+03  0.80850797900E+03  0.00000000000E+00 0.  1.
         13    1    1    2    0    0  0.12610318990E+03  0.53645701208E+03  0.75856268671E+03  0.93760626126E+03  0.10566000000E+00 0. -1.
<mgrwt>
<rscale>  1 0.98558916E+03</rscale>
<asrwt>0</asrwt>
<pdfrwt beam="2">  1       21 0.10867154E+00 0.11963454E+04</pdfrwt>
<pdfrwt beam="1">  1        4 0.21971565E+00 0.11963454E+04</pdfrwt>
<totfact> 0.23583357E+00</totfact>
</mgrwt>
</event>
<event>
 6    1  0.1412458E-005  0.1014646E+04  0.7818608E-02  0.9900332E-01
          4   -1    0    0  502    0 -0.00000000000E+00  0.00000000000E+00  0.88544330598E+03  0.88544330598E+03  0.00000000000E+00 0.  1.
         21   -1    0    0  501  502  0.00000000000E+00 -0.00000000000E+00 -0.37961107408E+03  0.37961107408E+03  0.00000000000E+00 0.  1.
    9000010    2    1    2  501    0 -0.62316667167E+02  0.10963646014E+03  0.37076275677E+03  0.10802645138E+04  0.10067784650E+04 0.  0.
        -13    1    3    3    0    0  0.30578044119E+03  0.12591620575E+03  0.57179379034E+03  0.66053366222E+03  0.10566000000E+00 0.  1.
          4    1    3    3  501    0 -0.36809710836E+03 -0.16279745612E+02 -0.20103103357E+03  0.41973085157E+03  0.00000000000E+00 0.  1.
         13    1    1    2    0    0  0.62316667167E+02 -0.10963646014E+03  0.13506947514E+03  0.18478986627E+03  0.10566000000E+00 0. -1.
<mgrwt>
<rscale>  1 0.60245219E+03</rscale>
<asrwt>0</asrwt>
<pdfrwt beam="2">  1       21 0.58401704E-01 0.10146459E+04</pdfrwt>
<pdfrwt beam="1">  1        4 0.13622205E+00 0.10146459E+04</pdfrwt>
<totfact> 0.41188931E+01</totfact>
</mgrwt>
</event>
<event>
 6    1  0.1412458E-005  0.1030075E+04  0.7818608E-02  0.9804365E-01
          4   -1    0    0  502    0 -0.00000000000E+00  0.00000000000E+00  0.50061653607E+03  0.50061653607E+03  0.00000000000E+00 0.  1.
         21   -1    0    0  501  502  0.00000000000E+00 -0.00000000000E+00 -0.75327591740E+03  0.75327591740E+03  0.00000000000E+00 0.  1.
    9000010    2    1    2  501    0 -0.16460255437E+03  0.24727462386E+01 -0.31607734289E+03  0.10774782693E+04  0.10168354924E+04 0.  0.
        -13    1    3    3    0    0 -0.11687861335E+03 -0.28456409419E+03  0.27885021833E+03  0.41520451513E+03  0.10566000000E+00 0.  1.
          4    1    3    3  501    0 -0.47723941015E+02  0.28703684043E+03 -0.59492756122E+03  0.66227375413E+03  0.00000000000E+00 0.  1.
         13    1    1    2    0    0  0.16460255437E+03 -0.24727462386E+01  0.63417961564E+02  0.17641418421E+03  0.10566000000E+00 0. -1.
<mgrwt>
<rscale>  1 0.65128797E+03</rscale>
<asrwt>0</asrwt>
<pdfrwt beam="2">  1       21 0.11588860E+00 0.10300750E+04</pdfrwt>
<pdfrwt beam="1">  1        4 0.77017928E-01 0.10300750E+04</pdfrwt>
<totfact> 0.32218870E+01</totfact>
</mgrwt>
</event>
<event>
 6    1  0.1412458E-005  0.1054902E+04  0.7818608E-02  0.9566418E-01
          4   -1    0    0  502    0 -0.00000000000E+00  0.00000000000E+00  0.40710336602E+03  0.40710336602E+03  0.00000000000E+00 0.  1.
         21   -1    0    0  501  502  0.00000000000E+00 -0.00000000000E+00 -0.15286501862E+04  0.15286501862E+04  0.00000000000E+00 0.  1.
    9000010    2    1    2  501    0  0.33175428211E+03 -0.80127326489E+02 -0.11872423084E+04  0.15881946356E+04  0.99816662421E+03 0.  0.
        -13    1    3    3    0    0  0.49842663523E+03  0.29689449391E+03 -0.41661629044E+03  0.71424407303E+03  0.10566000000E+00 0.  1.
          4    1    3    3  501    0 -0.16667235313E+03 -0.37702182040E+03 -0.77062601794E+03  0.87395056260E+03  0.00000000000E+00 0.  1.
         13    1    1    2    0    0 -0.33175428211E+03  0.80127326489E+02  0.65695488229E+02  0.34755891656E+03  0.10566000000E+00 0. -1.
<mgrwt>
<rscale>  1 0.79559321E+03</rscale>
<asrwt>0</asrwt>
<pdfrwt beam="2">  1       21 0.23517695E+00 0.10549018E+04</pdfrwt>
<pdfrwt beam="1">  1        4 0.62631287E-01 0.10549018E+04</pdfrwt>
<totfact> 0.63568256E+00</totfact>
</mgrwt>
</event>
<event>
 6    1  0.1412458E-005  0.1136064E+04  0.7818608E-02  0.9374222E-01
          4   -1    0    0  502    0 -0.00000000000E+00  0.00000000000E+00  0.83503312604E+03  0.83503312604E+03  0.00000000000E+00 0.  1.
         21   -1    0    0  501  502  0.00000000000E+00 -0.00000000000E+00 -0.11315087106E+04  0.11315087106E+04  0.00000000000E+00 0.  1.
    9000010    2    1    2  501    0  0.51573457165E+03 -0.15197320174E+03 -0.66343173321E+03  0.13155926616E+04  0.10007818864E+04 0.  0.
        -13    1    3    3    0    0 -0.19669707554E+02 -0.69495693097E+02 -0.76162799847E+03  0.76504494507E+03  0.10566000000E+00 0.  1.
          4    1    3    3  501    0  0.53540427920E+03 -0.82477508639E+02  0.98196265257E+02  0.55054771649E+03  0.00000000000E+00 0.  1.
         13    1    1    2    0    0 -0.51573457165E+03  0.15197320174E+03  0.36695614861E+03  0.65094917513E+03  0.10566000000E+00 0. -1.
<mgrwt>
<rscale>  1 0.94227811E+03</rscale>
<asrwt>0</asrwt>
<pdfrwt beam="2">  1       21 0.17407826E+00 0.11360644E+04</pdfrwt>
<pdfrwt beam="1">  1        4 0.12846663E+00 0.11360644E+04</pdfrwt>
<totfact> 0.30227090E+00</totfact>
</mgrwt>
</event>
<event>
 6    1  0.1412458E-005  0.1019831E+04  0.7818608E-02  0.9655091E-01
         21   -1    0    0  501  502  0.00000000000E+00  0.00000000000E+00  0.31015766929E+04  0.31015766929E+04  0.00000000000E+00 0.  1.
          4   -1    0    0  502    0 -0.00000000000E+00 -0.00000000000E+00 -0.14557235243E+03  0.14557235243E+03  0.00000000000E+00 0.  1.
    9000010    2    1    2  501    0  0.27894887622E+03  0.42646014402E+01  0.26133239802E+04  0.28052661391E+04  0.98093079427E+03 0.  0.
        -13    1    3    3    0    0  0.45185806368E+03  0.22274820428E+03  0.24054552596E+04  0.24576426692E+04  0.10566000000E+00 0.  1.
          4    1    3    3  501    0 -0.17290918746E+03 -0.21848360284E+03  0.20786872059E+03  0.34762346989E+03  0.00000000000E+00 0.  1.
         13    1    1    2    0    0 -0.27894887622E+03 -0.42646014402E+01  0.34268036031E+03  0.44188290629E+03  0.10566000000E+00 0. -1.
<mgrwt>
<rscale>  1 0.73754768E+03</rscale>
<asrwt>0</asrwt>
<pdfrwt beam="1">  1       21 0.47716560E+00 0.10198313E+04</pdfrwt>
<pdfrwt beam="2">  1        4 0.22395749E-01 0.10198313E+04</pdfrwt>
<totfact> 0.13907450E+00</totfact>
</mgrwt>
</event>
<event>
 6    1  0.1412458E-005  0.1018081E+04  0.7818608E-02  0.9834642E-01
         21   -1    0    0  501  502  0.00000000000E+00  0.00000000000E+00  0.13412480455E+04  0.13412480455E+04  0.00000000000E+00 0.  1.
          4   -1    0    0  502    0 -0.00000000000E+00 -0.00000000000E+00 -0.25934648584E+03  0.25934648584E+03  0.00000000000E+00 0.  1.
    9000010    2    1    2  501    0  0.75710921116E+02 -0.13459951001E+03  0.99419928837E+03  0.14229970335E+04  0.10062997371E+04 0.  0.
        -13    1    3    3    0    0  0.28000978722E+03 -0.43250053128E+03  0.91967498641E+03  0.10541652064E+04  0.10566000000E+00 0.  1.
          4    1    3    3  501    0 -0.20429886610E+03  0.29790102127E+03  0.74524301959E+02  0.36883182719E+03  0.00000000000E+00 0.  1.
         13    1    1    2    0    0 -0.75710921116E+02  0.13459951001E+03  0.87702271289E+02  0.17759749780E+03  0.10566000000E+00 0. -1.
<mgrwt>
<rscale>  1 0.63536143E+03</rscale>
<asrwt>0</asrwt>
<pdfrwt beam="1">  1       21 0.20634585E+00 0.10180807E+04</pdfrwt>
<pdfrwt beam="2">  1        4 0.39899460E-01 0.10180807E+04</pdfrwt>
<totfact> 0.25708091E+01</totfact>
</mgrwt>
</event>
<event>
 6    1  0.1412458E-005  0.9003932E+03  0.7818608E-02  0.9906802E-01
          4   -1    0    0  502    0 -0.00000000000E+00  0.00000000000E+00  0.47468093531E+03  0.47468093531E+03  0.00000000000E+00 0.  1.
         21   -1    0    0  501  502  0.00000000000E+00 -0.00000000000E+00 -0.62511857623E+03  0.62511857623E+03  0.00000000000E+00 0.  1.
    9000010    2    1    2  501    0  0.15945255033E+03 -0.76260694095E+02 -0.18625615482E+03  0.91945598831E+03  0.88287436817E+03 0.  0.
        -13    1    3    3    0    0  0.32660594612E+03 -0.29236942984E+03 -0.38354626279E+03  0.58245950452E+03  0.10566000000E+00 0.  1.
          4    1    3    3  501    0 -0.16715339579E+03  0.21610873575E+03  0.19729010796E+03  0.33699648379E+03  0.00000000000E+00 0.  1.
         13    1    1    2    0    0 -0.15945255033E+03  0.76260694095E+02  0.35818513904E+02  0.18034352323E+03  0.10566000000E+00 0. -1.
<mgrwt>
<rscale>  1 0.59932786E+03</rscale>
<asrwt>0</asrwt>
<pdfrwt beam="2">  1       21 0.96172089E-01 0.90039322E+03</pdfrwt>
<pdfrwt beam="1">  1        4 0.73027836E-01 0.90039322E+03</pdfrwt>
<totfact> 0.58711616E+01</totfact>
</mgrwt>
</event>
<event>
 6    1  0.1412458E-005  0.9011025E+03  0.7818608E-02  0.1010952E+00
          4   -1    0    0  502    0 -0.00000000000E+00  0.00000000000E+00  0.12872200610E+03  0.12872200610E+03  0.00000000000E+00 0.  1.
         21   -1    0    0  501  502  0.00000000000E+00 -0.00000000000E+00 -0.19258717351E+04  0.19258717351E+04  0.00000000000E+00 0.  1.
    9000010    2    1    2  501    0 -0.87642794582E+02  0.31623882304E+02 -0.16596707491E+04  0.18885160171E+04  0.89627251543E+03 0.  0.
        -13    1    3    3    0    0 -0.35101456647E+03 -0.16958225576E+03 -0.14377091745E+04  0.14896231232E+04  0.10566000000E+00 0.  1.
          4    1    3    3  501    0  0.26337177189E+03  0.20120613807E+03 -0.22196157455E+03  0.39889289390E+03  0.00000000000E+00 0.  1.
         13    1    1    2    0    0  0.87642794582E+02 -0.31623882304E+02 -0.13747897986E+03  0.16607772409E+03  0.10566000000E+00 0. -1.
<mgrwt>
<rscale>  1 0.51098012E+03</rscale>
<asrwt>0</asrwt>
<pdfrwt beam="2">  1       21 0.29628796E+00 0.90110252E+03</pdfrwt>
<pdfrwt beam="1">  1        4 0.19803386E-01 0.90110252E+03</pdfrwt>
<totfact> 0.27158819E+01</totfact>
</mgrwt>
</event>
<event>
 6    1  0.1412458E-005  0.1027628E+04  0.7818608E-02  0.9715893E-01
          4   -1    0    0  502    0 -0.00000000000E+00  0.00000000000E+00  0.34566657507E+03  0.34566657507E+03  0.00000000000E+00 0.  1.
         21   -1    0    0  501  502  0.00000000000E+00 -0.00000000000E+00 -0.12739841945E+04  0.12739841945E+04  0.00000000000E+00 0.  1.
    9000010    2    1    2  501    0  0.16542399935E+03 -0.14841384429E+03 -0.94592962046E+03  0.13967114001E+04  0.10033085864E+04 0.  0.
        -13    1    3    3    0    0 -0.14584835464E+03 -0.44939280039E+02 -0.10434105601E+04  0.10545126313E+04  0.10566000000E+00 0.  1.
          4    1    3    3  501    0  0.31127235400E+03 -0.10347456425E+03  0.97480939611E+02  0.34219876884E+03  0.00000000000E+00 0.  1.
         13    1    1    2    0    0 -0.16542399935E+03  0.14841384429E+03  0.17612000985E+02  0.22293936952E+03  0.10566000000E+00 0. -1.
<mgrwt>
<rscale>  1 0.70078351E+03</rscale>
<asrwt>0</asrwt>
<pdfrwt beam="2">  1       21 0.19599757E+00 0.10276283E+04</pdfrwt>
<pdfrwt beam="1">  1        4 0.53179473E-01 0.10276283E+04</pdfrwt>
<totfact> 0.16614066E+01</totfact>
</mgrwt>
</event>
<event>
 6    1  0.1412458E-005  0.9987592E+03  0.7818608E-02  0.9940953E-01
          4   -1    0    0  502    0 -0.00000000000E+00  0.00000000000E+00  0.16250660013E+04  0.16250660013E+04  0.00000000000E+00 0.  1.
         21   -1    0    0  501  502  0.00000000000E+00 -0.00000000000E+00 -0.23605063848E+03  0.23605063848E+03  0.00000000000E+00 0.  1.
    9000010    2    1    2  501    0  0.11175711411E+03 -0.31421869278E+02  0.85534580027E+03  0.13149662946E+04  0.99198938068E+03 0.  0.
        -13    1    3    3    0    0  0.52933895100E+02  0.62548191367E+02 -0.21956338860E+03  0.23435521388E+03  0.10566000000E+00 0.  1.
          4    1    3    3  501    0  0.58823219007E+02 -0.93970060645E+02  0.10749091889E+04  0.10806110807E+04  0.00000000000E+00 0.  1.
         13    1    1    2    0    0 -0.11175711411E+03  0.31421869278E+02  0.53366956260E+03  0.54615034526E+03  0.10566000000E+00 0. -1.
<mgrwt>
<rscale>  1 0.58316941E+03</rscale>
<asrwt>0</asrwt>
<pdfrwt beam="2">  1       21 0.36315484E-01 0.99875919E+03</pdfrwt>
<pdfrwt beam="1">  1        4 0.25001015E+00 0.99875919E+03</pdfrwt>
<totfact> 0.18692396E+01</totfact>
</mgrwt>
</event>
<event>
 6    1  0.1412458E-005  0.9952983E+03  0.7818608E-02  0.1023523E+00
          4   -1    0    0  502    0 -0.00000000000E+00  0.00000000000E+00  0.39726183884E+03  0.39726183884E+03  0.00000000000E+00 0.  1.
         21   -1    0    0  501  502  0.00000000000E+00 -0.00000000000E+00 -0.78238153880E+03  0.78238153880E+03  0.00000000000E+00 0.  1.
    9000010    2    1    2  501    0 -0.44986284574E+02  0.14154668843E+02 -0.45577742687E+03  0.10946925331E+04  0.99418034519E+03 0.  0.
        -13    1    3    3    0    0 -0.38096610467E+03 -0.13191041133E+03 -0.58130615332E+03  0.70742659307E+03  0.10566000000E+00 0.  1.
          4    1    3    3  501    0  0.33597982009E+03  0.14606508017E+03  0.12552872645E+03  0.38726594005E+03  0.00000000000E+00 0.  1.
         13    1    1    2    0    0  0.44986284574E+02 -0.14154668843E+02  0.70657726909E+02  0.84950844527E+02  0.10566000000E+00 0. -1.
<mgrwt>
<rscale>  1 0.46436556E+03</rscale>
<asrwt>0</asrwt>
<pdfrwt beam="2">  1       21 0.12036639E+00 0.99529829E+03</pdfrwt>
<pdfrwt beam="1">  1        4 0.61117207E-01 0.99529829E+03</pdfrwt>
<totfact> 0.49107497E+01</totfact>
</mgrwt>
</event>
<event>
 6    1  0.1412458E-005  0.1086541E+04  0.7818608E-02  0.9458532E-01
         21   -1    0    0  501  502  0.00000000000E+00  0.00000000000E+00  0.13888658634E+04  0.13888658634E+04  0.00000000000E+00 0. -1.
          4   -1    0    0  502    0 -0.00000000000E+00 -0.00000000000E+00 -0.43391572714E+03  0.43391572714E+03  0.00000000000E+00 0.  1.
    9000010    2    1    2  501    0  0.37591952231E+03 -0.25656492151E+03  0.76896777829E+03  0.13311206354E+04  0.98662538772E+03 0.  0.
        -13    1    3    3    0    0 -0.57807433834E+02 -0.55407182732E+03  0.34206204210E+03  0.65371533640E+03  0.10566000000E+00 0.  1.
          4    1    3    3  501    0  0.43372695615E+03  0.29750690581E+03  0.42690573619E+03  0.67740529898E+03  0.00000000000E+00 0.  1.
         13    1    1    2    0    0 -0.37591952231E+03  0.25656492151E+03  0.18598235799E+03  0.49166095518E+03  0.10566000000E+00 0. -1.
<mgrwt>
<rscale>  1 0.87411339E+03</rscale>
<asrwt>0</asrwt>
<pdfrwt beam="1">  1       21 0.21367167E+00 0.10865407E+04</pdfrwt>
<pdfrwt beam="2">  1        4 0.66756266E-01 0.10865407E+04</pdfrwt>
<totfact> 0.76153940E+00</totfact>
</mgrwt>
</event>
<event>
 6    1  0.1412458E-005  0.1163879E+04  0.7818608E-02  0.9323744E-01
          4   -1    0    0  502    0 -0.00000000000E+00  0.00000000000E+00  0.10967272837E+04  0.10967272837E+04  0.00000000000E+00 0.  1.
         21   -1    0    0  501  502  0.00000000000E+00 -0.00000000000E+00 -0.90031397615E+03  0.90031397615E+03  0.00000000000E+00 0.  1.
    9000010    2    1    2  501    0 -0.46574873887E+03  0.37845726758E+03 -0.31808284266E+03  0.12065616011E+04  0.99722736193E+03 0.  0.
        -13    1    3    3    0    0  0.26484798885E+03  0.12522206875E+03  0.12144322587E+03  0.31713324010E+03  0.10566000000E+00 0.  1.
          4    1    3    3  501    0 -0.73059672772E+03  0.25323519884E+03 -0.43952606853E+03  0.88942836103E+03  0.00000000000E+00 0.  1.
         13    1    1    2    0    0  0.46574873887E+03 -0.37845726758E+03  0.51449615023E+03  0.79047965876E+03  0.10566000000E+00 0. -1.
<mgrwt>
<rscale>  1 0.98626031E+03</rscale>
<asrwt>0</asrwt>
<pdfrwt beam="2">  1       21 0.13850984E+00 0.11638789E+04</pdfrwt>
<pdfrwt beam="1">  1        4 0.16872727E+00 0.11638789E+04</pdfrwt>
<totfact> 0.27743479E+00</totfact>
</mgrwt>
</event>
<event>
 6    1  0.1412458E-005  0.1049308E+04  0.7818608E-02  0.9611616E-01
         21   -1    0    0  501  502  0.00000000000E+00  0.00000000000E+00  0.75564106324E+03  0.75564106324E+03  0.00000000000E+00 0.  1.
          4   -1    0    0  502    0 -0.00000000000E+00 -0.00000000000E+00 -0.72666187494E+03  0.72666187494E+03  0.00000000000E+00 0.  1.
    9000010    2    1    2  501    0  0.25864075658E+03  0.14586700321E+03  0.28816702016E+03  0.10881575755E+04  0.10064166404E+04 0.  0.
        -13    1    3    3    0    0  0.33007732684E+03 -0.79612324828E+02  0.60440650068E+03  0.69325059912E+03  0.10566000000E+00 0.  1.
          4    1    3    3  501    0 -0.71436570262E+02  0.22547932804E+03 -0.31623948051E+03  0.39490697636E+03  0.00000000000E+00 0.  1.
         13    1    1    2    0    0 -0.25864075658E+03 -0.14586700321E+03 -0.25918783185E+03  0.39414536270E+03  0.10566000000E+00 0. -1.
<mgrwt>
<rscale>  1 0.76532100E+03</rscale>
<asrwt>0</asrwt>
<pdfrwt beam="1">  1       21 0.11625247E+00 0.10493077E+04</pdfrwt>
<pdfrwt beam="2">  1        4 0.11179413E+00 0.10493077E+04</pdfrwt>
<totfact> 0.13171907E+01</totfact>
</mgrwt>
</event>
<event>
 6    1  0.1412458E-005  0.1002261E+04  0.7818608E-02  0.1010092E+00
         21   -1    0    0  501  502  0.00000000000E+00  0.00000000000E+00  0.17435758204E+03  0.17435758204E+03  0.00000000000E+00 0.  1.
          4   -1    0    0  502    0 -0.00000000000E+00 -0.00000000000E+00 -0.17217096245E+04  0.17217096245E+04  0.00000000000E+00 0.  1.
    9000010    2    1    2  501    0 -0.84762378723E+01 -0.69016228408E+02 -0.13142196078E+04  0.16527858269E+04  0.99984635113E+03 0.  0.
        -13    1    3    3    0    0  0.42731637093E+03  0.12005673031E+03 -0.96817058497E+03  0.10650667548E+04  0.10566000000E+00 0.  1.
          4    1    3    3  501    0 -0.43579260880E+03 -0.18907295872E+03 -0.34604902282E+03  0.58771907217E+03  0.00000000000E+00 0.  1.
         13    1    1    2    0    0  0.84762378723E+01  0.69016228408E+02 -0.23313243468E+03  0.24328137959E+03  0.10566000000E+00 0. -1.
<mgrwt>
<rscale>  1 0.51438275E+03</rscale>
<asrwt>0</asrwt>
<pdfrwt beam="1">  1       21 0.26824244E-01 0.10022613E+04</pdfrwt>
<pdfrwt beam="2">  1        4 0.26487840E+00 0.10022613E+04</pdfrwt>
<totfact> 0.27964086E+01</totfact>
</mgrwt>
</event>
<event>
 6    1  0.1412458E-005  0.1203113E+04  0.7818608E-02  0.9251902E-01
          4   -1    0    0  502    0 -0.00000000000E+00  0.00000000000E+00  0.41828855986E+03  0.41828855986E+03  0.00000000000E+00 0.  1.
         21   -1    0    0  501  502  0.00000000000E+00 -0.00000000000E+00 -0.22027831712E+04  0.22027831712E+04  0.00000000000E+00 0. -1.
    9000010    2    1    2  501    0  0.16258411269E+03  0.68794686105E+03 -0.99406829123E+03  0.15606575403E+04  0.97353773071E+03 0.  0.
        -13    1    3    3    0    0  0.29050054366E+03  0.89546565609E+03 -0.67160290819E+03  0.11564167867E+04  0.10566000000E+00 0.  1.
          4    1    3    3  501    0 -0.12791643097E+03 -0.20751879504E+03 -0.32246538304E+03  0.40424075360E+03  0.00000000000E+00 0.  1.
         13    1    1    2    0    0 -0.16258411269E+03 -0.68794686105E+03 -0.79042632014E+03  0.10604141908E+04  0.10566000000E+00 0. -1.
<mgrwt>
<rscale>  1 0.10533409E+04</rscale>
<asrwt>0</asrwt>
<pdfrwt beam="2">  1       21 0.33888971E+00 0.12031127E+04</pdfrwt>
<pdfrwt beam="1">  1        4 0.64352088E-01 0.12031127E+04</pdfrwt>
<totfact> 0.12992490E+00</totfact>
</mgrwt>
</event>
<event>
 6    1  0.1412458E-005  0.1071088E+04  0.7818608E-02  0.9793752E-01
          4   -1    0    0  502    0 -0.00000000000E+00  0.00000000000E+00  0.11820184342E+04  0.11820184342E+04  0.00000000000E+00 0.  1.
         21   -1    0    0  501  502  0.00000000000E+00 -0.00000000000E+00 -0.31646371625E+03  0.31646371625E+03  0.00000000000E+00 0.  1.
    9000010    2    1    2  501    0 -0.12488534067E+03  0.85978558197E+02  0.74367705902E+03  0.13039497992E+04  0.10603022446E+04 0.  0.
        -13    1    3    3    0    0  0.14095568155E+03 -0.18526396789E+03 -0.18710581060E+03  0.29866341839E+03  0.10566000000E+00 0.  1.
          4    1    3    3  501    0 -0.26584102223E+03  0.27124252609E+03  0.93078286961E+03  0.10052863808E+04  0.00000000000E+00 0.  1.
         13    1    1    2    0    0  0.12488534067E+03 -0.85978558197E+02  0.12187765898E+03  0.19453235131E+03  0.10566000000E+00 0. -1.
<mgrwt>
<rscale>  1 0.65698901E+03</rscale>
<asrwt>0</asrwt>
<pdfrwt beam="2">  1       21 0.48686726E-01 0.10710880E+04</pdfrwt>
<pdfrwt beam="1">  1        4 0.18184899E+00 0.10710880E+04</pdfrwt>
<totfact> 0.27613435E+01</totfact>
</mgrwt>
</event>
<event>
 6    1  0.1412458E-005  0.1010743E+04  0.7818608E-02  0.9849099E-01
          4   -1    0    0  502    0 -0.00000000000E+00  0.00000000000E+00  0.14912349699E+04  0.14912349699E+04  0.00000000000E+00 0.  1.
         21   -1    0    0  501  502  0.00000000000E+00 -0.00000000000E+00 -0.22891086790E+03  0.22891086790E+03  0.00000000000E+00 0.  1.
    9000010    2    1    2  501    0 -0.10394925250E+03  0.10892148657E+03  0.10283260170E+04  0.14418933404E+04  0.99946619284E+03 0.  0.
        -13    1    3    3    0    0  0.39241669344E+03 -0.32173313786E+01  0.13722979833E+03  0.41573217488E+03  0.10566000000E+00 0.  1.
          4    1    3    3  501    0 -0.49636594595E+03  0.11213881795E+03  0.89109621866E+03  0.10261611656E+04  0.00000000000E+00 0.  1.
         13    1    1    2    0    0  0.10394925250E+03 -0.10892148657E+03  0.23399808499E+03  0.27825249734E+03  0.10566000000E+00 0. -1.
<mgrwt>
<rscale>  1 0.62792899E+03</rscale>
<asrwt>0</asrwt>
<pdfrwt beam="2">  1       21 0.35217058E-01 0.10107433E+04</pdfrwt>
<pdfrwt beam="1">  1        4 0.22942076E+00 0.10107433E+04</pdfrwt>
<totfact> 0.26735802E+01</totfact>
</mgrwt>
</event>
<event>
 6    1  0.1412458E-005  0.9941689E+03  0.7818608E-02  0.1030037E+00
          4   -1    0    0  502    0 -0.00000000000E+00  0.00000000000E+00  0.12974763844E+03  0.12974763844E+03  0.00000000000E+00 0.  1.
         21   -1    0    0  501  502  0.00000000000E+00 -0.00000000000E+00 -0.33985740246E+04  0.33985740246E+04  0.00000000000E+00 0.  1.
    9000010    2    1    2  501    0  0.22177713731E+02 -0.32026092461E+02 -0.33190586560E+04  0.34647542682E+04  0.99340538326E+03 0.  0.
        -13    1    3    3    0    0  0.37633234643E+03 -0.15771481567E+03 -0.63692207431E+03  0.75641902273E+03  0.10566000000E+00 0.  1.
          4    1    3    3  501    0 -0.35415463269E+03  0.12568872321E+03 -0.26821365817E+04  0.27083352455E+04  0.00000000000E+00 0.  1.
         13    1    1    2    0    0 -0.22177713731E+02  0.32026092461E+02  0.50232269865E+02  0.63567394822E+02  0.10566000000E+00 0. -1.
<mgrwt>
<rscale>  1 0.44232082E+03</rscale>
<asrwt>0</asrwt>
<pdfrwt beam="2">  1       21 0.52285747E+00 0.99416889E+03</pdfrwt>
<pdfrwt beam="1">  1        4 0.19961178E-01 0.99416889E+03</pdfrwt>
<totfact> 0.81451971E-01</totfact>
</mgrwt>
</event>
<event>
 6    1  0.1412458E-005  0.1012895E+04  0.7818608E-02  0.1006421E+00
         21   -1    0    0  501  502  0.00000000000E+00  0.00000000000E+00  0.60201396728E+03  0.60201396728E+03  0.00000000000E+00 0.  1.
          4   -1    0    0  502    0 -0.00000000000E+00 -0.00000000000E+00 -0.49929979329E+03  0.49929979329E+03  0.00000000000E+00 0.  1.
    9000010    2    1    2  501    0  0.27586498793E+01  0.75433805341E+02  0.12966960354E+03  0.10211609348E+04  0.10100780066E+04 0.  0.
        -13    1    3    3    0    0 -0.22998920788E+03  0.17806308331E+03 -0.36392416534E+03  0.46587799547E+03  0.10566000000E+00 0.  1.
          4    1    3    3  501    0  0.23274785776E+03 -0.10262927797E+03  0.49359376889E+03  0.55528293929E+03  0.00000000000E+00 0.  1.
         13    1    1    2    0    0 -0.27586498793E+01 -0.75433805341E+02 -0.26955429559E+02  0.80152825802E+02  0.10566000000E+00 0. -1.
<mgrwt>
<rscale>  1 0.52922135E+03</rscale>
<asrwt>0</asrwt>
<pdfrwt beam="1">  1       21 0.92617534E-01 0.10128946E+04</pdfrwt>
<pdfrwt beam="2">  1        4 0.76815353E-01 0.10128946E+04</pdfrwt>
<totfact> 0.56849720E+01</totfact>
</mgrwt>
</event>
<event>
 6    1  0.1412458E-005  0.1005878E+04  0.7818608E-02  0.9806570E-01
          4   -1    0    0  502    0 -0.00000000000E+00  0.00000000000E+00  0.17394414733E+04  0.17394414733E+04  0.00000000000E+00 0.  1.
         21   -1    0    0  501  502  0.00000000000E+00 -0.00000000000E+00 -0.20599865464E+03  0.20599865464E+03  0.00000000000E+00 0.  1.
    9000010    2    1    2  501    0 -0.10348259654E+03 -0.14176340097E+03  0.14049814471E+04  0.17279364618E+04  0.99044739368E+03 0.  0.
        -13    1    3    3    0    0  0.19223197484E+03 -0.16754106988E+03 -0.35261171733E+02  0.25742281104E+03  0.10566000000E+00 0.  1.
          4    1    3    3  501    0 -0.29571457138E+03  0.25777668913E+02  0.14402426188E+04  0.14705136508E+04  0.00000000000E+00 0.  1.
         13    1    1    2    0    0  0.10348259654E+03  0.14176340097E+03  0.12846137156E+03  0.21750366615E+03  0.10566000000E+00 0. -1.
<mgrwt>
<rscale>  1 0.65011138E+03</rscale>
<asrwt>0</asrwt>
<pdfrwt beam="2">  1       21 0.31692102E-01 0.10058785E+04</pdfrwt>
<pdfrwt beam="1">  1        4 0.26760637E+00 0.10058785E+04</pdfrwt>
<totfact> 0.19227472E+01</totfact>
</mgrwt>
</event>
<event>
 6    1  0.1412458E-005  0.1124415E+04  0.7818608E-02  0.9357750E-01
         21   -1    0    0  501  502  0.00000000000E+00  0.00000000000E+00  0.81115457869E+03  0.81115457869E+03  0.00000000000E+00 0. -1.
          4   -1    0    0  502    0 -0.00000000000E+00 -0.00000000000E+00 -0.14138514726E+04  0.14138514726E+04  0.00000000000E+00 0.  1.
    9000010    2    1    2  501    0 -0.33871244150E+03  0.48118079246E+03  0.28501390409E+03  0.11599748099E+04  0.95814798495E+03 0.  0.
        -13    1    3    3    0    0 -0.52432122925E+02  0.72279239979E+03  0.70049287311E+02  0.72806929240E+03  0.10566000000E+00 0.  1.
          4    1    3    3  501    0 -0.28628031857E+03 -0.24161160733E+03  0.21496461677E+03  0.43190551752E+03  0.00000000000E+00 0.  1.
         13    1    1    2    0    0  0.33871244150E+03 -0.48118079246E+03 -0.88771079800E+03  0.10650312414E+04  0.10566000000E+00 0. -1.
<mgrwt>
<rscale>  1 0.95635773E+03</rscale>
<asrwt>0</asrwt>
<pdfrwt beam="1">  1       21 0.12479301E+00 0.11244148E+04</pdfrwt>
<pdfrwt beam="2">  1        4 0.21751561E+00 0.11244148E+04</pdfrwt>
<totfact> 0.17207554E+00</totfact>
</mgrwt>
</event>
<event>
 6    1  0.1412458E-005  0.1093129E+04  0.7818608E-02  0.9456577E-01
         21   -1    0    0  501  502  0.00000000000E+00  0.00000000000E+00  0.91702654544E+03  0.91702654544E+03  0.00000000000E+00 0.  1.
          4   -1    0    0  502    0 -0.00000000000E+00 -0.00000000000E+00 -0.10964893215E+04  0.10964893215E+04  0.00000000000E+00 0.  1.
    9000010    2    1    2  501    0 -0.37141904487E+03 -0.25414007478E+03  0.49717395239E+03  0.12008803041E+04  0.99618887838E+03 0.  0.
        -13    1    3    3    0    0  0.14300666643E+03  0.13140235924E+03 -0.18167630317E+03  0.26593942347E+03  0.10566000000E+00 0.  1.
          4    1    3    3  501    0 -0.51442571130E+03 -0.38554243402E+03  0.67885025555E+03  0.93494088066E+03  0.00000000000E+00 0.  1.
         13    1    1    2    0    0  0.37141904487E+03  0.25414007478E+03 -0.67663672842E+03  0.81263556279E+03  0.10566000000E+00 0. -1.
<mgrwt>
<rscale>  1 0.87562328E+03</rscale>
<asrwt>0</asrwt>
<pdfrwt beam="1">  1       21 0.14108101E+00 0.10931293E+04</pdfrwt>
<pdfrwt beam="2">  1        4 0.16869066E+00 0.10931293E+04</pdfrwt>
<totfact> 0.26638824E+00</totfact>
</mgrwt>
</event>
<event>
 6    1  0.1412458E-005  0.1058600E+04  0.7818608E-02  0.9525554E-01
          4   -1    0    0  502    0 -0.00000000000E+00  0.00000000000E+00  0.53461936674E+03  0.53461936674E+03  0.00000000000E+00 0.  1.
         21   -1    0    0  501  502  0.00000000000E+00 -0.00000000000E+00 -0.11349553284E+04  0.11349553284E+04  0.00000000000E+00 0.  1.
    9000010    2    1    2  501    0  0.38901570010E+03 -0.78397495410E+01 -0.69850886424E+03  0.12682860128E+04  0.98449992400E+03 0.  0.
        -13    1    3    3    0    0 -0.12759565321E+02 -0.19170278615E+03  0.19360014519E+03  0.27275225408E+03  0.10566000000E+00 0.  1.
          4    1    3    3  501    0  0.40177526542E+03  0.18386303661E+03 -0.89210900943E+03  0.99553375876E+03  0.00000000000E+00 0.  1.
         13    1    1    2    0    0 -0.38901570010E+03  0.78397495410E+01  0.98172902551E+02  0.40128868232E+03  0.10566000000E+00 0. -1.
<mgrwt>
<rscale>  1 0.82425742E+03</rscale>
<asrwt>0</asrwt>
<pdfrwt beam="2">  1       21 0.17460851E+00 0.10586004E+04</pdfrwt>
<pdfrwt beam="1">  1        4 0.82249135E-01 0.10586004E+04</pdfrwt>
<totfact> 0.89462891E+00</totfact>
</mgrwt>
</event>
<event>
 6    1  0.1412458E-005  0.1082659E+04  0.7818608E-02  0.9781703E-01
          4   -1    0    0  502    0 -0.00000000000E+00  0.00000000000E+00  0.66844883321E+03  0.66844883321E+03  0.00000000000E+00 0.  1.
         21   -1    0    0  501  502  0.00000000000E+00 -0.00000000000E+00 -0.66684638733E+03  0.66684638733E+03  0.00000000000E+00 0.  1.
    9000010    2    1    2  501    0  0.14383511962E+03  0.51426704298E+02 -0.18050813889E+03  0.10976031428E+04  0.10718284487E+04 0.  0.
        -13    1    3    3    0    0 -0.41340063358E+02 -0.23319262914E+02 -0.61635906579E+03  0.61818387071E+03  0.10566000000E+00 0.  1.
          4    1    3    3  501    0  0.18517518298E+03  0.74745967213E+02  0.43585092690E+03  0.47941927213E+03  0.00000000000E+00 0.  1.
         13    1    1    2    0    0 -0.14383511962E+03 -0.51426704298E+02  0.18211058477E+03  0.23769207770E+03  0.10566000000E+00 0. -1.
<mgrwt>
<rscale>  1 0.66353762E+03</rscale>
<asrwt>0</asrwt>
<pdfrwt beam="2">  1       21 0.10259175E+00 0.10826585E+04</pdfrwt>
<pdfrwt beam="1">  1        4 0.10283828E+00 0.10826585E+04</pdfrwt>
<totfact> 0.22120257E+01</totfact>
</mgrwt>
</event>
<event>
 6    1  0.1412458E-005  0.1066229E+04  0.7818608E-02  0.9663393E-01
          4   -1    0    0  502    0 -0.00000000000E+00  0.00000000000E+00  0.51824839803E+03  0.51824839803E+03  0.00000000000E+00 0.  1.
         21   -1    0    0  501  502  0.00000000000E+00 -0.00000000000E+00 -0.13638579437E+04  0.13638579437E+04  0.00000000000E+00 0.  1.
    9000010    2    1    2  501    0  0.19262473996E+03 -0.13869682462E+03 -0.11015403545E+04  0.15330480519E+04  0.10394729805E+04 0.  0.
        -13    1    3    3    0    0 -0.21028843429E+03 -0.42568219256E+03 -0.86045408016E+03  0.98275520344E+03  0.10566000000E+00 0.  1.
          4    1    3    3  501    0  0.40291317424E+03  0.28698536794E+03 -0.24108627438E+03  0.55029284848E+03  0.00000000000E+00 0.  1.
         13    1    1    2    0    0 -0.19262473996E+03  0.13869682462E+03  0.25593080886E+03  0.34905828982E+03  0.10566000000E+00 0. -1.
<mgrwt>
<rscale>  1 0.73238792E+03</rscale>
<asrwt>0</asrwt>
<pdfrwt beam="2">  1       21 0.20982430E+00 0.10662294E+04</pdfrwt>
<pdfrwt beam="1">  1        4 0.79730524E-01 0.10662294E+04</pdfrwt>
<totfact> 0.54255591E+00</totfact>
</mgrwt>
</event>
<event>
 6    1  0.1412458E-005  0.1029929E+04  0.7818608E-02  0.9941964E-01
         21   -1    0    0  501  502  0.00000000000E+00  0.00000000000E+00  0.83320054354E+03  0.83320054354E+03  0.00000000000E+00 0.  1.
          4   -1    0    0  502    0 -0.00000000000E+00 -0.00000000000E+00 -0.39821202133E+03  0.39821202133E+03  0.00000000000E+00 0.  1.
    9000010    2    1    2  501    0  0.30608910420E+02 -0.10098835030E+03  0.32740858443E+03  0.10807174871E+04  0.10245088352E+04 0.  0.
        -13    1    3    3    0    0 -0.13905713886E+03  0.33077848874E+03 -0.17300728011E+03  0.39835013069E+03  0.10566000000E+00 0.  1.
          4    1    3    3  501    0  0.16966604928E+03 -0.43176683904E+03  0.50041586454E+03  0.68236735639E+03  0.00000000000E+00 0.  1.
         13    1    1    2    0    0 -0.30608910420E+02  0.10098835030E+03  0.10757993779E+03  0.15069507779E+03  0.10566000000E+00 0. -1.
<mgrwt>
<rscale>  1 0.58269940E+03</rscale>
<asrwt>0</asrwt>
<pdfrwt beam="1">  1       21 0.12818470E+00 0.10299291E+04</pdfrwt>
<pdfrwt beam="2">  1        4 0.61263388E-01 0.10299291E+04</pdfrwt>
<totfact> 0.41278623E+01</totfact>
</mgrwt>
</event>
<event>
 6    1  0.1412458E-005  0.1005503E+04  0.7818608E-02  0.9791971E-01
         21   -1    0    0  501  502  0.00000000000E+00  0.00000000000E+00  0.24489682852E+04  0.24489682852E+04  0.00000000000E+00 0.  1.
          4   -1    0    0  502    0 -0.00000000000E+00 -0.00000000000E+00 -0.14452524853E+03  0.14452524853E+03  0.00000000000E+00 0.  1.
    9000010    2    1    2  501    0 -0.29305685466E+02  0.18199921234E+03  0.19506541072E+04  0.21945585086E+04  0.98845994620E+03 0.  0.
        -13    1    3    3    0    0 -0.11406952827E+03  0.55289275175E+03  0.77457299618E+03  0.95847044284E+03  0.10566000000E+00 0.  1.
          4    1    3    3  501    0  0.84763842806E+02 -0.37089353941E+03  0.11760811110E+04  0.12360880658E+04  0.00000000000E+00 0.  1.
         13    1    1    2    0    0  0.29305685466E+02 -0.18199921234E+03  0.35378892949E+03  0.39893502515E+03  0.10566000000E+00 0. -1.
<mgrwt>
<rscale>  1 0.65795230E+03</rscale>
<asrwt>0</asrwt>
<pdfrwt beam="1">  1       21 0.37676432E+00 0.10055027E+04</pdfrwt>
<pdfrwt beam="2">  1        4 0.22234655E-01 0.10055027E+04</pdfrwt>
<totfact> 0.67012250E+00</totfact>
</mgrwt>
</event>
<event>
 6    1  0.1412458E-005  0.1066466E+04  0.7818608E-02  0.9529331E-01
          4   -1    0    0  502    0 -0.00000000000E+00  0.00000000000E+00  0.15909828070E+04  0.15909828070E+04  0.00000000000E+00 0.  1.
         21   -1    0    0  501  502  0.00000000000E+00 -0.00000000000E+00 -0.77294415602E+03  0.77294415602E+03  0.00000000000E+00 0. -1.
    9000010    2    1    2  501    0 -0.16109709268E+03 -0.33927868977E+03  0.13451982960E+04  0.17166560730E+04  0.99814193125E+03 0.  0.
        -13    1    3    3    0    0 -0.39583209957E+03 -0.34046633146E+03  0.21887713934E+03  0.56613389512E+03  0.10566000000E+00 0.  1.
          4    1    3    3  501    0  0.23473500689E+03  0.11876416938E+01  0.11263211566E+04  0.11505221779E+04  0.00000000000E+00 0.  1.
         13    1    1    2    0    0  0.16109709268E+03  0.33927868977E+03 -0.52715964498E+03  0.64727089002E+03  0.10566000000E+00 0. -1.
<mgrwt>
<rscale>  1 0.82155506E+03</rscale>
<asrwt>0</asrwt>
<pdfrwt beam="2">  1       21 0.11891449E+00 0.10664659E+04</pdfrwt>
<pdfrwt beam="1">  1        4 0.24476658E+00 0.10664659E+04</pdfrwt>
<totfact> 0.13254175E+00</totfact>
</mgrwt>
</event>
<event>
 6    1  0.1412458E-005  0.9954224E+03  0.7818608E-02  0.1030416E+00
          4   -1    0    0  502    0 -0.00000000000E+00  0.00000000000E+00  0.63020045356E+03  0.63020045356E+03  0.00000000000E+00 0.  1.
         21   -1    0    0  501  502  0.00000000000E+00 -0.00000000000E+00 -0.47089913812E+03  0.47089913812E+03  0.00000000000E+00 0.  1.
    9000010    2    1    2  501    0  0.15521150405E+02  0.35095871976E+02  0.62977141125E+02  0.99741263946E+03  0.99468247532E+03 0.  0.
        -13    1    3    3    0    0 -0.24112038965E+03  0.39758308644E+03 -0.17097287452E+03  0.49542213103E+03  0.10566000000E+00 0.  1.
          4    1    3    3  501    0  0.25664154006E+03 -0.36248721447E+03  0.23395001564E+03  0.50199050843E+03  0.00000000000E+00 0.  1.
         13    1    1    2    0    0 -0.15521150405E+02 -0.35095871976E+02  0.96324174318E+02  0.10368695223E+03  0.10566000000E+00 0. -1.
<mgrwt>
<rscale>  1 0.44108019E+03</rscale>
<asrwt>0</asrwt>
<pdfrwt beam="2">  1       21 0.72446021E-01 0.99542245E+03</pdfrwt>
<pdfrwt beam="1">  1        4 0.96953916E-01 0.99542245E+03</pdfrwt>
<totfact> 0.59126677E+01</totfact>
</mgrwt>
</event>
<event>
 6    1  0.1412458E-005  0.9384528E+03  0.7818608E-02  0.9827315E-01
         21   -1    0    0  501  502  0.00000000000E+00  0.00000000000E+00  0.14808703097E+03  0.14808703097E+03  0.00000000000E+00 0.  1.
          4   -1    0    0  502    0 -0.00000000000E+00 -0.00000000000E+00 -0.22901381539E+04  0.22901381539E+04  0.00000000000E+00 0.  1.
    9000010    2    1    2  501    0 -0.11669452189E+03 -0.16481351192E+03 -0.15421697130E+04  0.18052648209E+04  0.91646742708E+03 0.  0.
        -13    1    3    3    0    0 -0.19442342775E+03  0.18233787767E+03 -0.49901185784E+02  0.27117837377E+03  0.10566000000E+00 0.  1.
          4    1    3    3  501    0  0.77728905862E+02 -0.34715138960E+03 -0.14922685272E+04  0.15340864472E+04  0.00000000000E+00 0.  1.
         13    1    1    2    0    0  0.11669452189E+03  0.16481351192E+03 -0.59988140993E+03  0.63296036392E+03  0.10566000000E+00 0. -1.
<mgrwt>
<rscale>  1 0.63917049E+03</rscale>
<asrwt>0</asrwt>
<pdfrwt beam="1">  1       21 0.22782620E-01 0.93845280E+03</pdfrwt>
<pdfrwt beam="2">  1        4 0.35232895E+00 0.93845280E+03</pdfrwt>
<totfact> 0.11046359E+01</totfact>
</mgrwt>
</event>
<event>
 6    1  0.1412458E-005  0.1001374E+04  0.7818608E-02  0.1009030E+00
         21   -1    0    0  501  502  0.00000000000E+00  0.00000000000E+00  0.58249603106E+03  0.58249603106E+03  0.00000000000E+00 0.  1.
          4   -1    0    0  502    0 -0.00000000000E+00 -0.00000000000E+00 -0.55319031404E+03  0.55319031404E+03  0.00000000000E+00 0.  1.
    9000010    2    1    2  501    0 -0.69382980269E+02  0.19401074243E+02  0.13221532971E+03  0.10100646942E+04  0.99877895122E+03 0.  0.
        -13    1    3    3    0    0 -0.45416914439E+03  0.18958630084E+03 -0.13662937590E+03  0.51076430445E+03  0.10566000000E+00 0.  1.
          4    1    3    3  501    0  0.38478616412E+03 -0.17018522659E+03  0.26884470560E+03  0.49930038973E+03  0.00000000000E+00 0.  1.
         13    1    1    2    0    0  0.69382980269E+02 -0.19401074243E+02 -0.10290961268E+03  0.12562165092E+03  0.10566000000E+00 0. -1.
<mgrwt>
<rscale>  1 0.51861782E+03</rscale>
<asrwt>0</asrwt>
<pdfrwt beam="1">  1       21 0.89614775E-01 0.10013740E+04</pdfrwt>
<pdfrwt beam="2">  1        4 0.85106201E-01 0.10013740E+04</pdfrwt>
<totfact> 0.48673760E+01</totfact>
</mgrwt>
</event>
<event>
 6    1  0.1412458E-005  0.1043341E+04  0.7818608E-02  0.9665432E-01
         21   -1    0    0  501  502  0.00000000000E+00  0.00000000000E+00  0.26324134470E+03  0.26324134470E+03  0.00000000000E+00 0.  1.
          4   -1    0    0  502    0 -0.00000000000E+00 -0.00000000000E+00 -0.16616690813E+04  0.16616690813E+04  0.00000000000E+00 0.  1.
    9000010    2    1    2  501    0 -0.15946116643E+03  0.19460216455E+03 -0.95163009026E+03  0.14121473092E+04  0.10125523829E+04 0.  0.
        -13    1    3    3    0    0 -0.33904162787E+03  0.50449721701E+03 -0.84025857930E+03  0.10370637197E+04  0.10566000000E+00 0.  1.
          4    1    3    3  501    0  0.17958046144E+03 -0.30989505246E+03 -0.11137151097E+03  0.37508358951E+03  0.00000000000E+00 0.  1.
         13    1    1    2    0    0  0.15946116643E+03 -0.19460216455E+03 -0.44679764637E+03  0.51276311686E+03  0.10566000000E+00 0. -1.
<mgrwt>
<rscale>  1 0.73112782E+03</rscale>
<asrwt>0</asrwt>
<pdfrwt beam="1">  1       21 0.40498668E-01 0.10433409E+04</pdfrwt>
<pdfrwt beam="2">  1        4 0.25564140E+00 0.10433409E+04</pdfrwt>
<totfact> 0.13680428E+01</totfact>
</mgrwt>
</event>
<event>
 6    1  0.1412458E-005  0.1005476E+04  0.7818608E-02  0.9833413E-01
          4   -1    0    0  502    0 -0.00000000000E+00  0.00000000000E+00  0.37856866742E+03  0.37856866742E+03  0.00000000000E+00 0.  1.
         21   -1    0    0  501  502  0.00000000000E+00 -0.00000000000E+00 -0.95259871160E+03  0.95259871160E+03  0.00000000000E+00 0.  1.
    9000010    2    1    2  501    0  0.14354822703E+03  0.72807253956E+02 -0.59580458956E+03  0.11687446845E+04  0.99250896159E+03 0.  0.
        -13    1    3    3    0    0  0.22917703130E+03 -0.39719592014E+03 -0.79660098549E+02  0.46543791543E+03  0.10566000000E+00 0.  1.
          4    1    3    3  501    0 -0.85628804278E+02  0.47000317410E+03 -0.51614449101E+03  0.70330676905E+03  0.00000000000E+00 0.  1.
         13    1    1    2    0    0 -0.14354822703E+03 -0.72807253956E+02  0.21774545383E+02  0.16242269454E+03  0.10566000000E+00 0. -1.
<mgrwt>
<rscale>  1 0.63599803E+03</rscale>
<asrwt>0</asrwt>
<pdfrwt beam="2">  1       21 0.14655365E+00 0.10054755E+04</pdfrwt>
<pdfrwt beam="1">  1        4 0.58241334E-01 0.10054755E+04</pdfrwt>
<totfact> 0.32156586E+01</totfact>
</mgrwt>
</event>
<event>
 6    1  0.1412458E-005  0.1022656E+04  0.7818608E-02  0.9755119E-01
         21   -1    0    0  501  502  0.00000000000E+00  0.00000000000E+00  0.33144083224E+03  0.33144083224E+03  0.00000000000E+00 0.  1.
          4   -1    0    0  502    0 -0.00000000000E+00 -0.00000000000E+00 -0.11399358132E+04  0.11399358132E+04  0.00000000000E+00 0.  1.
    9000010    2    1    2  501    0  0.62012865351E+01 -0.19780091861E+03 -0.60839473397E+03  0.11899449852E+04  0.10033251000E+04 0.  0.
        -13    1    3    3    0    0 -0.13768735525E+03 -0.40451827490E+03  0.99361873343E+02  0.43870905571E+03  0.10566000000E+00 0.  1.
          4    1    3    3  501    0  0.14388864179E+03  0.20671735629E+03 -0.70775660731E+03  0.75123592953E+03  0.00000000000E+00 0.  1.
         13    1    1    2    0    0 -0.62012865351E+01  0.19780091861E+03 -0.20010024699E+03  0.28143166021E+03  0.10566000000E+00 0. -1.
<mgrwt>
<rscale>  1 0.67827771E+03</rscale>
<asrwt>0</asrwt>
<pdfrwt beam="1">  1       21 0.50990898E-01 0.10226558E+04</pdfrwt>
<pdfrwt beam="2">  1        4 0.17537474E+00 0.10226558E+04</pdfrwt>
<totfact> 0.27861529E+01</totfact>
</mgrwt>
</event>
<event>
 6    1  0.1412458E-005  0.1013208E+04  0.7818608E-02  0.9851029E-01
          4   -1    0    0  502    0 -0.00000000000E+00  0.00000000000E+00  0.19081192761E+04  0.19081192761E+04  0.00000000000E+00 0.  1.
         21   -1    0    0  501  502  0.00000000000E+00 -0.00000000000E+00 -0.26115171766E+03  0.26115171766E+03  0.00000000000E+00 0.  1.
    9000010    2    1    2  501    0 -0.84664933006E+02 -0.12203989236E+03  0.75128563045E+03  0.12613568935E+04  0.10022620556E+04 0.  0.
        -13    1    3    3    0    0 -0.44504897198E+03 -0.21409324585E+03  0.89075618205E+02  0.50183561283E+03  0.10566000000E+00 0.  1.
          4    1    3    3  501    0  0.36038403898E+03  0.92053353489E+02  0.66221001224E+03  0.75952128065E+03  0.00000000000E+00 0.  1.
         13    1    1    2    0    0  0.84664933006E+02  0.12203989236E+03  0.89568192802E+03  0.90791410031E+03  0.10566000000E+00 0. -1.
<mgrwt>
<rscale>  1 0.62694497E+03</rscale>
<asrwt>0</asrwt>
<pdfrwt beam="2">  1       21 0.40177189E-01 0.10132083E+04</pdfrwt>
<pdfrwt beam="1">  1        4 0.29355680E+00 0.10132083E+04</pdfrwt>
<totfact> 0.81520858E+00</totfact>
</mgrwt>
</event>
<event>
 6    1  0.1412458E-005  0.1436262E+04  0.7818608E-02  0.9013360E-01
          4   -1    0    0  502    0 -0.00000000000E+00  0.00000000000E+00  0.12964897547E+04  0.12964897547E+04  0.00000000000E+00 0.  1.
         21   -1    0    0  501  502  0.00000000000E+00 -0.00000000000E+00 -0.21229543786E+04  0.21229543786E+04  0.00000000000E+00 0. -1.
    9000010    2    1    2  501    0  0.75768808457E+03  0.69278752252E+03 -0.15880039123E+04  0.21411687781E+04  0.10043911221E+04 0.  0.
        -13    1    3    3    0    0  0.72504593213E+03  0.86203159104E+03 -0.92924855494E+03  0.14602372943E+04  0.10566000000E+00 0.  1.
          4    1    3    3  501    0  0.32642152442E+02 -0.16924406852E+03 -0.65875535735E+03  0.68093148384E+03  0.00000000000E+00 0.  1.
         13    1    1    2    0    0 -0.75768808457E+03 -0.69278752252E+03  0.76153928837E+03  0.12782753552E+04  0.10566000000E+00 0. -1.
<mgrwt>
<rscale>  1 0.13206344E+04</rscale>
<asrwt>0</asrwt>
<pdfrwt beam="2">  1       21 0.32660836E+00 0.14362616E+04</pdfrwt>
<pdfrwt beam="1">  1        4 0.19945996E+00 0.14362616E+04</pdfrwt>
<totfact> 0.84584431E-02</totfact>
</mgrwt>
</event>
<event>
 6    1  0.1412458E-005  0.1213468E+04  0.7818608E-02  0.9252523E-01
          4   -1    0    0  502    0 -0.00000000000E+00  0.00000000000E+00  0.13700371953E+04  0.13700371953E+04  0.00000000000E+00 0.  1.
         21   -1    0    0  501  502  0.00000000000E+00 -0.00000000000E+00 -0.66145716890E+03  0.66145716890E+03  0.00000000000E+00 0.  1.
    9000010    2    1    2  501    0  0.58167996400E+03 -0.36623966878E+03  0.50744922516E+03  0.13152983814E+04  0.10000110201E+04 0.  0.
        -13    1    3    3    0    0  0.50165821657E+03  0.76491954078E+02 -0.14042719543E+03  0.52652805592E+03  0.10566000000E+00 0.  1.
          4    1    3    3  501    0  0.80021747430E+02 -0.44273162286E+03  0.64787642059E+03  0.78877032544E+03  0.00000000000E+00 0.  1.
         13    1    1    2    0    0 -0.58167996400E+03  0.36623966878E+03  0.20113080127E+03  0.71619598288E+03  0.10566000000E+00 0. -1.
<mgrwt>
<rscale>  1 0.10527364E+04</rscale>
<asrwt>0</asrwt>
<pdfrwt beam="2">  1       21 0.10176264E+00 0.12134682E+04</pdfrwt>
<pdfrwt beam="1">  1        4 0.21077495E+00 0.12134682E+04</pdfrwt>
<totfact> 0.31732119E+00</totfact>
</mgrwt>
</event>
<event>
 6    1  0.1412458E-005  0.1046790E+04  0.7818608E-02  0.9696348E-01
         21   -1    0    0  501  502  0.00000000000E+00  0.00000000000E+00  0.63208365211E+03  0.63208365211E+03  0.00000000000E+00 0.  1.
          4   -1    0    0  502    0 -0.00000000000E+00 -0.00000000000E+00 -0.82645024662E+03  0.82645024662E+03  0.00000000000E+00 0.  1.
    9000010    2    1    2  501    0  0.21925909148E+03  0.48152283645E+02  0.13967755146E+03  0.10560681309E+04  0.10224367400E+04 0.  0.
        -13    1    3    3    0    0  0.22761332403E+03 -0.47311479345E+03  0.54830660656E+02  0.52787483892E+03  0.10566000000E+00 0.  1.
          4    1    3    3  501    0 -0.83542325486E+01  0.52126707709E+03  0.84846890802E+02  0.52819329202E+03  0.00000000000E+00 0.  1.
         13    1    1    2    0    0 -0.21925909148E+03 -0.48152283645E+02 -0.33404414597E+03  0.40246576778E+03  0.10566000000E+00 0. -1.
<mgrwt>
<rscale>  1 0.71234648E+03</rscale>
<asrwt>0</asrwt>
<pdfrwt beam="1">  1       21 0.97243640E-01 0.10467904E+04</pdfrwt>
<pdfrwt beam="2">  1        4 0.12714619E+00 0.10467904E+04</pdfrwt>
<totfact> 0.14946686E+01</totfact>
</mgrwt>
</event>
<event>
 6    1  0.1412458E-005  0.1034184E+04  0.7818608E-02  0.9642689E-01
         21   -1    0    0  501  502  0.00000000000E+00  0.00000000000E+00  0.43650665228E+03  0.43650665228E+03  0.00000000000E+00 0.  1.
          4   -1    0    0  502    0 -0.00000000000E+00 -0.00000000000E+00 -0.10670790421E+04  0.10670790421E+04  0.00000000000E+00 0.  1.
    9000010    2    1    2  501    0 -0.26852547669E+03  0.75777855503E+02 -0.65394846804E+03  0.12235952174E+04  0.99583554971E+03 0.  0.
        -13    1    3    3    0    0 -0.13850998999E+03 -0.30463616763E+03 -0.74028541401E+03  0.81241043649E+03  0.10566000000E+00 0.  1.
          4    1    3    3  501    0 -0.13001548670E+03  0.38041402313E+03  0.86336945967E+02  0.41118478087E+03  0.00000000000E+00 0.  1.
         13    1    1    2    0    0  0.26852547669E+03 -0.75777855503E+02  0.23376078238E+02  0.27999047701E+03  0.10566000000E+00 0. -1.
<mgrwt>
<rscale>  1 0.74534016E+03</rscale>
<asrwt>0</asrwt>
<pdfrwt beam="1">  1       21 0.67154870E-01 0.10341841E+04</pdfrwt>
<pdfrwt beam="2">  1        4 0.16416600E+00 0.10341841E+04</pdfrwt>
<totfact> 0.18186686E+01</totfact>
</mgrwt>
</event>
<event>
 6    1  0.1412458E-005  0.9963199E+03  0.7818608E-02  0.1012425E+00
          4   -1    0    0  502    0 -0.00000000000E+00  0.00000000000E+00  0.14317301108E+04  0.14317301108E+04  0.00000000000E+00 0.  1.
         21   -1    0    0  501  502  0.00000000000E+00 -0.00000000000E+00 -0.20323985508E+03  0.20323985508E+03  0.00000000000E+00 0.  1.
    9000010    2    1    2  501    0  0.64022199935E+02 -0.15521325625E+02  0.12082521547E+04  0.15660544703E+04  0.99413961845E+03 0.  0.
        -13    1    3    3    0    0 -0.28981357218E+03  0.28391516837E+03  0.19151595189E+03  0.44864027956E+03  0.10566000000E+00 0.  1.
          4    1    3    3  501    0  0.35383577211E+03 -0.29943649399E+03  0.10167362028E+04  0.11174141908E+04  0.00000000000E+00 0.  1.
         13    1    1    2    0    0 -0.64022199935E+02  0.15521325625E+02  0.20238100998E+02  0.68915495570E+02  0.10566000000E+00 0. -1.
<mgrwt>
<rscale>  1 0.50522221E+03</rscale>
<asrwt>0</asrwt>
<pdfrwt beam="2">  1       21 0.31267671E-01 0.99631990E+03</pdfrwt>
<pdfrwt beam="1">  1        4 0.22026617E+00 0.99631990E+03</pdfrwt>
<totfact> 0.39013051E+01</totfact>
</mgrwt>
</event>
<event>
 6    1  0.1412458E-005  0.1131125E+04  0.7818608E-02  0.9377638E-01
          4   -1    0    0  502    0 -0.00000000000E+00  0.00000000000E+00  0.43084079918E+03  0.43084079918E+03  0.00000000000E+00 0.  1.
         21   -1    0    0  501  502  0.00000000000E+00 -0.00000000000E+00 -0.16469922457E+04  0.16469922457E+04  0.00000000000E+00 0.  1.
    9000010    2    1    2  501    0  0.53595553605E+03  0.47845269740E+02 -0.95189079822E+03  0.14783572673E+04  0.99494050662E+03 0.  0.
        -13    1    3    3    0    0  0.32296952356E+03  0.39384394928E+03 -0.78847530747E+02  0.51540208945E+03  0.10566000000E+00 0.  1.
          4    1    3    3  501    0  0.21298601249E+03 -0.34599867954E+03 -0.87304326748E+03  0.96295517790E+03  0.00000000000E+00 0.  1.
         13    1    1    2    0    0 -0.53595553605E+03 -0.47845269740E+02 -0.26426064833E+03  0.59947577756E+03  0.10566000000E+00 0. -1.
<mgrwt>
<rscale>  1 0.93939037E+03</rscale>
<asrwt>0</asrwt>
<pdfrwt beam="2">  1       21 0.25338342E+00 0.11311252E+04</pdfrwt>
<pdfrwt beam="1">  1        4 0.66283200E-01 0.11311252E+04</pdfrwt>
<totfact> 0.42397876E+00</totfact>
</mgrwt>
</event>
<event>
 6    1  0.1412458E-005  0.9873023E+03  0.7818608E-02  0.9782505E-01
         21   -1    0    0  501  502  0.00000000000E+00  0.00000000000E+00  0.59792175584E+03  0.59792175584E+03  0.00000000000E+00 0.  1.
          4   -1    0    0  502    0 -0.00000000000E+00 -0.00000000000E+00 -0.63469083084E+03  0.63469083084E+03  0.00000000000E+00 0.  1.
    9000010    2    1    2  501    0 -0.19124170644E+03  0.61517606221E+02  0.95771939403E+02  0.99193658493E+03  0.96664787694E+03 0.  0.
        -13    1    3    3    0    0 -0.40708899209E+03  0.33387393117E+03 -0.17129113550E+03  0.55365504934E+03  0.10566000000E+00 0.  1.
          4    1    3    3  501    0  0.21584728565E+03 -0.27235632495E+03  0.26706307490E+03  0.43828153559E+03  0.00000000000E+00 0.  1.
         13    1    1    2    0    0  0.19124170644E+03 -0.61517606221E+02 -0.13254101440E+03  0.24067600176E+03  0.10566000000E+00 0. -1.
<mgrwt>
<rscale>  1 0.66309932E+03</rscale>
<asrwt>0</asrwt>
<pdfrwt beam="1">  1       21 0.91987962E-01 0.98730235E+03</pdfrwt>
<pdfrwt beam="2">  1        4 0.97644744E-01 0.98730235E+03</pdfrwt>
<totfact> 0.33079660E+01</totfact>
</mgrwt>
</event>
<event>
 6    1  0.1412458E-005  0.1007007E+04  0.7818608E-02  0.1016458E+00
          4   -1    0    0  502    0 -0.00000000000E+00  0.00000000000E+00  0.34659083279E+03  0.34659083279E+03  0.00000000000E+00 0.  1.
         21   -1    0    0  501  502  0.00000000000E+00 -0.00000000000E+00 -0.85342652868E+03  0.85342652868E+03  0.00000000000E+00 0.  1.
    9000010    2    1    2  501    0 -0.19891279218E+02 -0.52767297133E+02 -0.53127296252E+03  0.11385580920E+04  0.10054270325E+04 0.  0.
        -13    1    3    3    0    0 -0.41317013200E+03  0.89436511430E+02  0.46531308121E+02  0.42529239512E+03  0.10566000000E+00 0.  1.
          4    1    3    3  501    0  0.39327885278E+03 -0.14220380856E+03 -0.57780427064E+03  0.71326569690E+03  0.00000000000E+00 0.  1.
         13    1    1    2    0    0  0.19891279218E+02  0.52767297133E+02  0.24437266624E+02  0.61459269437E+02  0.10566000000E+00 0. -1.
<mgrwt>
<rscale>  1 0.48986779E+03</rscale>
<asrwt>0</asrwt>
<pdfrwt beam="2">  1       21 0.13129639E+00 0.10070072E+04</pdfrwt>
<pdfrwt beam="1">  1        4 0.53321667E-01 0.10070072E+04</pdfrwt>
<totfact> 0.52385106E+01</totfact>
</mgrwt>
</event>
<event>
 6    1  0.1412458E-005  0.1071848E+04  0.7818608E-02  0.9586574E-01
          4   -1    0    0  502    0 -0.00000000000E+00  0.00000000000E+00  0.22866519871E+03  0.22866519871E+03  0.00000000000E+00 0.  1.
         21   -1    0    0  501  502  0.00000000000E+00 -0.00000000000E+00 -0.21114738394E+04  0.21114738394E+04  0.00000000000E+00 0.  1.
    9000010    2    1    2  501    0  0.18134946314E+03  0.24342532823E+03 -0.13169604642E+04  0.16980115677E+04  0.10279663913E+04 0.  0.
        -13    1    3    3    0    0 -0.28283745526E+03  0.41488010520E+03 -0.97441371492E+03  0.10961772789E+04  0.10566000000E+00 0.  1.
          4    1    3    3  501    0  0.46418691840E+03 -0.17145477697E+03 -0.34254674924E+03  0.60183428880E+03  0.00000000000E+00 0.  1.
         13    1    1    2    0    0 -0.18134946314E+03 -0.24342532823E+03 -0.56584817649E+03  0.64212747037E+03  0.10566000000E+00 0. -1.
<mgrwt>
<rscale>  1 0.78191240E+03</rscale>
<asrwt>0</asrwt>
<pdfrwt beam="2">  1       21 0.32484214E+00 0.10718481E+04</pdfrwt>
<pdfrwt beam="1">  1        4 0.35179261E-01 0.10718481E+04</pdfrwt>
<totfact> 0.57918824E+00</totfact>
</mgrwt>
</event>
<event>
 6    1  0.1412458E-005  0.1118220E+04  0.7818608E-02  0.9594841E-01
          4   -1    0    0  502    0 -0.00000000000E+00  0.00000000000E+00  0.61419792965E+03  0.61419792965E+03  0.00000000000E+00 0.  1.
         21   -1    0    0  501  502  0.00000000000E+00 -0.00000000000E+00 -0.77335779977E+03  0.77335779977E+03  0.00000000000E+00 0.  1.
    9000010    2    1    2  501    0  0.25937026856E+03  0.15830914872E+02 -0.14089090312E+03  0.11270613525E+04  0.10876090712E+04 0.  0.
        -13    1    3    3    0    0  0.25415877126E+03  0.32366202646E+03 -0.50421480665E+03  0.65083513334E+03  0.10566000000E+00 0.  1.
          4    1    3    3  501    0  0.52114972969E+01 -0.30783111158E+03  0.36332390353E+03  0.47622621918E+03  0.00000000000E+00 0.  1.
         13    1    1    2    0    0 -0.25937026856E+03 -0.15830914872E+02 -0.18268967005E+02  0.26049437690E+03  0.10566000000E+00 0. -1.
<mgrwt>
<rscale>  1 0.77638566E+03</rscale>
<asrwt>0</asrwt>
<pdfrwt beam="2">  1       21 0.11897812E+00 0.11182205E+04</pdfrwt>
<pdfrwt beam="1">  1        4 0.94491990E-01 0.11182205E+04</pdfrwt>
<totfact> 0.18545843E+01</totfact>
</mgrwt>
</event>
<event>
 6    1  0.1412458E-005  0.9833721E+03  0.7818608E-02  0.1014220E+00
         21   -1    0    0  501  502  0.00000000000E+00  0.00000000000E+00  0.32055139899E+03  0.32055139899E+03  0.00000000000E+00 0.  1.
          4   -1    0    0  502    0 -0.00000000000E+00 -0.00000000000E+00 -0.10386064139E+04  0.10386064139E+04  0.00000000000E+00 0.  1.
    9000010    2    1    2  501    0  0.64405519984E+02 -0.75081177500E+01 -0.44654196397E+03  0.10800094816E+04  0.98123203781E+03 0.  0.
        -13    1    3    3    0    0 -0.42507844621E+03 -0.52808548492E+02 -0.40027752031E+03  0.58626148830E+03  0.10566000000E+00 0.  1.
          4    1    3    3  501    0  0.48948396620E+03  0.45300430742E+02 -0.46264443655E+02  0.49374799335E+03  0.00000000000E+00 0.  1.
         13    1    1    2    0    0 -0.64405519984E+02  0.75081177500E+01 -0.27151305095E+03  0.27914833125E+03  0.10566000000E+00 0. -1.
<mgrwt>
<rscale>  1 0.49831289E+03</rscale>
<asrwt>0</asrwt>
<pdfrwt beam="1">  1       21 0.49315600E-01 0.98337213E+03</pdfrwt>
<pdfrwt beam="2">  1        4 0.15978560E+00 0.98337213E+03</pdfrwt>
<totfact> 0.39010149E+01</totfact>
</mgrwt>
</event>
<event>
 6    1  0.1412458E-005  0.9690502E+03  0.7818608E-02  0.9802157E-01
          4   -1    0    0  502    0 -0.00000000000E+00  0.00000000000E+00  0.13683805446E+04  0.13683805446E+04  0.00000000000E+00 0.  1.
         21   -1    0    0  501  502  0.00000000000E+00 -0.00000000000E+00 -0.33538986295E+03  0.33538986295E+03  0.00000000000E+00 0.  1.
    9000010    2    1    2  501    0  0.70743902710E+02 -0.18617145181E+03  0.41445094743E+03  0.10539581860E+04  0.94836372814E+03 0.  0.
        -13    1    3    3    0    0  0.41242443700E+03  0.19551297120E+03  0.18109970748E+03  0.49103600006E+03  0.10566000000E+00 0.  1.
          4    1    3    3  501    0 -0.34168053429E+03 -0.38168442301E+03  0.23335123995E+03  0.56292218598E+03  0.00000000000E+00 0.  1.
         13    1    1    2    0    0 -0.70743902710E+02  0.18617145181E+03  0.61853973419E+03  0.64981222147E+03  0.10566000000E+00 0. -1.
<mgrwt>
<rscale>  1 0.65246915E+03</rscale>
<asrwt>0</asrwt>
<pdfrwt beam="2">  1       21 0.51598441E-01 0.96905019E+03</pdfrwt>
<pdfrwt beam="1">  1        4 0.21052008E+00 0.96905019E+03</pdfrwt>
<totfact> 0.15817464E+01</totfact>
</mgrwt>
</event>
<event>
 6    1  0.1412458E-005  0.1035941E+04  0.7818608E-02  0.9619746E-01
         21   -1    0    0  501  502  0.00000000000E+00  0.00000000000E+00  0.67658508946E+03  0.67658508946E+03  0.00000000000E+00 0.  1.
          4   -1    0    0  502    0 -0.00000000000E+00 -0.00000000000E+00 -0.66074557440E+03  0.66074557440E+03  0.00000000000E+00 0.  1.
    9000010    2    1    2  501    0  0.21071497090E+03 -0.21372962558E+03  0.35530532245E+02  0.10365501806E+04  0.99151031577E+03 0.  0.
        -13    1    3    3    0    0  0.23764176083E+03  0.49026949877E+02 -0.43434351335E+03  0.49752542353E+03  0.10566000000E+00 0.  1.
          4    1    3    3  501    0 -0.26926789928E+02 -0.26275657546E+03  0.46987404559E+03  0.53902475703E+03  0.00000000000E+00 0.  1.
         13    1    1    2    0    0 -0.21071497090E+03  0.21372962558E+03 -0.19691017193E+02  0.30078048330E+03  0.10566000000E+00 0. -1.
<mgrwt>
<rscale>  1 0.76002964E+03</rscale>
<asrwt>0</asrwt>
<pdfrwt beam="1">  1       21 0.10409001E+00 0.10359410E+04</pdfrwt>
<pdfrwt beam="2">  1        4 0.10165316E+00 0.10359410E+04</pdfrwt>
<totfact> 0.22035348E+01</totfact>
</mgrwt>
</event>
<event>
 6    1  0.1412458E-005  0.1360583E+04  0.7818608E-02  0.9086423E-01
          4   -1    0    0  502    0 -0.00000000000E+00  0.00000000000E+00  0.13765987866E+04  0.13765987866E+04  0.00000000000E+00 0.  1.
         21   -1    0    0  501  502  0.00000000000E+00 -0.00000000000E+00 -0.12726890623E+04  0.12726890623E+04  0.00000000000E+00 0. -1.
    9000010    2    1    2  501    0 -0.55980821412E+03  0.71838316002E+03  0.73004583262E+03  0.15440702059E+04  0.10108047694E+04 0.  0.
        -13    1    3    3    0    0 -0.65248407949E+01  0.74552863219E+03  0.18768319690E+03  0.76881760420E+03  0.10566000000E+00 0.  1.
          4    1    3    3  501    0 -0.55328337332E+03 -0.27145472168E+02  0.54236263572E+03  0.77525260173E+03  0.00000000000E+00 0.  1.
         13    1    1    2    0    0  0.55980821412E+03 -0.71838316002E+03 -0.62613610832E+03  0.11052176430E+04  0.10566000000E+00 0. -1.
<mgrwt>
<rscale>  1 0.12306746E+04</rscale>
<asrwt>0</asrwt>
<pdfrwt beam="2">  1       21 0.19579832E+00 0.13605829E+04</pdfrwt>
<pdfrwt beam="1">  1        4 0.21178443E+00 0.13605829E+04</pdfrwt>
<totfact> 0.49874982E-01</totfact>
</mgrwt>
</event>
<event>
 6    1  0.1412458E-005  0.1144980E+04  0.7818608E-02  0.9396576E-01
          4   -1    0    0  502    0 -0.00000000000E+00  0.00000000000E+00  0.13267863962E+04  0.13267863962E+04  0.00000000000E+00 0.  1.
         21   -1    0    0  501  502  0.00000000000E+00 -0.00000000000E+00 -0.52829621272E+03  0.52829621272E+03  0.00000000000E+00 0.  1.
    9000010    2    1    2  501    0  0.42219720099E+03  0.23815592656E+03  0.35677694432E+03  0.11992782794E+04  0.10373089614E+04 0.  0.
        -13    1    3    3    0    0  0.12792497196E+03 -0.24575311273E+03  0.53756690446E+03  0.60476241517E+03  0.10566000000E+00 0.  1.
          4    1    3    3  501    0  0.29427222903E+03  0.48390903930E+03 -0.18078996013E+03  0.59451586419E+03  0.00000000000E+00 0.  1.
         13    1    1    2    0    0 -0.42219720099E+03 -0.23815592656E+03  0.44171323921E+03  0.65580432961E+03  0.10566000000E+00 0. -1.
<mgrwt>
<rscale>  1 0.92358019E+03</rscale>
<asrwt>0</asrwt>
<pdfrwt beam="2">  1       21 0.81276341E-01 0.11449797E+04</pdfrwt>
<pdfrwt beam="1">  1        4 0.20412098E+00 0.11449797E+04</pdfrwt>
<totfact> 0.61052343E+00</totfact>
</mgrwt>
</event>
<event>
 6    1  0.1412458E-005  0.1048980E+04  0.7818608E-02  0.9598291E-01
          4   -1    0    0  502    0 -0.00000000000E+00  0.00000000000E+00  0.22539339788E+04  0.22539339788E+04  0.00000000000E+00 0.  1.
         21   -1    0    0  501  502  0.00000000000E+00 -0.00000000000E+00 -0.33067860550E+03  0.33067860550E+03  0.00000000000E+00 0.  1.
    9000010    2    1    2  501    0 -0.28577390907E+03  0.12290000915E+03  0.56554697790E+03  0.11917223383E+04  0.10017921980E+04 0.  0.
        -13    1    3    3    0    0  0.85989929339E+02 -0.18915420052E+03 -0.19796586294E+03  0.28699141725E+03  0.10566000000E+00 0.  1.
          4    1    3    3  501    0 -0.37176383841E+03  0.31205420967E+03  0.76351284084E+03  0.90473092102E+03  0.00000000000E+00 0.  1.
         13    1    1    2    0    0  0.28577390907E+03 -0.12290000915E+03  0.13577083954E+04  0.13928902461E+04  0.10566000000E+00 0. -1.
<mgrwt>
<rscale>  1 0.77409382E+03</rscale>
<asrwt>0</asrwt>
<pdfrwt beam="2">  1       21 0.50873633E-01 0.10489799E+04</pdfrwt>
<pdfrwt beam="1">  1        4 0.34675906E+00 0.10489799E+04</pdfrwt>
<totfact> 0.22677700E+00</totfact>
</mgrwt>
</event>
<event>
 6    1  0.1412458E-005  0.1039810E+04  0.7818608E-02  0.9633166E-01
         21   -1    0    0  501  502  0.00000000000E+00  0.00000000000E+00  0.20604767731E+03  0.20604767731E+03  0.00000000000E+00 0.  1.
          4   -1    0    0  502    0 -0.00000000000E+00 -0.00000000000E+00 -0.21266674043E+04  0.21266674043E+04  0.00000000000E+00 0.  1.
    9000010    2    1    2  501    0  0.81782880467E+02 -0.27148492513E+03 -0.14803076993E+04  0.18090098239E+04  0.10004064944E+04 0.  0.
        -13    1    3    3    0    0  0.25958193043E+03  0.24114653287E+03 -0.10746271512E+04  0.11315290337E+04  0.10566000000E+00 0.  1.
          4    1    3    3  501    0 -0.17779904996E+03 -0.51263145800E+03 -0.40568054814E+03  0.67748079017E+03  0.00000000000E+00 0.  1.
         13    1    1    2    0    0 -0.81782880467E+02  0.27148492513E+03 -0.44031202771E+03  0.52370525777E+03  0.10566000000E+00 0. -1.
<mgrwt>
<rscale>  1 0.75139373E+03</rscale>
<asrwt>0</asrwt>
<pdfrwt beam="1">  1       21 0.31699645E-01 0.10398104E+04</pdfrwt>
<pdfrwt beam="2">  1        4 0.32717958E+00 0.10398104E+04</pdfrwt>
<totfact> 0.81697753E+00</totfact>
</mgrwt>
</event>
<event>
 6    1  0.1412458E-005  0.7759359E+03  0.7818608E-02  0.1000235E+00
         21   -1    0    0  501  502  0.00000000000E+00  0.00000000000E+00  0.21904556443E+04  0.21904556443E+04  0.00000000000E+00 0.  1.
          4   -1    0    0  502    0 -0.00000000000E+00 -0.00000000000E+00 -0.10965581703E+03  0.10965581703E+03  0.00000000000E+00 0.  1.
    9000010    2    1    2  501    0 -0.19102303829E+03 -0.70992079357E+02  0.16763730186E+04  0.18472420196E+04  0.74869680455E+03 0.  0.
        -13    1    3    3    0    0  0.10727747696E+03  0.29935118016E+02 -0.27329430419E+02  0.11467989050E+03  0.10566000000E+00 0.  1.
          4    1    3    3  501    0 -0.29830051525E+03 -0.10092719737E+03  0.17037024490E+04  0.17325621291E+04  0.00000000000E+00 0.  1.
         13    1    1    2    0    0  0.19102303829E+03  0.70992079357E+02  0.40442680871E+03  0.45286944173E+03  0.10566000000E+00 0. -1.
<mgrwt>
<rscale>  1 0.55547464E+03</rscale>
<asrwt>0</asrwt>
<pdfrwt beam="1">  1       21 0.33699314E+00 0.77593594E+03</pdfrwt>
<pdfrwt beam="2">  1        4 0.16870127E-01 0.77593594E+03</pdfrwt>
<totfact> 0.20921939E+01</totfact>
</mgrwt>
</event>
<event>
 6    1  0.1412458E-005  0.1066329E+04  0.7818608E-02  0.9529418E-01
         21   -1    0    0  501  502  0.00000000000E+00  0.00000000000E+00  0.10315795866E+04  0.10315795866E+04  0.00000000000E+00 0. -1.
          4   -1    0    0  502    0 -0.00000000000E+00 -0.00000000000E+00 -0.52122016979E+03  0.52122016979E+03  0.00000000000E+00 0.  1.
    9000010    2    1    2  501    0 -0.28832240865E+03 -0.24073938077E+03  0.49824696762E+03  0.11769913166E+04  0.99798459802E+03 0.  0.
        -13    1    3    3    0    0 -0.26518418443E+03  0.29824589190E+03 -0.56627607254E+02  0.40308803105E+03  0.10566000000E+00 0.  1.
          4    1    3    3  501    0 -0.23138224218E+02 -0.53898527267E+03  0.55487457488E+03  0.77390328557E+03  0.00000000000E+00 0.  1.
         13    1    1    2    0    0  0.28832240865E+03  0.24073938077E+03  0.12112449154E+02  0.37580843973E+03  0.10566000000E+00 0. -1.
<mgrwt>
<rscale>  1 0.82149281E+03</rscale>
<asrwt>0</asrwt>
<pdfrwt beam="1">  1       21 0.15870455E+00 0.10663295E+04</pdfrwt>
<pdfrwt beam="2">  1        4 0.80187718E-01 0.10663295E+04</pdfrwt>
<totfact> 0.12514071E+01</totfact>
</mgrwt>
</event>
<event>
 6    1  0.1412458E-005  0.1116104E+04  0.7818608E-02  0.9421276E-01
         21   -1    0    0  501  502  0.00000000000E+00  0.00000000000E+00  0.48378691022E+03  0.48378691022E+03  0.00000000000E+00 0. -1.
          4   -1    0    0  502    0 -0.00000000000E+00 -0.00000000000E+00 -0.22103532942E+04  0.22103532942E+04  0.00000000000E+00 0.  1.
    9000010    2    1    2  501    0  0.45877291360E+03  0.13838192667E+03 -0.25272872197E+03  0.11443597009E+04  0.10080005825E+04 0.  0.
        -13    1    3    3    0    0  0.28385278797E+03 -0.40428623278E+03  0.54002231896E+02  0.49692656949E+03  0.10566000000E+00 0.  1.
          4    1    3    3  501    0  0.17492012562E+03  0.54266815944E+03 -0.30673095387E+03  0.64743313144E+03  0.00000000000E+00 0.  1.
         13    1    1    2    0    0 -0.45877291360E+03 -0.13838192667E+03 -0.14738376620E+04  0.15497805035E+04  0.10566000000E+00 0. -1.
<mgrwt>
<rscale>  1 0.90345206E+03</rscale>
<asrwt>0</asrwt>
<pdfrwt beam="1">  1       21 0.74428756E-01 0.11161036E+04</pdfrwt>
<pdfrwt beam="2">  1        4 0.34005435E+00 0.11161036E+04</pdfrwt>
<totfact> 0.10556206E+00</totfact>
</mgrwt>
</event>
<event>
 6    1  0.1412458E-005  0.9721126E+03  0.7818608E-02  0.1014960E+00
         21   -1    0    0  501  502  0.00000000000E+00  0.00000000000E+00  0.92802191609E+03  0.92802191609E+03  0.00000000000E+00 0.  1.
          4   -1    0    0  502    0 -0.00000000000E+00 -0.00000000000E+00 -0.35660272295E+03  0.35660272295E+03  0.00000000000E+00 0.  1.
    9000010    2    1    2  501    0 -0.51996256392E+02  0.40028636940E+02  0.65955715636E+03  0.11747419098E+04  0.96989536021E+03 0.  0.
        -13    1    3    3    0    0 -0.18871587421E+03  0.46954836589E+03  0.24459152069E+03  0.56206260527E+03  0.10566000000E+00 0.  1.
          4    1    3    3  501    0  0.13671961781E+03 -0.42951972895E+03  0.41496563567E+03  0.61267930456E+03  0.00000000000E+00 0.  1.
         13    1    1    2    0    0  0.51996256392E+02 -0.40028636940E+02 -0.88137963222E+02  0.10988272921E+03  0.10566000000E+00 0. -1.
<mgrwt>
<rscale>  1 0.49550221E+03</rscale>
<asrwt>0</asrwt>
<pdfrwt beam="1">  1       21 0.14277260E+00 0.97211260E+03</pdfrwt>
<pdfrwt beam="2">  1        4 0.54861958E-01 0.97211260E+03</pdfrwt>
<totfact> 0.39438254E+01</totfact>
</mgrwt>
</event>
<event>
 6    1  0.1412458E-005  0.1114509E+04  0.7818608E-02  0.9541328E-01
         21   -1    0    0  501  502  0.00000000000E+00  0.00000000000E+00  0.16792692301E+03  0.16792692301E+03  0.00000000000E+00 0.  1.
          4   -1    0    0  502    0 -0.00000000000E+00 -0.00000000000E+00 -0.30501690316E+04  0.30501690316E+04  0.00000000000E+00 0.  1.
    9000010    2    1    2  501    0  0.30547230254E+03  0.79498411589E+02 -0.21897636319E+04  0.24570704775E+04  0.10688766264E+04 0.  0.
        -13    1    3    3    0    0  0.41871621785E+03  0.49195723535E+03 -0.16243407113E+04  0.17480926606E+04  0.10566000000E+00 0.  1.
          4    1    3    3  501    0 -0.11324391531E+03 -0.41245882376E+03 -0.56542292066E+03  0.70897781690E+03  0.00000000000E+00 0.  1.
         13    1    1    2    0    0 -0.30547230254E+03 -0.79498411589E+02 -0.69247847670E+03  0.76102547718E+03  0.10566000000E+00 0. -1.
<mgrwt>
<rscale>  1 0.81304260E+03</rscale>
<asrwt>0</asrwt>
<pdfrwt beam="1">  1       21 0.25834912E-01 0.11145091E+04</pdfrwt>
<pdfrwt beam="2">  1        4 0.46925676E+00 0.11145091E+04</pdfrwt>
<totfact> 0.12579738E+00</totfact>
</mgrwt>
</event>
<event>
 6    1  0.1412458E-005  0.9942105E+03  0.7818608E-02  0.9807218E-01
          4   -1    0    0  502    0 -0.00000000000E+00  0.00000000000E+00  0.87065515829E+03  0.87065515829E+03  0.00000000000E+00 0.  1.
         21   -1    0    0  501  502  0.00000000000E+00 -0.00000000000E+00 -0.39698891388E+03  0.39698891388E+03  0.00000000000E+00 0.  1.
    9000010    2    1    2  501    0 -0.13684043741E+03 -0.11905435096E+03  0.40961517082E+03  0.10752855658E+04  0.97752504622E+03 0.  0.
        -13    1    3    3    0    0  0.15515985792E+03 -0.38097672558E+03 -0.10850168486E+03  0.42542975181E+03  0.10566000000E+00 0.  1.
          4    1    3    3  501    0 -0.29200029533E+03  0.26192237462E+03  0.51811685568E+03  0.64985581396E+03  0.00000000000E+00 0.  1.
         13    1    1    2    0    0  0.13684043741E+03  0.11905435096E+03  0.64051073588E+02  0.19235850640E+03  0.10566000000E+00 0. -1.
<mgrwt>
<rscale>  1 0.64976612E+03</rscale>
<asrwt>0</asrwt>
<pdfrwt beam="2">  1       21 0.61075218E-01 0.99421047E+03</pdfrwt>
<pdfrwt beam="1">  1        4 0.13394695E+00 0.99421047E+03</pdfrwt>
<totfact> 0.39008781E+01</totfact>
</mgrwt>
</event>
<event>
 6    1  0.1412458E-005  0.1047561E+04  0.7818608E-02  0.9575751E-01
         21   -1    0    0  501  502  0.00000000000E+00  0.00000000000E+00  0.84655810669E+03  0.84655810669E+03  0.00000000000E+00 0.  1.
          4   -1    0    0  502    0 -0.00000000000E+00 -0.00000000000E+00 -0.68793098039E+03  0.68793098039E+03  0.00000000000E+00 0.  1.
    9000010    2    1    2  501    0 -0.11672310903E+03  0.31665973263E+03  0.39811739558E+03  0.11206615014E+04  0.99170916579E+03 0.  0.
        -13    1    3    3    0    0 -0.22766426021E+03  0.42936190242E+03  0.65705278208E+03  0.81725212036E+03  0.10566000000E+00 0.  1.
          4    1    3    3  501    0  0.11094115118E+03 -0.11270216979E+03 -0.25893538649E+03  0.30340938100E+03  0.00000000000E+00 0.  1.
         13    1    1    2    0    0  0.11672310903E+03 -0.31665973263E+03 -0.23949026928E+03  0.41382758571E+03  0.10566000000E+00 0. -1.
<mgrwt>
<rscale>  1 0.78922158E+03</rscale>
<asrwt>0</asrwt>
<pdfrwt beam="1">  1       21 0.13023971E+00 0.10475613E+04</pdfrwt>
<pdfrwt beam="2">  1        4 0.10583554E+00 0.10475613E+04</pdfrwt>
<totfact> 0.11193413E+01</totfact>
</mgrwt>
</event>
<event>
 6    1  0.1412458E-005  0.1020920E+04  0.7818608E-02  0.9861396E-01
          4   -1    0    0  502    0 -0.00000000000E+00  0.00000000000E+00  0.55049267658E+03  0.55049267658E+03  0.00000000000E+00 0.  1.
         21   -1    0    0  501  502  0.00000000000E+00 -0.00000000000E+00 -0.75039379997E+03  0.75039379997E+03  0.00000000000E+00 0.  1.
    9000010    2    1    2  501    0  0.92131345641E+02  0.10592566634E+03 -0.36496696821E+03  0.10841950463E+04  0.10112218248E+04 0.  0.
        -13    1    3    3    0    0  0.44847795684E+03  0.31159509410E+03 -0.39144707709E+03  0.67190386646E+03  0.10566000000E+00 0.  1.
          4    1    3    3  501    0 -0.35634661120E+03 -0.20566942776E+03  0.26480108880E+02  0.41229117987E+03  0.00000000000E+00 0.  1.
         13    1    1    2    0    0 -0.92131345641E+02 -0.10592566634E+03  0.16506584482E+03  0.21669143022E+03  0.10566000000E+00 0. -1.
<mgrwt>
<rscale>  1 0.62169214E+03</rscale>
<asrwt>0</asrwt>
<pdfrwt beam="2">  1       21 0.11544520E+00 0.10209202E+04</pdfrwt>
<pdfrwt beam="1">  1        4 0.84691181E-01 0.10209202E+04</pdfrwt>
<totfact> 0.26167454E+01</totfact>
</mgrwt>
</event>
<event>
 6    1  0.1412458E-005  0.1047453E+04  0.7818608E-02  0.1011842E+00
          4   -1    0    0  502    0 -0.00000000000E+00  0.00000000000E+00  0.39323927086E+03  0.39323927086E+03  0.00000000000E+00 0.  1.
         21   -1    0    0  501  502  0.00000000000E+00 -0.00000000000E+00 -0.98380837152E+03  0.98380837152E+03  0.00000000000E+00 0.  1.
    9000010    2    1    2  501    0 -0.51205191572E+02  0.26632053872E+02 -0.69547252567E+03  0.12573146992E+04  0.10458618365E+04 0.  0.
        -13    1    3    3    0    0 -0.26976108879E+03  0.18199260416E+03 -0.87571347047E+03  0.93421969928E+03  0.10566000000E+00 0.  1.
          4    1    3    3  501    0  0.21855589722E+03 -0.15536055028E+03  0.18024094481E+03  0.32309499993E+03  0.00000000000E+00 0.  1.
         13    1    1    2    0    0  0.51205191572E+02 -0.26632053872E+02  0.10490342501E+03  0.11973294317E+03  0.10566000000E+00 0. -1.
<mgrwt>
<rscale>  1 0.50748927E+03</rscale>
<asrwt>0</asrwt>
<pdfrwt beam="2">  1       21 0.15135513E+00 0.10474532E+04</pdfrwt>
<pdfrwt beam="1">  1        4 0.60498350E-01 0.10474532E+04</pdfrwt>
<totfact> 0.26951537E+01</totfact>
</mgrwt>
</event>
<event>
 6    1  0.1412458E-005  0.1170766E+04  0.7818608E-02  0.9308631E-01
         21   -1    0    0  501  502  0.00000000000E+00  0.00000000000E+00  0.25593367041E+04  0.25593367041E+04  0.00000000000E+00 0. -1.
          4   -1    0    0  502    0 -0.00000000000E+00 -0.00000000000E+00 -0.51113883597E+03  0.51113883597E+03  0.00000000000E+00 0.  1.
    9000010    2    1    2  501    0  0.34525875211E+03  0.51851948215E+03  0.21414406759E+04  0.24405864295E+04  0.99127589106E+03 0.  0.
        -13    1    3    3    0    0  0.44337192475E+03 -0.90272699194E+02  0.14260417988E+04  0.14961026191E+04  0.10566000000E+00 0.  1.
          4    1    3    3  501    0 -0.98113172644E+02  0.60879218134E+03  0.71539887710E+03  0.94448381037E+03  0.00000000000E+00 0.  1.
         13    1    1    2    0    0 -0.34525875211E+03 -0.51851948215E+03 -0.93242807752E+02  0.62988911058E+03  0.10566000000E+00 0. -1.
<mgrwt>
<rscale>  1 0.99992147E+03</rscale>
<asrwt>0</asrwt>
<pdfrwt beam="1">  1       21 0.39374410E+00 0.11707664E+04</pdfrwt>
<pdfrwt beam="2">  1        4 0.78636745E-01 0.11707664E+04</pdfrwt>
<totfact> 0.36975721E-01</totfact>
</mgrwt>
</event>
<event>
 6    1  0.1412458E-005  0.9928034E+03  0.7818608E-02  0.9891877E-01
          4   -1    0    0  502    0 -0.00000000000E+00  0.00000000000E+00  0.45271900391E+03  0.45271900391E+03  0.00000000000E+00 0.  1.
         21   -1    0    0  501  502  0.00000000000E+00 -0.00000000000E+00 -0.92967137633E+03  0.92967137633E+03  0.00000000000E+00 0.  1.
    9000010    2    1    2  501    0  0.13804092353E+03 -0.89636440395E+01 -0.63021044613E+03  0.11759353202E+04  0.98311903015E+03 0.  0.
        -13    1    3    3    0    0  0.47678689412E+03 -0.26654485567E+03 -0.23315637929E+03  0.59391397597E+03  0.10566000000E+00 0.  1.
          4    1    3    3  501    0 -0.33874597058E+03  0.25758121163E+03 -0.39705406684E+03  0.58202134425E+03  0.00000000000E+00 0.  1.
         13    1    1    2    0    0 -0.13804092353E+03  0.89636440395E+01  0.15325807371E+03  0.20645506002E+03  0.10566000000E+00 0. -1.
<mgrwt>
<rscale>  1 0.60656573E+03</rscale>
<asrwt>0</asrwt>
<pdfrwt beam="2">  1       21 0.14302636E+00 0.99280344E+03</pdfrwt>
<pdfrwt beam="1">  1        4 0.69649079E-01 0.99280344E+03</pdfrwt>
<totfact> 0.23226591E+01</totfact>
</mgrwt>
</event>
<event>
 6    1  0.1412458E-005  0.1039162E+04  0.7818608E-02  0.9732771E-01
         21   -1    0    0  501  502  0.00000000000E+00  0.00000000000E+00  0.13837702712E+04  0.13837702712E+04  0.00000000000E+00 0.  1.
          4   -1    0    0  502    0 -0.00000000000E+00 -0.00000000000E+00 -0.31336155512E+03  0.31336155512E+03  0.00000000000E+00 0.  1.
    9000010    2    1    2  501    0  0.19312678522E+03 -0.63042788313E+02  0.10733324127E+04  0.14939547915E+04  0.10191104466E+04 0.  0.
        -13    1    3    3    0    0  0.51728350962E+03 -0.26677518650E+03  0.35997737046E+03  0.68435001853E+03  0.10566000000E+00 0.  1.
          4    1    3    3  501    0 -0.32415672440E+03  0.20373239818E+03  0.71335504225E+03  0.80960477293E+03  0.00000000000E+00 0.  1.
         13    1    1    2    0    0 -0.19312678522E+03  0.63042788313E+02 -0.29236966248E+01  0.20317703486E+03  0.10566000000E+00 0. -1.
<mgrwt>
<rscale>  1 0.69098715E+03</rscale>
<asrwt>0</asrwt>
<pdfrwt beam="1">  1       21 0.21288773E+00 0.10391624E+04</pdfrwt>
<pdfrwt beam="2">  1        4 0.48209471E-01 0.10391624E+04</pdfrwt>
<totfact> 0.15661657E+01</totfact>
</mgrwt>
</event>
<event>
 6    1  0.1412458E-005  0.1074636E+04  0.7818608E-02  0.9501867E-01
          4   -1    0    0  502    0 -0.00000000000E+00  0.00000000000E+00  0.47114757104E+03  0.47114757104E+03  0.00000000000E+00 0.  1.
         21   -1    0    0  501  502  0.00000000000E+00 -0.00000000000E+00 -0.25461965059E+04  0.25461965059E+04  0.00000000000E+00 0.  1.
    9000010    2    1    2  501    0 -0.21089141026E+03 -0.34456059705E+03 -0.23116155166E+04  0.25491977849E+04  0.99581416859E+03 0.  0.
        -13    1    3    3    0    0 -0.33605099410E+03  0.25503139946E+03 -0.12985438180E+04  0.13653524614E+04  0.10566000000E+00 0.  1.
          4    1    3    3  501    0  0.12515958384E+03 -0.59959199651E+03 -0.10130716986E+04  0.11838453236E+04  0.00000000000E+00 0.  1.
         13    1    1    2    0    0  0.21089141026E+03  0.34456059705E+03  0.23656658171E+03  0.46814629200E+03  0.10566000000E+00 0. -1.
<mgrwt>
<rscale>  1 0.84146334E+03</rscale>
<asrwt>0</asrwt>
<pdfrwt beam="2">  1       21 0.39172254E+00 0.10746362E+04</pdfrwt>
<pdfrwt beam="1">  1        4 0.72484241E-01 0.10746362E+04</pdfrwt>
<totfact> 0.46816845E-01</totfact>
</mgrwt>
</event>
<event>
 6    1  0.1412458E-005  0.1025620E+04  0.7818608E-02  0.9712237E-01
          4   -1    0    0  502    0 -0.00000000000E+00  0.00000000000E+00  0.42564204118E+03  0.42564204118E+03  0.00000000000E+00 0.  1.
         21   -1    0    0  501  502  0.00000000000E+00 -0.00000000000E+00 -0.11606384277E+04  0.11606384277E+04  0.00000000000E+00 0.  1.
    9000010    2    1    2  501    0  0.14267972584E+03 -0.17565459904E+03 -0.85033851858E+03  0.13322807426E+04  0.10003421108E+04 0.  0.
        -13    1    3    3    0    0 -0.23594961899E+03 -0.46685357847E+03 -0.29788117690E+03  0.60196153793E+03  0.10566000000E+00 0.  1.
          4    1    3    3  501    0  0.37862934483E+03  0.29119897942E+03 -0.55245734167E+03  0.73031920470E+03  0.00000000000E+00 0.  1.
         13    1    1    2    0    0 -0.14267972584E+03  0.17565459904E+03  0.11534213208E+03  0.25399972624E+03  0.10566000000E+00 0. -1.
<mgrwt>
<rscale>  1 0.70292888E+03</rscale>
<asrwt>0</asrwt>
<pdfrwt beam="2">  1       21 0.17855976E+00 0.10256200E+04</pdfrwt>
<pdfrwt beam="1">  1        4 0.65483391E-01 0.10256200E+04</pdfrwt>
<totfact> 0.14068166E+01</totfact>
</mgrwt>
</event>
<event>
 6    1  0.1412458E-005  0.1029950E+04  0.7818608E-02  0.9982560E-01
         21   -1    0    0  501  502  0.00000000000E+00  0.00000000000E+00  0.60195757143E+03  0.60195757143E+03  0.00000000000E+00 0.  1.
          4   -1    0    0  502    0 -0.00000000000E+00 -0.00000000000E+00 -0.52580192993E+03  0.52580192993E+03  0.00000000000E+00 0.  1.
    9000010    2    1    2  501    0 -0.92459745102E+02  0.73811106501E+01  0.49013798571E+02  0.10311159498E+04  0.10257653066E+04 0.  0.
        -13    1    3    3    0    0  0.41137039255E+03  0.93343509744E+01 -0.21287798240E+03  0.46328153053E+03  0.10566000000E+00 0.  1.
          4    1    3    3  501    0 -0.50383013766E+03 -0.19532403243E+01  0.26189178097E+03  0.56783441926E+03  0.00000000000E+00 0.  1.
         13    1    1    2    0    0  0.92459745102E+02 -0.73811106501E+01  0.27141842925E+02  0.96643551571E+02  0.10566000000E+00 0. -1.
<mgrwt>
<rscale>  1 0.56421599E+03</rscale>
<asrwt>0</asrwt>
<pdfrwt beam="1">  1       21 0.92608857E-01 0.10299504E+04</pdfrwt>
<pdfrwt beam="2">  1        4 0.80892604E-01 0.10299504E+04</pdfrwt>
<totfact> 0.50438593E+01</totfact>
</mgrwt>
</event>
<event>
 6    1  0.1412458E-005  0.8462194E+03  0.7818608E-02  0.9860628E-01
         21   -1    0    0  501  502  0.00000000000E+00  0.00000000000E+00  0.71443782905E+03  0.71443782905E+03  0.00000000000E+00 0.  1.
          4   -1    0    0  502    0 -0.00000000000E+00 -0.00000000000E+00 -0.46114602612E+03  0.46114602612E+03  0.00000000000E+00 0.  1.
    9000010    2    1    2  501    0  0.20754473404E+03 -0.13416849683E+03  0.34241118608E+03  0.91287055557E+03  0.80932763990E+03 0.  0.
        -13    1    3    3    0    0  0.46141693915E+03 -0.27506888179E+03  0.31127393601E+03  0.62085421467E+03  0.10566000000E+00 0.  1.
          4    1    3    3  501    0 -0.25387220512E+03  0.14090038496E+03  0.31137250062E+02  0.29201634090E+03  0.00000000000E+00 0.  1.
         13    1    1    2    0    0 -0.20754473404E+03  0.13416849683E+03 -0.89119383144E+02  0.26271329960E+03  0.10566000000E+00 0. -1.
<mgrwt>
<rscale>  1 0.62207974E+03</rscale>
<asrwt>0</asrwt>
<pdfrwt beam="1">  1       21 0.10991351E+00 0.84621938E+03</pdfrwt>
<pdfrwt beam="2">  1        4 0.70945542E-01 0.84621938E+03</pdfrwt>
<totfact> 0.45169832E+01</totfact>
</mgrwt>
</event>
<event>
 6    1  0.1412458E-005  0.1005369E+04  0.7818608E-02  0.1007853E+00
          4   -1    0    0  502    0 -0.00000000000E+00  0.00000000000E+00  0.12278583372E+04  0.12278583372E+04  0.00000000000E+00 0.  1.
         21   -1    0    0  501  502  0.00000000000E+00 -0.00000000000E+00 -0.23762752990E+03  0.23762752990E+03  0.00000000000E+00 0.  1.
    9000010    2    1    2  501    0  0.20927913146E+02  0.70806962338E+02  0.93846645724E+03  0.13753129079E+04  0.10026538285E+04 0.  0.
        -13    1    3    3    0    0  0.45211200664E+03 -0.42044348077E+01  0.79529192381E+03  0.91482905455E+03  0.10566000000E+00 0.  1.
          4    1    3    3  501    0 -0.43118409350E+03  0.75011397146E+02  0.14317453343E+03  0.46048385337E+03  0.00000000000E+00 0.  1.
         13    1    1    2    0    0 -0.20927913146E+02 -0.70806962338E+02  0.51764350055E+02  0.90172959167E+02  0.10566000000E+00 0. -1.
<mgrwt>
<rscale>  1 0.52337109E+03</rscale>
<asrwt>0</asrwt>
<pdfrwt beam="2">  1       21 0.36558082E-01 0.10053687E+04</pdfrwt>
<pdfrwt beam="1">  1        4 0.18890128E+00 0.10053687E+04</pdfrwt>
<totfact> 0.45481018E+01</totfact>
</mgrwt>
</event>
<event>
 6    1  0.1412458E-005  0.1047004E+04  0.7818608E-02  0.9660905E-01
         21   -1    0    0  501  502  0.00000000000E+00  0.00000000000E+00  0.11126148211E+04  0.11126148211E+04  0.00000000000E+00 0.  1.
          4   -1    0    0  502    0 -0.00000000000E+00 -0.00000000000E+00 -0.60237916328E+03  0.60237916328E+03  0.00000000000E+00 0.  1.
    9000010    2    1    2  501    0 -0.65645196059E+02 -0.24412555984E+03  0.80935554550E+03  0.13233572917E+04  0.10160273331E+04 0.  0.
        -13    1    3    3    0    0 -0.87041635774E+02  0.36964612739E+03  0.52145146149E+03  0.64507840121E+03  0.10566000000E+00 0.  1.
          4    1    3    3  501    0  0.21396439716E+02 -0.61377168723E+03  0.28790408401E+03  0.67827889047E+03  0.00000000000E+00 0.  1.
         13    1    1    2    0    0  0.65645196059E+02  0.24412555984E+03 -0.29911988766E+03  0.39163669273E+03  0.10566000000E+00 0. -1.
<mgrwt>
<rscale>  1 0.73392989E+03</rscale>
<asrwt>0</asrwt>
<pdfrwt beam="1">  1       21 0.17117151E+00 0.10470044E+04</pdfrwt>
<pdfrwt beam="2">  1        4 0.92673717E-01 0.10470044E+04</pdfrwt>
<totfact> 0.71861101E+00</totfact>
</mgrwt>
</event>
<event>
 6    1  0.1412458E-005  0.9251381E+03  0.7818608E-02  0.9650861E-01
          4   -1    0    0  502    0 -0.00000000000E+00  0.00000000000E+00  0.12884179787E+04  0.12884179787E+04  0.00000000000E+00 0.  1.
         21   -1    0    0  501  502  0.00000000000E+00 -0.00000000000E+00 -0.33058606897E+03  0.33058606897E+03  0.00000000000E+00 0. -1.
    9000010    2    1    2  501    0  0.16926975939E+03  0.33922039812E+03  0.64996976840E+03  0.11306375468E+04  0.84389444391E+03 0.  0.
        -13    1    3    3    0    0  0.83096906935E+02 -0.89993868226E+02 -0.16501884763E+03  0.20551210061E+03  0.10566000000E+00 0.  1.
          4    1    3    3  501    0  0.86172852452E+02  0.42921426634E+03  0.81498861603E+03  0.92512544620E+03  0.00000000000E+00 0.  1.
         13    1    1    2    0    0 -0.16926975939E+03 -0.33922039812E+03  0.30786214136E+03  0.48836650089E+03  0.10566000000E+00 0. -1.
<mgrwt>
<rscale>  1 0.74019411E+03</rscale>
<asrwt>0</asrwt>
<pdfrwt beam="2">  1       21 0.50859396E-01 0.92513813E+03</pdfrwt>
<pdfrwt beam="1">  1        4 0.19821815E+00 0.92513813E+03</pdfrwt>
<totfact> 0.19741708E+01</totfact>
</mgrwt>
</event>
<event>
 6    1  0.1412458E-005  0.1006489E+04  0.7818608E-02  0.1025128E+00
         21   -1    0    0  501  502  0.00000000000E+00  0.00000000000E+00  0.24729287265E+04  0.24729287265E+04  0.00000000000E+00 0.  1.
          4   -1    0    0  502    0 -0.00000000000E+00 -0.00000000000E+00 -0.15194203114E+03  0.15194203114E+03  0.00000000000E+00 0.  1.
    9000010    2    1    2  501    0 -0.11990355858E+02 -0.41773433810E+02  0.23605072186E+04  0.25661283426E+04  0.10055503734E+04 0.  0.
        -13    1    3    3    0    0 -0.18659467741E+03 -0.40000098317E+03  0.51582938698E+03  0.67889493135E+03  0.10566000000E+00 0.  1.
          4    1    3    3  501    0  0.17460432155E+03  0.35822754936E+03  0.18446778316E+04  0.18872334113E+04  0.00000000000E+00 0.  1.
         13    1    1    2    0    0  0.11990355858E+02  0.41773433810E+02 -0.39520523203E+02  0.58742415035E+02  0.10566000000E+00 0. -1.
<mgrwt>
<rscale>  1 0.45880701E+03</rscale>
<asrwt>0</asrwt>
<pdfrwt beam="1">  1       21 0.38045054E+00 0.10064891E+04</pdfrwt>
<pdfrwt beam="2">  1        4 0.23375699E-01 0.10064891E+04</pdfrwt>
<totfact> 0.57702721E+00</totfact>
</mgrwt>
</event>
<event>
 6    1  0.1412458E-005  0.1023237E+04  0.7818608E-02  0.9740908E-01
         21   -1    0    0  501  502  0.00000000000E+00  0.00000000000E+00  0.35920671304E+03  0.35920671304E+03  0.00000000000E+00 0.  1.
          4   -1    0    0  502    0 -0.00000000000E+00 -0.00000000000E+00 -0.12329476804E+04  0.12329476804E+04  0.00000000000E+00 0.  1.
    9000010    2    1    2  501    0  0.10664336900E+03 -0.17753771046E+03 -0.44460315197E+03  0.11156549469E+04  0.10020586565E+04 0.  0.
        -13    1    3    3    0    0 -0.39331478065E+02 -0.40184690629E+03 -0.65892176726E+03  0.77279092114E+03  0.10566000000E+00 0.  1.
          4    1    3    3  501    0  0.14597484707E+03  0.22430919583E+03  0.21431861529E+03  0.34286402577E+03  0.00000000000E+00 0.  1.
         13    1    1    2    0    0 -0.10664336900E+03  0.17753771046E+03 -0.42913781538E+03  0.47649944653E+03  0.10566000000E+00 0. -1.
<mgrwt>
<rscale>  1 0.68632497E+03</rscale>
<asrwt>0</asrwt>
<pdfrwt beam="1">  1       21 0.55262571E-01 0.10232370E+04</pdfrwt>
<pdfrwt beam="2">  1        4 0.18968426E+00 0.10232370E+04</pdfrwt>
<totfact> 0.18600814E+01</totfact>
</mgrwt>
</event>
<event>
 6    1  0.1412458E-005  0.1092651E+04  0.7818608E-02  0.9439706E-01
         21   -1    0    0  501  502  0.00000000000E+00  0.00000000000E+00  0.54279349926E+03  0.54279349926E+03  0.00000000000E+00 0. -1.
          4   -1    0    0  502    0 -0.00000000000E+00 -0.00000000000E+00 -0.11885293121E+04  0.11885293121E+04  0.00000000000E+00 0.  1.
    9000010    2    1    2  501    0 -0.39063752376E+03  0.27608819706E+03 -0.61058598674E+03  0.12516793094E+04  0.98237644454E+03 0.  0.
        -13    1    3    3    0    0 -0.71946702304E+03  0.21168327013E+03 -0.48862690940E+03  0.89509712984E+03  0.10566000000E+00 0.  1.
          4    1    3    3  501    0  0.32882949929E+03  0.64404926921E+02 -0.12195907734E+03  0.35658217953E+03  0.00000000000E+00 0.  1.
         13    1    1    2    0    0  0.39063752376E+03 -0.27608819706E+03 -0.35149826054E+02  0.47964350194E+03  0.10566000000E+00 0. -1.
<mgrwt>
<rscale>  1 0.88878848E+03</rscale>
<asrwt>0</asrwt>
<pdfrwt beam="1">  1       21 0.83506692E-01 0.10926508E+04</pdfrwt>
<pdfrwt beam="2">  1        4 0.18285066E+00 0.10926508E+04</pdfrwt>
<totfact> 0.80128578E+00</totfact>
</mgrwt>
</event>
<event>
 6    1  0.1412458E-005  0.1019011E+04  0.7818608E-02  0.1009918E+00
          4   -1    0    0  502    0 -0.00000000000E+00  0.00000000000E+00  0.23920848742E+03  0.23920848742E+03  0.00000000000E+00 0.  1.
         21   -1    0    0  501  502  0.00000000000E+00 -0.00000000000E+00 -0.13812824461E+04  0.13812824461E+04  0.00000000000E+00 0.  1.
    9000010    2    1    2  501    0  0.19897969706E+01 -0.66488417172E+02 -0.11671579178E+04  0.15494002515E+04  0.10168376790E+04 0.  0.
        -13    1    3    3    0    0 -0.34125894708E+03  0.34116460988E+03 -0.49032427614E+03  0.68794539531E+03  0.10566000000E+00 0.  1.
          4    1    3    3  501    0  0.34324874405E+03 -0.40765302706E+03 -0.67683364162E+03  0.86145485615E+03  0.00000000000E+00 0.  1.
         13    1    1    2    0    0 -0.19897969706E+01  0.66488417172E+02  0.25083959064E+02  0.71090682065E+02  0.10566000000E+00 0. -1.
<mgrwt>
<rscale>  1 0.51507374E+03</rscale>
<asrwt>0</asrwt>
<pdfrwt beam="2">  1       21 0.21250499E+00 0.10190111E+04</pdfrwt>
<pdfrwt beam="1">  1        4 0.36801307E-01 0.10190111E+04</pdfrwt>
<totfact> 0.27518002E+01</totfact>
</mgrwt>
</event>
<event>
 6    1  0.1412458E-005  0.1013438E+04  0.7818608E-02  0.9950154E-01
          4   -1    0    0  502    0 -0.00000000000E+00  0.00000000000E+00  0.10671586714E+04  0.10671586714E+04  0.00000000000E+00 0.  1.
         21   -1    0    0  501  502  0.00000000000E+00 -0.00000000000E+00 -0.30885884068E+03  0.30885884068E+03  0.00000000000E+00 0.  1.
    9000010    2    1    2  501    0 -0.70499984058E+02  0.81693286445E+02  0.58017847303E+03  0.11677598111E+04  0.10076764734E+04 0.  0.
        -13    1    3    3    0    0 -0.51985706715E+03  0.10220520224E+03  0.16314189186E+03  0.55435779211E+03  0.10566000000E+00 0.  1.
          4    1    3    3  501    0  0.44935708309E+03 -0.20511915797E+02  0.41703658117E+03  0.61340201895E+03  0.00000000000E+00 0.  1.
         13    1    1    2    0    0  0.70499984058E+02 -0.81693286445E+02  0.17812135769E+03  0.20825770101E+03  0.10566000000E+00 0. -1.
<mgrwt>
<rscale>  1 0.57890966E+03</rscale>
<asrwt>0</asrwt>
<pdfrwt beam="2">  1       21 0.47516745E-01 0.10134377E+04</pdfrwt>
<pdfrwt beam="1">  1        4 0.16417826E+00 0.10134377E+04</pdfrwt>
<totfact> 0.39101760E+01</totfact>
</mgrwt>
</event>
<event>
 6    1  0.1412458E-005  0.1059335E+04  0.7818608E-02  0.9848203E-01
         21   -1    0    0  501  502  0.00000000000E+00  0.00000000000E+00  0.30829779329E+03  0.30829779329E+03  0.00000000000E+00 0.  1.
          4   -1    0    0  502    0 -0.00000000000E+00 -0.00000000000E+00 -0.13773794878E+04  0.13773794878E+04  0.00000000000E+00 0.  1.
    9000010    2    1    2  501    0 -0.12918310747E+03 -0.22694049154E+02 -0.64150221748E+03  0.12384329234E+04  0.10511839590E+04 0.  0.
        -13    1    3    3    0    0 -0.31070687570E+02  0.98899417404E+02 -0.91639586351E+03  0.92224068019E+03  0.10566000000E+00 0.  1.
          4    1    3    3  501    0 -0.98112419903E+02 -0.12159346656E+03  0.27489364603E+03  0.31619224323E+03  0.00000000000E+00 0.  1.
         13    1    1    2    0    0  0.12918310747E+03  0.22694049154E+02 -0.42757947706E+03  0.44724435770E+03  0.10566000000E+00 0. -1.
<mgrwt>
<rscale>  1 0.62838605E+03</rscale>
<asrwt>0</asrwt>
<pdfrwt beam="1">  1       21 0.47430429E-01 0.10593352E+04</pdfrwt>
<pdfrwt beam="2">  1        4 0.21190454E+00 0.10593352E+04</pdfrwt>
<totfact> 0.18408643E+01</totfact>
</mgrwt>
</event>
<event>
 6    1  0.1412458E-005  0.1011315E+04  0.7818608E-02  0.9714743E-01
          4   -1    0    0  502    0 -0.00000000000E+00  0.00000000000E+00  0.27341771715E+03  0.27341771715E+03  0.00000000000E+00 0.  1.
         21   -1    0    0  501  502  0.00000000000E+00 -0.00000000000E+00 -0.14296504448E+04  0.14296504448E+04  0.00000000000E+00 0.  1.
    9000010    2    1    2  501    0 -0.19727367006E+03  0.12598296929E+03 -0.99585559556E+03  0.14193262984E+04  0.98385474780E+03 0.  0.
        -13    1    3    3    0    0 -0.17245260364E+03 -0.11971804797E+03 -0.11223832175E+04  0.11418478050E+04  0.10566000000E+00 0.  1.
          4    1    3    3  501    0 -0.24821066414E+02  0.24570101726E+03  0.12652762197E+03  0.27747849348E+03  0.00000000000E+00 0.  1.
         13    1    1    2    0    0  0.19727367006E+03 -0.12598296929E+03 -0.16037713210E+03  0.28374186352E+03  0.10566000000E+00 0. -1.
<mgrwt>
<rscale>  1 0.70145732E+03</rscale>
<asrwt>0</asrwt>
<pdfrwt beam="2">  1       21 0.21994622E+00 0.10113154E+04</pdfrwt>
<pdfrwt beam="1">  1        4 0.42064265E-01 0.10113154E+04</pdfrwt>
<totfact> 0.18724682E+01</totfact>
</mgrwt>
</event>
<event>
 6    1  0.1412458E-005  0.1052675E+04  0.7818608E-02  0.9556732E-01
          4   -1    0    0  502    0 -0.00000000000E+00  0.00000000000E+00  0.43525450250E+03  0.43525450250E+03  0.00000000000E+00 0.  1.
         21   -1    0    0  501  502  0.00000000000E+00 -0.00000000000E+00 -0.12849673521E+04  0.12849673521E+04  0.00000000000E+00 0.  1.
    9000010    2    1    2  501    0  0.34992421436E+03  0.60680074699E+02 -0.86831884504E+03  0.13645883052E+04  0.99095640608E+03 0.  0.
        -13    1    3    3    0    0 -0.30189663591E+03  0.15810517454E+03 -0.10605242622E+03  0.35691168832E+03  0.10566000000E+00 0.  1.
          4    1    3    3  501    0  0.65182085027E+03 -0.97425099843E+02 -0.76226641882E+03  0.10076766169E+04  0.00000000000E+00 0.  1.
         13    1    1    2    0    0 -0.34992421436E+03 -0.60680074699E+02  0.18605995405E+02  0.35563354944E+03  0.10566000000E+00 0. -1.
<mgrwt>
<rscale>  1 0.80227353E+03</rscale>
<asrwt>0</asrwt>
<pdfrwt beam="2">  1       21 0.19768728E+00 0.10526745E+04</pdfrwt>
<pdfrwt beam="1">  1        4 0.66962232E-01 0.10526745E+04</pdfrwt>
<totfact> 0.97599239E+00</totfact>
</mgrwt>
</event>
<event>
 6    1  0.1412458E-005  0.9982087E+03  0.7818608E-02  0.9763017E-01
          4   -1    0    0  502    0 -0.00000000000E+00  0.00000000000E+00  0.91603271246E+03  0.91603271246E+03  0.00000000000E+00 0.  1.
         21   -1    0    0  501  502  0.00000000000E+00 -0.00000000000E+00 -0.59190994570E+03  0.59190994570E+03  0.00000000000E+00 0.  1.
    9000010    2    1    2  501    0 -0.18389575642E+03 -0.95690831323E+02 -0.13202192905E+03  0.10069013633E+04  0.97644568785E+03 0.  0.
        -13    1    3    3    0    0  0.10979146768E+03  0.40059876849E+03 -0.11052394700E+03  0.42982449176E+03  0.10566000000E+00 0.  1.
          4    1    3    3  501    0 -0.29368722409E+03 -0.49628959982E+03 -0.21497982046E+02  0.57707687158E+03  0.00000000000E+00 0.  1.
         13    1    1    2    0    0  0.18389575642E+03  0.95690831323E+02  0.45614469581E+03  0.50104129481E+03  0.10566000000E+00 0. -1.
<mgrwt>
<rscale>  1 0.67385620E+03</rscale>
<asrwt>0</asrwt>
<pdfrwt beam="2">  1       21 0.91063068E-01 0.99820868E+03</pdfrwt>
<pdfrwt beam="1">  1        4 0.14092811E+00 0.99820868E+03</pdfrwt>
<totfact> 0.13504802E+01</totfact>
</mgrwt>
</event>
<event>
 6    1  0.1412458E-005  0.1030020E+04  0.7818608E-02  0.9630102E-01
         21   -1    0    0  501  502  0.00000000000E+00  0.00000000000E+00  0.17706533618E+04  0.17706533618E+04  0.00000000000E+00 0.  1.
          4   -1    0    0  502    0 -0.00000000000E+00 -0.00000000000E+00 -0.47032437838E+03  0.47032437838E+03  0.00000000000E+00 0.  1.
    9000010    2    1    2  501    0  0.28855400342E+03 -0.60144751051E+02  0.15457035255E+04  0.18574552754E+04  0.98694473356E+03 0.  0.
        -13    1    3    3    0    0 -0.29506952026E+03 -0.68181036657E+02  0.13655525228E+03  0.33220780189E+03  0.10566000000E+00 0.  1.
          4    1    3    3  501    0  0.58362352368E+03  0.80362856051E+01  0.14091482733E+04  0.15252474735E+04  0.00000000000E+00 0.  1.
         13    1    1    2    0    0 -0.28855400342E+03  0.60144751051E+02 -0.24537454209E+03  0.38352246485E+03  0.10566000000E+00 0. -1.
<mgrwt>
<rscale>  1 0.75335496E+03</rscale>
<asrwt>0</asrwt>
<pdfrwt beam="1">  1       21 0.27240821E+00 0.10300198E+04</pdfrwt>
<pdfrwt beam="2">  1        4 0.72357597E-01 0.10300198E+04</pdfrwt>
<totfact> 0.26854569E+00</totfact>
</mgrwt>
</event>
<event>
 6    1  0.1412458E-005  0.1076803E+04  0.7818608E-02  0.9498256E-01
          4   -1    0    0  502    0 -0.00000000000E+00  0.00000000000E+00  0.47579568806E+03  0.47579568806E+03  0.00000000000E+00 0.  1.
         21   -1    0    0  501  502  0.00000000000E+00 -0.00000000000E+00 -0.17770687665E+04  0.17770687665E+04  0.00000000000E+00 0.  1.
    9000010    2    1    2  501    0  0.24837943141E+03  0.32197746054E+03 -0.14618768884E+04  0.18156512091E+04  0.99706742472E+03 0.  0.
        -13    1    3    3    0    0 -0.29151544563E+03  0.29491282504E+03 -0.10712589286E+04  0.11487169071E+04  0.10566000000E+00 0.  1.
          4    1    3    3  501    0  0.53989487704E+03  0.27064635504E+02 -0.39061795982E+03  0.66693430207E+03  0.00000000000E+00 0.  1.
         13    1    1    2    0    0 -0.24837943141E+03 -0.32197746054E+03  0.16060380993E+03  0.43721324542E+03  0.10566000000E+00 0. -1.
<mgrwt>
<rscale>  1 0.84412485E+03</rscale>
<asrwt>0</asrwt>
<pdfrwt beam="2">  1       21 0.27339520E+00 0.10768033E+04</pdfrwt>
<pdfrwt beam="1">  1        4 0.73199335E-01 0.10768033E+04</pdfrwt>
<totfact> 0.25588459E+00</totfact>
</mgrwt>
</event>
<event>
 6    1  0.1412458E-005  0.1056595E+04  0.7818608E-02  0.9558013E-01
         21   -1    0    0  501  502  0.00000000000E+00  0.00000000000E+00  0.59148507193E+03  0.59148507193E+03  0.00000000000E+00 0.  1.
          4   -1    0    0  502    0 -0.00000000000E+00 -0.00000000000E+00 -0.10561271136E+04  0.10561271136E+04  0.00000000000E+00 0.  1.
    9000010    2    1    2  501    0 -0.31309244371E+03  0.15566661803E+03  0.11765912754E+02  0.10566608132E+04  0.99706301864E+03 0.  0.
        -13    1    3    3    0    0  0.23236102747E+03  0.74344374495E+02  0.33728864024E+03  0.41627199174E+03  0.10566000000E+00 0.  1.
          4    1    3    3  501    0 -0.54545347118E+03  0.81322243533E+02 -0.32552272748E+03  0.64038882144E+03  0.00000000000E+00 0.  1.
         13    1    1    2    0    0  0.31309244371E+03 -0.15566661803E+03 -0.47640795445E+03  0.59095137237E+03  0.10566000000E+00 0. -1.
<mgrwt>
<rscale>  1 0.80138573E+03</rscale>
<asrwt>0</asrwt>
<pdfrwt beam="1">  1       21 0.90997703E-01 0.10565953E+04</pdfrwt>
<pdfrwt beam="2">  1        4 0.16248109E+00 0.10565953E+04</pdfrwt>
<totfact> 0.91551840E+00</totfact>
</mgrwt>
</event>
<event>
 6    1  0.1412458E-005  0.1070747E+04  0.7818608E-02  0.9732561E-01
          4   -1    0    0  502    0 -0.00000000000E+00  0.00000000000E+00  0.22532785947E+03  0.22532785947E+03  0.00000000000E+00 0.  1.
         21   -1    0    0  501  502  0.00000000000E+00 -0.00000000000E+00 -0.19514403825E+04  0.19514403825E+04  0.00000000000E+00 0.  1.
    9000010    2    1    2  501    0 -0.15038763202E+03  0.10916717840E+03 -0.16679268049E+04  0.19820389384E+04  0.10544973277E+04 0.  0.
        -13    1    3    3    0    0  0.94898297907E+02  0.35694091198E+03 -0.10970599467E+03  0.38528939516E+03  0.10566000000E+00 0.  1.
          4    1    3    3  501    0 -0.24528592992E+03 -0.24777373357E+03 -0.15582208102E+04  0.15967495433E+04  0.00000000000E+00 0.  1.
         13    1    1    2    0    0  0.15038763202E+03 -0.10916717840E+03 -0.58185718133E+02  0.19472930355E+03  0.10566000000E+00 0. -1.
<mgrwt>
<rscale>  1 0.69110781E+03</rscale>
<asrwt>0</asrwt>
<pdfrwt beam="2">  1       21 0.30022159E+00 0.10707467E+04</pdfrwt>
<pdfrwt beam="1">  1        4 0.34665826E-01 0.10707467E+04</pdfrwt>
<totfact> 0.84978905E+00</totfact>
</mgrwt>
</event>
<event>
 6    1  0.1412458E-005  0.1100709E+04  0.7818608E-02  0.9435081E-01
         21   -1    0    0  501  502  0.00000000000E+00  0.00000000000E+00  0.28692269459E+03  0.28692269459E+03  0.00000000000E+00 0.  1.
          4   -1    0    0  502    0 -0.00000000000E+00 -0.00000000000E+00 -0.22110468471E+04  0.22110468471E+04  0.00000000000E+00 0.  1.
    9000010    2    1    2  501    0 -0.11059433127E+03  0.46262800287E+03 -0.11701394604E+04  0.16064827486E+04  0.99262515062E+03 0.  0.
        -13    1    3    3    0    0 -0.20843812742E+03 -0.27584444231E+03 -0.47570788866E+03  0.58807704921E+03  0.10566000000E+00 0.  1.
          4    1    3    3  501    0  0.97843796148E+02  0.73847244518E+03 -0.69443157174E+03  0.10184056994E+04  0.00000000000E+00 0.  1.
         13    1    1    2    0    0  0.11059433127E+03 -0.46262800287E+03 -0.75398469215E+03  0.89148679312E+03  0.10566000000E+00 0. -1.
<mgrwt>
<rscale>  1 0.89244071E+03</rscale>
<asrwt>0</asrwt>
<pdfrwt beam="1">  1       21 0.44141954E-01 0.11007091E+04</pdfrwt>
<pdfrwt beam="2">  1        4 0.34016105E+00 0.11007091E+04</pdfrwt>
<totfact> 0.33667951E+00</totfact>
</mgrwt>
</event>
<event>
 6    1  0.1412458E-005  0.9517438E+03  0.7818608E-02  0.1009055E+00
          4   -1    0    0  502    0 -0.00000000000E+00  0.00000000000E+00  0.48947781271E+03  0.48947781271E+03  0.00000000000E+00 0.  1.
         21   -1    0    0  501  502  0.00000000000E+00 -0.00000000000E+00 -0.97192519916E+03  0.97192519916E+03  0.00000000000E+00 0.  1.
    9000010    2    1    2  501    0 -0.83446158405E+02 -0.82033455798E+01 -0.73036683012E+03  0.11996882474E+04  0.94804305186E+03 0.  0.
        -13    1    3    3    0    0 -0.24980447706E+03 -0.40784078462E+03 -0.55498697604E+03  0.73263015028E+03  0.10566000000E+00 0.  1.
          4    1    3    3  501    0  0.16635831866E+03  0.39963743904E+03 -0.17537985408E+03  0.46705809712E+03  0.00000000000E+00 0.  1.
         13    1    1    2    0    0  0.83446158405E+02  0.82033455798E+01  0.24791944367E+03  0.26171476447E+03  0.10566000000E+00 0. -1.
<mgrwt>
<rscale>  1 0.51851799E+03</rscale>
<asrwt>0</asrwt>
<pdfrwt beam="2">  1       21 0.14952695E+00 0.95174376E+03</pdfrwt>
<pdfrwt beam="1">  1        4 0.75304279E-01 0.95174376E+03</pdfrwt>
<totfact> 0.17309855E+01</totfact>
</mgrwt>
</event>
<event>
 6    1  0.1412458E-005  0.1343495E+04  0.7818608E-02  0.9100137E-01
         21   -1    0    0  501  502  0.00000000000E+00  0.00000000000E+00  0.16808501278E+04  0.16808501278E+04  0.00000000000E+00 0. -1.
          4   -1    0    0  502    0 -0.00000000000E+00 -0.00000000000E+00 -0.75538572926E+03  0.75538572926E+03  0.00000000000E+00 0.  1.
    9000010    2    1    2  501    0 -0.56496095670E+03 -0.69750033391E+03  0.67944010574E+03  0.15055288343E+04  0.99964524471E+03 0.  0.
        -13    1    3    3    0    0  0.22002196179E+03 -0.86923550359E+02 -0.84800522021E+02  0.25130958393E+03  0.10566000000E+00 0.  1.
          4    1    3    3  501    0 -0.78498291849E+03 -0.61057678355E+03  0.76424062776E+03  0.12542192504E+04  0.00000000000E+00 0.  1.
         13    1    1    2    0    0  0.56496095670E+03  0.69750033391E+03  0.24602429283E+03  0.93070702277E+03  0.10566000000E+00 0. -1.
<mgrwt>
<rscale>  1 0.12146407E+04</rscale>
<asrwt>0</asrwt>
<pdfrwt beam="1">  1       21 0.25859233E+00 0.13434948E+04</pdfrwt>
<pdfrwt beam="2">  1        4 0.11621319E+00 0.13434948E+04</pdfrwt>
<totfact> 0.10157734E+00</totfact>
</mgrwt>
</event>
<event>
 6    1  0.1412458E-005  0.1031747E+04  0.7818608E-02  0.9660094E-01
         21   -1    0    0  501  502  0.00000000000E+00  0.00000000000E+00  0.12534079029E+04  0.12534079029E+04  0.00000000000E+00 0.  1.
          4   -1    0    0  502    0 -0.00000000000E+00 -0.00000000000E+00 -0.34594585893E+03  0.34594585893E+03  0.00000000000E+00 0.  1.
    9000010    2    1    2  501    0 -0.21078528184E+03  0.16044857454E+03  0.60004812066E+03  0.11935489916E+04  0.99715960018E+03 0.  0.
        -13    1    3    3    0    0  0.24910130225E+03  0.41115526593E+02 -0.15878168928E+03  0.29825086978E+03  0.10566000000E+00 0.  1.
          4    1    3    3  501    0 -0.45988658409E+03  0.11933304795E+03  0.75882980993E+03  0.89529812186E+03  0.00000000000E+00 0.  1.
         13    1    1    2    0    0  0.21078528184E+03 -0.16044857454E+03  0.30741392336E+03  0.40580477024E+03  0.10566000000E+00 0. -1.
<mgrwt>
<rscale>  1 0.73443282E+03</rscale>
<asrwt>0</asrwt>
<pdfrwt beam="1">  1       21 0.19283198E+00 0.10317468E+04</pdfrwt>
<pdfrwt beam="2">  1        4 0.53222441E-01 0.10317468E+04</pdfrwt>
<totfact> 0.17443075E+01</totfact>
</mgrwt>
</event>
<event>
 6    1  0.1412458E-005  0.1025026E+04  0.7818608E-02  0.9960232E-01
         21   -1    0    0  501  502  0.00000000000E+00  0.00000000000E+00  0.11272869012E+03  0.11272869012E+03  0.00000000000E+00 0.  1.
          4   -1    0    0  502    0 -0.00000000000E+00 -0.00000000000E+00 -0.30107731416E+04  0.30107731416E+04  0.00000000000E+00 0.  1.
    9000010    2    1    2  501    0 -0.13022317652E+02 -0.10015626773E+03 -0.28040655644E+04  0.29855420509E+04  0.10200376415E+04 0.  0.
        -13    1    3    3    0    0 -0.36270291633E+03  0.40473705020E+02 -0.36015944981E+03  0.51274395830E+03  0.10566000000E+00 0.  1.
          4    1    3    3  501    0  0.34968059868E+03 -0.14062997275E+03 -0.24439061145E+04  0.24727980927E+04  0.00000000000E+00 0.  1.
         13    1    1    2    0    0  0.13022317652E+02  0.10015626773E+03 -0.93978887112E+02  0.13795978077E+03  0.10566000000E+00 0. -1.
<mgrwt>
<rscale>  1 0.57428935E+03</rscale>
<asrwt>0</asrwt>
<pdfrwt beam="1">  1       21 0.17342880E-01 0.10250257E+04</pdfrwt>
<pdfrwt beam="2">  1        4 0.46319574E+00 0.10250257E+04</pdfrwt>
<totfact> 0.30828823E+00</totfact>
</mgrwt>
</event>
<event>
 6    1  0.1412458E-005  0.1008339E+04  0.7818608E-02  0.9863534E-01
         21   -1    0    0  501  502  0.00000000000E+00  0.00000000000E+00  0.42116585757E+03  0.42116585757E+03  0.00000000000E+00 0.  1.
          4   -1    0    0  502    0 -0.00000000000E+00 -0.00000000000E+00 -0.79989821646E+03  0.79989821646E+03  0.00000000000E+00 0.  1.
    9000010    2    1    2  501    0  0.12531910572E+03 -0.72343210519E+02 -0.28207803038E+03  0.10470511758E+04  0.99790266617E+03 0.  0.
        -13    1    3    3    0    0  0.41213536199E+03 -0.11722603029E+02  0.21874741722E+03  0.46673699203E+03  0.10566000000E+00 0.  1.
          4    1    3    3  501    0 -0.28681625627E+03 -0.60620607490E+02 -0.50082544760E+03  0.58031418377E+03  0.00000000000E+00 0.  1.
         13    1    1    2    0    0 -0.12531910572E+03  0.72343210519E+02 -0.96654328505E+02  0.17401289823E+03  0.10566000000E+00 0. -1.
<mgrwt>
<rscale>  1 0.62061610E+03</rscale>
<asrwt>0</asrwt>
<pdfrwt beam="1">  1       21 0.64794749E-01 0.10083393E+04</pdfrwt>
<pdfrwt beam="2">  1        4 0.12306126E+00 0.10083393E+04</pdfrwt>
<totfact> 0.42384823E+01</totfact>
</mgrwt>
</event>
<event>
 6    1  0.1412458E-005  0.1030824E+04  0.7818608E-02  0.9691202E-01
          4   -1    0    0  502    0 -0.00000000000E+00  0.00000000000E+00  0.95780015794E+03  0.95780015794E+03  0.00000000000E+00 0.  1.
         21   -1    0    0  501  502  0.00000000000E+00 -0.00000000000E+00 -0.74796324470E+03  0.74796324470E+03  0.00000000000E+00 0.  1.
    9000010    2    1    2  501    0  0.11271087309E+03 -0.21095242918E+03 -0.35671164681E+03  0.10907984034E+04  0.10026930186E+04 0.  0.
        -13    1    3    3    0    0  0.46969323408E+03 -0.13727920311E+03  0.10706865973E+03  0.50092017608E+03  0.10566000000E+00 0.  1.
          4    1    3    3  501    0 -0.35698236099E+03 -0.73673226071E+02 -0.46378030654E+03  0.58987822729E+03  0.00000000000E+00 0.  1.
         13    1    1    2    0    0 -0.11271087309E+03  0.21095242918E+03  0.56654856004E+03  0.61496499928E+03  0.10566000000E+00 0. -1.
<mgrwt>
<rscale>  1 0.71543027E+03</rscale>
<asrwt>0</asrwt>
<pdfrwt beam="2">  1       21 0.11507127E+00 0.10308239E+04</pdfrwt>
<pdfrwt beam="1">  1        4 0.14735387E+00 0.10308239E+04</pdfrwt>
<totfact> 0.66705904E+00</totfact>
</mgrwt>
</event>
<event>
 6    1  0.1412458E-005  0.1077176E+04  0.7818608E-02  0.9504043E-01
          4   -1    0    0  502    0 -0.00000000000E+00  0.00000000000E+00  0.31272803593E+04  0.31272803593E+04  0.00000000000E+00 0.  1.
         21   -1    0    0  501  502  0.00000000000E+00 -0.00000000000E+00 -0.19558618145E+03  0.19558618145E+03  0.00000000000E+00 0.  1.
    9000010    2    1    2  501    0 -0.33846012820E+03 -0.20956206239E+03  0.15686860007E+04  0.19029148449E+04  0.10009183892E+04 0.  0.
        -13    1    3    3    0    0  0.10660791316E+03 -0.46384409463E+03  0.38208140075E+03  0.61033007401E+03  0.10566000000E+00 0.  1.
          4    1    3    3  501    0 -0.44506804136E+03  0.25428203224E+03  0.11866045999E+04  0.12925847709E+04  0.00000000000E+00 0.  1.
         13    1    1    2    0    0  0.33846012820E+03  0.20956206239E+03  0.13630081772E+04  0.14199516959E+04  0.10566000000E+00 0. -1.
<mgrwt>
<rscale>  1 0.83986416E+03</rscale>
<asrwt>0</asrwt>
<pdfrwt beam="2">  1       21 0.30090184E-01 0.10771765E+04</pdfrwt>
<pdfrwt beam="1">  1        4 0.48112002E+00 0.10771765E+04</pdfrwt>
<totfact> 0.75452413E-01</totfact>
</mgrwt>
</event>
<event>
 6    1  0.1412458E-005  0.1032938E+04  0.7818608E-02  0.9564085E-01
          4   -1    0    0  502    0 -0.00000000000E+00  0.00000000000E+00  0.86331398324E+03  0.86331398324E+03  0.00000000000E+00 0.  1.
         21   -1    0    0  501  502  0.00000000000E+00 -0.00000000000E+00 -0.57689152891E+03  0.57689152891E+03  0.00000000000E+00 0.  1.
    9000010    2    1    2  501    0 -0.21903534506E+03 -0.29380624922E+03  0.29296037415E+03  0.10736794557E+04  0.96574489302E+03 0.  0.
        -13    1    3    3    0    0  0.11732909675E+03 -0.44994778190E+03  0.47139789212E+03  0.66214432508E+03  0.10566000000E+00 0.  1.
          4    1    3    3  501    0 -0.33636444181E+03  0.15614153269E+03 -0.17843751797E+03  0.41153513066E+03  0.00000000000E+00 0.  1.
         13    1    1    2    0    0  0.21903534506E+03  0.29380624922E+03 -0.65379198227E+01  0.36652605641E+03  0.10566000000E+00 0. -1.
<mgrwt>
<rscale>  1 0.79719546E+03</rscale>
<asrwt>0</asrwt>
<pdfrwt beam="2">  1       21 0.88752543E-01 0.10329384E+04</pdfrwt>
<pdfrwt beam="1">  1        4 0.13281754E+00 0.10329384E+04</pdfrwt>
<totfact> 0.16712220E+01</totfact>
</mgrwt>
</event>
<event>
 6    1  0.1412458E-005  0.1039560E+04  0.7818608E-02  0.9714989E-01
          4   -1    0    0  502    0 -0.00000000000E+00  0.00000000000E+00  0.68904915331E+03  0.68904915331E+03  0.00000000000E+00 0.  1.
         21   -1    0    0  501  502  0.00000000000E+00 -0.00000000000E+00 -0.68204475780E+03  0.68204475780E+03  0.00000000000E+00 0.  1.
    9000010    2    1    2  501    0  0.18220463606E+03 -0.11474925230E+03 -0.21527995044E+03  0.10616165098E+04  0.10170143738E+04 0.  0.
        -13    1    3    3    0    0 -0.39410306605E+03 -0.71456324445E+02  0.86314835409E+02  0.40972368121E+03  0.10566000000E+00 0.  1.
          4    1    3    3  501    0  0.57630770211E+03 -0.43292927860E+02 -0.30159478585E+03  0.65189282859E+03  0.00000000000E+00 0.  1.
         13    1    1    2    0    0 -0.18220463606E+03  0.11474925230E+03  0.22228434595E+03  0.30947740132E+03  0.10566000000E+00 0. -1.
<mgrwt>
<rscale>  1 0.70131305E+03</rscale>
<asrwt>0</asrwt>
<pdfrwt beam="2">  1       21 0.10492996E+00 0.10395596E+04</pdfrwt>
<pdfrwt beam="1">  1        4 0.10600756E+00 0.10395596E+04</pdfrwt>
<totfact> 0.19488859E+01</totfact>
</mgrwt>
</event>
<event>
 6    1  0.1412458E-005  0.1011211E+04  0.7818608E-02  0.9839746E-01
          4   -1    0    0  502    0 -0.00000000000E+00  0.00000000000E+00  0.45972903497E+03  0.45972903497E+03  0.00000000000E+00 0.  1.
         21   -1    0    0  501  502  0.00000000000E+00 -0.00000000000E+00 -0.82480661859E+03  0.82480661859E+03  0.00000000000E+00 0.  1.
    9000010    2    1    2  501    0 -0.10413662310E+03  0.11480808791E+03 -0.45109769324E+03  0.11072652281E+04  0.99926063827E+03 0.  0.
        -13    1    3    3    0    0 -0.20516020341E+03 -0.29235472332E+01  0.28713394299E+03  0.35290957563E+03  0.10566000000E+00 0.  1.
          4    1    3    3  501    0  0.10102358030E+03  0.11773163514E+03 -0.73823163623E+03  0.75435565247E+03  0.00000000000E+00 0.  1.
         13    1    1    2    0    0  0.10413662310E+03 -0.11480808791E+03  0.86020109620E+02  0.17727042546E+03  0.10566000000E+00 0. -1.
<mgrwt>
<rscale>  1 0.63272495E+03</rscale>
<asrwt>0</asrwt>
<pdfrwt beam="2">  1       21 0.12689332E+00 0.10112107E+04</pdfrwt>
<pdfrwt beam="1">  1        4 0.70727545E-01 0.10112107E+04</pdfrwt>
<totfact> 0.30896946E+01</totfact>
</mgrwt>
</event>
<event>
 6    1  0.1412458E-005  0.1089172E+04  0.7818608E-02  0.9505799E-01
          4   -1    0    0  502    0 -0.00000000000E+00  0.00000000000E+00  0.93606200595E+03  0.93606200595E+03  0.00000000000E+00 0.  1.
         21   -1    0    0  501  502  0.00000000000E+00 -0.00000000000E+00 -0.58200982292E+03  0.58200982292E+03  0.00000000000E+00 0.  1.
    9000010    2    1    2  501    0 -0.21898140162E+03 -0.31388119453E+03  0.21057079218E+03  0.11093406468E+04  0.10197168006E+04 0.  0.
        -13    1    3    3    0    0  0.34056107796E+03  0.27309637274E+02 -0.13630539499E+03  0.36784077530E+03  0.10566000000E+00 0.  1.
          4    1    3    3  501    0 -0.55954247958E+03 -0.34119083181E+03  0.34687618718E+03  0.74149987147E+03  0.00000000000E+00 0.  1.
         13    1    1    2    0    0  0.21898140162E+03  0.31388119453E+03  0.14348139084E+03  0.40873118210E+03  0.10566000000E+00 0. -1.
<mgrwt>
<rscale>  1 0.83857643E+03</rscale>
<asrwt>0</asrwt>
<pdfrwt beam="2">  1       21 0.89539973E-01 0.10891724E+04</pdfrwt>
<pdfrwt beam="1">  1        4 0.14400954E+00 0.10891724E+04</pdfrwt>
<totfact> 0.13160616E+01</totfact>
</mgrwt>
</event>
<event>
 6    1  0.1412458E-005  0.1078293E+04  0.7818608E-02  0.9469013E-01
          4   -1    0    0  502    0 -0.00000000000E+00  0.00000000000E+00  0.55160758786E+03  0.55160758786E+03  0.00000000000E+00 0.  1.
         21   -1    0    0  501  502  0.00000000000E+00 -0.00000000000E+00 -0.13109058908E+04  0.13109058908E+04  0.00000000000E+00 0.  1.
    9000010    2    1    2  501    0 -0.37586726744E+02 -0.44717872340E+03 -0.88667229161E+03  0.13960311994E+04  0.98047630477E+03 0.  0.
        -13    1    3    3    0    0  0.12799133426E+03 -0.44850189692E+03 -0.10589300210E+04  0.11570948681E+04  0.10566000000E+00 0.  1.
          4    1    3    3  501    0 -0.16557806101E+03  0.13231735222E+01  0.17225772939E+03  0.23893633129E+03  0.00000000000E+00 0.  1.
         13    1    1    2    0    0  0.37586726744E+02  0.44717872340E+03  0.12737398872E+03  0.46648227925E+03  0.10566000000E+00 0. -1.
<mgrwt>
<rscale>  1 0.86607399E+03</rscale>
<asrwt>0</asrwt>
<pdfrwt beam="2">  1       21 0.20167783E+00 0.10782928E+04</pdfrwt>
<pdfrwt beam="1">  1        4 0.84862706E-01 0.10782928E+04</pdfrwt>
<totfact> 0.53273027E+00</totfact>
</mgrwt>
</event>
<event>
 6    1  0.1412458E-005  0.1104853E+04  0.7818608E-02  0.9564137E-01
          4   -1    0    0  502    0 -0.00000000000E+00  0.00000000000E+00  0.49992733984E+03  0.49992733984E+03  0.00000000000E+00 0.  1.
         21   -1    0    0  501  502  0.00000000000E+00 -0.00000000000E+00 -0.10813307460E+04  0.10813307460E+04  0.00000000000E+00 0.  1.
    9000010    2    1    2  501    0 -0.20164653199E+03 -0.22132758198E+03 -0.63903770982E+03  0.12763499906E+04  0.10635096998E+04 0.  0.
        -13    1    3    3    0    0 -0.40035354635E+03  0.22552018102E+03  0.14939523455E+02  0.45974505397E+03  0.10566000000E+00 0.  1.
          4    1    3    3  501    0  0.19870701436E+03 -0.44684776300E+03 -0.65397723328E+03  0.81660493662E+03  0.00000000000E+00 0.  1.
         13    1    1    2    0    0  0.20164653199E+03  0.22132758198E+03  0.57634303694E+02  0.30490809523E+03  0.10566000000E+00 0. -1.
<mgrwt>
<rscale>  1 0.79715997E+03</rscale>
<asrwt>0</asrwt>
<pdfrwt beam="2">  1       21 0.16635857E+00 0.11048530E+04</pdfrwt>
<pdfrwt beam="1">  1        4 0.76911900E-01 0.11048530E+04</pdfrwt>
<totfact> 0.11969136E+01</totfact>
</mgrwt>
</event>
<event>
 6    1  0.1412458E-005  0.9967696E+03  0.7818608E-02  0.9653374E-01
         21   -1    0    0  501  502  0.00000000000E+00  0.00000000000E+00  0.60829710508E+03  0.60829710508E+03  0.00000000000E+00 0.  1.
          4   -1    0    0  502    0 -0.00000000000E+00 -0.00000000000E+00 -0.87492020345E+03  0.87492020345E+03  0.00000000000E+00 0.  1.
    9000010    2    1    2  501    0 -0.21353839363E+03  0.21148301018E+03  0.10837913876E+03  0.10026443191E+04  0.95038196730E+03 0.  0.
        -13    1    3    3    0    0 -0.41955316256E+03  0.48125396477E+03 -0.22480580603E+02  0.63885493071E+03  0.10566000000E+00 0.  1.
          4    1    3    3  501    0  0.20601476893E+03 -0.26977095459E+03  0.13085971937E+03  0.36378938840E+03  0.00000000000E+00 0.  1.
         13    1    1    2    0    0  0.21353839363E+03 -0.21148301018E+03 -0.37500223713E+03  0.48057298943E+03  0.10566000000E+00 0. -1.
<mgrwt>
<rscale>  1 0.73862042E+03</rscale>
<asrwt>0</asrwt>
<pdfrwt beam="1">  1       21 0.93584170E-01 0.99676958E+03</pdfrwt>
<pdfrwt beam="2">  1        4 0.13460311E+00 0.99676958E+03</pdfrwt>
<totfact> 0.14252920E+01</totfact>
</mgrwt>
</event>
<event>
 6    1  0.1412458E-005  0.1034794E+04  0.7818608E-02  0.9642218E-01
          4   -1    0    0  502    0 -0.00000000000E+00  0.00000000000E+00  0.52291737162E+03  0.52291737162E+03  0.00000000000E+00 0.  1.
         21   -1    0    0  501  502  0.00000000000E+00 -0.00000000000E+00 -0.84663818348E+03  0.84663818348E+03  0.00000000000E+00 0.  1.
    9000010    2    1    2  501    0 -0.18369430768E+03 -0.20994798867E+03 -0.34238475778E+03  0.10899663732E+04  0.99648262183E+03 0.  0.
        -13    1    3    3    0    0 -0.11168104533E+03  0.33209936107E+03  0.12359856819E+03  0.37153634914E+03  0.10566000000E+00 0.  1.
          4    1    3    3  501    0 -0.72013262344E+02 -0.54204734974E+03 -0.46598332597E+03  0.71843002401E+03  0.00000000000E+00 0.  1.
         13    1    1    2    0    0  0.18369430768E+03  0.20994798867E+03  0.18663945930E+02  0.27958918195E+03  0.10566000000E+00 0. -1.
<mgrwt>
<rscale>  1 0.74563825E+03</rscale>
<asrwt>0</asrwt>
<pdfrwt beam="2">  1       21 0.13025203E+00 0.10347944E+04</pdfrwt>
<pdfrwt beam="1">  1        4 0.80448826E-01 0.10347944E+04</pdfrwt>
<totfact> 0.21465838E+01</totfact>
</mgrwt>
</event>
<event>
 6    1  0.1412458E-005  0.1105178E+04  0.7818608E-02  0.9474318E-01
          4   -1    0    0  502    0 -0.00000000000E+00  0.00000000000E+00  0.11418602782E+04  0.11418602782E+04  0.00000000000E+00 0.  1.
         21   -1    0    0  501  502  0.00000000000E+00 -0.00000000000E+00 -0.52451043167E+03  0.52451043167E+03  0.00000000000E+00 0.  1.
    9000010    2    1    2  501    0  0.38388743949E+03 -0.14135056721E+03  0.59855318060E+03  0.12568552952E+04  0.10266790025E+04 0.  0.
        -13    1    3    3    0    0  0.17759773678E+02  0.37223904180E+03  0.49197009608E+03  0.61718060598E+03  0.10566000000E+00 0.  1.
          4    1    3    3  501    0  0.36612766581E+03 -0.51358960901E+03  0.10658308453E+03  0.63967468925E+03  0.00000000000E+00 0.  1.
         13    1    1    2    0    0 -0.38388743949E+03  0.14135056721E+03  0.18796665962E+02  0.40951541468E+03  0.10566000000E+00 0. -1.
<mgrwt>
<rscale>  1 0.86204001E+03</rscale>
<asrwt>0</asrwt>
<pdfrwt beam="2">  1       21 0.80693913E-01 0.11051784E+04</pdfrwt>
<pdfrwt beam="1">  1        4 0.17567081E+00 0.11051784E+04</pdfrwt>
<totfact> 0.97460023E+00</totfact>
</mgrwt>
</event>
<event>
 6    1  0.1412458E-005  0.1079462E+04  0.7818608E-02  0.9489971E-01
          4   -1    0    0  502    0 -0.00000000000E+00  0.00000000000E+00  0.38932342054E+03  0.38932342054E+03  0.00000000000E+00 0.  1.
         21   -1    0    0  501  502  0.00000000000E+00 -0.00000000000E+00 -0.15034299119E+04  0.15034299119E+04  0.00000000000E+00 0.  1.
    9000010    2    1    2  501    0 -0.41534350748E+03  0.12749106746E+02 -0.97485326148E+03  0.14545019866E+04  0.99627525245E+03 0.  0.
        -13    1    3    3    0    0  0.74236850820E+02 -0.27668447221E+03 -0.81477265103E+03  0.86366653936E+03  0.10566000000E+00 0.  1.
          4    1    3    3  501    0 -0.48958035830E+03  0.28943357896E+03 -0.16008061045E+03  0.59083544723E+03  0.00000000000E+00 0.  1.
         13    1    1    2    0    0  0.41534350748E+03 -0.12749106746E+02 -0.13925322985E+03  0.43825134582E+03  0.10566000000E+00 0. -1.
<mgrwt>
<rscale>  1 0.85027294E+03</rscale>
<asrwt>0</asrwt>
<pdfrwt beam="2">  1       21 0.23129691E+00 0.10794615E+04</pdfrwt>
<pdfrwt beam="1">  1        4 0.59895911E-01 0.10794615E+04</pdfrwt>
<totfact> 0.74027926E+00</totfact>
</mgrwt>
</event>
<event>
 6    1  0.1412458E-005  0.1006938E+04  0.7818608E-02  0.9884296E-01
          4   -1    0    0  502    0 -0.00000000000E+00  0.00000000000E+00  0.11465761123E+04  0.11465761123E+04  0.00000000000E+00 0.  1.
         21   -1    0    0  501  502  0.00000000000E+00 -0.00000000000E+00 -0.47930234709E+03  0.47930234709E+03  0.00000000000E+00 0.  1.
    9000010    2    1    2  501    0  0.13586729204E+03 -0.67966378812E+00  0.65620188802E+02  0.10090742602E+04  0.99772965797E+03 0.  0.
        -13    1    3    3    0    0  0.49735008300E+02  0.21128301488E+03  0.48499325258E+03  0.53134974324E+03  0.10566000000E+00 0.  1.
          4    1    3    3  501    0  0.86132283738E+02 -0.21196267867E+03 -0.41937306378E+03  0.47772451693E+03  0.00000000000E+00 0.  1.
         13    1    1    2    0    0 -0.13586729204E+03  0.67966378812E+00  0.60165357637E+03  0.61680419917E+03  0.10566000000E+00 0. -1.
<mgrwt>
<rscale>  1 0.61028442E+03</rscale>
<asrwt>0</asrwt>
<pdfrwt beam="2">  1       21 0.73738823E-01 0.10069384E+04</pdfrwt>
<pdfrwt beam="1">  1        4 0.17639632E+00 0.10069384E+04</pdfrwt>
<totfact> 0.12015506E+01</totfact>
</mgrwt>
</event>
<event>
 6    1  0.1412458E-005  0.1019154E+04  0.7818608E-02  0.9635518E-01
         21   -1    0    0  501  502  0.00000000000E+00  0.00000000000E+00  0.42405680301E+03  0.42405680301E+03  0.00000000000E+00 0.  1.
          4   -1    0    0  502    0 -0.00000000000E+00 -0.00000000000E+00 -0.10351755222E+04  0.10351755222E+04  0.00000000000E+00 0.  1.
    9000010    2    1    2  501    0 -0.22967178703E+03  0.19102447946E+03 -0.53460695754E+03  0.11508599167E+04  0.97438927912E+03 0.  0.
        -13    1    3    3    0    0  0.23810135961E+03 -0.68474829247E+02 -0.56307625604E+03  0.61517147282E+03  0.10566000000E+00 0.  1.
          4    1    3    3  501    0 -0.46777314663E+03  0.25949930870E+03  0.28469298501E+02  0.53568844386E+03  0.00000000000E+00 0.  1.
         13    1    1    2    0    0  0.22967178703E+03 -0.19102447946E+03 -0.76511761638E+02  0.30837240853E+03  0.10566000000E+00 0. -1.
<mgrwt>
<rscale>  1 0.74989318E+03</rscale>
<asrwt>0</asrwt>
<pdfrwt beam="1">  1       21 0.65239508E-01 0.10191535E+04</pdfrwt>
<pdfrwt beam="2">  1        4 0.15925777E+00 0.10191535E+04</pdfrwt>
<totfact> 0.21153283E+01</totfact>
</mgrwt>
</event>
<event>
 6    1  0.1412458E-005  0.1006159E+04  0.7818608E-02  0.9735122E-01
         21   -1    0    0  501  502  0.00000000000E+00  0.00000000000E+00  0.69093834485E+03  0.69093834485E+03  0.00000000000E+00 0.  1.
          4   -1    0    0  502    0 -0.00000000000E+00 -0.00000000000E+00 -0.54695801248E+03  0.54695801248E+03  0.00000000000E+00 0.  1.
    9000010    2    1    2  501    0  0.20332016540E+03  0.89296384468E+02  0.96182647536E+02  0.10107453860E+04  0.98134713516E+03 0.  0.
        -13    1    3    3    0    0  0.81849097109E+02 -0.44794058126E+03  0.44805325444E+02  0.45755608114E+03  0.10566000000E+00 0.  1.
          4    1    3    3  501    0  0.12147106829E+03  0.53723696573E+03  0.51377322092E+02  0.55318930485E+03  0.00000000000E+00 0.  1.
         13    1    1    2    0    0 -0.20332016540E+03 -0.89296384468E+02  0.47797684832E+02  0.22715097133E+03  0.10566000000E+00 0. -1.
<mgrwt>
<rscale>  1 0.68963613E+03</rscale>
<asrwt>0</asrwt>
<pdfrwt beam="1">  1       21 0.10629821E+00 0.10061586E+04</pdfrwt>
<pdfrwt beam="2">  1        4 0.84147386E-01 0.10061586E+04</pdfrwt>
<totfact> 0.32796840E+01</totfact>
</mgrwt>
</event>
<event>
 6    1  0.1412458E-005  0.1075867E+04  0.7818608E-02  0.9582045E-01
         21   -1    0    0  501  502  0.00000000000E+00  0.00000000000E+00  0.36271004224E+03  0.36271004224E+03  0.00000000000E+00 0.  1.
          4   -1    0    0  502    0 -0.00000000000E+00 -0.00000000000E+00 -0.14443091953E+04  0.14443091953E+04  0.00000000000E+00 0.  1.
    9000010    2    1    2  501    0  0.22488847341E+03  0.20584199015E+03 -0.58586674627E+03  0.12250429660E+04  0.10317677421E+04 0.  0.
        -13    1    3    3    0    0  0.37488286629E+03  0.33122485869E+03  0.10147872071E+03  0.51043610019E+03  0.10566000000E+00 0.  1.
          4    1    3    3  501    0 -0.14999439289E+03 -0.12538286853E+03 -0.68734546698E+03  0.71460686577E+03  0.00000000000E+00 0.  1.
         13    1    1    2    0    0 -0.22488847341E+03 -0.20584199015E+03 -0.49573240674E+03  0.58197627154E+03  0.10566000000E+00 0. -1.
<mgrwt>
<rscale>  1 0.78496036E+03</rscale>
<asrwt>0</asrwt>
<pdfrwt beam="1">  1       21 0.55801545E-01 0.10758673E+04</pdfrwt>
<pdfrwt beam="2">  1        4 0.22220141E+00 0.10758673E+04</pdfrwt>
<totfact> 0.11082237E+01</totfact>
</mgrwt>
</event>
<event>
 6    1  0.1412458E-005  0.1011424E+04  0.7818608E-02  0.9816302E-01
          4   -1    0    0  502    0 -0.00000000000E+00  0.00000000000E+00  0.81983170590E+03  0.81983170590E+03  0.00000000000E+00 0.  1.
         21   -1    0    0  501  502  0.00000000000E+00 -0.00000000000E+00 -0.65738166369E+03  0.65738166369E+03  0.00000000000E+00 0.  1.
    9000010    2    1    2  501    0  0.10440370632E+03  0.13063051551E+03 -0.24163965877E+03  0.10398885897E+04  0.99750392926E+03 0.  0.
        -13    1    3    3    0    0  0.52006864203E+03  0.25170058442E+03 -0.11882483046E+03  0.58986772086E+03  0.10566000000E+00 0.  1.
          4    1    3    3  501    0 -0.41566493571E+03 -0.12107006891E+03 -0.12281482831E+03  0.45002086887E+03  0.00000000000E+00 0.  1.
         13    1    1    2    0    0 -0.10440370632E+03 -0.13063051551E+03  0.40408970098E+03  0.43732477986E+03  0.10566000000E+00 0. -1.
<mgrwt>
<rscale>  1 0.64494961E+03</rscale>
<asrwt>0</asrwt>
<pdfrwt beam="2">  1       21 0.10113564E+00 0.10114240E+04</pdfrwt>
<pdfrwt beam="1">  1        4 0.12612796E+00 0.10114240E+04</pdfrwt>
<totfact> 0.13895826E+01</totfact>
</mgrwt>
</event>
<event>
 6    1  0.1412458E-005  0.1068231E+04  0.7818608E-02  0.9550849E-01
          4   -1    0    0  502    0 -0.00000000000E+00  0.00000000000E+00  0.35675908808E+03  0.35675908808E+03  0.00000000000E+00 0.  1.
         21   -1    0    0  501  502  0.00000000000E+00 -0.00000000000E+00 -0.14172555597E+04  0.14172555597E+04  0.00000000000E+00 0.  1.
    9000010    2    1    2  501    0 -0.33752347302E+03 -0.79859900435E+02 -0.72178829549E+03  0.12892230036E+04  0.10103553389E+04 0.  0.
        -13    1    3    3    0    0 -0.32592837914E+03 -0.45471678964E+03 -0.72300571506E+03  0.91418485127E+03  0.10566000000E+00 0.  1.
          4    1    3    3  501    0 -0.11595093877E+02  0.37485688920E+03  0.12174195723E+01  0.37503815232E+03  0.00000000000E+00 0.  1.
         13    1    1    2    0    0  0.33752347302E+03  0.79859900435E+02 -0.33870817611E+03  0.48479164417E+03  0.10566000000E+00 0. -1.
<mgrwt>
<rscale>  1 0.80636567E+03</rscale>
<asrwt>0</asrwt>
<pdfrwt beam="2">  1       21 0.21803932E+00 0.10682311E+04</pdfrwt>
<pdfrwt beam="1">  1        4 0.54886014E-01 0.10682311E+04</pdfrwt>
<totfact> 0.10945880E+01</totfact>
</mgrwt>
</event>
<event>
 6    1  0.1412458E-005  0.1025884E+04  0.7818608E-02  0.9664894E-01
         21   -1    0    0  501  502  0.00000000000E+00  0.00000000000E+00  0.17010404460E+03  0.17010404460E+03  0.00000000000E+00 0. -1.
          4   -1    0    0  502    0 -0.00000000000E+00 -0.00000000000E+00 -0.24506400514E+04  0.24506400514E+04  0.00000000000E+00 0.  1.
    9000010    2    1    2  501    0  0.24749656520E+03 -0.95088798474E+02 -0.18339731913E+04  0.21014033709E+04  0.99103079241E+03 0.  0.
        -13    1    3    3    0    0 -0.21515659855E+03  0.33240415761E+03 -0.71083385865E+03  0.81367663827E+03  0.10566000000E+00 0.  1.
          4    1    3    3  501    0  0.46265316374E+03 -0.42749295609E+03 -0.11231393326E+04  0.12877267326E+04  0.00000000000E+00 0.  1.
         13    1    1    2    0    0 -0.24749656520E+03  0.95088798474E+02 -0.44656281552E+03  0.51934072510E+03  0.10566000000E+00 0. -1.
<mgrwt>
<rscale>  1 0.73145984E+03</rscale>
<asrwt>0</asrwt>
<pdfrwt beam="1">  1       21 0.26169853E-01 0.10258842E+04</pdfrwt>
<pdfrwt beam="2">  1        4 0.37702155E+00 0.10258842E+04</pdfrwt>
<totfact> 0.57074169E+00</totfact>
</mgrwt>
</event>
<event>
 6    1  0.1412458E-005  0.1001007E+04  0.7818608E-02  0.1006399E+00
          4   -1    0    0  502    0 -0.00000000000E+00  0.00000000000E+00  0.38579345909E+03  0.38579345909E+03  0.00000000000E+00 0.  1.
         21   -1    0    0  501  502  0.00000000000E+00 -0.00000000000E+00 -0.13057297389E+04  0.13057297389E+04  0.00000000000E+00 0.  1.
    9000010    2    1    2  501    0  0.31531924733E+02  0.71625552965E+02 -0.11047630268E+04  0.14908109172E+04  0.99794356725E+03 0.  0.
        -13    1    3    3    0    0  0.12598013823E+03  0.52258414034E+03 -0.64930024158E+03  0.84294483440E+03  0.10566000000E+00 0.  1.
          4    1    3    3  501    0 -0.94448213495E+02 -0.45095858737E+03 -0.45546278520E+03  0.64786608281E+03  0.00000000000E+00 0.  1.
         13    1    1    2    0    0 -0.31531924733E+02 -0.71625552965E+02  0.18482674695E+03  0.20071228080E+03  0.10566000000E+00 0. -1.
<mgrwt>
<rscale>  1 0.52931200E+03</rscale>
<asrwt>0</asrwt>
<pdfrwt beam="2">  1       21 0.20088150E+00 0.10010074E+04</pdfrwt>
<pdfrwt beam="1">  1        4 0.59352840E-01 0.10010074E+04</pdfrwt>
<totfact> 0.12175852E+01</totfact>
</mgrwt>
</event>
<event>
 6    1  0.1412458E-005  0.1101832E+04  0.7818608E-02  0.9416251E-01
          4   -1    0    0  502    0 -0.00000000000E+00  0.00000000000E+00  0.67167270890E+03  0.67167270890E+03  0.00000000000E+00 0.  1.
         21   -1    0    0  501  502  0.00000000000E+00 -0.00000000000E+00 -0.97383728718E+03  0.97383728718E+03  0.00000000000E+00 0. -1.
    9000010    2    1    2  501    0  0.29551212679E+03 -0.41202641474E+03 -0.12730356055E+03  0.11091616296E+04  0.97823317290E+03 0.  0.
        -13    1    3    3    0    0  0.45441695038E+03 -0.30849582327E+03 -0.46645305949E+03  0.72058511339E+03  0.10566000000E+00 0.  1.
          4    1    3    3  501    0 -0.15890482360E+03 -0.10353059147E+03  0.33914949894E+03  0.38857651623E+03  0.00000000000E+00 0.  1.
         13    1    1    2    0    0 -0.29551212679E+03  0.41202641474E+03 -0.17486101773E+03  0.53634836647E+03  0.10566000000E+00 0. -1.
<mgrwt>
<rscale>  1 0.90750255E+03</rscale>
<asrwt>0</asrwt>
<pdfrwt beam="2">  1       21 0.14982112E+00 0.11018318E+04</pdfrwt>
<pdfrwt beam="1">  1        4 0.10333426E+00 0.11018318E+04</pdfrwt>
<totfact> 0.80524305E+00</totfact>
</mgrwt>
</event>
<event>
 6    1  0.1412458E-005  0.1019318E+04  0.7818608E-02  0.1000955E+00
         21   -1    0    0  501  502  0.00000000000E+00  0.00000000000E+00  0.68964156873E+03  0.68964156873E+03  0.00000000000E+00 0.  1.
          4   -1    0    0  502    0 -0.00000000000E+00 -0.00000000000E+00 -0.58147853915E+03  0.58147853915E+03  0.00000000000E+00 0.  1.
    9000010    2    1    2  501    0  0.46922542712E+02  0.74302328246E+02  0.29795281043E+03  0.10619724732E+04  0.10155230651E+04 0.  0.
        -13    1    3    3    0    0  0.16028437524E+03  0.12267594799E+03  0.65439839684E+03  0.68481949601E+03  0.10566000000E+00 0.  1.
          4    1    3    3  501    0 -0.11336183253E+03 -0.48373619743E+02 -0.35644558641E+03  0.37715297723E+03  0.00000000000E+00 0.  1.
         13    1    1    2    0    0 -0.46922542712E+02 -0.74302328246E+02 -0.18978978085E+03  0.20914763464E+03  0.10566000000E+00 0. -1.
<mgrwt>
<rscale>  1 0.55233503E+03</rscale>
<asrwt>0</asrwt>
<pdfrwt beam="1">  1       21 0.10609870E+00 0.10193182E+04</pdfrwt>
<pdfrwt beam="2">  1        4 0.89458237E-01 0.10193182E+04</pdfrwt>
<totfact> 0.28529220E+01</totfact>
</mgrwt>
</event>
<event>
 6    1  0.1412458E-005  0.1004845E+04  0.7818608E-02  0.9952379E-01
         21   -1    0    0  501  502  0.00000000000E+00  0.00000000000E+00  0.93012818094E+03  0.93012818094E+03  0.00000000000E+00 0.  1.
          4   -1    0    0  502    0 -0.00000000000E+00 -0.00000000000E+00 -0.37222958883E+03  0.37222958883E+03  0.00000000000E+00 0.  1.
    9000010    2    1    2  501    0 -0.10984154827E+03  0.41069472579E+01  0.61539023644E+03  0.11783120803E+04  0.99881538973E+03 0.  0.
        -13    1    3    3    0    0 -0.12515258680E+03 -0.86505154190E+02 -0.25831450801E+03  0.29978777143E+03  0.10566000000E+00 0.  1.
          4    1    3    3  501    0  0.15311038535E+02  0.90612101448E+02  0.87370474445E+03  0.87852430888E+03  0.00000000000E+00 0.  1.
         13    1    1    2    0    0  0.10984154827E+03 -0.41069472579E+01 -0.57491644334E+02  0.12404568946E+03  0.10566000000E+00 0. -1.
<mgrwt>
<rscale>  1 0.57788574E+03</rscale>
<asrwt>0</asrwt>
<pdfrwt beam="1">  1       21 0.14309664E+00 0.10048454E+04</pdfrwt>
<pdfrwt beam="2">  1        4 0.57266091E-01 0.10048454E+04</pdfrwt>
<totfact> 0.35623387E+01</totfact>
</mgrwt>
</event>
<event>
 6    1  0.1412458E-005  0.1010335E+04  0.7818608E-02  0.9707303E-01
          4   -1    0    0  502    0 -0.00000000000E+00  0.00000000000E+00  0.21905561657E+04  0.21905561657E+04  0.00000000000E+00 0.  1.
         21   -1    0    0  501  502  0.00000000000E+00 -0.00000000000E+00 -0.20258112041E+03  0.20258112041E+03  0.00000000000E+00 0.  1.
    9000010    2    1    2  501    0  0.15422977829E+03  0.18475503537E+03  0.11971765382E+04  0.15665276216E+04  0.98125219888E+03 0.  0.
        -13    1    3    3    0    0  0.11086333063E+03 -0.20208692325E+03 -0.70012511957E+02  0.24089741722E+03  0.10566000000E+00 0.  1.
          4    1    3    3  501    0  0.43366447662E+02  0.38684195863E+03  0.12671890502E+04  0.13256302044E+04  0.00000000000E+00 0.  1.
         13    1    1    2    0    0 -0.15422977829E+03 -0.18475503537E+03  0.79079850708E+03  0.82660966458E+03  0.10566000000E+00 0. -1.
<mgrwt>
<rscale>  1 0.70583607E+03</rscale>
<asrwt>0</asrwt>
<pdfrwt beam="2">  1       21 0.31166328E-01 0.10103352E+04</pdfrwt>
<pdfrwt beam="1">  1        4 0.33700862E+00 0.10103352E+04</pdfrwt>
<totfact> 0.73533940E+00</totfact>
</mgrwt>
</event>
<event>
 6    1  0.1412458E-005  0.1161375E+04  0.7818608E-02  0.9337852E-01
          4   -1    0    0  502    0 -0.00000000000E+00  0.00000000000E+00  0.70011310070E+03  0.70011310070E+03  0.00000000000E+00 0.  1.
         21   -1    0    0  501  502  0.00000000000E+00 -0.00000000000E+00 -0.13406243902E+04  0.13406243902E+04  0.00000000000E+00 0. -1.
    9000010    2    1    2  501    0 -0.29517407716E+03 -0.49213494397E+03 -0.83985748569E+03  0.14332315600E+04  0.10096868671E+04 0.  0.
        -13    1    3    3    0    0  0.23677799610E+03  0.18434428267E+03 -0.23945189983E+03  0.38390605294E+03  0.10566000000E+00 0.  1.
          4    1    3    3  501    0 -0.53195207326E+03 -0.67647922664E+03 -0.60040558586E+03  0.10493255071E+04  0.00000000000E+00 0.  1.
         13    1    1    2    0    0  0.29517407716E+03  0.49213494397E+03  0.19934619620E+03  0.60750593084E+03  0.10566000000E+00 0. -1.
<mgrwt>
<rscale>  1 0.97371620E+03</rscale>
<asrwt>0</asrwt>
<pdfrwt beam="2">  1       21 0.20624990E+00 0.11613751E+04</pdfrwt>
<pdfrwt beam="1">  1        4 0.10770971E+00 0.11613751E+04</pdfrwt>
<totfact> 0.27717528E+00</totfact>
</mgrwt>
</event>
<event>
 6    1  0.1412458E-005  0.1005681E+04  0.7818608E-02  0.9868504E-01
         21   -1    0    0  501  502  0.00000000000E+00  0.00000000000E+00  0.51484464485E+03  0.51484464485E+03  0.00000000000E+00 0.  1.
          4   -1    0    0  502    0 -0.00000000000E+00 -0.00000000000E+00 -0.67068024995E+03  0.67068024995E+03  0.00000000000E+00 0.  1.
    9000010    2    1    2  501    0  0.47148223099E+02  0.13555677383E+03 -0.49491399314E+02  0.10068976428E+04  0.99538679451E+03 0.  0.
        -13    1    3    3    0    0  0.26856552964E+03 -0.77439410106E+02  0.38438053972E+03  0.47526068260E+03  0.10566000000E+00 0.  1.
          4    1    3    3  501    0 -0.22141730654E+03  0.21299618394E+03 -0.43387193903E+03  0.53163696024E+03  0.00000000000E+00 0.  1.
         13    1    1    2    0    0 -0.47148223099E+02 -0.13555677383E+03 -0.10634420579E+03  0.17862725196E+03  0.10566000000E+00 0. -1.
<mgrwt>
<rscale>  1 0.61812282E+03</rscale>
<asrwt>0</asrwt>
<pdfrwt beam="1">  1       21 0.79206869E-01 0.10056806E+04</pdfrwt>
<pdfrwt beam="2">  1        4 0.10318158E+00 0.10056806E+04</pdfrwt>
<totfact> 0.41308220E+01</totfact>
</mgrwt>
</event>
<event>
 6    1  0.1412458E-005  0.1000532E+04  0.7818608E-02  0.1040595E+00
         21   -1    0    0  501  502  0.00000000000E+00  0.00000000000E+00  0.56523633804E+03  0.56523633804E+03  0.00000000000E+00 0.  1.
          4   -1    0    0  502    0 -0.00000000000E+00 -0.00000000000E+00 -0.56465626796E+03  0.56465626796E+03  0.00000000000E+00 0.  1.
    9000010    2    1    2  501    0  0.13106239116E+02 -0.24776407293E+02  0.11956471076E+03  0.10076510429E+04  0.10001396204E+04 0.  0.
        -13    1    3    3    0    0  0.10154095178E+03  0.28239539997E-01  0.55419574930E+03  0.56342125039E+03  0.10566000000E+00 0.  1.
          4    1    3    3  501    0 -0.88434712662E+02 -0.24804646833E+02 -0.43463103854E+03  0.44422979253E+03  0.00000000000E+00 0.  1.
         13    1    1    2    0    0 -0.13106239116E+02  0.24776407293E+02 -0.11898464067E+03  0.12224156307E+03  0.10566000000E+00 0. -1.
<mgrwt>
<rscale>  1 0.40933353E+03</rscale>
<asrwt>0</asrwt>
<pdfrwt beam="1">  1       21 0.86959437E-01 0.10005323E+04</pdfrwt>
<pdfrwt beam="2">  1        4 0.86870195E-01 0.10005323E+04</pdfrwt>
<totfact> 0.49884448E+01</totfact>
</mgrwt>
</event>
<event>
 6    1  0.1412458E-005  0.1054823E+04  0.7818608E-02  0.9568486E-01
         21   -1    0    0  501  502  0.00000000000E+00  0.00000000000E+00  0.46852255027E+03  0.46852255027E+03  0.00000000000E+00 0.  1.
          4   -1    0    0  502    0 -0.00000000000E+00 -0.00000000000E+00 -0.12075831729E+04  0.12075831729E+04  0.00000000000E+00 0.  1.
    9000010    2    1    2  501    0  0.30142186815E+03 -0.15500869417E+03 -0.25505402530E+03  0.10852205945E+04  0.99888354928E+03 0.  0.
        -13    1    3    3    0    0 -0.36793386279E+02  0.24578347731E+03  0.25329118128E+03  0.35485166573E+03  0.10566000000E+00 0.  1.
          4    1    3    3  501    0  0.33821525443E+03 -0.40079217148E+03 -0.50834520659E+03  0.73036892877E+03  0.00000000000E+00 0.  1.
         13    1    1    2    0    0 -0.30142186815E+03  0.15500869417E+03 -0.48400659733E+03  0.59088512868E+03  0.10566000000E+00 0. -1.
<mgrwt>
<rscale>  1 0.79417560E+03</rscale>
<asrwt>0</asrwt>
<pdfrwt beam="1">  1       21 0.72080393E-01 0.10548228E+04</pdfrwt>
<pdfrwt beam="2">  1        4 0.18578203E+00 0.10548228E+04</pdfrwt>
<totfact> 0.10838671E+01</totfact>
</mgrwt>
</event>
<event>
 6    1  0.1412458E-005  0.1056443E+04  0.7818608E-02  0.9548262E-01
         21   -1    0    0  501  502  0.00000000000E+00  0.00000000000E+00  0.13459624673E+04  0.13459624673E+04  0.00000000000E+00 0. -1.
          4   -1    0    0  502    0 -0.00000000000E+00 -0.00000000000E+00 -0.37406234751E+03  0.37406234751E+03  0.00000000000E+00 0.  1.
    9000010    2    1    2  501    0  0.31994505164E+03  0.16893962049E+03  0.74986879970E+03  0.12955211638E+04  0.99255550865E+03 0.  0.
        -13    1    3    3    0    0 -0.78665850378E+02 -0.36675951141E+03  0.37200783295E+03  0.52829035025E+03  0.10566000000E+00 0.  1.
          4    1    3    3  501    0  0.39861090202E+03  0.53569913190E+03  0.37786096676E+03  0.76723081359E+03  0.00000000000E+00 0.  1.
         13    1    1    2    0    0 -0.31994505164E+03 -0.16893962049E+03  0.22203132012E+03  0.42450365101E+03  0.10566000000E+00 0. -1.
<mgrwt>
<rscale>  1 0.80817288E+03</rscale>
<asrwt>0</asrwt>
<pdfrwt beam="1">  1       21 0.20707115E+00 0.10564430E+04</pdfrwt>
<pdfrwt beam="2">  1        4 0.57548054E-01 0.10564430E+04</pdfrwt>
<totfact> 0.11727970E+01</totfact>
</mgrwt>
</event>
<event>
 6    1  0.1412458E-005  0.1004524E+04  0.7818608E-02  0.9935977E-01
         21   -1    0    0  501  502  0.00000000000E+00  0.00000000000E+00  0.91327755451E+03  0.91327755451E+03  0.00000000000E+00 0.  1.
          4   -1    0    0  502    0 -0.00000000000E+00 -0.00000000000E+00 -0.34613149360E+03  0.34613149360E+03  0.00000000000E+00 0.  1.
    9000010    2    1    2  501    0 -0.55246812825E+02  0.10191905765E+03  0.47422782235E+03  0.11108374665E+04  0.99781167807E+03 0.  0.
        -13    1    3    3    0    0 -0.49455502196E+03 -0.91639541993E+02  0.35665177462E+03  0.61658979469E+03  0.10566000000E+00 0.  1.
          4    1    3    3  501    0  0.43930820914E+03  0.19355859964E+03  0.11757604773E+03  0.49424767183E+03  0.00000000000E+00 0.  1.
         13    1    1    2    0    0  0.55246812825E+02 -0.10191905765E+03  0.92918238562E+02  0.14857158160E+03  0.10566000000E+00 0. -1.
<mgrwt>
<rscale>  1 0.58548929E+03</rscale>
<asrwt>0</asrwt>
<pdfrwt beam="1">  1       21 0.14050424E+00 0.10045237E+04</pdfrwt>
<pdfrwt beam="2">  1        4 0.53250999E-01 0.10045237E+04</pdfrwt>
<totfact> 0.43778240E+01</totfact>
</mgrwt>
</event>
<event>
 6    1  0.1412458E-005  0.1084089E+04  0.7818608E-02  0.9518174E-01
         21   -1    0    0  501  502  0.00000000000E+00  0.00000000000E+00  0.56261032490E+03  0.56261032490E+03  0.00000000000E+00 0.  1.
          4   -1    0    0  502    0 -0.00000000000E+00 -0.00000000000E+00 -0.95860511294E+03  0.95860511294E+03  0.00000000000E+00 0.  1.
    9000010    2    1    2  501    0 -0.92559368571E+02 -0.36001486766E+03 -0.20502196203E+03  0.11033056712E+04  0.10183670544E+04 0.  0.
        -13    1    3    3    0    0 -0.33242342729E+03 -0.63496060885E+03 -0.17115222335E+03  0.73686729099E+03  0.10566000000E+00 0.  1.
          4    1    3    3  501    0  0.23986405872E+03  0.27494574119E+03 -0.33869738685E+02  0.36643838017E+03  0.00000000000E+00 0.  1.
         13    1    1    2    0    0  0.92559368571E+02  0.36001486766E+03 -0.19097282601E+03  0.41790976668E+03  0.10566000000E+00 0. -1.
<mgrwt>
<rscale>  1 0.82957109E+03</rscale>
<asrwt>0</asrwt>
<pdfrwt beam="1">  1       21 0.86555435E-01 0.10840892E+04</pdfrwt>
<pdfrwt beam="2">  1        4 0.14747771E+00 0.10840892E+04</pdfrwt>
<totfact> 0.13408059E+01</totfact>
</mgrwt>
</event>
<event>
 6    1  0.1412458E-005  0.8832999E+03  0.7818608E-02  0.1010811E+00
         21   -1    0    0  501  502  0.00000000000E+00  0.00000000000E+00  0.10542410040E+04  0.10542410040E+04  0.00000000000E+00 0.  1.
          4   -1    0    0  502    0 -0.00000000000E+00 -0.00000000000E+00 -0.42152575904E+03  0.42152575904E+03  0.00000000000E+00 0.  1.
    9000010    2    1    2  501    0  0.48659217483E+02  0.86622178689E+02  0.85684035687E+03  0.12306072267E+04  0.87769449587E+03 0.  0.
        -13    1    3    3    0    0  0.35638228015E+03  0.26636747698E+03  0.20978544480E+03  0.49190436714E+03  0.10566000000E+00 0.  1.
          4    1    3    3  501    0 -0.30772306267E+03 -0.17974529829E+03  0.64705491207E+03  0.73870285961E+03  0.00000000000E+00 0.  1.
         13    1    1    2    0    0 -0.48659217483E+02 -0.86622178689E+02 -0.22412511190E+03  0.24515953630E+03  0.10566000000E+00 0. -1.
<mgrwt>
<rscale>  1 0.51153696E+03</rscale>
<asrwt>0</asrwt>
<pdfrwt beam="1">  1       21 0.16219092E+00 0.88329992E+03</pdfrwt>
<pdfrwt beam="2">  1        4 0.64850117E-01 0.88329992E+03</pdfrwt>
<totfact> 0.19384259E+01</totfact>
</mgrwt>
</event>
<event>
 6    1  0.1412458E-005  0.7662439E+03  0.7818608E-02  0.1003066E+00
          4   -1    0    0  502    0 -0.00000000000E+00  0.00000000000E+00  0.89782047253E+03  0.89782047253E+03  0.00000000000E+00 0.  1.
         21   -1    0    0  501  502  0.00000000000E+00 -0.00000000000E+00 -0.37326248537E+03  0.37326248537E+03  0.00000000000E+00 0.  1.
    9000010    2    1    2  501    0 -0.18087371718E+03  0.69074344212E+02  0.60943338333E+02  0.76866369040E+03  0.74137926317E+03 0.  0.
        -13    1    3    3    0    0 -0.11454849477E+03 -0.22589622917E+03  0.29317582352E+03  0.38743068886E+03  0.10566000000E+00 0.  1.
          4    1    3    3  501    0 -0.66325222408E+02  0.29497057338E+03 -0.23223248519E+03  0.38123300154E+03  0.00000000000E+00 0.  1.
         13    1    1    2    0    0  0.18087371718E+03 -0.69074344212E+02  0.46361464882E+03  0.50241926751E+03  0.10566000000E+00 0. -1.
<mgrwt>
<rscale>  1 0.54326255E+03</rscale>
<asrwt>0</asrwt>
<pdfrwt beam="2">  1       21 0.57424998E-01 0.76624394E+03</pdfrwt>
<pdfrwt beam="1">  1        4 0.13812623E+00 0.76624394E+03</pdfrwt>
<totfact> 0.42204112E+01</totfact>
</mgrwt>
</event>
<event>
 6    1  0.1412458E-005  0.1157515E+04  0.7818608E-02  0.9344982E-01
         21   -1    0    0  501  502  0.00000000000E+00  0.00000000000E+00  0.65853496792E+03  0.65853496792E+03  0.00000000000E+00 0.  1.
          4   -1    0    0  502    0 -0.00000000000E+00 -0.00000000000E+00 -0.12785510192E+04  0.12785510192E+04  0.00000000000E+00 0.  1.
    9000010    2    1    2  501    0 -0.44740216967E+03 -0.34480792063E+03 -0.87543990680E+02  0.11608207553E+04  0.10103364153E+04 0.  0.
        -13    1    3    3    0    0 -0.40646702375E+03 -0.68621128021E+03  0.28076183541E+02  0.79805366093E+03  0.10566000000E+00 0.  1.
          4    1    3    3  501    0 -0.40935145925E+02  0.34140335958E+03 -0.11562017422E+03  0.36276709441E+03  0.00000000000E+00 0.  1.
         13    1    1    2    0    0  0.44740216967E+03  0.34480792063E+03 -0.53247206057E+03  0.77626523174E+03  0.10566000000E+00 0. -1.
<mgrwt>
<rscale>  1 0.96745152E+03</rscale>
<asrwt>0</asrwt>
<pdfrwt beam="1">  1       21 0.10131307E+00 0.11575150E+04</pdfrwt>
<pdfrwt beam="2">  1        4 0.19670016E+00 0.11575150E+04</pdfrwt>
<totfact> 0.39994542E+00</totfact>
</mgrwt>
</event>
<event>
 6    1  0.1412458E-005  0.9931270E+03  0.7818608E-02  0.1007549E+00
         21   -1    0    0  501  502  0.00000000000E+00  0.00000000000E+00  0.66878372772E+03  0.66878372772E+03  0.00000000000E+00 0.  1.
          4   -1    0    0  502    0 -0.00000000000E+00 -0.00000000000E+00 -0.53037891097E+03  0.53037891097E+03  0.00000000000E+00 0.  1.
    9000010    2    1    2  501    0 -0.72189266752E+02 -0.27707902048E+02  0.28518334959E+03  0.10332621657E+04  0.99011218664E+03 0.  0.
        -13    1    3    3    0    0 -0.42194652936E+03  0.29194203478E+03  0.20582852427E+03  0.55284212744E+03  0.10566000000E+00 0.  1.
          4    1    3    3  501    0  0.34975726261E+03 -0.31964993682E+03  0.79354825315E+02  0.48042003826E+03  0.00000000000E+00 0.  1.
         13    1    1    2    0    0  0.72189266752E+02  0.27707902048E+02 -0.14677853284E+03  0.16590047298E+03  0.10566000000E+00 0. -1.
<mgrwt>
<rscale>  1 0.52460499E+03</rscale>
<asrwt>0</asrwt>
<pdfrwt beam="1">  1       21 0.10288980E+00 0.99312696E+03</pdfrwt>
<pdfrwt beam="2">  1        4 0.81596756E-01 0.99312696E+03</pdfrwt>
<totfact> 0.38264265E+01</totfact>
</mgrwt>
</event>
<event>
 6    1  0.1412458E-005  0.1008377E+04  0.7818608E-02  0.9771251E-01
         21   -1    0    0  501  502  0.00000000000E+00  0.00000000000E+00  0.31207301639E+03  0.31207301639E+03  0.00000000000E+00 0.  1.
          4   -1    0    0  502    0 -0.00000000000E+00 -0.00000000000E+00 -0.12080325011E+04  0.12080325011E+04  0.00000000000E+00 0.  1.
    9000010    2    1    2  501    0  0.18676252930E+03  0.58442245143E+02 -0.62674022019E+03  0.11872770903E+04  0.98920566479E+03 0.  0.
        -13    1    3    3    0    0  0.58116943696E+02  0.49365662619E+03 -0.12865726170E+03  0.51344634177E+03  0.10566000000E+00 0.  1.
          4    1    3    3  501    0  0.12864558560E+03 -0.43521438105E+03 -0.49808295849E+03  0.67383074856E+03  0.00000000000E+00 0.  1.
         13    1    1    2    0    0 -0.18676252930E+03 -0.58442245143E+02 -0.26921926450E+03  0.33282842714E+03  0.10566000000E+00 0. -1.
<mgrwt>
<rscale>  1 0.66928474E+03</rscale>
<asrwt>0</asrwt>
<pdfrwt beam="1">  1       21 0.48011233E-01 0.10083767E+04</pdfrwt>
<pdfrwt beam="2">  1        4 0.18585116E+00 0.10083767E+04</pdfrwt>
<totfact> 0.26856188E+01</totfact>
</mgrwt>
</event>
<event>
 6    1  0.1412458E-005  0.8040465E+03  0.7818608E-02  0.1028820E+00
          4   -1    0    0  502    0 -0.00000000000E+00  0.00000000000E+00  0.23671419464E+03  0.23671419464E+03  0.00000000000E+00 0.  1.
         21   -1    0    0  501  502  0.00000000000E+00 -0.00000000000E+00 -0.92568392113E+03  0.92568392113E+03  0.00000000000E+00 0.  1.
    9000010    2    1    2  501    0 -0.19574824316E+02  0.73797582195E+02 -0.72065186404E+03  0.10797359969E+04  0.80041330391E+03 0.  0.
        -13    1    3    3    0    0  0.33201577615E+03 -0.31462528026E+02 -0.61201820736E+03  0.69698684606E+03  0.10566000000E+00 0.  1.
          4    1    3    3  501    0 -0.35159060046E+03  0.10526011022E+03 -0.10863365668E+03  0.38274915088E+03  0.00000000000E+00 0.  1.
         13    1    1    2    0    0  0.19574824316E+02 -0.73797582195E+02  0.31682137544E+02  0.82662118822E+02  0.10566000000E+00 0. -1.
<mgrwt>
<rscale>  1 0.44633671E+03</rscale>
<asrwt>0</asrwt>
<pdfrwt beam="2">  1       21 0.14241291E+00 0.80404646E+03</pdfrwt>
<pdfrwt beam="1">  1        4 0.36417568E-01 0.80404646E+03</pdfrwt>
<totfact> 0.94374496E+01</totfact>
</mgrwt>
</event>
<event>
 6    1  0.1412458E-005  0.1020209E+04  0.7818608E-02  0.9779482E-01
          4   -1    0    0  502    0 -0.00000000000E+00  0.00000000000E+00  0.32947861372E+03  0.32947861372E+03  0.00000000000E+00 0.  1.
         21   -1    0    0  501  502  0.00000000000E+00 -0.00000000000E+00 -0.11176652790E+04  0.11176652790E+04  0.00000000000E+00 0.  1.
    9000010    2    1    2  501    0  0.24916791344E+02  0.18220114363E+03 -0.72920277340E+03  0.12540190266E+04  0.10034983464E+04 0.  0.
        -13    1    3    3    0    0  0.42470123172E+02  0.26256371557E+03  0.19270498452E+03  0.32844883668E+03  0.10566000000E+00 0.  1.
          4    1    3    3  501    0 -0.17553331828E+02 -0.80362571937E+02 -0.92190775793E+03  0.92557018997E+03  0.00000000000E+00 0.  1.
         13    1    1    2    0    0 -0.24916791344E+02 -0.18220114363E+03 -0.58983891885E+02  0.19312486608E+03  0.10566000000E+00 0. -1.
<mgrwt>
<rscale>  1 0.66475350E+03</rscale>
<asrwt>0</asrwt>
<pdfrwt beam="2">  1       21 0.17194851E+00 0.10202093E+04</pdfrwt>
<pdfrwt beam="1">  1        4 0.50689017E-01 0.10202093E+04</pdfrwt>
<totfact> 0.27406527E+01</totfact>
</mgrwt>
</event>
<event>
 6    1  0.1412458E-005  0.9985327E+03  0.7818608E-02  0.9999268E-01
          4   -1    0    0  502    0 -0.00000000000E+00  0.00000000000E+00  0.93484663860E+03  0.93484663860E+03  0.00000000000E+00 0.  1.
         21   -1    0    0  501  502  0.00000000000E+00 -0.00000000000E+00 -0.32194517551E+03  0.32194517551E+03  0.00000000000E+00 0.  1.
    9000010    2    1    2  501    0 -0.61543114053E+02 -0.74402130912E+02  0.53563198618E+03  0.11331236485E+04  0.99385328198E+03 0.  0.
        -13    1    3    3    0    0 -0.22466145596E+03  0.29024211419E+03  0.62405583288E+03  0.72398822391E+03  0.10566000000E+00 0.  1.
          4    1    3    3  501    0  0.16311834191E+03 -0.36464424510E+03 -0.88423846702E+02  0.40913542455E+03  0.00000000000E+00 0.  1.
         13    1    1    2    0    0  0.61543114053E+02  0.74402130912E+02  0.77269476911E+02  0.12366816566E+03  0.10566000000E+00 0. -1.
<mgrwt>
<rscale>  1 0.55682356E+03</rscale>
<asrwt>0</asrwt>
<pdfrwt beam="2">  1       21 0.49530027E-01 0.99853271E+03</pdfrwt>
<pdfrwt beam="1">  1        4 0.14382256E+00 0.99853271E+03</pdfrwt>
<totfact> 0.51267471E+01</totfact>
</mgrwt>
</event>
<event>
 6    1  0.1412458E-005  0.1020415E+04  0.7818608E-02  0.9733068E-01
          4   -1    0    0  502    0 -0.00000000000E+00  0.00000000000E+00  0.77157879609E+03  0.77157879609E+03  0.00000000000E+00 0.  1.
         21   -1    0    0  501  502  0.00000000000E+00 -0.00000000000E+00 -0.52218524225E+03  0.52218524225E+03  0.00000000000E+00 0.  1.
    9000010    2    1    2  501    0 -0.44434811370E+02  0.20969163154E+03  0.85601364657E+02  0.10239994647E+04  0.99764837355E+03 0.  0.
        -13    1    3    3    0    0 -0.39297214648E+03  0.43496325416E+03 -0.47665713675E+02  0.58812598294E+03  0.10566000000E+00 0.  1.
          4    1    3    3  501    0  0.34853733511E+03 -0.22527162262E+03  0.13326707833E+03  0.43587348175E+03  0.00000000000E+00 0.  1.
         13    1    1    2    0    0  0.44434811370E+02 -0.20969163154E+03  0.16379218918E+03  0.26976457365E+03  0.10566000000E+00 0. -1.
<mgrwt>
<rscale>  1 0.69081625E+03</rscale>
<asrwt>0</asrwt>
<pdfrwt beam="2">  1       21 0.80336192E-01 0.10204153E+04</pdfrwt>
<pdfrwt beam="1">  1        4 0.11870443E+00 0.10204153E+04</pdfrwt>
<totfact> 0.28249897E+01</totfact>
</mgrwt>
</event>
<event>
 6    1  0.1412458E-005  0.1051338E+04  0.7818608E-02  0.9573093E-01
          4   -1    0    0  502    0 -0.00000000000E+00  0.00000000000E+00  0.62442223686E+03  0.62442223686E+03  0.00000000000E+00 0.  1.
         21   -1    0    0  501  502  0.00000000000E+00 -0.00000000000E+00 -0.10782274371E+04  0.10782274371E+04  0.00000000000E+00 0.  1.
    9000010    2    1    2  501    0 -0.17212744172E+03 -0.28964810378E+03 -0.71915625991E+03  0.12737731461E+04  0.99588574709E+03 0.  0.
        -13    1    3    3    0    0  0.26074699995E+03  0.22722030846E+02 -0.69135127319E+03  0.73923736565E+03  0.10566000000E+00 0.  1.
          4    1    3    3  501    0 -0.43287444167E+03 -0.31237013462E+03 -0.27804986717E+02  0.53453578042E+03  0.00000000000E+00 0.  1.
         13    1    1    2    0    0  0.17212744172E+03  0.28964810378E+03  0.26535105962E+03  0.42887652794E+03  0.10566000000E+00 0. -1.
<mgrwt>
<rscale>  1 0.79102969E+03</rscale>
<asrwt>0</asrwt>
<pdfrwt beam="2">  1       21 0.16588114E+00 0.10513383E+04</pdfrwt>
<pdfrwt beam="1">  1        4 0.96064961E-01 0.10513383E+04</pdfrwt>
<totfact> 0.72270887E+00</totfact>
</mgrwt>
</event>
<event>
 6    1  0.1412458E-005  0.1051604E+04  0.7818608E-02  0.9533871E-01
         21   -1    0    0  501  502  0.00000000000E+00  0.00000000000E+00  0.84268449879E+03  0.84268449879E+03  0.00000000000E+00 0.  1.
          4   -1    0    0  502    0 -0.00000000000E+00 -0.00000000000E+00 -0.93695667573E+03  0.93695667573E+03  0.00000000000E+00 0.  1.
    9000010    2    1    2  501    0  0.25718535865E+02  0.38474176348E+03  0.42382557600E+03  0.11337983450E+04  0.97835724591E+03 0.  0.
        -13    1    3    3    0    0 -0.19370672995E+03  0.52650427852E+03  0.59789359322E+03  0.81988158444E+03  0.10566000000E+00 0.  1.
          4    1    3    3  501    0  0.21942526582E+03 -0.14176251504E+03 -0.17406801722E+03  0.31391676057E+03  0.00000000000E+00 0.  1.
         13    1    1    2    0    0 -0.25718535865E+02 -0.38474176348E+03 -0.51809775295E+03  0.64584282951E+03  0.10566000000E+00 0. -1.
<mgrwt>
<rscale>  1 0.81832060E+03</rscale>
<asrwt>0</asrwt>
<pdfrwt beam="1">  1       21 0.12964377E+00 0.10516038E+04</pdfrwt>
<pdfrwt beam="2">  1        4 0.14414718E+00 0.10516038E+04</pdfrwt>
<totfact> 0.51669655E+00</totfact>
</mgrwt>
</event>
<event>
 6    1  0.1412458E-005  0.1031376E+04  0.7818608E-02  0.9760676E-01
          4   -1    0    0  502    0 -0.00000000000E+00  0.00000000000E+00  0.37388025511E+03  0.37388025511E+03  0.00000000000E+00 0.  1.
         21   -1    0    0  501  502  0.00000000000E+00 -0.00000000000E+00 -0.12007085429E+04  0.12007085429E+04  0.00000000000E+00 0.  1.
    9000010    2    1    2  501    0 -0.86584746675E+02  0.16845201075E+03 -0.90263621043E+03  0.13705793605E+04  0.10138356163E+04 0.  0.
        -13    1    3    3    0    0 -0.13264037240E+03  0.40255549360E+03 -0.10200943446E+04  0.11046433257E+04  0.10566000000E+00 0.  1.
          4    1    3    3  501    0  0.46055625726E+02 -0.23410348284E+03  0.11745813420E+03  0.26593603485E+03  0.00000000000E+00 0.  1.
         13    1    1    2    0    0  0.86584746675E+02 -0.16845201075E+03  0.75807922660E+02  0.20400943749E+03  0.10566000000E+00 0. -1.
<mgrwt>
<rscale>  1 0.67516298E+03</rscale>
<asrwt>0</asrwt>
<pdfrwt beam="2">  1       21 0.18472439E+00 0.10313756E+04</pdfrwt>
<pdfrwt beam="1">  1        4 0.57520039E-01 0.10313756E+04</pdfrwt>
<totfact> 0.16849018E+01</totfact>
</mgrwt>
</event>
<event>
 6    1  0.1412458E-005  0.1063330E+04  0.7818608E-02  0.9530972E-01
         21   -1    0    0  501  502  0.00000000000E+00  0.00000000000E+00  0.64971440749E+03  0.64971440749E+03  0.00000000000E+00 0.  1.
          4   -1    0    0  502    0 -0.00000000000E+00 -0.00000000000E+00 -0.10603314496E+04  0.10603314496E+04  0.00000000000E+00 0.  1.
    9000010    2    1    2  501    0  0.10947657755E+03 -0.36050355200E+03  0.10824366246E+03  0.10688248547E+04  0.99434498413E+03 0.  0.
        -13    1    3    3    0    0 -0.77217986669E+02 -0.53900127875E+03 -0.27238269231E+03  0.60883276702E+03  0.10566000000E+00 0.  1.
          4    1    3    3  501    0  0.18669456421E+03  0.17849772675E+03  0.38062635477E+03  0.45999208766E+03  0.00000000000E+00 0.  1.
         13    1    1    2    0    0 -0.10947657755E+03  0.36050355200E+03 -0.51886070457E+03  0.64122100242E+03  0.10566000000E+00 0. -1.
<mgrwt>
<rscale>  1 0.82038379E+03</rscale>
<asrwt>0</asrwt>
<pdfrwt beam="1">  1       21 0.99956064E-01 0.10633296E+04</pdfrwt>
<pdfrwt beam="2">  1        4 0.16312791E+00 0.10633296E+04</pdfrwt>
<totfact> 0.71886898E+00</totfact>
</mgrwt>
</event>
<event>
 6    1  0.1412458E-005  0.1046170E+04  0.7818608E-02  0.9594201E-01
          4   -1    0    0  502    0 -0.00000000000E+00  0.00000000000E+00  0.49668374104E+03  0.49668374104E+03  0.00000000000E+00 0.  1.
         21   -1    0    0  501  502  0.00000000000E+00 -0.00000000000E+00 -0.12224953763E+04  0.12224953763E+04  0.00000000000E+00 0.  1.
    9000010    2    1    2  501    0  0.26861464227E+03  0.17024620155E+03 -0.87877922142E+03  0.13662815560E+04  0.99666181581E+03 0.  0.
        -13    1    3    3    0    0  0.64581086159E+03  0.10043843147E+03 -0.63816228977E+03  0.91346081837E+03  0.10566000000E+00 0.  1.
          4    1    3    3  501    0 -0.37719621931E+03  0.69807770079E+02 -0.24061693165E+03  0.45282073763E+03  0.00000000000E+00 0.  1.
         13    1    1    2    0    0 -0.26861464227E+03 -0.17024620155E+03  0.15296758619E+03  0.35289756130E+03  0.10566000000E+00 0. -1.
<mgrwt>
<rscale>  1 0.77681193E+03</rscale>
<asrwt>0</asrwt>
<pdfrwt beam="2">  1       21 0.18807621E+00 0.10461703E+04</pdfrwt>
<pdfrwt beam="1">  1        4 0.76412884E-01 0.10461703E+04</pdfrwt>
<totfact> 0.84753732E+00</totfact>
</mgrwt>
</event>
<event>
 6    1  0.1412458E-005  0.1002088E+04  0.7818608E-02  0.1004832E+00
         21   -1    0    0  501  502  0.00000000000E+00  0.00000000000E+00  0.49172492060E+03  0.49172492060E+03  0.00000000000E+00 0.  1.
          4   -1    0    0  502    0 -0.00000000000E+00 -0.00000000000E+00 -0.59782007716E+03  0.59782007716E+03  0.00000000000E+00 0.  1.
    9000010    2    1    2  501    0 -0.35292960058E+02 -0.73915764046E+02 -0.90518148928E+02  0.10061676175E+04  0.99873450229E+03 0.  0.
        -13    1    3    3    0    0 -0.55843344679E+02  0.19504419943E+03 -0.48646097652E+03  0.52707211245E+03  0.10566000000E+00 0.  1.
          4    1    3    3  501    0  0.20550384621E+02 -0.26895996348E+03  0.39594282760E+03  0.47909550508E+03  0.00000000000E+00 0.  1.
         13    1    1    2    0    0  0.35292960058E+02  0.73915764046E+02 -0.15577007637E+02  0.83377380237E+02  0.10566000000E+00 0. -1.
<mgrwt>
<rscale>  1 0.53581231E+03</rscale>
<asrwt>0</asrwt>
<pdfrwt beam="1">  1       21 0.75649988E-01 0.10020877E+04</pdfrwt>
<pdfrwt beam="2">  1        4 0.91972320E-01 0.10020877E+04</pdfrwt>
<totfact> 0.60601359E+01</totfact>
</mgrwt>
</event>
<event>
 6    1  0.1412458E-005  0.1001088E+04  0.7818608E-02  0.9992133E-01
         21   -1    0    0  501  502  0.00000000000E+00  0.00000000000E+00  0.82297815623E+03  0.82297815623E+03  0.00000000000E+00 0.  1.
          4   -1    0    0  502    0 -0.00000000000E+00 -0.00000000000E+00 -0.38729601983E+03  0.38729601983E+03  0.00000000000E+00 0.  1.
    9000010    2    1    2  501    0  0.60940543867E+02  0.76748370320E+02  0.47067278624E+03  0.11062144866E+04  0.99627985848E+03 0.  0.
        -13    1    3    3    0    0  0.41350419090E+02 -0.44019770253E+03  0.37580638579E+03  0.58027090677E+03  0.10566000000E+00 0.  1.
          4    1    3    3  501    0  0.19590124777E+02  0.51694607285E+03  0.94866400447E+02  0.52594357983E+03  0.00000000000E+00 0.  1.
         13    1    1    2    0    0 -0.60940543867E+02 -0.76748370320E+02 -0.34990649839E+02  0.10405968948E+03  0.10566000000E+00 0. -1.
<mgrwt>
<rscale>  1 0.55996540E+03</rscale>
<asrwt>0</asrwt>
<pdfrwt beam="1">  1       21 0.12661202E+00 0.10010882E+04</pdfrwt>
<pdfrwt beam="2">  1        4 0.59584003E-01 0.10010882E+04</pdfrwt>
<totfact> 0.45431869E+01</totfact>
</mgrwt>
</event>
<event>
 6    1  0.1412458E-005  0.1009957E+04  0.7818608E-02  0.9821524E-01
         21   -1    0    0  501  502  0.00000000000E+00  0.00000000000E+00  0.57808974156E+03  0.57808974156E+03  0.00000000000E+00 0.  1.
          4   -1    0    0  502    0 -0.00000000000E+00 -0.00000000000E+00 -0.61861263349E+03  0.61861263349E+03  0.00000000000E+00 0.  1.
    9000010    2    1    2  501    0  0.10836860720E+03  0.12457098740E+03  0.44598218181E+02  0.10109409677E+04  0.99636888404E+03 0.  0.
        -13    1    3    3    0    0  0.24859694695E+02  0.34895178960E+03  0.43178021857E+03  0.55571532658E+03  0.10566000000E+00 0.  1.
          4    1    3    3  501    0  0.83508912506E+02 -0.22438080220E+03 -0.38718200039E+03  0.45522564107E+03  0.00000000000E+00 0.  1.
         13    1    1    2    0    0 -0.10836860720E+03 -0.12457098740E+03 -0.85121110103E+02  0.18576140740E+03  0.10566000000E+00 0. -1.
<mgrwt>
<rscale>  1 0.64220132E+03</rscale>
<asrwt>0</asrwt>
<pdfrwt beam="1">  1       21 0.88936884E-01 0.10099568E+04</pdfrwt>
<pdfrwt beam="2">  1        4 0.95171174E-01 0.10099568E+04</pdfrwt>
<totfact> 0.38080680E+01</totfact>
</mgrwt>
</event>
<event>
 6    1  0.1412458E-005  0.1008996E+04  0.7818608E-02  0.1016431E+00
         21   -1    0    0  501  502  0.00000000000E+00  0.00000000000E+00  0.28243024681E+03  0.28243024681E+03  0.00000000000E+00 0.  1.
          4   -1    0    0  502    0 -0.00000000000E+00 -0.00000000000E+00 -0.11620902686E+04  0.11620902686E+04  0.00000000000E+00 0.  1.
    9000010    2    1    2  501    0  0.34723847607E+02  0.44067686629E+02 -0.63200291123E+03  0.11905879216E+04  0.10074344707E+04 0.  0.
        -13    1    3    3    0    0 -0.11120778282E+03  0.16816568637E+03 -0.86543957654E+03  0.88861270576E+03  0.10566000000E+00 0.  1.
          4    1    3    3  501    0  0.14593163042E+03 -0.12409799975E+03  0.23343666531E+03  0.30197521589E+03  0.00000000000E+00 0.  1.
         13    1    1    2    0    0 -0.34723847607E+02 -0.44067686629E+02 -0.24765711056E+03  0.25393259375E+03  0.10566000000E+00 0. -1.
<mgrwt>
<rscale>  1 0.48996651E+03</rscale>
<asrwt>0</asrwt>
<pdfrwt beam="1">  1       21 0.43450807E-01 0.10089955E+04</pdfrwt>
<pdfrwt beam="2">  1        4 0.17878312E+00 0.10089955E+04</pdfrwt>
<totfact> 0.37196602E+01</totfact>
</mgrwt>
</event>
<event>
 6    1  0.1412458E-005  0.1100760E+04  0.7818608E-02  0.9452064E-01
         21   -1    0    0  501  502  0.00000000000E+00  0.00000000000E+00  0.47860623354E+03  0.47860623354E+03  0.00000000000E+00 0. -1.
          4   -1    0    0  502    0 -0.00000000000E+00 -0.00000000000E+00 -0.16166696407E+04  0.16166696407E+04  0.00000000000E+00 0.  1.
    9000010    2    1    2  501    0  0.17345592451E+03 -0.41287826796E+03 -0.12165348893E+04  0.16406186335E+04  0.10055431078E+04 0.  0.
        -13    1    3    3    0    0 -0.34855954863E+03 -0.32315649455E+03 -0.24658423544E+03  0.53546958386E+03  0.10566000000E+00 0.  1.
          4    1    3    3  501    0  0.52201547314E+03 -0.89721773411E+02 -0.96995065391E+03  0.11051490496E+04  0.00000000000E+00 0.  1.
         13    1    1    2    0    0 -0.17345592451E+03  0.41287826796E+03  0.78471482200E+02  0.45465724077E+03  0.10566000000E+00 0. -1.
<mgrwt>
<rscale>  1 0.87912131E+03</rscale>
<asrwt>0</asrwt>
<pdfrwt beam="1">  1       21 0.73631728E-01 0.11007599E+04</pdfrwt>
<pdfrwt beam="2">  1        4 0.24871841E+00 0.11007599E+04</pdfrwt>
<totfact> 0.40248323E+00</totfact>
</mgrwt>
</event>
<event>
 6    1  0.1412458E-005  0.9970690E+03  0.7818608E-02  0.1007538E+00
          4   -1    0    0  502    0 -0.00000000000E+00  0.00000000000E+00  0.70355761964E+03  0.70355761964E+03  0.00000000000E+00 0.  1.
         21   -1    0    0  501  502  0.00000000000E+00 -0.00000000000E+00 -0.41340595264E+03  0.41340595264E+03  0.00000000000E+00 0.  1.
    9000010    2    1    2  501    0  0.51731892916E+02  0.56271024518E+02  0.29661585954E+03  0.10402536388E+04  0.99413482384E+03 0.  0.
        -13    1    3    3    0    0 -0.11406023740E+03 -0.24433339835E+03 -0.26754522523E+03  0.37985392720E+03  0.10566000000E+00 0.  1.
          4    1    3    3  501    0  0.16579213032E+03  0.30060442287E+03  0.56416108477E+03  0.66039971161E+03  0.00000000000E+00 0.  1.
         13    1    1    2    0    0 -0.51731892916E+02 -0.56271024518E+02 -0.64641925434E+01  0.76709933478E+02  0.10566000000E+00 0. -1.
<mgrwt>
<rscale>  1 0.52465040E+03</rscale>
<asrwt>0</asrwt>
<pdfrwt beam="2">  1       21 0.63600916E-01 0.99706904E+03</pdfrwt>
<pdfrwt beam="1">  1        4 0.10823963E+00 0.99706904E+03</pdfrwt>
<totfact> 0.60891260E+01</totfact>
</mgrwt>
</event>
<event>
 6    1  0.1412458E-005  0.9993270E+03  0.7818608E-02  0.9981071E-01
          4   -1    0    0  502    0 -0.00000000000E+00  0.00000000000E+00  0.23183593817E+03  0.23183593817E+03  0.00000000000E+00 0.  1.
         21   -1    0    0  501  502  0.00000000000E+00 -0.00000000000E+00 -0.16723163716E+04  0.16723163716E+04  0.00000000000E+00 0.  1.
    9000010    2    1    2  501    0  0.85161936366E+02 -0.56181960996E+02 -0.14873407792E+04  0.17918808917E+04  0.99410541105E+03 0.  0.
        -13    1    3    3    0    0  0.50284084467E+03 -0.21238893289E+03 -0.70817720767E+03  0.89413250836E+03  0.10566000000E+00 0.  1.
          4    1    3    3  501    0 -0.41767890830E+03  0.15620697190E+03 -0.77916357156E+03  0.89774838333E+03  0.00000000000E+00 0.  1.
         13    1    1    2    0    0 -0.85161936366E+02  0.56181960996E+02  0.46860345795E+02  0.11227141809E+03  0.10566000000E+00 0. -1.
<mgrwt>
<rscale>  1 0.56488071E+03</rscale>
<asrwt>0</asrwt>
<pdfrwt beam="2">  1       21 0.25727946E+00 0.99932704E+03</pdfrwt>
<pdfrwt beam="1">  1        4 0.35667065E-01 0.99932704E+03</pdfrwt>
<totfact> 0.15065853E+01</totfact>
</mgrwt>
</event>
<event>
 6    1  0.1412458E-005  0.1034955E+04  0.7818608E-02  0.9763396E-01
          4   -1    0    0  502    0 -0.00000000000E+00  0.00000000000E+00  0.62754236513E+03  0.62754236513E+03  0.00000000000E+00 0.  1.
         21   -1    0    0  501  502  0.00000000000E+00 -0.00000000000E+00 -0.60475445095E+03  0.60475445095E+03  0.00000000000E+00 0.  1.
    9000010    2    1    2  501    0 -0.15698935438E+03  0.99309380747E+02 -0.41329681691E+02  0.10357794180E+04  0.10181467721E+04 0.  0.
        -13    1    3    3    0    0 -0.16074940229E+03 -0.31647812191E+03  0.32526078588E+03  0.48144923095E+03  0.10566000000E+00 0.  1.
          4    1    3    3  501    0  0.37600479041E+01  0.41578750266E+03 -0.36659046757E+03  0.55433018702E+03  0.00000000000E+00 0.  1.
         13    1    1    2    0    0  0.15698935438E+03 -0.99309380747E+02  0.64117595874E+02  0.19651739811E+03  0.10566000000E+00 0. -1.
<mgrwt>
<rscale>  1 0.67364479E+03</rscale>
<asrwt>0</asrwt>
<pdfrwt beam="2">  1       21 0.93039147E-01 0.10349545E+04</pdfrwt>
<pdfrwt beam="1">  1        4 0.96544979E-01 0.10349545E+04</pdfrwt>
<totfact> 0.32922989E+01</totfact>
</mgrwt>
</event>
<event>
 6    1  0.1412458E-005  0.1005185E+04  0.7818608E-02  0.9819619E-01
         21   -1    0    0  501  502  0.00000000000E+00  0.00000000000E+00  0.14631007788E+04  0.14631007788E+04  0.00000000000E+00 0.  1.
          4   -1    0    0  502    0 -0.00000000000E+00 -0.00000000000E+00 -0.23606193448E+03  0.23606193448E+03  0.00000000000E+00 0.  1.
    9000010    2    1    2  501    0  0.14881892539E+03  0.79070265996E+02  0.10177223390E+04  0.14304387098E+04  0.99095759925E+03 0.  0.
        -13    1    3    3    0    0  0.48259167614E+03 -0.73714069102E+02  0.93406413366E+03  0.10539470133E+04  0.10566000000E+00 0.  1.
          4    1    3    3  501    0 -0.33377275075E+03  0.15278433510E+03  0.83658205367E+02  0.37649169648E+03  0.00000000000E+00 0.  1.
         13    1    1    2    0    0 -0.14881892539E+03 -0.79070265996E+02  0.20931650534E+03  0.26872400356E+03  0.10566000000E+00 0. -1.
<mgrwt>
<rscale>  1 0.64320243E+03</rscale>
<asrwt>0</asrwt>
<pdfrwt beam="1">  1       21 0.22509242E+00 0.10051846E+04</pdfrwt>
<pdfrwt beam="2">  1        4 0.36317222E-01 0.10051846E+04</pdfrwt>
<totfact> 0.23363651E+01</totfact>
</mgrwt>
</event>
<event>
 6    1  0.1412458E-005  0.1059105E+04  0.7818608E-02  0.9554561E-01
          4   -1    0    0  502    0 -0.00000000000E+00  0.00000000000E+00  0.15191795960E+04  0.15191795960E+04  0.00000000000E+00 0.  1.
         21   -1    0    0  501  502  0.00000000000E+00 -0.00000000000E+00 -0.49903769523E+03  0.49903769523E+03  0.00000000000E+00 0.  1.
    9000010    2    1    2  501    0 -0.32943763001E+03  0.12212170285E+03  0.13721948910E+03  0.10679568750E+04  0.99912953934E+03 0.  0.
        -13    1    3    3    0    0 -0.52404267174E+03  0.43434874018E+03  0.16839938188E+02  0.68085471620E+03  0.10566000000E+00 0.  1.
          4    1    3    3  501    0  0.19460504173E+03 -0.31222703732E+03  0.12037955091E+03  0.38710215884E+03  0.00000000000E+00 0.  1.
         13    1    1    2    0    0  0.32943763001E+03 -0.12212170285E+03  0.88292241172E+03  0.95026041623E+03  0.10566000000E+00 0. -1.
<mgrwt>
<rscale>  1 0.80378041E+03</rscale>
<asrwt>0</asrwt>
<pdfrwt beam="2">  1       21 0.76775030E-01 0.10591047E+04</pdfrwt>
<pdfrwt beam="1">  1        4 0.23371994E+00 0.10591047E+04</pdfrwt>
<totfact> 0.45542456E+00</totfact>
</mgrwt>
</event>
<event>
 6    1  0.1412458E-005  0.1103444E+04  0.7818608E-02  0.9442023E-01
         21   -1    0    0  501  502  0.00000000000E+00  0.00000000000E+00  0.41265062959E+03  0.41265062959E+03  0.00000000000E+00 0.  1.
          4   -1    0    0  502    0 -0.00000000000E+00 -0.00000000000E+00 -0.15793171110E+04  0.15793171110E+04  0.00000000000E+00 0.  1.
    9000010    2    1    2  501    0 -0.42802671279E+03  0.17028618101E+03 -0.58166421505E+03  0.12473658919E+04  0.10026884655E+04 0.  0.
        -13    1    3    3    0    0  0.83777892405E+02 -0.53293886217E+02 -0.67400117481E+03  0.68127569190E+03  0.10566000000E+00 0.  1.
          4    1    3    3  501    0 -0.51180460520E+03  0.22358006723E+03  0.92336959761E+02  0.56609019997E+03  0.00000000000E+00 0.  1.
         13    1    1    2    0    0  0.42802671279E+03 -0.17028618101E+03 -0.58500226639E+03  0.74460184874E+03  0.10566000000E+00 0. -1.
<mgrwt>
<rscale>  1 0.88696596E+03</rscale>
<asrwt>0</asrwt>
<pdfrwt beam="1">  1       21 0.63484712E-01 0.11034439E+04</pdfrwt>
<pdfrwt beam="2">  1        4 0.24297187E+00 0.11034439E+04</pdfrwt>
<totfact> 0.61318210E+00</totfact>
</mgrwt>
</event>
<event>
 6    1  0.1412458E-005  0.1039983E+04  0.7818608E-02  0.9720737E-01
         21   -1    0    0  501  502  0.00000000000E+00  0.00000000000E+00  0.75722287380E+03  0.75722287380E+03  0.00000000000E+00 0.  1.
          4   -1    0    0  502    0 -0.00000000000E+00 -0.00000000000E+00 -0.61642956450E+03  0.61642956450E+03  0.00000000000E+00 0.  1.
    9000010    2    1    2  501    0 -0.20839524267E+03  0.32885586820E+02  0.32915303700E+03  0.10908283991E+04  0.10183588932E+04 0.  0.
        -13    1    3    3    0    0  0.24466267470E+03 -0.33962795425E+03  0.68243798712E+00  0.41857788832E+03  0.10566000000E+00 0.  1.
          4    1    3    3  501    0 -0.45305791738E+03  0.37251354107E+03  0.32847059901E+03  0.67225051075E+03  0.00000000000E+00 0.  1.
         13    1    1    2    0    0  0.20839524267E+03 -0.32885586820E+02 -0.18835972770E+03  0.28282403924E+03  0.10566000000E+00 0. -1.
<mgrwt>
<rscale>  1 0.69795428E+03</rscale>
<asrwt>0</asrwt>
<pdfrwt beam="1">  1       21 0.11649583E+00 0.10399831E+04</pdfrwt>
<pdfrwt beam="2">  1        4 0.94835318E-01 0.10399831E+04</pdfrwt>
<totfact> 0.19558143E+01</totfact>
</mgrwt>
</event>
<event>
 6    1  0.1412458E-005  0.1020830E+04  0.7818608E-02  0.9727785E-01
          4   -1    0    0  502    0 -0.00000000000E+00  0.00000000000E+00  0.12113785289E+04  0.12113785289E+04  0.00000000000E+00 0.  1.
         21   -1    0    0  501  502  0.00000000000E+00 -0.00000000000E+00 -0.50004862887E+03  0.50004862887E+03  0.00000000000E+00 0.  1.
    9000010    2    1    2  501    0 -0.18791469269E+03  0.11028953142E+03  0.57725098317E+02  0.10224605690E+04  0.99730522694E+03 0.  0.
        -13    1    3    3    0    0  0.41235641764E+03  0.70629655504E+02  0.27093653748E+01  0.41837030874E+03  0.10566000000E+00 0.  1.
          4    1    3    3  501    0 -0.60027111033E+03  0.39659875921E+02  0.55015732942E+02  0.60409026025E+03  0.00000000000E+00 0.  1.
         13    1    1    2    0    0  0.18791469269E+03 -0.11028953142E+03  0.65360480171E+03  0.68896658878E+03  0.10566000000E+00 0. -1.
<mgrwt>
<rscale>  1 0.69386335E+03</rscale>
<asrwt>0</asrwt>
<pdfrwt beam="2">  1       21 0.76930559E-01 0.10208298E+04</pdfrwt>
<pdfrwt beam="1">  1        4 0.18636593E+00 0.10208298E+04</pdfrwt>
<totfact> 0.92678469E+00</totfact>
</mgrwt>
</event>
<event>
 6    1  0.1412458E-005  0.9802303E+03  0.7818608E-02  0.9832984E-01
          4   -1    0    0  502    0 -0.00000000000E+00  0.00000000000E+00  0.17611759143E+04  0.17611759143E+04  0.00000000000E+00 0.  1.
         21   -1    0    0  501  502  0.00000000000E+00 -0.00000000000E+00 -0.31727547609E+03  0.31727547609E+03  0.00000000000E+00 0.  1.
    9000010    2    1    2  501    0 -0.16718383224E+03  0.48076988365E+02  0.46629176364E+03  0.10854858510E+04  0.96467076944E+03 0.  0.
        -13    1    3    3    0    0 -0.18827854457E+03 -0.14432783643E+03  0.72474747454E+03  0.76258655097E+03  0.10566000000E+00 0.  1.
          4    1    3    3  501    0  0.21094712334E+02  0.19240482480E+03 -0.25845571089E+03  0.32289930007E+03  0.00000000000E+00 0.  1.
         13    1    1    2    0    0  0.16718383224E+03 -0.48076988365E+02  0.97760867461E+03  0.99296553938E+03  0.10566000000E+00 0. -1.
<mgrwt>
<rscale>  1 0.63622104E+03</rscale>
<asrwt>0</asrwt>
<pdfrwt beam="2">  1       21 0.48811613E-01 0.98023034E+03</pdfrwt>
<pdfrwt beam="1">  1        4 0.27095013E+00 0.98023034E+03</pdfrwt>
<totfact> 0.74603424E+00</totfact>
</mgrwt>
</event>
<event>
 6    1  0.1412458E-005  0.1067319E+04  0.7818608E-02  0.9544114E-01
          4   -1    0    0  502    0 -0.00000000000E+00  0.00000000000E+00  0.16707778792E+04  0.16707778792E+04  0.00000000000E+00 0.  1.
         21   -1    0    0  501  502  0.00000000000E+00 -0.00000000000E+00 -0.31267131349E+03  0.31267131349E+03  0.00000000000E+00 0. -1.
    9000010    2    1    2  501    0 -0.35328784658E+03 -0.43358524973E+02  0.11591076671E+04  0.15756590051E+04  0.10062198827E+04 0.  0.
        -13    1    3    3    0    0 -0.44464935678E+03 -0.26711802293E+03  0.15282679889E+03  0.54075977132E+03  0.10566000000E+00 0.  1.
          4    1    3    3  501    0  0.91361510198E+02  0.22375949796E+03  0.10062808682E+04  0.10348992338E+04  0.00000000000E+00 0.  1.
         13    1    1    2    0    0  0.35328784658E+03  0.43358524973E+02  0.19899889862E+03  0.40779018753E+03  0.10566000000E+00 0. -1.
<mgrwt>
<rscale>  1 0.81108174E+03</rscale>
<asrwt>0</asrwt>
<pdfrwt beam="2">  1       21 0.48103280E-01 0.10673194E+04</pdfrwt>
<pdfrwt beam="1">  1        4 0.25704275E+00 0.10673194E+04</pdfrwt>
<totfact> 0.92767466E+00</totfact>
</mgrwt>
</event>
<event>
 6    1  0.1412458E-005  0.7928539E+03  0.7818608E-02  0.9865225E-01
         21   -1    0    0  501  502  0.00000000000E+00  0.00000000000E+00  0.14020435029E+04  0.14020435029E+04  0.00000000000E+00 0.  1.
          4   -1    0    0  502    0 -0.00000000000E+00 -0.00000000000E+00 -0.23062959234E+03  0.23062959234E+03  0.00000000000E+00 0.  1.
    9000010    2    1    2  501    0  0.18614919275E+03  0.23017567636E+03  0.10426304926E+04  0.13098456741E+04  0.73551681282E+03 0.  0.
        -13    1    3    3    0    0  0.19372216743E+03  0.48193842954E+03  0.54964468507E+03  0.75624216956E+03  0.10566000000E+00 0.  1.
          4    1    3    3  501    0 -0.75729746776E+01 -0.25176275318E+03  0.49298580750E+03  0.55360350453E+03  0.00000000000E+00 0.  1.
         13    1    1    2    0    0 -0.18614919275E+03 -0.23017567636E+03  0.12878341803E+03  0.32282742119E+03  0.10566000000E+00 0. -1.
<mgrwt>
<rscale>  1 0.61976630E+03</rscale>
<asrwt>0</asrwt>
<pdfrwt beam="1">  1       21 0.21569900E+00 0.79285392E+03</pdfrwt>
<pdfrwt beam="2">  1        4 0.35481477E-01 0.79285392E+03</pdfrwt>
<totfact> 0.29085320E+01</totfact>
</mgrwt>
</event>
<event>
 6    1  0.1412458E-005  0.1041699E+04  0.7818608E-02  0.9579218E-01
          4   -1    0    0  502    0 -0.00000000000E+00  0.00000000000E+00  0.66537817900E+03  0.66537817900E+03  0.00000000000E+00 0.  1.
         21   -1    0    0  501  502  0.00000000000E+00 -0.00000000000E+00 -0.83690769561E+03  0.83690769561E+03  0.00000000000E+00 0.  1.
    9000010    2    1    2  501    0  0.30724240469E+03  0.14360558263E+03 -0.37458257012E+03  0.11069998866E+04  0.98494476419E+03 0.  0.
        -13    1    3    3    0    0  0.17124340623E+02 -0.17805587717E+02  0.32852418204E+03  0.32945171322E+03  0.10566000000E+00 0.  1.
          4    1    3    3  501    0  0.29011806407E+03  0.16141117035E+03 -0.70310675216E+03  0.77754817339E+03  0.00000000000E+00 0.  1.
         13    1    1    2    0    0 -0.30724240469E+03 -0.14360558263E+03  0.20305305351E+03  0.39528598800E+03  0.10566000000E+00 0. -1.
<mgrwt>
<rscale>  1 0.78687103E+03</rscale>
<asrwt>0</asrwt>
<pdfrwt beam="2">  1       21 0.12875503E+00 0.10416989E+04</pdfrwt>
<pdfrwt beam="1">  1        4 0.10236587E+00 0.10416989E+04</pdfrwt>
<totfact> 0.12525145E+01</totfact>
</mgrwt>
</event>
<event>
 6    1  0.1412458E-005  0.1017516E+04  0.7818608E-02  0.9883090E-01
          4   -1    0    0  502    0 -0.00000000000E+00  0.00000000000E+00  0.17911157739E+04  0.17911157739E+04  0.00000000000E+00 0.  1.
         21   -1    0    0  501  502  0.00000000000E+00 -0.00000000000E+00 -0.19204031509E+03  0.19204031509E+03  0.00000000000E+00 0.  1.
    9000010    2    1    2  501    0 -0.11220434168E+03 -0.69886593301E+02  0.15199512972E+04  0.18290957296E+04  0.10088931024E+04 0.  0.
        -13    1    3    3    0    0 -0.29734361883E+03 -0.45759570725E+03  0.58426734304E+03  0.79948445780E+03  0.10566000000E+00 0.  1.
          4    1    3    3  501    0  0.18513927714E+03  0.38770911395E+03  0.93568395418E+03  0.10296112718E+04  0.00000000000E+00 0.  1.
         13    1    1    2    0    0  0.11220434168E+03  0.69886593301E+02  0.79124161607E+02  0.15406035937E+03  0.10566000000E+00 0. -1.
<mgrwt>
<rscale>  1 0.61087870E+03</rscale>
<asrwt>0</asrwt>
<pdfrwt beam="2">  1       21 0.29544665E-01 0.10175162E+04</pdfrwt>
<pdfrwt beam="1">  1        4 0.27555626E+00 0.10175162E+04</pdfrwt>
<totfact> 0.19773855E+01</totfact>
</mgrwt>
</event>
<event>
 6    1  0.1412458E-005  0.9800675E+03  0.7818608E-02  0.9905632E-01
          4   -1    0    0  502    0 -0.00000000000E+00  0.00000000000E+00  0.27119254936E+03  0.27119254936E+03  0.00000000000E+00 0.  1.
         21   -1    0    0  501  502  0.00000000000E+00 -0.00000000000E+00 -0.11745592502E+04  0.11745592502E+04  0.00000000000E+00 0.  1.
    9000010    2    1    2  501    0  0.12952767075E+03 -0.46345781961E+02 -0.85289489819E+03  0.12992159233E+04  0.97036434350E+03 0.  0.
        -13    1    3    3    0    0  0.13332646196E+03 -0.25666050037E+03 -0.10010075335E+04  0.10419532865E+04  0.10566000000E+00 0.  1.
          4    1    3    3  501    0 -0.37987912062E+01  0.21031471841E+03  0.14811263531E+03  0.25726263688E+03  0.00000000000E+00 0.  1.
         13    1    1    2    0    0 -0.12952767075E+03  0.46345781961E+02 -0.50471802673E+02  0.14653587624E+03  0.10566000000E+00 0. -1.
<mgrwt>
<rscale>  1 0.59989123E+03</rscale>
<asrwt>0</asrwt>
<pdfrwt beam="2">  1       21 0.18070142E+00 0.98006750E+03</pdfrwt>
<pdfrwt beam="1">  1        4 0.41721930E-01 0.98006750E+03</pdfrwt>
<totfact> 0.35618635E+01</totfact>
</mgrwt>
</event>
<event>
 6    1  0.1412458E-005  0.1054735E+04  0.7818608E-02  0.9577174E-01
         21   -1    0    0  501  502  0.00000000000E+00  0.00000000000E+00  0.37757402185E+03  0.37757402185E+03  0.00000000000E+00 0.  1.
          4   -1    0    0  502    0 -0.00000000000E+00 -0.00000000000E+00 -0.18796494612E+04  0.18796494612E+04  0.00000000000E+00 0.  1.
    9000010    2    1    2  501    0  0.26817622851E+03 -0.19063939766E+03 -0.43560213581E+03  0.11411467886E+04  0.10021002460E+04 0.  0.
        -13    1    3    3    0    0  0.16656733084E+03 -0.25796118419E+03 -0.74651213722E+03  0.80719825968E+03  0.10566000000E+00 0.  1.
          4    1    3    3  501    0  0.10160889767E+03  0.67321786529E+02  0.31091000141E+03  0.33394852897E+03  0.00000000000E+00 0.  1.
         13    1    1    2    0    0 -0.26817622851E+03  0.19063939766E+03 -0.10664733036E+04  0.11160766944E+04  0.10566000000E+00 0. -1.
<mgrwt>
<rscale>  1 0.78825564E+03</rscale>
<asrwt>0</asrwt>
<pdfrwt beam="1">  1       21 0.58088309E-01 0.10547354E+04</pdfrwt>
<pdfrwt beam="2">  1        4 0.28917685E+00 0.10547354E+04</pdfrwt>
<totfact> 0.38996540E+00</totfact>
</mgrwt>
</event>
<event>
 6    1  0.1412458E-005  0.1055486E+04  0.7818608E-02  0.9561202E-01
          4   -1    0    0  502    0 -0.00000000000E+00  0.00000000000E+00  0.46625401037E+03  0.46625401037E+03  0.00000000000E+00 0.  1.
         21   -1    0    0  501  502  0.00000000000E+00 -0.00000000000E+00 -0.10546022582E+04  0.10546022582E+04  0.00000000000E+00 0. -1.
    9000010    2    1    2  501    0  0.15177494439E+03 -0.31195386565E+03 -0.44787730239E+03  0.11465797054E+04  0.99684507063E+03 0.  0.
        -13    1    3    3    0    0 -0.30938434630E+03 -0.44970072799E+03 -0.10554362555E+03  0.55595763018E+03  0.10566000000E+00 0.  1.
          4    1    3    3  501    0  0.46115929068E+03  0.13774686235E+03 -0.34233367684E+03  0.59062207524E+03  0.00000000000E+00 0.  1.
         13    1    1    2    0    0 -0.15177494439E+03  0.31195386565E+03 -0.14047094542E+03  0.37427656313E+03  0.10566000000E+00 0. -1.
<mgrwt>
<rscale>  1 0.79918172E+03</rscale>
<asrwt>0</asrwt>
<pdfrwt beam="2">  1       21 0.16224650E+00 0.10554861E+04</pdfrwt>
<pdfrwt beam="1">  1        4 0.71731387E-01 0.10554861E+04</pdfrwt>
<totfact> 0.15155143E+01</totfact>
</mgrwt>
</event>
<event>
 6    1  0.1412458E-005  0.1025162E+04  0.7818608E-02  0.9805193E-01
          4   -1    0    0  502    0 -0.00000000000E+00  0.00000000000E+00  0.62057153085E+03  0.62057153085E+03  0.00000000000E+00 0.  1.
         21   -1    0    0  501  502  0.00000000000E+00 -0.00000000000E+00 -0.74152958498E+03  0.74152958498E+03  0.00000000000E+00 0.  1.
    9000010    2    1    2  501    0 -0.16515240955E+03 -0.21502569573E+02 -0.34613986813E+03  0.10820215925E+04  0.10115434936E+04 0.  0.
        -13    1    3    3    0    0 -0.13091862132E+03 -0.42014643007E+03 -0.48835862558E+03  0.65738639053E+03  0.10566000000E+00 0.  1.
          4    1    3    3  501    0 -0.34233788225E+02  0.39864386050E+03  0.14221875745E+03  0.42463520195E+03  0.00000000000E+00 0.  1.
         13    1    1    2    0    0  0.16515240955E+03  0.21502569573E+02  0.22518181401E+03  0.28007952335E+03  0.10566000000E+00 0. -1.
<mgrwt>
<rscale>  1 0.65084607E+03</rscale>
<asrwt>0</asrwt>
<pdfrwt beam="2">  1       21 0.11408147E+00 0.10251624E+04</pdfrwt>
<pdfrwt beam="1">  1        4 0.95472543E-01 0.10251624E+04</pdfrwt>
<totfact> 0.20337504E+01</totfact>
</mgrwt>
</event>
<event>
 6    1  0.1412458E-005  0.8954604E+03  0.7818608E-02  0.9627322E-01
         21   -1    0    0  501  502  0.00000000000E+00  0.00000000000E+00  0.39745041006E+03  0.39745041006E+03  0.00000000000E+00 0.  1.
          4   -1    0    0  502    0 -0.00000000000E+00 -0.00000000000E+00 -0.12527301484E+04  0.12527301484E+04  0.00000000000E+00 0.  1.
    9000010    2    1    2  501    0 -0.45232308073E+03 -0.22154925814E+02 -0.32446230351E+03  0.95243119774E+03  0.77250397405E+03 0.  0.
        -13    1    3    3    0    0 -0.29849455372E+03  0.13462926402E+03  0.20009281586E+03  0.38374624879E+03  0.10566000000E+00 0.  1.
          4    1    3    3  501    0 -0.15382852701E+03 -0.15678418984E+03 -0.52455511938E+03  0.56868494896E+03  0.00000000000E+00 0.  1.
         13    1    1    2    0    0  0.45232308073E+03  0.22154925814E+02 -0.53081743485E+03  0.69774936073E+03  0.10566000000E+00 0. -1.
<mgrwt>
<rscale>  1 0.75513930E+03</rscale>
<asrwt>0</asrwt>
<pdfrwt beam="1">  1       21 0.61146218E-01 0.89546044E+03</pdfrwt>
<pdfrwt beam="2">  1        4 0.19272771E+00 0.89546044E+03</pdfrwt>
<totfact> 0.14381103E+01</totfact>
</mgrwt>
</event>
<event>
 6    1  0.1412458E-005  0.1017507E+04  0.7818608E-02  0.9828941E-01
          4   -1    0    0  502    0 -0.00000000000E+00  0.00000000000E+00  0.12377351297E+04  0.12377351297E+04  0.00000000000E+00 0.  1.
         21   -1    0    0  501  502  0.00000000000E+00 -0.00000000000E+00 -0.55914879677E+03  0.55914879677E+03  0.00000000000E+00 0.  1.
    9000010    2    1    2  501    0 -0.67761376145E+02  0.14228605151E+03 -0.81372801739E+02  0.10207558300E+04  0.10052283358E+04 0.  0.
        -13    1    3    3    0    0  0.21326190237E+03  0.46797035423E+03  0.14545591371E+03  0.53444768260E+03  0.10566000000E+00 0.  1.
          4    1    3    3  501    0 -0.28102327851E+03 -0.32568430272E+03 -0.22682871545E+03  0.48630814743E+03  0.00000000000E+00 0.  1.
         13    1    1    2    0    0  0.67761376145E+02 -0.14228605151E+03  0.75995913468E+03  0.77612809645E+03  0.10566000000E+00 0. -1.
<mgrwt>
<rscale>  1 0.63832283E+03</rscale>
<asrwt>0</asrwt>
<pdfrwt beam="2">  1       21 0.86022892E-01 0.10175072E+04</pdfrwt>
<pdfrwt beam="1">  1        4 0.19042079E+00 0.10175072E+04</pdfrwt>
<totfact> 0.66825745E+00</totfact>
</mgrwt>
</event>
<event>
 6    1  0.1412458E-005  0.1049590E+04  0.7818608E-02  0.9598379E-01
          4   -1    0    0  502    0 -0.00000000000E+00  0.00000000000E+00  0.70619480069E+03  0.70619480069E+03  0.00000000000E+00 0.  1.
         21   -1    0    0  501  502  0.00000000000E+00 -0.00000000000E+00 -0.65682358190E+03  0.65682358190E+03  0.00000000000E+00 0.  1.
    9000010    2    1    2  501    0  0.23992020037E+03 -0.19701204403E+03  0.69755962875E+02  0.10519058676E+04  0.10026288505E+04 0.  0.
        -13    1    3    3    0    0 -0.20527348732E+03 -0.41965404594E+03 -0.17291197278E+03  0.49814183158E+03  0.10566000000E+00 0.  1.
          4    1    3    3  501    0  0.44519368769E+03  0.22264200191E+03  0.24266793565E+03  0.55376403600E+03  0.00000000000E+00 0.  1.
         13    1    1    2    0    0 -0.23992020037E+03  0.19701204403E+03 -0.20384744084E+02  0.31111251501E+03  0.10566000000E+00 0. -1.
<mgrwt>
<rscale>  1 0.77403528E+03</rscale>
<asrwt>0</asrwt>
<pdfrwt beam="2">  1       21 0.10104978E+00 0.10495904E+04</pdfrwt>
<pdfrwt beam="1">  1        4 0.10864535E+00 0.10495904E+04</pdfrwt>
<totfact> 0.20145280E+01</totfact>
</mgrwt>
</event>
<event>
 6    1  0.1412458E-005  0.1271839E+04  0.7818608E-02  0.9166399E-01
         21   -1    0    0  501  502  0.00000000000E+00  0.00000000000E+00  0.16742373727E+04  0.16742373727E+04  0.00000000000E+00 0.  1.
          4   -1    0    0  502    0 -0.00000000000E+00 -0.00000000000E+00 -0.83522583523E+03  0.83522583523E+03  0.00000000000E+00 0.  1.
    9000010    2    1    2  501    0  0.35324330458E+03 -0.74333850655E+03  0.10618408391E+04  0.16568285404E+04  0.96966070201E+03 0.  0.
        -13    1    3    3    0    0  0.57184322446E+03 -0.52780319232E+03  0.11000462379E+04  0.13474726787E+04  0.10566000000E+00 0.  1.
          4    1    3    3  501    0 -0.21859991988E+03 -0.21553531423E+03 -0.38205398779E+02  0.30935586167E+03  0.00000000000E+00 0.  1.
         13    1    1    2    0    0 -0.35324330458E+03  0.74333850655E+03 -0.22282930162E+03  0.85263466759E+03  0.10566000000E+00 0. -1.
<mgrwt>
<rscale>  1 0.11407078E+04</rscale>
<asrwt>0</asrwt>
<pdfrwt beam="1">  1       21 0.25757498E+00 0.12718392E+04</pdfrwt>
<pdfrwt beam="2">  1        4 0.12849628E+00 0.12718392E+04</pdfrwt>
<totfact> 0.80686476E-01</totfact>
</mgrwt>
</event>
<event>
 6    1  0.1412458E-005  0.9990843E+03  0.7818608E-02  0.9983874E-01
         21   -1    0    0  501  502  0.00000000000E+00  0.00000000000E+00  0.57770662980E+03  0.57770662980E+03  0.00000000000E+00 0.  1.
          4   -1    0    0  502    0 -0.00000000000E+00 -0.00000000000E+00 -0.60274258376E+03  0.60274258376E+03  0.00000000000E+00 0.  1.
    9000010    2    1    2  501    0  0.75207855903E+02 -0.67710881925E+02  0.11714809357E+03  0.10059290151E+04  0.99394593542E+03 0.  0.
        -13    1    3    3    0    0  0.19712538476E+03  0.49817781827E+02 -0.40707766960E+03  0.45503018466E+03  0.10566000000E+00 0.  1.
          4    1    3    3  501    0 -0.12191752886E+03 -0.11752866375E+03  0.52422576317E+03  0.55089883047E+03  0.00000000000E+00 0.  1.
         13    1    1    2    0    0 -0.75207855903E+02  0.67710881925E+02 -0.14218404753E+03  0.17452019842E+03  0.10566000000E+00 0. -1.
<mgrwt>
<rscale>  1 0.56363037E+03</rscale>
<asrwt>0</asrwt>
<pdfrwt beam="1">  1       21 0.88877943E-01 0.99908433E+03</pdfrwt>
<pdfrwt beam="2">  1        4 0.92729628E-01 0.99908433E+03</pdfrwt>
<totfact> 0.40607146E+01</totfact>
</mgrwt>
</event>
<event>
 6    1  0.1412458E-005  0.1082287E+04  0.7818608E-02  0.9470942E-01
         21   -1    0    0  501  502  0.00000000000E+00  0.00000000000E+00  0.43262738873E+03  0.43262738873E+03  0.00000000000E+00 0. -1.
          4   -1    0    0  502    0 -0.00000000000E+00 -0.00000000000E+00 -0.15801471092E+04  0.15801471092E+04  0.00000000000E+00 0.  1.
    9000010    2    1    2  501    0  0.33133218397E+03 -0.29073316642E+03 -0.41755728164E+03  0.11600424395E+04  0.98845211710E+03 0.  0.
        -13    1    3    3    0    0  0.39159533056E+03  0.29695880640E+03 -0.18382461902E+03  0.52471224241E+03  0.10566000000E+00 0.  1.
          4    1    3    3  501    0 -0.60263146591E+02 -0.58769197282E+03 -0.23373266262E+03  0.63533019709E+03  0.00000000000E+00 0.  1.
         13    1    1    2    0    0 -0.33133218397E+03  0.29073316642E+03 -0.72996243879E+03  0.85273205838E+03  0.10566000000E+00 0. -1.
<mgrwt>
<rscale>  1 0.86460496E+03</rscale>
<asrwt>0</asrwt>
<pdfrwt beam="1">  1       21 0.66558059E-01 0.10822866E+04</pdfrwt>
<pdfrwt beam="2">  1        4 0.24309956E+00 0.10822866E+04</pdfrwt>
<totfact> 0.55130939E+00</totfact>
</mgrwt>
</event>
<event>
 6    1  0.1412458E-005  0.1125969E+04  0.7818608E-02  0.9387708E-01
         21   -1    0    0  501  502  0.00000000000E+00  0.00000000000E+00  0.90156572787E+03  0.90156572787E+03  0.00000000000E+00 0.  1.
          4   -1    0    0  502    0 -0.00000000000E+00 -0.00000000000E+00 -0.17962778118E+04  0.17962778118E+04  0.00000000000E+00 0.  1.
    9000010    2    1    2  501    0  0.45668583716E+02 -0.52416637552E+03  0.48140968669E+03  0.12245658511E+04  0.99547487592E+03 0.  0.
        -13    1    3    3    0    0  0.18150037994E+03 -0.68178332106E+03  0.64805251137E+03  0.95798901531E+03  0.10566000000E+00 0.  1.
          4    1    3    3  501    0 -0.13583179622E+03  0.15761694554E+03 -0.16664282468E+03  0.26657683584E+03  0.00000000000E+00 0.  1.
         13    1    1    2    0    0 -0.45668583716E+02  0.52416637552E+03 -0.13761217706E+04  0.14732776885E+04  0.10566000000E+00 0. -1.
<mgrwt>
<rscale>  1 0.93094207E+03</rscale>
<asrwt>0</asrwt>
<pdfrwt beam="1">  1       21 0.13870242E+00 0.11259690E+04</pdfrwt>
<pdfrwt beam="2">  1        4 0.27635043E+00 0.11259690E+04</pdfrwt>
<totfact> 0.55630992E-01</totfact>
</mgrwt>
</event>
<event>
 6    1  0.1412458E-005  0.1051343E+04  0.7818608E-02  0.9768198E-01
         21   -1    0    0  501  502  0.00000000000E+00  0.00000000000E+00  0.54121218331E+03  0.54121218331E+03  0.00000000000E+00 0.  1.
          4   -1    0    0  502    0 -0.00000000000E+00 -0.00000000000E+00 -0.77447941774E+03  0.77447941774E+03  0.00000000000E+00 0.  1.
    9000010    2    1    2  501    0 -0.12877012145E+03 -0.11764320249E+03 -0.35420316211E+02  0.10519396693E+04  0.10367742290E+04 0.  0.
        -13    1    3    3    0    0 -0.44531003029E+03 -0.36938825454E+03  0.16349104061E+03  0.60123043602E+03  0.10566000000E+00 0.  1.
          4    1    3    3  501    0  0.31653990884E+03  0.25174505206E+03 -0.19891135682E+03  0.45070923331E+03  0.00000000000E+00 0.  1.
         13    1    1    2    0    0  0.12877012145E+03  0.11764320249E+03 -0.19784691823E+03  0.26375193172E+03  0.10566000000E+00 0. -1.
<mgrwt>
<rscale>  1 0.67097489E+03</rscale>
<asrwt>0</asrwt>
<pdfrwt beam="1">  1       21 0.83263413E-01 0.10513432E+04</pdfrwt>
<pdfrwt beam="2">  1        4 0.11915068E+00 0.10513432E+04</pdfrwt>
<totfact> 0.25641895E+01</totfact>
</mgrwt>
</event>
<event>
 6    1  0.1412458E-005  0.9887287E+03  0.7818608E-02  0.9945011E-01
          4   -1    0    0  502    0 -0.00000000000E+00  0.00000000000E+00  0.25516560583E+03  0.25516560583E+03  0.00000000000E+00 0.  1.
         21   -1    0    0  501  502  0.00000000000E+00 -0.00000000000E+00 -0.12128825542E+04  0.12128825542E+04  0.00000000000E+00 0.  1.
    9000010    2    1    2  501    0  0.83670087771E+02 -0.83377856400E+02 -0.89813409805E+03  0.13357504740E+04  0.98164755389E+03 0.  0.
        -13    1    3    3    0    0  0.43792017308E+03 -0.78731007487E+02 -0.87389065530E+03  0.98064139119E+03  0.10566000000E+00 0.  1.
          4    1    3    3  501    0 -0.35425008531E+03 -0.46468489128E+01 -0.24243442750E+02  0.35510908276E+03  0.00000000000E+00 0.  1.
         13    1    1    2    0    0 -0.83670087771E+02  0.83377856400E+02 -0.59582850299E+02  0.13229768607E+03  0.10566000000E+00 0. -1.
<mgrwt>
<rscale>  1 0.58128565E+03</rscale>
<asrwt>0</asrwt>
<pdfrwt beam="2">  1       21 0.18659732E+00 0.98872871E+03</pdfrwt>
<pdfrwt beam="1">  1        4 0.39256247E-01 0.98872871E+03</pdfrwt>
<totfact> 0.36559029E+01</totfact>
</mgrwt>
</event>
<event>
 6    1  0.1412458E-005  0.1017593E+04  0.7818608E-02  0.9750590E-01
         21   -1    0    0  501  502  0.00000000000E+00  0.00000000000E+00  0.46546195106E+03  0.46546195106E+03  0.00000000000E+00 0.  1.
          4   -1    0    0  502    0 -0.00000000000E+00 -0.00000000000E+00 -0.85519096467E+03  0.85519096467E+03  0.00000000000E+00 0.  1.
    9000010    2    1    2  501    0 -0.16238267637E+03  0.12332714541E+03 -0.18991235083E+03  0.10351631116E+04  0.99695448654E+03 0.  0.
        -13    1    3    3    0    0 -0.38897662369E+03  0.32323713756E+03  0.19827557782E+03  0.54322948815E+03  0.10566000000E+00 0.  1.
          4    1    3    3  501    0  0.22659394732E+03 -0.19990999215E+03 -0.38818792865E+03  0.49193362344E+03  0.00000000000E+00 0.  1.
         13    1    1    2    0    0  0.16238267637E+03 -0.12332714541E+03 -0.19981666277E+03  0.28548980413E+03  0.10566000000E+00 0. -1.
<mgrwt>
<rscale>  1 0.68082932E+03</rscale>
<asrwt>0</asrwt>
<pdfrwt beam="1">  1       21 0.71609532E-01 0.10175932E+04</pdfrwt>
<pdfrwt beam="2">  1        4 0.13156784E+00 0.10175932E+04</pdfrwt>
<totfact> 0.28418463E+01</totfact>
</mgrwt>
</event>
<event>
 6    1  0.1412458E-005  0.1006544E+04  0.7818608E-02  0.1005732E+00
         21   -1    0    0  501  502  0.00000000000E+00  0.00000000000E+00  0.35114369899E+03  0.35114369899E+03  0.00000000000E+00 0.  1.
          4   -1    0    0  502    0 -0.00000000000E+00 -0.00000000000E+00 -0.89435810279E+03  0.89435810279E+03  0.00000000000E+00 0.  1.
    9000010    2    1    2  501    0  0.22193753763E+00 -0.78589510976E+02 -0.40192034225E+03  0.10838219221E+04  0.10034707952E+04 0.  0.
        -13    1    3    3    0    0 -0.13748430245E+03 -0.35718978910E+03 -0.60260924738E+03  0.71387981835E+03  0.10566000000E+00 0.  1.
          4    1    3    3  501    0  0.13770623999E+03  0.27860027812E+03  0.20068890513E+03  0.36994210377E+03  0.00000000000E+00 0.  1.
         13    1    1    2    0    0 -0.22193753763E+00  0.78589510976E+02 -0.14129406155E+03  0.16167987966E+03  0.10566000000E+00 0. -1.
<mgrwt>
<rscale>  1 0.53206675E+03</rscale>
<asrwt>0</asrwt>
<pdfrwt beam="1">  1       21 0.54022108E-01 0.10065436E+04</pdfrwt>
<pdfrwt beam="2">  1        4 0.13759355E+00 0.10065436E+04</pdfrwt>
<totfact> 0.47676193E+01</totfact>
</mgrwt>
</event>
<event>
 6    1  0.1412458E-005  0.1009214E+04  0.7818608E-02  0.9923325E-01
         21   -1    0    0  501  502  0.00000000000E+00  0.00000000000E+00  0.84886377596E+03  0.84886377596E+03  0.00000000000E+00 0.  1.
          4   -1    0    0  502    0 -0.00000000000E+00 -0.00000000000E+00 -0.37778658800E+03  0.37778658800E+03  0.00000000000E+00 0.  1.
    9000010    2    1    2  501    0  0.11359404762E+03  0.35595949171E+02  0.45309817474E+03  0.11062596030E+04  0.10021684858E+04 0.  0.
        -13    1    3    3    0    0 -0.14029060968E+03  0.28711212842E+03  0.63081309085E+03  0.70713506220E+03  0.10566000000E+00 0.  1.
          4    1    3    3  501    0  0.25388465729E+03 -0.25151617925E+03 -0.17771491611E+03  0.39912454077E+03  0.00000000000E+00 0.  1.
         13    1    1    2    0    0 -0.11359404762E+03 -0.35595949171E+02  0.17979013219E+02  0.12039076099E+03  0.10566000000E+00 0. -1.
<mgrwt>
<rscale>  1 0.59144074E+03</rscale>
<asrwt>0</asrwt>
<pdfrwt beam="1">  1       21 0.13059443E+00 0.10092137E+04</pdfrwt>
<pdfrwt beam="2">  1        4 0.58121014E-01 0.10092137E+04</pdfrwt>
<totfact> 0.44142154E+01</totfact>
</mgrwt>
</event>
<event>
 6    1  0.1412458E-005  0.1009308E+04  0.7818608E-02  0.9909601E-01
         21   -1    0    0  501  502  0.00000000000E+00  0.00000000000E+00  0.15160457319E+04  0.15160457319E+04  0.00000000000E+00 0.  1.
          4   -1    0    0  502    0 -0.00000000000E+00 -0.00000000000E+00 -0.40869904616E+03  0.40869904616E+03  0.00000000000E+00 0.  1.
    9000010    2    1    2  501    0  0.58407394072E+02  0.10979118985E+03  0.13300621864E+04  0.16696609987E+04  0.10016171434E+04 0.  0.
        -13    1    3    3    0    0 -0.30030605368E+03  0.42970570654E+03  0.77159160244E+03  0.93283671253E+03  0.10566000000E+00 0.  1.
          4    1    3    3  501    0  0.35871344775E+03 -0.31991451669E+03  0.55847058399E+03  0.73682428622E+03  0.00000000000E+00 0.  1.
         13    1    1    2    0    0 -0.58407394072E+02 -0.10979118985E+03 -0.22271550069E+03  0.25508377930E+03  0.10566000000E+00 0. -1.
<mgrwt>
<rscale>  1 0.59798238E+03</rscale>
<asrwt>0</asrwt>
<pdfrwt beam="1">  1       21 0.23323780E+00 0.10093079E+04</pdfrwt>
<pdfrwt beam="2">  1        4 0.62876777E-01 0.10093079E+04</pdfrwt>
<totfact> 0.65318058E+00</totfact>
</mgrwt>
</event>
<event>
 6    1  0.1412458E-005  0.1003018E+04  0.7818608E-02  0.9703755E-01
         21   -1    0    0  501  502  0.00000000000E+00  0.00000000000E+00  0.32701726092E+04  0.32701726092E+04  0.00000000000E+00 0.  1.
          4   -1    0    0  502    0 -0.00000000000E+00 -0.00000000000E+00 -0.15581754801E+03  0.15581754801E+03  0.00000000000E+00 0.  1.
    9000010    2    1    2  501    0 -0.23901314224E+03  0.69508518704E+02  0.29775669762E+04  0.31419660250E+04  0.97164123413E+03 0.  0.
        -13    1    3    3    0    0 -0.30730611102E+02 -0.87821193014E+02 -0.48319817848E+02  0.10484153930E+03  0.10566000000E+00 0.  1.
          4    1    3    3  501    0 -0.20828253114E+03  0.15732971172E+03  0.30258867941E+04  0.30371244857E+04  0.00000000000E+00 0.  1.
         13    1    1    2    0    0  0.23901314224E+03 -0.69508518704E+02  0.13678808494E+03  0.28402413222E+03  0.10566000000E+00 0. -1.
<mgrwt>
<rscale>  1 0.70793666E+03</rscale>
<asrwt>0</asrwt>
<pdfrwt beam="1">  1       21 0.50310343E+00 0.10030181E+04</pdfrwt>
<pdfrwt beam="2">  1        4 0.23971933E-01 0.10030181E+04</pdfrwt>
<totfact> 0.80179909E-01</totfact>
</mgrwt>
</event>
<event>
 6    1  0.1412458E-005  0.9924004E+03  0.7818608E-02  0.9874524E-01
          4   -1    0    0  502    0 -0.00000000000E+00  0.00000000000E+00  0.14251642951E+04  0.14251642951E+04  0.00000000000E+00 0.  1.
         21   -1    0    0  501  502  0.00000000000E+00 -0.00000000000E+00 -0.27589475026E+03  0.27589475026E+03  0.00000000000E+00 0.  1.
    9000010    2    1    2  501    0 -0.10656878470E+03 -0.10049606229E+03  0.66371594464E+03  0.11938917414E+04  0.98153057543E+03 0.  0.
        -13    1    3    3    0    0  0.30339197361E+02  0.39478833450E+03  0.53244151707E+03  0.66353016226E+03  0.10566000000E+00 0.  1.
          4    1    3    3  501    0 -0.13690798206E+03 -0.49528439679E+03  0.13127442756E+03  0.53036157910E+03  0.00000000000E+00 0.  1.
         13    1    1    2    0    0  0.10656878470E+03  0.10049606229E+03  0.48555360016E+03  0.50716730395E+03  0.10566000000E+00 0. -1.
<mgrwt>
<rscale>  1 0.61511987E+03</rscale>
<asrwt>0</asrwt>
<pdfrwt beam="2">  1       21 0.42445347E-01 0.99240044E+03</pdfrwt>
<pdfrwt beam="1">  1        4 0.21925604E+00 0.99240044E+03</pdfrwt>
<totfact> 0.21057108E+01</totfact>
</mgrwt>
</event>
<event>
 6    1  0.1412458E-005  0.1021583E+04  0.7818608E-02  0.9683196E-01
          4   -1    0    0  502    0 -0.00000000000E+00  0.00000000000E+00  0.13445698252E+04  0.13445698252E+04  0.00000000000E+00 0.  1.
         21   -1    0    0  501  502  0.00000000000E+00 -0.00000000000E+00 -0.35181040721E+03  0.35181040721E+03  0.00000000000E+00 0.  1.
    9000010    2    1    2  501    0  0.13242975778E+03  0.21490260917E+03  0.48829221950E+03  0.11322810056E+04  0.98990414275E+03 0.  0.
        -13    1    3    3    0    0  0.25147337818E+02  0.35407084969E+03  0.74265462598E+03  0.82312481427E+03  0.10566000000E+00 0.  1.
          4    1    3    3  501    0  0.10728241996E+03 -0.13916824053E+03 -0.25436240649E+03  0.30915619133E+03  0.00000000000E+00 0.  1.
         13    1    1    2    0    0 -0.13242975778E+03 -0.21490260917E+03  0.50446719846E+03  0.56409922679E+03  0.10566000000E+00 0. -1.
<mgrwt>
<rscale>  1 0.72026158E+03</rscale>
<asrwt>0</asrwt>
<pdfrwt beam="2">  1       21 0.54124679E-01 0.10215826E+04</pdfrwt>
<pdfrwt beam="1">  1        4 0.20685689E+00 0.10215826E+04</pdfrwt>
<totfact> 0.14968286E+01</totfact>
</mgrwt>
</event>
<event>
 6    1  0.1412458E-005  0.9853208E+03  0.7818608E-02  0.9946643E-01
         21   -1    0    0  501  502  0.00000000000E+00  0.00000000000E+00  0.13191047837E+03  0.13191047837E+03  0.00000000000E+00 0.  1.
          4   -1    0    0  502    0 -0.00000000000E+00 -0.00000000000E+00 -0.23490287617E+04  0.23490287617E+04  0.00000000000E+00 0.  1.
    9000010    2    1    2  501    0  0.82003159265E+02 -0.85864598377E+02 -0.18640997349E+04  0.21084887681E+04  0.97814100012E+03 0.  0.
        -13    1    3    3    0    0 -0.40167737537E+03  0.78194518533E+02 -0.46682861173E+03  0.62079631161E+03  0.10566000000E+00 0.  1.
          4    1    3    3  501    0  0.48368053463E+03 -0.16405911691E+03 -0.13972711232E+04  0.14876924565E+04  0.00000000000E+00 0.  1.
         13    1    1    2    0    0 -0.82003159265E+02  0.85864598377E+02 -0.35301854849E+03  0.37245047204E+03  0.10566000000E+00 0. -1.
<mgrwt>
<rscale>  1 0.58053054E+03</rscale>
<asrwt>0</asrwt>
<pdfrwt beam="1">  1       21 0.20293920E-01 0.98532079E+03</pdfrwt>
<pdfrwt beam="2">  1        4 0.36138903E+00 0.98532079E+03</pdfrwt>
<totfact> 0.11996378E+01</totfact>
</mgrwt>
</event>
<event>
 6    1  0.1412458E-005  0.1108294E+04  0.7818608E-02  0.9423002E-01
         21   -1    0    0  501  502  0.00000000000E+00  0.00000000000E+00  0.50674028835E+03  0.50674028835E+03  0.00000000000E+00 0.  1.
          4   -1    0    0  502    0 -0.00000000000E+00 -0.00000000000E+00 -0.16828501742E+04  0.16828501742E+04  0.00000000000E+00 0.  1.
    9000010    2    1    2  501    0 -0.33188292700E+03  0.35557601905E+03 -0.23900060736E+03  0.11337711629E+04  0.99585901459E+03 0.  0.
        -13    1    3    3    0    0 -0.36479461119E+03  0.15173211213E+03 -0.59970162183E+03  0.71815025488E+03  0.10566000000E+00 0.  1.
          4    1    3    3  501    0  0.32911684186E+02  0.20384390692E+03  0.36070101446E+03  0.41562090801E+03  0.00000000000E+00 0.  1.
         13    1    1    2    0    0  0.33188292700E+03 -0.35557601905E+03 -0.93710927849E+03  0.10558192997E+04  0.10566000000E+00 0. -1.
<mgrwt>
<rscale>  1 0.90206670E+03</rscale>
<asrwt>0</asrwt>
<pdfrwt beam="1">  1       21 0.77960044E-01 0.11082941E+04</pdfrwt>
<pdfrwt beam="2">  1        4 0.25890003E+00 0.11082941E+04</pdfrwt>
<totfact> 0.30435681E+00</totfact>
</mgrwt>
</event>
<event>
 6    1  0.1412458E-005  0.9889220E+03  0.7818608E-02  0.9743405E-01
         21   -1    0    0  501  502  0.00000000000E+00  0.00000000000E+00  0.76168573051E+03  0.76168573051E+03  0.00000000000E+00 0.  1.
          4   -1    0    0  502    0 -0.00000000000E+00 -0.00000000000E+00 -0.51753566004E+03  0.51753566004E+03  0.00000000000E+00 0.  1.
    9000010    2    1    2  501    0  0.22729088727E+03  0.10321393897E+02  0.31996691702E+03  0.10393966963E+04  0.96239232416E+03 0.  0.
        -13    1    3    3    0    0 -0.12507571984E+03 -0.17271622995E+03 -0.26016290053E+03  0.33639200014E+03  0.10566000000E+00 0.  1.
          4    1    3    3  501    0  0.35236660711E+03  0.18303762385E+03  0.58012981755E+03  0.70300469612E+03  0.00000000000E+00 0.  1.
         13    1    1    2    0    0 -0.22729088727E+03 -0.10321393897E+02 -0.75816846552E+02  0.23982469429E+03  0.10566000000E+00 0. -1.
<mgrwt>
<rscale>  1 0.68490268E+03</rscale>
<asrwt>0</asrwt>
<pdfrwt beam="1">  1       21 0.11718242E+00 0.98892197E+03</pdfrwt>
<pdfrwt beam="2">  1        4 0.79620871E-01 0.98892197E+03</pdfrwt>
<totfact> 0.29134909E+01</totfact>
</mgrwt>
</event>
<event>
 6    1  0.1412458E-005  0.1014730E+04  0.7818608E-02  0.9860885E-01
         21   -1    0    0  501  502  0.00000000000E+00  0.00000000000E+00  0.36716709618E+03  0.36716709618E+03  0.00000000000E+00 0.  1.
          4   -1    0    0  502    0 -0.00000000000E+00 -0.00000000000E+00 -0.10095420892E+04  0.10095420892E+04  0.00000000000E+00 0.  1.
    9000010    2    1    2  501    0  0.90925913146E+02 -0.11064000506E+03 -0.39110237214E+03  0.10874918388E+04  0.10045738905E+04 0.  0.
        -13    1    3    3    0    0 -0.34080891076E+03  0.55390575163E+02  0.14928334436E+03  0.37617064950E+03  0.10566000000E+00 0.  1.
          4    1    3    3  501    0  0.43173482391E+03 -0.16603058022E+03 -0.54038571650E+03  0.71132118930E+03  0.00000000000E+00 0.  1.
         13    1    1    2    0    0 -0.90925913146E+02  0.11064000506E+03 -0.25127262091E+03  0.28921734662E+03  0.10566000000E+00 0. -1.
<mgrwt>
<rscale>  1 0.62194980E+03</rscale>
<asrwt>0</asrwt>
<pdfrwt beam="1">  1       21 0.56487245E-01 0.10147302E+04</pdfrwt>
<pdfrwt beam="2">  1        4 0.15531417E+00 0.10147302E+04</pdfrwt>
<totfact> 0.31273593E+01</totfact>
</mgrwt>
</event>
<event>
 6    1  0.1412458E-005  0.1011653E+04  0.7818608E-02  0.1031401E+00
          4   -1    0    0  502    0 -0.00000000000E+00  0.00000000000E+00  0.53754410495E+03  0.53754410495E+03  0.00000000000E+00 0.  1.
         21   -1    0    0  501  502  0.00000000000E+00 -0.00000000000E+00 -0.54218919313E+03  0.54218919313E+03  0.00000000000E+00 0.  1.
    9000010    2    1    2  501    0  0.23229287751E+02  0.26852773424E+02 -0.60596912995E+02  0.10134664956E+04  0.10110300097E+04 0.  0.
        -13    1    3    3    0    0  0.37975219196E+03  0.35588203928E+03  0.23995062115E+02  0.52099858671E+03  0.10566000000E+00 0.  1.
          4    1    3    3  501    0 -0.35652290421E+03 -0.32902926586E+03 -0.84591975109E+02  0.49246790887E+03  0.00000000000E+00 0.  1.
         13    1    1    2    0    0 -0.23229287751E+02 -0.26852773424E+02  0.55951824811E+02  0.66266802501E+02  0.10566000000E+00 0. -1.
<mgrwt>
<rscale>  1 0.43787433E+03</rscale>
<asrwt>0</asrwt>
<pdfrwt beam="2">  1       21 0.83413722E-01 0.10116533E+04</pdfrwt>
<pdfrwt beam="1">  1        4 0.82699093E-01 0.10116533E+04</pdfrwt>
<totfact> 0.61712695E+01</totfact>
</mgrwt>
</event>
<event>
 6    1  0.1412458E-005  0.1030552E+04  0.7818608E-02  0.9806324E-01
         21   -1    0    0  501  502  0.00000000000E+00  0.00000000000E+00  0.80372503268E+03  0.80372503268E+03  0.00000000000E+00 0.  1.
          4   -1    0    0  502    0 -0.00000000000E+00 -0.00000000000E+00 -0.54125824193E+03  0.54125824193E+03  0.00000000000E+00 0.  1.
    9000010    2    1    2  501    0 -0.22901933936E+02  0.16172647113E+03  0.42482312882E+03  0.11146801228E+04  0.10175250048E+04 0.  0.
        -13    1    3    3    0    0  0.40929688174E+03  0.33582843896E+03  0.80972802661E+02  0.53559432759E+03  0.10566000000E+00 0.  1.
          4    1    3    3  501    0 -0.43219881567E+03 -0.17410196783E+03  0.34385032616E+03  0.57908579526E+03  0.00000000000E+00 0.  1.
         13    1    1    2    0    0  0.22901933936E+02 -0.16172647113E+03 -0.16235633806E+03  0.23030315177E+03  0.10566000000E+00 0. -1.
<mgrwt>
<rscale>  1 0.65024277E+03</rscale>
<asrwt>0</asrwt>
<pdfrwt beam="1">  1       21 0.12365000E+00 0.10305518E+04</pdfrwt>
<pdfrwt beam="2">  1        4 0.83270499E-01 0.10305518E+04</pdfrwt>
<totfact> 0.22753508E+01</totfact>
</mgrwt>
</event>
<event>
 6    1  0.1412458E-005  0.1011996E+04  0.7818608E-02  0.1017927E+00
         21   -1    0    0  501  502  0.00000000000E+00  0.00000000000E+00  0.32581183357E+03  0.32581183357E+03  0.00000000000E+00 0.  1.
          4   -1    0    0  502    0 -0.00000000000E+00 -0.00000000000E+00 -0.10682553619E+04  0.10682553619E+04  0.00000000000E+00 0.  1.
    9000010    2    1    2  501    0 -0.49661258052E+02 -0.18886832668E+02 -0.46878898106E+03  0.11153024642E+04  0.10106005763E+04 0.  0.
        -13    1    3    3    0    0 -0.25339891226E+03  0.40914418967E+03 -0.41999246418E+03  0.63875164016E+03  0.10566000000E+00 0.  1.
          4    1    3    3  501    0  0.20373765421E+03 -0.42803102234E+03 -0.48796516876E+02  0.47655082403E+03  0.00000000000E+00 0.  1.
         13    1    1    2    0    0  0.49661258052E+02  0.18886832668E+02 -0.27365454731E+03  0.27876473131E+03  0.10566000000E+00 0. -1.
<mgrwt>
<rscale>  1 0.48442033E+03</rscale>
<asrwt>0</asrwt>
<pdfrwt beam="1">  1       21 0.50124897E-01 0.10119963E+04</pdfrwt>
<pdfrwt beam="2">  1        4 0.16434698E+00 0.10119963E+04</pdfrwt>
<totfact> 0.34753430E+01</totfact>
</mgrwt>
</event>
<event>
 6    1  0.1412458E-005  0.1066589E+04  0.7818608E-02  0.9612097E-01
          4   -1    0    0  502    0 -0.00000000000E+00  0.00000000000E+00  0.73856727295E+03  0.73856727295E+03  0.00000000000E+00 0.  1.
         21   -1    0    0  501  502  0.00000000000E+00 -0.00000000000E+00 -0.95034689836E+03  0.95034689836E+03  0.00000000000E+00 0.  1.
    9000010    2    1    2  501    0  0.20114854642E+03 -0.19803366732E+03 -0.58850129234E+03  0.12181729509E+04  0.10285589414E+04 0.  0.
        -13    1    3    3    0    0  0.22409485264E+03 -0.40283443204E+03  0.12326979715E+03  0.47716824776E+03  0.10566000000E+00 0.  1.
          4    1    3    3  501    0 -0.22946306221E+02  0.20480076472E+03 -0.71177108949E+03  0.74100470311E+03  0.00000000000E+00 0.  1.
         13    1    1    2    0    0 -0.20114854642E+03  0.19803366732E+03  0.37672166693E+03  0.47074122043E+03  0.10566000000E+00 0. -1.
<mgrwt>
<rscale>  1 0.76500647E+03</rscale>
<asrwt>0</asrwt>
<pdfrwt beam="2">  1       21 0.14620722E+00 0.10665888E+04</pdfrwt>
<pdfrwt beam="1">  1        4 0.11362573E+00 0.10665888E+04</pdfrwt>
<totfact> 0.68517380E+00</totfact>
</mgrwt>
</event>
<event>
 6    1  0.1412458E-005  0.1026187E+04  0.7818608E-02  0.9730226E-01
          4   -1    0    0  502    0 -0.00000000000E+00  0.00000000000E+00  0.88822592243E+03  0.88822592243E+03  0.00000000000E+00 0.  1.
         21   -1    0    0  501  502  0.00000000000E+00 -0.00000000000E+00 -0.13780467860E+04  0.13780467860E+04  0.00000000000E+00 0.  1.
    9000010    2    1    2  501    0 -0.20914608432E+03  0.39027863044E+02 -0.11684353504E+04  0.15550885610E+04  0.10038894390E+04 0.  0.
        -13    1    3    3    0    0 -0.52555029420E+02  0.48803765974E+03 -0.33092257749E+03  0.59199033092E+03  0.10566000000E+00 0.  1.
          4    1    3    3  501    0 -0.15659105490E+03 -0.44900979670E+03 -0.83751277293E+03  0.96309823010E+03  0.00000000000E+00 0.  1.
         13    1    1    2    0    0  0.20914608432E+03 -0.39027863044E+02  0.67861448683E+03  0.71118414744E+03  0.10566000000E+00 0. -1.
<mgrwt>
<rscale>  1 0.69245323E+03</rscale>
<asrwt>0</asrwt>
<pdfrwt beam="2">  1       21 0.21200720E+00 0.10261868E+04</pdfrwt>
<pdfrwt beam="1">  1        4 0.13665014E+00 0.10261868E+04</pdfrwt>
<totfact> 0.14174000E+00</totfact>
</mgrwt>
</event>
<event>
 6    1  0.1412458E-005  0.1047267E+04  0.7818608E-02  0.9559740E-01
         21   -1    0    0  501  502  0.00000000000E+00  0.00000000000E+00  0.97258941252E+03  0.97258941252E+03  0.00000000000E+00 0.  1.
          4   -1    0    0  502    0 -0.00000000000E+00 -0.00000000000E+00 -0.55057693342E+03  0.55057693342E+03  0.00000000000E+00 0.  1.
    9000010    2    1    2  501    0  0.54507780913E+02 -0.35276033487E+03  0.49575609024E+03  0.11586816640E+04  0.98455987396E+03 0.  0.
        -13    1    3    3    0    0 -0.40276309888E+03 -0.21390420545E+03  0.50534624197E+03  0.68069667133E+03  0.10566000000E+00 0.  1.
          4    1    3    3  501    0  0.45727087979E+03 -0.13885612942E+03 -0.95901517337E+01  0.47798499265E+03  0.00000000000E+00 0.  1.
         13    1    1    2    0    0 -0.54507780913E+02  0.35276033487E+03 -0.73743611136E+02  0.36448468196E+03  0.10566000000E+00 0. -1.
<mgrwt>
<rscale>  1 0.80019172E+03</rscale>
<asrwt>0</asrwt>
<pdfrwt beam="1">  1       21 0.14962914E+00 0.10472674E+04</pdfrwt>
<pdfrwt beam="2">  1        4 0.84704144E-01 0.10472674E+04</pdfrwt>
<totfact> 0.13043227E+01</totfact>
</mgrwt>
</event>
<event>
 6    1  0.1412458E-005  0.1067723E+04  0.7818608E-02  0.9569503E-01
         21   -1    0    0  501  502  0.00000000000E+00  0.00000000000E+00  0.64349588431E+03  0.64349588431E+03  0.00000000000E+00 0.  1.
          4   -1    0    0  502    0 -0.00000000000E+00 -0.00000000000E+00 -0.78407900797E+03  0.78407900797E+03  0.00000000000E+00 0.  1.
    9000010    2    1    2  501    0 -0.82616865811E+02 -0.31500836125E+03  0.12341994521E+02  0.10677945188E+04  0.10168465939E+04 0.  0.
        -13    1    3    3    0    0  0.26585760386E+02  0.33052318928E+03  0.19935653982E+03  0.38690492687E+03  0.10566000000E+00 0.  1.
          4    1    3    3  501    0 -0.10920262620E+03 -0.64553155053E+03 -0.18701454530E+03  0.68088959197E+03  0.00000000000E+00 0.  1.
         13    1    1    2    0    0  0.82616865811E+02  0.31500836125E+03 -0.15292511817E+03  0.35978037343E+03  0.10566000000E+00 0. -1.
<mgrwt>
<rscale>  1 0.79347970E+03</rscale>
<asrwt>0</asrwt>
<pdfrwt beam="1">  1       21 0.98999366E-01 0.10677232E+04</pdfrwt>
<pdfrwt beam="2">  1        4 0.12062754E+00 0.10677232E+04</pdfrwt>
<totfact> 0.16316863E+01</totfact>
</mgrwt>
</event>
<event>
 6    1  0.1412458E-005  0.1017537E+04  0.7818608E-02  0.9684010E-01
         21   -1    0    0  501  502  0.00000000000E+00  0.00000000000E+00  0.14269442908E+04  0.14269442908E+04  0.00000000000E+00 0.  1.
          4   -1    0    0  502    0 -0.00000000000E+00 -0.00000000000E+00 -0.33114884939E+03  0.33114884939E+03  0.00000000000E+00 0.  1.
    9000010    2    1    2  501    0  0.23666404014E+03  0.94286247890E+02  0.11063411247E+04  0.15031206181E+04  0.98513001375E+03 0.  0.
        -13    1    3    3    0    0  0.50834715186E+03 -0.17521563384E+03  0.31263786920E+03  0.62198054115E+03  0.10566000000E+00 0.  1.
          4    1    3    3  501    0 -0.27168311172E+03  0.26950188173E+03  0.79370325550E+03  0.88114007697E+03  0.00000000000E+00 0.  1.
         13    1    1    2    0    0 -0.23666404014E+03 -0.94286247890E+02 -0.10545683249E+02  0.25497252212E+03  0.10566000000E+00 0. -1.
<mgrwt>
<rscale>  1 0.71976870E+03</rscale>
<asrwt>0</asrwt>
<pdfrwt beam="1">  1       21 0.21952989E+00 0.10175367E+04</pdfrwt>
<pdfrwt beam="2">  1        4 0.50945978E-01 0.10175367E+04</pdfrwt>
<totfact> 0.12625999E+01</totfact>
</mgrwt>
</event>
<event>
 6    1  0.1412458E-005  0.1156023E+04  0.7818608E-02  0.9345921E-01
          4   -1    0    0  502    0 -0.00000000000E+00  0.00000000000E+00  0.17751127138E+04  0.17751127138E+04  0.00000000000E+00 0.  1.
         21   -1    0    0  501  502  0.00000000000E+00 -0.00000000000E+00 -0.46643964828E+03  0.46643964828E+03  0.00000000000E+00 0.  1.
    9000010    2    1    2  501    0  0.53376470486E+03  0.18562529278E+03  0.51086593182E+03  0.12638725867E+04  0.10084782623E+04 0.  0.
        -13    1    3    3    0    0  0.75728187174E+03 -0.90222987955E+02  0.19145993744E+03  0.78630333818E+03  0.10566000000E+00 0.  1.
          4    1    3    3  501    0 -0.22351716688E+03  0.27584828074E+03  0.31940599439E+03  0.47756924851E+03  0.00000000000E+00 0.  1.
         13    1    1    2    0    0 -0.53376470486E+03 -0.18562529278E+03  0.79780713372E+03  0.97767977541E+03  0.10566000000E+00 0. -1.
<mgrwt>
<rscale>  1 0.96663000E+03</rscale>
<asrwt>0</asrwt>
<pdfrwt beam="2">  1       21 0.71759947E-01 0.11560233E+04</pdfrwt>
<pdfrwt beam="1">  1        4 0.27309426E+00 0.11560233E+04</pdfrwt>
<totfact> 0.29974570E+00</totfact>
</mgrwt>
</event>
<event>
 6    1  0.1412458E-005  0.1268541E+04  0.7818608E-02  0.9176109E-01
         21   -1    0    0  501  502  0.00000000000E+00  0.00000000000E+00  0.15994560981E+04  0.15994560981E+04  0.00000000000E+00 0.  1.
          4   -1    0    0  502    0 -0.00000000000E+00 -0.00000000000E+00 -0.84795665876E+03  0.84795665876E+03  0.00000000000E+00 0.  1.
    9000010    2    1    2  501    0  0.67023869609E+03 -0.43624955709E+03  0.99416745838E+03  0.16116966780E+04  0.98471501493E+03 0.  0.
        -13    1    3    3    0    0  0.74957376233E+03 -0.59411124589E+02  0.96797152361E+03  0.12257077093E+04  0.10566000000E+00 0.  1.
          4    1    3    3  501    0 -0.79335066241E+02 -0.37683843250E+03  0.26195934778E+02  0.38598896868E+03  0.00000000000E+00 0.  1.
         13    1    1    2    0    0 -0.67023869609E+03  0.43624955709E+03 -0.24266801908E+03  0.83571607885E+03  0.10566000000E+00 0. -1.
<mgrwt>
<rscale>  1 0.11303460E+04</rscale>
<asrwt>0</asrwt>
<pdfrwt beam="1">  1       21 0.24607017E+00 0.12685414E+04</pdfrwt>
<pdfrwt beam="2">  1        4 0.13045487E+00 0.12685414E+04</pdfrwt>
<totfact> 0.91993652E-01</totfact>
</mgrwt>
</event>
<event>
 6    1  0.1412458E-005  0.1242236E+04  0.7818608E-02  0.9209391E-01
          4   -1    0    0  502    0 -0.00000000000E+00  0.00000000000E+00  0.10934756503E+04  0.10934756503E+04  0.00000000000E+00 0.  1.
         21   -1    0    0  501  502  0.00000000000E+00 -0.00000000000E+00 -0.94252721875E+03  0.94252721875E+03  0.00000000000E+00 0. -1.
    9000010    2    1    2  501    0 -0.14644687532E+03 -0.73749445666E+03 -0.92508778221E+02  0.12456762372E+04  0.98884106557E+03 0.  0.
        -13    1    3    3    0    0 -0.69588292293E+02  0.10369855762E+03 -0.34266777245E+03  0.36471514188E+03  0.10566000000E+00 0.  1.
          4    1    3    3  501    0 -0.76858583029E+02 -0.84119301428E+03  0.25015899423E+03  0.88096109531E+03  0.00000000000E+00 0.  1.
         13    1    1    2    0    0  0.14644687532E+03  0.73749445666E+03  0.24345720980E+03  0.79032663188E+03  0.10566000000E+00 0. -1.
<mgrwt>
<rscale>  1 0.10957018E+04</rscale>
<asrwt>0</asrwt>
<pdfrwt beam="2">  1       21 0.14500419E+00 0.12422365E+04</pdfrwt>
<pdfrwt beam="1">  1        4 0.16822702E+00 0.12422365E+04</pdfrwt>
<totfact> 0.24427204E+00</totfact>
</mgrwt>
</event>
<event>
 6    1  0.1412458E-005  0.1047963E+04  0.7818608E-02  0.9588389E-01
         21   -1    0    0  501  502  0.00000000000E+00  0.00000000000E+00  0.11076036252E+04  0.11076036252E+04  0.00000000000E+00 0.  1.
          4   -1    0    0  502    0 -0.00000000000E+00 -0.00000000000E+00 -0.43781156669E+03  0.43781156669E+03  0.00000000000E+00 0.  1.
    9000010    2    1    2  501    0 -0.31353334460E+03  0.76646446703E+02  0.62330829611E+03  0.12193192132E+04  0.99701969677E+03 0.  0.
        -13    1    3    3    0    0 -0.35582553796E+03  0.49800829902E+03  0.27502330995E+03  0.67101558219E+03  0.10566000000E+00 0.  1.
          4    1    3    3  501    0  0.42292193362E+02 -0.42136185232E+03  0.34828498616E+03  0.54830363102E+03  0.00000000000E+00 0.  1.
         13    1    1    2    0    0  0.31353334460E+03 -0.76646446703E+02  0.46483762379E+02  0.32609597866E+03  0.10566000000E+00 0. -1.
<mgrwt>
<rscale>  1 0.78069489E+03</rscale>
<asrwt>0</asrwt>
<pdfrwt beam="1">  1       21 0.17040056E+00 0.10479628E+04</pdfrwt>
<pdfrwt beam="2">  1        4 0.67355626E-01 0.10479628E+04</pdfrwt>
<totfact> 0.15142690E+01</totfact>
</mgrwt>
</event>
<event>
 6    1  0.1412458E-005  0.1042825E+04  0.7818608E-02  0.9612639E-01
          4   -1    0    0  502    0 -0.00000000000E+00  0.00000000000E+00  0.76299938732E+03  0.76299938732E+03  0.00000000000E+00 0.  1.
         21   -1    0    0  501  502  0.00000000000E+00 -0.00000000000E+00 -0.61377907406E+03  0.61377907406E+03  0.00000000000E+00 0.  1.
    9000010    2    1    2  501    0 -0.17448878109E+03  0.24582218682E+03  0.22305520645E+03  0.10664133782E+04  0.99830305307E+03 0.  0.
        -13    1    3    3    0    0 -0.23658823849E+03 -0.10417751035E+03 -0.32370515450E+03  0.41426077109E+03  0.10566000000E+00 0.  1.
          4    1    3    3  501    0  0.62099457399E+02  0.34999969716E+03  0.54676036094E+03  0.65215260708E+03  0.00000000000E+00 0.  1.
         13    1    1    2    0    0  0.17448878109E+03 -0.24582218682E+03 -0.73834893191E+02  0.31036508320E+03  0.10566000000E+00 0. -1.
<mgrwt>
<rscale>  1 0.76465248E+03</rscale>
<asrwt>0</asrwt>
<pdfrwt beam="2">  1       21 0.94427550E-01 0.10428249E+04</pdfrwt>
<pdfrwt beam="1">  1        4 0.11738452E+00 0.10428249E+04</pdfrwt>
<totfact> 0.19673804E+01</totfact>
</mgrwt>
</event>
<event>
 6    1  0.1412458E-005  0.1017467E+04  0.7818608E-02  0.9769420E-01
          4   -1    0    0  502    0 -0.00000000000E+00  0.00000000000E+00  0.68454223377E+03  0.68454223377E+03  0.00000000000E+00 0.  1.
         21   -1    0    0  501  502  0.00000000000E+00 -0.00000000000E+00 -0.97613245467E+03  0.97613245467E+03  0.00000000000E+00 0.  1.
    9000010    2    1    2  501    0 -0.45534391422E+02  0.18616216427E+03 -0.68259664691E+03  0.12252257608E+04  0.99925484759E+03 0.  0.
        -13    1    3    3    0    0 -0.43645681469E+03  0.19447656477E+03 -0.68380970494E+03  0.83421304777E+03  0.10566000000E+00 0.  1.
          4    1    3    3  501    0  0.39092242327E+03 -0.83144004935E+01  0.12130580328E+01  0.39101271306E+03  0.00000000000E+00 0.  1.
         13    1    1    2    0    0  0.45534391422E+02 -0.18616216427E+03  0.39100642601E+03  0.43544892761E+03  0.10566000000E+00 0. -1.
<mgrwt>
<rscale>  1 0.67029754E+03</rscale>
<asrwt>0</asrwt>
<pdfrwt beam="2">  1       21 0.15017422E+00 0.10174674E+04</pdfrwt>
<pdfrwt beam="1">  1        4 0.10531419E+00 0.10174674E+04</pdfrwt>
<totfact> 0.77137543E+00</totfact>
</mgrwt>
</event>
<event>
 6    1  0.1412458E-005  0.9908482E+03  0.7818608E-02  0.9728152E-01
         21   -1    0    0  501  502  0.00000000000E+00  0.00000000000E+00  0.11387374125E+04  0.11387374125E+04  0.00000000000E+00 0.  1.
          4   -1    0    0  502    0 -0.00000000000E+00 -0.00000000000E+00 -0.33153433851E+03  0.33153433851E+03  0.00000000000E+00 0.  1.
    9000010    2    1    2  501    0  0.82420878182E+02  0.22325238303E+03  0.64609193046E+03  0.11828841392E+04  0.96184472575E+03 0.  0.
        -13    1    3    3    0    0 -0.39759486933E+03  0.84289728032E+02  0.53341971955E+03  0.67061393270E+03  0.10566000000E+00 0.  1.
          4    1    3    3  501    0  0.48001574751E+03  0.13896265500E+03  0.11267221092E+03  0.51227020649E+03  0.00000000000E+00 0.  1.
         13    1    1    2    0    0 -0.82420878182E+02 -0.22325238303E+03  0.16111114350E+03  0.28738761180E+03  0.10566000000E+00 0. -1.
<mgrwt>
<rscale>  1 0.69365073E+03</rscale>
<asrwt>0</asrwt>
<pdfrwt beam="1">  1       21 0.17519037E+00 0.99084817E+03</pdfrwt>
<pdfrwt beam="2">  1        4 0.51005283E-01 0.99084817E+03</pdfrwt>
<totfact> 0.25678699E+01</totfact>
</mgrwt>
</event>
<event>
 6    1  0.1412458E-005  0.9960318E+03  0.7818608E-02  0.9934002E-01
         21   -1    0    0  501  502  0.00000000000E+00  0.00000000000E+00  0.21193598599E+03  0.21193598599E+03  0.00000000000E+00 0.  1.
          4   -1    0    0  502    0 -0.00000000000E+00 -0.00000000000E+00 -0.14901058038E+04  0.14901058038E+04  0.00000000000E+00 0.  1.
    9000010    2    1    2  501    0  0.11542225217E+03 -0.31612157039E+02 -0.10693838201E+04  0.14613901146E+04  0.98881630627E+03 0.  0.
        -13    1    3    3    0    0 -0.59703824618E+02  0.46334366608E+03 -0.56769199775E+03  0.73520481163E+03  0.10566000000E+00 0.  1.
          4    1    3    3  501    0  0.17512607679E+03 -0.49495582312E+03 -0.50169182232E+03  0.72618530293E+03  0.00000000000E+00 0.  1.
         13    1    1    2    0    0 -0.11542225217E+03  0.31612157039E+02 -0.20878599770E+03  0.24065167518E+03  0.10566000000E+00 0. -1.
<mgrwt>
<rscale>  1 0.58641352E+03</rscale>
<asrwt>0</asrwt>
<pdfrwt beam="1">  1       21 0.32605537E-01 0.99603178E+03</pdfrwt>
<pdfrwt beam="2">  1        4 0.22924704E+00 0.99603178E+03</pdfrwt>
<totfact> 0.31430416E+01</totfact>
</mgrwt>
</event>
<event>
 6    1  0.1412458E-005  0.1039195E+04  0.7818608E-02  0.9656928E-01
          4   -1    0    0  502    0 -0.00000000000E+00  0.00000000000E+00  0.14450466278E+04  0.14450466278E+04  0.00000000000E+00 0.  1.
         21   -1    0    0  501  502  0.00000000000E+00 -0.00000000000E+00 -0.29699227521E+03  0.29699227521E+03  0.00000000000E+00 0.  1.
    9000010    2    1    2  501    0  0.38858082569E+02  0.25914394302E+03  0.99414718553E+03  0.14381426032E+04  0.10056142337E+04 0.  0.
        -13    1    3    3    0    0  0.36545322608E+03 -0.10158511429E+03  0.58871052597E+02  0.38385076253E+03  0.10566000000E+00 0.  1.
          4    1    3    3  501    0 -0.32659514351E+03  0.36072905731E+03  0.93527613294E+03  0.10542918407E+04  0.00000000000E+00 0.  1.
         13    1    1    2    0    0 -0.38858082569E+02 -0.25914394302E+03  0.15390716707E+03  0.30389629979E+03  0.10566000000E+00 0. -1.
<mgrwt>
<rscale>  1 0.73640222E+03</rscale>
<asrwt>0</asrwt>
<pdfrwt beam="2">  1       21 0.45691120E-01 0.10391947E+04</pdfrwt>
<pdfrwt beam="1">  1        4 0.22231486E+00 0.10391947E+04</pdfrwt>
<totfact> 0.17132943E+01</totfact>
</mgrwt>
</event>
<event>
 6    1  0.1412458E-005  0.1062247E+04  0.7818608E-02  0.9536395E-01
          4   -1    0    0  502    0 -0.00000000000E+00  0.00000000000E+00  0.17665544711E+03  0.17665544711E+03  0.00000000000E+00 0.  1.
         21   -1    0    0  501  502  0.00000000000E+00 -0.00000000000E+00 -0.29308230039E+04  0.29308230039E+04  0.00000000000E+00 0.  1.
    9000010    2    1    2  501    0  0.45521521412E+02 -0.36805596878E+03 -0.21600670012E+04  0.24071264778E+04  0.99540495548E+03 0.  0.
        -13    1    3    3    0    0  0.22076032118E+03  0.25738016886E+02 -0.18956886197E+02  0.22306263609E+03  0.10566000000E+00 0.  1.
          4    1    3    3  501    0 -0.17523879977E+03 -0.39379398566E+03 -0.21411101150E+04  0.21840638417E+04  0.00000000000E+00 0.  1.
         13    1    1    2    0    0 -0.45521521412E+02  0.36805596878E+03 -0.59410055560E+03  0.70035197322E+03  0.10566000000E+00 0. -1.
<mgrwt>
<rscale>  1 0.81652917E+03</rscale>
<asrwt>0</asrwt>
<pdfrwt beam="2">  1       21 0.45089585E+00 0.10622469E+04</pdfrwt>
<pdfrwt beam="1">  1        4 0.27177761E-01 0.10622469E+04</pdfrwt>
<totfact> 0.14507977E+00</totfact>
</mgrwt>
</event>
<event>
 6    1  0.1412458E-005  0.1045592E+04  0.7818608E-02  0.9585141E-01
         21   -1    0    0  501  502  0.00000000000E+00  0.00000000000E+00  0.39776608824E+03  0.39776608824E+03  0.00000000000E+00 0.  1.
          4   -1    0    0  502    0 -0.00000000000E+00 -0.00000000000E+00 -0.11875687153E+04  0.11875687153E+04  0.00000000000E+00 0.  1.
    9000010    2    1    2  501    0 -0.27280612034E+03  0.18320101022E+03 -0.58479661016E+03  0.11980193409E+04  0.99261144290E+03 0.  0.
        -13    1    3    3    0    0  0.30019442749E+01 -0.21420334147E+03  0.18885531260E+03  0.28558435431E+03  0.10566000000E+00 0.  1.
          4    1    3    3  501    0 -0.27580806461E+03  0.39740435168E+03 -0.77365192276E+03  0.91243498663E+03  0.00000000000E+00 0.  1.
         13    1    1    2    0    0  0.27280612034E+03 -0.18320101022E+03 -0.20500601687E+03  0.38731546258E+03  0.10566000000E+00 0. -1.
<mgrwt>
<rscale>  1 0.78287534E+03</rscale>
<asrwt>0</asrwt>
<pdfrwt beam="1">  1       21 0.61194783E-01 0.10455923E+04</pdfrwt>
<pdfrwt beam="2">  1        4 0.18270288E+00 0.10455923E+04</pdfrwt>
<totfact> 0.16526285E+01</totfact>
</mgrwt>
</event>
<event>
 6    1  0.1412458E-005  0.1161415E+04  0.7818608E-02  0.9335192E-01
         21   -1    0    0  501  502  0.00000000000E+00  0.00000000000E+00  0.42671536047E+03  0.42671536047E+03  0.00000000000E+00 0. -1.
          4   -1    0    0  502    0 -0.00000000000E+00 -0.00000000000E+00 -0.18779269767E+04  0.18779269767E+04  0.00000000000E+00 0.  1.
    9000010    2    1    2  501    0  0.55781457107E+03  0.15655895881E+03 -0.70032102373E+03  0.13562202284E+04  0.10065862946E+04 0.  0.
        -13    1    3    3    0    0  0.17935205210E+03  0.53929350830E+03 -0.56461399138E+03  0.80112022638E+03  0.10566000000E+00 0.  1.
          4    1    3    3  501    0  0.37846251897E+03 -0.38273454949E+03 -0.13570703235E+03  0.55510000204E+03  0.00000000000E+00 0.  1.
         13    1    1    2    0    0 -0.55781457107E+03 -0.15655895881E+03 -0.75089059249E+03  0.94842210874E+03  0.10566000000E+00 0. -1.
<mgrwt>
<rscale>  1 0.97606595E+03</rscale>
<asrwt>0</asrwt>
<pdfrwt beam="1">  1       21 0.65648518E-01 0.11614146E+04</pdfrwt>
<pdfrwt beam="2">  1        4 0.28891184E+00 0.11614146E+04</pdfrwt>
<totfact> 0.29323713E+00</totfact>
</mgrwt>
</event>
<event>
 6    1  0.1412458E-005  0.1086326E+04  0.7818608E-02  0.9640303E-01
          4   -1    0    0  502    0 -0.00000000000E+00  0.00000000000E+00  0.94326587696E+03  0.94326587696E+03  0.00000000000E+00 0.  1.
         21   -1    0    0  501  502  0.00000000000E+00 -0.00000000000E+00 -0.67009422371E+03  0.67009422371E+03  0.00000000000E+00 0.  1.
    9000010    2    1    2  501    0 -0.20138321871E+03  0.13544080372E+03 -0.17823362348E+03  0.11008504450E+04  0.10588697114E+04 0.  0.
        -13    1    3    3    0    0  0.41673994979E+03  0.20059379932E+03 -0.11131419003E+03  0.47571096071E+03  0.10566000000E+00 0.  1.
          4    1    3    3  501    0 -0.61812316851E+03 -0.65152995606E+02 -0.66919433451E+02  0.62513948432E+03  0.00000000000E+00 0.  1.
         13    1    1    2    0    0  0.20138321871E+03 -0.13544080372E+03  0.45140527673E+03  0.51250965563E+03  0.10566000000E+00 0. -1.
<mgrwt>
<rscale>  1 0.74685115E+03</rscale>
<asrwt>0</asrwt>
<pdfrwt beam="2">  1       21 0.10309142E+00 0.10863261E+04</pdfrwt>
<pdfrwt beam="1">  1        4 0.14511783E+00 0.10863261E+04</pdfrwt>
<totfact> 0.91217370E+00</totfact>
</mgrwt>
</event>
<event>
 6    1  0.1412458E-005  0.1023998E+04  0.7818608E-02  0.9735253E-01
          4   -1    0    0  502    0 -0.00000000000E+00  0.00000000000E+00  0.71488734137E+03  0.71488734137E+03  0.00000000000E+00 0.  1.
         21   -1    0    0  501  502  0.00000000000E+00 -0.00000000000E+00 -0.67949649688E+03  0.67949649688E+03  0.00000000000E+00 0.  1.
    9000010    2    1    2  501    0 -0.10896018670E+03  0.18018560461E+03 -0.23604226698E+03  0.10508505508E+04  0.10021136433E+04 0.  0.
        -13    1    3    3    0    0 -0.42599241896E+03 -0.36355723272E+02 -0.44218960230E+03  0.61507961693E+03  0.10566000000E+00 0.  1.
          4    1    3    3  501    0  0.31703223226E+03  0.21654132788E+03  0.20614733532E+03  0.43577093390E+03  0.00000000000E+00 0.  1.
         13    1    1    2    0    0  0.10896018670E+03 -0.18018560461E+03  0.27143311147E+03  0.34353328741E+03  0.10566000000E+00 0. -1.
<mgrwt>
<rscale>  1 0.68956093E+03</rscale>
<asrwt>0</asrwt>
<pdfrwt beam="2">  1       21 0.10453792E+00 0.10239975E+04</pdfrwt>
<pdfrwt beam="1">  1        4 0.10998267E+00 0.10239975E+04</pdfrwt>
<totfact> 0.18000812E+01</totfact>
</mgrwt>
</event>
<event>
 6    1  0.1412458E-005  0.9970791E+03  0.7818608E-02  0.9624905E-01
         21   -1    0    0  501  502  0.00000000000E+00  0.00000000000E+00  0.29947256873E+03  0.29947256873E+03  0.00000000000E+00 0.  1.
          4   -1    0    0  502    0 -0.00000000000E+00 -0.00000000000E+00 -0.14772154723E+04  0.14772154723E+04  0.00000000000E+00 0.  1.
    9000010    2    1    2  501    0  0.20167299984E+03  0.26214692204E+03 -0.92962706215E+03  0.13632216101E+04  0.94062408853E+03 0.  0.
        -13    1    3    3    0    0 -0.25530127961E+03  0.41342771308E+03 -0.30143735685E+03  0.57180915399E+03  0.10566000000E+00 0.  1.
          4    1    3    3  501    0  0.45697427945E+03 -0.15128079104E+03 -0.62818970530E+03  0.79141245610E+03  0.00000000000E+00 0.  1.
         13    1    1    2    0    0 -0.20167299984E+03 -0.26214692204E+03 -0.24811584142E+03  0.41346643095E+03  0.10566000000E+00 0. -1.
<mgrwt>
<rscale>  1 0.75669516E+03</rscale>
<asrwt>0</asrwt>
<pdfrwt beam="1">  1       21 0.46072702E-01 0.99707908E+03</pdfrwt>
<pdfrwt beam="2">  1        4 0.22726392E+00 0.99707908E+03</pdfrwt>
<totfact> 0.15730156E+01</totfact>
</mgrwt>
</event>
<event>
 6    1  0.1412458E-005  0.7131261E+03  0.7818608E-02  0.1038109E+00
         21   -1    0    0  501  502  0.00000000000E+00  0.00000000000E+00  0.45849504713E+03  0.45849504713E+03  0.00000000000E+00 0.  1.
          4   -1    0    0  502    0 -0.00000000000E+00 -0.00000000000E+00 -0.40063341805E+03  0.40063341805E+03  0.00000000000E+00 0.  1.
    9000010    2    1    2  501    0 -0.61759075177E+02  0.55788869067E+02  0.15647261834E+03  0.73009079763E+03  0.70825299944E+03 0.  0.
        -13    1    3    3    0    0 -0.80354957332E+01 -0.28636639998E+02  0.43402853093E+03  0.43504643794E+03  0.10566000000E+00 0.  1.
          4    1    3    3  501    0 -0.53723579443E+02  0.84425509065E+02 -0.27755591259E+03  0.29504435969E+03  0.00000000000E+00 0.  1.
         13    1    1    2    0    0  0.61759075177E+02 -0.55788869067E+02 -0.98610989268E+02  0.12903766755E+03  0.10566000000E+00 0. -1.
<mgrwt>
<rscale>  1 0.41681153E+03</rscale>
<asrwt>0</asrwt>
<pdfrwt beam="1">  1       21 0.70537700E-01 0.71312614E+03</pdfrwt>
<pdfrwt beam="2">  1        4 0.61635910E-01 0.71312614E+03</pdfrwt>
<totfact> 0.18034946E+02</totfact>
</mgrwt>
</event>
<event>
 6    1  0.1412458E-005  0.1082958E+04  0.7818608E-02  0.9622930E-01
         21   -1    0    0  501  502  0.00000000000E+00  0.00000000000E+00  0.30320667918E+03  0.30320667918E+03  0.00000000000E+00 0.  1.
          4   -1    0    0  502    0 -0.00000000000E+00 -0.00000000000E+00 -0.14990946294E+04  0.14990946294E+04  0.00000000000E+00 0.  1.
    9000010    2    1    2  501    0 -0.19117618865E+03  0.17603698377E+03 -0.89675722121E+03  0.14060481585E+04  0.10513137283E+04 0.  0.
        -13    1    3    3    0    0  0.29305899843E+03  0.35283989564E+02  0.80845953546E+02  0.30604675436E+03  0.10566000000E+00 0.  1.
          4    1    3    3  501    0 -0.48423518708E+03  0.14075299421E+03 -0.97760317475E+03  0.11000014041E+04  0.00000000000E+00 0.  1.
         13    1    1    2    0    0  0.19117618865E+03 -0.17603698377E+03 -0.29913072901E+03  0.39625315009E+03  0.10566000000E+00 0. -1.
<mgrwt>
<rscale>  1 0.75796946E+03</rscale>
<asrwt>0</asrwt>
<pdfrwt beam="1">  1       21 0.46647180E-01 0.10829579E+04</pdfrwt>
<pdfrwt beam="2">  1        4 0.23062995E+00 0.10829579E+04</pdfrwt>
<totfact> 0.14453595E+01</totfact>
</mgrwt>
</event>
<event>
 6    1  0.1412458E-005  0.9864704E+03  0.7818608E-02  0.1003584E+00
         21   -1    0    0  501  502  0.00000000000E+00  0.00000000000E+00  0.73956785231E+03  0.73956785231E+03  0.00000000000E+00 0.  1.
          4   -1    0    0  502    0 -0.00000000000E+00 -0.00000000000E+00 -0.42809281861E+03  0.42809281861E+03  0.00000000000E+00 0.  1.
    9000010    2    1    2  501    0  0.44215305422E+02  0.77559626696E+02  0.37790611677E+03  0.10563790961E+04  0.98242214588E+03 0.  0.
        -13    1    3    3    0    0 -0.21525658050E+03 -0.35718033683E+03 -0.12240529731E+02  0.41720861712E+03  0.10566000000E+00 0.  1.
          4    1    3    3  501    0  0.25947188592E+03  0.43473996352E+03  0.39014664650E+03  0.63917047902E+03  0.00000000000E+00 0.  1.
         13    1    1    2    0    0 -0.44215305422E+02 -0.77559626696E+02 -0.66431083066E+02  0.11128157479E+03  0.10566000000E+00 0. -1.
<mgrwt>
<rscale>  1 0.54106411E+03</rscale>
<asrwt>0</asrwt>
<pdfrwt beam="1">  1       21 0.11377967E+00 0.98647036E+03</pdfrwt>
<pdfrwt beam="2">  1        4 0.65860434E-01 0.98647036E+03</pdfrwt>
<totfact> 0.48186435E+01</totfact>
</mgrwt>
</event>
<event>
 6    1  0.1412458E-005  0.9859339E+03  0.7818608E-02  0.1039935E+00
          4   -1    0    0  502    0 -0.00000000000E+00  0.00000000000E+00  0.38392475063E+03  0.38392475063E+03  0.00000000000E+00 0.  1.
         21   -1    0    0  501  502  0.00000000000E+00 -0.00000000000E+00 -0.84918677887E+03  0.84918677887E+03  0.00000000000E+00 0.  1.
    9000010    2    1    2  501    0  0.29752915069E+02 -0.25364734307E+01 -0.55993572781E+03  0.11338402335E+04  0.98548160115E+03 0.  0.
        -13    1    3    3    0    0  0.42120359664E+03  0.13117003871E+03 -0.56912277590E+03  0.72008249117E+03  0.10566000000E+00 0.  1.
          4    1    3    3  501    0 -0.39145068157E+03 -0.13370651214E+03  0.91870480903E+01  0.41375774234E+03  0.00000000000E+00 0.  1.
         13    1    1    2    0    0 -0.29752915069E+02  0.25364734307E+01  0.94673699575E+02  0.99271295991E+02  0.10566000000E+00 0. -1.
<mgrwt>
<rscale>  1 0.41130314E+03</rscale>
<asrwt>0</asrwt>
<pdfrwt beam="2">  1       21 0.13064412E+00 0.98593390E+03</pdfrwt>
<pdfrwt beam="1">  1        4 0.59065347E-01 0.98593390E+03</pdfrwt>
<totfact> 0.42675031E+01</totfact>
</mgrwt>
</event>
<event>
 6    1  0.1412458E-005  0.8405979E+03  0.7818608E-02  0.1005903E+00
          4   -1    0    0  502    0 -0.00000000000E+00  0.00000000000E+00  0.75156975509E+03  0.75156975509E+03  0.00000000000E+00 0.  1.
         21   -1    0    0  501  502  0.00000000000E+00 -0.00000000000E+00 -0.32418717189E+03  0.32418717189E+03  0.00000000000E+00 0.  1.
    9000010    2    1    2  501    0 -0.41344452626E+02  0.12768597470E+03  0.42405529045E+03  0.94150286209E+03  0.82981424311E+03 0.  0.
        -13    1    3    3    0    0  0.35000830067E+03 -0.90392054397E+02  0.64834403894E+02  0.36726018723E+03  0.10566000000E+00 0.  1.
          4    1    3    3  501    0 -0.39135275329E+03  0.21807802910E+03  0.35922088656E+03  0.57424267486E+03  0.00000000000E+00 0.  1.
         13    1    1    2    0    0  0.41344452626E+02 -0.12768597470E+03  0.33272927498E+01  0.13425406489E+03  0.10566000000E+00 0. -1.
<mgrwt>
<rscale>  1 0.53136111E+03</rscale>
<asrwt>0</asrwt>
<pdfrwt beam="2">  1       21 0.49874950E-01 0.84059785E+03</pdfrwt>
<pdfrwt beam="1">  1        4 0.11562612E+00 0.84059785E+03</pdfrwt>
<totfact> 0.89458643E+01</totfact>
</mgrwt>
</event>
<event>
 6    1  0.1412458E-005  0.1009351E+04  0.7818608E-02  0.9762747E-01
         21   -1    0    0  501  502  0.00000000000E+00  0.00000000000E+00  0.54956401173E+03  0.54956401173E+03  0.00000000000E+00 0.  1.
          4   -1    0    0  502    0 -0.00000000000E+00 -0.00000000000E+00 -0.67894621751E+03  0.67894621751E+03  0.00000000000E+00 0.  1.
    9000010    2    1    2  501    0 -0.17903819206E+03 -0.90678866474E+02 -0.43710096114E+02  0.10102969103E+04  0.98919762602E+03 0.  0.
        -13    1    3    3    0    0 -0.15394430921E+02  0.29821572023E+03  0.33115097061E+03  0.44590422828E+03  0.10566000000E+00 0.  1.
          4    1    3    3  501    0 -0.16364376114E+03 -0.38889458670E+03 -0.37486106672E+03  0.56439268198E+03  0.00000000000E+00 0.  1.
         13    1    1    2    0    0  0.17903819206E+03  0.90678866474E+02 -0.85672109673E+02  0.21821331898E+03  0.10566000000E+00 0. -1.
<mgrwt>
<rscale>  1 0.67400674E+03</rscale>
<asrwt>0</asrwt>
<pdfrwt beam="1">  1       21 0.84548310E-01 0.10093509E+04</pdfrwt>
<pdfrwt beam="2">  1        4 0.10445326E+00 0.10093509E+04</pdfrwt>
<totfact> 0.34349794E+01</totfact>
</mgrwt>
</event>
<event>
 6    1  0.1412458E-005  0.9938429E+03  0.7818608E-02  0.9917871E-01
         21   -1    0    0  501  502  0.00000000000E+00  0.00000000000E+00  0.32767882577E+03  0.32767882577E+03  0.00000000000E+00 0.  1.
          4   -1    0    0  502    0 -0.00000000000E+00 -0.00000000000E+00 -0.97309696377E+03  0.97309696377E+03  0.00000000000E+00 0.  1.
    9000010    2    1    2  501    0 -0.11203569804E+02  0.12635092251E+03 -0.62009193158E+03  0.11714254765E+04  0.98571474967E+03 0.  0.
        -13    1    3    3    0    0  0.42727751539E+03 -0.11416863003E+03 -0.10722049073E+03  0.45507888991E+03  0.10566000000E+00 0.  1.
          4    1    3    3  501    0 -0.43848108520E+03  0.24051955255E+03 -0.51287144086E+03  0.71634658656E+03  0.00000000000E+00 0.  1.
         13    1    1    2    0    0  0.11203569804E+02 -0.12635092251E+03 -0.25326206423E+02  0.12935031307E+03  0.10566000000E+00 0. -1.
<mgrwt>
<rscale>  1 0.59402968E+03</rscale>
<asrwt>0</asrwt>
<pdfrwt beam="1">  1       21 0.50412127E-01 0.99384287E+03</pdfrwt>
<pdfrwt beam="2">  1        4 0.14970723E+00 0.99384287E+03</pdfrwt>
<totfact> 0.44359336E+01</totfact>
</mgrwt>
</event>
<event>
 6    1  0.1412458E-005  0.1161238E+04  0.7818608E-02  0.9698263E-01
         21   -1    0    0  501  502  0.00000000000E+00  0.00000000000E+00  0.20386455419E+04  0.20386455419E+04  0.00000000000E+00 0.  1.
          4   -1    0    0  502    0 -0.00000000000E+00 -0.00000000000E+00 -0.40606529260E+03  0.40606529260E+03  0.00000000000E+00 0.  1.
    9000010    2    1    2  501    0 -0.16304838045E+03  0.10473491493E+02  0.18429860017E+04  0.21783181540E+04  0.11496860916E+04 0.  0.
        -13    1    3    3    0    0 -0.52382498842E+03  0.36785337725E+03  0.11887524701E+04  0.13501263541E+04  0.10566000000E+00 0.  1.
          4    1    3    3  501    0  0.36077660797E+03 -0.35737988575E+03  0.65423353156E+03  0.82819179989E+03  0.00000000000E+00 0.  1.
         13    1    1    2    0    0  0.16304838045E+03 -0.10473491493E+02 -0.21040575242E+03  0.26639268047E+03  0.10566000000E+00 0. -1.
<mgrwt>
<rscale>  1 0.71120283E+03</rscale>
<asrwt>0</asrwt>
<pdfrwt beam="1">  1       21 0.31363777E+00 0.11612375E+04</pdfrwt>
<pdfrwt beam="2">  1        4 0.62471585E-01 0.11612375E+04</pdfrwt>
<totfact> 0.20130509E+00</totfact>
</mgrwt>
</event>
<event>
 6    1  0.1412458E-005  0.9838104E+03  0.7818608E-02  0.9917158E-01
         21   -1    0    0  501  502  0.00000000000E+00  0.00000000000E+00  0.69778809167E+03  0.69778809167E+03  0.00000000000E+00 0.  1.
          4   -1    0    0  502    0 -0.00000000000E+00 -0.00000000000E+00 -0.44550700762E+03  0.44550700762E+03  0.00000000000E+00 0.  1.
    9000010    2    1    2  501    0 -0.80147055971E+02  0.10370497197E+03  0.23017650118E+03  0.10103782247E+04  0.97504085223E+03 0.  0.
        -13    1    3    3    0    0 -0.17248138269E+03  0.21575854372E+03 -0.33077227366E+03  0.43094301798E+03  0.10566000000E+00 0.  1.
          4    1    3    3  501    0  0.92334326717E+02 -0.11205357174E+03  0.56094877484E+03  0.57943520675E+03  0.00000000000E+00 0.  1.
         13    1    1    2    0    0  0.80147055971E+02 -0.10370497197E+03  0.22104582865E+02  0.13291687455E+03  0.10566000000E+00 0. -1.
<mgrwt>
<rscale>  1 0.59436884E+03</rscale>
<asrwt>0</asrwt>
<pdfrwt beam="1">  1       21 0.10735201E+00 0.98381042E+03</pdfrwt>
<pdfrwt beam="2">  1        4 0.68539540E-01 0.98381042E+03</pdfrwt>
<totfact> 0.51116553E+01</totfact>
</mgrwt>
</event>
<event>
 6    1  0.1412458E-005  0.1018803E+04  0.7818608E-02  0.9537480E-01
         21   -1    0    0  501  502  0.00000000000E+00  0.00000000000E+00  0.92937401024E+03  0.92937401024E+03  0.00000000000E+00 0.  1.
          4   -1    0    0  502    0 -0.00000000000E+00 -0.00000000000E+00 -0.74800305892E+03  0.74800305892E+03  0.00000000000E+00 0.  1.
    9000010    2    1    2  501    0  0.22097206384E+03  0.35572928352E+03  0.51535413076E+03  0.11417309626E+04  0.92875601464E+03 0.  0.
        -13    1    3    3    0    0  0.44857231808E+03  0.57943810029E+02 -0.58763392455E+02  0.45610059979E+03  0.10566000000E+00 0.  1.
          4    1    3    3  501    0 -0.22760025424E+03  0.29778547350E+03  0.57411752321E+03  0.68563036282E+03  0.00000000000E+00 0.  1.
         13    1    1    2    0    0 -0.22097206384E+03 -0.35572928352E+03 -0.33398317944E+03  0.53564610655E+03  0.10566000000E+00 0. -1.
<mgrwt>
<rscale>  1 0.81576058E+03</rscale>
<asrwt>0</asrwt>
<pdfrwt beam="1">  1       21 0.14298062E+00 0.10188031E+04</pdfrwt>
<pdfrwt beam="2">  1        4 0.11507739E+00 0.10188031E+04</pdfrwt>
<totfact> 0.71019414E+00</totfact>
</mgrwt>
</event>
<event>
 6    1  0.1412458E-005  0.1080181E+04  0.7818608E-02  0.9460806E-01
         21   -1    0    0  501  502  0.00000000000E+00  0.00000000000E+00  0.67130068100E+03  0.67130068100E+03  0.00000000000E+00 0.  1.
          4   -1    0    0  502    0 -0.00000000000E+00 -0.00000000000E+00 -0.10313929986E+04  0.10313929986E+04  0.00000000000E+00 0.  1.
    9000010    2    1    2  501    0 -0.74720506368E+02  0.45339498247E+03  0.57596207740E+02  0.10817155161E+04  0.97756890826E+03 0.  0.
        -13    1    3    3    0    0 -0.17691487407E+03  0.49583228589E+03 -0.36777358944E+03  0.64218840900E+03  0.10566000000E+00 0.  1.
          4    1    3    3  501    0  0.10219436770E+03 -0.42437303420E+02  0.42536979718E+03  0.43952710709E+03  0.00000000000E+00 0.  1.
         13    1    1    2    0    0  0.74720506368E+02 -0.45339498247E+03 -0.41768852535E+03  0.62097816352E+03  0.10566000000E+00 0. -1.
<mgrwt>
<rscale>  1 0.87236122E+03</rscale>
<asrwt>0</asrwt>
<pdfrwt beam="1">  1       21 0.10327703E+00 0.10801811E+04</pdfrwt>
<pdfrwt beam="2">  1        4 0.15867585E+00 0.10801811E+04</pdfrwt>
<totfact> 0.71380371E+00</totfact>
</mgrwt>
</event>
<event>
 6    1  0.1412458E-005  0.1198987E+04  0.7818608E-02  0.9274486E-01
         21   -1    0    0  501  502  0.00000000000E+00  0.00000000000E+00  0.87387229941E+03  0.87387229941E+03  0.00000000000E+00 0. -1.
          4   -1    0    0  502    0 -0.00000000000E+00 -0.00000000000E+00 -0.10368724753E+04  0.10368724753E+04  0.00000000000E+00 0.  1.
    9000010    2    1    2  501    0  0.14177547745E+03 -0.64173624837E+03 -0.30759889563E+03  0.12378149869E+04  0.10028176119E+04 0.  0.
        -13    1    3    3    0    0 -0.32124423959E+03  0.61215121580E+02  0.35271138189E+02  0.32892129291E+03  0.10566000000E+00 0.  1.
          4    1    3    3  501    0  0.46301971704E+03 -0.70295136995E+03 -0.34287003382E+03  0.90889369399E+03  0.00000000000E+00 0.  1.
         13    1    1    2    0    0 -0.14177547745E+03  0.64173624837E+03  0.14459871970E+03  0.67292978786E+03  0.10566000000E+00 0. -1.
<mgrwt>
<rscale>  1 0.10316608E+04</rscale>
<asrwt>0</asrwt>
<pdfrwt beam="1">  1       21 0.13444189E+00 0.11989866E+04</pdfrwt>
<pdfrwt beam="2">  1        4 0.15951884E+00 0.11989866E+04</pdfrwt>
<totfact> 0.35026858E+00</totfact>
</mgrwt>
</event>
<event>
 6    1  0.1412458E-005  0.1016369E+04  0.7818608E-02  0.9757061E-01
         21   -1    0    0  501  502  0.00000000000E+00  0.00000000000E+00  0.21929537723E+03  0.21929537723E+03  0.00000000000E+00 0.  1.
          4   -1    0    0  502    0 -0.00000000000E+00 -0.00000000000E+00 -0.17120239710E+04  0.17120239710E+04  0.00000000000E+00 0.  1.
    9000010    2    1    2  501    0 -0.13194736426E+03 -0.15069771460E+03 -0.11536799837E+04  0.15375251390E+04  0.99643672152E+03 0.  0.
        -13    1    3    3    0    0  0.33327785407E+03 -0.31225123127E+03 -0.28316949259E+03  0.53736387312E+03  0.10566000000E+00 0.  1.
          4    1    3    3  501    0 -0.46522521833E+03  0.16155351667E+03 -0.87051049114E+03  0.10001612658E+04  0.00000000000E+00 0.  1.
         13    1    1    2    0    0  0.13194736426E+03  0.15069771460E+03 -0.33904861008E+03  0.39379420931E+03  0.10566000000E+00 0. -1.
<mgrwt>
<rscale>  1 0.67718695E+03</rscale>
<asrwt>0</asrwt>
<pdfrwt beam="1">  1       21 0.33737751E-01 0.10163691E+04</pdfrwt>
<pdfrwt beam="2">  1        4 0.26338829E+00 0.10163691E+04</pdfrwt>
<totfact> 0.17946582E+01</totfact>
</mgrwt>
</event>
<event>
 6    1  0.1412458E-005  0.1190631E+04  0.7818608E-02  0.9283100E-01
          4   -1    0    0  502    0 -0.00000000000E+00  0.00000000000E+00  0.28730431839E+04  0.28730431839E+04  0.00000000000E+00 0.  1.
         21   -1    0    0  501  502  0.00000000000E+00 -0.00000000000E+00 -0.29580914408E+03  0.29580914408E+03  0.00000000000E+00 0. -1.
    9000010    2    1    2  501    0  0.14515653375E+03  0.63384536208E+03  0.15809758302E+04  0.19791629594E+04  0.99738211427E+03 0.  0.
        -13    1    3    3    0    0  0.40062706890E+03  0.37807040852E+03  0.25910000935E+03  0.60874634138E+03  0.10566000000E+00 0.  1.
          4    1    3    3  501    0 -0.25547053515E+03  0.25577495355E+03  0.13218758208E+04  0.13704166180E+04  0.00000000000E+00 0.  1.
         13    1    1    2    0    0 -0.14515653375E+03 -0.63384536208E+03  0.99625820967E+03  0.11896893686E+04  0.10566000000E+00 0. -1.
<mgrwt>
<rscale>  1 0.10235371E+04</rscale>
<asrwt>0</asrwt>
<pdfrwt beam="2">  1       21 0.45509101E-01 0.11906307E+04</pdfrwt>
<pdfrwt beam="1">  1        4 0.44200663E+00 0.11906307E+04</pdfrwt>
<totfact> 0.62170043E-01</totfact>
</mgrwt>
</event>
<event>
 6    1  0.1412458E-005  0.1041041E+04  0.7818608E-02  0.9619426E-01
         21   -1    0    0  501  502  0.00000000000E+00  0.00000000000E+00  0.51910388329E+03  0.51910388329E+03  0.00000000000E+00 0.  1.
          4   -1    0    0  502    0 -0.00000000000E+00 -0.00000000000E+00 -0.11095979415E+04  0.11095979415E+04  0.00000000000E+00 0.  1.
    9000010    2    1    2  501    0  0.78827195411E+01  0.29596355782E+03 -0.87076132028E+02  0.10446759826E+04  0.99805264939E+03 0.  0.
        -13    1    3    3    0    0 -0.13383718625E+03  0.62683394596E+03 -0.19314094935E+03  0.66943007529E+03  0.10566000000E+00 0.  1.
          4    1    3    3  501    0  0.14171990579E+03 -0.33087038814E+03  0.10606481733E+03  0.37524590727E+03  0.00000000000E+00 0.  1.
         13    1    1    2    0    0 -0.78827195411E+01 -0.29596355782E+03 -0.50341792616E+03  0.58402584221E+03  0.10566000000E+00 0. -1.
<mgrwt>
<rscale>  1 0.76023670E+03</rscale>
<asrwt>0</asrwt>
<pdfrwt beam="1">  1       21 0.79862137E-01 0.10410407E+04</pdfrwt>
<pdfrwt beam="2">  1        4 0.17070737E+00 0.10410407E+04</pdfrwt>
<totfact> 0.10908819E+01</totfact>
</mgrwt>
</event>
<event>
 6    1  0.1412458E-005  0.1035619E+04  0.7818608E-02  0.9550035E-01
          4   -1    0    0  502    0 -0.00000000000E+00  0.00000000000E+00  0.15873754818E+04  0.15873754818E+04  0.00000000000E+00 0.  1.
         21   -1    0    0  501  502  0.00000000000E+00 -0.00000000000E+00 -0.31644491281E+03  0.31644491281E+03  0.00000000000E+00 0. -1.
    9000010    2    1    2  501    0  0.17835590952E+03 -0.33749536816E+03  0.91660643296E+03  0.13829945518E+04  0.96270069253E+03 0.  0.
        -13    1    3    3    0    0  0.93362223134E+01  0.32978828310E+03  0.42056421210E+03  0.53452946072E+03  0.10566000000E+00 0.  1.
          4    1    3    3  501    0  0.16901968720E+03 -0.66728365127E+03  0.49604222087E+03  0.84846509109E+03  0.00000000000E+00 0.  1.
         13    1    1    2    0    0 -0.17835590952E+03  0.33749536816E+03  0.35432413603E+03  0.52082584280E+03  0.10566000000E+00 0. -1.
<mgrwt>
<rscale>  1 0.80693329E+03</rscale>
<asrwt>0</asrwt>
<pdfrwt beam="2">  1       21 0.48683834E-01 0.10356189E+04</pdfrwt>
<pdfrwt beam="1">  1        4 0.24421161E+00 0.10356189E+04</pdfrwt>
<totfact> 0.10897102E+01</totfact>
</mgrwt>
</event>
<event>
 6    1  0.1412458E-005  0.1048864E+04  0.7818608E-02  0.9649323E-01
          4   -1    0    0  502    0 -0.00000000000E+00  0.00000000000E+00  0.11285780943E+04  0.11285780943E+04  0.00000000000E+00 0.  1.
         21   -1    0    0  501  502  0.00000000000E+00 -0.00000000000E+00 -0.38899182534E+03  0.38899182534E+03  0.00000000000E+00 0.  1.
    9000010    2    1    2  501    0  0.23114206287E+03 -0.12231408690E+03  0.49616175206E+03  0.11602984603E+04  0.10157404411E+04 0.  0.
        -13    1    3    3    0    0  0.30507034519E+03 -0.42348293340E+03 -0.58132704375E+02  0.52515248536E+03  0.10566000000E+00 0.  1.
          4    1    3    3  501    0 -0.73928282323E+02  0.30116884650E+03  0.55429445644E+03  0.63514597492E+03  0.00000000000E+00 0.  1.
         13    1    1    2    0    0 -0.23114206287E+03  0.12231408690E+03  0.24342451693E+03  0.35727145938E+03  0.10566000000E+00 0. -1.
<mgrwt>
<rscale>  1 0.74115910E+03</rscale>
<asrwt>0</asrwt>
<pdfrwt beam="2">  1       21 0.59844896E-01 0.10488642E+04</pdfrwt>
<pdfrwt beam="1">  1        4 0.17362740E+00 0.10488642E+04</pdfrwt>
<totfact> 0.20112926E+01</totfact>
</mgrwt>
</event>
<event>
 6    1  0.1412458E-005  0.1056153E+04  0.7818608E-02  0.9643718E-01
          4   -1    0    0  502    0 -0.00000000000E+00  0.00000000000E+00  0.37580722483E+03  0.37580722483E+03  0.00000000000E+00 0.  1.
         21   -1    0    0  501  502  0.00000000000E+00 -0.00000000000E+00 -0.12598543631E+04  0.12598543631E+04  0.00000000000E+00 0.  1.
    9000010    2    1    2  501    0  0.80606403938E+02 -0.24829221267E+03 -0.87977570539E+03  0.13745779394E+04  0.10233830195E+04 0.  0.
        -13    1    3    3    0    0  0.19911351898E+03 -0.72519108756E+02  0.18962736978E+03  0.28436554838E+03  0.10566000000E+00 0.  1.
          4    1    3    3  501    0 -0.11850711504E+03 -0.17577310392E+03 -0.10694030752E+04  0.10902123910E+04  0.00000000000E+00 0.  1.
         13    1    1    2    0    0 -0.80606403938E+02  0.24829221267E+03 -0.42714328947E+01  0.26108364854E+03  0.10566000000E+00 0. -1.
<mgrwt>
<rscale>  1 0.74469000E+03</rscale>
<asrwt>0</asrwt>
<pdfrwt beam="2">  1       21 0.19382375E+00 0.10561530E+04</pdfrwt>
<pdfrwt beam="1">  1        4 0.57816497E-01 0.10561530E+04</pdfrwt>
<totfact> 0.14325337E+01</totfact>
</mgrwt>
</event>
<event>
 6    1  0.1412458E-005  0.1038818E+04  0.7818608E-02  0.9730825E-01
         21   -1    0    0  501  502  0.00000000000E+00  0.00000000000E+00  0.20388251230E+04  0.20388251230E+04  0.00000000000E+00 0.  1.
          4   -1    0    0  502    0 -0.00000000000E+00 -0.00000000000E+00 -0.30157478439E+03  0.30157478439E+03  0.00000000000E+00 0.  1.
    9000010    2    1    2  501    0 -0.20400702141E+03  0.16586469743E+02  0.18387724196E+04  0.21119251388E+04  0.10184546161E+04 0.  0.
        -13    1    3    3    0    0 -0.37093956464E+03 -0.22734255155E+02  0.18952662983E+04  0.19313589412E+04  0.10566000000E+00 0.  1.
          4    1    3    3  501    0  0.16693254322E+03  0.39320724898E+02 -0.56493878726E+02  0.18056619763E+03  0.00000000000E+00 0.  1.
         13    1    1    2    0    0  0.20400702141E+03 -0.16586469743E+02 -0.10152208101E+03  0.22847476854E+03  0.10566000000E+00 0. -1.
<mgrwt>
<rscale>  1 0.69210774E+03</rscale>
<asrwt>0</asrwt>
<pdfrwt beam="1">  1       21 0.31366540E+00 0.10388185E+04</pdfrwt>
<pdfrwt beam="2">  1        4 0.46396122E-01 0.10388185E+04</pdfrwt>
<totfact> 0.38854025E+00</totfact>
</mgrwt>
</event>
<event>
 6    1  0.1412458E-005  0.1034677E+04  0.7818608E-02  0.9762332E-01
          4   -1    0    0  502    0 -0.00000000000E+00  0.00000000000E+00  0.83770145339E+03  0.83770145339E+03  0.00000000000E+00 0.  1.
         21   -1    0    0  501  502  0.00000000000E+00 -0.00000000000E+00 -0.69869779075E+03  0.69869779075E+03  0.00000000000E+00 0.  1.
    9000010    2    1    2  501    0  0.12676227047E+02  0.18613760089E+03 -0.28496060819E+03  0.10731999271E+04  0.10177168772E+04 0.  0.
        -13    1    3    3    0    0 -0.85803161893E+02 -0.26779677093E+03  0.24181828413E+03  0.37088190414E+03  0.10566000000E+00 0.  1.
          4    1    3    3  501    0  0.98479388941E+02  0.45393437183E+03 -0.52677889233E+03  0.70231802296E+03  0.00000000000E+00 0.  1.
         13    1    1    2    0    0 -0.12676227047E+02 -0.18613760089E+03  0.42396427083E+03  0.46319931704E+03  0.10566000000E+00 0. -1.
<mgrwt>
<rscale>  1 0.67423794E+03</rscale>
<asrwt>0</asrwt>
<pdfrwt beam="2">  1       21 0.10749197E+00 0.10346765E+04</pdfrwt>
<pdfrwt beam="1">  1        4 0.12887715E+00 0.10346765E+04</pdfrwt>
<totfact> 0.11256595E+01</totfact>
</mgrwt>
</event>
<event>
 6    1  0.1412458E-005  0.1082368E+04  0.7818608E-02  0.9439182E-01
          4   -1    0    0  502    0 -0.00000000000E+00  0.00000000000E+00  0.55335391170E+03  0.55335391170E+03  0.00000000000E+00 0.  1.
         21   -1    0    0  501  502  0.00000000000E+00 -0.00000000000E+00 -0.11311751021E+04  0.11311751021E+04  0.00000000000E+00 0. -1.
    9000010    2    1    2  501    0  0.89864223651E+02  0.48477378583E+03 -0.46910682992E+03  0.11796527661E+04  0.96355499513E+03 0.  0.
        -13    1    3    3    0    0  0.16837340554E+03 -0.57788131181E+01 -0.63415985010E+03  0.65615678386E+03  0.10566000000E+00 0.  1.
          4    1    3    3  501    0 -0.78509181884E+02  0.49055259895E+03  0.16505302018E+03  0.52349598226E+03  0.00000000000E+00 0.  1.
         13    1    1    2    0    0 -0.89864223651E+02 -0.48477378583E+03 -0.10871436048E+03  0.50487624767E+03  0.10566000000E+00 0. -1.
<mgrwt>
<rscale>  1 0.88920109E+03</rscale>
<asrwt>0</asrwt>
<pdfrwt beam="2">  1       21 0.17402694E+00 0.10823675E+04</pdfrwt>
<pdfrwt beam="1">  1        4 0.85131372E-01 0.10823675E+04</pdfrwt>
<totfact> 0.83178724E+00</totfact>
</mgrwt>
</event>
<event>
 6    1  0.1412458E-005  0.1008082E+04  0.7818608E-02  0.9828779E-01
          4   -1    0    0  502    0 -0.00000000000E+00  0.00000000000E+00  0.80136848108E+03  0.80136848108E+03  0.00000000000E+00 0.  1.
         21   -1    0    0  501  502  0.00000000000E+00 -0.00000000000E+00 -0.43459525395E+03  0.43459525395E+03  0.00000000000E+00 0.  1.
    9000010    2    1    2  501    0  0.98732695032E+02 -0.12861855023E+03  0.36985864178E+03  0.10737897313E+04  0.99495632852E+03 0.  0.
        -13    1    3    3    0    0  0.32467392369E+03 -0.48624034042E+03  0.19979081428E+03  0.61786665714E+03  0.10566000000E+00 0.  1.
          4    1    3    3  501    0 -0.22594122865E+03  0.35762179018E+03  0.17006782749E+03  0.45592307418E+03  0.00000000000E+00 0.  1.
         13    1    1    2    0    0 -0.98732695032E+02  0.12861855023E+03 -0.30854146533E+01  0.16217400371E+03  0.10566000000E+00 0. -1.
<mgrwt>
<rscale>  1 0.63840687E+03</rscale>
<asrwt>0</asrwt>
<pdfrwt beam="2">  1       21 0.66860809E-01 0.10080818E+04</pdfrwt>
<pdfrwt beam="1">  1        4 0.12328746E+00 0.10080818E+04</pdfrwt>
<totfact> 0.39291901E+01</totfact>
</mgrwt>
</event>
<event>
 6    1  0.1412458E-005  0.1043172E+04  0.7818608E-02  0.9620067E-01
         21   -1    0    0  501  502  0.00000000000E+00  0.00000000000E+00  0.66652652935E+03  0.66652652935E+03  0.00000000000E+00 0.  1.
          4   -1    0    0  502    0 -0.00000000000E+00 -0.00000000000E+00 -0.71883705289E+03  0.71883705289E+03  0.00000000000E+00 0.  1.
    9000010    2    1    2  501    0 -0.29229657171E+03  0.27799292393E+02  0.11155026781E+03  0.10491189442E+04  0.10009980072E+04 0.  0.
        -13    1    3    3    0    0  0.51905618294E+02 -0.42058858052E+03 -0.11662849465E+03  0.43953516833E+03  0.10566000000E+00 0.  1.
          4    1    3    3  501    0 -0.34420219001E+03  0.44838787291E+03  0.22817876246E+03  0.60958377588E+03  0.00000000000E+00 0.  1.
         13    1    1    2    0    0  0.29229657171E+03 -0.27799292393E+02 -0.16386079135E+03  0.33624463802E+03  0.10566000000E+00 0. -1.
<mgrwt>
<rscale>  1 0.75982154E+03</rscale>
<asrwt>0</asrwt>
<pdfrwt beam="1">  1       21 0.10254254E+00 0.10431717E+04</pdfrwt>
<pdfrwt beam="2">  1        4 0.11059032E+00 0.10431717E+04</pdfrwt>
<totfact> 0.18601890E+01</totfact>
</mgrwt>
</event>
<event>
 6    1  0.1412458E-005  0.9757783E+03  0.7818608E-02  0.9591681E-01
          4   -1    0    0  502    0 -0.00000000000E+00  0.00000000000E+00  0.53945166428E+03  0.53945166428E+03  0.00000000000E+00 0.  1.
         21   -1    0    0  501  502  0.00000000000E+00 -0.00000000000E+00 -0.10922851832E+04  0.10922851832E+04  0.00000000000E+00 0.  1.
    9000010    2    1    2  501    0 -0.22574732170E+03  0.32454109643E+03 -0.70953877290E+03  0.12064777215E+04  0.89210674562E+03 0.  0.
        -13    1    3    3    0    0  0.11542579756E+03 -0.42270036721E+02 -0.69450950318E+03  0.70530371609E+03  0.10566000000E+00 0.  1.
          4    1    3    3  501    0 -0.34117311926E+03  0.36681113315E+03 -0.15029269720E+02  0.50117400537E+03  0.00000000000E+00 0.  1.
         13    1    1    2    0    0  0.22574732170E+03 -0.32454109643E+03  0.15670525394E+03  0.42525912607E+03  0.10566000000E+00 0. -1.
<mgrwt>
<rscale>  1 0.77849232E+03</rscale>
<asrwt>0</asrwt>
<pdfrwt beam="2">  1       21 0.16804387E+00 0.97577826E+03</pdfrwt>
<pdfrwt beam="1">  1        4 0.82992564E-01 0.97577826E+03</pdfrwt>
<totfact> 0.99091007E+00</totfact>
</mgrwt>
</event>
<event>
 6    1  0.1412458E-005  0.1004805E+04  0.7818608E-02  0.9798443E-01
          4   -1    0    0  502    0 -0.00000000000E+00  0.00000000000E+00  0.82818948022E+03  0.82818948022E+03  0.00000000000E+00 0.  1.
         21   -1    0    0  501  502  0.00000000000E+00 -0.00000000000E+00 -0.57336501453E+03  0.57336501453E+03  0.00000000000E+00 0.  1.
    9000010    2    1    2  501    0  0.10809341144E+03 -0.14497734602E+03 -0.93437510126E+02  0.10091401329E+04  0.98839800839E+03 0.  0.
        -13    1    3    3    0    0 -0.82723250237E+02  0.17164146446E+02 -0.51333927322E+03  0.52024510055E+03  0.10566000000E+00 0.  1.
          4    1    3    3  501    0  0.19081666168E+03 -0.16214149247E+03  0.41990176310E+03  0.48889503230E+03  0.00000000000E+00 0.  1.
         13    1    1    2    0    0 -0.10809341144E+03  0.14497734602E+03  0.34826197581E+03  0.39241436189E+03  0.10566000000E+00 0. -1.
<mgrwt>
<rscale>  1 0.65446164E+03</rscale>
<asrwt>0</asrwt>
<pdfrwt beam="2">  1       21 0.88210002E-01 0.10048051E+04</pdfrwt>
<pdfrwt beam="1">  1        4 0.12741377E+00 0.10048051E+04</pdfrwt>
<totfact> 0.18923285E+01</totfact>
</mgrwt>
</event>
<event>
 6    1  0.1412458E-005  0.1041229E+04  0.7818608E-02  0.9558802E-01
          4   -1    0    0  502    0 -0.00000000000E+00  0.00000000000E+00  0.59777742449E+03  0.59777742449E+03  0.00000000000E+00 0.  1.
         21   -1    0    0  501  502  0.00000000000E+00 -0.00000000000E+00 -0.90218635888E+03  0.90218635888E+03  0.00000000000E+00 0.  1.
    9000010    2    1    2  501    0 -0.12015002525E+03  0.34399226739E+03 -0.41240146643E+03  0.11199254870E+04  0.97539295580E+03 0.  0.
        -13    1    3    3    0    0 -0.14439258850E+03 -0.33339498761E+03 -0.15087102243E+03  0.39339994147E+03  0.10566000000E+00 0.  1.
          4    1    3    3  501    0  0.24242563247E+02  0.67738725500E+03 -0.26153044400E+03  0.72652554549E+03  0.00000000000E+00 0.  1.
         13    1    1    2    0    0  0.12015002525E+03 -0.34399226739E+03  0.10799253205E+03  0.38003829641E+03  0.10566000000E+00 0. -1.
<mgrwt>
<rscale>  1 0.80084024E+03</rscale>
<asrwt>0</asrwt>
<pdfrwt beam="2">  1       21 0.13879790E+00 0.10412291E+04</pdfrwt>
<pdfrwt beam="1">  1        4 0.91965758E-01 0.10412291E+04</pdfrwt>
<totfact> 0.13238056E+01</totfact>
</mgrwt>
</event>
<event>
 6    1  0.1412458E-005  0.1006460E+04  0.7818608E-02  0.9806335E-01
          4   -1    0    0  502    0 -0.00000000000E+00  0.00000000000E+00  0.76622777348E+03  0.76622777348E+03  0.00000000000E+00 0.  1.
         21   -1    0    0  501  502  0.00000000000E+00 -0.00000000000E+00 -0.65769999310E+03  0.65769999310E+03  0.00000000000E+00 0.  1.
    9000010    2    1    2  501    0  0.17446141583E+03  0.17597444481E+02 -0.23919728915E+03  0.10344933166E+04  0.99106741615E+03 0.  0.
        -13    1    3    3    0    0 -0.36337002963E+03 -0.17813602241E+03  0.22181785870E+02  0.40529281230E+03  0.10566000000E+00 0.  1.
          4    1    3    3  501    0  0.53783144546E+03  0.19573346689E+03 -0.26137907502E+03  0.62920050433E+03  0.00000000000E+00 0.  1.
         13    1    1    2    0    0 -0.17446141583E+03 -0.17597444481E+02  0.34772506953E+03  0.38943444995E+03  0.10566000000E+00 0. -1.
<mgrwt>
<rscale>  1 0.65023701E+03</rscale>
<asrwt>0</asrwt>
<pdfrwt beam="2">  1       21 0.10118461E+00 0.10064597E+04</pdfrwt>
<pdfrwt beam="1">  1        4 0.11788120E+00 0.10064597E+04</pdfrwt>
<totfact> 0.16478802E+01</totfact>
</mgrwt>
</event>
<event>
 6    1  0.1412458E-005  0.1028867E+04  0.7818608E-02  0.9747931E-01
         21   -1    0    0  501  502  0.00000000000E+00  0.00000000000E+00  0.61310913583E+03  0.61310913583E+03  0.00000000000E+00 0.  1.
          4   -1    0    0  502    0 -0.00000000000E+00 -0.00000000000E+00 -0.71733410641E+03  0.71733410641E+03  0.00000000000E+00 0.  1.
    9000010    2    1    2  501    0 -0.95645135905E+02 -0.17453667696E+03  0.11391457988E+03  0.10351536924E+04  0.10094333022E+04 0.  0.
        -13    1    3    3    0    0  0.41579425179E+03  0.12380804021E+03  0.96306469909E+01  0.43394245144E+03  0.10566000000E+00 0.  1.
          4    1    3    3  501    0 -0.51143938769E+03 -0.29834471717E+03  0.10428393289E+03  0.60121124092E+03  0.00000000000E+00 0.  1.
         13    1    1    2    0    0  0.95645135905E+02  0.17453667696E+03 -0.21813955046E+03  0.29528954988E+03  0.10566000000E+00 0. -1.
<mgrwt>
<rscale>  1 0.68233300E+03</rscale>
<asrwt>0</asrwt>
<pdfrwt beam="1">  1       21 0.94324483E-01 0.10288667E+04</pdfrwt>
<pdfrwt beam="2">  1        4 0.11035909E+00 0.10288667E+04</pdfrwt>
<totfact> 0.23014523E+01</totfact>
</mgrwt>
</event>
<event>
 6    1  0.1412458E-005  0.1129059E+04  0.7818608E-02  0.9363742E-01
         21   -1    0    0  501  502  0.00000000000E+00  0.00000000000E+00  0.52195863939E+03  0.52195863939E+03  0.00000000000E+00 0. -1.
          4   -1    0    0  502    0 -0.00000000000E+00 -0.00000000000E+00 -0.14041465008E+04  0.14041465008E+04  0.00000000000E+00 0.  1.
    9000010    2    1    2  501    0 -0.31806759847E+03 -0.47154071754E+03 -0.70180982074E+03  0.13294026228E+04  0.97532387628E+03 0.  0.
        -13    1    3    3    0    0  0.13180161748E+01  0.29601209279E+03 -0.15273818388E+03  0.33309737349E+03  0.10566000000E+00 0.  1.
          4    1    3    3  501    0 -0.31938561465E+03 -0.76755281033E+03 -0.54907163686E+03  0.99630524935E+03  0.00000000000E+00 0.  1.
         13    1    1    2    0    0  0.31806759847E+03  0.47154071754E+03 -0.18037804069E+03  0.59670251735E+03  0.10566000000E+00 0. -1.
<mgrwt>
<rscale>  1 0.95120646E+03</rscale>
<asrwt>0</asrwt>
<pdfrwt beam="1">  1       21 0.80301328E-01 0.11290590E+04</pdfrwt>
<pdfrwt beam="2">  1        4 0.21602254E+00 0.11290590E+04</pdfrwt>
<totfact> 0.52650619E+00</totfact>
</mgrwt>
</event>
<event>
 6    1  0.1412458E-005  0.9978597E+03  0.7818608E-02  0.1017604E+00
          4   -1    0    0  502    0 -0.00000000000E+00  0.00000000000E+00  0.13322748055E+03  0.13322748055E+03  0.00000000000E+00 0.  1.
         21   -1    0    0  501  502  0.00000000000E+00 -0.00000000000E+00 -0.22977515235E+04  0.22977515235E+04  0.00000000000E+00 0.  1.
    9000010    2    1    2  501    0  0.53812412562E+02  0.15388056370E+02 -0.21541664988E+04  0.23740592543E+04  0.99628884887E+03 0.  0.
        -13    1    3    3    0    0  0.36222833759E+03  0.11110437220E+03 -0.27706034587E+03  0.46937830851E+03  0.10566000000E+00 0.  1.
          4    1    3    3  501    0 -0.30841592503E+03 -0.95716315827E+02 -0.18771061529E+04  0.19046809458E+04  0.00000000000E+00 0.  1.
         13    1    1    2    0    0 -0.53812412562E+02 -0.15388056370E+02 -0.10357544138E+02  0.56919749729E+02  0.10566000000E+00 0. -1.
<mgrwt>
<rscale>  1 0.48561252E+03</rscale>
<asrwt>0</asrwt>
<pdfrwt beam="2">  1       21 0.35350023E+00 0.99785973E+03</pdfrwt>
<pdfrwt beam="1">  1        4 0.20496536E-01 0.99785973E+03</pdfrwt>
<totfact> 0.11005107E+01</totfact>
</mgrwt>
</event>
<event>
 6    1  0.1412458E-005  0.1048492E+04  0.7818608E-02  0.9644116E-01
          4   -1    0    0  502    0 -0.00000000000E+00  0.00000000000E+00  0.12051170710E+04  0.12051170710E+04  0.00000000000E+00 0.  1.
         21   -1    0    0  501  502  0.00000000000E+00 -0.00000000000E+00 -0.41948395204E+03  0.41948395204E+03  0.00000000000E+00 0.  1.
    9000010    2    1    2  501    0 -0.22813840875E+03 -0.13765950298E+03  0.33432150566E+03  0.11005023150E+04  0.10140696248E+04 0.  0.
        -13    1    3    3    0    0 -0.16491666887E+03 -0.48710364232E+03 -0.11582273465E+03  0.52714550463E+03  0.10566000000E+00 0.  1.
          4    1    3    3  501    0 -0.63221739876E+02  0.34944413934E+03  0.45014424031E+03  0.57335681037E+03  0.00000000000E+00 0.  1.
         13    1    1    2    0    0  0.22813840875E+03  0.13765950298E+03  0.45131161330E+03  0.52409870804E+03  0.10566000000E+00 0. -1.
<mgrwt>
<rscale>  1 0.74443864E+03</rscale>
<asrwt>0</asrwt>
<pdfrwt beam="2">  1       21 0.64535993E-01 0.10484915E+04</pdfrwt>
<pdfrwt beam="1">  1        4 0.18540262E+00 0.10484915E+04</pdfrwt>
<totfact> 0.14043947E+01</totfact>
</mgrwt>
</event>
<event>
 6    1  0.1412458E-005  0.1082159E+04  0.7818608E-02  0.9496100E-01
          4   -1    0    0  502    0 -0.00000000000E+00  0.00000000000E+00  0.11581720765E+04  0.11581720765E+04  0.00000000000E+00 0.  1.
         21   -1    0    0  501  502  0.00000000000E+00 -0.00000000000E+00 -0.49564146628E+03  0.49564146628E+03  0.00000000000E+00 0.  1.
    9000010    2    1    2  501    0  0.58972181120E+02  0.39934479703E+03  0.33159001859E+03  0.11318215204E+04  0.10040488179E+04 0.  0.
        -13    1    3    3    0    0 -0.19812573757E+02 -0.26934286628E+03 -0.14535223881E+03  0.30670083499E+03  0.10566000000E+00 0.  1.
          4    1    3    3  501    0  0.78784754878E+02  0.66868766330E+03  0.47694225740E+03  0.82512068544E+03  0.00000000000E+00 0.  1.
         13    1    1    2    0    0 -0.58972181120E+02 -0.39934479703E+03  0.33094059168E+03  0.52199202239E+03  0.10566000000E+00 0. -1.
<mgrwt>
<rscale>  1 0.84571965E+03</rscale>
<asrwt>0</asrwt>
<pdfrwt beam="2">  1       21 0.76252534E-01 0.10821590E+04</pdfrwt>
<pdfrwt beam="1">  1        4 0.17818032E+00 0.10821590E+04</pdfrwt>
<totfact> 0.10711418E+01</totfact>
</mgrwt>
</event>
<event>
 6    1  0.1412458E-005  0.1005950E+04  0.7818608E-02  0.9791643E-01
          4   -1    0    0  502    0 -0.00000000000E+00  0.00000000000E+00  0.48573709939E+03  0.48573709939E+03  0.00000000000E+00 0.  1.
         21   -1    0    0  501  502  0.00000000000E+00 -0.00000000000E+00 -0.11506825010E+04  0.11506825010E+04  0.00000000000E+00 0.  1.
    9000010    2    1    2  501    0 -0.17263834921E+03 -0.64505873196E+02 -0.89166196068E+03  0.13442459934E+04  0.98892427988E+03 0.  0.
        -13    1    3    3    0    0  0.40859824397E+03  0.53222517427E+02 -0.33833946541E+03  0.53315923171E+03  0.10566000000E+00 0.  1.
          4    1    3    3  501    0 -0.58123659318E+03 -0.11772839062E+03 -0.55332249527E+03  0.81108676169E+03  0.00000000000E+00 0.  1.
         13    1    1    2    0    0  0.17263834921E+03  0.64505873196E+02  0.22671655908E+03  0.29217360698E+03  0.10566000000E+00 0. -1.
<mgrwt>
<rscale>  1 0.65812958E+03</rscale>
<asrwt>0</asrwt>
<pdfrwt beam="2">  1       21 0.17702807E+00 0.10059504E+04</pdfrwt>
<pdfrwt beam="1">  1        4 0.74728786E-01 0.10059504E+04</pdfrwt>
<totfact> 0.10765196E+01</totfact>
</mgrwt>
</event>
<event>
 6    1  0.1412458E-005  0.1407265E+04  0.7818608E-02  0.9040357E-01
          4   -1    0    0  502    0 -0.00000000000E+00  0.00000000000E+00  0.18191467732E+04  0.18191467732E+04  0.00000000000E+00 0.  1.
         21   -1    0    0  501  502  0.00000000000E+00 -0.00000000000E+00 -0.84332440571E+03  0.84332440571E+03  0.00000000000E+00 0. -1.
    9000010    2    1    2  501    0 -0.79334684415E+02  0.97963316341E+03  0.22384757978E+03  0.14249570499E+04  0.10071840587E+04 0.  0.
        -13    1    3    3    0    0  0.34942885956E+03  0.58429250981E+02  0.20368559332E+03  0.40865919463E+03  0.10566000000E+00 0.  1.
          4    1    3    3  501    0 -0.42876354398E+03  0.92120391242E+03  0.20161986458E+02  0.10162978553E+04  0.00000000000E+00 0.  1.
         13    1    1    2    0    0  0.79334684415E+02 -0.97963316341E+03  0.75197478769E+03  0.12375141290E+04  0.10566000000E+00 0. -1.
<mgrwt>
<rscale>  1 0.12864789E+04</rscale>
<asrwt>0</asrwt>
<pdfrwt beam="2">  1       21 0.12974222E+00 0.14072650E+04</pdfrwt>
<pdfrwt beam="1">  1        4 0.27986873E+00 0.14072650E+04</pdfrwt>
<totfact> 0.60789358E-01</totfact>
</mgrwt>
</event>
<event>
 6    1  0.1412458E-005  0.1049506E+04  0.7818608E-02  0.9567973E-01
         21   -1    0    0  501  502  0.00000000000E+00  0.00000000000E+00  0.10619407703E+04  0.10619407703E+04  0.00000000000E+00 0. -1.
          4   -1    0    0  502    0 -0.00000000000E+00 -0.00000000000E+00 -0.45799538213E+03  0.45799538213E+03  0.00000000000E+00 0.  1.
    9000010    2    1    2  501    0  0.17657025504E+03 -0.29607780368E+03  0.43592413920E+03  0.11364387313E+04  0.99127393487E+03 0.  0.
        -13    1    3    3    0    0  0.20640221335E+03 -0.25517085581E+03 -0.27227260096E+03  0.42643454331E+03  0.10566000000E+00 0.  1.
          4    1    3    3  501    0 -0.29831958313E+02 -0.40906947864E+02  0.70819674016E+03  0.71000418794E+03  0.00000000000E+00 0.  1.
         13    1    1    2    0    0 -0.17657025504E+03  0.29607780368E+03  0.16802124899E+03  0.38349742121E+03  0.10566000000E+00 0. -1.
<mgrwt>
<rscale>  1 0.79452712E+03</rscale>
<asrwt>0</asrwt>
<pdfrwt beam="1">  1       21 0.16337550E+00 0.10495061E+04</pdfrwt>
<pdfrwt beam="2">  1        4 0.70460828E-01 0.10495061E+04</pdfrwt>
<totfact> 0.15474029E+01</totfact>
</mgrwt>
</event>
<event>
 6    1  0.1412458E-005  0.1017340E+04  0.7818608E-02  0.9918042E-01
         21   -1    0    0  501  502  0.00000000000E+00  0.00000000000E+00  0.26372970194E+03  0.26372970194E+03  0.00000000000E+00 0.  1.
          4   -1    0    0  502    0 -0.00000000000E+00 -0.00000000000E+00 -0.14244501358E+04  0.14244501358E+04  0.00000000000E+00 0.  1.
    9000010    2    1    2  501    0  0.11716896784E+03 -0.15532958716E+02 -0.75856578099E+03  0.12690161277E+04  0.10104504186E+04 0.  0.
        -13    1    3    3    0    0  0.30099405194E+03 -0.70296404872E+02 -0.94939827513E+03  0.99844684377E+03  0.10566000000E+00 0.  1.
          4    1    3    3  501    0 -0.18382508410E+03  0.54763446155E+02  0.19083249414E+03  0.27056928392E+03  0.00000000000E+00 0.  1.
         13    1    1    2    0    0 -0.11716896784E+03  0.15532958716E+02 -0.40215465285E+03  0.41916371003E+03  0.10566000000E+00 0. -1.
<mgrwt>
<rscale>  1 0.59394802E+03</rscale>
<asrwt>0</asrwt>
<pdfrwt beam="1">  1       21 0.40573801E-01 0.10173396E+04</pdfrwt>
<pdfrwt beam="2">  1        4 0.21914617E+00 0.10173396E+04</pdfrwt>
<totfact> 0.23132198E+01</totfact>
</mgrwt>
</event>
<event>
 6    1  0.1412458E-005  0.1005319E+04  0.7818608E-02  0.1008598E+00
         21   -1    0    0  501  502  0.00000000000E+00  0.00000000000E+00  0.89639697170E+03  0.89639697170E+03  0.00000000000E+00 0.  1.
          4   -1    0    0  502    0 -0.00000000000E+00 -0.00000000000E+00 -0.49773540813E+03  0.49773540813E+03  0.00000000000E+00 0.  1.
    9000010    2    1    2  501    0 -0.30071495272E+02  0.65595953330E+02  0.60651668977E+03  0.11741076345E+04  0.10027258441E+04 0.  0.
        -13    1    3    3    0    0 -0.50517367069E+03  0.13709378259E+03  0.34738961572E+03  0.62823140566E+03  0.10566000000E+00 0.  1.
          4    1    3    3  501    0  0.47510217542E+03 -0.71497829262E+02  0.25912707405E+03  0.54587622881E+03  0.00000000000E+00 0.  1.
         13    1    1    2    0    0  0.30071495272E+02 -0.65595953330E+02 -0.20785512620E+03  0.22002474537E+03  0.10566000000E+00 0. -1.
<mgrwt>
<rscale>  1 0.52035863E+03</rscale>
<asrwt>0</asrwt>
<pdfrwt beam="1">  1       21 0.13790723E+00 0.10053190E+04</pdfrwt>
<pdfrwt beam="2">  1        4 0.76574678E-01 0.10053190E+04</pdfrwt>
<totfact> 0.20686660E+01</totfact>
</mgrwt>
</event>
<event>
 6    1  0.1412458E-005  0.1013813E+04  0.7818608E-02  0.9786254E-01
         21   -1    0    0  501  502  0.00000000000E+00  0.00000000000E+00  0.18424474545E+03  0.18424474545E+03  0.00000000000E+00 0.  1.
          4   -1    0    0  502    0 -0.00000000000E+00 -0.00000000000E+00 -0.22765634149E+04  0.22765634149E+04  0.00000000000E+00 0.  1.
    9000010    2    1    2  501    0 -0.21996675246E+02  0.18193859326E+03 -0.13054571291E+04  0.16528870006E+04  0.99711163644E+03 0.  0.
        -13    1    3    3    0    0  0.18537550327E+03 -0.16339284597E+03 -0.12152237381E+04  0.12400927562E+04  0.10566000000E+00 0.  1.
          4    1    3    3  501    0 -0.20737217851E+03  0.34533143923E+03 -0.90233390995E+02  0.41279424438E+03  0.00000000000E+00 0.  1.
         13    1    1    2    0    0  0.21996675246E+02 -0.18193859326E+03 -0.78686154041E+03  0.80792115976E+03  0.10566000000E+00 0. -1.
<mgrwt>
<rscale>  1 0.66105478E+03</rscale>
<asrwt>0</asrwt>
<pdfrwt beam="1">  1       21 0.28345348E-01 0.10138132E+04</pdfrwt>
<pdfrwt beam="2">  1        4 0.35024049E+00 0.10138132E+04</pdfrwt>
<totfact> 0.73169993E+00</totfact>
</mgrwt>
</event>
<event>
 6    1  0.1412458E-005  0.1097397E+04  0.7818608E-02  0.9458777E-01
         21   -1    0    0  501  502  0.00000000000E+00  0.00000000000E+00  0.34334990855E+03  0.34334990855E+03  0.00000000000E+00 0.  1.
          4   -1    0    0  502    0 -0.00000000000E+00 -0.00000000000E+00 -0.19545534266E+04  0.19545534266E+04  0.00000000000E+00 0.  1.
    9000010    2    1    2  501    0 -0.41796650253E+03  0.14181994713E+03 -0.74699627602E+03  0.13275100834E+04  0.10047241863E+04 0.  0.
        -13    1    3    3    0    0 -0.60209437421E+03 -0.79680642364E+02 -0.82932920110E+03  0.10279365618E+04  0.10566000000E+00 0.  1.
          4    1    3    3  501    0  0.18412787169E+03  0.22150058949E+03  0.82332925079E+02  0.29957352158E+03  0.00000000000E+00 0.  1.
         13    1    1    2    0    0  0.41796650253E+03 -0.14181994713E+03 -0.86420724199E+03  0.97039325169E+03  0.10566000000E+00 0. -1.
<mgrwt>
<rscale>  1 0.87392436E+03</rscale>
<asrwt>0</asrwt>
<pdfrwt beam="1">  1       21 0.52823061E-01 0.10973967E+04</pdfrwt>
<pdfrwt beam="2">  1        4 0.30070054E+00 0.10973967E+04</pdfrwt>
<totfact> 0.40551505E+00</totfact>
</mgrwt>
</event>
<event>
 6    1  0.1412458E-005  0.1180922E+04  0.7818608E-02  0.9338712E-01
          4   -1    0    0  502    0 -0.00000000000E+00  0.00000000000E+00  0.14061509559E+04  0.14061509559E+04  0.00000000000E+00 0.  1.
         21   -1    0    0  501  502  0.00000000000E+00 -0.00000000000E+00 -0.58228864866E+03  0.58228864866E+03  0.00000000000E+00 0. -1.
    9000010    2    1    2  501    0 -0.54276558237E+03 -0.38670313305E+02  0.83142546781E+03  0.14442456290E+04  0.10480874285E+04 0.  0.
        -13    1    3    3    0    0 -0.85783290264E+03 -0.36471565756E+02  0.53499957070E+03  0.10116481680E+04  0.10566000000E+00 0.  1.
          4    1    3    3  501    0  0.31506732028E+03 -0.21987475495E+01  0.29642589712E+03  0.43259746102E+03  0.00000000000E+00 0.  1.
         13    1    1    2    0    0  0.54276558237E+03  0.38670313305E+02 -0.75631605269E+01  0.54419397561E+03  0.10566000000E+00 0. -1.
<mgrwt>
<rscale>  1 0.97295768E+03</rscale>
<asrwt>0</asrwt>
<pdfrwt beam="2">  1       21 0.89582869E-01 0.11809222E+04</pdfrwt>
<pdfrwt beam="1">  1        4 0.21633092E+00 0.11809222E+04</pdfrwt>
<totfact> 0.40111762E+00</totfact>
</mgrwt>
</event>
<event>
 6    1  0.1412458E-005  0.1061255E+04  0.7818608E-02  0.9551658E-01
         21   -1    0    0  501  502  0.00000000000E+00  0.00000000000E+00  0.11057974742E+04  0.11057974742E+04  0.00000000000E+00 0. -1.
          4   -1    0    0  502    0 -0.00000000000E+00 -0.00000000000E+00 -0.45203333911E+03  0.45203333911E+03  0.00000000000E+00 0.  1.
    9000010    2    1    2  501    0  0.25786160037E+03  0.24069048547E+03  0.49411004182E+03  0.11706435777E+04  0.10009181474E+04 0.  0.
        -13    1    3    3    0    0  0.62542618230E+03  0.13523443742E+03  0.15230908341E+03  0.65775704529E+03  0.10566000000E+00 0.  1.
          4    1    3    3  501    0 -0.36756458193E+03  0.10545604806E+03  0.34180095841E+03  0.51288653241E+03  0.00000000000E+00 0.  1.
         13    1    1    2    0    0 -0.25786160037E+03 -0.24069048547E+03  0.15965409323E+03  0.38718723558E+03  0.10566000000E+00 0. -1.
<mgrwt>
<rscale>  1 0.80580134E+03</rscale>
<asrwt>0</asrwt>
<pdfrwt beam="1">  1       21 0.17012269E+00 0.10612548E+04</pdfrwt>
<pdfrwt beam="2">  1        4 0.69543591E-01 0.10612548E+04</pdfrwt>
<totfact> 0.14146491E+01</totfact>
</mgrwt>
</event>
<event>
 6    1  0.1412458E-005  0.1013143E+04  0.7818608E-02  0.9791588E-01
         21   -1    0    0  501  502  0.00000000000E+00  0.00000000000E+00  0.84890591390E+03  0.84890591390E+03  0.00000000000E+00 0.  1.
          4   -1    0    0  502    0 -0.00000000000E+00 -0.00000000000E+00 -0.43741612000E+03  0.43741612000E+03  0.00000000000E+00 0.  1.
    9000010    2    1    2  501    0  0.13784487066E+03 -0.11642294299E+03  0.43834239641E+03  0.11039033302E+04  0.99694683709E+03 0.  0.
        -13    1    3    3    0    0  0.16985682668E+03  0.26377395155E+03 -0.19146335184E+03  0.36754083494E+03  0.10566000000E+00 0.  1.
          4    1    3    3  501    0 -0.32011956021E+02 -0.38019689454E+03  0.62980574824E+03  0.73636249529E+03  0.00000000000E+00 0.  1.
         13    1    1    2    0    0 -0.13784487066E+03  0.11642294299E+03 -0.26852602498E+02  0.18241870367E+03  0.10566000000E+00 0. -1.
<mgrwt>
<rscale>  1 0.65815943E+03</rscale>
<asrwt>0</asrwt>
<pdfrwt beam="1">  1       21 0.13060091E+00 0.10131429E+04</pdfrwt>
<pdfrwt beam="2">  1        4 0.67294788E-01 0.10131429E+04</pdfrwt>
<totfact> 0.31986233E+01</totfact>
</mgrwt>
</event>
<event>
 6    1  0.1412458E-005  0.1472116E+04  0.7818608E-02  0.8982872E-01
         21   -1    0    0  501  502  0.00000000000E+00  0.00000000000E+00  0.81677749692E+03  0.81677749692E+03  0.00000000000E+00 0. -1.
          4   -1    0    0  502    0 -0.00000000000E+00 -0.00000000000E+00 -0.19930903055E+04  0.19930903055E+04  0.00000000000E+00 0.  1.
    9000010    2    1    2  501    0  0.74544764848E+03  0.77330476849E+03 -0.58800495004E+03  0.15852051512E+04  0.10066941386E+04 0.  0.
        -13    1    3    3    0    0  0.22650245106E+03  0.27942207084E+03  0.28282265088E+03  0.45756826488E+03  0.10566000000E+00 0.  1.
          4    1    3    3  501    0  0.51894519742E+03  0.49388269765E+03 -0.87082760091E+03  0.11276368864E+04  0.00000000000E+00 0.  1.
         13    1    1    2    0    0 -0.74544764848E+03 -0.77330476849E+03 -0.58830785853E+03  0.12246626512E+04  0.10566000000E+00 0. -1.
<mgrwt>
<rscale>  1 0.13605603E+04</rscale>
<asrwt>0</asrwt>
<pdfrwt beam="1">  1       21 0.12565808E+00 0.14721160E+04</pdfrwt>
<pdfrwt beam="2">  1        4 0.30662928E+00 0.14721160E+04</pdfrwt>
<totfact> 0.44695532E-01</totfact>
</mgrwt>
</event>
<event>
 6    1  0.1412458E-005  0.1015649E+04  0.7818608E-02  0.9874934E-01
          4   -1    0    0  502    0 -0.00000000000E+00  0.00000000000E+00  0.56348780880E+03  0.56348780880E+03  0.00000000000E+00 0.  1.
         21   -1    0    0  501  502  0.00000000000E+00 -0.00000000000E+00 -0.59971153303E+03  0.59971153303E+03  0.00000000000E+00 0.  1.
    9000010    2    1    2  501    0  0.97963399210E+02 -0.95009707625E+02 -0.82757082502E+02  0.10190153041E+04  0.10064391602E+04 0.  0.
        -13    1    3    3    0    0  0.18856473922E+03 -0.16303515968E+03  0.42829576126E+03  0.49555463316E+03  0.10566000000E+00 0.  1.
          4    1    3    3  501    0 -0.90601340012E+02  0.68025452051E+02 -0.51105284376E+03  0.52346067098E+03  0.00000000000E+00 0.  1.
         13    1    1    2    0    0 -0.97963399210E+02  0.95009707625E+02  0.46533358275E+02  0.14418403769E+03  0.10566000000E+00 0. -1.
<mgrwt>
<rscale>  1 0.61491632E+03</rscale>
<asrwt>0</asrwt>
<pdfrwt beam="2">  1       21 0.92263313E-01 0.10156493E+04</pdfrwt>
<pdfrwt beam="1">  1        4 0.86690432E-01 0.10156493E+04</pdfrwt>
<totfact> 0.43401018E+01</totfact>
</mgrwt>
</event>
<event>
 6    1  0.1412458E-005  0.1012144E+04  0.7818608E-02  0.1004783E+00
         21   -1    0    0  501  502  0.00000000000E+00  0.00000000000E+00  0.84946127016E+03  0.84946127016E+03  0.00000000000E+00 0.  1.
          4   -1    0    0  502    0 -0.00000000000E+00 -0.00000000000E+00 -0.35251090116E+03  0.35251090116E+03  0.00000000000E+00 0.  1.
    9000010    2    1    2  501    0 -0.75407858984E+02  0.25539075815E+02  0.48164101241E+03  0.11208982720E+04  0.10090075727E+04 0.  0.
        -13    1    3    3    0    0 -0.18163996209E+03 -0.31130054068E+03 -0.15540415760E+03  0.39249403285E+03  0.10566000000E+00 0.  1.
          4    1    3    3  501    0  0.10623210311E+03  0.33683961650E+03  0.63704517001E+03  0.72840423914E+03  0.00000000000E+00 0.  1.
         13    1    1    2    0    0  0.75407858984E+02 -0.25539075815E+02  0.15309356591E+02  0.81073899334E+02  0.10566000000E+00 0. -1.
<mgrwt>
<rscale>  1 0.53601977E+03</rscale>
<asrwt>0</asrwt>
<pdfrwt beam="1">  1       21 0.13068635E+00 0.10121437E+04</pdfrwt>
<pdfrwt beam="2">  1        4 0.54232447E-01 0.10121437E+04</pdfrwt>
<totfact> 0.51129377E+01</totfact>
</mgrwt>
</event>
<event>
 6    1  0.1412458E-005  0.1034916E+04  0.7818608E-02  0.1008880E+00
         21   -1    0    0  501  502  0.00000000000E+00  0.00000000000E+00  0.26730503187E+03  0.26730503187E+03  0.00000000000E+00 0.  1.
          4   -1    0    0  502    0 -0.00000000000E+00 -0.00000000000E+00 -0.12062676192E+04  0.12062676192E+04  0.00000000000E+00 0.  1.
    9000010    2    1    2  501    0 -0.65063130894E+02 -0.81253993219E+01 -0.76295688255E+03  0.12857502552E+04  0.10328365219E+04 0.  0.
        -13    1    3    3    0    0 -0.33766535586E+03  0.27714575523E+03 -0.77649654548E+03  0.89094026652E+03  0.10566000000E+00 0.  1.
          4    1    3    3  501    0  0.27260222497E+03 -0.28527115455E+03  0.13539662931E+02  0.39480998867E+03  0.00000000000E+00 0.  1.
         13    1    1    2    0    0  0.65063130894E+02  0.81253993219E+01 -0.17600570477E+03  0.18782239588E+03  0.10566000000E+00 0. -1.
<mgrwt>
<rscale>  1 0.51922160E+03</rscale>
<asrwt>0</asrwt>
<pdfrwt beam="1">  1       21 0.41123851E-01 0.10349157E+04</pdfrwt>
<pdfrwt beam="2">  1        4 0.18557964E+00 0.10349157E+04</pdfrwt>
<totfact> 0.37398878E+01</totfact>
</mgrwt>
</event>
<event>
 6    1  0.1412458E-005  0.1003522E+04  0.7818608E-02  0.9785285E-01
         21   -1    0    0  501  502  0.00000000000E+00  0.00000000000E+00  0.24350970999E+03  0.24350970999E+03  0.00000000000E+00 0.  1.
          4   -1    0    0  502    0 -0.00000000000E+00 -0.00000000000E+00 -0.16039790586E+04  0.16039790586E+04  0.00000000000E+00 0.  1.
    9000010    2    1    2  501    0 -0.45416798712E+02 -0.18404260723E+03 -0.89404224483E+03  0.13440122337E+04  0.98545572294E+03 0.  0.
        -13    1    3    3    0    0  0.12627122003E+02 -0.52534344598E+03 -0.18880837523E+03  0.55838498741E+03  0.10566000000E+00 0.  1.
          4    1    3    3  501    0 -0.58043920715E+02  0.34130083875E+03 -0.70523386960E+03  0.78562724628E+03  0.00000000000E+00 0.  1.
         13    1    1    2    0    0  0.45416798712E+02  0.18404260723E+03 -0.46642710378E+03  0.50347653489E+03  0.10566000000E+00 0. -1.
<mgrwt>
<rscale>  1 0.66158263E+03</rscale>
<asrwt>0</asrwt>
<pdfrwt beam="1">  1       21 0.37463032E-01 0.10035225E+04</pdfrwt>
<pdfrwt beam="2">  1        4 0.24676601E+00 0.10035225E+04</pdfrwt>
<totfact> 0.18347888E+01</totfact>
</mgrwt>
</event>
<event>
 6    1  0.1412458E-005  0.1122171E+04  0.7818608E-02  0.9443519E-01
         21   -1    0    0  501  502  0.00000000000E+00  0.00000000000E+00  0.15516508316E+04  0.15516508316E+04  0.00000000000E+00 0.  1.
          4   -1    0    0  502    0 -0.00000000000E+00 -0.00000000000E+00 -0.44119311888E+03  0.44119311888E+03  0.00000000000E+00 0.  1.
    9000010    2    1    2  501    0 -0.43026126148E+03  0.68378077053E+02  0.10778481363E+04  0.15559644360E+04  0.10341510560E+04 0.  0.
        -13    1    3    3    0    0 -0.64685170039E+03  0.36894898378E+03  0.79940986133E+03  0.10925184724E+04  0.10566000000E+00 0.  1.
          4    1    3    3  501    0  0.21659043891E+03 -0.30057090673E+03  0.27843827499E+03  0.46344596360E+03  0.00000000000E+00 0.  1.
         13    1    1    2    0    0  0.43026126148E+03 -0.68378077053E+02  0.32609576397E+02  0.43687951450E+03  0.10566000000E+00 0. -1.
<mgrwt>
<rscale>  1 0.88579153E+03</rscale>
<asrwt>0</asrwt>
<pdfrwt beam="1">  1       21 0.23871551E+00 0.11221714E+04</pdfrwt>
<pdfrwt beam="2">  1        4 0.67875865E-01 0.11221714E+04</pdfrwt>
<totfact> 0.49997339E+00</totfact>
</mgrwt>
</event>
<event>
 6    1  0.1412458E-005  0.1023354E+04  0.7818608E-02  0.9733477E-01
         21   -1    0    0  501  502  0.00000000000E+00  0.00000000000E+00  0.13775496681E+04  0.13775496681E+04  0.00000000000E+00 0.  1.
          4   -1    0    0  502    0 -0.00000000000E+00 -0.00000000000E+00 -0.30238804949E+03  0.30238804949E+03  0.00000000000E+00 0.  1.
    9000010    2    1    2  501    0  0.91413698310E+02  0.19151933602E+03  0.67181148111E+03  0.12241664319E+04  0.10011077197E+04 0.  0.
        -13    1    3    3    0    0 -0.41049327077E+03  0.10174566242E+03  0.59049895659E+02  0.42701733748E+03  0.10566000000E+00 0.  1.
          4    1    3    3  501    0  0.50190696908E+03  0.89773673600E+02  0.61276158545E+03  0.79714909438E+03  0.00000000000E+00 0.  1.
         13    1    1    2    0    0 -0.91413698310E+02 -0.19151933602E+03  0.40335013755E+03  0.45577128577E+03  0.10566000000E+00 0. -1.
<mgrwt>
<rscale>  1 0.69058082E+03</rscale>
<asrwt>0</asrwt>
<pdfrwt beam="1">  1       21 0.21193072E+00 0.10233537E+04</pdfrwt>
<pdfrwt beam="2">  1        4 0.46521239E-01 0.10233537E+04</pdfrwt>
<totfact> 0.17161731E+01</totfact>
</mgrwt>
</event>
<event>
 6    1  0.1412458E-005  0.1178900E+04  0.7818608E-02  0.1015456E+00
          4   -1    0    0  502    0 -0.00000000000E+00  0.00000000000E+00  0.18035513835E+03  0.18035513835E+03  0.00000000000E+00 0.  1.
         21   -1    0    0  501  502  0.00000000000E+00 -0.00000000000E+00 -0.21342382135E+04  0.21342382135E+04  0.00000000000E+00 0.  1.
    9000010    2    1    2  501    0 -0.27387449466E+02  0.23730409600E+02 -0.19493031824E+04  0.22780667683E+04  0.11783429463E+04 0.  0.
        -13    1    3    3    0    0 -0.47364532463E+03 -0.10979419565E+03 -0.31655591971E+03  0.58017438793E+03  0.10566000000E+00 0.  1.
          4    1    3    3  501    0  0.44625787517E+03  0.13352460525E+03 -0.16327472627E+04  0.16978923803E+04  0.00000000000E+00 0.  1.
         13    1    1    2    0    0  0.27387449466E+02 -0.23730409600E+02 -0.45798927726E+01  0.36526583606E+02  0.10566000000E+00 0. -1.
<mgrwt>
<rscale>  1 0.49362796E+03</rscale>
<asrwt>0</asrwt>
<pdfrwt beam="2">  1       21 0.32834433E+00 0.11789000E+04</pdfrwt>
<pdfrwt beam="1">  1        4 0.27746945E-01 0.11789000E+04</pdfrwt>
<totfact> 0.86440258E+00</totfact>
</mgrwt>
</event>
<event>
 6    1  0.1412458E-005  0.9708989E+03  0.7818608E-02  0.9794590E-01
          4   -1    0    0  502    0 -0.00000000000E+00  0.00000000000E+00  0.67539571222E+03  0.67539571222E+03  0.00000000000E+00 0.  1.
         21   -1    0    0  501  502  0.00000000000E+00 -0.00000000000E+00 -0.51867774851E+03  0.51867774851E+03  0.00000000000E+00 0.  1.
    9000010    2    1    2  501    0 -0.79393521828E+02 -0.18683993761E+03  0.70312286377E+02  0.97344153686E+03  0.94943778863E+03 0.  0.
        -13    1    3    3    0    0  0.21891594542E+03  0.31254589343E+03  0.87486378469E+02  0.39148819171E+03  0.10566000000E+00 0.  1.
          4    1    3    3  501    0 -0.29830946725E+03 -0.49938583104E+03 -0.17174092091E+02  0.58195334515E+03  0.00000000000E+00 0.  1.
         13    1    1    2    0    0  0.79393521828E+02  0.18683993761E+03  0.86405677327E+02  0.22063192387E+03  0.10566000000E+00 0. -1.
<mgrwt>
<rscale>  1 0.65653687E+03</rscale>
<asrwt>0</asrwt>
<pdfrwt beam="2">  1       21 0.79796576E-01 0.97089887E+03</pdfrwt>
<pdfrwt beam="1">  1        4 0.10390703E+00 0.97089887E+03</pdfrwt>
<totfact> 0.40026710E+01</totfact>
</mgrwt>
</event>
<event>
 6    1  0.1412458E-005  0.1044444E+04  0.7818608E-02  0.9709357E-01
         21   -1    0    0  501  502  0.00000000000E+00  0.00000000000E+00  0.10212162526E+04  0.10212162526E+04  0.00000000000E+00 0.  1.
          4   -1    0    0  502    0 -0.00000000000E+00 -0.00000000000E+00 -0.39131489040E+03  0.39131489040E+03  0.00000000000E+00 0.  1.
    9000010    2    1    2  501    0  0.19853926658E+03  0.85984630880E+02  0.56036252906E+03  0.11852716930E+04  0.10217884444E+04 0.  0.
        -13    1    3    3    0    0  0.17772536542E+03  0.42120770214E+03  0.68793738440E+03  0.82599036912E+03  0.10566000000E+00 0.  1.
          4    1    3    3  501    0  0.20813901166E+02 -0.33522307126E+03 -0.12757485535E+03  0.35928132390E+03  0.00000000000E+00 0.  1.
         13    1    1    2    0    0 -0.19853926658E+03 -0.85984630880E+02  0.69538833130E+02  0.22725944997E+03  0.10566000000E+00 0. -1.
<mgrwt>
<rscale>  1 0.70462417E+03</rscale>
<asrwt>0</asrwt>
<pdfrwt beam="1">  1       21 0.15711019E+00 0.10444438E+04</pdfrwt>
<pdfrwt beam="2">  1        4 0.60202291E-01 0.10444438E+04</pdfrwt>
<totfact> 0.24529031E+01</totfact>
</mgrwt>
</event>
<event>
 6    1  0.1412458E-005  0.9990002E+03  0.7818608E-02  0.1001519E+00
         21   -1    0    0  501  502  0.00000000000E+00  0.00000000000E+00  0.15251493866E+03  0.15251493866E+03  0.00000000000E+00 0.  1.
          4   -1    0    0  502    0 -0.00000000000E+00 -0.00000000000E+00 -0.19716797043E+04  0.19716797043E+04  0.00000000000E+00 0.  1.
    9000010    2    1    2  501    0 -0.90848727828E+02  0.12538182299E+02 -0.15954103057E+04  0.18823749439E+04  0.99478172903E+03 0.  0.
        -13    1    3    3    0    0 -0.39079294342E+03  0.19790164160E+03 -0.14248986349E+04  0.14907113454E+04  0.10566000000E+00 0.  1.
          4    1    3    3  501    0  0.29994421559E+03 -0.18536345930E+03 -0.17051167084E+03  0.39166359852E+03  0.00000000000E+00 0.  1.
         13    1    1    2    0    0  0.90848727828E+02 -0.12538182299E+02 -0.22375445987E+03  0.24181969903E+03  0.10566000000E+00 0. -1.
<mgrwt>
<rscale>  1 0.54989308E+03</rscale>
<asrwt>0</asrwt>
<pdfrwt beam="1">  1       21 0.23463838E-01 0.99900019E+03</pdfrwt>
<pdfrwt beam="2">  1        4 0.30333533E+00 0.99900019E+03</pdfrwt>
<totfact> 0.21114575E+01</totfact>
</mgrwt>
</event>
<event>
 6    1  0.1412458E-005  0.1065387E+04  0.7818608E-02  0.9541907E-01
          4   -1    0    0  502    0 -0.00000000000E+00  0.00000000000E+00  0.38952537685E+03  0.38952537685E+03  0.00000000000E+00 0.  1.
         21   -1    0    0  501  502  0.00000000000E+00 -0.00000000000E+00 -0.17732754721E+04  0.17732754721E+04  0.00000000000E+00 0.  1.
    9000010    2    1    2  501    0 -0.34516643713E+03  0.10446605746E+03 -0.14467600089E+04  0.17967089385E+04  0.10024946184E+04 0.  0.
        -13    1    3    3    0    0 -0.36889831441E+03 -0.40691210030E+03 -0.66879139427E+03  0.86541629518E+03  0.10566000000E+00 0.  1.
          4    1    3    3  501    0  0.23731877282E+02  0.51137815776E+03 -0.77796861463E+03  0.93129264337E+03  0.00000000000E+00 0.  1.
         13    1    1    2    0    0  0.34516643713E+03 -0.10446605746E+03  0.63009913661E+02  0.36609191041E+03  0.10566000000E+00 0. -1.
<mgrwt>
<rscale>  1 0.81263490E+03</rscale>
<asrwt>0</asrwt>
<pdfrwt beam="2">  1       21 0.27281161E+00 0.10653865E+04</pdfrwt>
<pdfrwt beam="1">  1        4 0.59926981E-01 0.10653865E+04</pdfrwt>
<totfact> 0.40303571E+00</totfact>
</mgrwt>
</event>
<event>
 6    1  0.1412458E-005  0.1018936E+04  0.7818608E-02  0.9764427E-01
         21   -1    0    0  501  502  0.00000000000E+00  0.00000000000E+00  0.11410962293E+04  0.11410962293E+04  0.00000000000E+00 0.  1.
          4   -1    0    0  502    0 -0.00000000000E+00 -0.00000000000E+00 -0.32300992073E+03  0.32300992073E+03  0.00000000000E+00 0.  1.
    9000010    2    1    2  501    0 -0.14656070097E+03  0.12710492131E+03  0.71139505562E+03  0.12427044005E+04  0.10002977565E+04 0.  0.
        -13    1    3    3    0    0  0.36126613742E+03  0.18192179213E+03  0.50786765399E+02  0.40766170681E+03  0.10566000000E+00 0.  1.
          4    1    3    3  501    0 -0.50782683839E+03 -0.54816870816E+02  0.66060829022E+03  0.83504269365E+03  0.00000000000E+00 0.  1.
         13    1    1    2    0    0  0.14656070097E+03 -0.12710492131E+03  0.10669125295E+03  0.22140174957E+03  0.10566000000E+00 0. -1.
<mgrwt>
<rscale>  1 0.67307012E+03</rscale>
<asrwt>0</asrwt>
<pdfrwt beam="1">  1       21 0.17555326E+00 0.10189364E+04</pdfrwt>
<pdfrwt beam="2">  1        4 0.49693835E-01 0.10189364E+04</pdfrwt>
<totfact> 0.26880526E+01</totfact>
</mgrwt>
</event>
<event>
 6    1  0.1412458E-005  0.1182576E+04  0.7818608E-02  0.9302886E-01
          4   -1    0    0  502    0 -0.00000000000E+00  0.00000000000E+00  0.10236727983E+04  0.10236727983E+04  0.00000000000E+00 0.  1.
         21   -1    0    0  501  502  0.00000000000E+00 -0.00000000000E+00 -0.81660807660E+03  0.81660807660E+03  0.00000000000E+00 0. -1.
    9000010    2    1    2  501    0 -0.39572630396E+03 -0.47374359515E+03  0.28957243068E+03  0.12175129929E+04  0.10086889480E+04 0.  0.
        -13    1    3    3    0    0 -0.39753604710E+03 -0.77575515989E+03  0.27924701957E+03  0.91531955401E+03  0.10566000000E+00 0.  1.
          4    1    3    3  501    0  0.18097431442E+01  0.30201156474E+03  0.10325411101E+02  0.30219343891E+03  0.00000000000E+00 0.  1.
         13    1    1    2    0    0  0.39572630396E+03  0.47374359515E+03 -0.82507709002E+02  0.62276788196E+03  0.10566000000E+00 0. -1.
<mgrwt>
<rscale>  1 0.10051758E+04</rscale>
<asrwt>0</asrwt>
<pdfrwt beam="2">  1       21 0.12563201E+00 0.11825759E+04</pdfrwt>
<pdfrwt beam="1">  1        4 0.15748812E+00 0.11825759E+04</pdfrwt>
<totfact> 0.43557534E+00</totfact>
</mgrwt>
</event>
<event>
 6    1  0.1412458E-005  0.1077892E+04  0.7818608E-02  0.9508196E-01
         21   -1    0    0  501  502  0.00000000000E+00  0.00000000000E+00  0.13199341115E+04  0.13199341115E+04  0.00000000000E+00 0.  1.
          4   -1    0    0  502    0 -0.00000000000E+00 -0.00000000000E+00 -0.45536132963E+03  0.45536132963E+03  0.00000000000E+00 0.  1.
    9000010    2    1    2  501    0  0.30080147750E+03 -0.25068674429E+03  0.86765057862E+03  0.13837154919E+04  0.10042537844E+04 0.  0.
        -13    1    3    3    0    0  0.48586165743E+03  0.24714677770E+03  0.47790065704E+03  0.72493594824E+03  0.10566000000E+00 0.  1.
          4    1    3    3  501    0 -0.18506017993E+03 -0.49783352199E+03  0.38974992158E+03  0.65877954369E+03  0.00000000000E+00 0.  1.
         13    1    1    2    0    0 -0.30080147750E+03  0.25068674429E+03 -0.30777967296E+01  0.39157994921E+03  0.10566000000E+00 0. -1.
<mgrwt>
<rscale>  1 0.83682217E+03</rscale>
<asrwt>0</asrwt>
<pdfrwt beam="1">  1       21 0.20306678E+00 0.10778919E+04</pdfrwt>
<pdfrwt beam="2">  1        4 0.70055590E-01 0.10778919E+04</pdfrwt>
<totfact> 0.80763541E+00</totfact>
</mgrwt>
</event>
<event>
 6    1  0.1412458E-005  0.1012137E+04  0.7818608E-02  0.9593017E-01
          4   -1    0    0  502    0 -0.00000000000E+00  0.00000000000E+00  0.54648210587E+03  0.54648210587E+03  0.00000000000E+00 0.  1.
         21   -1    0    0  501  502  0.00000000000E+00 -0.00000000000E+00 -0.12152134981E+04  0.12152134981E+04  0.00000000000E+00 0.  1.
    9000010    2    1    2  501    0  0.21082049706E+03  0.28266079393E+03 -0.88799625022E+03  0.13464613381E+04  0.94872461140E+03 0.  0.
        -13    1    3    3    0    0  0.30640463524E+03  0.32744140799E+03  0.37803806515E+01  0.44845956184E+03  0.10566000000E+00 0.  1.
          4    1    3    3  501    0 -0.95584138177E+02 -0.44780614054E+02 -0.89177663087E+03  0.89800177630E+03  0.00000000000E+00 0.  1.
         13    1    1    2    0    0 -0.21082049706E+03 -0.28266079393E+03  0.21926485799E+03  0.41523426583E+03  0.10566000000E+00 0. -1.
<mgrwt>
<rscale>  1 0.77760100E+03</rscale>
<asrwt>0</asrwt>
<pdfrwt beam="2">  1       21 0.18695592E+00 0.10121367E+04</pdfrwt>
<pdfrwt beam="1">  1        4 0.84074170E-01 0.10121367E+04</pdfrwt>
<totfact> 0.69607333E+00</totfact>
</mgrwt>
</event>
<event>
 6    1  0.1412458E-005  0.9066924E+03  0.7818608E-02  0.9751308E-01
          4   -1    0    0  502    0 -0.00000000000E+00  0.00000000000E+00  0.87001090184E+03  0.87001090184E+03  0.00000000000E+00 0.  1.
         21   -1    0    0  501  502  0.00000000000E+00 -0.00000000000E+00 -0.41531934966E+03  0.41531934966E+03  0.00000000000E+00 0.  1.
    9000010    2    1    2  501    0  0.21805897104E+03 -0.18746991027E+03  0.28036467373E+03  0.94904978251E+03  0.85988165308E+03 0.  0.
        -13    1    3    3    0    0  0.28870340205E+01  0.23646329418E+03 -0.17230726001E+03  0.29259703942E+03  0.10566000000E+00 0.  1.
          4    1    3    3  501    0  0.21517193702E+03 -0.42393320445E+03  0.45267193374E+03  0.65645274309E+03  0.00000000000E+00 0.  1.
         13    1    1    2    0    0 -0.21805897104E+03  0.18746991027E+03  0.17432687846E+03  0.33628046899E+03  0.10566000000E+00 0. -1.
<mgrwt>
<rscale>  1 0.68042411E+03</rscale>
<asrwt>0</asrwt>
<pdfrwt beam="2">  1       21 0.63895285E-01 0.90669242E+03</pdfrwt>
<pdfrwt beam="1">  1        4 0.13384783E+00 0.90669242E+03</pdfrwt>
<totfact> 0.35599119E+01</totfact>
</mgrwt>
</event>
<event>
 6    1  0.1412458E-005  0.1025039E+04  0.7818608E-02  0.9727188E-01
         21   -1    0    0  501  502  0.00000000000E+00  0.00000000000E+00  0.70532853892E+03  0.70532853892E+03  0.00000000000E+00 0.  1.
          4   -1    0    0  502    0 -0.00000000000E+00 -0.00000000000E+00 -0.55758166718E+03  0.55758166718E+03  0.00000000000E+00 0.  1.
    9000010    2    1    2  501    0 -0.20900650571E+03 -0.53092801883E+02  0.19175636186E+03  0.10428206529E+04  0.10020987211E+04 0.  0.
        -13    1    3    3    0    0  0.46740892986E+02 -0.42486722837E+03 -0.17446535236E+03  0.46166551003E+03  0.10566000000E+00 0.  1.
          4    1    3    3  501    0 -0.25574739869E+03  0.37177442648E+03  0.36622171422E+03  0.58115514287E+03  0.00000000000E+00 0.  1.
         13    1    1    2    0    0  0.20900650571E+03  0.53092801883E+02 -0.44009490125E+02  0.22008955319E+03  0.10566000000E+00 0. -1.
<mgrwt>
<rscale>  1 0.69420835E+03</rscale>
<asrwt>0</asrwt>
<pdfrwt beam="1">  1       21 0.10851208E+00 0.10250387E+04</pdfrwt>
<pdfrwt beam="2">  1        4 0.85781795E-01 0.10250387E+04</pdfrwt>
<totfact> 0.29720812E+01</totfact>
</mgrwt>
</event>
<event>
 6    1  0.1412458E-005  0.9478194E+03  0.7818608E-02  0.1030982E+00
         21   -1    0    0  501  502  0.00000000000E+00  0.00000000000E+00  0.14619506519E+04  0.14619506519E+04  0.00000000000E+00 0.  1.
          4   -1    0    0  502    0 -0.00000000000E+00 -0.00000000000E+00 -0.18288360746E+03  0.18288360746E+03  0.00000000000E+00 0.  1.
    9000010    2    1    2  501    0 -0.43517608865E+02  0.41206093629E+01  0.12890429967E+04  0.15999979739E+04  0.94681091433E+03 0.  0.
        -13    1    3    3    0    0  0.11326150766E+03 -0.42730287814E+03  0.38548658667E+03  0.58652863395E+03  0.10566000000E+00 0.  1.
          4    1    3    3  501    0 -0.15677911653E+03  0.43142348750E+03  0.90355640999E+03  0.10134693399E+04  0.00000000000E+00 0.  1.
         13    1    1    2    0    0  0.43517608865E+02 -0.41206093629E+01 -0.99759522635E+01  0.44836285422E+02  0.10566000000E+00 0. -1.
<mgrwt>
<rscale>  1 0.43923338E+03</rscale>
<asrwt>0</asrwt>
<pdfrwt beam="1">  1       21 0.22491548E+00 0.94781943E+03</pdfrwt>
<pdfrwt beam="2">  1        4 0.28135941E-01 0.94781943E+03</pdfrwt>
<totfact> 0.39061789E+01</totfact>
</mgrwt>
</event>
<event>
 6    1  0.1412458E-005  0.1090226E+04  0.7818608E-02  0.9717847E-01
         21   -1    0    0  501  502  0.00000000000E+00  0.00000000000E+00  0.40172349385E+03  0.40172349385E+03  0.00000000000E+00 0.  1.
          4   -1    0    0  502    0 -0.00000000000E+00 -0.00000000000E+00 -0.10182154049E+04  0.10182154049E+04  0.00000000000E+00 0.  1.
    9000010    2    1    2  501    0 -0.17692752478E+03  0.53730442228E+02 -0.48612267064E+03  0.11936946514E+04  0.10744307146E+04 0.  0.
        -13    1    3    3    0    0  0.13386672418E+03  0.31801121522E+03 -0.66426337158E+03  0.74853007343E+03  0.10566000000E+00 0.  1.
          4    1    3    3  501    0 -0.31079424897E+03 -0.26428077299E+03  0.17814070094E+03  0.44516457799E+03  0.00000000000E+00 0.  1.
         13    1    1    2    0    0  0.17692752478E+03 -0.53730442228E+02 -0.13036924046E+03  0.22624424737E+03  0.10566000000E+00 0. -1.
<mgrwt>
<rscale>  1 0.69964084E+03</rscale>
<asrwt>0</asrwt>
<pdfrwt beam="1">  1       21 0.61803615E-01 0.10902255E+04</pdfrwt>
<pdfrwt beam="2">  1        4 0.15664852E+00 0.10902255E+04</pdfrwt>
<totfact> 0.24844126E+01</totfact>
</mgrwt>
</event>
<event>
 6    1  0.1412458E-005  0.1010138E+04  0.7818608E-02  0.1028012E+00
         21   -1    0    0  501  502  0.00000000000E+00  0.00000000000E+00  0.70610081784E+03  0.70610081784E+03  0.00000000000E+00 0.  1.
          4   -1    0    0  502    0 -0.00000000000E+00 -0.00000000000E+00 -0.39116581961E+03  0.39116581961E+03  0.00000000000E+00 0.  1.
    9000010    2    1    2  501    0 -0.25374722940E+02 -0.30194584476E+02  0.29136477326E+03  0.10513193180E+04  0.10093677664E+04 0.  0.
        -13    1    3    3    0    0  0.48593198482E+03 -0.40082008229E+02  0.64407574072E+02  0.49181786061E+03  0.10566000000E+00 0.  1.
          4    1    3    3  501    0 -0.51130670776E+03  0.98874237524E+01  0.22695719919E+03  0.55950145738E+03  0.00000000000E+00 0.  1.
         13    1    1    2    0    0  0.25374722940E+02  0.30194584476E+02  0.23570224967E+02  0.45947319454E+02  0.10566000000E+00 0. -1.
<mgrwt>
<rscale>  1 0.44902742E+03</rscale>
<asrwt>0</asrwt>
<pdfrwt beam="1">  1       21 0.10863089E+00 0.10101380E+04</pdfrwt>
<pdfrwt beam="2">  1        4 0.60179357E-01 0.10101380E+04</pdfrwt>
<totfact> 0.65941277E+01</totfact>
</mgrwt>
</event>
<event>
 6    1  0.1412458E-005  0.9842536E+03  0.7818608E-02  0.1016365E+00
         21   -1    0    0  501  502  0.00000000000E+00  0.00000000000E+00  0.23579312684E+04  0.23579312684E+04  0.00000000000E+00 0.  1.
          4   -1    0    0  502    0 -0.00000000000E+00 -0.00000000000E+00 -0.16910007570E+03  0.16910007570E+03  0.00000000000E+00 0.  1.
    9000010    2    1    2  501    0 -0.57719445549E+02  0.18349451630E+02  0.22406658923E+04  0.24473125633E+04  0.98238836756E+03 0.  0.
        -13    1    3    3    0    0 -0.14064423480E+03  0.17068586561E+03  0.22423828049E+02  0.22230003313E+03  0.10566000000E+00 0.  1.
          4    1    3    3  501    0  0.82924789250E+02 -0.15233641398E+03  0.22182420643E+04  0.22250125302E+04  0.00000000000E+00 0.  1.
         13    1    1    2    0    0  0.57719445549E+02 -0.18349451630E+02 -0.51834699591E+02  0.79718780820E+02  0.10566000000E+00 0. -1.
<mgrwt>
<rscale>  1 0.49021613E+03</rscale>
<asrwt>0</asrwt>
<pdfrwt beam="1">  1       21 0.36275863E+00 0.98425360E+03</pdfrwt>
<pdfrwt beam="2">  1        4 0.26015398E-01 0.98425360E+03</pdfrwt>
<totfact> 0.61352762E+00</totfact>
</mgrwt>
</event>
<event>
 6    1  0.1412458E-005  0.1081664E+04  0.7818608E-02  0.9481768E-01
          4   -1    0    0  502    0 -0.00000000000E+00  0.00000000000E+00  0.65695659406E+03  0.65695659406E+03  0.00000000000E+00 0.  1.
         21   -1    0    0  501  502  0.00000000000E+00 -0.00000000000E+00 -0.86530141045E+03  0.86530141045E+03  0.00000000000E+00 0.  1.
    9000010    2    1    2  501    0 -0.18439084173E+03  0.38299258565E+03 -0.17682667444E+03  0.10960224973E+04  0.99464281962E+03 0.  0.
        -13    1    3    3    0    0 -0.44896553935E+03  0.35375725913E+03 -0.44028584685E+03  0.72150252391E+03  0.10566000000E+00 0.  1.
          4    1    3    3  501    0  0.26457469762E+03  0.29235326520E+02  0.26345917241E+03  0.37451997339E+03  0.00000000000E+00 0.  1.
         13    1    1    2    0    0  0.18439084173E+03 -0.38299258565E+03 -0.31518141956E+02  0.42623550722E+03  0.10566000000E+00 0. -1.
<mgrwt>
<rscale>  1 0.85641473E+03</rscale>
<asrwt>0</asrwt>
<pdfrwt beam="2">  1       21 0.13312329E+00 0.10816643E+04</pdfrwt>
<pdfrwt beam="1">  1        4 0.10107025E+00 0.10816643E+04</pdfrwt>
<totfact> 0.11770231E+01</totfact>
</mgrwt>
</event>
<event>
 6    1  0.1412458E-005  0.1022359E+04  0.7818608E-02  0.9719014E-01
          4   -1    0    0  502    0 -0.00000000000E+00  0.00000000000E+00  0.12498416358E+04  0.12498416358E+04  0.00000000000E+00 0.  1.
         21   -1    0    0  501  502  0.00000000000E+00 -0.00000000000E+00 -0.31533267628E+03  0.31533267628E+03  0.00000000000E+00 0.  1.
    9000010    2    1    2  501    0  0.21281340460E+03 -0.67809309748E+02  0.68676509985E+03  0.12316107067E+04  0.99766276006E+03 0.  0.
        -13    1    3    3    0    0  0.66439525909E+01 -0.49333823927E+03  0.14869971754E+03  0.51530416027E+03  0.10566000000E+00 0.  1.
          4    1    3    3  501    0  0.20616945201E+03  0.42552892953E+03  0.53806538231E+03  0.71630654642E+03  0.00000000000E+00 0.  1.
         13    1    1    2    0    0 -0.21281340460E+03  0.67809309748E+02  0.24774385968E+03  0.33356360539E+03  0.10566000000E+00 0. -1.
<mgrwt>
<rscale>  1 0.69895919E+03</rscale>
<asrwt>0</asrwt>
<pdfrwt beam="2">  1       21 0.48512720E-01 0.10223593E+04</pdfrwt>
<pdfrwt beam="1">  1        4 0.19228333E+00 0.10223593E+04</pdfrwt>
<totfact> 0.23716489E+01</totfact>
</mgrwt>
</event>
<event>
 6    1  0.1412458E-005  0.1134661E+04  0.7818608E-02  0.9400063E-01
         21   -1    0    0  501  502  0.00000000000E+00  0.00000000000E+00  0.53324975102E+03  0.53324975102E+03  0.00000000000E+00 0. -1.
          4   -1    0    0  502    0 -0.00000000000E+00 -0.00000000000E+00 -0.14238583300E+04  0.14238583300E+04  0.00000000000E+00 0.  1.
    9000010    2    1    2  501    0  0.12258793496E+02  0.49175348481E+03 -0.27208517833E+03  0.11668277661E+04  0.10224895714E+04 0.  0.
        -13    1    3    3    0    0  0.26267029903E+03  0.48948647139E+03 -0.55757393728E+03  0.78707140614E+03  0.10566000000E+00 0.  1.
          4    1    3    3  501    0 -0.25041150554E+03  0.22670134260E+01  0.28548875894E+03  0.37975635997E+03  0.00000000000E+00 0.  1.
         13    1    1    2    0    0 -0.12258793496E+02 -0.49175348481E+03 -0.61852340069E+03  0.79028031496E+03  0.10566000000E+00 0. -1.
<mgrwt>
<rscale>  1 0.92070463E+03</rscale>
<asrwt>0</asrwt>
<pdfrwt beam="1">  1       21 0.82038424E-01 0.11346615E+04</pdfrwt>
<pdfrwt beam="2">  1        4 0.21905513E+00 0.11346615E+04</pdfrwt>
<totfact> 0.47823733E+00</totfact>
</mgrwt>
</event>
<event>
 6    1  0.1412458E-005  0.1190832E+04  0.7818608E-02  0.9275427E-01
         21   -1    0    0  501  502  0.00000000000E+00  0.00000000000E+00  0.57650245815E+03  0.57650245815E+03  0.00000000000E+00 0. -1.
          4   -1    0    0  502    0 -0.00000000000E+00 -0.00000000000E+00 -0.15816244530E+04  0.15816244530E+04  0.00000000000E+00 0.  1.
    9000010    2    1    2  501    0  0.17075131386E+03  0.64631257263E+03 -0.87338875298E+03  0.14767829372E+04  0.98549681735E+03 0.  0.
        -13    1    3    3    0    0 -0.41040166934E+03  0.19188983180E+03 -0.32513384679E+03  0.55764080485E+03  0.10566000000E+00 0.  1.
          4    1    3    3  501    0  0.58115298321E+03  0.45442274083E+03 -0.54825490619E+03  0.91914213233E+03  0.00000000000E+00 0.  1.
         13    1    1    2    0    0 -0.17075131386E+03 -0.64631257263E+03 -0.13173324191E+03  0.68134397400E+03  0.10566000000E+00 0. -1.
<mgrwt>
<rscale>  1 0.10307686E+04</rscale>
<asrwt>0</asrwt>
<pdfrwt beam="1">  1       21 0.88692687E-01 0.11908316E+04</pdfrwt>
<pdfrwt beam="2">  1        4 0.24332684E+00 0.11908316E+04</pdfrwt>
<totfact> 0.27686932E+00</totfact>
</mgrwt>
</event>
<event>
 6    1  0.1412458E-005  0.1089073E+04  0.7818608E-02  0.9716788E-01
         21   -1    0    0  501  502  0.00000000000E+00  0.00000000000E+00  0.37605937839E+03  0.37605937839E+03  0.00000000000E+00 0.  1.
          4   -1    0    0  502    0 -0.00000000000E+00 -0.00000000000E+00 -0.14037876232E+04  0.14037876232E+04  0.00000000000E+00 0.  1.
    9000010    2    1    2  501    0 -0.63794723935E+02  0.17487892192E+03 -0.45974280118E+03  0.11821347970E+04  0.10730455866E+04 0.  0.
        -13    1    3    3    0    0 -0.63783952022E+02  0.89736939048E+02 -0.81215502616E+03  0.81958337492E+03  0.10566000000E+00 0.  1.
          4    1    3    3  501    0 -0.10771912965E-01  0.85141982872E+02  0.35241222498E+03  0.36255142212E+03  0.00000000000E+00 0.  1.
         13    1    1    2    0    0  0.63794723935E+02 -0.17487892192E+03 -0.56798544367E+03  0.59771220459E+03  0.10566000000E+00 0. -1.
<mgrwt>
<rscale>  1 0.70026001E+03</rscale>
<asrwt>0</asrwt>
<pdfrwt beam="1">  1       21 0.57855288E-01 0.10890726E+04</pdfrwt>
<pdfrwt beam="2">  1        4 0.21596733E+00 0.10890726E+04</pdfrwt>
<totfact> 0.11200412E+01</totfact>
</mgrwt>
</event>
<event>
 6    1  0.1412458E-005  0.1014913E+04  0.7818608E-02  0.9876479E-01
         21   -1    0    0  501  502  0.00000000000E+00  0.00000000000E+00  0.17748383510E+04  0.17748383510E+04  0.00000000000E+00 0. -1.
          4   -1    0    0  502    0 -0.00000000000E+00 -0.00000000000E+00 -0.24194635366E+03  0.24194635366E+03  0.00000000000E+00 0.  1.
    9000010    2    1    2  501    0  0.12946300171E+03  0.41931769841E+02  0.86003411664E+03  0.13303033277E+04  0.10057481393E+04 0.  0.
        -13    1    3    3    0    0 -0.21667735647E+03  0.42132870236E+03  0.56745824573E+03  0.73924003142E+03  0.10566000000E+00 0.  1.
          4    1    3    3  501    0  0.34614035818E+03 -0.37939693252E+03  0.29257587090E+03  0.59106329627E+03  0.00000000000E+00 0.  1.
         13    1    1    2    0    0 -0.12946300171E+03 -0.41931769841E+02  0.67285788075E+03  0.68648137701E+03  0.10566000000E+00 0. -1.
<mgrwt>
<rscale>  1 0.61414893E+03</rscale>
<asrwt>0</asrwt>
<pdfrwt beam="1">  1       21 0.27305205E+00 0.10149129E+04</pdfrwt>
<pdfrwt beam="2">  1        4 0.37222517E-01 0.10149129E+04</pdfrwt>
<totfact> 0.10979268E+01</totfact>
</mgrwt>
</event>
<event>
 6    1  0.1412458E-005  0.1133205E+04  0.7818608E-02  0.9370144E-01
         21   -1    0    0  501  502  0.00000000000E+00  0.00000000000E+00  0.91494740145E+03  0.91494740145E+03  0.00000000000E+00 0. -1.
          4   -1    0    0  502    0 -0.00000000000E+00 -0.00000000000E+00 -0.82452167443E+03  0.82452167443E+03  0.00000000000E+00 0.  1.
    9000010    2    1    2  501    0 -0.37718135737E+03  0.39994190453E+03  0.26290447788E+03  0.11633022303E+04  0.99092583530E+03 0.  0.
        -13    1    3    3    0    0  0.33940939855E+03  0.89525207897E+02  0.56354180301E+02  0.35551273883E+03  0.10566000000E+00 0.  1.
          4    1    3    3  501    0 -0.71659075592E+03  0.31041669663E+03  0.20655029758E+03  0.80778949142E+03  0.00000000000E+00 0.  1.
         13    1    1    2    0    0  0.37718135737E+03 -0.39994190453E+03 -0.17247875086E+03  0.57616684563E+03  0.10566000000E+00 0. -1.
<mgrwt>
<rscale>  1 0.94573967E+03</rscale>
<asrwt>0</asrwt>
<pdfrwt beam="1">  1       21 0.14076114E+00 0.11332049E+04</pdfrwt>
<pdfrwt beam="2">  1        4 0.12684949E+00 0.11332049E+04</pdfrwt>
<totfact> 0.57197216E+00</totfact>
</mgrwt>
</event>
<event>
 6    1  0.1412458E-005  0.9911321E+03  0.7818608E-02  0.1021502E+00
         21   -1    0    0  501  502  0.00000000000E+00  0.00000000000E+00  0.10668208082E+04  0.10668208082E+04  0.00000000000E+00 0.  1.
          4   -1    0    0  502    0 -0.00000000000E+00 -0.00000000000E+00 -0.26318616605E+03  0.26318616605E+03  0.00000000000E+00 0.  1.
    9000010    2    1    2  501    0 -0.78647131489E+01 -0.50141454850E+02  0.80843344024E+03  0.12790260088E+04  0.98983174566E+03 0.  0.
        -13    1    3    3    0    0 -0.30531877687E+03 -0.38769593129E+03  0.22524758462E+03  0.54246122091E+03  0.10566000000E+00 0.  1.
          4    1    3    3  501    0  0.29745406372E+03  0.33755447644E+03  0.58318585562E+03  0.73656478791E+03  0.00000000000E+00 0.  1.
         13    1    1    2    0    0  0.78647131489E+01  0.50141454850E+02 -0.47987981154E+01  0.50980965417E+02  0.10566000000E+00 0. -1.
<mgrwt>
<rscale>  1 0.47148463E+03</rscale>
<asrwt>0</asrwt>
<pdfrwt beam="1">  1       21 0.16412628E+00 0.99113213E+03</pdfrwt>
<pdfrwt beam="2">  1        4 0.40490180E-01 0.99113213E+03</pdfrwt>
<totfact> 0.50222473E+01</totfact>
</mgrwt>
</event>
<event>
 6    1  0.1412458E-005  0.1047902E+04  0.7818608E-02  0.9609797E-01
         21   -1    0    0  501  502  0.00000000000E+00  0.00000000000E+00  0.69436959231E+03  0.69436959231E+03  0.00000000000E+00 0.  1.
          4   -1    0    0  502    0 -0.00000000000E+00 -0.00000000000E+00 -0.11155288733E+04  0.11155288733E+04  0.00000000000E+00 0.  1.
    9000010    2    1    2  501    0 -0.19421951162E+03  0.22863732586E+03  0.24775626663E+03  0.10767925616E+04  0.10040432300E+04 0.  0.
        -13    1    3    3    0    0 -0.13652107740E+03  0.59209499983E+03 -0.41012439832E+02  0.60901274599E+03  0.10566000000E+00 0.  1.
          4    1    3    3  501    0 -0.57698434224E+02 -0.36345767397E+03  0.28876870646E+03  0.46777981562E+03  0.00000000000E+00 0.  1.
         13    1    1    2    0    0  0.19421951162E+03 -0.22863732586E+03 -0.66891554763E+03  0.73310590401E+03  0.10566000000E+00 0. -1.
<mgrwt>
<rscale>  1 0.76651141E+03</rscale>
<asrwt>0</asrwt>
<pdfrwt beam="1">  1       21 0.10682609E+00 0.10479022E+04</pdfrwt>
<pdfrwt beam="2">  1        4 0.17161983E+00 0.10479022E+04</pdfrwt>
<totfact> 0.52880596E+00</totfact>
</mgrwt>
</event>
<event>
 6    1  0.1412458E-005  0.1019677E+04  0.7818608E-02  0.9731134E-01
          4   -1    0    0  502    0 -0.00000000000E+00  0.00000000000E+00  0.54611057531E+03  0.54611057531E+03  0.00000000000E+00 0.  1.
         21   -1    0    0  501  502  0.00000000000E+00 -0.00000000000E+00 -0.71328916399E+03  0.71328916399E+03  0.00000000000E+00 0.  1.
    9000010    2    1    2  501    0  0.21482396963E+03 -0.24371998822E+02 -0.20454945869E+03  0.10399916142E+04  0.99649322345E+03 0.  0.
        -13    1    3    3    0    0  0.11608623250E+03 -0.46248343657E+03  0.11291220785E+03  0.49001644903E+03  0.10566000000E+00 0.  1.
          4    1    3    3  501    0  0.98737737126E+02  0.43811143774E+03 -0.31746166654E+03  0.54997516520E+03  0.00000000000E+00 0.  1.
         13    1    1    2    0    0 -0.21482396963E+03  0.24371998822E+02  0.37370870017E+02  0.21940812506E+03  0.10566000000E+00 0. -1.
<mgrwt>
<rscale>  1 0.69192987E+03</rscale>
<asrwt>0</asrwt>
<pdfrwt beam="2">  1       21 0.10973679E+00 0.10196774E+04</pdfrwt>
<pdfrwt beam="1">  1        4 0.84017011E-01 0.10196774E+04</pdfrwt>
<totfact> 0.30333918E+01</totfact>
</mgrwt>
</event>
<event>
 6    1  0.1412458E-005  0.1104533E+04  0.7818608E-02  0.9436621E-01
          4   -1    0    0  502    0 -0.00000000000E+00  0.00000000000E+00  0.25664810907E+04  0.25664810907E+04  0.00000000000E+00 0.  1.
         21   -1    0    0  501  502  0.00000000000E+00 -0.00000000000E+00 -0.24530112247E+03  0.24530112247E+03  0.00000000000E+00 0. -1.
    9000010    2    1    2  501    0  0.37494996808E+03 -0.28035834667E+03  0.14499915620E+04  0.18227637444E+04  0.10004018478E+04 0.  0.
        -13    1    3    3    0    0  0.16407688405E+03  0.68633919706E+02 -0.11083026389E+03  0.20955953181E+03  0.10566000000E+00 0.  1.
          4    1    3    3  501    0  0.21087308403E+03 -0.34899226638E+03  0.15608218259E+04  0.16132042126E+04  0.00000000000E+00 0.  1.
         13    1    1    2    0    0 -0.37494996808E+03  0.28035834667E+03  0.87118840621E+03  0.98901846868E+03  0.10566000000E+00 0. -1.
<mgrwt>
<rscale>  1 0.89122232E+03</rscale>
<asrwt>0</asrwt>
<pdfrwt beam="2">  1       21 0.37738636E-01 0.11045325E+04</pdfrwt>
<pdfrwt beam="1">  1        4 0.39484323E+00 0.11045325E+04</pdfrwt>
<totfact> 0.20289546E+00</totfact>
</mgrwt>
</event>
<event>
 6    1  0.1412458E-005  0.1011630E+04  0.7818608E-02  0.9785856E-01
         21   -1    0    0  501  502  0.00000000000E+00  0.00000000000E+00  0.61958896313E+03  0.61958896313E+03  0.00000000000E+00 0.  1.
          4   -1    0    0  502    0 -0.00000000000E+00 -0.00000000000E+00 -0.60819442159E+03  0.60819442159E+03  0.00000000000E+00 0.  1.
    9000010    2    1    2  501    0  0.12631668456E+03  0.13474486857E+03  0.11141103722E+03  0.10177467332E+04  0.99462752291E+03 0.  0.
        -13    1    3    3    0    0  0.48292231748E+02  0.10105699510E+03  0.55494966441E+03  0.56613937957E+03  0.10566000000E+00 0.  1.
          4    1    3    3  501    0  0.78024452810E+02  0.33687873477E+02 -0.44353862719E+03  0.45160735364E+03  0.00000000000E+00 0.  1.
         13    1    1    2    0    0 -0.12631668456E+03 -0.13474486857E+03 -0.10001649568E+03  0.21003665151E+03  0.10566000000E+00 0. -1.
<mgrwt>
<rscale>  1 0.66127171E+03</rscale>
<asrwt>0</asrwt>
<pdfrwt beam="1">  1       21 0.95321379E-01 0.10116304E+04</pdfrwt>
<pdfrwt beam="2">  1        4 0.93568372E-01 0.10116304E+04</pdfrwt>
<totfact> 0.33503510E+01</totfact>
</mgrwt>
</event>
<event>
 6    1  0.1412458E-005  0.1112283E+04  0.7818608E-02  0.9408343E-01
         21   -1    0    0  501  502  0.00000000000E+00  0.00000000000E+00  0.24535906229E+03  0.24535906229E+03  0.00000000000E+00 0. -1.
          4   -1    0    0  502    0 -0.00000000000E+00 -0.00000000000E+00 -0.26764750202E+04  0.26764750202E+04  0.00000000000E+00 0.  1.
    9000010    2    1    2  501    0 -0.49837113106E+03 -0.93041399840E+02 -0.16113643990E+04  0.19579756303E+04  0.99002164425E+03 0.  0.
        -13    1    3    3    0    0  0.18487784049E+02  0.20456489354E+03  0.33689135856E+02  0.20814313072E+03  0.10566000000E+00 0.  1.
          4    1    3    3  501    0 -0.51685891511E+03 -0.29760629338E+03 -0.16450535349E+04  0.17498324996E+04  0.00000000000E+00 0.  1.
         13    1    1    2    0    0  0.49837113106E+03  0.93041399840E+02 -0.81975155889E+03  0.96385845217E+03  0.10566000000E+00 0. -1.
<mgrwt>
<rscale>  1 0.91392286E+03</rscale>
<asrwt>0</asrwt>
<pdfrwt beam="1">  1       21 0.37747547E-01 0.11122829E+04</pdfrwt>
<pdfrwt beam="2">  1        4 0.41176540E+00 0.11122829E+04</pdfrwt>
<totfact> 0.15439492E+00</totfact>
</mgrwt>
</event>
<event>
 6    1  0.1412458E-005  0.1005945E+04  0.7818608E-02  0.1026378E+00
         21   -1    0    0  501  502  0.00000000000E+00  0.00000000000E+00  0.22296749032E+04  0.22296749032E+04  0.00000000000E+00 0.  1.
          4   -1    0    0  502    0 -0.00000000000E+00 -0.00000000000E+00 -0.12562812220E+03  0.12562812220E+03  0.00000000000E+00 0.  1.
    9000010    2    1    2  501    0 -0.27760303621E+02 -0.31426706094E+02  0.20692686468E+04  0.23008254878E+04  0.10050706048E+04 0.  0.
        -13    1    3    3    0    0 -0.34124804977E+03  0.35012705251E+03  0.12753958535E+04  0.13658966940E+04  0.10566000000E+00 0.  1.
          4    1    3    3  501    0  0.31348774615E+03 -0.38155375860E+03  0.79387279327E+03  0.93492879386E+03  0.00000000000E+00 0.  1.
         13    1    1    2    0    0  0.27760303621E+02  0.31426706094E+02  0.34778134221E+02  0.54477537545E+02  0.10566000000E+00 0. -1.
<mgrwt>
<rscale>  1 0.45453441E+03</rscale>
<asrwt>0</asrwt>
<pdfrwt beam="1">  1       21 0.34302688E+00 0.10059449E+04</pdfrwt>
<pdfrwt beam="2">  1        4 0.19327405E-01 0.10059449E+04</pdfrwt>
<totfact> 0.14274429E+01</totfact>
</mgrwt>
</event>
<event>
 6    1  0.1412458E-005  0.1014522E+04  0.7818608E-02  0.9784465E-01
          4   -1    0    0  502    0 -0.00000000000E+00  0.00000000000E+00  0.86697164642E+03  0.86697164642E+03  0.00000000000E+00 0.  1.
         21   -1    0    0  501  502  0.00000000000E+00 -0.00000000000E+00 -0.77438954913E+03  0.77438954913E+03  0.00000000000E+00 0.  1.
    9000010    2    1    2  501    0  0.18253699125E+03  0.22837734099E+02 -0.41905124291E+03  0.10976609093E+04  0.99770447147E+03 0.  0.
        -13    1    3    3    0    0  0.40442491013E+03  0.29698612574E+03  0.57229226941E+02  0.50501035870E+03  0.10566000000E+00 0.  1.
          4    1    3    3  501    0 -0.22188791888E+03 -0.27414839164E+03 -0.47628046985E+03  0.59265055062E+03  0.00000000000E+00 0.  1.
         13    1    1    2    0    0 -0.18253699125E+03 -0.22837734099E+02  0.51163334020E+03  0.54370028623E+03  0.10566000000E+00 0. -1.
<mgrwt>
<rscale>  1 0.66202917E+03</rscale>
<asrwt>0</asrwt>
<pdfrwt beam="2">  1       21 0.11913685E+00 0.10145223E+04</pdfrwt>
<pdfrwt beam="1">  1        4 0.13338025E+00 0.10145223E+04</pdfrwt>
<totfact> 0.79451143E+00</totfact>
</mgrwt>
</event>
<event>
 6    1  0.1412458E-005  0.1124878E+04  0.7818608E-02  0.9423538E-01
         21   -1    0    0  501  502  0.00000000000E+00  0.00000000000E+00  0.57425923809E+03  0.57425923809E+03  0.00000000000E+00 0.  1.
          4   -1    0    0  502    0 -0.00000000000E+00 -0.00000000000E+00 -0.19681941172E+04  0.19681941172E+04  0.00000000000E+00 0.  1.
    9000010    2    1    2  501    0  0.45288408147E+03  0.10237510692E+03 -0.56032944222E+02  0.11262731929E+04  0.10245813586E+04 0.  0.
        -13    1    3    3    0    0  0.73569433951E+02  0.66573016225E+02 -0.51802574651E+03  0.52744204735E+03  0.10566000000E+00 0.  1.
          4    1    3    3  501    0  0.37931464752E+03  0.35802090690E+02  0.46199280229E+03  0.59883114556E+03  0.00000000000E+00 0.  1.
         13    1    1    2    0    0 -0.45288408147E+03 -0.10237510692E+03 -0.13379019348E+04  0.14161801623E+04  0.10566000000E+00 0. -1.
<mgrwt>
<rscale>  1 0.90163641E+03</rscale>
<asrwt>0</asrwt>
<pdfrwt beam="1">  1       21 0.88347573E-01 0.11248785E+04</pdfrwt>
<pdfrwt beam="2">  1        4 0.30279910E+00 0.11248785E+04</pdfrwt>
<totfact> 0.12072959E+00</totfact>
</mgrwt>
</event>
<event>
 6    1  0.1412458E-005  0.1175847E+04  0.7818608E-02  0.9294777E-01
          4   -1    0    0  502    0 -0.00000000000E+00  0.00000000000E+00  0.13086981682E+04  0.13086981682E+04  0.00000000000E+00 0.  1.
         21   -1    0    0  501  502  0.00000000000E+00 -0.00000000000E+00 -0.65118725534E+03  0.65118725534E+03  0.00000000000E+00 0.  1.
    9000010    2    1    2  501    0  0.43863336411E+03 -0.47537700084E+03  0.27202256021E+03  0.12069021553E+04  0.98195418337E+03 0.  0.
        -13    1    3    3    0    0  0.56646117332E+03  0.82863930762E+02  0.27291121623E+03  0.63421229491E+03  0.10566000000E+00 0.  1.
          4    1    3    3  501    0 -0.12782780921E+03 -0.55824093160E+03 -0.88865602410E+00  0.57268986042E+03  0.00000000000E+00 0.  1.
         13    1    1    2    0    0 -0.43863336411E+03  0.47537700084E+03  0.38548835270E+03  0.75298326825E+03  0.10566000000E+00 0. -1.
<mgrwt>
<rscale>  1 0.10126511E+04</rscale>
<asrwt>0</asrwt>
<pdfrwt beam="2">  1       21 0.10018266E+00 0.11758472E+04</pdfrwt>
<pdfrwt beam="1">  1        4 0.20133818E+00 0.11758472E+04</pdfrwt>
<totfact> 0.38224956E+00</totfact>
</mgrwt>
</event>
<event>
 6    1  0.1412458E-005  0.9509656E+03  0.7818608E-02  0.1000529E+00
          4   -1    0    0  502    0 -0.00000000000E+00  0.00000000000E+00  0.42543318846E+03  0.42543318846E+03  0.00000000000E+00 0.  1.
         21   -1    0    0  501  502  0.00000000000E+00 -0.00000000000E+00 -0.90094375602E+03  0.90094375602E+03  0.00000000000E+00 0.  1.
    9000010    2    1    2  501    0 -0.55121277179E+02  0.94827307289E+02 -0.62720979844E+03  0.11391785438E+04  0.94461899726E+03 0.  0.
        -13    1    3    3    0    0 -0.38435724748E+03  0.76413581539E+02 -0.69932089435E+03  0.80163536198E+03  0.10566000000E+00 0.  1.
          4    1    3    3  501    0  0.32923597030E+03  0.18413725750E+02  0.72111095913E+02  0.33754318181E+03  0.00000000000E+00 0.  1.
         13    1    1    2    0    0  0.55121277179E+02 -0.94827307289E+02  0.15169923088E+03  0.18719840069E+03  0.10566000000E+00 0. -1.
<mgrwt>
<rscale>  1 0.55419098E+03</rscale>
<asrwt>0</asrwt>
<pdfrwt beam="2">  1       21 0.13860673E+00 0.95096563E+03</pdfrwt>
<pdfrwt beam="1">  1        4 0.65451260E-01 0.95096563E+03</pdfrwt>
<totfact> 0.29184960E+01</totfact>
</mgrwt>
</event>
<event>
 6    1  0.1412458E-005  0.1014234E+04  0.7818608E-02  0.9920349E-01
          4   -1    0    0  502    0 -0.00000000000E+00  0.00000000000E+00  0.92724528393E+03  0.92724528393E+03  0.00000000000E+00 0.  1.
         21   -1    0    0  501  502  0.00000000000E+00 -0.00000000000E+00 -0.35143334542E+03  0.35143334542E+03  0.00000000000E+00 0.  1.
    9000010    2    1    2  501    0  0.11548965331E+03  0.26110562907E+02  0.46220693557E+03  0.11145880160E+04  0.10072991476E+04 0.  0.
        -13    1    3    3    0    0  0.38745952265E+03  0.24053941848E+03 -0.87988419685E+02  0.46446320274E+03  0.10566000000E+00 0.  1.
          4    1    3    3  501    0 -0.27196986934E+03 -0.21442885557E+03  0.55019535526E+03  0.65012481331E+03  0.00000000000E+00 0.  1.
         13    1    1    2    0    0 -0.11548965331E+03 -0.26110562907E+02  0.11360500294E+03  0.16409061330E+03  0.10566000000E+00 0. -1.
<mgrwt>
<rscale>  1 0.59285133E+03</rscale>
<asrwt>0</asrwt>
<pdfrwt beam="2">  1       21 0.54066669E-01 0.10142343E+04</pdfrwt>
<pdfrwt beam="1">  1        4 0.14265312E+00 0.10142343E+04</pdfrwt>
<totfact> 0.43245457E+01</totfact>
</mgrwt>
</event>
<event>
 6    1  0.1412458E-005  0.1170839E+04  0.7818608E-02  0.9317001E-01
         21   -1    0    0  501  502  0.00000000000E+00  0.00000000000E+00  0.79286973295E+03  0.79286973295E+03  0.00000000000E+00 0.  1.
          4   -1    0    0  502    0 -0.00000000000E+00 -0.00000000000E+00 -0.12926117252E+04  0.12926117252E+04  0.00000000000E+00 0.  1.
    9000010    2    1    2  501    0  0.38810038217E+03  0.46297526837E+03  0.17046286879E+03  0.11831829639E+04  0.10029438323E+04 0.  0.
        -13    1    3    3    0    0  0.54150100006E+03  0.17316862884E+03 -0.27380201179E+03  0.63101367648E+03  0.10566000000E+00 0.  1.
          4    1    3    3  501    0 -0.15340061789E+03  0.28980663953E+03  0.44426488059E+03  0.55216928745E+03  0.00000000000E+00 0.  1.
         13    1    1    2    0    0 -0.38810038217E+03 -0.46297526837E+03 -0.67020486108E+03  0.90229849426E+03  0.10566000000E+00 0. -1.
<mgrwt>
<rscale>  1 0.99232694E+03</rscale>
<asrwt>0</asrwt>
<pdfrwt beam="1">  1       21 0.12197996E+00 0.11708392E+04</pdfrwt>
<pdfrwt beam="2">  1        4 0.19886334E+00 0.11708392E+04</pdfrwt>
<totfact> 0.24044956E+00</totfact>
</mgrwt>
</event>
<event>
 6    1  0.1412458E-005  0.9869567E+03  0.7818608E-02  0.1004296E+00
          4   -1    0    0  502    0 -0.00000000000E+00  0.00000000000E+00  0.51360975524E+03  0.51360975524E+03  0.00000000000E+00 0.  1.
         21   -1    0    0  501  502  0.00000000000E+00 -0.00000000000E+00 -0.56170243623E+03  0.56170243623E+03  0.00000000000E+00 0.  1.
    9000010    2    1    2  501    0 -0.72644123954E+02  0.48202529025E+02 -0.40224467627E+02  0.98777607038E+03  0.98309862419E+03 0.  0.
        -13    1    3    3    0    0 -0.20033400866E+03  0.37350229293E+03  0.28471326859E+03  0.51058724458E+03  0.10566000000E+00 0.  1.
          4    1    3    3  501    0  0.12768988471E+03 -0.32529976391E+03 -0.32493773622E+03  0.47718882580E+03  0.00000000000E+00 0.  1.
         13    1    1    2    0    0  0.72644123954E+02 -0.48202529025E+02 -0.78682133608E+01  0.87536121087E+02  0.10566000000E+00 0. -1.
<mgrwt>
<rscale>  1 0.53805922E+03</rscale>
<asrwt>0</asrwt>
<pdfrwt beam="2">  1       21 0.86415760E-01 0.98695672E+03</pdfrwt>
<pdfrwt beam="1">  1        4 0.79016885E-01 0.98695672E+03</pdfrwt>
<totfact> 0.63116785E+01</totfact>
</mgrwt>
</event>
<event>
 6    1  0.1412458E-005  0.1076453E+04  0.7818608E-02  0.9591473E-01
         21   -1    0    0  501  502  0.00000000000E+00  0.00000000000E+00  0.49229536909E+03  0.49229536909E+03  0.00000000000E+00 0.  1.
          4   -1    0    0  502    0 -0.00000000000E+00 -0.00000000000E+00 -0.10489732793E+04  0.10489732793E+04  0.00000000000E+00 0.  1.
    9000010    2    1    2  501    0 -0.26751760063E+03  0.12356163319E+03 -0.22892713246E+03  0.11005264025E+04  0.10353345289E+04 0.  0.
        -13    1    3    3    0    0 -0.28585268508E+03 -0.35473238752E+03  0.16097126965E+03  0.48317552208E+03  0.10566000000E+00 0.  1.
          4    1    3    3  501    0  0.18335084454E+02  0.47829402072E+03 -0.38989840211E+03  0.61735088041E+03  0.00000000000E+00 0.  1.
         13    1    1    2    0    0  0.26751760063E+03 -0.12356163319E+03 -0.32775077776E+03  0.44074224591E+03  0.10566000000E+00 0. -1.
<mgrwt>
<rscale>  1 0.77863148E+03</rscale>
<asrwt>0</asrwt>
<pdfrwt beam="1">  1       21 0.75737750E-01 0.10764528E+04</pdfrwt>
<pdfrwt beam="2">  1        4 0.16138050E+00 0.10764528E+04</pdfrwt>
<totfact> 0.14398566E+01</totfact>
</mgrwt>
</event>
<event>
 6    1  0.1412458E-005  0.9867365E+03  0.7818608E-02  0.1023159E+00
          4   -1    0    0  502    0 -0.00000000000E+00  0.00000000000E+00  0.36669376939E+03  0.36669376939E+03  0.00000000000E+00 0.  1.
         21   -1    0    0  501  502  0.00000000000E+00 -0.00000000000E+00 -0.10762579744E+04  0.10762579744E+04  0.00000000000E+00 0.  1.
    9000010    2    1    2  501    0 -0.48529389933E+02  0.62547058199E+01 -0.84490124765E+03  0.12990408362E+04  0.98552257852E+03 0.  0.
        -13    1    3    3    0    0  0.22798748871E+03 -0.18632327405E+03  0.87868460105E+02  0.30727110978E+03  0.10566000000E+00 0.  1.
          4    1    3    3  501    0 -0.27651687864E+03  0.19257797987E+03 -0.93276970776E+03  0.99176972641E+03  0.00000000000E+00 0.  1.
         13    1    1    2    0    0  0.48529389933E+02 -0.62547058199E+01  0.13533704268E+03  0.14391090757E+03  0.10566000000E+00 0. -1.
<mgrwt>
<rscale>  1 0.46563620E+03</rscale>
<asrwt>0</asrwt>
<pdfrwt beam="2">  1       21 0.16557815E+00 0.98673653E+03</pdfrwt>
<pdfrwt beam="1">  1        4 0.56414426E-01 0.98673653E+03</pdfrwt>
<totfact> 0.24439473E+01</totfact>
</mgrwt>
</event>
<event>
 6    1  0.1412458E-005  0.1005730E+04  0.7818608E-02  0.1010935E+00
         21   -1    0    0  501  502  0.00000000000E+00  0.00000000000E+00  0.86592461381E+03  0.86592461381E+03  0.00000000000E+00 0.  1.
          4   -1    0    0  502    0 -0.00000000000E+00 -0.00000000000E+00 -0.44945352445E+03  0.44945352445E+03  0.00000000000E+00 0.  1.
    9000010    2    1    2  501    0 -0.61125353329E+02  0.27559766813E+02  0.56417786087E+03  0.11531648494E+04  0.10034922330E+04 0.  0.
        -13    1    3    3    0    0 -0.48463876505E+03 -0.13198724304E+03  0.11449742872E+03  0.51517476381E+03  0.10566000000E+00 0.  1.
          4    1    3    3  501    0  0.42351341172E+03  0.15954700986E+03  0.44968043215E+03  0.63799008560E+03  0.00000000000E+00 0.  1.
         13    1    1    2    0    0  0.61125353329E+02 -0.27559766813E+02 -0.14770677151E+03  0.16221328885E+03  0.10566000000E+00 0. -1.
<mgrwt>
<rscale>  1 0.51104908E+03</rscale>
<asrwt>0</asrwt>
<pdfrwt beam="1">  1       21 0.13321917E+00 0.10057298E+04</pdfrwt>
<pdfrwt beam="2">  1        4 0.69146696E-01 0.10057298E+04</pdfrwt>
<totfact> 0.28577589E+01</totfact>
</mgrwt>
</event>
<event>
 6    1  0.1412458E-005  0.1084721E+04  0.7818608E-02  0.9510766E-01
          4   -1    0    0  502    0 -0.00000000000E+00  0.00000000000E+00  0.12480738611E+04  0.12480738611E+04  0.00000000000E+00 0.  1.
         21   -1    0    0  501  502  0.00000000000E+00 -0.00000000000E+00 -0.43233245834E+03  0.43233245834E+03  0.00000000000E+00 0.  1.
    9000010    2    1    2  501    0  0.12174740674E+03 -0.36079830181E+03  0.65455222037E+03  0.12669092707E+04  0.10156882619E+04 0.  0.
        -13    1    3    3    0    0 -0.37049922906E+02 -0.70469452881E+03  0.41254014078E+03  0.81740837691E+03  0.10566000000E+00 0.  1.
          4    1    3    3  501    0  0.15879732965E+03  0.34389622700E+03  0.24201207959E+03  0.44950089379E+03  0.00000000000E+00 0.  1.
         13    1    1    2    0    0 -0.12174740674E+03  0.36079830181E+03  0.16118918238E+03  0.41349704874E+03  0.10566000000E+00 0. -1.
<mgrwt>
<rscale>  1 0.83494699E+03</rscale>
<asrwt>0</asrwt>
<pdfrwt beam="2">  1       21 0.66512686E-01 0.10847214E+04</pdfrwt>
<pdfrwt beam="1">  1        4 0.19201136E+00 0.10847214E+04</pdfrwt>
<totfact> 0.11780728E+01</totfact>
</mgrwt>
</event>
<event>
 6    1  0.1412458E-005  0.1031554E+04  0.7818608E-02  0.9667752E-01
          4   -1    0    0  502    0 -0.00000000000E+00  0.00000000000E+00  0.34341578108E+03  0.34341578108E+03  0.00000000000E+00 0.  1.
         21   -1    0    0  501  502  0.00000000000E+00 -0.00000000000E+00 -0.20268834798E+04  0.20268834798E+04  0.00000000000E+00 0.  1.
    9000010    2    1    2  501    0  0.19961449476E+03 -0.16390272493E+03 -0.18095200789E+04  0.20828983850E+04  0.99869550739E+03 0.  0.
        -13    1    3    3    0    0 -0.60722394216E+02 -0.46961393945E+03 -0.40819291871E+03  0.62517672008E+03  0.10566000000E+00 0.  1.
          4    1    3    3  501    0  0.26033688897E+03  0.30571121452E+03 -0.14013271602E+04  0.14577216649E+04  0.00000000000E+00 0.  1.
         13    1    1    2    0    0 -0.19961449476E+03  0.16390272493E+03  0.12605238018E+03  0.28740087590E+03  0.10566000000E+00 0. -1.
<mgrwt>
<rscale>  1 0.72969733E+03</rscale>
<asrwt>0</asrwt>
<pdfrwt beam="2">  1       21 0.31182822E+00 0.10315536E+04</pdfrwt>
<pdfrwt beam="1">  1        4 0.52833198E-01 0.10315536E+04</pdfrwt>
<totfact> 0.30371772E+00</totfact>
</mgrwt>
</event>
<event>
 6    1  0.1412458E-005  0.1005593E+04  0.7818608E-02  0.1041800E+00
         21   -1    0    0  501  502  0.00000000000E+00  0.00000000000E+00  0.55597424677E+03  0.55597424677E+03  0.00000000000E+00 0.  1.
          4   -1    0    0  502    0 -0.00000000000E+00 -0.00000000000E+00 -0.49175799933E+03  0.49175799933E+03  0.00000000000E+00 0.  1.
    9000010    2    1    2  501    0  0.26590614594E+02  0.19124741660E+01  0.91299465024E+02  0.10097292175E+04  0.10052396640E+04 0.  0.
        -13    1    3    3    0    0  0.10404720740E+02 -0.44426586966E+03  0.27975570954E+03  0.52511302531E+03  0.10566000000E+00 0.  1.
          4    1    3    3  501    0  0.16185893854E+02  0.44617834383E+03 -0.18845624452E+03  0.48461619222E+03  0.00000000000E+00 0.  1.
         13    1    1    2    0    0 -0.26590614594E+02 -0.19124741660E+01 -0.27083217581E+02  0.38003028570E+02  0.10566000000E+00 0. -1.
<mgrwt>
<rscale>  1 0.40576984E+03</rscale>
<asrwt>0</asrwt>
<pdfrwt beam="1">  1       21 0.85534500E-01 0.10055931E+04</pdfrwt>
<pdfrwt beam="2">  1        4 0.75655076E-01 0.10055931E+04</pdfrwt>
<totfact> 0.71326876E+01</totfact>
</mgrwt>
</event>
<event>
 6    1  0.1412458E-005  0.1135569E+04  0.7818608E-02  0.9357154E-01
          4   -1    0    0  502    0 -0.00000000000E+00  0.00000000000E+00  0.10160914644E+04  0.10160914644E+04  0.00000000000E+00 0.  1.
         21   -1    0    0  501  502  0.00000000000E+00 -0.00000000000E+00 -0.11409823047E+04  0.11409823047E+04  0.00000000000E+00 0. -1.
    9000010    2    1    2  501    0 -0.29472933599E+03 -0.49080535223E+03 -0.70936737955E+03  0.13389245703E+04  0.98069447362E+03 0.  0.
        -13    1    3    3    0    0 -0.44839834199E+03 -0.11400736075E+03 -0.79803070633E+03  0.92244879035E+03  0.10566000000E+00 0.  1.
          4    1    3    3  501    0  0.15366900600E+03 -0.37679799149E+03  0.88663326784E+02  0.41647577998E+03  0.00000000000E+00 0.  1.
         13    1    1    2    0    0  0.29472933599E+03  0.49080535223E+03  0.58447653933E+03  0.81814919878E+03  0.10566000000E+00 0. -1.
<mgrwt>
<rscale>  1 0.95687202E+03</rscale>
<asrwt>0</asrwt>
<pdfrwt beam="2">  1       21 0.17553574E+00 0.11355690E+04</pdfrwt>
<pdfrwt beam="1">  1        4 0.15632176E+00 0.11355690E+04</pdfrwt>
<totfact> 0.17544734E+00</totfact>
</mgrwt>
</event>
<event>
 6    1  0.1412458E-005  0.9877213E+03  0.7818608E-02  0.9752803E-01
          4   -1    0    0  502    0 -0.00000000000E+00  0.00000000000E+00  0.60056826766E+03  0.60056826766E+03  0.00000000000E+00 0.  1.
         21   -1    0    0  501  502  0.00000000000E+00 -0.00000000000E+00 -0.62179364479E+03  0.62179364479E+03  0.00000000000E+00 0.  1.
    9000010    2    1    2  501    0 -0.18085513442E+03 -0.12760524782E+03  0.52364662293E+02  0.98910843663E+03  0.96260155964E+03 0.  0.
        -13    1    3    3    0    0 -0.78759706002E+02 -0.44039290734E+03  0.33215451148E+03  0.55720340521E+03  0.10566000000E+00 0.  1.
          4    1    3    3  501    0 -0.10209542842E+03  0.31278765952E+03 -0.27978984918E+03  0.43190503141E+03  0.00000000000E+00 0.  1.
         13    1    1    2    0    0  0.18085513442E+03  0.12760524782E+03 -0.73590039430E+02  0.23325347583E+03  0.10566000000E+00 0. -1.
<mgrwt>
<rscale>  1 0.67958093E+03</rscale>
<asrwt>0</asrwt>
<pdfrwt beam="2">  1       21 0.95660561E-01 0.98772134E+03</pdfrwt>
<pdfrwt beam="1">  1        4 0.92395118E-01 0.98772134E+03</pdfrwt>
<totfact> 0.34294794E+01</totfact>
</mgrwt>
</event>
<event>
 6    1  0.1412458E-005  0.1071032E+04  0.7818608E-02  0.9525462E-01
         21   -1    0    0  501  502  0.00000000000E+00  0.00000000000E+00  0.70303891537E+03  0.70303891537E+03  0.00000000000E+00 0.  1.
          4   -1    0    0  502    0 -0.00000000000E+00 -0.00000000000E+00 -0.75935196351E+03  0.75935196351E+03  0.00000000000E+00 0.  1.
    9000010    2    1    2  501    0 -0.21192310023E+03  0.31037382528E+03  0.48804427816E+02  0.10721435128E+04  0.10029289746E+04 0.  0.
        -13    1    3    3    0    0  0.16650118187E+02  0.64970583109E+03 -0.48073325240E+02  0.65169467479E+03  0.10566000000E+00 0.  1.
          4    1    3    3  501    0 -0.22857321842E+03 -0.33933200581E+03  0.96877753055E+02  0.42044883801E+03  0.00000000000E+00 0.  1.
         13    1    1    2    0    0  0.21192310023E+03 -0.31037382528E+03 -0.10511747596E+03  0.39024736609E+03  0.10566000000E+00 0. -1.
<mgrwt>
<rscale>  1 0.82432385E+03</rscale>
<asrwt>0</asrwt>
<pdfrwt beam="1">  1       21 0.10815983E+00 0.10710321E+04</pdfrwt>
<pdfrwt beam="2">  1        4 0.11682338E+00 0.10710321E+04</pdfrwt>
<totfact> 0.14161011E+01</totfact>
</mgrwt>
</event>
<event>
 6    1  0.1412458E-005  0.9737290E+03  0.7818608E-02  0.9859552E-01
          4   -1    0    0  502    0 -0.00000000000E+00  0.00000000000E+00  0.26822015621E+03  0.26822015621E+03  0.00000000000E+00 0.  1.
         21   -1    0    0  501  502  0.00000000000E+00 -0.00000000000E+00 -0.13820635965E+04  0.13820635965E+04  0.00000000000E+00 0.  1.
    9000010    2    1    2  501    0 -0.13271470097E+03  0.94245544057E+02 -0.11240899537E+04  0.14871874112E+04  0.96002747751E+03 0.  0.
        -13    1    3    3    0    0  0.17220098847E+03  0.29045508828E+03 -0.35176107436E+02  0.33949183854E+03  0.10566000000E+00 0.  1.
          4    1    3    3  501    0 -0.30491568944E+03 -0.19620954422E+03 -0.10889138462E+04  0.11476955726E+04  0.00000000000E+00 0.  1.
         13    1    1    2    0    0  0.13271470097E+03 -0.94245544057E+02  0.10246513375E+02  0.16309634155E+03  0.10566000000E+00 0. -1.
<mgrwt>
<rscale>  1 0.62262269E+03</rscale>
<asrwt>0</asrwt>
<pdfrwt beam="2">  1       21 0.21262517E+00 0.97372900E+03</pdfrwt>
<pdfrwt beam="1">  1        4 0.41264639E-01 0.97372900E+03</pdfrwt>
<totfact> 0.21895612E+01</totfact>
</mgrwt>
</event>
<event>
 6    1  0.1412458E-005  0.9902927E+03  0.7818608E-02  0.9955085E-01
          4   -1    0    0  502    0 -0.00000000000E+00  0.00000000000E+00  0.16008243599E+03  0.16008243599E+03  0.00000000000E+00 0.  1.
         21   -1    0    0  501  502  0.00000000000E+00 -0.00000000000E+00 -0.21405511323E+04  0.21405511323E+04  0.00000000000E+00 0.  1.
    9000010    2    1    2  501    0  0.10882354324E+03 -0.33459956804E+02 -0.19429411046E+04  0.21807566999E+04  0.98372634199E+03 0.  0.
        -13    1    3    3    0    0 -0.31218832474E+02 -0.48318289219E+03 -0.69631114681E+03  0.84810939574E+03  0.10566000000E+00 0.  1.
          4    1    3    3  501    0  0.14004237571E+03  0.44972293539E+03 -0.12466299578E+04  0.13326473041E+04  0.00000000000E+00 0.  1.
         13    1    1    2    0    0 -0.10882354324E+03  0.33459956804E+02 -0.37527591699E+02  0.11987686839E+03  0.10566000000E+00 0. -1.
<mgrwt>
<rscale>  1 0.57664335E+03</rscale>
<asrwt>0</asrwt>
<pdfrwt beam="2">  1       21 0.32931555E+00 0.99029271E+03</pdfrwt>
<pdfrwt beam="1">  1        4 0.24628068E-01 0.99029271E+03</pdfrwt>
<totfact> 0.11057859E+01</totfact>
</mgrwt>
</event>
<event>
 6    1  0.1412458E-005  0.1136416E+04  0.7818608E-02  0.9372912E-01
          4   -1    0    0  502    0 -0.00000000000E+00  0.00000000000E+00  0.79369555986E+03  0.79369555986E+03  0.00000000000E+00 0.  1.
         21   -1    0    0  501  502  0.00000000000E+00 -0.00000000000E+00 -0.88867131404E+03  0.88867131404E+03  0.00000000000E+00 0.  1.
    9000010    2    1    2  501    0 -0.29128571357E+03 -0.45434059539E+03 -0.11556730787E+03  0.11422772824E+04  0.10000844183E+04 0.  0.
        -13    1    3    3    0    0 -0.45660572372E+03  0.17247509084E+03 -0.55960042495E+02  0.49129215485E+03  0.10566000000E+00 0.  1.
          4    1    3    3  501    0  0.16532001015E+03 -0.62681568623E+03 -0.59607265371E+02  0.65098512759E+03  0.00000000000E+00 0.  1.
         13    1    1    2    0    0  0.29128571357E+03  0.45434059539E+03  0.20591553679E+02  0.54008959146E+03  0.10566000000E+00 0. -1.
<mgrwt>
<rscale>  1 0.94338838E+03</rscale>
<asrwt>0</asrwt>
<pdfrwt beam="2">  1       21 0.13671866E+00 0.11364161E+04</pdfrwt>
<pdfrwt beam="1">  1        4 0.12210701E+00 0.11364161E+04</pdfrwt>
<totfact> 0.68228928E+00</totfact>
</mgrwt>
</event>
<event>
 6    1  0.1412458E-005  0.1038444E+04  0.7818608E-02  0.9687210E-01
         21   -1    0    0  501  502  0.00000000000E+00  0.00000000000E+00  0.55751613460E+03  0.55751613460E+03  0.00000000000E+00 0.  1.
          4   -1    0    0  502    0 -0.00000000000E+00 -0.00000000000E+00 -0.88186148317E+03  0.88186148317E+03  0.00000000000E+00 0.  1.
    9000010    2    1    2  501    0 -0.78044647964E+02  0.22389612323E+03 -0.10396969625E+01  0.10384449593E+04  0.10110125675E+04 0.  0.
        -13    1    3    3    0    0 -0.63247544175E+02  0.62925188749E+03 -0.14628594342E+02  0.63259165083E+03  0.10566000000E+00 0.  1.
          4    1    3    3  501    0 -0.14797103789E+02 -0.40535576426E+03  0.13588897379E+02  0.40585330852E+03  0.00000000000E+00 0.  1.
         13    1    1    2    0    0  0.78044647964E+02 -0.22389612323E+03 -0.32330565161E+03  0.40093265843E+03  0.10566000000E+00 0. -1.
<mgrwt>
<rscale>  1 0.71783436E+03</rscale>
<asrwt>0</asrwt>
<pdfrwt beam="1">  1       21 0.85771713E-01 0.10384444E+04</pdfrwt>
<pdfrwt beam="2">  1        4 0.13567100E+00 0.10384444E+04</pdfrwt>
<totfact> 0.17159754E+01</totfact>
</mgrwt>
</event>
<event>
 6    1  0.1412458E-005  0.1040685E+04  0.7818608E-02  0.9609651E-01
         21   -1    0    0  501  502  0.00000000000E+00  0.00000000000E+00  0.41730014507E+03  0.41730014507E+03  0.00000000000E+00 0.  1.
          4   -1    0    0  502    0 -0.00000000000E+00 -0.00000000000E+00 -0.16968226478E+04  0.16968226478E+04  0.00000000000E+00 0.  1.
    9000010    2    1    2  501    0  0.76787793105E+02  0.29665468180E+03 -0.29305936332E+03  0.10811610791E+04  0.99454769782E+03 0.  0.
        -13    1    3    3    0    0 -0.28358705130E+03  0.32059010188E+03  0.19799079757E+03  0.47159304085E+03  0.10566000000E+00 0.  1.
          4    1    3    3  501    0  0.36037484440E+03 -0.23935420083E+02 -0.49105016088E+03  0.60956803830E+03  0.00000000000E+00 0.  1.
         13    1    1    2    0    0 -0.76787793105E+02 -0.29665468180E+03 -0.98646313939E+03  0.10329617137E+04  0.10566000000E+00 0. -1.
<mgrwt>
<rscale>  1 0.76660725E+03</rscale>
<asrwt>0</asrwt>
<pdfrwt beam="1">  1       21 0.64200021E-01 0.10406851E+04</pdfrwt>
<pdfrwt beam="2">  1        4 0.26104964E+00 0.10406851E+04</pdfrwt>
<totfact> 0.46554440E+00</totfact>
</mgrwt>
</event>
<event>
 6    1  0.1412458E-005  0.1139386E+04  0.7818608E-02  0.9365670E-01
         21   -1    0    0  501  502  0.00000000000E+00  0.00000000000E+00  0.79328214470E+03  0.79328214470E+03  0.00000000000E+00 0.  1.
          4   -1    0    0  502    0 -0.00000000000E+00 -0.00000000000E+00 -0.92954792035E+03  0.92954792035E+03  0.00000000000E+00 0.  1.
    9000010    2    1    2  501    0  0.48743987382E+03 -0.25395544777E+03  0.55424991930E+02  0.11407335425E+04  0.99805314746E+03 0.  0.
        -13    1    3    3    0    0  0.36954858069E+03  0.32197699038E+03 -0.15852578817E+03  0.51513665420E+03  0.10566000000E+00 0.  1.
          4    1    3    3  501    0  0.11789129314E+03 -0.57593243816E+03  0.21395078010E+03  0.62559688828E+03  0.00000000000E+00 0.  1.
         13    1    1    2    0    0 -0.48743987382E+03  0.25395544777E+03 -0.19169076758E+03  0.58209652257E+03  0.10566000000E+00 0. -1.
<mgrwt>
<rscale>  1 0.94955574E+03</rscale>
<asrwt>0</asrwt>
<pdfrwt beam="1">  1       21 0.12204341E+00 0.11393863E+04</pdfrwt>
<pdfrwt beam="2">  1        4 0.14300737E+00 0.11393863E+04</pdfrwt>
<totfact> 0.61271486E+00</totfact>
</mgrwt>
</event>
<event>
 6    1  0.1412458E-005  0.9851095E+03  0.7818608E-02  0.9927201E-01
          4   -1    0    0  502    0 -0.00000000000E+00  0.00000000000E+00  0.35828496277E+03  0.35828496277E+03  0.00000000000E+00 0.  1.
         21   -1    0    0  501  502  0.00000000000E+00 -0.00000000000E+00 -0.12401480104E+04  0.12401480104E+04  0.00000000000E+00 0.  1.
    9000010    2    1    2  501    0 -0.72179373154E+02 -0.10378465629E+03 -0.10152706105E+04  0.14146431318E+04  0.97696451360E+03 0.  0.
        -13    1    3    3    0    0 -0.36007754127E+02  0.31340658017E+03  0.10092858524E+01  0.31546992357E+03  0.10566000000E+00 0.  1.
          4    1    3    3  501    0 -0.36171619027E+02 -0.41719123647E+03 -0.10162798964E+04  0.10991732082E+04  0.00000000000E+00 0.  1.
         13    1    1    2    0    0  0.72179373154E+02  0.10378465629E+03  0.13340756292E+03  0.18378984139E+03  0.10566000000E+00 0. -1.
<mgrwt>
<rscale>  1 0.58960929E+03</rscale>
<asrwt>0</asrwt>
<pdfrwt beam="2">  1       21 0.19079201E+00 0.98510953E+03</pdfrwt>
<pdfrwt beam="1">  1        4 0.55120762E-01 0.98510953E+03</pdfrwt>
<totfact> 0.16822239E+01</totfact>
</mgrwt>
</event>
<event>
 6    1  0.1412458E-005  0.1238322E+04  0.7818608E-02  0.9215101E-01
         21   -1    0    0  501  502  0.00000000000E+00  0.00000000000E+00  0.69379888959E+03  0.69379888959E+03  0.00000000000E+00 0. -1.
          4   -1    0    0  502    0 -0.00000000000E+00 -0.00000000000E+00 -0.14147754516E+04  0.14147754516E+04  0.00000000000E+00 0.  1.
    9000010    2    1    2  501    0  0.57904676695E+03  0.46568698917E+03 -0.44099665293E+03  0.13145036322E+04  0.99059690137E+03 0.  0.
        -13    1    3    3    0    0  0.74454340756E+03  0.31659384558E+03  0.12607826497E+02  0.80915728833E+03  0.10566000000E+00 0.  1.
          4    1    3    3  501    0 -0.16549664061E+03  0.14909314360E+03 -0.45360447943E+03  0.50534634388E+03  0.00000000000E+00 0.  1.
         13    1    1    2    0    0 -0.57904676695E+03 -0.46568698917E+03 -0.27997990910E+03  0.79407070899E+03  0.10566000000E+00 0. -1.
<mgrwt>
<rscale>  1 0.10898916E+04</rscale>
<asrwt>0</asrwt>
<pdfrwt beam="1">  1       21 0.10673829E+00 0.12383222E+04</pdfrwt>
<pdfrwt beam="2">  1        4 0.21765776E+00 0.12383222E+04</pdfrwt>
<totfact> 0.25315225E+00</totfact>
</mgrwt>
</event>
<event>
 6    1  0.1412458E-005  0.1111503E+04  0.7818608E-02  0.9403337E-01
         21   -1    0    0  501  502  0.00000000000E+00  0.00000000000E+00  0.56250996819E+03  0.56250996819E+03  0.00000000000E+00 0.  1.
          4   -1    0    0  502    0 -0.00000000000E+00 -0.00000000000E+00 -0.14402547312E+04  0.14402547312E+04  0.00000000000E+00 0.  1.
    9000010    2    1    2  501    0 -0.48821656815E+03 -0.17074393203E+03 -0.16734639379E+03  0.11240299488E+04  0.98383413366E+03 0.  0.
        -13    1    3    3    0    0 -0.55631189019E+03 -0.47864820825E+03  0.58409449806E+02  0.73620561083E+03  0.10566000000E+00 0.  1.
          4    1    3    3  501    0  0.68095322045E+02  0.30790427622E+03 -0.22575584360E+03  0.38782433797E+03  0.00000000000E+00 0.  1.
         13    1    1    2    0    0  0.48821656815E+03  0.17074393203E+03 -0.71039836917E+03  0.87873475055E+03  0.10566000000E+00 0. -1.
<mgrwt>
<rscale>  1 0.91801591E+03</rscale>
<asrwt>0</asrwt>
<pdfrwt beam="1">  1       21 0.86539995E-01 0.11115028E+04</pdfrwt>
<pdfrwt beam="2">  1        4 0.22157765E+00 0.11115028E+04</pdfrwt>
<totfact> 0.40678961E+00</totfact>
</mgrwt>
</event>
<event>
 6    1  0.1412458E-005  0.1032502E+04  0.7818608E-02  0.9667019E-01
         21   -1    0    0  501  502  0.00000000000E+00  0.00000000000E+00  0.48619479430E+03  0.48619479430E+03  0.00000000000E+00 0.  1.
          4   -1    0    0  502    0 -0.00000000000E+00 -0.00000000000E+00 -0.86259121099E+03  0.86259121099E+03  0.00000000000E+00 0.  1.
    9000010    2    1    2  501    0  0.15637579198E+03 -0.20547274806E+03 -0.25533595197E+03  0.10636052104E+04  0.99969353134E+03 0.  0.
        -13    1    3    3    0    0 -0.30474205631E+03 -0.20721461419E+03 -0.43375937655E+03  0.56916853842E+03  0.10566000000E+00 0.  1.
          4    1    3    3  501    0  0.46111784830E+03  0.17418661251E+01  0.17842342458E+03  0.49443667194E+03  0.00000000000E+00 0.  1.
         13    1    1    2    0    0 -0.15637579198E+03  0.20547274806E+03 -0.12106046472E+03  0.28518079493E+03  0.10566000000E+00 0. -1.
<mgrwt>
<rscale>  1 0.73014877E+03</rscale>
<asrwt>0</asrwt>
<pdfrwt beam="1">  1       21 0.74799200E-01 0.10325016E+04</pdfrwt>
<pdfrwt beam="2">  1        4 0.13270634E+00 0.10325016E+04</pdfrwt>
<totfact> 0.25096322E+01</totfact>
</mgrwt>
</event>
<event>
 6    1  0.1412458E-005  0.1021365E+04  0.7818608E-02  0.9821033E-01
         21   -1    0    0  501  502  0.00000000000E+00  0.00000000000E+00  0.64589839777E+03  0.64589839777E+03  0.00000000000E+00 0.  1.
          4   -1    0    0  502    0 -0.00000000000E+00 -0.00000000000E+00 -0.56591099233E+03  0.56591099233E+03  0.00000000000E+00 0.  1.
    9000010    2    1    2  501    0 -0.26821581382E+02  0.15763067105E+03 -0.22986924506E+02  0.10216238242E+04  0.10087715370E+04 0.  0.
        -13    1    3    3    0    0 -0.27783908327E+03  0.49874598557E+03  0.10220078064E+03  0.57998890079E+03  0.10566000000E+00 0.  1.
          4    1    3    3  501    0  0.25101750189E+03 -0.34111531452E+03 -0.12518770515E+03  0.44163492341E+03  0.00000000000E+00 0.  1.
         13    1    1    2    0    0  0.26821581382E+02 -0.15763067105E+03  0.10297432995E+03  0.19018556590E+03  0.10566000000E+00 0. -1.
<mgrwt>
<rscale>  1 0.64245907E+03</rscale>
<asrwt>0</asrwt>
<pdfrwt beam="1">  1       21 0.99368985E-01 0.10213652E+04</pdfrwt>
<pdfrwt beam="2">  1        4 0.87063229E-01 0.10213652E+04</pdfrwt>
<totfact> 0.35809294E+01</totfact>
</mgrwt>
</event>
<event>
 6    1  0.1412458E-005  0.1106838E+04  0.7818608E-02  0.9462041E-01
         21   -1    0    0  501  502  0.00000000000E+00  0.00000000000E+00  0.12315089494E+04  0.12315089494E+04  0.00000000000E+00 0. -1.
          4   -1    0    0  502    0 -0.00000000000E+00 -0.00000000000E+00 -0.68583393092E+03  0.68583393092E+03  0.00000000000E+00 0.  1.
    9000010    2    1    2  501    0 -0.33759064465E+03 -0.25858931316E+03 -0.13470105921E+03  0.11150041149E+04  0.10218874325E+04 0.  0.
        -13    1    3    3    0    0 -0.22133805238E+01  0.48197761034E+02 -0.51811658308E+03  0.52035826893E+03  0.10566000000E+00 0.  1.
          4    1    3    3  501    0 -0.33537726413E+03 -0.30678707419E+03  0.38341552387E+03  0.59464584597E+03  0.00000000000E+00 0.  1.
         13    1    1    2    0    0  0.33759064465E+03  0.25858931316E+03  0.68037607772E+03  0.80233876545E+03  0.10566000000E+00 0. -1.
<mgrwt>
<rscale>  1 0.87141214E+03</rscale>
<asrwt>0</asrwt>
<pdfrwt beam="1">  1       21 0.18946291E+00 0.11068377E+04</pdfrwt>
<pdfrwt beam="2">  1        4 0.10551291E+00 0.11068377E+04</pdfrwt>
<totfact> 0.38414864E+00</totfact>
</mgrwt>
</event>
<event>
 6    1  0.1412458E-005  0.1068905E+04  0.7818608E-02  0.9508144E-01
          4   -1    0    0  502    0 -0.00000000000E+00  0.00000000000E+00  0.13646382920E+04  0.13646382920E+04  0.00000000000E+00 0.  1.
         21   -1    0    0  501  502  0.00000000000E+00 -0.00000000000E+00 -0.54124625387E+03  0.54124625387E+03  0.00000000000E+00 0.  1.
    9000010    2    1    2  501    0  0.16384289784E+03  0.36665994254E+03  0.93733575498E+02  0.10730067086E+04  0.99059245141E+03 0.  0.
        -13    1    3    3    0    0 -0.23537529873E+03  0.57188730867E+03  0.83205656969E+02  0.62400305896E+03  0.10566000000E+00 0.  1.
          4    1    3    3  501    0  0.39921819657E+03 -0.20522736613E+03  0.10527918529E+02  0.44900364960E+03  0.00000000000E+00 0.  1.
         13    1    1    2    0    0 -0.16384289784E+03 -0.36665994254E+03  0.72965846264E+03  0.83287783732E+03  0.10566000000E+00 0. -1.
<mgrwt>
<rscale>  1 0.83686071E+03</rscale>
<asrwt>0</asrwt>
<pdfrwt beam="2">  1       21 0.83268655E-01 0.10689048E+04</pdfrwt>
<pdfrwt beam="1">  1        4 0.20994435E+00 0.10689048E+04</pdfrwt>
<totfact> 0.53273653E+00</totfact>
</mgrwt>
</event>
<event>
 6    1  0.1412458E-005  0.8971424E+03  0.7818608E-02  0.9649807E-01
          4   -1    0    0  502    0 -0.00000000000E+00  0.00000000000E+00  0.31224076746E+03  0.31224076746E+03  0.00000000000E+00 0.  1.
         21   -1    0    0  501  502  0.00000000000E+00 -0.00000000000E+00 -0.20041301733E+04  0.20041301733E+04  0.00000000000E+00 0.  1.
    9000010    2    1    2  501    0 -0.20512676465E+03  0.36329509194E+03 -0.16734448717E+04  0.18987580513E+04  0.79423175804E+03 0.  0.
        -13    1    3    3    0    0 -0.24541881588E+03  0.22626605046E+03 -0.14547777611E+03  0.36412980554E+03  0.10566000000E+00 0.  1.
          4    1    3    3  501    0  0.40292051227E+02  0.13702904148E+03 -0.15279670956E+04  0.15346282458E+04  0.00000000000E+00 0.  1.
         13    1    1    2    0    0  0.20512676465E+03 -0.36329509194E+03 -0.18444534127E+02  0.41761288941E+03  0.10566000000E+00 0. -1.
<mgrwt>
<rscale>  1 0.74085547E+03</rscale>
<asrwt>0</asrwt>
<pdfrwt beam="2">  1       21 0.30832770E+00 0.89714235E+03</pdfrwt>
<pdfrwt beam="1">  1        4 0.48037043E-01 0.89714235E+03</pdfrwt>
<totfact> 0.40082872E+00</totfact>
</mgrwt>
</event>
<event>
 6    1  0.1412458E-005  0.1133233E+04  0.7818608E-02  0.9478512E-01
         21   -1    0    0  501  502  0.00000000000E+00  0.00000000000E+00  0.18714477206E+04  0.18714477206E+04  0.00000000000E+00 0.  1.
          4   -1    0    0  502    0 -0.00000000000E+00 -0.00000000000E+00 -0.61363308820E+03  0.61363308820E+03  0.00000000000E+00 0.  1.
    9000010    2    1    2  501    0  0.15468009907E+03  0.34039583859E+03  0.16117284926E+04  0.19702504566E+04  0.10697770180E+04 0.  0.
        -13    1    3    3    0    0 -0.19332319875E+03  0.36373977833E+03  0.10695197323E+03  0.42558103958E+03  0.10566000000E+00 0.  1.
          4    1    3    3  501    0  0.34800329781E+03 -0.23343939737E+02  0.15047765193E+04  0.15446694170E+04  0.00000000000E+00 0.  1.
         13    1    1    2    0    0 -0.15468009907E+03 -0.34039583859E+03 -0.35391386014E+03  0.51483035220E+03  0.10566000000E+00 0. -1.
<mgrwt>
<rscale>  1 0.85886738E+03</rscale>
<asrwt>0</asrwt>
<pdfrwt beam="1">  1       21 0.28791503E+00 0.11332335E+04</pdfrwt>
<pdfrwt beam="2">  1        4 0.94405092E-01 0.11332335E+04</pdfrwt>
<totfact> 0.11395938E+00</totfact>
</mgrwt>
</event>
<event>
 6    1  0.1412458E-005  0.1095310E+04  0.7818608E-02  0.9435376E-01
          4   -1    0    0  502    0 -0.00000000000E+00  0.00000000000E+00  0.81755596948E+03  0.81755596948E+03  0.00000000000E+00 0.  1.
         21   -1    0    0  501  502  0.00000000000E+00 -0.00000000000E+00 -0.76162461724E+03  0.76162461724E+03  0.00000000000E+00 0.  1.
    9000010    2    1    2  501    0  0.37824035474E+03 -0.29912636262E+03  0.17896345117E+02  0.10954564714E+04  0.98344407817E+03 0.  0.
        -13    1    3    3    0    0  0.36129917989E+03  0.17619044940E+03 -0.31853324090E+03  0.51287777157E+03  0.10566000000E+00 0.  1.
          4    1    3    3  501    0  0.16941174844E+02 -0.47531681202E+03  0.33642958602E+03  0.58257869987E+03  0.00000000000E+00 0.  1.
         13    1    1    2    0    0 -0.37824035474E+03  0.29912636262E+03  0.38035007127E+02  0.48372411527E+03  0.10566000000E+00 0. -1.
<mgrwt>
<rscale>  1 0.89220701E+03</rscale>
<asrwt>0</asrwt>
<pdfrwt beam="2">  1       21 0.11717302E+00 0.10953103E+04</pdfrwt>
<pdfrwt beam="1">  1        4 0.12577784E+00 0.10953103E+04</pdfrwt>
<totfact> 0.95561513E+00</totfact>
</mgrwt>
</event>
<event>
 6    1  0.1412458E-005  0.1032606E+04  0.7818608E-02  0.9638262E-01
         21   -1    0    0  501  502  0.00000000000E+00  0.00000000000E+00  0.18219051464E+03  0.18219051464E+03  0.00000000000E+00 0.  1.
          4   -1    0    0  502    0 -0.00000000000E+00 -0.00000000000E+00 -0.23805857791E+04  0.23805857791E+04  0.00000000000E+00 0.  1.
    9000010    2    1    2  501    0  0.26629389630E+03  0.10025162279E+03 -0.17214232986E+04  0.20073799538E+04  0.99262947708E+03 0.  0.
        -13    1    3    3    0    0  0.26472416472E+02  0.52368755551E+03 -0.10956540504E+04  0.12146634323E+04  0.10566000000E+00 0.  1.
          4    1    3    3  501    0  0.23982147983E+03 -0.42343593272E+03 -0.62576924821E+03  0.79271652140E+03  0.00000000000E+00 0.  1.
         13    1    1    2    0    0 -0.26629389630E+03 -0.10025162279E+03 -0.47697196591E+03  0.55539634002E+03  0.10566000000E+00 0. -1.
<mgrwt>
<rscale>  1 0.74814684E+03</rscale>
<asrwt>0</asrwt>
<pdfrwt beam="1">  1       21 0.28029310E-01 0.10326065E+04</pdfrwt>
<pdfrwt beam="2">  1        4 0.36624397E+00 0.10326065E+04</pdfrwt>
<totfact> 0.58649599E+00</totfact>
</mgrwt>
</event>
<event>
 6    1  0.1412458E-005  0.1019280E+04  0.7818608E-02  0.9809339E-01
         21   -1    0    0  501  502  0.00000000000E+00  0.00000000000E+00  0.15243940341E+04  0.15243940341E+04  0.00000000000E+00 0.  1.
          4   -1    0    0  502    0 -0.00000000000E+00 -0.00000000000E+00 -0.24657798172E+03  0.24657798172E+03  0.00000000000E+00 0.  1.
    9000010    2    1    2  501    0  0.12595761899E+03 -0.10989319946E+03  0.12293188301E+04  0.15969207912E+04  0.10054796817E+04 0.  0.
        -13    1    3    3    0    0  0.66996612837E+02 -0.48533687014E+03  0.25761300567E+03  0.55353852215E+03  0.10566000000E+00 0.  1.
          4    1    3    3  501    0  0.58961006154E+02  0.37544367068E+03  0.97170582445E+03  0.10433822691E+04  0.00000000000E+00 0.  1.
         13    1    1    2    0    0 -0.12595761899E+03  0.10989319946E+03  0.48497222287E+02  0.17405122465E+03  0.10566000000E+00 0. -1.
<mgrwt>
<rscale>  1 0.64863733E+03</rscale>
<asrwt>0</asrwt>
<pdfrwt beam="1">  1       21 0.23452215E+00 0.10192798E+04</pdfrwt>
<pdfrwt beam="2">  1        4 0.37935075E-01 0.10192798E+04</pdfrwt>
<totfact> 0.18542244E+01</totfact>
</mgrwt>
</event>
<event>
 6    1  0.1412458E-005  0.1021146E+04  0.7818608E-02  0.9747117E-01
         21   -1    0    0  501  502  0.00000000000E+00  0.00000000000E+00  0.15097474045E+04  0.15097474045E+04  0.00000000000E+00 0.  1.
          4   -1    0    0  502    0 -0.00000000000E+00 -0.00000000000E+00 -0.27996524247E+03  0.27996524247E+03  0.00000000000E+00 0.  1.
    9000010    2    1    2  501    0 -0.88284865048E+02 -0.18404600042E+03  0.12119784021E+04  0.15848123475E+04  0.10005355476E+04 0.  0.
        -13    1    3    3    0    0  0.44829781572E+03 -0.70918310127E+02  0.70202191485E+03  0.83596358676E+03  0.10566000000E+00 0.  1.
          4    1    3    3  501    0 -0.53658268077E+03 -0.11312769030E+03  0.50995648728E+03  0.74884876078E+03  0.00000000000E+00 0.  1.
         13    1    1    2    0    0  0.88284865048E+02  0.18404600042E+03  0.17803759884E+02  0.20490029941E+03  0.10566000000E+00 0. -1.
<mgrwt>
<rscale>  1 0.68279451E+03</rscale>
<asrwt>0</asrwt>
<pdfrwt beam="1">  1       21 0.23226883E+00 0.10211457E+04</pdfrwt>
<pdfrwt beam="2">  1        4 0.43071577E-01 0.10211457E+04</pdfrwt>
<totfact> 0.14791531E+01</totfact>
</mgrwt>
</event>
<event>
 6    1  0.1412458E-005  0.1005221E+04  0.7818608E-02  0.1037010E+00
         21   -1    0    0  501  502  0.00000000000E+00  0.00000000000E+00  0.55707776049E+03  0.55707776049E+03  0.00000000000E+00 0.  1.
          4   -1    0    0  502    0 -0.00000000000E+00 -0.00000000000E+00 -0.50125681704E+03  0.50125681704E+03  0.00000000000E+00 0.  1.
    9000010    2    1    2  501    0  0.30660888920E+02 -0.12198375242E+01  0.93708804093E+02  0.10095792777E+04  0.10047524073E+04 0.  0.
        -13    1    3    3    0    0 -0.32281399596E+03  0.55991284662E+02 -0.32305386333E+03  0.46011706089E+03  0.10566000000E+00 0.  1.
          4    1    3    3  501    0  0.35347488488E+03 -0.57211122187E+02  0.41676266742E+03  0.54946221681E+03  0.00000000000E+00 0.  1.
         13    1    1    2    0    0 -0.30660888920E+02  0.12198375242E+01 -0.37887860649E+02  0.48755299830E+02  0.10566000000E+00 0. -1.
<mgrwt>
<rscale>  1 0.42017364E+03</rscale>
<asrwt>0</asrwt>
<pdfrwt beam="1">  1       21 0.85704271E-01 0.10052209E+04</pdfrwt>
<pdfrwt beam="2">  1        4 0.77116433E-01 0.10052209E+04</pdfrwt>
<totfact> 0.67965556E+01</totfact>
</mgrwt>
</event>
<event>
 6    1  0.1412458E-005  0.1073721E+04  0.7818608E-02  0.9508473E-01
          4   -1    0    0  502    0 -0.00000000000E+00  0.00000000000E+00  0.18915573673E+04  0.18915573673E+04  0.00000000000E+00 0.  1.
         21   -1    0    0  501  502  0.00000000000E+00 -0.00000000000E+00 -0.30355298360E+03  0.30355298360E+03  0.00000000000E+00 0.  1.
    9000010    2    1    2  501    0 -0.58935327142E+02 -0.39135360586E+03  0.89835502139E+03  0.13999705697E+04  0.99812065096E+03 0.  0.
        -13    1    3    3    0    0 -0.15103697236E+03  0.15492916210E+03  0.81071205373E+03  0.83908834905E+03  0.10566000000E+00 0.  1.
          4    1    3    3  501    0  0.92101645213E+02 -0.54628276796E+03  0.87642967658E+02  0.56088222061E+03  0.00000000000E+00 0.  1.
         13    1    1    2    0    0  0.58935327142E+02  0.39135360586E+03  0.68964936235E+03  0.79513978126E+03  0.10566000000E+00 0. -1.
<mgrwt>
<rscale>  1 0.83661988E+03</rscale>
<asrwt>0</asrwt>
<pdfrwt beam="2">  1       21 0.46700460E-01 0.10737206E+04</pdfrwt>
<pdfrwt beam="1">  1        4 0.29100882E+00 0.10737206E+04</pdfrwt>
<totfact> 0.60973421E+00</totfact>
</mgrwt>
</event>
<event>
 6    1  0.1412458E-005  0.1036980E+04  0.7818608E-02  0.9607390E-01
         21   -1    0    0  501  502  0.00000000000E+00  0.00000000000E+00  0.13088000906E+04  0.13088000906E+04  0.00000000000E+00 0.  1.
          4   -1    0    0  502    0 -0.00000000000E+00 -0.00000000000E+00 -0.35639540672E+03  0.35639540672E+03  0.00000000000E+00 0.  1.
    9000010    2    1    2  501    0  0.29122688929E+03  0.11230834074E+03  0.83623288108E+03  0.13321457062E+04  0.98888851075E+03 0.  0.
        -13    1    3    3    0    0  0.39562860705E+02 -0.29857710170E+03 -0.66892846976E+02  0.30852580078E+03  0.10566000000E+00 0.  1.
          4    1    3    3  501    0  0.25166402859E+03  0.41088544244E+03  0.90312572805E+03  0.10236199054E+04  0.00000000000E+00 0.  1.
         13    1    1    2    0    0 -0.29122688929E+03 -0.11230834074E+03  0.11617180284E+03  0.33304979115E+03  0.10566000000E+00 0. -1.
<mgrwt>
<rscale>  1 0.76809012E+03</rscale>
<asrwt>0</asrwt>
<pdfrwt beam="1">  1       21 0.20135386E+00 0.10369796E+04</pdfrwt>
<pdfrwt beam="2">  1        4 0.54830063E-01 0.10369796E+04</pdfrwt>
<totfact> 0.14274223E+01</totfact>
</mgrwt>
</event>
<event>
 6    1  0.1412458E-005  0.1003594E+04  0.7818608E-02  0.9886778E-01
         21   -1    0    0  501  502  0.00000000000E+00  0.00000000000E+00  0.24720503015E+03  0.24720503015E+03  0.00000000000E+00 0.  1.
          4   -1    0    0  502    0 -0.00000000000E+00 -0.00000000000E+00 -0.15402595560E+04  0.15402595560E+04  0.00000000000E+00 0.  1.
    9000010    2    1    2  501    0  0.12473010587E+03 -0.54551000117E+02 -0.82239199245E+03  0.12975088306E+04  0.99431743685E+03 0.  0.
        -13    1    3    3    0    0 -0.28556871838E+03 -0.11768475874E+03 -0.82653541092E+03  0.88236046604E+03  0.10566000000E+00 0.  1.
          4    1    3    3  501    0  0.41029882424E+03  0.63133758619E+02  0.41434184721E+01  0.41514836453E+03  0.00000000000E+00 0.  1.
         13    1    1    2    0    0 -0.12473010587E+03  0.54551000117E+02 -0.47066253335E+03  0.48995575554E+03  0.10566000000E+00 0. -1.
<mgrwt>
<rscale>  1 0.60906401E+03</rscale>
<asrwt>0</asrwt>
<pdfrwt beam="1">  1       21 0.38031543E-01 0.10035938E+04</pdfrwt>
<pdfrwt beam="2">  1        4 0.23696301E+00 0.10035938E+04</pdfrwt>
<totfact> 0.20464932E+01</totfact>
</mgrwt>
</event>
<event>
 6    1  0.1412458E-005  0.1483549E+04  0.7818608E-02  0.8972599E-01
          4   -1    0    0  502    0 -0.00000000000E+00  0.00000000000E+00  0.11040525275E+04  0.11040525275E+04  0.00000000000E+00 0.  1.
         21   -1    0    0  501  502  0.00000000000E+00 -0.00000000000E+00 -0.18069869058E+04  0.18069869058E+04  0.00000000000E+00 0. -1.
    9000010    2    1    2  501    0 -0.10632048449E+04 -0.25196216440E+03  0.19559372721E+03  0.14963867402E+04  0.10035072973E+04 0.  0.
        -13    1    3    3    0    0 -0.82599687206E+03  0.10808006726E+03 -0.25652377973E+03  0.87164017480E+03  0.10566000000E+00 0.  1.
          4    1    3    3  501    0 -0.23720797281E+03 -0.36004223167E+03  0.45211750695E+03  0.62474656545E+03  0.00000000000E+00 0.  1.
         13    1    1    2    0    0  0.10632048449E+04  0.25196216440E+03 -0.89852810555E+03  0.14146526931E+04  0.10566000000E+00 0. -1.
<mgrwt>
<rscale>  1 0.13743486E+04</rscale>
<asrwt>0</asrwt>
<pdfrwt beam="2">  1       21 0.27799798E+00 0.14835486E+04</pdfrwt>
<pdfrwt beam="1">  1        4 0.16985424E+00 0.14835486E+04</pdfrwt>
<totfact> 0.27328667E-01</totfact>
</mgrwt>
</event>
<event>
 6    1  0.1412458E-005  0.1014734E+04  0.7818608E-02  0.9809463E-01
          4   -1    0    0  502    0 -0.00000000000E+00  0.00000000000E+00  0.20319585517E+03  0.20319585517E+03  0.00000000000E+00 0.  1.
         21   -1    0    0  501  502  0.00000000000E+00 -0.00000000000E+00 -0.19416893468E+04  0.19416893468E+04  0.00000000000E+00 0.  1.
    9000010    2    1    2  501    0  0.14239860644E+03  0.91655395741E+02 -0.16856044644E+04  0.19674723077E+04  0.10005032717E+04 0.  0.
        -13    1    3    3    0    0  0.12258962280E+03  0.30819302038E+02  0.11190669040E+03  0.16882287617E+03  0.10566000000E+00 0.  1.
          4    1    3    3  501    0  0.19808983635E+02  0.60836093703E+02 -0.17975111548E+04  0.17986494316E+04  0.00000000000E+00 0.  1.
         13    1    1    2    0    0 -0.14239860644E+03 -0.91655395741E+02 -0.52889027285E+02  0.17741289427E+03  0.10566000000E+00 0. -1.
<mgrwt>
<rscale>  1 0.64857155E+03</rscale>
<asrwt>0</asrwt>
<pdfrwt beam="2">  1       21 0.29872145E+00 0.10147339E+04</pdfrwt>
<pdfrwt beam="1">  1        4 0.31260900E-01 0.10147339E+04</pdfrwt>
<totfact> 0.10756083E+01</totfact>
</mgrwt>
</event>
<event>
 6    1  0.1412458E-005  0.1411266E+04  0.7818608E-02  0.9035663E-01
         21   -1    0    0  501  502  0.00000000000E+00  0.00000000000E+00  0.86961143881E+03  0.86961143881E+03  0.00000000000E+00 0. -1.
          4   -1    0    0  502    0 -0.00000000000E+00 -0.00000000000E+00 -0.18711425484E+04  0.18711425484E+04  0.00000000000E+00 0.  1.
    9000010    2    1    2  501    0 -0.56460234629E+03  0.81611231575E+03 -0.10313020363E+04  0.17479290074E+04  0.10034225448E+04 0.  0.
        -13    1    3    3    0    0 -0.32540675435E+03  0.96471391502E+02 -0.92106165962E+03  0.98160627399E+03  0.10566000000E+00 0.  1.
          4    1    3    3  501    0 -0.23919559194E+03  0.71964092425E+03 -0.11024037670E+03  0.76632273339E+03  0.00000000000E+00 0.  1.
         13    1    1    2    0    0  0.56460234629E+03 -0.81611231575E+03  0.29770926733E+02  0.99282497984E+03  0.10566000000E+00 0. -1.
<mgrwt>
<rscale>  1 0.12923379E+04</rscale>
<asrwt>0</asrwt>
<pdfrwt beam="1">  1       21 0.13378638E+00 0.14112661E+04</pdfrwt>
<pdfrwt beam="2">  1        4 0.28786808E+00 0.14112661E+04</pdfrwt>
<totfact> 0.49893950E-01</totfact>
</mgrwt>
</event>
<event>
 6    1  0.1412458E-005  0.1081314E+04  0.7818608E-02  0.9488361E-01
         21   -1    0    0  501  502  0.00000000000E+00  0.00000000000E+00  0.62088236880E+03  0.62088236880E+03  0.00000000000E+00 0. -1.
          4   -1    0    0  502    0 -0.00000000000E+00 -0.00000000000E+00 -0.94305121846E+03  0.94305121846E+03  0.00000000000E+00 0.  1.
    9000010    2    1    2  501    0  0.34545439905E+03  0.23131697372E+03 -0.83460506545E+02  0.10845298238E+04  0.99819486999E+03 0.  0.
        -13    1    3    3    0    0  0.18158104563E+03 -0.23265318512E+03 -0.40174997687E+03  0.49849998571E+03  0.10566000000E+00 0.  1.
          4    1    3    3  501    0  0.16387335342E+03  0.46397015884E+03  0.31828947032E+03  0.58602983813E+03  0.00000000000E+00 0.  1.
         13    1    1    2    0    0 -0.34545439905E+03 -0.23131697372E+03 -0.23870834311E+03  0.47940376343E+03  0.10566000000E+00 0. -1.
<mgrwt>
<rscale>  1 0.85147379E+03</rscale>
<asrwt>0</asrwt>
<pdfrwt beam="1">  1       21 0.95520364E-01 0.10813137E+04</pdfrwt>
<pdfrwt beam="2">  1        4 0.14508480E+00 0.10813137E+04</pdfrwt>
<totfact> 0.11032786E+01</totfact>
</mgrwt>
</event>
<event>
 6    1  0.1412458E-005  0.1068125E+04  0.7818608E-02  0.9550373E-01
         21   -1    0    0  501  502  0.00000000000E+00  0.00000000000E+00  0.14833627474E+04  0.14833627474E+04  0.00000000000E+00 0.  1.
          4   -1    0    0  502    0 -0.00000000000E+00 -0.00000000000E+00 -0.38240465416E+03  0.38240465416E+03  0.00000000000E+00 0.  1.
    9000010    2    1    2  501    0 -0.13785732228E+03  0.31900512812E+03  0.10779011015E+04  0.15174851179E+04  0.10100105867E+04 0.  0.
        -13    1    3    3    0    0 -0.28407059149E+03 -0.19473988369E+03  0.35548743843E+02  0.34624189175E+03  0.10566000000E+00 0.  1.
          4    1    3    3  501    0  0.14621326921E+03  0.51374501181E+03  0.10423523576E+04  0.11712432261E+04  0.00000000000E+00 0.  1.
         13    1    1    2    0    0  0.13785732228E+03 -0.31900512812E+03  0.23056991713E+02  0.34828228365E+03  0.10566000000E+00 0. -1.
<mgrwt>
<rscale>  1 0.80669777E+03</rscale>
<asrwt>0</asrwt>
<pdfrwt beam="1">  1       21 0.22820965E+00 0.10681247E+04</pdfrwt>
<pdfrwt beam="2">  1        4 0.58831486E-01 0.10681247E+04</pdfrwt>
<totfact> 0.80754315E+00</totfact>
</mgrwt>
</event>
<event>
 6    1  0.1412458E-005  0.1067895E+04  0.7818608E-02  0.9596272E-01
         21   -1    0    0  501  502  0.00000000000E+00  0.00000000000E+00  0.12237735185E+04  0.12237735185E+04  0.00000000000E+00 0.  1.
          4   -1    0    0  502    0 -0.00000000000E+00 -0.00000000000E+00 -0.38594842851E+03  0.38594842851E+03  0.00000000000E+00 0.  1.
    9000010    2    1    2  501    0 -0.20892826240E+02 -0.29615328018E+03  0.73132380404E+03  0.12943082336E+04  0.10257953117E+04 0.  0.
        -13    1    3    3    0    0  0.41945731895E+03  0.24363818875E+01  0.62348044867E+03  0.75145076979E+03  0.10566000000E+00 0.  1.
          4    1    3    3  501    0 -0.44035014519E+03 -0.29858966207E+03  0.10784335537E+03  0.54285746376E+03  0.00000000000E+00 0.  1.
         13    1    1    2    0    0  0.20892826240E+02  0.29615328018E+03  0.10650128593E+03  0.31541371343E+03  0.10566000000E+00 0. -1.
<mgrwt>
<rscale>  1 0.77543430E+03</rscale>
<asrwt>0</asrwt>
<pdfrwt beam="1">  1       21 0.18827285E+00 0.10678948E+04</pdfrwt>
<pdfrwt beam="2">  1        4 0.59376682E-01 0.10678948E+04</pdfrwt>
<totfact> 0.14774155E+01</totfact>
</mgrwt>
</event>
<event>
 6    1  0.1412458E-005  0.9328973E+03  0.7818608E-02  0.9784609E-01
         21   -1    0    0  501  502  0.00000000000E+00  0.00000000000E+00  0.32872076231E+03  0.32872076231E+03  0.00000000000E+00 0.  1.
          4   -1    0    0  502    0 -0.00000000000E+00 -0.00000000000E+00 -0.12292670124E+04  0.12292670124E+04  0.00000000000E+00 0.  1.
    9000010    2    1    2  501    0  0.19459397325E+03  0.13437902601E+03 -0.42139455922E+03  0.10236555830E+04  0.90242608619E+03 0.  0.
        -13    1    3    3    0    0 -0.23374086396E+02  0.47802493825E+03 -0.65530309743E+02  0.48306150971E+03  0.10566000000E+00 0.  1.
          4    1    3    3  501    0  0.21796805965E+03 -0.34364591225E+03 -0.35586424948E+03  0.54059407330E+03  0.00000000000E+00 0.  1.
         13    1    1    2    0    0 -0.19459397325E+03 -0.13437902601E+03 -0.47915169091E+03  0.53433219174E+03  0.10566000000E+00 0. -1.
<mgrwt>
<rscale>  1 0.66195077E+03</rscale>
<asrwt>0</asrwt>
<pdfrwt beam="1">  1       21 0.50572425E-01 0.93289730E+03</pdfrwt>
<pdfrwt beam="2">  1        4 0.18911800E+00 0.93289730E+03</pdfrwt>
<totfact> 0.22981626E+01</totfact>
</mgrwt>
</event>
<event>
 6    1  0.1412458E-005  0.9343093E+03  0.7818608E-02  0.9854832E-01
          4   -1    0    0  502    0 -0.00000000000E+00  0.00000000000E+00  0.15417958084E+04  0.15417958084E+04  0.00000000000E+00 0.  1.
         21   -1    0    0  501  502  0.00000000000E+00 -0.00000000000E+00 -0.21371580777E+03  0.21371580777E+03  0.00000000000E+00 0.  1.
    9000010    2    1    2  501    0  0.18708963248E+03 -0.22150852013E+01  0.12289263537E+04  0.15437596527E+04  0.91538322315E+03 0.  0.
        -13    1    3    3    0    0  0.92047802396E+02 -0.27152832963E+03  0.12250386837E+04  0.12581415737E+04  0.10566000000E+00 0.  1.
          4    1    3    3  501    0  0.95041830084E+02  0.26931324443E+03  0.38876700520E+01  0.28561807903E+03  0.00000000000E+00 0.  1.
         13    1    1    2    0    0 -0.18708963248E+03  0.22150852013E+01  0.99153646935E+02  0.21175196351E+03  0.10566000000E+00 0. -1.
<mgrwt>
<rscale>  1 0.62501166E+03</rscale>
<asrwt>0</asrwt>
<pdfrwt beam="2">  1       21 0.32879356E-01 0.93430931E+03</pdfrwt>
<pdfrwt beam="1">  1        4 0.23719935E+00 0.93430931E+03</pdfrwt>
<totfact> 0.27723291E+01</totfact>
</mgrwt>
</event>
<event>
 6    1  0.1412458E-005  0.1085008E+04  0.7818608E-02  0.9472220E-01
          4   -1    0    0  502    0 -0.00000000000E+00  0.00000000000E+00  0.84470330230E+03  0.84470330230E+03  0.00000000000E+00 0.  1.
         21   -1    0    0  501  502  0.00000000000E+00 -0.00000000000E+00 -0.86271602932E+03  0.86271602932E+03  0.00000000000E+00 0.  1.
    9000010    2    1    2  501    0  0.40034320429E+03  0.17149669034E+03 -0.37113012491E+03  0.11467253831E+04  0.99375839049E+03 0.  0.
        -13    1    3    3    0    0 -0.81696043458E+00  0.36130569430E+03  0.20815630644E+03  0.41697905371E+03  0.10566000000E+00 0.  1.
          4    1    3    3  501    0  0.40116016473E+03 -0.18980900396E+03 -0.57928643135E+03  0.72974632941E+03  0.00000000000E+00 0.  1.
         13    1    1    2    0    0 -0.40034320429E+03 -0.17149669034E+03  0.35311739788E+03  0.56069394849E+03  0.10566000000E+00 0. -1.
<mgrwt>
<rscale>  1 0.86363244E+03</rscale>
<asrwt>0</asrwt>
<pdfrwt beam="2">  1       21 0.13272554E+00 0.10850076E+04</pdfrwt>
<pdfrwt beam="1">  1        4 0.12995435E+00 0.10850076E+04</pdfrwt>
<totfact> 0.63375700E+00</totfact>
</mgrwt>
</event>
<event>
 6    1  0.1412458E-005  0.9976281E+03  0.7818608E-02  0.9840086E-01
          4   -1    0    0  502    0 -0.00000000000E+00  0.00000000000E+00  0.30294232229E+03  0.30294232229E+03  0.00000000000E+00 0.  1.
         21   -1    0    0  501  502  0.00000000000E+00 -0.00000000000E+00 -0.11767031715E+04  0.11767031715E+04  0.00000000000E+00 0.  1.
    9000010    2    1    2  501    0  0.16087914617E+03  0.10779229775E+02 -0.86118556829E+03  0.13179159655E+04  0.98451186770E+03 0.  0.
        -13    1    3    3    0    0 -0.31389437053E+03 -0.29664605808E+03 -0.38316576354E+03  0.57736000306E+03  0.10566000000E+00 0.  1.
          4    1    3    3  501    0  0.47477351670E+03  0.30742528786E+03 -0.47801980476E+03  0.74055596245E+03  0.00000000000E+00 0.  1.
         13    1    1    2    0    0 -0.16087914617E+03 -0.10779229775E+02 -0.12575280922E+02  0.16172952829E+03  0.10566000000E+00 0. -1.
<mgrwt>
<rscale>  1 0.63254968E+03</rscale>
<asrwt>0</asrwt>
<pdfrwt beam="2">  1       21 0.18103125E+00 0.99762814E+03</pdfrwt>
<pdfrwt beam="1">  1        4 0.46606512E-01 0.99762814E+03</pdfrwt>
<totfact> 0.28115366E+01</totfact>
</mgrwt>
</event>
<event>
 6    1  0.1412458E-005  0.1004750E+04  0.7818608E-02  0.9894466E-01
          4   -1    0    0  502    0 -0.00000000000E+00  0.00000000000E+00  0.43862199684E+03  0.43862199684E+03  0.00000000000E+00 0.  1.
         21   -1    0    0  501  502  0.00000000000E+00 -0.00000000000E+00 -0.78535019012E+03  0.78535019012E+03  0.00000000000E+00 0.  1.
    9000010    2    1    2  501    0  0.12717686423E+03 -0.36630910208E+02 -0.19654162064E+03  0.10237927771E+04  0.99599561413E+03 0.  0.
        -13    1    3    3    0    0  0.46308156928E+03  0.21120263714E+03 -0.30386882536E+03  0.59277935856E+03  0.10566000000E+00 0.  1.
          4    1    3    3  501    0 -0.33590470505E+03 -0.24783354735E+03  0.10732720472E+03  0.43101341851E+03  0.00000000000E+00 0.  1.
         13    1    1    2    0    0 -0.12717686423E+03  0.36630910208E+02 -0.15018657264E+03  0.20017940989E+03  0.10566000000E+00 0. -1.
<mgrwt>
<rscale>  1 0.60530235E+03</rscale>
<asrwt>0</asrwt>
<pdfrwt beam="2">  1       21 0.12082311E+00 0.10047502E+04</pdfrwt>
<pdfrwt beam="1">  1        4 0.67480307E-01 0.10047502E+04</pdfrwt>
<totfact> 0.39054271E+01</totfact>
</mgrwt>
</event>
<event>
 6    1  0.1412458E-005  0.1027573E+04  0.7818608E-02  0.9641633E-01
         21   -1    0    0  501  502  0.00000000000E+00  0.00000000000E+00  0.91811722713E+03  0.91811722713E+03  0.00000000000E+00 0.  1.
          4   -1    0    0  502    0 -0.00000000000E+00 -0.00000000000E+00 -0.11672027250E+04  0.11672027250E+04  0.00000000000E+00 0.  1.
    9000010    2    1    2  501    0 -0.19422569354E+03  0.20918981451E+03  0.59973570864E+03  0.11897857818E+04  0.98712881010E+03 0.  0.
        -13    1    3    3    0    0 -0.28379303051E+03  0.34390739883E+03 -0.11213353891E+03  0.45976594573E+03  0.10566000000E+00 0.  1.
          4    1    3    3  501    0  0.89567336971E+02 -0.13471758433E+03  0.71186924756E+03  0.73001983603E+03  0.00000000000E+00 0.  1.
         13    1    1    2    0    0  0.19422569354E+03 -0.20918981451E+03 -0.84882120656E+03  0.89553417042E+03  0.10566000000E+00 0. -1.
<mgrwt>
<rscale>  1 0.74600840E+03</rscale>
<asrwt>0</asrwt>
<pdfrwt beam="1">  1       21 0.14124881E+00 0.10275735E+04</pdfrwt>
<pdfrwt beam="2">  1        4 0.17956965E+00 0.10275735E+04</pdfrwt>
<totfact> 0.22421903E+00</totfact>
</mgrwt>
</event>
<event>
 6    1  0.1412458E-005  0.1022121E+04  0.7818608E-02  0.9725655E-01
          4   -1    0    0  502    0 -0.00000000000E+00  0.00000000000E+00  0.33592407634E+03  0.33592407634E+03  0.00000000000E+00 0.  1.
         21   -1    0    0  501  502  0.00000000000E+00 -0.00000000000E+00 -0.13600061525E+04  0.13600061525E+04  0.00000000000E+00 0.  1.
    9000010    2    1    2  501    0  0.56977038333E+02 -0.21105606692E+03 -0.10620995835E+04  0.14740374883E+04  0.99846880041E+03 0.  0.
        -13    1    3    3    0    0 -0.30092129477E+02  0.32757933849E+03 -0.80749628610E+03  0.87193120285E+03  0.10566000000E+00 0.  1.
          4    1    3    3  501    0  0.87069167810E+02 -0.53863540541E+03 -0.25460329739E+03  0.60210628546E+03  0.00000000000E+00 0.  1.
         13    1    1    2    0    0 -0.56977038333E+02  0.21105606692E+03  0.38017507312E+02  0.22189274054E+03  0.10566000000E+00 0. -1.
<mgrwt>
<rscale>  1 0.69509635E+03</rscale>
<asrwt>0</asrwt>
<pdfrwt beam="2">  1       21 0.20923172E+00 0.10221208E+04</pdfrwt>
<pdfrwt beam="1">  1        4 0.51680627E-01 0.10221208E+04</pdfrwt>
<totfact> 0.14342837E+01</totfact>
</mgrwt>
</event>
<event>
 6    1  0.1412458E-005  0.1008882E+04  0.7818608E-02  0.1000812E+00
          4   -1    0    0  502    0 -0.00000000000E+00  0.00000000000E+00  0.75885444499E+03  0.75885444499E+03  0.00000000000E+00 0.  1.
         21   -1    0    0  501  502  0.00000000000E+00 -0.00000000000E+00 -0.42377405723E+03  0.42377405723E+03  0.00000000000E+00 0.  1.
    9000010    2    1    2  501    0  0.84259114043E+02 -0.34479787060E+02  0.21431996666E+03  0.10313950916E+04  0.10047658100E+04 0.  0.
        -13    1    3    3    0    0  0.43370623301E+03 -0.30561522961E+03  0.25223882596E+03  0.58747442634E+03  0.10566000000E+00 0.  1.
          4    1    3    3  501    0 -0.34944711897E+03  0.27113544255E+03 -0.37918859301E+02  0.44392066527E+03  0.00000000000E+00 0.  1.
         13    1    1    2    0    0 -0.84259114043E+02  0.34479787060E+02  0.12076042110E+03  0.15123341061E+03  0.10566000000E+00 0. -1.
<mgrwt>
<rscale>  1 0.55295467E+03</rscale>
<asrwt>0</asrwt>
<pdfrwt beam="2">  1       21 0.65196009E-01 0.10088819E+04</pdfrwt>
<pdfrwt beam="1">  1        4 0.11674684E+00 0.10088819E+04</pdfrwt>
<totfact> 0.47721581E+01</totfact>
</mgrwt>
</event>
<event>
 6    1  0.1412458E-005  0.1005242E+04  0.7818608E-02  0.9940591E-01
          4   -1    0    0  502    0 -0.00000000000E+00  0.00000000000E+00  0.43148311901E+03  0.43148311901E+03  0.00000000000E+00 0.  1.
         21   -1    0    0  501  502  0.00000000000E+00 -0.00000000000E+00 -0.78865652897E+03  0.78865652897E+03  0.00000000000E+00 0.  1.
    9000010    2    1    2  501    0 -0.50209545868E+02 -0.10233687684E+03 -0.42060605621E+03  0.10896883290E+04  0.99875791106E+03 0.  0.
        -13    1    3    3    0    0  0.18829900249E+02 -0.48542414091E+03  0.39048025823E+02  0.48735605177E+03  0.10566000000E+00 0.  1.
          4    1    3    3  501    0 -0.69039446117E+02  0.38308726407E+03 -0.45965408204E+03  0.60233227719E+03  0.00000000000E+00 0.  1.
         13    1    1    2    0    0  0.50209545868E+02  0.10233687684E+03  0.63432646260E+02  0.13045131902E+03  0.10566000000E+00 0. -1.
<mgrwt>
<rscale>  1 0.58333783E+03</rscale>
<asrwt>0</asrwt>
<pdfrwt beam="2">  1       21 0.12133177E+00 0.10052419E+04</pdfrwt>
<pdfrwt beam="1">  1        4 0.66382019E-01 0.10052419E+04</pdfrwt>
<totfact> 0.40060379E+01</totfact>
</mgrwt>
</event>
<event>
 6    1  0.1412458E-005  0.1032930E+04  0.7818608E-02  0.9649801E-01
          4   -1    0    0  502    0 -0.00000000000E+00  0.00000000000E+00  0.18324081128E+03  0.18324081128E+03  0.00000000000E+00 0.  1.
         21   -1    0    0  501  502  0.00000000000E+00 -0.00000000000E+00 -0.23693393348E+04  0.23693393348E+04  0.00000000000E+00 0.  1.
    9000010    2    1    2  501    0 -0.60752687934E+01  0.27328926896E+03 -0.18552136021E+04  0.21233846477E+04  0.99610286584E+03 0.  0.
        -13    1    3    3    0    0  0.30403447092E+02  0.32568352558E+03 -0.19673451689E+04  0.19943523142E+04  0.10566000000E+00 0.  1.
          4    1    3    3  501    0 -0.36478715885E+02 -0.52394256629E+02  0.11213156675E+03  0.12903233355E+03  0.00000000000E+00 0.  1.
         13    1    1    2    0    0  0.60752687934E+01 -0.27328926896E+03 -0.33088492138E+03  0.42919549832E+03  0.10566000000E+00 0. -1.
<mgrwt>
<rscale>  1 0.74085926E+03</rscale>
<asrwt>0</asrwt>
<pdfrwt beam="2">  1       21 0.36451375E+00 0.10329302E+04</pdfrwt>
<pdfrwt beam="1">  1        4 0.28190894E-01 0.10329302E+04</pdfrwt>
<totfact> 0.50710174E+00</totfact>
</mgrwt>
</event>
<event>
 6    1  0.1412458E-005  0.1073208E+04  0.7818608E-02  0.9537361E-01
          4   -1    0    0  502    0 -0.00000000000E+00  0.00000000000E+00  0.21920949547E+04  0.21920949547E+04  0.00000000000E+00 0.  1.
         21   -1    0    0  501  502  0.00000000000E+00 -0.00000000000E+00 -0.42881530861E+03  0.42881530861E+03  0.00000000000E+00 0.  1.
    9000010    2    1    2  501    0  0.35528906460E+03 -0.47188449158E+02  0.29996159362E+03  0.11143390559E+04  0.10115915701E+04 0.  0.
        -13    1    3    3    0    0 -0.24171803373E+03 -0.30212519910E+03 -0.26277655608E+02  0.38781151364E+03  0.10566000000E+00 0.  1.
          4    1    3    3  501    0  0.59700709834E+03  0.25493674994E+03  0.32623924923E+03  0.72652754227E+03  0.00000000000E+00 0.  1.
         13    1    1    2    0    0 -0.35528906460E+03  0.47188449158E+02  0.14633180525E+04  0.15065712074E+04  0.10566000000E+00 0. -1.
<mgrwt>
<rscale>  1 0.81584483E+03</rscale>
<asrwt>0</asrwt>
<pdfrwt beam="2">  1       21 0.65971587E-01 0.10732076E+04</pdfrwt>
<pdfrwt beam="1">  1        4 0.33724537E+00 0.10732076E+04</pdfrwt>
<totfact> 0.14611967E+00</totfact>
</mgrwt>
</event>
<event>
 6    1  0.1412458E-005  0.1093956E+04  0.7818608E-02  0.9452485E-01
          4   -1    0    0  502    0 -0.00000000000E+00  0.00000000000E+00  0.19758734030E+04  0.19758734030E+04  0.00000000000E+00 0.  1.
         21   -1    0    0  501  502  0.00000000000E+00 -0.00000000000E+00 -0.34699146521E+03  0.34699146521E+03  0.00000000000E+00 0.  1.
    9000010    2    1    2  501    0  0.33730217161E+03  0.30621168620E+03  0.73007895985E+03  0.13152016526E+04  0.99458621935E+03 0.  0.
        -13    1    3    3    0    0  0.36625448039E+03  0.64302765471E+03  0.60105219151E+03  0.95335757049E+03  0.10566000000E+00 0.  1.
          4    1    3    3  501    0 -0.28952308775E+02 -0.33681596851E+03  0.12902676834E+03  0.36184408214E+03  0.00000000000E+00 0.  1.
         13    1    1    2    0    0 -0.33730217161E+03 -0.30621168620E+03  0.89880297799E+03  0.10076632156E+04  0.10566000000E+00 0. -1.
<mgrwt>
<rscale>  1 0.87879432E+03</rscale>
<asrwt>0</asrwt>
<pdfrwt beam="2">  1       21 0.53383304E-01 0.10939562E+04</pdfrwt>
<pdfrwt beam="1">  1        4 0.30398051E+00 0.10939562E+04</pdfrwt>
<totfact> 0.37826590E+00</totfact>
</mgrwt>
</event>
<event>
 6    1  0.1412458E-005  0.1018251E+04  0.7818608E-02  0.1001897E+00
         21   -1    0    0  501  502  0.00000000000E+00  0.00000000000E+00  0.18207197913E+04  0.18207197913E+04  0.00000000000E+00 0.  1.
          4   -1    0    0  502    0 -0.00000000000E+00 -0.00000000000E+00 -0.17062617508E+03  0.17062617508E+03  0.00000000000E+00 0.  1.
    9000010    2    1    2  501    0  0.80527613365E+02  0.28976565737E+02  0.14324749465E+04  0.17575036382E+04  0.10146478345E+04 0.  0.
        -13    1    3    3    0    0 -0.57172156196E+02  0.45678215249E+03  0.32844222739E+03  0.56550234144E+03  0.10566000000E+00 0.  1.
          4    1    3    3  501    0  0.13769976956E+03 -0.42780558675E+03  0.11040327191E+04  0.11920012967E+04  0.00000000000E+00 0.  1.
         13    1    1    2    0    0 -0.80527613365E+02 -0.28976565737E+02  0.21761866978E+03  0.23384232824E+03  0.10566000000E+00 0. -1.
<mgrwt>
<rscale>  1 0.54826085E+03</rscale>
<asrwt>0</asrwt>
<pdfrwt beam="1">  1       21 0.28011072E+00 0.10182507E+04</pdfrwt>
<pdfrwt beam="2">  1        4 0.26250182E-01 0.10182507E+04</pdfrwt>
<totfact> 0.19722408E+01</totfact>
</mgrwt>
</event>
<event>
 6    1  0.1412458E-005  0.1156670E+04  0.7818608E-02  0.9444425E-01
         21   -1    0    0  501  502  0.00000000000E+00  0.00000000000E+00  0.11989207394E+04  0.11989207394E+04  0.00000000000E+00 0. -1.
          4   -1    0    0  502    0 -0.00000000000E+00 -0.00000000000E+00 -0.63615697876E+03  0.63615697876E+03  0.00000000000E+00 0.  1.
    9000010    2    1    2  501    0 -0.23511513971E+03 -0.31933891593E+03  0.76813786736E+03  0.13884962508E+04  0.10865677995E+04 0.  0.
        -13    1    3    3    0    0 -0.97835448779E+02  0.25059560629E+03  0.75567262876E+03  0.80212908309E+03  0.10566000000E+00 0.  1.
          4    1    3    3  501    0 -0.13727969093E+03 -0.56993452222E+03  0.12465238610E+02  0.58636716768E+03  0.00000000000E+00 0.  1.
         13    1    1    2    0    0  0.23511513971E+03  0.31933891593E+03 -0.20537410672E+03  0.44658146739E+03  0.10566000000E+00 0. -1.
<mgrwt>
<rscale>  1 0.88508146E+03</rscale>
<asrwt>0</asrwt>
<pdfrwt beam="1">  1       21 0.18444934E+00 0.11566702E+04</pdfrwt>
<pdfrwt beam="2">  1        4 0.97870305E-01 0.11566702E+04</pdfrwt>
<totfact> 0.49752461E+00</totfact>
</mgrwt>
</event>
<event>
 6    1  0.1412458E-005  0.1039396E+04  0.7818608E-02  0.9714417E-01
          4   -1    0    0  502    0 -0.00000000000E+00  0.00000000000E+00  0.99768431349E+03  0.99768431349E+03  0.00000000000E+00 0.  1.
         21   -1    0    0  501  502  0.00000000000E+00 -0.00000000000E+00 -0.39996200601E+03  0.39996200601E+03  0.00000000000E+00 0.  1.
    9000010    2    1    2  501    0  0.11333849807E+03  0.18369014843E+03  0.43233157547E+03  0.11257239203E+04  0.10167379544E+04 0.  0.
        -13    1    3    3    0    0  0.26356717493E+03 -0.25044821075E+03 -0.14194391910E+03  0.39030763418E+03  0.10566000000E+00 0.  1.
          4    1    3    3  501    0 -0.15022867686E+03  0.43413835918E+03  0.57427549457E+03  0.73541628614E+03  0.00000000000E+00 0.  1.
         13    1    1    2    0    0 -0.11333849807E+03 -0.18369014843E+03  0.16539073200E+03  0.27192239917E+03  0.10566000000E+00 0. -1.
<mgrwt>
<rscale>  1 0.70164857E+03</rscale>
<asrwt>0</asrwt>
<pdfrwt beam="2">  1       21 0.61532617E-01 0.10393959E+04</pdfrwt>
<pdfrwt beam="1">  1        4 0.15348989E+00 0.10393959E+04</pdfrwt>
<totfact> 0.26639280E+01</totfact>
</mgrwt>
</event>
<event>
 6    1  0.1412458E-005  0.1086875E+04  0.7818608E-02  0.9482460E-01
         21   -1    0    0  501  502  0.00000000000E+00  0.00000000000E+00  0.13821826960E+04  0.13821826960E+04  0.00000000000E+00 0.  1.
          4   -1    0    0  502    0 -0.00000000000E+00 -0.00000000000E+00 -0.41147564327E+03  0.41147564327E+03  0.00000000000E+00 0.  1.
    9000010    2    1    2  501    0  0.11349554405E+03  0.40226189517E+03  0.75443008840E+03  0.13230506393E+04  0.10032957515E+04 0.  0.
        -13    1    3    3    0    0 -0.39529337191E+03  0.11879112948E+03  0.58597171214E+03  0.71675033374E+03  0.10566000000E+00 0.  1.
          4    1    3    3  501    0  0.50878891596E+03  0.28347076569E+03  0.16845837626E+03  0.60630030557E+03  0.00000000000E+00 0.  1.
         13    1    1    2    0    0 -0.11349554405E+03 -0.40226189517E+03  0.21627696436E+03  0.47060770000E+03  0.10566000000E+00 0. -1.
<mgrwt>
<rscale>  1 0.85589436E+03</rscale>
<asrwt>0</asrwt>
<pdfrwt beam="1">  1       21 0.21264349E+00 0.10868754E+04</pdfrwt>
<pdfrwt beam="2">  1        4 0.63303946E-01 0.10868754E+04</pdfrwt>
<totfact> 0.87014686E+00</totfact>
</mgrwt>
</event>
<event>
 6    1  0.1412458E-005  0.9635076E+03  0.7818608E-02  0.9864536E-01
         21   -1    0    0  501  502  0.00000000000E+00  0.00000000000E+00  0.44747325601E+03  0.44747325601E+03  0.00000000000E+00 0.  1.
          4   -1    0    0  502    0 -0.00000000000E+00 -0.00000000000E+00 -0.71773933996E+03  0.71773933996E+03  0.00000000000E+00 0.  1.
    9000010    2    1    2  501    0  0.63060611001E+02 -0.15281634186E+03 -0.26718577216E+03  0.99986757947E+03  0.94921939752E+03 0.  0.
        -13    1    3    3    0    0  0.14397888213E+03 -0.38897223125E+02 -0.61089679695E+03  0.62883846905E+03  0.10566000000E+00 0.  1.
          4    1    3    3  501    0 -0.80918271133E+02 -0.11391911873E+03  0.34371102479E+03  0.37102911042E+03  0.00000000000E+00 0.  1.
         13    1    1    2    0    0 -0.63060611001E+02  0.15281634186E+03 -0.30803117863E+01  0.16534501651E+03  0.10566000000E+00 0. -1.
<mgrwt>
<rscale>  1 0.62011231E+03</rscale>
<asrwt>0</asrwt>
<pdfrwt beam="1">  1       21 0.68842039E-01 0.96350762E+03</pdfrwt>
<pdfrwt beam="2">  1        4 0.11042144E+00 0.96350762E+03</pdfrwt>
<totfact> 0.48578792E+01</totfact>
</mgrwt>
</event>
<event>
 6    1  0.1412458E-005  0.1055761E+04  0.7818608E-02  0.9638274E-01
          4   -1    0    0  502    0 -0.00000000000E+00  0.00000000000E+00  0.12113390344E+04  0.12113390344E+04  0.00000000000E+00 0.  1.
         21   -1    0    0  501  502  0.00000000000E+00 -0.00000000000E+00 -0.47684705279E+03  0.47684705279E+03  0.00000000000E+00 0.  1.
    9000010    2    1    2  501    0 -0.22567903362E+03  0.14120838744E+03  0.17713819350E+03  0.10705178177E+04  0.10216455469E+04 0.  0.
        -13    1    3    3    0    0 -0.17445193946E+03 -0.36343801464E+03  0.35077500923E+03  0.53438168750E+03  0.10566000000E+00 0.  1.
          4    1    3    3  501    0 -0.51227094152E+02  0.50464640208E+03 -0.17363681573E+03  0.53613613017E+03  0.00000000000E+00 0.  1.
         13    1    1    2    0    0  0.22567903362E+03 -0.14120838744E+03  0.55735378810E+03  0.61766826951E+03  0.10566000000E+00 0. -1.
<mgrwt>
<rscale>  1 0.74813943E+03</rscale>
<asrwt>0</asrwt>
<pdfrwt beam="2">  1       21 0.73361085E-01 0.10557606E+04</pdfrwt>
<pdfrwt beam="1">  1        4 0.18635985E+00 0.10557606E+04</pdfrwt>
<totfact> 0.10310879E+01</totfact>
</mgrwt>
</event>
<event>
 6    1  0.1412458E-005  0.9843958E+03  0.7818608E-02  0.1001480E+00
          4   -1    0    0  502    0 -0.00000000000E+00  0.00000000000E+00  0.44656134805E+03  0.44656134805E+03  0.00000000000E+00 0.  1.
         21   -1    0    0  501  502  0.00000000000E+00 -0.00000000000E+00 -0.75153760677E+03  0.75153760677E+03  0.00000000000E+00 0.  1.
    9000010    2    1    2  501    0 -0.94775739427E+02  0.15089640135E+02 -0.40044774422E+03  0.10627292620E+04  0.97970656345E+03 0.  0.
        -13    1    3    3    0    0  0.13205031970E+03 -0.13912020747E+03  0.27410085356E+03  0.33454896225E+03  0.10566000000E+00 0.  1.
          4    1    3    3  501    0 -0.22682605913E+03  0.15420984760E+03 -0.67454859778E+03  0.72818029976E+03  0.00000000000E+00 0.  1.
         13    1    1    2    0    0  0.94775739427E+02 -0.15089640135E+02  0.95471485492E+02  0.13536969280E+03  0.10566000000E+00 0. -1.
<mgrwt>
<rscale>  1 0.55006074E+03</rscale>
<asrwt>0</asrwt>
<pdfrwt beam="2">  1       21 0.11562117E+00 0.98439580E+03</pdfrwt>
<pdfrwt beam="1">  1        4 0.68701747E-01 0.98439580E+03</pdfrwt>
<totfact> 0.42115758E+01</totfact>
</mgrwt>
</event>
<event>
 6    1  0.1412458E-005  0.1012100E+04  0.7818608E-02  0.9758545E-01
         21   -1    0    0  501  502  0.00000000000E+00  0.00000000000E+00  0.24964197307E+04  0.24964197307E+04  0.00000000000E+00 0.  1.
          4   -1    0    0  502    0 -0.00000000000E+00 -0.00000000000E+00 -0.14762210646E+03  0.14762210646E+03  0.00000000000E+00 0.  1.
    9000010    2    1    2  501    0  0.17175239433E+03  0.10604076328E+03  0.19748779899E+04  0.22191189824E+04  0.99176733886E+03 0.  0.
        -13    1    3    3    0    0  0.27076311450E+03 -0.34144518052E+03  0.14878648224E+04  0.15503674456E+04  0.10566000000E+00 0.  1.
          4    1    3    3  501    0 -0.99010720163E+02  0.44748594380E+03  0.48701316752E+03  0.66875153678E+03  0.00000000000E+00 0.  1.
         13    1    1    2    0    0 -0.17175239433E+03 -0.10604076328E+03  0.37391963432E+03  0.42492285480E+03  0.10566000000E+00 0. -1.
<mgrwt>
<rscale>  1 0.67635522E+03</rscale>
<asrwt>0</asrwt>
<pdfrwt beam="1">  1       21 0.38406454E+00 0.10120998E+04</pdfrwt>
<pdfrwt beam="2">  1        4 0.22711095E-01 0.10120998E+04</pdfrwt>
<totfact> 0.57684986E+00</totfact>
</mgrwt>
</event>
<event>
 6    1  0.1412458E-005  0.1098421E+04  0.7818608E-02  0.9467155E-01
          4   -1    0    0  502    0 -0.00000000000E+00  0.00000000000E+00  0.33831023293E+04  0.33831023293E+04  0.00000000000E+00 0.  1.
         21   -1    0    0  501  502  0.00000000000E+00 -0.00000000000E+00 -0.17995116238E+03  0.17995116238E+03  0.00000000000E+00 0.  1.
    9000010    2    1    2  501    0  0.41846471531E+03 -0.86557290013E+02  0.19374171472E+04  0.22271315245E+04  0.10118916656E+04 0.  0.
        -13    1    3    3    0    0 -0.16301658098E+03  0.25318021055E+03  0.11606249496E+04  0.11990516709E+04  0.10566000000E+00 0.  1.
          4    1    3    3  501    0  0.58148129629E+03 -0.33973750056E+03  0.77679219753E+03  0.10280798536E+04  0.00000000000E+00 0.  1.
         13    1    1    2    0    0 -0.41846471531E+03  0.86557290013E+02  0.12657340197E+04  0.13359219671E+04  0.10566000000E+00 0. -1.
<mgrwt>
<rscale>  1 0.86749264E+03</rscale>
<asrwt>0</asrwt>
<pdfrwt beam="2">  1       21 0.27684797E-01 0.10984214E+04</pdfrwt>
<pdfrwt beam="1">  1        4 0.52047723E+00 0.10984214E+04</pdfrwt>
<totfact> 0.42957811E-01</totfact>
</mgrwt>
</event>
<event>
 6    1  0.1412458E-005  0.9735496E+03  0.7818608E-02  0.9980502E-01
          4   -1    0    0  502    0 -0.00000000000E+00  0.00000000000E+00  0.60434658492E+03  0.60434658492E+03  0.00000000000E+00 0.  1.
         21   -1    0    0  501  502  0.00000000000E+00 -0.00000000000E+00 -0.91501732137E+03  0.91501732137E+03  0.00000000000E+00 0.  1.
    9000010    2    1    2  501    0  0.17941276578E+02  0.10907837011E+03 -0.64460342799E+03  0.11676096826E+04  0.96725323019E+03 0.  0.
        -13    1    3    3    0    0  0.19053745733E+03  0.32596910170E+03 -0.77439857161E+03  0.86154137265E+03  0.10566000000E+00 0.  1.
          4    1    3    3  501    0 -0.17259618075E+03 -0.21689073159E+03  0.12979514362E+03  0.30606830996E+03  0.00000000000E+00 0.  1.
         13    1    1    2    0    0 -0.17941276578E+02 -0.10907837011E+03  0.33393269154E+03  0.35175422368E+03  0.10566000000E+00 0. -1.
<mgrwt>
<rscale>  1 0.56513528E+03</rscale>
<asrwt>0</asrwt>
<pdfrwt beam="2">  1       21 0.14077189E+00 0.97354958E+03</pdfrwt>
<pdfrwt beam="1">  1        4 0.92976399E-01 0.97354958E+03</pdfrwt>
<totfact> 0.12508855E+01</totfact>
</mgrwt>
</event>
<event>
 6    1  0.1412458E-005  0.9265626E+03  0.7818608E-02  0.1006907E+00
          4   -1    0    0  502    0 -0.00000000000E+00  0.00000000000E+00  0.76806815591E+03  0.76806815591E+03  0.00000000000E+00 0.  1.
         21   -1    0    0  501  502  0.00000000000E+00 -0.00000000000E+00 -0.50281643672E+03  0.50281643672E+03  0.00000000000E+00 0.  1.
    9000010    2    1    2  501    0  0.90944839463E+02 -0.34115048743E+02 -0.62864794008E+02  0.92869274911E+03  0.92145723697E+03 0.  0.
        -13    1    3    3    0    0  0.35997920317E+03 -0.29007356020E+03  0.16748297061E+03  0.49170952162E+03  0.10566000000E+00 0.  1.
          4    1    3    3  501    0 -0.26903436371E+03  0.25595851146E+03 -0.23034776462E+03  0.43698322749E+03  0.00000000000E+00 0.  1.
         13    1    1    2    0    0 -0.90944839463E+02  0.34115048743E+02  0.32811651319E+03  0.34219184352E+03  0.10566000000E+00 0. -1.
<mgrwt>
<rscale>  1 0.52722710E+03</rscale>
<asrwt>0</asrwt>
<pdfrwt beam="2">  1       21 0.77356375E-01 0.92656259E+03</pdfrwt>
<pdfrwt beam="1">  1        4 0.11816433E+00 0.92656259E+03</pdfrwt>
<totfact> 0.31493844E+01</totfact>
</mgrwt>
</event>
<event>
 6    1  0.1412458E-005  0.1007685E+04  0.7818608E-02  0.1024072E+00
         21   -1    0    0  501  502  0.00000000000E+00  0.00000000000E+00  0.38041755817E+03  0.38041755817E+03  0.00000000000E+00 0.  1.
          4   -1    0    0  502    0 -0.00000000000E+00 -0.00000000000E+00 -0.72930014497E+03  0.72930014497E+03  0.00000000000E+00 0.  1.
    9000010    2    1    2  501    0  0.20118293108E+02 -0.39916060172E+02 -0.34385023134E+03  0.10647357807E+04  0.10066932321E+04 0.  0.
        -13    1    3    3    0    0 -0.44537331994E+03 -0.20777035348E+03 -0.62225677631E+02  0.49537658405E+03  0.10566000000E+00 0.  1.
          4    1    3    3  501    0  0.46549161305E+03  0.16785429330E+03 -0.28162455371E+03  0.56935919669E+03  0.00000000000E+00 0.  1.
         13    1    1    2    0    0 -0.20118293108E+02  0.39916060172E+02 -0.50323554633E+01  0.44981922400E+02  0.10566000000E+00 0. -1.
<mgrwt>
<rscale>  1 0.46245497E+03</rscale>
<asrwt>0</asrwt>
<pdfrwt beam="1">  1       21 0.58525779E-01 0.10076851E+04</pdfrwt>
<pdfrwt beam="2">  1        4 0.11220002E+00 0.10076851E+04</pdfrwt>
<totfact> 0.67072022E+01</totfact>
</mgrwt>
</event>
<event>
 6    1  0.1412458E-005  0.1019621E+04  0.7818608E-02  0.9844585E-01
          4   -1    0    0  502    0 -0.00000000000E+00  0.00000000000E+00  0.10557517307E+04  0.10557517307E+04  0.00000000000E+00 0.  1.
         21   -1    0    0  501  502  0.00000000000E+00 -0.00000000000E+00 -0.40854493647E+03  0.40854493647E+03  0.00000000000E+00 0.  1.
    9000010    2    1    2  501    0  0.11480473393E+02 -0.14839015882E+03  0.26406219840E+03  0.10532598890E+04  0.10087002075E+04 0.  0.
        -13    1    3    3    0    0 -0.40047269130E+03 -0.14856364141E+03 -0.16550521331E+03  0.45808461972E+03  0.10566000000E+00 0.  1.
          4    1    3    3  501    0  0.41195316469E+03  0.17348259074E+00  0.42956741171E+03  0.59517526931E+03  0.00000000000E+00 0.  1.
         13    1    1    2    0    0 -0.11480473393E+02  0.14839015882E+03  0.38314459578E+03  0.41103677810E+03  0.10566000000E+00 0. -1.
<mgrwt>
<rscale>  1 0.63023779E+03</rscale>
<asrwt>0</asrwt>
<pdfrwt beam="2">  1       21 0.62853068E-01 0.10196213E+04</pdfrwt>
<pdfrwt beam="1">  1        4 0.16242334E+00 0.10196213E+04</pdfrwt>
<totfact> 0.21790217E+01</totfact>
</mgrwt>
</event>
<event>
 6    1  0.1412458E-005  0.1013752E+04  0.7818608E-02  0.9889297E-01
         21   -1    0    0  501  502  0.00000000000E+00  0.00000000000E+00  0.19317810454E+04  0.19317810454E+04  0.00000000000E+00 0.  1.
          4   -1    0    0  502    0 -0.00000000000E+00 -0.00000000000E+00 -0.90690056841E+03  0.90690056841E+03  0.00000000000E+00 0.  1.
    9000010    2    1    2  501    0  0.13093954669E+03  0.44969096753E+01  0.17928519603E+04  0.20596144809E+04  0.10052503525E+04 0.  0.
        -13    1    3    3    0    0  0.37172706550E+03 -0.36582535234E+03  0.12834350682E+04  0.13853572770E+04  0.10566000000E+00 0.  1.
          4    1    3    3  501    0 -0.24078751881E+03  0.37032226201E+03  0.50941689217E+03  0.67425720388E+03  0.00000000000E+00 0.  1.
         13    1    1    2    0    0 -0.13093954669E+03 -0.44969096753E+01 -0.76797148337E+03  0.77906713287E+03  0.10566000000E+00 0. -1.
<mgrwt>
<rscale>  1 0.60782788E+03</rscale>
<asrwt>0</asrwt>
<pdfrwt beam="1">  1       21 0.29719708E+00 0.10137523E+04</pdfrwt>
<pdfrwt beam="2">  1        4 0.13952316E+00 0.10137523E+04</pdfrwt>
<totfact> 0.38512583E-01</totfact>
</mgrwt>
</event>
<event>
 6    1  0.1412458E-005  0.1153841E+04  0.7818608E-02  0.9399869E-01
          4   -1    0    0  502    0 -0.00000000000E+00  0.00000000000E+00  0.19289394202E+04  0.19289394202E+04  0.00000000000E+00 0.  1.
         21   -1    0    0  501  502  0.00000000000E+00 -0.00000000000E+00 -0.47901657917E+03  0.47901657917E+03  0.00000000000E+00 0.  1.
    9000010    2    1    2  501    0  0.40885500147E+03  0.22795222653E+03  0.33926870029E+03  0.12026853819E+04  0.10546204280E+04 0.  0.
        -13    1    3    3    0    0  0.83792660506E+01 -0.39624567335E+03  0.21444995876E+03  0.45063249075E+03  0.10566000000E+00 0.  1.
          4    1    3    3  501    0  0.40047573542E+03  0.62419789988E+03  0.12481874153E+03  0.75205289116E+03  0.00000000000E+00 0.  1.
         13    1    1    2    0    0 -0.40885500147E+03 -0.22795222653E+03  0.11106541407E+04  0.12052706174E+04  0.10566000000E+00 0. -1.
<mgrwt>
<rscale>  1 0.92086476E+03</rscale>
<asrwt>0</asrwt>
<pdfrwt beam="2">  1       21 0.73694859E-01 0.11538409E+04</pdfrwt>
<pdfrwt beam="1">  1        4 0.29675991E+00 0.11538409E+04</pdfrwt>
<totfact> 0.20124715E+00</totfact>
</mgrwt>
</event>
<event>
 6    1  0.1412458E-005  0.1005741E+04  0.7818608E-02  0.9919107E-01
          4   -1    0    0  502    0 -0.00000000000E+00  0.00000000000E+00  0.34317530614E+03  0.34317530614E+03  0.00000000000E+00 0.  1.
         21   -1    0    0  501  502  0.00000000000E+00 -0.00000000000E+00 -0.11253957492E+04  0.11253957492E+04  0.00000000000E+00 0.  1.
    9000010    2    1    2  501    0 -0.95822447459E+02  0.75372816251E+02 -0.86055682795E+03  0.13236586569E+04  0.99832418732E+03 0.  0.
        -13    1    3    3    0    0  0.36712384098E+03  0.23981594446E+03 -0.66135383587E+03  0.79352410752E+03  0.10566000000E+00 0.  1.
          4    1    3    3  501    0 -0.46294628843E+03 -0.16444312821E+03 -0.19920299207E+03  0.53013454937E+03  0.00000000000E+00 0.  1.
         13    1    1    2    0    0  0.95822447459E+02 -0.75372816251E+02  0.78336384878E+02  0.14491239846E+03  0.10566000000E+00 0. -1.
<mgrwt>
<rscale>  1 0.59344142E+03</rscale>
<asrwt>0</asrwt>
<pdfrwt beam="2">  1       21 0.17313781E+00 0.10057406E+04</pdfrwt>
<pdfrwt beam="1">  1        4 0.52796201E-01 0.10057406E+04</pdfrwt>
<totfact> 0.24670461E+01</totfact>
</mgrwt>
</event>
<event>
 6    1  0.1412458E-005  0.1036322E+04  0.7818608E-02  0.9659266E-01
          4   -1    0    0  502    0 -0.00000000000E+00  0.00000000000E+00  0.15716064007E+04  0.15716064007E+04  0.00000000000E+00 0.  1.
         21   -1    0    0  501  502  0.00000000000E+00 -0.00000000000E+00 -0.26821055577E+03  0.26821055577E+03  0.00000000000E+00 0.  1.
    9000010    2    1    2  501    0 -0.24240752697E+03 -0.99791027214E+02  0.10354818751E+04  0.14649869088E+04  0.10026187067E+04 0.  0.
        -13    1    3    3    0    0 -0.91986584032E+02  0.32586635265E+03  0.94597127968E+03  0.10047447858E+04  0.10566000000E+00 0.  1.
          4    1    3    3  501    0 -0.15042094294E+03 -0.42565737986E+03  0.89510595460E+02  0.46024212303E+03  0.00000000000E+00 0.  1.
         13    1    1    2    0    0  0.24240752697E+03  0.99791027214E+02  0.26791396975E+03  0.37483004762E+03  0.10566000000E+00 0. -1.
<mgrwt>
<rscale>  1 0.73494742E+03</rscale>
<asrwt>0</asrwt>
<pdfrwt beam="2">  1       21 0.41263163E-01 0.10363223E+04</pdfrwt>
<pdfrwt beam="1">  1        4 0.24178559E+00 0.10363223E+04</pdfrwt>
<totfact> 0.16044209E+01</totfact>
</mgrwt>
</event>
<event>
 6    1  0.1412458E-005  0.1014580E+04  0.7818608E-02  0.9868060E-01
         21   -1    0    0  501  502  0.00000000000E+00  0.00000000000E+00  0.65427881884E+03  0.65427881884E+03  0.00000000000E+00 0.  1.
          4   -1    0    0  502    0 -0.00000000000E+00 -0.00000000000E+00 -0.51236088473E+03  0.51236088473E+03  0.00000000000E+00 0.  1.
    9000010    2    1    2  501    0  0.73283491064E+02 -0.11926370442E+03  0.15374005619E+03  0.10261616804E+04  0.10048768523E+04 0.  0.
        -13    1    3    3    0    0 -0.78334127887E+02  0.26897438316E+03  0.43923041746E+03  0.52096720163E+03  0.10566000000E+00 0.  1.
          4    1    3    3  501    0  0.15161761895E+03 -0.38823808758E+03 -0.28549036127E+03  0.50519447879E+03  0.00000000000E+00 0.  1.
         13    1    1    2    0    0 -0.73283491064E+02  0.11926370442E+03 -0.11822122081E+02  0.14047802315E+03  0.10566000000E+00 0. -1.
<mgrwt>
<rscale>  1 0.61834500E+03</rscale>
<asrwt>0</asrwt>
<pdfrwt beam="1">  1       21 0.10065828E+00 0.10145796E+04</pdfrwt>
<pdfrwt beam="2">  1        4 0.78824751E-01 0.10145796E+04</pdfrwt>
<totfact> 0.43677590E+01</totfact>
</mgrwt>
</event>
<event>
 6    1  0.1412458E-005  0.1029332E+04  0.7818608E-02  0.9665931E-01
         21   -1    0    0  501  502  0.00000000000E+00  0.00000000000E+00  0.44589555638E+03  0.44589555638E+03  0.00000000000E+00 0.  1.
          4   -1    0    0  502    0 -0.00000000000E+00 -0.00000000000E+00 -0.14937998337E+04  0.14937998337E+04  0.00000000000E+00 0.  1.
    9000010    2    1    2  501    0 -0.37102239804E+02  0.25891660440E+03 -0.19507125812E+03  0.10476536007E+04  0.99554552234E+03 0.  0.
        -13    1    3    3    0    0 -0.30581103969E+03 -0.23096298766E+03 -0.29041850513E+03  0.48084011163E+03  0.10566000000E+00 0.  1.
          4    1    3    3  501    0  0.26870879989E+03  0.48987959207E+03  0.95347247006E+02  0.56681348905E+03  0.00000000000E+00 0.  1.
         13    1    1    2    0    0  0.37102239804E+02 -0.25891660440E+03 -0.85283301921E+03  0.89204178941E+03  0.10566000000E+00 0. -1.
<mgrwt>
<rscale>  1 0.73081959E+03</rscale>
<asrwt>0</asrwt>
<pdfrwt beam="1">  1       21 0.68599317E-01 0.10293324E+04</pdfrwt>
<pdfrwt beam="2">  1        4 0.22981536E+00 0.10293324E+04</pdfrwt>
<totfact> 0.62743849E+00</totfact>
</mgrwt>
</event>
<event>
 6    1  0.1412458E-005  0.1006772E+04  0.7818608E-02  0.9879792E-01
         21   -1    0    0  501  502  0.00000000000E+00  0.00000000000E+00  0.87431679393E+03  0.87431679393E+03  0.00000000000E+00 0.  1.
          4   -1    0    0  502    0 -0.00000000000E+00 -0.00000000000E+00 -0.40460857093E+03  0.40460857093E+03  0.00000000000E+00 0.  1.
    9000010    2    1    2  501    0  0.12367250773E+03 -0.61066827880E+02  0.51872314218E+03  0.11325473607E+04  0.99727918828E+03 0.  0.
        -13    1    3    3    0    0 -0.78549671454E+01 -0.36176367723E+03 -0.14680281034E+03  0.39049421885E+03  0.10566000000E+00 0.  1.
          4    1    3    3  501    0  0.13152747487E+03  0.30069684935E+03  0.66552595252E+03  0.74205314185E+03  0.00000000000E+00 0.  1.
         13    1    1    2    0    0 -0.12367250773E+03  0.61066827880E+02 -0.49014919170E+02  0.14637800415E+03  0.10566000000E+00 0. -1.
<mgrwt>
<rscale>  1 0.61250725E+03</rscale>
<asrwt>0</asrwt>
<pdfrwt beam="1">  1       21 0.13451028E+00 0.10067720E+04</pdfrwt>
<pdfrwt beam="2">  1        4 0.62247473E-01 0.10067720E+04</pdfrwt>
<totfact> 0.35140780E+01</totfact>
</mgrwt>
</event>
<event>
 6    1  0.1412458E-005  0.9069275E+03  0.7818608E-02  0.9811190E-01
          4   -1    0    0  502    0 -0.00000000000E+00  0.00000000000E+00  0.45239772179E+03  0.45239772179E+03  0.00000000000E+00 0.  1.
         21   -1    0    0  501  502  0.00000000000E+00 -0.00000000000E+00 -0.11301762279E+04  0.11301762279E+04  0.00000000000E+00 0.  1.
    9000010    2    1    2  501    0  0.16606561577E+03  0.16748885491E+03 -0.88605526108E+03  0.12679161624E+04  0.87572093946E+03 0.  0.
        -13    1    3    3    0    0  0.38587489029E+03 -0.14823826363E+03 -0.15435972035E+03  0.44124930390E+03  0.10566000000E+00 0.  1.
          4    1    3    3  501    0 -0.21980927452E+03  0.31572711854E+03 -0.73169554073E+03  0.82666685846E+03  0.00000000000E+00 0.  1.
         13    1    1    2    0    0 -0.16606561577E+03 -0.16748885491E+03  0.20827675501E+03  0.31465778729E+03  0.10566000000E+00 0. -1.
<mgrwt>
<rscale>  1 0.64765447E+03</rscale>
<asrwt>0</asrwt>
<pdfrwt beam="2">  1       21 0.17387326E+00 0.90692749E+03</pdfrwt>
<pdfrwt beam="1">  1        4 0.69599650E-01 0.90692749E+03</pdfrwt>
<totfact> 0.13499414E+01</totfact>
</mgrwt>
</event>
<event>
 6    1  0.1412458E-005  0.1058065E+04  0.7818608E-02  0.9561716E-01
         21   -1    0    0  501  502  0.00000000000E+00  0.00000000000E+00  0.27451101101E+03  0.27451101101E+03  0.00000000000E+00 0.  1.
          4   -1    0    0  502    0 -0.00000000000E+00 -0.00000000000E+00 -0.19529453190E+04  0.19529453190E+04  0.00000000000E+00 0.  1.
    9000010    2    1    2  501    0  0.32570662142E+03  0.10998317971E+03 -0.94997755461E+03  0.14219562643E+04  0.10006603622E+04 0.  0.
        -13    1    3    3    0    0  0.38332542362E+03  0.34102667086E+02 -0.11433535449E+04  0.12063824900E+04  0.10566000000E+00 0.  1.
          4    1    3    3  501    0 -0.57618802198E+02  0.75880512624E+02  0.19337599032E+03  0.21557377436E+03  0.00000000000E+00 0.  1.
         13    1    1    2    0    0 -0.32570662142E+03 -0.10998317971E+03 -0.72845675336E+03  0.80550006564E+03  0.10566000000E+00 0. -1.
<mgrwt>
<rscale>  1 0.79882726E+03</rscale>
<asrwt>0</asrwt>
<pdfrwt beam="1">  1       21 0.42232463E-01 0.10580653E+04</pdfrwt>
<pdfrwt beam="2">  1        4 0.30045313E+00 0.10580653E+04</pdfrwt>
<totfact> 0.66139154E+00</totfact>
</mgrwt>
</event>
<event>
 6    1  0.1412458E-005  0.9933407E+03  0.7818608E-02  0.1024896E+00
         21   -1    0    0  501  502  0.00000000000E+00  0.00000000000E+00  0.24302660825E+04  0.24302660825E+04  0.00000000000E+00 0.  1.
          4   -1    0    0  502    0 -0.00000000000E+00 -0.00000000000E+00 -0.14941882744E+03  0.14941882744E+03  0.00000000000E+00 0.  1.
    9000010    2    1    2  501    0 -0.34104614474E+01  0.45395563860E+02  0.23173868940E+04  0.25213107303E+04  0.99229702919E+03 0.  0.
        -13    1    3    3    0    0  0.22939832921E+03 -0.40697839734E+03  0.87633053696E+03  0.99308118022E+03  0.10566000000E+00 0.  1.
          4    1    3    3  501    0 -0.23280879065E+03  0.45237396120E+03  0.14410563570E+04  0.15282295501E+04  0.00000000000E+00 0.  1.
         13    1    1    2    0    0  0.34104614474E+01 -0.45395563860E+02 -0.36539638919E+02  0.58374179581E+02  0.10566000000E+00 0. -1.
<mgrwt>
<rscale>  1 0.45960301E+03</rscale>
<asrwt>0</asrwt>
<pdfrwt beam="1">  1       21 0.37388706E+00 0.99334072E+03</pdfrwt>
<pdfrwt beam="2">  1        4 0.22987514E-01 0.99334072E+03</pdfrwt>
<totfact> 0.65822670E+00</totfact>
</mgrwt>
</event>
<event>
 6    1  0.1412458E-005  0.9797825E+03  0.7818608E-02  0.1007281E+00
         21   -1    0    0  501  502  0.00000000000E+00  0.00000000000E+00  0.34374898776E+03  0.34374898776E+03  0.00000000000E+00 0.  1.
          4   -1    0    0  502    0 -0.00000000000E+00 -0.00000000000E+00 -0.99960747139E+03  0.99960747139E+03  0.00000000000E+00 0.  1.
    9000010    2    1    2  501    0 -0.75925141560E+02  0.28784275701E+02 -0.37185625097E+03  0.10479746030E+04  0.97641207255E+03 0.  0.
        -13    1    3    3    0    0 -0.43542894455E+03 -0.25081887169E+03 -0.84756361297E+02  0.50959996477E+03  0.10566000000E+00 0.  1.
          4    1    3    3  501    0  0.35950380299E+03  0.27960314739E+03 -0.28709988967E+03  0.53837463819E+03  0.00000000000E+00 0.  1.
         13    1    1    2    0    0  0.75925141560E+02 -0.28784275701E+02 -0.28400223266E+03  0.29538185620E+03  0.10566000000E+00 0. -1.
<mgrwt>
<rscale>  1 0.52569526E+03</rscale>
<asrwt>0</asrwt>
<pdfrwt beam="1">  1       21 0.52884459E-01 0.97978247E+03</pdfrwt>
<pdfrwt beam="2">  1        4 0.15378577E+00 0.97978247E+03</pdfrwt>
<totfact> 0.37231250E+01</totfact>
</mgrwt>
</event>
<event>
 6    1  0.1412458E-005  0.1055432E+04  0.7818608E-02  0.9744577E-01
         21   -1    0    0  501  502  0.00000000000E+00  0.00000000000E+00  0.76507103125E+03  0.76507103125E+03  0.00000000000E+00 0.  1.
          4   -1    0    0  502    0 -0.00000000000E+00 -0.00000000000E+00 -0.52179258786E+03  0.52179258786E+03  0.00000000000E+00 0.  1.
    9000010    2    1    2  501    0  0.18617790768E+03  0.98357387436E+01  0.29022136270E+03  0.10946070096E+04  0.10388344964E+04 0.  0.
        -13    1    3    3    0    0  0.32422787647E+03  0.29926383901E+03  0.53334199979E+03  0.69219669251E+03  0.10566000000E+00 0.  1.
          4    1    3    3  501    0 -0.13804996879E+03 -0.28942810027E+03 -0.24312063710E+03  0.40241031708E+03  0.00000000000E+00 0.  1.
         13    1    1    2    0    0 -0.18617790768E+03 -0.98357387436E+01 -0.46942919312E+02  0.19225660952E+03  0.10566000000E+00 0. -1.
<mgrwt>
<rscale>  1 0.68423606E+03</rscale>
<asrwt>0</asrwt>
<pdfrwt beam="1">  1       21 0.11770324E+00 0.10554317E+04</pdfrwt>
<pdfrwt beam="2">  1        4 0.80275783E-01 0.10554317E+04</pdfrwt>
<totfact> 0.28091229E+01</totfact>
</mgrwt>
</event>
<event>
 6    1  0.1412458E-005  0.1053330E+04  0.7818608E-02  0.9574171E-01
         21   -1    0    0  501  502  0.00000000000E+00  0.00000000000E+00  0.24558407550E+03  0.24558407550E+03  0.00000000000E+00 0.  1.
          4   -1    0    0  502    0 -0.00000000000E+00 -0.00000000000E+00 -0.23851377838E+04  0.23851377838E+04  0.00000000000E+00 0.  1.
    9000010    2    1    2  501    0 -0.33334007454E+03  0.17190249983E+02 -0.10345793775E+04  0.14764344631E+04  0.99904610788E+03 0.  0.
        -13    1    3    3    0    0 -0.47071285206E+03  0.19017722065E+03 -0.11277029328E+04  0.12367101036E+04  0.10566000000E+00 0.  1.
          4    1    3    3  501    0  0.13737277752E+03 -0.17298697066E+03  0.93123555350E+02  0.23972435960E+03  0.00000000000E+00 0.  1.
         13    1    1    2    0    0  0.33334007454E+03 -0.17190249983E+02 -0.11049743308E+04  0.11542873961E+04  0.10566000000E+00 0. -1.
<mgrwt>
<rscale>  1 0.79029536E+03</rscale>
<asrwt>0</asrwt>
<pdfrwt beam="1">  1       21 0.37782164E-01 0.10533301E+04</pdfrwt>
<pdfrwt beam="2">  1        4 0.36694429E+00 0.10533301E+04</pdfrwt>
<totfact> 0.31462044E+00</totfact>
</mgrwt>
</event>
<event>
 6    1  0.1412458E-005  0.1124792E+04  0.7818608E-02  0.9392636E-01
          4   -1    0    0  502    0 -0.00000000000E+00  0.00000000000E+00  0.83947166869E+03  0.83947166869E+03  0.00000000000E+00 0.  1.
         21   -1    0    0  501  502  0.00000000000E+00 -0.00000000000E+00 -0.80715151421E+03  0.80715151421E+03  0.00000000000E+00 0.  1.
    9000010    2    1    2  501    0  0.50535753725E+03 -0.11630182419E+03 -0.23674077417E+02  0.11250412431E+04  0.99812072514E+03 0.  0.
        -13    1    3    3    0    0  0.30804871090E+03 -0.29131540952E+03 -0.45345326327E+03  0.62078865103E+03  0.10566000000E+00 0.  1.
          4    1    3    3  501    0  0.19730882636E+03  0.17501358533E+03  0.42977918586E+03  0.50425259206E+03  0.00000000000E+00 0.  1.
         13    1    1    2    0    0 -0.50535753725E+03  0.11630182419E+03  0.55994231900E+02  0.52158193981E+03  0.10566000000E+00 0. -1.
<mgrwt>
<rscale>  1 0.92684166E+03</rscale>
<asrwt>0</asrwt>
<pdfrwt beam="2">  1       21 0.12417716E+00 0.11247921E+04</pdfrwt>
<pdfrwt beam="1">  1        4 0.12914949E+00 0.11247921E+04</pdfrwt>
<totfact> 0.76502432E+00</totfact>
</mgrwt>
</event>
<event>
 6    1  0.1412458E-005  0.1202378E+04  0.7818608E-02  0.9518499E-01
         21   -1    0    0  501  502  0.00000000000E+00  0.00000000000E+00  0.89480045224E+03  0.89480045224E+03  0.00000000000E+00 0.  1.
          4   -1    0    0  502    0 -0.00000000000E+00 -0.00000000000E+00 -0.74772998158E+03  0.74772998158E+03  0.00000000000E+00 0.  1.
    9000010    2    1    2  501    0 -0.12092808507E+03 -0.24379996824E+03  0.40382958600E+03  0.12683816923E+04  0.11711753740E+04 0.  0.
        -13    1    3    3    0    0  0.13920641656E+03  0.41938371369E+03 -0.14750984255E+02  0.44212976423E+03  0.10566000000E+00 0.  1.
          4    1    3    3  501    0 -0.26013450164E+03 -0.66318368193E+03  0.41858057026E+03  0.82625192811E+03  0.00000000000E+00 0.  1.
         13    1    1    2    0    0  0.12092808507E+03  0.24379996824E+03 -0.25675911534E+03  0.37414874147E+03  0.10566000000E+00 0. -1.
<mgrwt>
<rscale>  1 0.82933564E+03</rscale>
<asrwt>0</asrwt>
<pdfrwt beam="1">  1       21 0.13766161E+00 0.12023784E+04</pdfrwt>
<pdfrwt beam="2">  1        4 0.11503538E+00 0.12023784E+04</pdfrwt>
<totfact> 0.77255323E+00</totfact>
</mgrwt>
</event>
<event>
 6    1  0.1412458E-005  0.9917542E+03  0.7818608E-02  0.9832520E-01
          4   -1    0    0  502    0 -0.00000000000E+00  0.00000000000E+00  0.61124915695E+03  0.61124915695E+03  0.00000000000E+00 0.  1.
         21   -1    0    0  501  502  0.00000000000E+00 -0.00000000000E+00 -0.61232083372E+03  0.61232083372E+03  0.00000000000E+00 0.  1.
    9000010    2    1    2  501    0 -0.90545236704E+02 -0.14177199626E+03 -0.14485255670E+03  0.10022767657E+04  0.97738360591E+03 0.  0.
        -13    1    3    3    0    0 -0.23545036504E+03 -0.37907041967E+03 -0.41877506297E+03  0.61196717396E+03  0.10566000000E+00 0.  1.
          4    1    3    3  501    0  0.14490512834E+03  0.23729842341E+03  0.27392250628E+03  0.39030959176E+03  0.00000000000E+00 0.  1.
         13    1    1    2    0    0  0.90545236704E+02  0.14177199626E+03  0.14378087993E+03  0.22129322496E+03  0.10566000000E+00 0. -1.
<mgrwt>
<rscale>  1 0.63646135E+03</rscale>
<asrwt>0</asrwt>
<pdfrwt beam="2">  1       21 0.94203205E-01 0.99175423E+03</pdfrwt>
<pdfrwt beam="1">  1        4 0.94038332E-01 0.99175423E+03</pdfrwt>
<totfact> 0.34136294E+01</totfact>
</mgrwt>
</event>
<event>
 6    1  0.1412458E-005  0.9818012E+03  0.7818608E-02  0.1055214E+00
         21   -1    0    0  501  502  0.00000000000E+00  0.00000000000E+00  0.16079437106E+03  0.16079437106E+03  0.00000000000E+00 0.  1.
          4   -1    0    0  502    0 -0.00000000000E+00 -0.00000000000E+00 -0.15976189183E+04  0.15976189183E+04  0.00000000000E+00 0.  1.
    9000010    2    1    2  501    0  0.14007063382E+02 -0.13585615763E+02 -0.13490343064E+04  0.16684805127E+04  0.98160730152E+03 0.  0.
        -13    1    3    3    0    0 -0.20983367325E+03 -0.10066461277E+03  0.59012353770E+02  0.24009582203E+03  0.10566000000E+00 0.  1.
          4    1    3    3  501    0  0.22384073663E+03  0.87078997008E+02 -0.14080466602E+04  0.14283846906E+04  0.00000000000E+00 0.  1.
         13    1    1    2    0    0 -0.14007063382E+02  0.13585615763E+02 -0.87790240772E+02  0.89932776668E+02  0.10566000000E+00 0. -1.
<mgrwt>
<rscale>  1 0.36863932E+03</rscale>
<asrwt>0</asrwt>
<pdfrwt beam="1">  1       21 0.24737596E-01 0.98180123E+03</pdfrwt>
<pdfrwt beam="2">  1        4 0.24578752E+00 0.98180123E+03</pdfrwt>
<totfact> 0.43161017E+01</totfact>
</mgrwt>
</event>
<event>
 6    1  0.1412458E-005  0.1021532E+04  0.7818608E-02  0.9884719E-01
          4   -1    0    0  502    0 -0.00000000000E+00  0.00000000000E+00  0.32712023979E+03  0.32712023979E+03  0.00000000000E+00 0.  1.
         21   -1    0    0  501  502  0.00000000000E+00 -0.00000000000E+00 -0.10223080196E+04  0.10223080196E+04  0.00000000000E+00 0.  1.
    9000010    2    1    2  501    0  0.84955326808E+02 -0.98335583103E+02 -0.65465766009E+03  0.12133033307E+04  0.10132329573E+04 0.  0.
        -13    1    3    3    0    0 -0.35133828985E+03 -0.15327233201E+03 -0.67154291558E+03  0.77324051905E+03  0.10566000000E+00 0.  1.
          4    1    3    3  501    0  0.43629361665E+03  0.54936748904E+02  0.16885255490E+02  0.44006281161E+03  0.00000000000E+00 0.  1.
         13    1    1    2    0    0 -0.84955326808E+02  0.98335583103E+02 -0.40530119738E+02  0.13612492875E+03  0.10566000000E+00 0. -1.
<mgrwt>
<rscale>  1 0.61007627E+03</rscale>
<asrwt>0</asrwt>
<pdfrwt beam="2">  1       21 0.15727816E+00 0.10215323E+04</pdfrwt>
<pdfrwt beam="1">  1        4 0.50326191E-01 0.10215323E+04</pdfrwt>
<totfact> 0.36010426E+01</totfact>
</mgrwt>
</event>
<event>
 6    1  0.1412458E-005  0.1028002E+04  0.7818608E-02  0.9657456E-01
          4   -1    0    0  502    0 -0.00000000000E+00  0.00000000000E+00  0.61209695357E+03  0.61209695357E+03  0.00000000000E+00 0.  1.
         21   -1    0    0  501  502  0.00000000000E+00 -0.00000000000E+00 -0.83643994884E+03  0.83643994884E+03  0.00000000000E+00 0.  1.
    9000010    2    1    2  501    0  0.42827239090E+02 -0.26679539457E+03 -0.42456996149E+03  0.11122263255E+04  0.99185371500E+03 0.  0.
        -13    1    3    3    0    0  0.26084809761E+03 -0.37026577599E+03  0.15956161416E+03  0.48020661675E+03  0.10566000000E+00 0.  1.
          4    1    3    3  501    0 -0.21802085852E+03  0.10347038142E+03 -0.58413157565E+03  0.63201970875E+03  0.00000000000E+00 0.  1.
         13    1    1    2    0    0 -0.42827239090E+02  0.26679539457E+03  0.20022696622E+03  0.33631057690E+03  0.10566000000E+00 0. -1.
<mgrwt>
<rscale>  1 0.73607345E+03</rscale>
<asrwt>0</asrwt>
<pdfrwt beam="2">  1       21 0.12868307E+00 0.10280018E+04</pdfrwt>
<pdfrwt beam="1">  1        4 0.94168763E-01 0.10280018E+04</pdfrwt>
<totfact> 0.15350975E+01</totfact>
</mgrwt>
</event>
<event>
 6    1  0.1412458E-005  0.1008431E+04  0.7818608E-02  0.9792217E-01
          4   -1    0    0  502    0 -0.00000000000E+00  0.00000000000E+00  0.41416203780E+03  0.41416203780E+03  0.00000000000E+00 0.  1.
         21   -1    0    0  501  502  0.00000000000E+00 -0.00000000000E+00 -0.86423122113E+03  0.86423122113E+03  0.00000000000E+00 0.  1.
    9000010    2    1    2  501    0 -0.73275909825E+01 -0.18244691059E+03 -0.33524360438E+03  0.10626955688E+04  0.99176258699E+03 0.  0.
        -13    1    3    3    0    0  0.48389710282E+03 -0.16792158691E+03 -0.11935803572E+03  0.52592814844E+03  0.10566000000E+00 0.  1.
          4    1    3    3  501    0 -0.49122469380E+03 -0.14525323685E+02 -0.21588556866E+03  0.53676742038E+03  0.00000000000E+00 0.  1.
         13    1    1    2    0    0  0.73275909825E+01  0.18244691059E+03 -0.11482557894E+03  0.21569769011E+03  0.10566000000E+00 0. -1.
<mgrwt>
<rscale>  1 0.65781901E+03</rscale>
<asrwt>0</asrwt>
<pdfrwt beam="2">  1       21 0.13295865E+00 0.10084313E+04</pdfrwt>
<pdfrwt beam="1">  1        4 0.63717237E-01 0.10084313E+04</pdfrwt>
<totfact> 0.34430947E+01</totfact>
</mgrwt>
</event>
<event>
 6    1  0.1412458E-005  0.1209311E+04  0.7818608E-02  0.9259974E-01
          4   -1    0    0  502    0 -0.00000000000E+00  0.00000000000E+00  0.11522466544E+04  0.11522466544E+04  0.00000000000E+00 0.  1.
         21   -1    0    0  501  502  0.00000000000E+00 -0.00000000000E+00 -0.77647196709E+03  0.77647196709E+03  0.00000000000E+00 0.  1.
    9000010    2    1    2  501    0 -0.58653693996E+03 -0.33539328387E+03  0.16238653400E+03  0.12201646349E+04  0.10029546914E+04 0.  0.
        -13    1    3    3    0    0 -0.53673078907E+03 -0.67292808287E+03  0.17654633037E+03  0.87868126336E+03  0.10566000000E+00 0.  1.
          4    1    3    3  501    0 -0.49806150882E+02  0.33753479900E+03 -0.14159796368E+02  0.34148337154E+03  0.00000000000E+00 0.  1.
         13    1    1    2    0    0  0.58653693996E+03  0.33539328387E+03  0.21338815334E+03  0.70855398662E+03  0.10566000000E+00 0. -1.
<mgrwt>
<rscale>  1 0.10455269E+04</rscale>
<asrwt>0</asrwt>
<pdfrwt beam="2">  1       21 0.11945723E+00 0.12093107E+04</pdfrwt>
<pdfrwt beam="1">  1        4 0.17726872E+00 0.12093107E+04</pdfrwt>
<totfact> 0.35545984E+00</totfact>
</mgrwt>
</event>
<event>
 6    1  0.1412458E-005  0.1023839E+04  0.7818608E-02  0.1013331E+00
          4   -1    0    0  502    0 -0.00000000000E+00  0.00000000000E+00  0.55566784948E+03  0.55566784948E+03  0.00000000000E+00 0.  1.
         21   -1    0    0  501  502  0.00000000000E+00 -0.00000000000E+00 -0.53346944039E+03  0.53346944039E+03  0.00000000000E+00 0.  1.
    9000010    2    1    2  501    0  0.50278176083E+02  0.30948971614E+02 -0.56606018842E+01  0.10238542945E+04  0.10221349422E+04 0.  0.
        -13    1    3    3    0    0  0.10130760062E+03 -0.37654002550E+02 -0.50541344245E+03  0.51684021982E+03  0.10566000000E+00 0.  1.
          4    1    3    3  501    0 -0.51029424534E+02  0.68602974164E+02  0.49975284056E+03  0.50701407464E+03  0.00000000000E+00 0.  1.
         13    1    1    2    0    0 -0.50278176083E+02 -0.30948971614E+02  0.27859010974E+02  0.65282995418E+02  0.10566000000E+00 0. -1.
<mgrwt>
<rscale>  1 0.50171905E+03</rscale>
<asrwt>0</asrwt>
<pdfrwt beam="2">  1       21 0.82072222E-01 0.10238386E+04</pdfrwt>
<pdfrwt beam="1">  1        4 0.85487361E-01 0.10238386E+04</pdfrwt>
<totfact> 0.59325543E+01</totfact>
</mgrwt>
</event>
<event>
 6    1  0.1412458E-005  0.1030244E+04  0.7818608E-02  0.9677679E-01
         21   -1    0    0  501  502  0.00000000000E+00  0.00000000000E+00  0.21168422955E+03  0.21168422955E+03  0.00000000000E+00 0.  1.
          4   -1    0    0  502    0 -0.00000000000E+00 -0.00000000000E+00 -0.19415679734E+04  0.19415679734E+04  0.00000000000E+00 0.  1.
    9000010    2    1    2  501    0  0.18380740477E+03  0.17053195162E+03 -0.13531782327E+04  0.17007332952E+04  0.99926778363E+03 0.  0.
        -13    1    3    3    0    0  0.49955651397E+03 -0.14661475706E+03 -0.43168567281E+03  0.67631732856E+03  0.10566000000E+00 0.  1.
          4    1    3    3  501    0 -0.31574910920E+03  0.31714670867E+03 -0.92149255988E+03  0.10244159666E+04  0.00000000000E+00 0.  1.
         13    1    1    2    0    0 -0.18380740477E+03 -0.17053195162E+03 -0.37670551111E+03  0.45251890771E+03  0.10566000000E+00 0. -1.
<mgrwt>
<rscale>  1 0.72361453E+03</rscale>
<asrwt>0</asrwt>
<pdfrwt beam="1">  1       21 0.32566805E-01 0.10302439E+04</pdfrwt>
<pdfrwt beam="2">  1        4 0.29870276E+00 0.10302439E+04</pdfrwt>
<totfact> 0.11665889E+01</totfact>
</mgrwt>
</event>
<event>
 6    1  0.1412458E-005  0.1070157E+04  0.7818608E-02  0.9520860E-01
         21   -1    0    0  501  502  0.00000000000E+00  0.00000000000E+00  0.25001898642E+03  0.25001898642E+03  0.00000000000E+00 0.  1.
          4   -1    0    0  502    0 -0.00000000000E+00 -0.00000000000E+00 -0.21837320460E+04  0.21837320460E+04  0.00000000000E+00 0.  1.
    9000010    2    1    2  501    0  0.30953832851E+03  0.22526668517E+03 -0.12124099109E+04  0.16171499672E+04  0.99933836518E+03 0.  0.
        -13    1    3    3    0    0 -0.11607508885E+03 -0.19576944114E+03 -0.92586577202E+03  0.95342883285E+03  0.10566000000E+00 0.  1.
          4    1    3    3  501    0  0.42561341736E+03  0.42103612630E+03 -0.28654413892E+03  0.66372113440E+03  0.00000000000E+00 0.  1.
         13    1    1    2    0    0 -0.30953832851E+03 -0.22526668517E+03 -0.72130314864E+03  0.81660106518E+03  0.10566000000E+00 0. -1.
<mgrwt>
<rscale>  1 0.82763194E+03</rscale>
<asrwt>0</asrwt>
<pdfrwt beam="1">  1       21 0.38464458E-01 0.10701571E+04</pdfrwt>
<pdfrwt beam="2">  1        4 0.33595878E+00 0.10701571E+04</pdfrwt>
<totfact> 0.48065341E+00</totfact>
</mgrwt>
</event>
<event>
 6    1  0.1412458E-005  0.1038671E+04  0.7818608E-02  0.9899877E-01
          4   -1    0    0  502    0 -0.00000000000E+00  0.00000000000E+00  0.10439874507E+04  0.10439874507E+04  0.00000000000E+00 0.  1.
         21   -1    0    0  501  502  0.00000000000E+00 -0.00000000000E+00 -0.60243309331E+03  0.60243309331E+03  0.00000000000E+00 0.  1.
    9000010    2    1    2  501    0  0.11477164138E+03  0.26230049940E+02 -0.14448497383E+03  0.10486725586E+04  0.10319775590E+04 0.  0.
        -13    1    3    3    0    0 -0.31231022751E+03 -0.16218565710E+03  0.25474459845E+03  0.43443835832E+03  0.10566000000E+00 0.  1.
          4    1    3    3  501    0  0.42708186889E+03  0.18841570704E+03 -0.39922957228E+03  0.61423420026E+03  0.00000000000E+00 0.  1.
         13    1    1    2    0    0 -0.11477164138E+03 -0.26230049940E+02  0.58603933124E+03  0.59774798545E+03  0.10566000000E+00 0. -1.
<mgrwt>
<rscale>  1 0.60267226E+03</rscale>
<asrwt>0</asrwt>
<pdfrwt beam="2">  1       21 0.92682015E-01 0.10386714E+04</pdfrwt>
<pdfrwt beam="1">  1        4 0.16061345E+00 0.10386714E+04</pdfrwt>
<totfact> 0.90590350E+00</totfact>
</mgrwt>
</event>
<event>
 6    1  0.1412458E-005  0.9833275E+03  0.7818608E-02  0.9834706E-01
         21   -1    0    0  501  502  0.00000000000E+00  0.00000000000E+00  0.87390896985E+03  0.87390896985E+03  0.00000000000E+00 0.  1.
          4   -1    0    0  502    0 -0.00000000000E+00 -0.00000000000E+00 -0.38427111916E+03  0.38427111916E+03  0.00000000000E+00 0.  1.
    9000010    2    1    2  501    0  0.12632413316E+03  0.11577952942E+03  0.37700492380E+03  0.10531218694E+04  0.96828212477E+03 0.  0.
        -13    1    3    3    0    0  0.44969813123E+03  0.13951046599E+03 -0.95143786023E+02  0.48035812737E+03  0.10566000000E+00 0.  1.
          4    1    3    3  501    0 -0.32337399807E+03 -0.23730936574E+02  0.47214870982E+03  0.57276374201E+03  0.00000000000E+00 0.  1.
         13    1    1    2    0    0 -0.12632413316E+03 -0.11577952942E+03  0.11263292689E+03  0.20505821963E+03  0.10566000000E+00 0. -1.
<mgrwt>
<rscale>  1 0.63532828E+03</rscale>
<asrwt>0</asrwt>
<pdfrwt beam="1">  1       21 0.13444753E+00 0.98332749E+03</pdfrwt>
<pdfrwt beam="2">  1        4 0.59118634E-01 0.98332749E+03</pdfrwt>
<totfact> 0.39464267E+01</totfact>
</mgrwt>
</event>
<event>
 6    1  0.1412458E-005  0.1031065E+04  0.7818608E-02  0.9629061E-01
          4   -1    0    0  502    0 -0.00000000000E+00  0.00000000000E+00  0.11223260470E+04  0.11223260470E+04  0.00000000000E+00 0.  1.
         21   -1    0    0  501  502  0.00000000000E+00 -0.00000000000E+00 -0.46635678127E+03  0.46635678127E+03  0.00000000000E+00 0.  1.
    9000010    2    1    2  501    0 -0.42359638014E+02 -0.29184483740E+03  0.20718121335E+03  0.10516740060E+04  0.98799109901E+03 0.  0.
        -13    1    3    3    0    0 -0.34871612020E+03  0.19897929061E+03  0.24756062814E+03  0.47167994058E+03  0.10566000000E+00 0.  1.
          4    1    3    3  501    0  0.30635648219E+03 -0.49082412800E+03 -0.40379414787E+02  0.57999406544E+03  0.00000000000E+00 0.  1.
         13    1    1    2    0    0  0.42359638014E+02  0.29184483740E+03  0.44878805233E+03  0.53700882220E+03  0.10566000000E+00 0. -1.
<mgrwt>
<rscale>  1 0.75402229E+03</rscale>
<asrwt>0</asrwt>
<pdfrwt beam="2">  1       21 0.71747197E-01 0.10310646E+04</pdfrwt>
<pdfrwt beam="1">  1        4 0.17266554E+00 0.10310646E+04</pdfrwt>
<totfact> 0.13569779E+01</totfact>
</mgrwt>
</event>
<event>
 6    1  0.1412458E-005  0.1699917E+04  0.7818608E-02  0.8813928E-01
          4   -1    0    0  502    0 -0.00000000000E+00  0.00000000000E+00  0.18448395196E+04  0.18448395196E+04  0.00000000000E+00 0.  1.
         21   -1    0    0  501  502  0.00000000000E+00 -0.00000000000E+00 -0.12969573531E+04  0.12969573531E+04  0.00000000000E+00 0. -1.
    9000010    2    1    2  501    0  0.10751694850E+04  0.85001015613E+03  0.49362908690E+03  0.17701372594E+04  0.10055891581E+04 0.  0.
        -13    1    3    3    0    0  0.12051397270E+04  0.94976319583E+03  0.46881147822E+03  0.16044301490E+04  0.10566000000E+00 0.  1.
          4    1    3    3  501    0 -0.12997024204E+03 -0.99753039695E+02  0.24817608674E+02  0.16570711042E+03  0.00000000000E+00 0.  1.
         13    1    1    2    0    0 -0.10751694850E+04 -0.85001015613E+03  0.54253079622E+02  0.13716596133E+04  0.10566000000E+00 0. -1.
<mgrwt>
<rscale>  1 0.16108212E+04</rscale>
<asrwt>0</asrwt>
<pdfrwt beam="2">  1       21 0.19953190E+00 0.16999165E+04</pdfrwt>
<pdfrwt beam="1">  1        4 0.28382146E+00 0.16999165E+04</pdfrwt>
<totfact> 0.15756620E-01</totfact>
</mgrwt>
</event>
<event>
 6    1  0.1412458E-005  0.1016086E+04  0.7818608E-02  0.9992321E-01
         21   -1    0    0  501  502  0.00000000000E+00  0.00000000000E+00  0.18394670970E+04  0.18394670970E+04  0.00000000000E+00 0.  1.
          4   -1    0    0  502    0 -0.00000000000E+00 -0.00000000000E+00 -0.30397926439E+03  0.30397926439E+03  0.00000000000E+00 0.  1.
    9000010    2    1    2  501    0 -0.91878011697E+02  0.18228352353E+02  0.16846261909E+04  0.19673324693E+04  0.10117597540E+04 0.  0.
        -13    1    3    3    0    0 -0.51235248099E+03 -0.26911825479E+02  0.52978263280E+03  0.73749505782E+03  0.10566000000E+00 0.  1.
          4    1    3    3  501    0  0.42047446929E+03  0.45140177832E+02  0.11548435581E+04  0.12298374115E+04  0.00000000000E+00 0.  1.
         13    1    1    2    0    0  0.91878011697E+02 -0.18228352353E+02 -0.14913835837E+03  0.17611389202E+03  0.10566000000E+00 0. -1.
<mgrwt>
<rscale>  1 0.55988236E+03</rscale>
<asrwt>0</asrwt>
<pdfrwt beam="1">  1       21 0.28299493E+00 0.10160864E+04</pdfrwt>
<pdfrwt beam="2">  1        4 0.46766042E-01 0.10160864E+04</pdfrwt>
<totfact> 0.59560638E+00</totfact>
</mgrwt>
</event>
<event>
 6    1  0.1412458E-005  0.1084226E+04  0.7818608E-02  0.9455295E-01
         21   -1    0    0  501  502  0.00000000000E+00  0.00000000000E+00  0.75296501066E+03  0.75296501066E+03  0.00000000000E+00 0.  1.
          4   -1    0    0  502    0 -0.00000000000E+00 -0.00000000000E+00 -0.81447911490E+03  0.81447911490E+03  0.00000000000E+00 0.  1.
    9000010    2    1    2  501    0  0.40798780270E+03 -0.21956232980E+03  0.68030648609E+02  0.10863583557E+04  0.98024723618E+03 0.  0.
        -13    1    3    3    0    0  0.67933719435E+03 -0.21661231101E+03  0.25450925548E+03  0.75709635397E+03  0.10566000000E+00 0.  1.
          4    1    3    3  501    0 -0.27134939165E+03 -0.29500187836E+01 -0.18647860687E+03  0.32926200173E+03  0.00000000000E+00 0.  1.
         13    1    1    2    0    0 -0.40798780270E+03  0.21956232980E+03 -0.12954475285E+03  0.48108576987E+03  0.10566000000E+00 0. -1.
<mgrwt>
<rscale>  1 0.87661565E+03</rscale>
<asrwt>0</asrwt>
<pdfrwt beam="1">  1       21 0.11584077E+00 0.10842261E+04</pdfrwt>
<pdfrwt beam="2">  1        4 0.12530448E+00 0.10842261E+04</pdfrwt>
<totfact> 0.99474874E+00</totfact>
</mgrwt>
</event>
<event>
 6    1  0.1412458E-005  0.1187952E+04  0.7818608E-02  0.9287508E-01
          4   -1    0    0  502    0 -0.00000000000E+00  0.00000000000E+00  0.38877574684E+03  0.38877574684E+03  0.00000000000E+00 0.  1.
         21   -1    0    0  501  502  0.00000000000E+00 -0.00000000000E+00 -0.31773698337E+04  0.31773698337E+04  0.00000000000E+00 0. -1.
    9000010    2    1    2  501    0  0.28571996899E+03 -0.57733579126E+03 -0.69639443088E+03  0.13770243120E+04  0.99813738336E+03 0.  0.
        -13    1    3    3    0    0  0.21288965545E+03 -0.41000862884E+03 -0.95478958285E+03  0.10606847976E+04  0.10566000000E+00 0.  1.
          4    1    3    3  501    0  0.72830313545E+02 -0.16732716242E+03  0.25839515197E+03  0.31633951447E+03  0.00000000000E+00 0.  1.
         13    1    1    2    0    0 -0.28571996899E+03  0.57733579126E+03 -0.20921996560E+04  0.21891212685E+04  0.10566000000E+00 0. -1.
<mgrwt>
<rscale>  1 0.10194105E+04</rscale>
<asrwt>0</asrwt>
<pdfrwt beam="2">  1       21 0.48882613E+00 0.11879523E+04</pdfrwt>
<pdfrwt beam="1">  1        4 0.59811653E-01 0.11879523E+04</pdfrwt>
<totfact> 0.15219893E-01</totfact>
</mgrwt>
</event>
<event>
 6    1  0.1412458E-005  0.1135103E+04  0.7818608E-02  0.9352757E-01
          4   -1    0    0  502    0 -0.00000000000E+00  0.00000000000E+00  0.10323594664E+04  0.10323594664E+04  0.00000000000E+00 0.  1.
         21   -1    0    0  501  502  0.00000000000E+00 -0.00000000000E+00 -0.77199504437E+03  0.77199504437E+03  0.00000000000E+00 0.  1.
    9000010    2    1    2  501    0 -0.53708376164E+02  0.57989403528E+03 -0.65533425176E+02  0.11369932145E+04  0.97431886879E+03 0.  0.
        -13    1    3    3    0    0 -0.49170743499E+03  0.47164302441E+03 -0.76949897867E+02  0.68567094298E+03  0.10566000000E+00 0.  1.
          4    1    3    3  501    0  0.43799905882E+03  0.10825101087E+03  0.11416472691E+02  0.45132227148E+03  0.00000000000E+00 0.  1.
         13    1    1    2    0    0  0.53708376164E+02 -0.57989403528E+03  0.32589784719E+03  0.66736129630E+03  0.10566000000E+00 0. -1.
<mgrwt>
<rscale>  1 0.96067683E+03</rscale>
<asrwt>0</asrwt>
<pdfrwt beam="2">  1       21 0.11876847E+00 0.11351031E+04</pdfrwt>
<pdfrwt beam="1">  1        4 0.15882453E+00 0.11351031E+04</pdfrwt>
<totfact> 0.49586667E+00</totfact>
</mgrwt>
</event>
<event>
 6    1  0.1412458E-005  0.1038886E+04  0.7818608E-02  0.9649804E-01
         21   -1    0    0  501  502  0.00000000000E+00  0.00000000000E+00  0.14252838037E+04  0.14252838037E+04  0.00000000000E+00 0.  1.
          4   -1    0    0  502    0 -0.00000000000E+00 -0.00000000000E+00 -0.39909240871E+03  0.39909240871E+03  0.00000000000E+00 0.  1.
    9000010    2    1    2  501    0 -0.26518590080E+03  0.43186082715E+02  0.11312317224E+04  0.15358938365E+04  0.10035417617E+04 0.  0.
        -13    1    3    3    0    0 -0.61992838177E+03 -0.11437218148E+03  0.54787580649E+03  0.83520063752E+03  0.10566000000E+00 0.  1.
          4    1    3    3  501    0  0.35474248097E+03  0.15755826419E+03  0.58335591590E+03  0.70069319894E+03  0.00000000000E+00 0.  1.
         13    1    1    2    0    0  0.26518590080E+03 -0.43186082715E+02 -0.10504032735E+03  0.28848237599E+03  0.10566000000E+00 0. -1.
<mgrwt>
<rscale>  1 0.74085734E+03</rscale>
<asrwt>0</asrwt>
<pdfrwt beam="1">  1       21 0.21927443E+00 0.10388863E+04</pdfrwt>
<pdfrwt beam="2">  1        4 0.61398833E-01 0.10388863E+04</pdfrwt>
<totfact> 0.84571101E+00</totfact>
</mgrwt>
</event>
<event>
 6    1  0.1412458E-005  0.1089772E+04  0.7818608E-02  0.9464603E-01
         21   -1    0    0  501  502  0.00000000000E+00  0.00000000000E+00  0.22882233008E+04  0.22882233008E+04  0.00000000000E+00 0. -1.
          4   -1    0    0  502    0 -0.00000000000E+00 -0.00000000000E+00 -0.26032455665E+03  0.26032455665E+03  0.00000000000E+00 0.  1.
    9000010    2    1    2  501    0 -0.41256448689E+03  0.15729759378E+03  0.15820754486E+04  0.19210843837E+04  0.99631847094E+03 0.  0.
        -13    1    3    3    0    0  0.15967111884E+03  0.28786046726E+03  0.12830502720E+03  0.35329973955E+03  0.10566000000E+00 0.  1.
          4    1    3    3  501    0 -0.57223560573E+03 -0.13056287348E+03  0.14537704214E+04  0.15677846442E+04  0.00000000000E+00 0.  1.
         13    1    1    2    0    0  0.41256448689E+03 -0.15729759378E+03  0.44582329560E+03  0.62746347377E+03  0.10566000000E+00 0. -1.
<mgrwt>
<rscale>  1 0.86944602E+03</rscale>
<asrwt>0</asrwt>
<pdfrwt beam="1">  1       21 0.35203434E+00 0.10897718E+04</pdfrwt>
<pdfrwt beam="2">  1        4 0.40049933E-01 0.10897718E+04</pdfrwt>
<totfact> 0.29951622E+00</totfact>
</mgrwt>
</event>
<event>
 6    1  0.1412458E-005  0.1019565E+04  0.7818608E-02  0.9882764E-01
         21   -1    0    0  501  502  0.00000000000E+00  0.00000000000E+00  0.84829387142E+03  0.84829387142E+03  0.00000000000E+00 0.  1.
          4   -1    0    0  502    0 -0.00000000000E+00 -0.00000000000E+00 -0.39105767907E+03  0.39105767907E+03  0.00000000000E+00 0.  1.
    9000010    2    1    2  501    0 -0.13151225094E+03  0.22996810730E+01  0.38978900061E+03  0.10915344489E+04  0.10110446219E+04 0.  0.
        -13    1    3    3    0    0 -0.90774843913E+02  0.46099324309E+03 -0.26736211227E+02  0.47060565086E+03  0.10566000000E+00 0.  1.
          4    1    3    3  501    0 -0.40737407026E+02 -0.45869356202E+03  0.41652521184E+03  0.62092879806E+03  0.00000000000E+00 0.  1.
         13    1    1    2    0    0  0.13151225094E+03 -0.22996810730E+01  0.67447191734E+02  0.14781710157E+03  0.10566000000E+00 0. -1.
<mgrwt>
<rscale>  1 0.61103952E+03</rscale>
<asrwt>0</asrwt>
<pdfrwt beam="1">  1       21 0.13050675E+00 0.10195646E+04</pdfrwt>
<pdfrwt beam="2">  1        4 0.60162720E-01 0.10195646E+04</pdfrwt>
<totfact> 0.40986167E+01</totfact>
</mgrwt>
</event>
<event>
 6    1  0.1412458E-005  0.1000214E+04  0.7818608E-02  0.9672968E-01
         21   -1    0    0  501  502  0.00000000000E+00  0.00000000000E+00  0.87998594067E+03  0.87998594067E+03  0.00000000000E+00 0.  1.
          4   -1    0    0  502    0 -0.00000000000E+00 -0.00000000000E+00 -0.70740043369E+03  0.70740043369E+03  0.00000000000E+00 0.  1.
    9000010    2    1    2  501    0 -0.27640187770E+03  0.33173295289E+02  0.53189920957E+03  0.11328483522E+04  0.96069253903E+03 0.  0.
        -13    1    3    3    0    0 -0.52912458368E+02  0.17570754118E+03 -0.24835747535E+03  0.30879494005E+03  0.10566000000E+00 0.  1.
          4    1    3    3  501    0 -0.22348941933E+03 -0.14253424589E+03  0.78025668491E+03  0.82405341220E+03  0.00000000000E+00 0.  1.
         13    1    1    2    0    0  0.27640187770E+03 -0.33173295289E+02 -0.35931370259E+03  0.45453802211E+03  0.10566000000E+00 0. -1.
<mgrwt>
<rscale>  1 0.72649300E+03</rscale>
<asrwt>0</asrwt>
<pdfrwt beam="1">  1       21 0.13538245E+00 0.10002143E+04</pdfrwt>
<pdfrwt beam="2">  1        4 0.10883084E+00 0.10002143E+04</pdfrwt>
<totfact> 0.94775081E+00</totfact>
</mgrwt>
</event>
<event>
 6    1  0.1412458E-005  0.1044626E+04  0.7818608E-02  0.9536292E-01
         21   -1    0    0  501  502  0.00000000000E+00  0.00000000000E+00  0.15244493878E+03  0.15244493878E+03  0.00000000000E+00 0. -1.
          4   -1    0    0  502    0 -0.00000000000E+00 -0.00000000000E+00 -0.33873174241E+04  0.33873174241E+04  0.00000000000E+00 0.  1.
    9000010    2    1    2  501    0 -0.36427202305E+03 -0.13954600283E+03 -0.22602899697E+04  0.24900108281E+04  0.96905932926E+03 0.  0.
        -13    1    3    3    0    0  0.73371198009E+02 -0.19189789073E+02 -0.19230582618E+04  0.19245531092E+04  0.10566000000E+00 0.  1.
          4    1    3    3  501    0 -0.43764322106E+03 -0.12035621376E+03 -0.33723170789E+03  0.56545771897E+03  0.00000000000E+00 0.  1.
         13    1    1    2    0    0  0.36427202305E+03  0.13954600283E+03 -0.97458251569E+03  0.10497515348E+04  0.10566000000E+00 0. -1.
<mgrwt>
<rscale>  1 0.81660251E+03</rscale>
<asrwt>0</asrwt>
<pdfrwt beam="1">  1       21 0.23453067E-01 0.10446259E+04</pdfrwt>
<pdfrwt beam="2">  1        4 0.52112578E+00 0.10446259E+04</pdfrwt>
<totfact> 0.59516185E-01</totfact>
</mgrwt>
</event>
<event>
 6    1  0.1412458E-005  0.9821014E+03  0.7818608E-02  0.9884521E-01
          4   -1    0    0  502    0 -0.00000000000E+00  0.00000000000E+00  0.13729792299E+03  0.13729792299E+03  0.00000000000E+00 0.  1.
         21   -1    0    0  501  502  0.00000000000E+00 -0.00000000000E+00 -0.34096986342E+04  0.34096986342E+04  0.00000000000E+00 0.  1.
    9000010    2    1    2  501    0 -0.22863303029E+02  0.14453657273E+03 -0.32546400426E+04  0.33995889454E+04  0.97113832162E+03 0.  0.
        -13    1    3    3    0    0 -0.12524001560E+03 -0.33492871878E+03 -0.58750922648E+03  0.68777133593E+03  0.10566000000E+00 0.  1.
          4    1    3    3  501    0  0.10237671257E+03  0.47946529151E+03 -0.26671308161E+04  0.27118176095E+04  0.00000000000E+00 0.  1.
         13    1    1    2    0    0  0.22863303029E+02 -0.14453657273E+03 -0.17760668612E+02  0.14740761173E+03  0.10566000000E+00 0. -1.
<mgrwt>
<rscale>  1 0.61017354E+03</rscale>
<asrwt>0</asrwt>
<pdfrwt beam="2">  1       21 0.52456903E+00 0.98210142E+03</pdfrwt>
<pdfrwt beam="1">  1        4 0.21122757E-01 0.98210142E+03</pdfrwt>
<totfact> 0.71394000E-01</totfact>
</mgrwt>
</event>
<event>
 6    1  0.1412458E-005  0.1077985E+04  0.7818608E-02  0.9503441E-01
         21   -1    0    0  501  502  0.00000000000E+00  0.00000000000E+00  0.31242860015E+04  0.31242860015E+04  0.00000000000E+00 0.  1.
          4   -1    0    0  502    0 -0.00000000000E+00 -0.00000000000E+00 -0.20475112797E+03  0.20475112797E+03  0.00000000000E+00 0.  1.
    9000010    2    1    2  501    0 -0.37680457197E+03 -0.12822988609E+03  0.26130872500E+04  0.28267078089E+04  0.10018120940E+04 0.  0.
        -13    1    3    3    0    0  0.13688230218E+03 -0.23330128412E+03  0.15176733539E+03  0.31016058595E+03  0.10566000000E+00 0.  1.
          4    1    3    3  501    0 -0.51368687415E+03  0.10507139804E+03  0.24613199146E+04  0.25165472230E+04  0.00000000000E+00 0.  1.
         13    1    1    2    0    0  0.37680457197E+03  0.12822988609E+03  0.30644762352E+03  0.50232932054E+03  0.10566000000E+00 0. -1.
<mgrwt>
<rscale>  1 0.84030592E+03</rscale>
<asrwt>0</asrwt>
<pdfrwt beam="1">  1       21 0.48065935E+00 0.10779852E+04</pdfrwt>
<pdfrwt beam="2">  1        4 0.31500176E-01 0.10779852E+04</pdfrwt>
<totfact> 0.67190921E-01</totfact>
</mgrwt>
</event>
<event>
 6    1  0.1412458E-005  0.1019025E+04  0.7818608E-02  0.9732369E-01
         21   -1    0    0  501  502  0.00000000000E+00  0.00000000000E+00  0.74493677646E+03  0.74493677646E+03  0.00000000000E+00 0.  1.
          4   -1    0    0  502    0 -0.00000000000E+00 -0.00000000000E+00 -0.52043423156E+03  0.52043423156E+03  0.00000000000E+00 0.  1.
    9000010    2    1    2  501    0  0.20009845742E+03  0.80616401657E+02  0.24682363682E+03  0.10484916886E+04  0.99592897163E+03 0.  0.
        -13    1    3    3    0    0  0.28838044015E+03 -0.35799216930E+03 -0.11411056881E+03  0.47364850324E+03  0.10566000000E+00 0.  1.
          4    1    3    3  501    0 -0.88281982732E+02  0.43860857096E+03  0.36093420562E+03  0.57484318538E+03  0.00000000000E+00 0.  1.
         13    1    1    2    0    0 -0.20009845742E+03 -0.80616401657E+02 -0.22321091915E+02  0.21687931940E+03  0.10566000000E+00 0. -1.
<mgrwt>
<rscale>  1 0.69121829E+03</rscale>
<asrwt>0</asrwt>
<pdfrwt beam="1">  1       21 0.11460566E+00 0.10190255E+04</pdfrwt>
<pdfrwt beam="2">  1        4 0.80066804E-01 0.10190255E+04</pdfrwt>
<totfact> 0.30360014E+01</totfact>
</mgrwt>
</event>
<event>
 6    1  0.1412458E-005  0.1026456E+04  0.7818608E-02  0.9761976E-01
          4   -1    0    0  502    0 -0.00000000000E+00  0.00000000000E+00  0.27391116642E+03  0.27391116642E+03  0.00000000000E+00 0.  1.
         21   -1    0    0  501  502  0.00000000000E+00 -0.00000000000E+00 -0.25388629819E+04  0.25388629819E+04  0.00000000000E+00 0.  1.
    9000010    2    1    2  501    0  0.14293303901E+03 -0.12716392813E+03 -0.23783368047E+04  0.25903855578E+04  0.10084695649E+04 0.  0.
        -13    1    3    3    0    0 -0.42875391840E+03 -0.11990409574E+03 -0.12185744832E+04  0.12973552702E+04  0.10566000000E+00 0.  1.
          4    1    3    3  501    0  0.57168695741E+03 -0.72598323892E+01 -0.11597623215E+04  0.12930302877E+04  0.00000000000E+00 0.  1.
         13    1    1    2    0    0 -0.14293303901E+03  0.12716392813E+03  0.11338498919E+03  0.22238859053E+03  0.10566000000E+00 0. -1.
<mgrwt>
<rscale>  1 0.67443654E+03</rscale>
<asrwt>0</asrwt>
<pdfrwt beam="2">  1       21 0.39059432E+00 0.10264557E+04</pdfrwt>
<pdfrwt beam="1">  1        4 0.42140178E-01 0.10264557E+04</pdfrwt>
<totfact> 0.15450859E+00</totfact>
</mgrwt>
</event>
<event>
 6    1  0.1412458E-005  0.1011803E+04  0.7818608E-02  0.9727977E-01
          4   -1    0    0  502    0 -0.00000000000E+00  0.00000000000E+00  0.34221275652E+03  0.34221275652E+03  0.00000000000E+00 0.  1.
         21   -1    0    0  501  502  0.00000000000E+00 -0.00000000000E+00 -0.12579154553E+04  0.12579154553E+04  0.00000000000E+00 0.  1.
    9000010    2    1    2  501    0  0.22287621710E+03 -0.18340926824E+02 -0.93236170759E+03  0.13758789499E+04  0.98677977946E+03 0.  0.
        -13    1    3    3    0    0  0.11838059989E+03 -0.35291789278E+03  0.79848859701E+01  0.37232885336E+03  0.10566000000E+00 0.  1.
          4    1    3    3  501    0  0.10449561722E+03  0.33457696596E+03 -0.94034659356E+03  0.10035500965E+04  0.00000000000E+00 0.  1.
         13    1    1    2    0    0 -0.22287621710E+03  0.18340926824E+02  0.16659008811E+02  0.22424926195E+03  0.10566000000E+00 0. -1.
<mgrwt>
<rscale>  1 0.69375189E+03</rscale>
<asrwt>0</asrwt>
<pdfrwt beam="2">  1       21 0.19352545E+00 0.10118026E+04</pdfrwt>
<pdfrwt beam="1">  1        4 0.52648117E-01 0.10118026E+04</pdfrwt>
<totfact> 0.17695814E+01</totfact>
</mgrwt>
</event>
<event>
 6    1  0.1412458E-005  0.1110397E+04  0.7818608E-02  0.9892743E-01
          4   -1    0    0  502    0 -0.00000000000E+00  0.00000000000E+00  0.12294492272E+04  0.12294492272E+04  0.00000000000E+00 0.  1.
         21   -1    0    0  501  502  0.00000000000E+00 -0.00000000000E+00 -0.29776742718E+03  0.29776742718E+03  0.00000000000E+00 0.  1.
    9000010    2    1    2  501    0  0.36481928180E+02 -0.91599534856E+02  0.83701946376E+03  0.13905331698E+04  0.11060106274E+04 0.  0.
        -13    1    3    3    0    0 -0.49189844525E+03  0.60317719656E+02  0.16512060573E+03  0.52236685705E+03  0.10566000000E+00 0.  1.
          4    1    3    3  501    0  0.52838037343E+03 -0.15191725451E+03  0.67189885803E+03  0.86816631279E+03  0.00000000000E+00 0.  1.
         13    1    1    2    0    0 -0.36481928180E+02  0.91599534856E+02  0.94662336223E+02  0.13668348449E+03  0.10566000000E+00 0. -1.
<mgrwt>
<rscale>  1 0.60614263E+03</rscale>
<asrwt>0</asrwt>
<pdfrwt beam="2">  1       21 0.45810374E-01 0.11103967E+04</pdfrwt>
<pdfrwt beam="1">  1        4 0.18914603E+00 0.11103967E+04</pdfrwt>
<totfact> 0.27942101E+01</totfact>
</mgrwt>
</event>
<event>
 6    1  0.1412458E-005  0.9888968E+03  0.7818608E-02  0.9762891E-01
          4   -1    0    0  502    0 -0.00000000000E+00  0.00000000000E+00  0.91867090532E+03  0.91867090532E+03  0.00000000000E+00 0.  1.
         21   -1    0    0  501  502  0.00000000000E+00 -0.00000000000E+00 -0.40549298697E+03  0.40549298697E+03  0.00000000000E+00 0.  1.
    9000010    2    1    2  501    0  0.21106456139E+03  0.30817780377E+02  0.32852672769E+03  0.10420397033E+04  0.96561842759E+03 0.  0.
        -13    1    3    3    0    0 -0.24033587601E+03 -0.33092180374E+03  0.10838638672E+03  0.42310541651E+03  0.10566000000E+00 0.  1.
          4    1    3    3  501    0  0.45140043740E+03  0.36173958411E+03  0.22014034097E+03  0.61893428676E+03  0.00000000000E+00 0.  1.
         13    1    1    2    0    0 -0.21106456139E+03 -0.30817780377E+02  0.18465119066E+03  0.28212418903E+03  0.10566000000E+00 0. -1.
<mgrwt>
<rscale>  1 0.67392609E+03</rscale>
<asrwt>0</asrwt>
<pdfrwt beam="2">  1       21 0.62383537E-01 0.98889683E+03</pdfrwt>
<pdfrwt beam="1">  1        4 0.14133399E+00 0.98889683E+03</pdfrwt>
<totfact> 0.32346348E+01</totfact>
</mgrwt>
</event>
<event>
 6    1  0.1412458E-005  0.1271422E+04  0.7818608E-02  0.9226433E-01
         21   -1    0    0  501  502  0.00000000000E+00  0.00000000000E+00  0.10084633911E+04  0.10084633911E+04  0.00000000000E+00 0.  1.
          4   -1    0    0  502    0 -0.00000000000E+00 -0.00000000000E+00 -0.95277495740E+03  0.95277495740E+03  0.00000000000E+00 0.  1.
    9000010    2    1    2  501    0 -0.59255081825E+03 -0.28657762060E+03  0.20090629613E+03  0.12871972195E+04  0.10877822104E+04 0.  0.
        -13    1    3    3    0    0 -0.47751135280E+03  0.34599078227E+03  0.25400736032E+03  0.64206422088E+03  0.10566000000E+00 0.  1.
          4    1    3    3  501    0 -0.11503946545E+03 -0.63256840287E+03 -0.53101064188E+02  0.64513299864E+03  0.00000000000E+00 0.  1.
         13    1    1    2    0    0  0.59255081825E+03  0.28657762060E+03 -0.14521786243E+03  0.67404112899E+03  0.10566000000E+00 0. -1.
<mgrwt>
<rscale>  1 0.10784716E+04</rscale>
<asrwt>0</asrwt>
<pdfrwt beam="1">  1       21 0.15514821E+00 0.12714218E+04</pdfrwt>
<pdfrwt beam="2">  1        4 0.14658076E+00 0.12714218E+04</pdfrwt>
<totfact> 0.29403627E+00</totfact>
</mgrwt>
</event>
<event>
 6    1  0.1412458E-005  0.1022884E+04  0.7818608E-02  0.9974914E-01
          4   -1    0    0  502    0 -0.00000000000E+00  0.00000000000E+00  0.10304618158E+04  0.10304618158E+04  0.00000000000E+00 0.  1.
         21   -1    0    0  501  502  0.00000000000E+00 -0.00000000000E+00 -0.45560667138E+03  0.45560667138E+03  0.00000000000E+00 0.  1.
    9000010    2    1    2  501    0  0.44392921034E+02  0.86255812783E+02  0.13041505396E+03  0.10311643194E+04  0.10182735245E+04 0.  0.
        -13    1    3    3    0    0  0.31605210602E+03  0.96151624406E+02 -0.34867748015E+03  0.48032287570E+03  0.10566000000E+00 0.  1.
          4    1    3    3  501    0 -0.27165918498E+03 -0.98958116235E+01  0.47909253410E+03  0.55084144371E+03  0.00000000000E+00 0.  1.
         13    1    1    2    0    0 -0.44392921034E+02 -0.86255812783E+02  0.44444009046E+03  0.45490416776E+03  0.10566000000E+00 0. -1.
<mgrwt>
<rscale>  1 0.56764023E+03</rscale>
<asrwt>0</asrwt>
<pdfrwt beam="2">  1       21 0.70093335E-01 0.10228840E+04</pdfrwt>
<pdfrwt beam="1">  1        4 0.15853259E+00 0.10228840E+04</pdfrwt>
<totfact> 0.18183389E+01</totfact>
</mgrwt>
</event>
<event>
 6    1  0.1412458E-005  0.1013735E+04  0.7818608E-02  0.9971585E-01
         21   -1    0    0  501  502  0.00000000000E+00  0.00000000000E+00  0.51506993841E+03  0.51506993841E+03  0.00000000000E+00 0.  1.
          4   -1    0    0  502    0 -0.00000000000E+00 -0.00000000000E+00 -0.77401842800E+03  0.77401842800E+03  0.00000000000E+00 0.  1.
    9000010    2    1    2  501    0  0.97680614472E+02  0.24541750801E+02 -0.26797365293E+01  0.10137386162E+04  0.10087194858E+04 0.  0.
        -13    1    3    3    0    0 -0.35320155881E+03  0.25422078756E+02 -0.30790583735E+03  0.46925860575E+03  0.10566000000E+00 0.  1.
          4    1    3    3  501    0  0.45088217328E+03 -0.88032795533E+00  0.30522610082E+03  0.54448001045E+03  0.00000000000E+00 0.  1.
         13    1    1    2    0    0 -0.97680614472E+02 -0.24541750801E+02 -0.25626875306E+03  0.27534975020E+03  0.10566000000E+00 0. -1.
<mgrwt>
<rscale>  1 0.56913920E+03</rscale>
<asrwt>0</asrwt>
<pdfrwt beam="1">  1       21 0.79241529E-01 0.10137351E+04</pdfrwt>
<pdfrwt beam="2">  1        4 0.11907976E+00 0.10137351E+04</pdfrwt>
<totfact> 0.28962561E+01</totfact>
</mgrwt>
</event>
<event>
 6    1  0.1412458E-005  0.1012554E+04  0.7818608E-02  0.9708759E-01
         21   -1    0    0  501  502  0.00000000000E+00  0.00000000000E+00  0.48400743889E+03  0.48400743889E+03  0.00000000000E+00 0.  1.
          4   -1    0    0  502    0 -0.00000000000E+00 -0.00000000000E+00 -0.10887516533E+04  0.10887516533E+04  0.00000000000E+00 0.  1.
    9000010    2    1    2  501    0 -0.17777113937E+03  0.15813627036E+03 -0.10339771069E+03  0.10178194685E+04  0.98420309177E+03 0.  0.
        -13    1    3    3    0    0  0.41534680062E+02 -0.39619361333E+03  0.52049839881E+02  0.40175080073E+03  0.10566000000E+00 0.  1.
          4    1    3    3  501    0 -0.21930581943E+03  0.55432988370E+03 -0.15544755057E+03  0.61606866774E+03  0.00000000000E+00 0.  1.
         13    1    1    2    0    0  0.17777113937E+03 -0.15813627036E+03 -0.50134650372E+03  0.55493962371E+03  0.10566000000E+00 0. -1.
<mgrwt>
<rscale>  1 0.70497698E+03</rscale>
<asrwt>0</asrwt>
<pdfrwt beam="1">  1       21 0.74462684E-01 0.10125539E+04</pdfrwt>
<pdfrwt beam="2">  1        4 0.16750025E+00 0.10125539E+04</pdfrwt>
<totfact> 0.13592102E+01</totfact>
</mgrwt>
</event>
<event>
 6    1  0.1412458E-005  0.1026145E+04  0.7818608E-02  0.9824166E-01
         21   -1    0    0  501  502  0.00000000000E+00  0.00000000000E+00  0.31535657310E+03  0.31535657310E+03  0.00000000000E+00 0.  1.
          4   -1    0    0  502    0 -0.00000000000E+00 -0.00000000000E+00 -0.11591202515E+04  0.11591202515E+04  0.00000000000E+00 0.  1.
    9000010    2    1    2  501    0  0.12836908001E+03 -0.88757714651E+02 -0.61112811527E+03  0.11943413770E+04  0.10142076705E+04 0.  0.
        -13    1    3    3    0    0 -0.34220287639E+03 -0.18474302798E+03 -0.59870510588E+03  0.71391919008E+03  0.10566000000E+00 0.  1.
          4    1    3    3  501    0  0.47057195640E+03  0.95985313326E+02 -0.12423009396E+02  0.48042218692E+03  0.00000000000E+00 0.  1.
         13    1    1    2    0    0 -0.12836908001E+03  0.88757714651E+02 -0.23263556314E+03  0.28013544762E+03  0.10566000000E+00 0. -1.
<mgrwt>
<rscale>  1 0.64081635E+03</rscale>
<asrwt>0</asrwt>
<pdfrwt beam="1">  1       21 0.48516396E-01 0.10261451E+04</pdfrwt>
<pdfrwt beam="2">  1        4 0.17832619E+00 0.10261451E+04</pdfrwt>
<totfact> 0.29562941E+01</totfact>
</mgrwt>
</event>
<event>
 6    1  0.1412458E-005  0.9927260E+03  0.7818608E-02  0.1023720E+00
          4   -1    0    0  502    0 -0.00000000000E+00  0.00000000000E+00  0.10736518443E+04  0.10736518443E+04  0.00000000000E+00 0.  1.
         21   -1    0    0  501  502  0.00000000000E+00 -0.00000000000E+00 -0.25464714679E+03  0.25464714679E+03  0.00000000000E+00 0.  1.
    9000010    2    1    2  501    0  0.28590235251E+02  0.37615444877E+02  0.74788166143E+03  0.12429126885E+04  0.99160105310E+03 0.  0.
        -13    1    3    3    0    0 -0.22695862615E+02  0.51354214280E+03  0.38659357106E+03  0.64319144503E+03  0.10566000000E+00 0.  1.
          4    1    3    3  501    0  0.51286097867E+02 -0.47592669793E+03  0.36128809037E+03  0.59972124348E+03  0.00000000000E+00 0.  1.
         13    1    1    2    0    0 -0.28590235251E+02 -0.37615444877E+02  0.71123036115E+02  0.85386302621E+02  0.10566000000E+00 0. -1.
<mgrwt>
<rscale>  1 0.46367851E+03</rscale>
<asrwt>0</asrwt>
<pdfrwt beam="2">  1       21 0.39176485E-01 0.99272603E+03</pdfrwt>
<pdfrwt beam="1">  1        4 0.16517720E+00 0.99272603E+03</pdfrwt>
<totfact> 0.57946288E+01</totfact>
</mgrwt>
</event>
<event>
 6    1  0.1412458E-005  0.1035712E+04  0.7818608E-02  0.9894023E-01
         21   -1    0    0  501  502  0.00000000000E+00  0.00000000000E+00  0.32012874941E+03  0.32012874941E+03  0.00000000000E+00 0.  1.
          4   -1    0    0  502    0 -0.00000000000E+00 -0.00000000000E+00 -0.11855190701E+04  0.11855190701E+04  0.00000000000E+00 0.  1.
    9000010    2    1    2  501    0  0.11329811942E+03  0.42485081421E+02 -0.56055754256E+03  0.11776775773E+04  0.10286195951E+04 0.  0.
        -13    1    3    3    0    0  0.39194576583E+03  0.48537440047E+01 -0.74470621788E+03  0.84156544861E+03  0.10566000000E+00 0.  1.
          4    1    3    3  501    0 -0.27864764641E+03  0.37631337416E+02  0.18414867532E+03  0.33611212865E+03  0.00000000000E+00 0.  1.
         13    1    1    2    0    0 -0.11329811942E+03 -0.42485081421E+02 -0.30483277808E+03  0.32797024220E+03  0.10566000000E+00 0. -1.
<mgrwt>
<rscale>  1 0.60551841E+03</rscale>
<asrwt>0</asrwt>
<pdfrwt beam="1">  1       21 0.49250577E-01 0.10357122E+04</pdfrwt>
<pdfrwt beam="2">  1        4 0.18238755E+00 0.10357122E+04</pdfrwt>
<totfact> 0.26789882E+01</totfact>
</mgrwt>
</event>
<event>
 6    1  0.1412458E-005  0.1033192E+04  0.7818608E-02  0.9737548E-01
         21   -1    0    0  501  502  0.00000000000E+00  0.00000000000E+00  0.78661798895E+03  0.78661798895E+03  0.00000000000E+00 0.  1.
          4   -1    0    0  502    0 -0.00000000000E+00 -0.00000000000E+00 -0.52477642237E+03  0.52477642237E+03  0.00000000000E+00 0.  1.
    9000010    2    1    2  501    0 -0.46269638879E+02  0.19810560395E+03  0.34833778487E+03  0.10903326174E+04  0.10129655939E+04 0.  0.
        -13    1    3    3    0    0 -0.25009078755E+03  0.34256412836E+02  0.64632273972E+03  0.69386742169E+03  0.10566000000E+00 0.  1.
          4    1    3    3  501    0  0.20382114868E+03  0.16384919112E+03 -0.29798495485E+03  0.39646519569E+03  0.00000000000E+00 0.  1.
         13    1    1    2    0    0  0.46269638879E+02 -0.19810560395E+03 -0.86496218292E+02  0.22106179394E+03  0.10566000000E+00 0. -1.
<mgrwt>
<rscale>  1 0.68824561E+03</rscale>
<asrwt>0</asrwt>
<pdfrwt beam="1">  1       21 0.12101815E+00 0.10331921E+04</pdfrwt>
<pdfrwt beam="2">  1        4 0.80734834E-01 0.10331921E+04</pdfrwt>
<totfact> 0.25848207E+01</totfact>
</mgrwt>
</event>
<event>
 6    1  0.1412458E-005  0.1006682E+04  0.7818608E-02  0.1021556E+00
          4   -1    0    0  502    0 -0.00000000000E+00  0.00000000000E+00  0.33217707174E+03  0.33217707174E+03  0.00000000000E+00 0.  1.
         21   -1    0    0  501  502  0.00000000000E+00 -0.00000000000E+00 -0.10118143611E+04  0.10118143611E+04  0.00000000000E+00 0.  1.
    9000010    2    1    2  501    0 -0.97601233249E+01 -0.47364333089E+02 -0.75228610534E+03  0.12567188616E+04  0.10055194045E+04 0.  0.
        -13    1    3    3    0    0 -0.48140047635E+03  0.85399504911E+02 -0.22912471000E+03  0.53994225428E+03  0.10566000000E+00 0.  1.
          4    1    3    3  501    0  0.47164035302E+03 -0.13276383800E+03 -0.52316139534E+03  0.71677660736E+03  0.00000000000E+00 0.  1.
         13    1    1    2    0    0  0.97601233249E+01  0.47364333089E+02  0.72648815985E+02  0.87272571202E+02  0.10566000000E+00 0. -1.
<mgrwt>
<rscale>  1 0.47129170E+03</rscale>
<asrwt>0</asrwt>
<pdfrwt beam="2">  1       21 0.15566375E+00 0.10066816E+04</pdfrwt>
<pdfrwt beam="1">  1        4 0.51104166E-01 0.10066816E+04</pdfrwt>
<totfact> 0.35950716E+01</totfact>
</mgrwt>
</event>
<event>
 6    1  0.1412458E-005  0.1360223E+04  0.7818608E-02  0.9089619E-01
         21   -1    0    0  501  502  0.00000000000E+00  0.00000000000E+00  0.15241918447E+04  0.15241918447E+04  0.00000000000E+00 0.  1.
          4   -1    0    0  502    0 -0.00000000000E+00 -0.00000000000E+00 -0.95310799710E+03  0.95310799710E+03  0.00000000000E+00 0.  1.
    9000010    2    1    2  501    0  0.82921701036E+03  0.35083764102E+03  0.75880176936E+03  0.15575575247E+04  0.10195672694E+04 0.  0.
        -13    1    3    3    0    0  0.85860225459E+03  0.55849786811E+03  0.32311777483E+03  0.10740217911E+04  0.10566000000E+00 0.  1.
          4    1    3    3  501    0 -0.29385244230E+02 -0.20766022709E+03  0.43568399453E+03  0.48353573351E+03  0.00000000000E+00 0.  1.
         13    1    1    2    0    0 -0.82921701036E+03 -0.35083764102E+03 -0.18771792176E+03  0.91974231714E+03  0.10566000000E+00 0. -1.
<mgrwt>
<rscale>  1 0.12269142E+04</rscale>
<asrwt>0</asrwt>
<pdfrwt beam="1">  1       21 0.23449105E+00 0.13602225E+04</pdfrwt>
<pdfrwt beam="2">  1        4 0.14663200E+00 0.13602225E+04</pdfrwt>
<totfact> 0.79355730E-01</totfact>
</mgrwt>
</event>
<event>
 6    1  0.1412458E-005  0.1007360E+04  0.7818608E-02  0.9949188E-01
         21   -1    0    0  501  502  0.00000000000E+00  0.00000000000E+00  0.54703253111E+03  0.54703253111E+03  0.00000000000E+00 0.  1.
          4   -1    0    0  502    0 -0.00000000000E+00 -0.00000000000E+00 -0.63398089506E+03  0.63398089506E+03  0.00000000000E+00 0.  1.
    9000010    2    1    2  501    0  0.19431121489E+02 -0.10848472093E+03 -0.19568509248E+03  0.10261903321E+04  0.10013128578E+04 0.  0.
        -13    1    3    3    0    0  0.16132134045E+03  0.19669965117E+03  0.32098681660E+03  0.40957035446E+03  0.10566000000E+00 0.  1.
          4    1    3    3  501    0 -0.14189021896E+03 -0.30518437209E+03 -0.51667190908E+03  0.61661997766E+03  0.00000000000E+00 0.  1.
         13    1    1    2    0    0 -0.19431121489E+02  0.10848472093E+03  0.10873672854E+03  0.15482309406E+03  0.10566000000E+00 0. -1.
<mgrwt>
<rscale>  1 0.57935532E+03</rscale>
<asrwt>0</asrwt>
<pdfrwt beam="1">  1       21 0.84158851E-01 0.10073599E+04</pdfrwt>
<pdfrwt beam="2">  1        4 0.97535522E-01 0.10073599E+04</pdfrwt>
<totfact> 0.40998103E+01</totfact>
</mgrwt>
</event>
<event>
 6    1  0.1412458E-005  0.1019330E+04  0.7818608E-02  0.9936829E-01
         21   -1    0    0  501  502  0.00000000000E+00  0.00000000000E+00  0.54694150465E+03  0.54694150465E+03  0.00000000000E+00 0.  1.
          4   -1    0    0  502    0 -0.00000000000E+00 -0.00000000000E+00 -0.60401359149E+03  0.60401359149E+03  0.00000000000E+00 0.  1.
    9000010    2    1    2  501    0  0.85063640288E+02 -0.70763626764E+02  0.14036872059E+02  0.10194263579E+04  0.10133063464E+04 0.  0.
        -13    1    3    3    0    0 -0.14974978421E+03  0.42783812297E+03  0.92827211272E+02  0.46269575279E+03  0.10566000000E+00 0.  1.
          4    1    3    3  501    0  0.23481342449E+03 -0.49860174973E+03 -0.78790339213E+02  0.55673060515E+03  0.00000000000E+00 0.  1.
         13    1    1    2    0    0 -0.85063640288E+02  0.70763626764E+02 -0.71108958894E+02  0.13152873819E+03  0.10566000000E+00 0. -1.
<mgrwt>
<rscale>  1 0.58509102E+03</rscale>
<asrwt>0</asrwt>
<pdfrwt beam="1">  1       21 0.84144847E-01 0.10193297E+04</pdfrwt>
<pdfrwt beam="2">  1        4 0.92925167E-01 0.10193297E+04</pdfrwt>
<totfact> 0.45982477E+01</totfact>
</mgrwt>
</event>
<event>
 6    1  0.1412458E-005  0.1012466E+04  0.7818608E-02  0.9870489E-01
         21   -1    0    0  501  502  0.00000000000E+00  0.00000000000E+00  0.21563638045E+03  0.21563638045E+03  0.00000000000E+00 0.  1.
          4   -1    0    0  502    0 -0.00000000000E+00 -0.00000000000E+00 -0.19274880525E+04  0.19274880525E+04  0.00000000000E+00 0.  1.
    9000010    2    1    2  501    0 -0.77731046975E+02  0.11614403183E+03 -0.10195622838E+04  0.14368694082E+04  0.10027736004E+04 0.  0.
        -13    1    3    3    0    0 -0.30839186459E+03 -0.29961505800E+03 -0.16811985979E+03  0.46166982091E+03  0.10566000000E+00 0.  1.
          4    1    3    3  501    0  0.23066081761E+03  0.41575908983E+03 -0.85144242401E+03  0.97519958725E+03  0.00000000000E+00 0.  1.
         13    1    1    2    0    0  0.77731046975E+02 -0.11614403183E+03 -0.69228938829E+03  0.70625502483E+03  0.10566000000E+00 0. -1.
<mgrwt>
<rscale>  1 0.61713092E+03</rscale>
<asrwt>0</asrwt>
<pdfrwt beam="1">  1       21 0.33174827E-01 0.10124655E+04</pdfrwt>
<pdfrwt beam="2">  1        4 0.29653663E+00 0.10124655E+04</pdfrwt>
<totfact> 0.11611345E+01</totfact>
</mgrwt>
</event>
<event>
 6    1  0.1412458E-005  0.1366604E+04  0.7818608E-02  0.9253561E-01
          4   -1    0    0  502    0 -0.00000000000E+00  0.00000000000E+00  0.16140102925E+04  0.16140102925E+04  0.00000000000E+00 0.  1.
         21   -1    0    0  501  502  0.00000000000E+00 -0.00000000000E+00 -0.52791983731E+03  0.52791983731E+03  0.00000000000E+00 0.  1.
    9000010    2    1    2  501    0 -0.19613543492E+03  0.43742823262E+03  0.79166400975E+03  0.15793472377E+04  0.12797629567E+04 0.  0.
        -13    1    3    3    0    0  0.53914912174E+03  0.21682642656E+03  0.21657191448E+03  0.62016036638E+03  0.10566000000E+00 0.  1.
          4    1    3    3  501    0 -0.73528455665E+03  0.22060180605E+03  0.57509209528E+03  0.95918687133E+03  0.00000000000E+00 0.  1.
         13    1    1    2    0    0  0.19613543492E+03 -0.43742823262E+03  0.29442644540E+03  0.56258289205E+03  0.10566000000E+00 0. -1.
<mgrwt>
<rscale>  1 0.10517286E+04</rscale>
<asrwt>0</asrwt>
<pdfrwt beam="2">  1       21 0.81218437E-01 0.13666037E+04</pdfrwt>
<pdfrwt beam="1">  1        4 0.24830927E+00 0.13666037E+04</pdfrwt>
<totfact> 0.31195720E+00</totfact>
</mgrwt>
</event>
<event>
 6    1  0.1412458E-005  0.1004831E+04  0.7818608E-02  0.9911819E-01
          4   -1    0    0  502    0 -0.00000000000E+00  0.00000000000E+00  0.28366932800E+03  0.28366932800E+03  0.00000000000E+00 0.  1.
         21   -1    0    0  501  502  0.00000000000E+00 -0.00000000000E+00 -0.13657618072E+04  0.13657618072E+04  0.00000000000E+00 0.  1.
    9000010    2    1    2  501    0 -0.65251582806E+02 -0.10677670898E+03 -0.11329531412E+04  0.15143539249E+04  0.99700850303E+03 0.  0.
        -13    1    3    3    0    0 -0.45040388758E+03 -0.33119460787E+03 -0.63176611307E+03  0.84361244835E+03  0.10566000000E+00 0.  1.
          4    1    3    3  501    0  0.38515230477E+03  0.22441789889E+03 -0.50118702809E+03  0.67074147653E+03  0.00000000000E+00 0.  1.
         13    1    1    2    0    0  0.65251582806E+02  0.10677670898E+03  0.50860661982E+02  0.13507721029E+03  0.10566000000E+00 0. -1.
<mgrwt>
<rscale>  1 0.59691896E+03</rscale>
<asrwt>0</asrwt>
<pdfrwt beam="2">  1       21 0.21011720E+00 0.10048308E+04</pdfrwt>
<pdfrwt beam="1">  1        4 0.43641436E-01 0.10048308E+04</pdfrwt>
<totfact> 0.20203624E+01</totfact>
</mgrwt>
</event>
<event>
 6    1  0.1412458E-005  0.1052981E+04  0.7818608E-02  0.9575272E-01
          4   -1    0    0  502    0 -0.00000000000E+00  0.00000000000E+00  0.15094334520E+04  0.15094334520E+04  0.00000000000E+00 0.  1.
         21   -1    0    0  501  502  0.00000000000E+00 -0.00000000000E+00 -0.33230735983E+03  0.33230735983E+03  0.00000000000E+00 0.  1.
    9000010    2    1    2  501    0 -0.29089367160E+03 -0.16177408692E+03  0.71728053228E+03  0.12740719528E+04  0.99898848623E+03 0.  0.
        -13    1    3    3    0    0  0.19743995225E+02  0.28659696573E+03 -0.88881696964E+02  0.30071184435E+03  0.10566000000E+00 0.  1.
          4    1    3    3  501    0 -0.31063766683E+03 -0.44837105265E+03  0.80616222925E+03  0.97336010847E+03  0.00000000000E+00 0.  1.
         13    1    1    2    0    0  0.29089367160E+03  0.16177408692E+03  0.45984555985E+03  0.56766885898E+03  0.10566000000E+00 0. -1.
<mgrwt>
<rscale>  1 0.78954670E+03</rscale>
<asrwt>0</asrwt>
<pdfrwt beam="2">  1       21 0.51124210E-01 0.10529805E+04</pdfrwt>
<pdfrwt beam="1">  1        4 0.23222053E+00 0.10529805E+04</pdfrwt>
<totfact> 0.11627103E+01</totfact>
</mgrwt>
</event>
<event>
 6    1  0.1412458E-005  0.1063997E+04  0.7818608E-02  0.9491873E-01
         21   -1    0    0  501  502  0.00000000000E+00  0.00000000000E+00  0.96034080581E+03  0.96034080581E+03  0.00000000000E+00 0.  1.
          4   -1    0    0  502    0 -0.00000000000E+00 -0.00000000000E+00 -0.70636086477E+03  0.70636086477E+03  0.00000000000E+00 0.  1.
    9000010    2    1    2  501    0 -0.12900761952E+03  0.41128087928E+03  0.49428391925E+03  0.11732029972E+04  0.97277631148E+03 0.  0.
        -13    1    3    3    0    0 -0.31688690697E+03 -0.19402959587E+03  0.34797092203E+01  0.37158702267E+03  0.10566000000E+00 0.  1.
          4    1    3    3  501    0  0.18787928745E+03  0.60531047514E+03  0.49080421003E+03  0.80161597449E+03  0.00000000000E+00 0.  1.
         13    1    1    2    0    0  0.12900761952E+03 -0.41128087928E+03 -0.24030397822E+03  0.49349867342E+03  0.10566000000E+00 0. -1.
<mgrwt>
<rscale>  1 0.84885674E+03</rscale>
<asrwt>0</asrwt>
<pdfrwt beam="1">  1       21 0.14774474E+00 0.10639966E+04</pdfrwt>
<pdfrwt beam="2">  1        4 0.10867090E+00 0.10639966E+04</pdfrwt>
<totfact> 0.74323048E+00</totfact>
</mgrwt>
</event>
<event>
 6    1  0.1412458E-005  0.1294927E+04  0.7818608E-02  0.9152464E-01
         21   -1    0    0  501  502  0.00000000000E+00  0.00000000000E+00  0.19508124827E+04  0.19508124827E+04  0.00000000000E+00 0. -1.
          4   -1    0    0  502    0 -0.00000000000E+00 -0.00000000000E+00 -0.62602028740E+03  0.62602028740E+03  0.00000000000E+00 0.  1.
    9000010    2    1    2  501    0 -0.29556620073E+03  0.76681736534E+03  0.43606897171E+03  0.13663794542E+04  0.10007339376E+04 0.  0.
        -13    1    3    3    0    0  0.14112719391E+03  0.81435914785E+03  0.41932838152E+03  0.92678692764E+03  0.10566000000E+00 0.  1.
          4    1    3    3  501    0 -0.43669339464E+03 -0.47541782501E+02  0.16740590188E+02  0.43959252651E+03  0.00000000000E+00 0.  1.
         13    1    1    2    0    0  0.29556620073E+03 -0.76681736534E+03  0.88872322364E+03  0.12104533160E+04  0.10566000000E+00 0. -1.
<mgrwt>
<rscale>  1 0.11557840E+04</rscale>
<asrwt>0</asrwt>
<pdfrwt beam="1">  1       21 0.30012499E+00 0.12949273E+04</pdfrwt>
<pdfrwt beam="2">  1        4 0.96310814E-01 0.12949273E+04</pdfrwt>
<totfact> 0.88703283E-01</totfact>
</mgrwt>
</event>
<event>
 6    1  0.1412458E-005  0.1018560E+04  0.7818608E-02  0.9709392E-01
          4   -1    0    0  502    0 -0.00000000000E+00  0.00000000000E+00  0.41427225379E+03  0.41427225379E+03  0.00000000000E+00 0.  1.
         21   -1    0    0  501  502  0.00000000000E+00 -0.00000000000E+00 -0.11406334500E+04  0.11406334500E+04  0.00000000000E+00 0.  1.
    9000010    2    1    2  501    0  0.19351715616E+03  0.13021601405E+03 -0.81591082711E+03  0.13050572546E+04  0.99149324753E+03 0.  0.
        -13    1    3    3    0    0 -0.28475830369E+02 -0.39227976656E+03 -0.55509238382E+03  0.68031011598E+03  0.10566000000E+00 0.  1.
          4    1    3    3  501    0  0.22199298653E+03  0.52249578061E+03 -0.26081844329E+03  0.62474713860E+03  0.00000000000E+00 0.  1.
         13    1    1    2    0    0 -0.19351715616E+03 -0.13021601405E+03  0.89549630861E+02  0.24984844925E+03  0.10566000000E+00 0. -1.
<mgrwt>
<rscale>  1 0.70460358E+03</rscale>
<asrwt>0</asrwt>
<pdfrwt beam="2">  1       21 0.17548207E+00 0.10185597E+04</pdfrwt>
<pdfrwt beam="1">  1        4 0.63734193E-01 0.10185597E+04</pdfrwt>
<totfact> 0.15744569E+01</totfact>
</mgrwt>
</event>
<event>
 6    1  0.1412458E-005  0.1120172E+04  0.7818608E-02  0.9426486E-01
         21   -1    0    0  501  502  0.00000000000E+00  0.00000000000E+00  0.12122873886E+04  0.12122873886E+04  0.00000000000E+00 0.  1.
          4   -1    0    0  502    0 -0.00000000000E+00 -0.00000000000E+00 -0.62071637834E+03  0.62071637834E+03  0.00000000000E+00 0.  1.
    9000010    2    1    2  501    0  0.72660713721E+02  0.45957624272E+03  0.74243339124E+03  0.13438725255E+04  0.10189681655E+04 0.  0.
        -13    1    3    3    0    0 -0.15807534067E+03  0.73813445499E+03  0.55143466603E+03  0.93483179719E+03  0.10566000000E+00 0.  1.
          4    1    3    3  501    0  0.23073605439E+03 -0.27855821228E+03  0.19099872521E+03  0.40904072836E+03  0.00000000000E+00 0.  1.
         13    1    1    2    0    0 -0.72660713721E+02 -0.45957624272E+03 -0.15086238095E+03  0.48913124143E+03  0.10566000000E+00 0. -1.
<mgrwt>
<rscale>  1 0.89927669E+03</rscale>
<asrwt>0</asrwt>
<pdfrwt beam="1">  1       21 0.18650575E+00 0.11201723E+04</pdfrwt>
<pdfrwt beam="2">  1        4 0.95494828E-01 0.11201723E+04</pdfrwt>
<totfact> 0.51237796E+00</totfact>
</mgrwt>
</event>
<event>
 6    1  0.1412458E-005  0.1085531E+04  0.7818608E-02  0.9805193E-01
         21   -1    0    0  501  502  0.00000000000E+00  0.00000000000E+00  0.63807266851E+03  0.63807266851E+03  0.00000000000E+00 0.  1.
          4   -1    0    0  502    0 -0.00000000000E+00 -0.00000000000E+00 -0.68805010394E+03  0.68805010394E+03  0.00000000000E+00 0.  1.
    9000010    2    1    2  501    0 -0.11582170057E+03  0.79138798521E+02  0.13508435286E+03  0.10939041418E+04  0.10764296881E+04 0.  0.
        -13    1    3    3    0    0 -0.36668783055E+03 -0.11753560735E+03  0.48584406841E+03  0.61993471756E+03  0.10566000000E+00 0.  1.
          4    1    3    3  501    0  0.25086612998E+03  0.19667440587E+03 -0.35075971555E+03  0.47396942427E+03  0.00000000000E+00 0.  1.
         13    1    1    2    0    0  0.11582170057E+03 -0.79138798521E+02 -0.18506178829E+03  0.23221863062E+03  0.10566000000E+00 0. -1.
<mgrwt>
<rscale>  1 0.65084623E+03</rscale>
<asrwt>0</asrwt>
<pdfrwt beam="1">  1       21 0.98165026E-01 0.10855314E+04</pdfrwt>
<pdfrwt beam="2">  1        4 0.10585386E+00 0.10855314E+04</pdfrwt>
<totfact> 0.22997244E+01</totfact>
</mgrwt>
</event>
<event>
 6    1  0.1412458E-005  0.1231218E+04  0.7818608E-02  0.9240976E-01
         21   -1    0    0  501  502  0.00000000000E+00  0.00000000000E+00  0.34907537710E+03  0.34907537710E+03  0.00000000000E+00 0. -1.
          4   -1    0    0  502    0 -0.00000000000E+00 -0.00000000000E+00 -0.26444671232E+04  0.26444671232E+04  0.00000000000E+00 0.  1.
    9000010    2    1    2  501    0  0.17586708949E+03  0.66387191151E+03 -0.13845515562E+04  0.18528036999E+04  0.10218822782E+04 0.  0.
        -13    1    3    3    0    0  0.33018165977E+03  0.76624531337E+03 -0.55323219660E+03  0.10011082275E+04  0.10566000000E+00 0.  1.
          4    1    3    3  501    0 -0.15431457028E+03 -0.10237340186E+03 -0.83131935959E+03  0.85169547236E+03  0.00000000000E+00 0.  1.
         13    1    1    2    0    0 -0.17586708949E+03 -0.66387191151E+03 -0.91084018991E+03  0.11407388004E+04  0.10566000000E+00 0. -1.
<mgrwt>
<rscale>  1 0.10640312E+04</rscale>
<asrwt>0</asrwt>
<pdfrwt beam="1">  1       21 0.53703904E-01 0.12312183E+04</pdfrwt>
<pdfrwt beam="2">  1        4 0.40684109E+00 0.12312183E+04</pdfrwt>
<totfact> 0.77322574E-01</totfact>
</mgrwt>
</event>
<event>
 6    1  0.1412458E-005  0.1003096E+04  0.7818608E-02  0.9822468E-01
         21   -1    0    0  501  502  0.00000000000E+00  0.00000000000E+00  0.46814497082E+03  0.46814497082E+03  0.00000000000E+00 0.  1.
          4   -1    0    0  502    0 -0.00000000000E+00 -0.00000000000E+00 -0.80326608089E+03  0.80326608089E+03  0.00000000000E+00 0.  1.
    9000010    2    1    2  501    0  0.85143075789E+02 -0.14482997265E+03 -0.13821484890E+03  0.10125729726E+04  0.98892649681E+03 0.  0.
        -13    1    3    3    0    0 -0.33322549017E+03 -0.22375822925E+03  0.21862341064E+03  0.45705927329E+03  0.10566000000E+00 0.  1.
          4    1    3    3  501    0  0.41836856596E+03  0.78928256594E+02 -0.35683825954E+03  0.55551369933E+03  0.00000000000E+00 0.  1.
         13    1    1    2    0    0 -0.85143075789E+02  0.14482997265E+03 -0.19690626117E+03  0.25883807909E+03  0.10566000000E+00 0. -1.
<mgrwt>
<rscale>  1 0.64170602E+03</rscale>
<asrwt>0</asrwt>
<pdfrwt beam="1">  1       21 0.72022303E-01 0.10030955E+04</pdfrwt>
<pdfrwt beam="2">  1        4 0.12357940E+00 0.10030955E+04</pdfrwt>
<totfact> 0.32959718E+01</totfact>
</mgrwt>
</event>
<event>
 6    1  0.1412458E-005  0.1057214E+04  0.7818608E-02  0.9883703E-01
          4   -1    0    0  502    0 -0.00000000000E+00  0.00000000000E+00  0.24175602006E+03  0.24175602006E+03  0.00000000000E+00 0.  1.
         21   -1    0    0  501  502  0.00000000000E+00 -0.00000000000E+00 -0.16392744695E+04  0.16392744695E+04  0.00000000000E+00 0.  1.
    9000010    2    1    2  501    0  0.11524134718E+03 -0.23522618591E+02 -0.14104675799E+04  0.17627022476E+04  0.10506505310E+04 0.  0.
        -13    1    3    3    0    0  0.17497060096E+03 -0.50259395191E+03 -0.98327756429E+03  0.11180564258E+04  0.10566000000E+00 0.  1.
          4    1    3    3  501    0 -0.59729253776E+02  0.47907133332E+03 -0.42719001561E+03  0.64464582183E+03  0.00000000000E+00 0.  1.
         13    1    1    2    0    0 -0.11524134718E+03  0.23522618591E+02  0.12949130481E+02  0.11832824190E+03  0.10566000000E+00 0. -1.
<mgrwt>
<rscale>  1 0.61057649E+03</rscale>
<asrwt>0</asrwt>
<pdfrwt beam="2">  1       21 0.25219608E+00 0.10572135E+04</pdfrwt>
<pdfrwt beam="1">  1        4 0.37193233E-01 0.10572135E+04</pdfrwt>
<totfact> 0.14789934E+01</totfact>
</mgrwt>
</event>
<event>
 6    1  0.1412458E-005  0.1049598E+04  0.7818608E-02  0.9727755E-01
          4   -1    0    0  502    0 -0.00000000000E+00  0.00000000000E+00  0.70199957486E+03  0.70199957486E+03  0.00000000000E+00 0.  1.
         21   -1    0    0  501  502  0.00000000000E+00 -0.00000000000E+00 -0.55686435964E+03  0.55686435964E+03  0.00000000000E+00 0.  1.
    9000010    2    1    2  501    0 -0.19039216662E+03 -0.62792425845E+02  0.11025499173E+03  0.10553726398E+04  0.10302733520E+04 0.  0.
        -13    1    3    3    0    0 -0.12097032534E+03 -0.43262590816E+03  0.38324348226E+03  0.59048672625E+03  0.10566000000E+00 0.  1.
          4    1    3    3  501    0 -0.69421841286E+02  0.36983348231E+03 -0.27298849053E+03  0.46488591358E+03  0.00000000000E+00 0.  1.
         13    1    1    2    0    0  0.19039216662E+03  0.62792425845E+02  0.34880223492E+02  0.20349129468E+03  0.10566000000E+00 0. -1.
<mgrwt>
<rscale>  1 0.69388052E+03</rscale>
<asrwt>0</asrwt>
<pdfrwt beam="2">  1       21 0.85671439E-01 0.10495977E+04</pdfrwt>
<pdfrwt beam="1">  1        4 0.10799994E+00 0.10495977E+04</pdfrwt>
<totfact> 0.30565622E+01</totfact>
</mgrwt>
</event>
<event>
 6    1  0.1412458E-005  0.9791387E+03  0.7818608E-02  0.9839933E-01
         21   -1    0    0  501  502  0.00000000000E+00  0.00000000000E+00  0.92488790532E+03  0.92488790532E+03  0.00000000000E+00 0.  1.
          4   -1    0    0  502    0 -0.00000000000E+00 -0.00000000000E+00 -0.40405212973E+03  0.40405212973E+03  0.00000000000E+00 0.  1.
    9000010    2    1    2  501    0  0.72268165717E+02 -0.15457319754E+03  0.59185519192E+03  0.11441176072E+04  0.96415609199E+03 0.  0.
        -13    1    3    3    0    0  0.20850186263E+03  0.23444054334E+03 -0.10807844625E+03  0.33183784713E+03  0.10566000000E+00 0.  1.
          4    1    3    3  501    0 -0.13623369691E+03 -0.38901374088E+03  0.69993363817E+03  0.81227976007E+03  0.00000000000E+00 0.  1.
         13    1    1    2    0    0 -0.72268165717E+02  0.15457319754E+03 -0.71019416338E+02  0.18482242784E+03  0.10566000000E+00 0. -1.
<mgrwt>
<rscale>  1 0.63262859E+03</rscale>
<asrwt>0</asrwt>
<pdfrwt beam="1">  1       21 0.14229045E+00 0.97913867E+03</pdfrwt>
<pdfrwt beam="2">  1        4 0.62161866E-01 0.97913867E+03</pdfrwt>
<totfact> 0.30345031E+01</totfact>
</mgrwt>
</event>
<event>
 6    1  0.1412458E-005  0.1016486E+04  0.7818608E-02  0.9819371E-01
          4   -1    0    0  502    0 -0.00000000000E+00  0.00000000000E+00  0.11835449303E+04  0.11835449303E+04  0.00000000000E+00 0.  1.
         21   -1    0    0  501  502  0.00000000000E+00 -0.00000000000E+00 -0.39061516771E+03  0.39061516771E+03  0.00000000000E+00 0. -1.
    9000010    2    1    2  501    0 -0.16042922857E+03 -0.29361837314E+02  0.91719480714E+03  0.13691199377E+04  0.10033162187E+04 0.  0.
        -13    1    3    3    0    0 -0.91207020432E+02  0.48523258469E+03  0.50408602456E+03  0.70560053368E+03  0.10566000000E+00 0.  1.
          4    1    3    3  501    0 -0.69222208135E+02 -0.51459442200E+03  0.41310878258E+03  0.66351940401E+03  0.00000000000E+00 0.  1.
         13    1    1    2    0    0  0.16042922857E+03  0.29361837314E+02 -0.12426504457E+03  0.20504016030E+03  0.10566000000E+00 0. -1.
<mgrwt>
<rscale>  1 0.64333254E+03</rscale>
<asrwt>0</asrwt>
<pdfrwt beam="2">  1       21 0.60094642E-01 0.10164857E+04</pdfrwt>
<pdfrwt beam="1">  1        4 0.18208383E+00 0.10164857E+04</pdfrwt>
<totfact> 0.17432071E+01</totfact>
</mgrwt>
</event>
<event>
 6    1  0.1412458E-005  0.9971978E+03  0.7818608E-02  0.9899119E-01
          4   -1    0    0  502    0 -0.00000000000E+00  0.00000000000E+00  0.13334601025E+04  0.13334601025E+04  0.00000000000E+00 0.  1.
         21   -1    0    0  501  502  0.00000000000E+00 -0.00000000000E+00 -0.25182234069E+03  0.25182234069E+03  0.00000000000E+00 0.  1.
    9000010    2    1    2  501    0 -0.12943266863E+03 -0.32144388091E+02  0.81779113622E+03  0.12896456214E+04  0.98823955039E+03 0.  0.
        -13    1    3    3    0    0 -0.44959808132E+03  0.25051184357E+03  0.65399733686E+03  0.83223022433E+03  0.10566000000E+00 0.  1.
          4    1    3    3  501    0  0.32016541269E+03 -0.28265623166E+03  0.16379379936E+03  0.45741539708E+03  0.00000000000E+00 0.  1.
         13    1    1    2    0    0  0.12943266863E+03  0.32144388091E+02  0.26384662559E+03  0.29563682178E+03  0.10566000000E+00 0. -1.
<mgrwt>
<rscale>  1 0.60303990E+03</rscale>
<asrwt>0</asrwt>
<pdfrwt beam="2">  1       21 0.38741899E-01 0.99719782E+03</pdfrwt>
<pdfrwt beam="1">  1        4 0.20514770E+00 0.99719782E+03</pdfrwt>
<totfact> 0.31442925E+01</totfact>
</mgrwt>
</event>
<event>
 6    1  0.1412458E-005  0.1001743E+04  0.7818608E-02  0.9805541E-01
          4   -1    0    0  502    0 -0.00000000000E+00  0.00000000000E+00  0.16597038558E+04  0.16597038558E+04  0.00000000000E+00 0.  1.
         21   -1    0    0  501  502  0.00000000000E+00 -0.00000000000E+00 -0.21643501458E+03  0.21643501458E+03  0.00000000000E+00 0.  1.
    9000010    2    1    2  501    0  0.16227732415E+03  0.73868883896E+02  0.10898490686E+04  0.14802903024E+04  0.98574735358E+03 0.  0.
        -13    1    3    3    0    0  0.28644360207E+03 -0.35989000470E+01  0.12387892369E+04  0.12714801115E+04  0.10566000000E+00 0.  1.
          4    1    3    3  501    0 -0.12416627792E+03  0.77467783943E+02 -0.14894016827E+03  0.20881019095E+03  0.00000000000E+00 0.  1.
         13    1    1    2    0    0 -0.16227732415E+03 -0.73868883896E+02  0.35341977265E+03  0.39584856803E+03  0.10566000000E+00 0. -1.
<mgrwt>
<rscale>  1 0.65066042E+03</rscale>
<asrwt>0</asrwt>
<pdfrwt beam="2">  1       21 0.33297696E-01 0.10017427E+04</pdfrwt>
<pdfrwt beam="1">  1        4 0.25533905E+00 0.10017427E+04</pdfrwt>
<totfact> 0.20700123E+01</totfact>
</mgrwt>
</event>
<event>
 6    1  0.1412458E-005  0.1050594E+04  0.7818608E-02  0.9496181E-01
         21   -1    0    0  501  502  0.00000000000E+00  0.00000000000E+00  0.13786110911E+04  0.13786110911E+04  0.00000000000E+00 0. -1.
          4   -1    0    0  502    0 -0.00000000000E+00 -0.00000000000E+00 -0.47624741830E+03  0.47624741830E+03  0.00000000000E+00 0.  1.
    9000010    2    1    2  501    0 -0.31705313324E+03  0.30658231164E+03  0.27148748094E+03  0.10851051829E+04  0.95353678611E+03 0.  0.
        -13    1    3    3    0    0 -0.11153708019E+03 -0.26402664577E+03  0.37276372077E+03  0.47021632535E+03  0.10566000000E+00 0.  1.
          4    1    3    3  501    0 -0.20551605304E+03  0.57060895742E+03 -0.10127623983E+03  0.61488885751E+03  0.00000000000E+00 0.  1.
         13    1    1    2    0    0  0.31705313324E+03 -0.30658231164E+03  0.63087619185E+03  0.76975332654E+03  0.10566000000E+00 0. -1.
<mgrwt>
<rscale>  1 0.84565944E+03</rscale>
<asrwt>0</asrwt>
<pdfrwt beam="1">  1       21 0.21209401E+00 0.10505940E+04</pdfrwt>
<pdfrwt beam="2">  1        4 0.73268834E-01 0.10505940E+04</pdfrwt>
<totfact> 0.63641580E+00</totfact>
</mgrwt>
</event>
<event>
 6    1  0.1412458E-005  0.1007128E+04  0.7818608E-02  0.9948665E-01
         21   -1    0    0  501  502  0.00000000000E+00  0.00000000000E+00  0.51279596509E+03  0.51279596509E+03  0.00000000000E+00 0.  1.
          4   -1    0    0  502    0 -0.00000000000E+00 -0.00000000000E+00 -0.68704672331E+03  0.68704672331E+03  0.00000000000E+00 0.  1.
    9000010    2    1    2  501    0 -0.10027738778E+03  0.46349783870E+02 -0.16507425285E+02  0.10072632834E+04  0.10010509328E+04 0.  0.
        -13    1    3    3    0    0  0.12356503313E+03  0.55089373067E+02  0.46066728567E+03  0.48012239657E+03  0.10566000000E+00 0.  1.
          4    1    3    3  501    0 -0.22384242091E+03 -0.87395891977E+01 -0.47717471096E+03  0.52714088686E+03  0.00000000000E+00 0.  1.
         13    1    1    2    0    0  0.10027738778E+03 -0.46349783870E+02 -0.15774333294E+03  0.19257940497E+03  0.10566000000E+00 0. -1.
<mgrwt>
<rscale>  1 0.57959642E+03</rscale>
<asrwt>0</asrwt>
<pdfrwt beam="1">  1       21 0.78891687E-01 0.10071280E+04</pdfrwt>
<pdfrwt beam="2">  1        4 0.10569950E+00 0.10071280E+04</pdfrwt>
<totfact> 0.39310034E+01</totfact>
</mgrwt>
</event>
<event>
 6    1  0.1412458E-005  0.1057224E+04  0.7818608E-02  0.9572327E-01
          4   -1    0    0  502    0 -0.00000000000E+00  0.00000000000E+00  0.17796159422E+04  0.17796159422E+04  0.00000000000E+00 0.  1.
         21   -1    0    0  501  502  0.00000000000E+00 -0.00000000000E+00 -0.33497398152E+03  0.33497398152E+03  0.00000000000E+00 0.  1.
    9000010    2    1    2  501    0  0.44454731397E+02  0.32922459092E+03  0.62015435104E+03  0.12256889821E+04  0.10036717627E+04 0.  0.
        -13    1    3    3    0    0 -0.33499129003E+03  0.18264619429E+03  0.71280420858E+03  0.80849777218E+03  0.10566000000E+00 0.  1.
          4    1    3    3  501    0  0.37944602142E+03  0.14657839662E+03 -0.92649857535E+02  0.41719120992E+03  0.00000000000E+00 0.  1.
         13    1    1    2    0    0 -0.44454731397E+02 -0.32922459092E+03  0.82448760962E+03  0.88890094161E+03  0.10566000000E+00 0. -1.
<mgrwt>
<rscale>  1 0.79155143E+03</rscale>
<asrwt>0</asrwt>
<pdfrwt beam="2">  1       21 0.51534460E-01 0.10572238E+04</pdfrwt>
<pdfrwt beam="1">  1        4 0.27378706E+00 0.10572238E+04</pdfrwt>
<totfact> 0.63083584E+00</totfact>
</mgrwt>
</event>
<event>
 6    1  0.1412458E-005  0.1119340E+04  0.7818608E-02  0.9419382E-01
          4   -1    0    0  502    0 -0.00000000000E+00  0.00000000000E+00  0.54709197148E+03  0.54709197148E+03  0.00000000000E+00 0.  1.
         21   -1    0    0  501  502  0.00000000000E+00 -0.00000000000E+00 -0.11948973666E+04  0.11948973666E+04  0.00000000000E+00 0. -1.
    9000010    2    1    2  501    0 -0.45266640944E+03 -0.15435267550E+03 -0.57444239192E+03  0.12581362942E+04  0.10120233428E+04 0.  0.
        -13    1    3    3    0    0 -0.47207057259E+03 -0.28992428018E+03  0.10600595787E+03  0.56404254096E+03  0.10566000000E+00 0.  1.
          4    1    3    3  501    0  0.19404163144E+02  0.13557160468E+03 -0.68044834979E+03  0.69409375323E+03  0.00000000000E+00 0.  1.
         13    1    1    2    0    0  0.45266640944E+03  0.15435267550E+03 -0.73363003189E+02  0.48385304388E+03  0.10566000000E+00 0. -1.
<mgrwt>
<rscale>  1 0.90497672E+03</rscale>
<asrwt>0</asrwt>
<pdfrwt beam="2">  1       21 0.18383036E+00 0.11193404E+04</pdfrwt>
<pdfrwt beam="1">  1        4 0.84167996E-01 0.11193404E+04</pdfrwt>
<totfact> 0.72106137E+00</totfact>
</mgrwt>
</event>
<event>
 6    1  0.1412458E-005  0.1010259E+04  0.7818608E-02  0.9835086E-01
         21   -1    0    0  501  502  0.00000000000E+00  0.00000000000E+00  0.22410234652E+03  0.22410234652E+03  0.00000000000E+00 0.  1.
          4   -1    0    0  502    0 -0.00000000000E+00 -0.00000000000E+00 -0.15317288173E+04  0.15317288173E+04  0.00000000000E+00 0.  1.
    9000010    2    1    2  501    0  0.52993215419E+02 -0.14865455879E+03 -0.10801311633E+04  0.14789546845E+04  0.99785628730E+03 0.  0.
        -13    1    3    3    0    0  0.49262243562E+03  0.10488940321E+02 -0.32322883853E+03  0.58929090878E+03  0.10566000000E+00 0.  1.
          4    1    3    3  501    0 -0.43962922020E+03 -0.15914349911E+03 -0.75690232475E+03  0.88966377569E+03  0.00000000000E+00 0.  1.
         13    1    1    2    0    0 -0.52993215419E+02  0.14865455879E+03 -0.22749530754E+03  0.27687647940E+03  0.10566000000E+00 0. -1.
<mgrwt>
<rscale>  1 0.63513147E+03</rscale>
<asrwt>0</asrwt>
<pdfrwt beam="1">  1       21 0.34477284E-01 0.10102592E+04</pdfrwt>
<pdfrwt beam="2">  1        4 0.23565059E+00 0.10102592E+04</pdfrwt>
<totfact> 0.25522055E+01</totfact>
</mgrwt>
</event>
<event>
 6    1  0.1412458E-005  0.9621179E+03  0.7818608E-02  0.9855337E-01
          4   -1    0    0  502    0 -0.00000000000E+00  0.00000000000E+00  0.19288476538E+04  0.19288476538E+04  0.00000000000E+00 0.  1.
         21   -1    0    0  501  502  0.00000000000E+00 -0.00000000000E+00 -0.16665326682E+03  0.16665326682E+03  0.00000000000E+00 0.  1.
    9000010    2    1    2  501    0  0.10880953856E+03 -0.13199606833E+03  0.15226335586E+04  0.18011340077E+04  0.94678840422E+03 0.  0.
        -13    1    3    3    0    0  0.12777131009E+03 -0.20647305165E+03  0.16416234747E+04  0.16594831342E+04  0.10566000000E+00 0.  1.
          4    1    3    3  501    0 -0.18961771530E+02  0.74476983318E+02 -0.11898991616E+03  0.14165087353E+03  0.00000000000E+00 0.  1.
         13    1    1    2    0    0 -0.10880953856E+03  0.13199606833E+03  0.23956082847E+03  0.29436691294E+03  0.10566000000E+00 0. -1.
<mgrwt>
<rscale>  1 0.62475561E+03</rscale>
<asrwt>0</asrwt>
<pdfrwt beam="2">  1       21 0.25638965E-01 0.96211785E+03</pdfrwt>
<pdfrwt beam="1">  1        4 0.29674578E+00 0.96211785E+03</pdfrwt>
<totfact> 0.19559494E+01</totfact>
</mgrwt>
</event>
<event>
 6    1  0.1412458E-005  0.1067757E+04  0.7818608E-02  0.9517367E-01
          4   -1    0    0  502    0 -0.00000000000E+00  0.00000000000E+00  0.51418597836E+03  0.51418597836E+03  0.00000000000E+00 0.  1.
         21   -1    0    0  501  502  0.00000000000E+00 -0.00000000000E+00 -0.11242121412E+04  0.11242121412E+04  0.00000000000E+00 0.  1.
    9000010    2    1    2  501    0  0.81411651876E+01  0.39005239785E+03 -0.64375384567E+03  0.12468055770E+04  0.99393057172E+03 0.  0.
        -13    1    3    3    0    0  0.24488755158E+03  0.64430286928E+03 -0.56338195867E+03  0.89022207499E+03  0.10566000000E+00 0.  1.
          4    1    3    3  501    0 -0.23674638640E+03 -0.25425047143E+03 -0.80371887004E+02  0.35658350202E+03  0.00000000000E+00 0.  1.
         13    1    1    2    0    0 -0.81411651876E+01 -0.39005239785E+03  0.33727682821E+02  0.39159254257E+03  0.10566000000E+00 0. -1.
<mgrwt>
<rscale>  1 0.83015411E+03</rscale>
<asrwt>0</asrwt>
<pdfrwt beam="2">  1       21 0.17295571E+00 0.10677571E+04</pdfrwt>
<pdfrwt beam="1">  1        4 0.79105537E-01 0.10677571E+04</pdfrwt>
<totfact> 0.10055634E+01</totfact>
</mgrwt>
</event>
<event>
 6    1  0.1412458E-005  0.1006014E+04  0.7818608E-02  0.9945143E-01
         21   -1    0    0  501  502  0.00000000000E+00  0.00000000000E+00  0.22040850962E+04  0.22040850962E+04  0.00000000000E+00 0.  1.
          4   -1    0    0  502    0 -0.00000000000E+00 -0.00000000000E+00 -0.14322204006E+03  0.14322204006E+03  0.00000000000E+00 0.  1.
    9000010    2    1    2  501    0  0.56926964351E+02  0.96557526372E+02  0.19169490145E+04  0.21648919567E+04  0.99974978121E+03 0.  0.
        -13    1    3    3    0    0  0.33607911552E+03 -0.34114624343E+03  0.78441388046E+03  0.91904030288E+03  0.10566000000E+00 0.  1.
          4    1    3    3  501    0 -0.27915215117E+03  0.43770376981E+03  0.11325351340E+04  0.12458516538E+04  0.00000000000E+00 0.  1.
         13    1    1    2    0    0 -0.56926964351E+02 -0.96557526372E+02  0.14391404164E+03  0.18241517950E+03  0.10566000000E+00 0. -1.
<mgrwt>
<rscale>  1 0.58122479E+03</rscale>
<asrwt>0</asrwt>
<pdfrwt beam="1">  1       21 0.33908999E+00 0.10060137E+04</pdfrwt>
<pdfrwt beam="2">  1        4 0.22034162E-01 0.10060137E+04</pdfrwt>
<totfact> 0.11826587E+01</totfact>
</mgrwt>
</event>
<event>
 6    1  0.1412458E-005  0.1014130E+04  0.7818608E-02  0.9759941E-01
         21   -1    0    0  501  502  0.00000000000E+00  0.00000000000E+00  0.87703519037E+03  0.87703519037E+03  0.00000000000E+00 0. -1.
          4   -1    0    0  502    0 -0.00000000000E+00 -0.00000000000E+00 -0.42432608077E+03  0.42432608077E+03  0.00000000000E+00 0.  1.
    9000010    2    1    2  501    0 -0.11564152078E+03  0.16282780267E+03  0.42559687144E+03  0.10998149011E+04  0.99427072022E+03 0.  0.
        -13    1    3    3    0    0  0.72304213382E+02  0.46610659724E+03 -0.82616600898E+02  0.47886195628E+03  0.10566000000E+00 0.  1.
          4    1    3    3  501    0 -0.18794573416E+03 -0.30327879458E+03  0.50821347234E+03  0.62095294483E+03  0.00000000000E+00 0.  1.
         13    1    1    2    0    0  0.11564152078E+03 -0.16282780267E+03  0.27112238156E+02  0.20154637003E+03  0.10566000000E+00 0. -1.
<mgrwt>
<rscale>  1 0.67557361E+03</rscale>
<asrwt>0</asrwt>
<pdfrwt beam="1">  1       21 0.13492849E+00 0.10141302E+04</pdfrwt>
<pdfrwt beam="2">  1        4 0.65280936E-01 0.10141302E+04</pdfrwt>
<totfact> 0.31361048E+01</totfact>
</mgrwt>
</event>
<event>
 6    1  0.1412458E-005  0.1172812E+04  0.7818608E-02  0.9586122E-01
         21   -1    0    0  501  502  0.00000000000E+00  0.00000000000E+00  0.78774642713E+03  0.78774642713E+03  0.00000000000E+00 0.  1.
          4   -1    0    0  502    0 -0.00000000000E+00 -0.00000000000E+00 -0.13897054003E+04  0.13897054003E+04  0.00000000000E+00 0.  1.
    9000010    2    1    2  501    0  0.99136136774E+02  0.20983023749E+03  0.32893462447E+03  0.12180668143E+04  0.11496225792E+04 0.  0.
        -13    1    3    3    0    0  0.38989117945E+02  0.56379440477E+03 -0.18188703829E+03  0.59368947104E+03  0.10566000000E+00 0.  1.
          4    1    3    3  501    0  0.60147018828E+02 -0.35396416728E+03  0.51082166276E+03  0.62437734323E+03  0.00000000000E+00 0.  1.
         13    1    1    2    0    0 -0.99136136774E+02 -0.20983023749E+03 -0.93089359768E+03  0.95938501319E+03  0.10566000000E+00 0. -1.
<mgrwt>
<rscale>  1 0.78221542E+03</rscale>
<asrwt>0</asrwt>
<pdfrwt beam="1">  1       21 0.12119176E+00 0.11728123E+04</pdfrwt>
<pdfrwt beam="2">  1        4 0.21380083E+00 0.11728123E+04</pdfrwt>
<totfact> 0.19511573E+00</totfact>
</mgrwt>
</event>
<event>
 6    1  0.1412458E-005  0.1040239E+04  0.7818608E-02  0.9712040E-01
          4   -1    0    0  502    0 -0.00000000000E+00  0.00000000000E+00  0.39269878640E+03  0.39269878640E+03  0.00000000000E+00 0.  1.
         21   -1    0    0  501  502  0.00000000000E+00 -0.00000000000E+00 -0.10320999128E+04  0.10320999128E+04  0.00000000000E+00 0.  1.
    9000010    2    1    2  501    0 -0.19511924675E+03 -0.95042321109E+02 -0.60967534216E+03  0.12057366152E+04  0.10173456635E+04 0.  0.
        -13    1    3    3    0    0 -0.37676974765E+03 -0.35408966086E+03  0.20345438870E+01  0.51704843217E+03  0.10566000000E+00 0.  1.
          4    1    3    3  501    0  0.18165050090E+03  0.25904733975E+03 -0.61170988605E+03  0.68868818300E+03  0.00000000000E+00 0.  1.
         13    1    1    2    0    0  0.19511924675E+03  0.95042321109E+02 -0.29725784240E+02  0.21906208404E+03  0.10566000000E+00 0. -1.
<mgrwt>
<rscale>  1 0.70304427E+03</rscale>
<asrwt>0</asrwt>
<pdfrwt beam="2">  1       21 0.15878460E+00 0.10402388E+04</pdfrwt>
<pdfrwt beam="1">  1        4 0.60415198E-01 0.10402388E+04</pdfrwt>
<totfact> 0.23626332E+01</totfact>
</mgrwt>
</event>
<event>
 6    1  0.1412458E-005  0.8997769E+03  0.7818608E-02  0.9871544E-01
          4   -1    0    0  502    0 -0.00000000000E+00  0.00000000000E+00  0.24050574489E+03  0.24050574489E+03  0.00000000000E+00 0.  1.
         21   -1    0    0  501  502  0.00000000000E+00 -0.00000000000E+00 -0.12657818903E+04  0.12657818903E+04  0.00000000000E+00 0.  1.
    9000010    2    1    2  501    0 -0.17830883654E+03 -0.87080338760E+02 -0.89373621544E+03  0.12682124560E+04  0.87762257506E+03 0.  0.
        -13    1    3    3    0    0  0.28202298724E+03  0.14773901264E+03 -0.58560507389E+03  0.66655614536E+03  0.10566000000E+00 0.  1.
          4    1    3    3  501    0 -0.46033182378E+03 -0.23481935140E+03 -0.30813114155E+03  0.60165631067E+03  0.00000000000E+00 0.  1.
         13    1    1    2    0    0  0.17830883654E+03  0.87080338760E+02 -0.13153992993E+03  0.23807517912E+03  0.10566000000E+00 0. -1.
<mgrwt>
<rscale>  1 0.61660423E+03</rscale>
<asrwt>0</asrwt>
<pdfrwt beam="2">  1       21 0.19473567E+00 0.89977687E+03</pdfrwt>
<pdfrwt beam="1">  1        4 0.37000884E-01 0.89977687E+03</pdfrwt>
<totfact> 0.36506815E+01</totfact>
</mgrwt>
</event>
<event>
 6    1  0.1412458E-005  0.1028918E+04  0.7818608E-02  0.9643337E-01
         21   -1    0    0  501  502  0.00000000000E+00  0.00000000000E+00  0.43980155223E+03  0.43980155223E+03  0.00000000000E+00 0.  1.
          4   -1    0    0  502    0 -0.00000000000E+00 -0.00000000000E+00 -0.10819209690E+04  0.10819209690E+04  0.00000000000E+00 0.  1.
    9000010    2    1    2  501    0  0.19269429175E+03  0.20684795974E+03 -0.68458896784E+03  0.12358539457E+04  0.98932085382E+03 0.  0.
        -13    1    3    3    0    0 -0.50486524966E+02  0.57816458617E+03 -0.44592356040E+03  0.73189549172E+03  0.10566000000E+00 0.  1.
          4    1    3    3  501    0  0.24318081671E+03 -0.37131662643E+03 -0.23866540744E+03  0.50395845403E+03  0.00000000000E+00 0.  1.
         13    1    1    2    0    0 -0.19269429175E+03 -0.20684795974E+03  0.42469551055E+02  0.28586857549E+03  0.10566000000E+00 0. -1.
<mgrwt>
<rscale>  1 0.74493049E+03</rscale>
<asrwt>0</asrwt>
<pdfrwt beam="1">  1       21 0.67661778E-01 0.10289183E+04</pdfrwt>
<pdfrwt beam="2">  1        4 0.16644938E+00 0.10289183E+04</pdfrwt>
<totfact> 0.17211337E+01</totfact>
</mgrwt>
</event>
<event>
 6    1  0.1412458E-005  0.9602910E+03  0.7818608E-02  0.9980780E-01
         21   -1    0    0  501  502  0.00000000000E+00  0.00000000000E+00  0.84508300370E+03  0.84508300370E+03  0.00000000000E+00 0.  1.
          4   -1    0    0  502    0 -0.00000000000E+00 -0.00000000000E+00 -0.35194202683E+03  0.35194202683E+03  0.00000000000E+00 0.  1.
    9000010    2    1    2  501    0 -0.11103740767E+03  0.30252521369E+02  0.49819256298E+03  0.10818293247E+04  0.95336998960E+03 0.  0.
        -13    1    3    3    0    0  0.27455876248E+03 -0.11075292631E+03  0.59090576161E+03  0.66092235173E+03  0.10566000000E+00 0.  1.
          4    1    3    3  501    0 -0.38559617015E+03  0.14100544768E+03 -0.92713198637E+02  0.42090697299E+03  0.00000000000E+00 0.  1.
         13    1    1    2    0    0  0.11103740767E+03 -0.30252521369E+02 -0.50515861056E+01  0.11519570581E+03  0.10566000000E+00 0. -1.
<mgrwt>
<rscale>  1 0.56501078E+03</rscale>
<asrwt>0</asrwt>
<pdfrwt beam="1">  1       21 0.13001277E+00 0.96029103E+03</pdfrwt>
<pdfrwt beam="2">  1        4 0.54144928E-01 0.96029103E+03</pdfrwt>
<totfact> 0.52261321E+01</totfact>
</mgrwt>
</event>
<event>
 6    1  0.1412458E-005  0.9707615E+03  0.7818608E-02  0.9988111E-01
          4   -1    0    0  502    0 -0.00000000000E+00  0.00000000000E+00  0.48311914049E+03  0.48311914049E+03  0.00000000000E+00 0.  1.
         21   -1    0    0  501  502  0.00000000000E+00 -0.00000000000E+00 -0.89744944510E+03  0.89744944510E+03  0.00000000000E+00 0.  1.
    9000010    2    1    2  501    0 -0.10846895212E+03  0.90830395172E+01 -0.61719195736E+03  0.11503493933E+04  0.96463972509E+03 0.  0.
        -13    1    3    3    0    0  0.10901005208E+03  0.48974232550E+02 -0.83291240503E+03  0.84144206724E+03  0.10566000000E+00 0.  1.
          4    1    3    3  501    0 -0.21747900420E+03 -0.39891193033E+02  0.21572044766E+03  0.30890732605E+03  0.00000000000E+00 0.  1.
         13    1    1    2    0    0  0.10846895212E+03 -0.90830395172E+01  0.20286165276E+03  0.23021919230E+03  0.10566000000E+00 0. -1.
<mgrwt>
<rscale>  1 0.56174620E+03</rscale>
<asrwt>0</asrwt>
<pdfrwt beam="2">  1       21 0.13806914E+00 0.97076146E+03</pdfrwt>
<pdfrwt beam="1">  1        4 0.74326023E-01 0.97076146E+03</pdfrwt>
<totfact> 0.22146603E+01</totfact>
</mgrwt>
</event>
<event>
 6    1  0.1412458E-005  0.1156338E+04  0.7818608E-02  0.9322765E-01
          4   -1    0    0  502    0 -0.00000000000E+00  0.00000000000E+00  0.12886217880E+04  0.12886217880E+04  0.00000000000E+00 0.  1.
         21   -1    0    0  501  502  0.00000000000E+00 -0.00000000000E+00 -0.68897124762E+03  0.68897124762E+03  0.00000000000E+00 0.  1.
    9000010    2    1    2  501    0 -0.61401039050E+03  0.11918690827E+02  0.56467459476E+02  0.11577157976E+04  0.97977879100E+03 0.  0.
        -13    1    3    3    0    0 -0.73986968848E+03  0.32819933530E+03  0.95810604684E+02  0.81504701874E+03  0.10566000000E+00 0.  1.
          4    1    3    3  501    0  0.12585929798E+03 -0.31628064448E+03 -0.39343145208E+02  0.34266877890E+03  0.00000000000E+00 0.  1.
         13    1    1    2    0    0  0.61401039050E+03 -0.11918690827E+02  0.54318308094E+03  0.81987723802E+03  0.10566000000E+00 0. -1.
<mgrwt>
<rscale>  1 0.98713818E+03</rscale>
<asrwt>0</asrwt>
<pdfrwt beam="2">  1       21 0.10599558E+00 0.11563379E+04</pdfrwt>
<pdfrwt beam="1">  1        4 0.19824951E+00 0.11563379E+04</pdfrwt>
<totfact> 0.34863231E+00</totfact>
</mgrwt>
</event>
<event>
 6    1  0.1412458E-005  0.1012026E+04  0.7818608E-02  0.9985918E-01
          4   -1    0    0  502    0 -0.00000000000E+00  0.00000000000E+00  0.61121855193E+03  0.61121855193E+03  0.00000000000E+00 0.  1.
         21   -1    0    0  501  502  0.00000000000E+00 -0.00000000000E+00 -0.50403353546E+03  0.50403353546E+03  0.00000000000E+00 0.  1.
    9000010    2    1    2  501    0 -0.86393528625E+02 -0.43523699657E+02  0.11314600918E+03  0.10183309915E+04  0.10073915995E+04 0.  0.
        -13    1    3    3    0    0  0.13644672627E+03 -0.21647967243E+03  0.48691610266E+03  0.55006223273E+03  0.10566000000E+00 0.  1.
          4    1    3    3  501    0 -0.22284025489E+03  0.17295597277E+03 -0.37377009347E+03  0.46826875882E+03  0.00000000000E+00 0.  1.
         13    1    1    2    0    0  0.86393528625E+02  0.43523699657E+02 -0.59609927106E+01  0.96921095837E+02  0.10566000000E+00 0. -1.
<mgrwt>
<rscale>  1 0.56272025E+03</rscale>
<asrwt>0</asrwt>
<pdfrwt beam="2">  1       21 0.77543621E-01 0.10120257E+04</pdfrwt>
<pdfrwt beam="1">  1        4 0.94033623E-01 0.10120257E+04</pdfrwt>
<totfact> 0.54237797E+01</totfact>
</mgrwt>
</event>
<event>
 6    1  0.1412458E-005  0.9816324E+03  0.7818608E-02  0.1022171E+00
          4   -1    0    0  502    0 -0.00000000000E+00  0.00000000000E+00  0.72933349456E+03  0.72933349456E+03  0.00000000000E+00 0.  1.
         21   -1    0    0  501  502  0.00000000000E+00 -0.00000000000E+00 -0.46221302016E+03  0.46221302016E+03  0.00000000000E+00 0.  1.
    9000010    2    1    2  501    0  0.35055556072E+02 -0.37314912670E+02  0.65819382696E+02  0.98383653565E+03  0.98029630369E+03 0.  0.
        -13    1    3    3    0    0 -0.11579894091E+02  0.42531406992E+03  0.23858947528E+03  0.48780231744E+03  0.10566000000E+00 0.  1.
          4    1    3    3  501    0  0.46635450163E+02 -0.46262898259E+03 -0.17277009258E+03  0.49603421821E+03  0.00000000000E+00 0.  1.
         13    1    1    2    0    0 -0.35055556072E+02  0.37314912670E+02  0.20130109171E+03  0.20770997907E+03  0.10566000000E+00 0. -1.
<mgrwt>
<rscale>  1 0.46911181E+03</rscale>
<asrwt>0</asrwt>
<pdfrwt beam="2">  1       21 0.71109695E-01 0.98163238E+03</pdfrwt>
<pdfrwt beam="1">  1        4 0.11220515E+00 0.98163238E+03</pdfrwt>
<totfact> 0.43291861E+01</totfact>
</mgrwt>
</event>
<event>
 6    1  0.1412458E-005  0.9936462E+03  0.7818608E-02  0.9916584E-01
         21   -1    0    0  501  502  0.00000000000E+00  0.00000000000E+00  0.61463618365E+03  0.61463618365E+03  0.00000000000E+00 0.  1.
          4   -1    0    0  502    0 -0.00000000000E+00 -0.00000000000E+00 -0.51165086567E+03  0.51165086567E+03  0.00000000000E+00 0.  1.
    9000010    2    1    2  501    0 -0.12373278419E+03  0.30542922263E+02  0.10166295612E+03  0.99883340367E+03  0.98543905933E+03 0.  0.
        -13    1    3    3    0    0  0.10451047819E+03 -0.11346536105E+03 -0.40025904585E+03  0.42895704116E+03  0.10566000000E+00 0.  1.
          4    1    3    3  501    0 -0.22824326239E+03  0.14400828331E+03  0.50192200197E+03  0.56987636251E+03  0.00000000000E+00 0.  1.
         13    1    1    2    0    0  0.12373278419E+03 -0.30542922263E+02  0.13223618559E+01  0.12745364565E+03  0.10566000000E+00 0. -1.
<mgrwt>
<rscale>  1 0.59464266E+03</rscale>
<asrwt>0</asrwt>
<pdfrwt beam="1">  1       21 0.94559413E-01 0.99364622E+03</pdfrwt>
<pdfrwt beam="2">  1        4 0.78715518E-01 0.99364622E+03</pdfrwt>
<totfact> 0.51192642E+01</totfact>
</mgrwt>
</event>
<event>
 6    1  0.1412458E-005  0.1043847E+04  0.7818608E-02  0.9619126E-01
         21   -1    0    0  501  502  0.00000000000E+00  0.00000000000E+00  0.74696604935E+03  0.74696604935E+03  0.00000000000E+00 0.  1.
          4   -1    0    0  502    0 -0.00000000000E+00 -0.00000000000E+00 -0.65992429535E+03  0.65992429535E+03  0.00000000000E+00 0.  1.
    9000010    2    1    2  501    0 -0.28146091582E+03 -0.84901931131E+02  0.24633727112E+03  0.10725198048E+04  0.10015927792E+04 0.  0.
        -13    1    3    3    0    0 -0.55424462361E+03  0.20447246199E+02 -0.15507159657E+03  0.57589270173E+03  0.10566000000E+00 0.  1.
          4    1    3    3  501    0  0.27278370779E+03 -0.10534917733E+03  0.40140886769E+03  0.49662710302E+03  0.00000000000E+00 0.  1.
         13    1    1    2    0    0  0.28146091582E+03  0.84901931131E+02 -0.15929551712E+03  0.33437053995E+03  0.10566000000E+00 0. -1.
<mgrwt>
<rscale>  1 0.76043104E+03</rscale>
<asrwt>0</asrwt>
<pdfrwt beam="1">  1       21 0.11491785E+00 0.10438471E+04</pdfrwt>
<pdfrwt beam="2">  1        4 0.10152681E+00 0.10438471E+04</pdfrwt>
<totfact> 0.17187585E+01</totfact>
</mgrwt>
</event>
<event>
 6    1  0.1412458E-005  0.1061510E+04  0.7818608E-02  0.9685353E-01
         21   -1    0    0  501  502  0.00000000000E+00  0.00000000000E+00  0.29447885096E+03  0.29447885096E+03  0.00000000000E+00 0.  1.
          4   -1    0    0  502    0 -0.00000000000E+00 -0.00000000000E+00 -0.15773871084E+04  0.15773871084E+04  0.00000000000E+00 0.  1.
    9000010    2    1    2  501    0 -0.22236536323E+03 -0.21222819370E+02 -0.76681978776E+03  0.13095101267E+04  0.10377415007E+04 0.  0.
        -13    1    3    3    0    0 -0.60940540897E+03 -0.93255650075E+02 -0.26334598113E+03  0.67038995047E+03  0.10566000000E+00 0.  1.
          4    1    3    3  501    0  0.38704004573E+03  0.72032830705E+02 -0.50347380663E+03  0.63912017623E+03  0.00000000000E+00 0.  1.
         13    1    1    2    0    0  0.22236536323E+03  0.21222819370E+02 -0.51608846972E+03  0.56235583270E+03  0.10566000000E+00 0. -1.
<mgrwt>
<rscale>  1 0.71895586E+03</rscale>
<asrwt>0</asrwt>
<pdfrwt beam="1">  1       21 0.45304438E-01 0.10615103E+04</pdfrwt>
<pdfrwt beam="2">  1        4 0.24267494E+00 0.10615103E+04</pdfrwt>
<totfact> 0.12959987E+01</totfact>
</mgrwt>
</event>
<event>
 6    1  0.1412458E-005  0.1067296E+04  0.7818608E-02  0.9513551E-01
          4   -1    0    0  502    0 -0.00000000000E+00  0.00000000000E+00  0.30538682314E+03  0.30538682314E+03  0.00000000000E+00 0.  1.
         21   -1    0    0  501  502  0.00000000000E+00 -0.00000000000E+00 -0.17808154445E+04  0.17808154445E+04  0.00000000000E+00 0. -1.
    9000010    2    1    2  501    0  0.11802069290E+03 -0.37787432212E+03 -0.11877934030E+04  0.15968640234E+04  0.99116277861E+03 0.  0.
        -13    1    3    3    0    0  0.51157320179E+03  0.27573703873E+01 -0.47528078987E+03  0.69828832459E+03  0.10566000000E+00 0.  1.
          4    1    3    3  501    0 -0.39355250888E+03 -0.38063169250E+03 -0.71251261317E+03  0.89857569882E+03  0.00000000000E+00 0.  1.
         13    1    1    2    0    0 -0.11802069290E+03  0.37787432212E+03 -0.28763521829E+03  0.48933824420E+03  0.10566000000E+00 0. -1.
<mgrwt>
<rscale>  1 0.83292059E+03</rscale>
<asrwt>0</asrwt>
<pdfrwt beam="2">  1       21 0.27397162E+00 0.10672964E+04</pdfrwt>
<pdfrwt beam="1">  1        4 0.46982586E-01 0.10672964E+04</pdfrwt>
<totfact> 0.66610016E+00</totfact>
</mgrwt>
</event>
<event>
 6    1  0.1412458E-005  0.1082105E+04  0.7818608E-02  0.9521762E-01
         21   -1    0    0  501  502  0.00000000000E+00  0.00000000000E+00  0.31712614319E+04  0.31712614319E+04  0.00000000000E+00 0. -1.
          4   -1    0    0  502    0 -0.00000000000E+00 -0.00000000000E+00 -0.17583692915E+03  0.17583692915E+03  0.00000000000E+00 0.  1.
    9000010    2    1    2  501    0  0.31090202802E+03  0.19898616078E+03  0.18451632410E+04  0.21390600568E+04  0.10171995759E+04 0.  0.
        -13    1    3    3    0    0  0.49292637383E+03 -0.26645873490E+03  0.11873843500E+04  0.13129578338E+04  0.10566000000E+00 0.  1.
          4    1    3    3  501    0 -0.18202434581E+03  0.46544489569E+03  0.65777889101E+03  0.82610222301E+03  0.00000000000E+00 0.  1.
         13    1    1    2    0    0 -0.31090202802E+03 -0.19898616078E+03  0.11502612617E+04  0.12080383043E+04  0.10566000000E+00 0. -1.
<mgrwt>
<rscale>  1 0.82698246E+03</rscale>
<asrwt>0</asrwt>
<pdfrwt beam="1">  1       21 0.48788633E+00 0.10821047E+04</pdfrwt>
<pdfrwt beam="2">  1        4 0.27051838E-01 0.10821047E+04</pdfrwt>
<totfact> 0.80311905E-01</totfact>
</mgrwt>
</event>
<event>
 6    1  0.1412458E-005  0.1006226E+04  0.7818608E-02  0.1000606E+00
         21   -1    0    0  501  502  0.00000000000E+00  0.00000000000E+00  0.14297699562E+04  0.14297699562E+04  0.00000000000E+00 0.  1.
          4   -1    0    0  502    0 -0.00000000000E+00 -0.00000000000E+00 -0.21276610091E+03  0.21276610091E+03  0.00000000000E+00 0.  1.
    9000010    2    1    2  501    0 -0.67610268954E+02  0.62926732710E+02  0.11521019448E+04  0.15296503127E+04  0.10019781762E+04 0.  0.
        -13    1    3    3    0    0 -0.18364424207E+03  0.26394864359E+03 -0.31885324511E+02  0.32312656836E+03  0.10566000000E+00 0.  1.
          4    1    3    3  501    0  0.11603397312E+03 -0.20102191088E+03  0.11839872693E+04  0.12065237443E+04  0.00000000000E+00 0.  1.
         13    1    1    2    0    0  0.67610268954E+02 -0.62926732710E+02  0.64901910457E+02  0.11288574446E+03  0.10566000000E+00 0. -1.
<mgrwt>
<rscale>  1 0.55385526E+03</rscale>
<asrwt>0</asrwt>
<pdfrwt beam="1">  1       21 0.21996460E+00 0.10062262E+04</pdfrwt>
<pdfrwt beam="2">  1        4 0.32733247E-01 0.10062262E+04</pdfrwt>
<totfact> 0.31062985E+01</totfact>
</mgrwt>
</event>
<event>
 6    1  0.1412458E-005  0.1072124E+04  0.7818608E-02  0.9526340E-01
          4   -1    0    0  502    0 -0.00000000000E+00  0.00000000000E+00  0.76775432398E+03  0.76775432398E+03  0.00000000000E+00 0.  1.
         21   -1    0    0  501  502  0.00000000000E+00 -0.00000000000E+00 -0.99122117056E+03  0.99122117056E+03  0.00000000000E+00 0.  1.
    9000010    2    1    2  501    0 -0.13057937922E+02 -0.37330456616E+03 -0.59999812453E+03  0.12285957972E+04  0.10049492896E+04 0.  0.
        -13    1    3    3    0    0 -0.11296645513E+03  0.23037596878E+03 -0.55930655029E+03  0.61535220430E+03  0.10566000000E+00 0.  1.
          4    1    3    3  501    0  0.99908517212E+02 -0.60368053494E+03 -0.40691574242E+02  0.61324359294E+03  0.00000000000E+00 0.  1.
         13    1    1    2    0    0  0.13057937922E+02  0.37330456616E+03  0.37653127796E+03  0.53037969729E+03  0.10566000000E+00 0. -1.
<mgrwt>
<rscale>  1 0.82369414E+03</rscale>
<asrwt>0</asrwt>
<pdfrwt beam="2">  1       21 0.15249557E+00 0.10721240E+04</pdfrwt>
<pdfrwt beam="1">  1        4 0.11811605E+00 0.10721240E+04</pdfrwt>
<totfact> 0.55298381E+00</totfact>
</mgrwt>
</event>
<event>
 6    1  0.1412458E-005  0.1168516E+04  0.7818608E-02  0.9306267E-01
         21   -1    0    0  501  502  0.00000000000E+00  0.00000000000E+00  0.94602674491E+03  0.94602674491E+03  0.00000000000E+00 0. -1.
          4   -1    0    0  502    0 -0.00000000000E+00 -0.00000000000E+00 -0.88722126841E+03  0.88722126841E+03  0.00000000000E+00 0.  1.
    9000010    2    1    2  501    0  0.49251401708E+03  0.39601650885E+03 -0.12473574396E+03  0.11751549173E+04  0.98286873053E+03 0.  0.
        -13    1    3    3    0    0  0.28738797202E+03 -0.10388859891E+03 -0.45037601979E+03  0.54426395968E+03  0.10566000000E+00 0.  1.
          4    1    3    3  501    0  0.20512604506E+03  0.49990510775E+03  0.32564027583E+03  0.63089095759E+03  0.00000000000E+00 0.  1.
         13    1    1    2    0    0 -0.49251401708E+03 -0.39601650885E+03  0.18354122046E+03  0.65809309606E+03  0.10566000000E+00 0. -1.
<mgrwt>
<rscale>  1 0.10020791E+04</rscale>
<asrwt>0</asrwt>
<pdfrwt beam="1">  1       21 0.14554258E+00 0.11685162E+04</pdfrwt>
<pdfrwt beam="2">  1        4 0.13649558E+00 0.11685162E+04</pdfrwt>
<totfact> 0.42996297E+00</totfact>
</mgrwt>
</event>
<event>
 6    1  0.1412458E-005  0.1201221E+04  0.7818608E-02  0.9284146E-01
         21   -1    0    0  501  502  0.00000000000E+00  0.00000000000E+00  0.11093816132E+04  0.11093816132E+04  0.00000000000E+00 0.  1.
          4   -1    0    0  502    0 -0.00000000000E+00 -0.00000000000E+00 -0.10563840997E+04  0.10563840997E+04  0.00000000000E+00 0.  1.
    9000010    2    1    2  501    0  0.47168750401E+03  0.41880453375E+03  0.58914039806E+03  0.13379157610E+04  0.10222748339E+04 0.  0.
        -13    1    3    3    0    0  0.43318878745E+03  0.22096178165E+03  0.86734901882E+03  0.99436963255E+03  0.10566000000E+00 0.  1.
          4    1    3    3  501    0  0.38498716557E+02  0.19784275210E+03 -0.27820862076E+03  0.34354612849E+03  0.00000000000E+00 0.  1.
         13    1    1    2    0    0 -0.47168750401E+03 -0.41880453375E+03 -0.53614288452E+03  0.82784995181E+03  0.10566000000E+00 0. -1.
<mgrwt>
<rscale>  1 0.10225560E+04</rscale>
<asrwt>0</asrwt>
<pdfrwt beam="1">  1       21 0.17067409E+00 0.12012211E+04</pdfrwt>
<pdfrwt beam="2">  1        4 0.16252063E+00 0.12012211E+04</pdfrwt>
<totfact> 0.16974692E+00</totfact>
</mgrwt>
</event>
<event>
 6    1  0.1412458E-005  0.9009532E+03  0.7818608E-02  0.1037902E+00
          4   -1    0    0  502    0 -0.00000000000E+00  0.00000000000E+00  0.20994325725E+03  0.20994325725E+03  0.00000000000E+00 0.  1.
         21   -1    0    0  501  502  0.00000000000E+00 -0.00000000000E+00 -0.12356034740E+04  0.12356034740E+04  0.00000000000E+00 0.  1.
    9000010    2    1    2  501    0  0.41174923846E+02  0.53611678482E+01 -0.10603620991E+04  0.13914325162E+04  0.89999586073E+03 0.  0.
        -13    1    3    3    0    0 -0.31548336335E+03  0.20022249300E+03 -0.16562786034E+03  0.40871921723E+03  0.10566000000E+00 0.  1.
          4    1    3    3  501    0  0.35665828719E+03 -0.19486132515E+03 -0.89473423880E+03  0.98271329895E+03  0.00000000000E+00 0.  1.
         13    1    1    2    0    0 -0.41174923846E+02 -0.53611678482E+01  0.34701882351E+02  0.54114215112E+02  0.10566000000E+00 0. -1.
<mgrwt>
<rscale>  1 0.41744364E+03</rscale>
<asrwt>0</asrwt>
<pdfrwt beam="2">  1       21 0.19009284E+00 0.90095320E+03</pdfrwt>
<pdfrwt beam="1">  1        4 0.32298963E-01 0.90095320E+03</pdfrwt>
<totfact> 0.51563196E+01</totfact>
</mgrwt>
</event>
<event>
 6    1  0.1412458E-005  0.1180370E+04  0.7818608E-02  0.9312985E-01
         21   -1    0    0  501  502  0.00000000000E+00  0.00000000000E+00  0.35213927362E+03  0.35213927362E+03  0.00000000000E+00 0.  1.
          4   -1    0    0  502    0 -0.00000000000E+00 -0.00000000000E+00 -0.26543296520E+04  0.26543296520E+04  0.00000000000E+00 0.  1.
    9000010    2    1    2  501    0 -0.43163198618E+03 -0.41431017869E+03 -0.90761794385E+03  0.14889738245E+04  0.10175036228E+04 0.  0.
        -13    1    3    3    0    0 -0.59936450111E+03 -0.43205470249E+03 -0.20553103451E+03  0.76691074347E+03  0.10566000000E+00 0.  1.
          4    1    3    3  501    0  0.16773251494E+03  0.17744523797E+02 -0.70208690934E+03  0.72206308101E+03  0.00000000000E+00 0.  1.
         13    1    1    2    0    0  0.43163198618E+03  0.41431017869E+03 -0.13945724345E+04  0.15174951011E+04  0.10566000000E+00 0. -1.
<mgrwt>
<rscale>  1 0.99596190E+03</rscale>
<asrwt>0</asrwt>
<pdfrwt beam="1">  1       21 0.54175272E-01 0.11803697E+04</pdfrwt>
<pdfrwt beam="2">  1        4 0.40835842E+00 0.11803697E+04</pdfrwt>
<totfact> 0.74597047E-01</totfact>
</mgrwt>
</event>
<event>
 6    1  0.1412458E-005  0.9960485E+03  0.7818608E-02  0.1005761E+00
         21   -1    0    0  501  502  0.00000000000E+00  0.00000000000E+00  0.84709552064E+03  0.84709552064E+03  0.00000000000E+00 0.  1.
          4   -1    0    0  502    0 -0.00000000000E+00 -0.00000000000E+00 -0.44222280360E+03  0.44222280360E+03  0.00000000000E+00 0.  1.
    9000010    2    1    2  501    0  0.14648266470E+02 -0.79693118017E+02  0.53906125874E+03  0.11325632903E+04  0.99274719901E+03 0.  0.
        -13    1    3    3    0    0  0.20674649240E+03 -0.35492830781E+03 -0.89143573967E+02  0.42031512434E+03  0.10566000000E+00 0.  1.
          4    1    3    3  501    0 -0.19209822593E+03  0.27523518979E+03  0.62820483271E+03  0.71224816598E+03  0.00000000000E+00 0.  1.
         13    1    1    2    0    0 -0.14648266470E+02  0.79693118017E+02 -0.13418854170E+03  0.15675503391E+03  0.10566000000E+00 0. -1.
<mgrwt>
<rscale>  1 0.53194834E+03</rscale>
<asrwt>0</asrwt>
<pdfrwt beam="1">  1       21 0.13032239E+00 0.99604848E+03</pdfrwt>
<pdfrwt beam="2">  1        4 0.68034277E-01 0.99604848E+03</pdfrwt>
<totfact> 0.31447433E+01</totfact>
</mgrwt>
</event>
<event>
 6    1  0.1412458E-005  0.1286945E+04  0.7818608E-02  0.9161211E-01
         21   -1    0    0  501  502  0.00000000000E+00  0.00000000000E+00  0.47346387140E+03  0.47346387140E+03  0.00000000000E+00 0. -1.
          4   -1    0    0  502    0 -0.00000000000E+00 -0.00000000000E+00 -0.24109578216E+04  0.24109578216E+04  0.00000000000E+00 0.  1.
    9000010    2    1    2  501    0  0.80569184020E+03  0.83733165695E+02 -0.91070805990E+03  0.15765838361E+04  0.10000384179E+04 0.  0.
        -13    1    3    3    0    0  0.63029147287E+03  0.46503257752E+03 -0.84425782933E+03  0.11516483545E+04  0.10566000000E+00 0.  1.
          4    1    3    3  501    0  0.17540036733E+03 -0.38129941182E+03 -0.66450230566E+02  0.42493548152E+03  0.00000000000E+00 0.  1.
         13    1    1    2    0    0 -0.80569184020E+03 -0.83733165695E+02 -0.10267858903E+04  0.13078378570E+04  0.10566000000E+00 0. -1.
<mgrwt>
<rscale>  1 0.11462924E+04</rscale>
<asrwt>0</asrwt>
<pdfrwt beam="1">  1       21 0.72840596E-01 0.12869450E+04</pdfrwt>
<pdfrwt beam="2">  1        4 0.37091658E+00 0.12869450E+04</pdfrwt>
<totfact> 0.67930990E-01</totfact>
</mgrwt>
</event>
<event>
 6    1  0.1412458E-005  0.1070335E+04  0.7818608E-02  0.9518854E-01
          4   -1    0    0  502    0 -0.00000000000E+00  0.00000000000E+00  0.53336458403E+03  0.53336458403E+03  0.00000000000E+00 0.  1.
         21   -1    0    0  501  502  0.00000000000E+00 -0.00000000000E+00 -0.12420102718E+04  0.12420102718E+04  0.00000000000E+00 0.  1.
    9000010    2    1    2  501    0  0.27669918206E+03 -0.26816482751E+03 -0.84808111604E+03  0.13655980118E+04  0.99856974641E+03 0.  0.
        -13    1    3    3    0    0  0.40947701834E+03  0.28297557013E+03 -0.46691302976E+03  0.68246200654E+03  0.10566000000E+00 0.  1.
          4    1    3    3  501    0 -0.13277783628E+03 -0.55114039764E+03 -0.38116808627E+03  0.68313600528E+03  0.00000000000E+00 0.  1.
         13    1    1    2    0    0 -0.27669918206E+03  0.26816482751E+03  0.13943542827E+03  0.40977684401E+03  0.10566000000E+00 0. -1.
<mgrwt>
<rscale>  1 0.82907974E+03</rscale>
<asrwt>0</asrwt>
<pdfrwt beam="2">  1       21 0.19107850E+00 0.10703347E+04</pdfrwt>
<pdfrwt beam="1">  1        4 0.82056092E-01 0.10703347E+04</pdfrwt>
<totfact> 0.68329042E+00</totfact>
</mgrwt>
</event>
<event>
 6    1  0.1412458E-005  0.1129362E+04  0.7818608E-02  0.9371211E-01
          4   -1    0    0  502    0 -0.00000000000E+00  0.00000000000E+00  0.98908198498E+03  0.98908198498E+03  0.00000000000E+00 0.  1.
         21   -1    0    0  501  502  0.00000000000E+00 -0.00000000000E+00 -0.73696554899E+03  0.73696554899E+03  0.00000000000E+00 0. -1.
    9000010    2    1    2  501    0 -0.11443856621E+03  0.54128244779E+03  0.30627476253E+03  0.11701554498E+04  0.98456928290E+03 0.  0.
        -13    1    3    3    0    0  0.77471800948E+02 -0.24253306696E+03 -0.91408638185E+02  0.27051750186E+03  0.10566000000E+00 0.  1.
          4    1    3    3  501    0 -0.19191036716E+03  0.78381551475E+03  0.39768340072E+03  0.89963794795E+03  0.00000000000E+00 0.  1.
         13    1    1    2    0    0  0.11443856621E+03 -0.54128244779E+03 -0.54158326543E+02  0.55589208415E+03  0.10566000000E+00 0. -1.
<mgrwt>
<rscale>  1 0.94483276E+03</rscale>
<asrwt>0</asrwt>
<pdfrwt beam="2">  1       21 0.11337932E+00 0.11293625E+04</pdfrwt>
<pdfrwt beam="1">  1        4 0.15216646E+00 0.11293625E+04</pdfrwt>
<totfact> 0.62835931E+00</totfact>
</mgrwt>
</event>
<event>
 6    1  0.1412458E-005  0.1014014E+04  0.7818608E-02  0.9815965E-01
         21   -1    0    0  501  502  0.00000000000E+00  0.00000000000E+00  0.13652478788E+04  0.13652478788E+04  0.00000000000E+00 0.  1.
          4   -1    0    0  502    0 -0.00000000000E+00 -0.00000000000E+00 -0.25962038164E+03  0.25962038164E+03  0.00000000000E+00 0.  1.
    9000010    2    1    2  501    0  0.11978066496E+03 -0.11511713353E+03  0.86716334585E+03  0.13342404490E+04  0.10003129237E+04 0.  0.
        -13    1    3    3    0    0  0.23298738854E+03 -0.19843384582E+03 -0.12615957590E+03  0.33102169738E+03  0.10566000000E+00 0.  1.
          4    1    3    3  501    0 -0.11320672357E+03  0.83316712288E+02  0.99332292175E+03  0.10032187517E+04  0.00000000000E+00 0.  1.
         13    1    1    2    0    0 -0.11978066496E+03  0.11511713353E+03  0.23846415132E+03  0.29062781141E+03  0.10566000000E+00 0. -1.
<mgrwt>
<rscale>  1 0.64512752E+03</rscale>
<asrwt>0</asrwt>
<pdfrwt beam="1">  1       21 0.21003813E+00 0.10140145E+04</pdfrwt>
<pdfrwt beam="2">  1        4 0.39941598E-01 0.10140145E+04</pdfrwt>
<totfact> 0.24233776E+01</totfact>
</mgrwt>
</event>
<event>
 6    1  0.1412458E-005  0.9673946E+03  0.7818608E-02  0.9903982E-01
         21   -1    0    0  501  502  0.00000000000E+00  0.00000000000E+00  0.97495829631E+03  0.97495829631E+03  0.00000000000E+00 0.  1.
          4   -1    0    0  502    0 -0.00000000000E+00 -0.00000000000E+00 -0.37051394685E+03  0.37051394685E+03  0.00000000000E+00 0.  1.
    9000010    2    1    2  501    0 -0.11272755347E+03  0.89292379912E+02  0.68052538946E+03  0.11827793846E+04  0.95664603508E+03 0.  0.
        -13    1    3    3    0    0  0.64290241791E+02 -0.41033396207E+03  0.17631996544E+03  0.45121606465E+03  0.10566000000E+00 0.  1.
          4    1    3    3  501    0 -0.17701779526E+03  0.49962634198E+03  0.50420542402E+03  0.73156331992E+03  0.00000000000E+00 0.  1.
         13    1    1    2    0    0  0.11272755347E+03 -0.89292379912E+02 -0.76081040005E+02  0.16269285858E+03  0.10566000000E+00 0. -1.
<mgrwt>
<rscale>  1 0.60068701E+03</rscale>
<asrwt>0</asrwt>
<pdfrwt beam="1">  1       21 0.14999358E+00 0.96739458E+03</pdfrwt>
<pdfrwt beam="2">  1        4 0.57002146E-01 0.96739458E+03</pdfrwt>
<totfact> 0.31711878E+01</totfact>
</mgrwt>
</event>
<event>
 6    1  0.1412458E-005  0.9739745E+03  0.7818608E-02  0.1012177E+00
          4   -1    0    0  502    0 -0.00000000000E+00  0.00000000000E+00  0.74881925700E+03  0.74881925700E+03  0.00000000000E+00 0.  1.
         21   -1    0    0  501  502  0.00000000000E+00 -0.00000000000E+00 -0.37742298220E+03  0.37742298220E+03  0.00000000000E+00 0.  1.
    9000010    2    1    2  501    0  0.16115011085E+02 -0.69204201888E+02  0.28589130524E+03  0.10150665848E+04  0.97137913200E+03 0.  0.
        -13    1    3    3    0    0  0.42075774068E+03  0.21440760631E+03  0.20302247897E+03  0.51402902264E+03  0.10566000000E+00 0.  1.
          4    1    3    3  501    0 -0.40464272960E+03 -0.28361180820E+03  0.82868826277E+02  0.50103756220E+03  0.00000000000E+00 0.  1.
         13    1    1    2    0    0 -0.16115011085E+02  0.69204201888E+02  0.85504969556E+02  0.11117565437E+03  0.10566000000E+00 0. -1.
<mgrwt>
<rscale>  1 0.50618651E+03</rscale>
<asrwt>0</asrwt>
<pdfrwt beam="2">  1       21 0.58065074E-01 0.97397450E+03</pdfrwt>
<pdfrwt beam="1">  1        4 0.11520296E+00 0.97397450E+03</pdfrwt>
<totfact> 0.64101725E+01</totfact>
</mgrwt>
</event>
<event>
 6    1  0.1412458E-005  0.1021735E+04  0.7818608E-02  0.9710150E-01
          4   -1    0    0  502    0 -0.00000000000E+00  0.00000000000E+00  0.45476179000E+03  0.45476179000E+03  0.00000000000E+00 0.  1.
         21   -1    0    0  501  502  0.00000000000E+00 -0.00000000000E+00 -0.91858020337E+03  0.91858020337E+03  0.00000000000E+00 0.  1.
    9000010    2    1    2  501    0 -0.17761093074E+03  0.14690972318E+03 -0.50414710384E+03  0.11393451474E+04  0.99539688221E+03 0.  0.
        -13    1    3    3    0    0  0.94509875789E+01  0.11384086446E+03  0.29583215412E+03  0.31712101502E+03  0.10566000000E+00 0.  1.
          4    1    3    3  501    0 -0.18706191832E+03  0.33068858720E+02 -0.79997925796E+03  0.82222413238E+03  0.00000000000E+00 0.  1.
         13    1    1    2    0    0  0.17761093074E+03 -0.14690972318E+03  0.40328690464E+02  0.23399684597E+03  0.10566000000E+00 0. -1.
<mgrwt>
<rscale>  1 0.70415677E+03</rscale>
<asrwt>0</asrwt>
<pdfrwt beam="2">  1       21 0.14132003E+00 0.10217353E+04</pdfrwt>
<pdfrwt beam="1">  1        4 0.69963354E-01 0.10217353E+04</pdfrwt>
<totfact> 0.23690896E+01</totfact>
</mgrwt>
</event>
<event>
 6    1  0.1412458E-005  0.1036403E+04  0.7818608E-02  0.9704937E-01
          4   -1    0    0  502    0 -0.00000000000E+00  0.00000000000E+00  0.78448322579E+03  0.78448322579E+03  0.00000000000E+00 0.  1.
         21   -1    0    0  501  502  0.00000000000E+00 -0.00000000000E+00 -0.59235023153E+03  0.59235023153E+03  0.00000000000E+00 0.  1.
    9000010    2    1    2  501    0  0.14987157803E+03 -0.16746477815E+03 -0.61169492043E+02  0.10382066678E+04  0.10117437603E+04 0.  0.
        -13    1    3    3    0    0 -0.97295119913E+02  0.16155867344E+03 -0.44009581467E+03  0.47880255072E+03  0.10566000000E+00 0.  1.
          4    1    3    3  501    0  0.24716669795E+03 -0.32902345159E+03  0.37892632263E+03  0.55940411712E+03  0.00000000000E+00 0.  1.
         13    1    1    2    0    0 -0.14987157803E+03  0.16746477815E+03  0.25330248630E+03  0.33862678948E+03  0.10566000000E+00 0. -1.
<mgrwt>
<rscale>  1 0.70723598E+03</rscale>
<asrwt>0</asrwt>
<pdfrwt beam="2">  1       21 0.91130804E-01 0.10364031E+04</pdfrwt>
<pdfrwt beam="1">  1        4 0.12068973E+00 0.10364031E+04</pdfrwt>
<totfact> 0.20016586E+01</totfact>
</mgrwt>
</event>
<event>
 6    1  0.1412458E-005  0.1014215E+04  0.7818608E-02  0.9797603E-01
         21   -1    0    0  501  502  0.00000000000E+00  0.00000000000E+00  0.44486196040E+03  0.44486196040E+03  0.00000000000E+00 0.  1.
          4   -1    0    0  502    0 -0.00000000000E+00 -0.00000000000E+00 -0.87403708771E+03  0.87403708771E+03  0.00000000000E+00 0.  1.
    9000010    2    1    2  501    0 -0.17626425894E+03  0.50877721581E+01 -0.20678398371E+03  0.10350807853E+04  0.99876806202E+03 0.  0.
        -13    1    3    3    0    0  0.28444473079E+03 -0.23915191444E+03 -0.33254165079E+03  0.49868467365E+03  0.10566000000E+00 0.  1.
          4    1    3    3  501    0 -0.46070898973E+03  0.24423968660E+03  0.12575766708E+03  0.53639611162E+03  0.00000000000E+00 0.  1.
         13    1    1    2    0    0  0.17626425894E+03 -0.50877721581E+01 -0.22239114360E+03  0.28381826284E+03  0.10566000000E+00 0. -1.
<mgrwt>
<rscale>  1 0.65491344E+03</rscale>
<asrwt>0</asrwt>
<pdfrwt beam="1">  1       21 0.68440302E-01 0.10142153E+04</pdfrwt>
<pdfrwt beam="2">  1        4 0.13446724E+00 0.10142153E+04</pdfrwt>
<totfact> 0.29809807E+01</totfact>
</mgrwt>
</event>
<event>
 6    1  0.1412458E-005  0.1001689E+04  0.7818608E-02  0.1027317E+00
         21   -1    0    0  501  502  0.00000000000E+00  0.00000000000E+00  0.12766758101E+04  0.12766758101E+04  0.00000000000E+00 0.  1.
          4   -1    0    0  502    0 -0.00000000000E+00 -0.00000000000E+00 -0.22117586632E+03  0.22117586632E+03  0.00000000000E+00 0.  1.
    9000010    2    1    2  501    0  0.39307420030E+02 -0.12657013736E+02  0.10573793359E+04  0.14565138422E+04  0.10008377687E+04 0.  0.
        -13    1    3    3    0    0 -0.13879183177E+03  0.21526491915E+03  0.11296874643E+04  0.11583591568E+04  0.10566000000E+00 0.  1.
          4    1    3    3  501    0  0.17809925180E+03 -0.22792193289E+03 -0.72308128383E+02  0.29815468538E+03  0.00000000000E+00 0.  1.
         13    1    1    2    0    0 -0.39307420030E+02  0.12657013736E+02 -0.18793920843E+01  0.41337834302E+02  0.10566000000E+00 0. -1.
<mgrwt>
<rscale>  1 0.45136137E+03</rscale>
<asrwt>0</asrwt>
<pdfrwt beam="1">  1       21 0.19641166E+00 0.10016893E+04</pdfrwt>
<pdfrwt beam="2">  1        4 0.34027057E-01 0.10016893E+04</pdfrwt>
<totfact> 0.41526343E+01</totfact>
</mgrwt>
</event>
