<event>
 8    1  0.3025584E-006  0.2079351E+04  0.7818608E-02  0.8153555E-01
          4   -1    0    0  502    0  0.00000000000E+00  0.00000000000E+00  0.23011433124E+04  0.23011433124E+04  0.00000000000E+00 0.  1.
         -4   -1    0    0    0  501 -0.00000000000E+00 -0.00000000000E+00 -0.18038849541E+04  0.18038849541E+04  0.00000000000E+00 0. -1.
   -9000010    2    1    2    0  501  0.17068049740E+04  0.23655887518E+03  0.22093317966E+03  0.20073967006E+04  0.10058263881E+04 0.  0.
    9000010    2    1    2  502    0 -0.17068049740E+04 -0.23655887518E+03  0.27632517864E+03  0.20976315659E+04  0.11638553438E+04 0.  0.
        -13    1    4    4    0    0 -0.44524299077E+03 -0.45705119126E+03 -0.28562109202E+03  0.69908263576E+03  0.10566000000E+00 0.  1.
          4    1    4    4  502    0 -0.12615619832E+04  0.22049231608E+03  0.56194627066E+03  0.13985489302E+04  0.00000000000E+00 0.  1.
         13    1    3    3    0    0 -0.36389424931E+02 -0.17235237895E+03  0.12176362256E+03  0.21413996292E+03  0.10566000000E+00 0. -1.
         -4    1    3    3    0  501  0.17431943989E+04  0.40891125413E+03  0.99169557105E+02  0.17932567377E+04  0.00000000000E+00 0. -1.
<mgrwt>
<rscale>  0 0.20368421E+04</rscale>
<asrwt>0</asrwt>
<pdfrwt beam="1">  1        4 0.35402205E+00 0.20793515E+04</pdfrwt>
<pdfrwt beam="2">  1       -4 0.27752076E+00 0.19952018E+04</pdfrwt>
<totfact> 0.41898850E-02</totfact>
</mgrwt>
</event>
<event>
 8    1  0.3025584E-006  0.1811855E+04  0.7818608E-02  0.8251373E-01
         -4   -1    0    0    0  501 -0.00000000000E+00  0.00000000000E+00  0.36252713940E+04  0.36252713940E+04  0.00000000000E+00 0. -1.
          4   -1    0    0  502    0  0.00000000000E+00 -0.00000000000E+00 -0.99513204009E+03  0.99513204009E+03  0.00000000000E+00 0.  1.
   -9000010    2    1    2    0  501 -0.14912765198E+04 -0.21346272095E+03  0.20203428130E+04  0.27086844536E+04  0.99283150381E+03 0.  0.
    9000010    2    1    2  502    0  0.14912765198E+04  0.21346272095E+03  0.60979654088E+03  0.19117189805E+04  0.10066507078E+04 0.  0.
        -13    1    4    4    0    0  0.54741934144E+02  0.27343187618E+03 -0.11492395061E+03  0.30161100089E+03  0.10566000000E+00 0.  1.
          4    1    4    4  502    0  0.14365345857E+04 -0.59969155235E+02  0.72472049149E+03  0.16101079797E+04  0.00000000000E+00 0.  1.
         13    1    3    3    0    0 -0.86378250296E+03  0.26432509549E+03  0.60115279926E+03  0.10850680475E+04  0.10566000000E+00 0. -1.
         -4    1    3    3    0  501 -0.62749401684E+03 -0.47778781644E+03  0.14191900138E+04  0.16236164060E+04  0.00000000000E+00 0. -1.
<mgrwt>
<rscale>  0 0.18080301E+04</rscale>
<asrwt>0</asrwt>
<pdfrwt beam="2">  1        4 0.15309724E+00 0.18118548E+04</pdfrwt>
<pdfrwt beam="1">  1       -4 0.55773405E+00 0.18042135E+04</pdfrwt>
<totfact> 0.11999673E-02</totfact>
</mgrwt>
</event>
<event>
 8    1  0.3025584E-006  0.1023724E+04  0.7818608E-02  0.8761347E-01
          4   -1    0    0  502    0  0.00000000000E+00  0.00000000000E+00  0.27341789063E+04  0.27341789063E+04  0.00000000000E+00 0.  1.
         -4   -1    0    0    0  501 -0.00000000000E+00 -0.00000000000E+00 -0.11869624102E+04  0.11869624102E+04  0.00000000000E+00 0. -1.
   -9000010    2    1    2    0  501  0.19027718104E+02 -0.21326690817E+03 -0.84896788800E+03  0.13154340247E+04  0.98172061723E+03 0.  0.
    9000010    2    1    2  502    0 -0.19027718104E+02  0.21326690817E+03  0.23961843841E+04  0.26057072918E+04  0.10010824440E+04 0.  0.
        -13    1    4    4    0    0 -0.40278267139E+03  0.37046871317E+03  0.17858154331E+04  0.18677841739E+04  0.10566000000E+00 0.  1.
          4    1    4    4  502    0  0.38375495329E+03 -0.15720180500E+03  0.61036895101E+03  0.73792311797E+03  0.00000000000E+00 0.  1.
         13    1    3    3    0    0 -0.92720359594E+02 -0.12746622359E+03  0.20135063007E+03  0.25570840939E+03  0.10566000000E+00 0. -1.
         -4    1    3    3    0  501  0.11174807770E+03 -0.85800684585E+02 -0.10503185181E+04  0.10597256153E+04  0.00000000000E+00 0. -1.
<mgrwt>
<rscale>  0 0.10142172E+04</rscale>
<asrwt>0</asrwt>
<pdfrwt beam="1">  1        4 0.42064291E+00 0.10237240E+04</pdfrwt>
<pdfrwt beam="2">  1       -4 0.18260960E+00 0.10047986E+04</pdfrwt>
<totfact> 0.44761224E-02</totfact>
</mgrwt>
</event>
<event>
 8    1  0.3025584E-006  0.1062998E+04  0.7818608E-02  0.8814888E-01
          4   -1    0    0  502    0  0.00000000000E+00  0.00000000000E+00  0.85831826771E+03  0.85831826771E+03  0.00000000000E+00 0.  1.
         -4   -1    0    0    0  501 -0.00000000000E+00 -0.00000000000E+00 -0.16749636088E+04  0.16749636088E+04  0.00000000000E+00 0. -1.
   -9000010    2    1    2    0  501  0.22375629258E+03 -0.42536190578E+02 -0.11870807143E+04  0.15934633467E+04  0.10383104589E+04 0.  0.
    9000010    2    1    2  502    0 -0.22375629258E+03  0.42536190578E+02  0.37043537312E+03  0.93981852987E+03  0.83316282769E+03 0.  0.
        -13    1    4    4    0    0  0.30947161880E+03  0.10399960181E+03  0.12470222515E+03  0.34948427166E+03  0.10566000000E+00 0.  1.
          4    1    4    4  502    0 -0.53322791139E+03 -0.61463411227E+02  0.24573314798E+03  0.59033425821E+03  0.00000000000E+00 0.  1.
         13    1    3    3    0    0  0.28754176306E+03 -0.49841507106E+03 -0.47790921363E+03  0.74799403487E+03  0.10566000000E+00 0. -1.
         -4    1    3    3    0  501 -0.63785470474E+02  0.45587888048E+03 -0.70917150062E+03  0.84546931181E+03  0.00000000000E+00 0. -1.
<mgrwt>
<rscale>  0 0.95820018E+03</rscale>
<asrwt>0</asrwt>
<pdfrwt beam="1">  1        4 0.13204897E+00 0.86373405E+03</pdfrwt>
<pdfrwt beam="2">  1       -4 0.25768671E+00 0.10629980E+04</pdfrwt>
<totfact> 0.23555994E-01</totfact>
</mgrwt>
</event>
<event>
 8    1  0.3025584E-006  0.1312034E+04  0.7818608E-02  0.8538493E-01
         -4   -1    0    0    0  501 -0.00000000000E+00  0.00000000000E+00  0.24790711077E+04  0.24790711077E+04  0.00000000000E+00 0. -1.
          4   -1    0    0  502    0  0.00000000000E+00 -0.00000000000E+00 -0.12284410523E+04  0.12284410523E+04  0.00000000000E+00 0.  1.
   -9000010    2    1    2    0  501  0.28333287888E+03 -0.77127077613E+03  0.18635264399E+04  0.22593835871E+04  0.97823681742E+03 0.  0.
    9000010    2    1    2  502    0 -0.28333287888E+03  0.77127077613E+03 -0.61289638452E+03  0.14481285730E+04  0.10228872153E+04 0.  0.
        -13    1    4    4    0    0 -0.57135046214E+03  0.18102219210E+03 -0.50254459822E+03  0.78215181965E+03  0.10566000000E+00 0.  1.
          4    1    4    4  502    0  0.28801758326E+03  0.59024858404E+03 -0.11035178631E+03  0.66597675332E+03  0.00000000000E+00 0.  1.
         13    1    3    3    0    0  0.17260061518E+03  0.17564458277E+03  0.77101611447E+03  0.80938733110E+03  0.10566000000E+00 0. -1.
         -4    1    3    3    0  501  0.11073226369E+03 -0.94691535890E+03  0.10925103255E+04  0.14499962560E+04  0.00000000000E+00 0. -1.
<mgrwt>
<rscale>  0 0.12946674E+04</rscale>
<asrwt>0</asrwt>
<pdfrwt beam="2">  1        4 0.18899093E+00 0.13120344E+04</pdfrwt>
<pdfrwt beam="1">  1       -4 0.38139556E+00 0.12775302E+04</pdfrwt>
<totfact> 0.59626312E-02</totfact>
</mgrwt>
</event>
<event>
 8    1  0.3025584E-006  0.1331874E+04  0.7818608E-02  0.8516459E-01
         -4   -1    0    0    0  501 -0.00000000000E+00  0.00000000000E+00  0.20475548925E+04  0.20475548925E+04  0.00000000000E+00 0. -1.
          4   -1    0    0  502    0  0.00000000000E+00 -0.00000000000E+00 -0.86051883217E+03  0.86051883217E+03  0.00000000000E+00 0.  1.
   -9000010    2    1    2    0  501 -0.28612838424E+03  0.82202724964E+03  0.56940296353E+03  0.14399598859E+04  0.99582452601E+03 0.  0.
    9000010    2    1    2  502    0  0.28612838424E+03 -0.82202724964E+03  0.61763309684E+03  0.14681138388E+04  0.10081117746E+04 0.  0.
        -13    1    4    4    0    0 -0.20653908132E+03  0.11151192127E+03 -0.18897822514E+02  0.23547917011E+03  0.10566000000E+00 0.  1.
          4    1    4    4  502    0  0.49266746557E+03 -0.93353917091E+03  0.63653091936E+03  0.12326346687E+04  0.00000000000E+00 0.  1.
         13    1    3    3    0    0  0.61316293234E+01  0.13412393102E+02  0.57989794647E+03  0.58008544944E+03  0.10566000000E+00 0. -1.
         -4    1    3    3    0  501 -0.29226001357E+03  0.80861485654E+03 -0.10494982942E+02  0.85987443642E+03  0.00000000000E+00 0. -1.
<mgrwt>
<rscale>  0 0.13272276E+04</rscale>
<asrwt>0</asrwt>
<pdfrwt beam="2">  1        4 0.13238751E+00 0.13318737E+04</pdfrwt>
<pdfrwt beam="1">  1       -4 0.31500845E+00 0.13225977E+04</pdfrwt>
<totfact> 0.16524289E-01</totfact>
</mgrwt>
</event>
<event>
 8    1  0.3025584E-006  0.1272622E+04  0.7818608E-02  0.8565958E-01
         -4   -1    0    0    0  501 -0.00000000000E+00  0.00000000000E+00  0.12899345092E+04  0.12899345092E+04  0.00000000000E+00 0. -1.
          4   -1    0    0  502    0  0.00000000000E+00 -0.00000000000E+00 -0.17308906555E+04  0.17308906555E+04  0.00000000000E+00 0.  1.
   -9000010    2    1    2    0  501 -0.52503563390E+02  0.81289904864E+03  0.60052058047E+03  0.13763677212E+04  0.93284599426E+03 0.  0.
    9000010    2    1    2  502    0  0.52503563390E+02 -0.81289904864E+03 -0.10414767267E+04  0.16444574435E+04  0.97775509395E+03 0.  0.
        -13    1    4    4    0    0  0.41448317180E+03 -0.17086030057E+03 -0.11928783977E+03  0.46391717137E+03  0.10566000000E+00 0.  1.
          4    1    4    4  502    0 -0.36197960841E+03 -0.64203874807E+03 -0.92218888691E+03  0.11805402721E+04  0.00000000000E+00 0.  1.
         13    1    3    3    0    0  0.31480655194E+03  0.63040532694E+03  0.65569913765E+03  0.96252553819E+03  0.10566000000E+00 0. -1.
         -4    1    3    3    0  501 -0.36731011533E+03  0.18249372169E+03 -0.55178557182E+02  0.41384218303E+03  0.00000000000E+00 0. -1.
<mgrwt>
<rscale>  0 0.12554207E+04</rscale>
<asrwt>0</asrwt>
<pdfrwt beam="2">  1        4 0.26629087E+00 0.12726219E+04</pdfrwt>
<pdfrwt beam="1">  1       -4 0.19845146E+00 0.12384519E+04</pdfrwt>
<totfact> 0.12477754E-01</totfact>
</mgrwt>
</event>
<event>
 8    1  0.3025584E-006  0.1620404E+04  0.7818608E-02  0.8344991E-01
          4   -1    0    0  502    0  0.00000000000E+00  0.00000000000E+00  0.73130427641E+03  0.73130427641E+03  0.00000000000E+00 0.  1.
         -4   -1    0    0    0  501 -0.00000000000E+00 -0.00000000000E+00 -0.35769417859E+04  0.35769417859E+04  0.00000000000E+00 0. -1.
   -9000010    2    1    2    0  501 -0.25691579060E+03 -0.12477238380E+04 -0.14230350992E+04  0.21565566300E+04  0.10014425123E+04 0.  0.
    9000010    2    1    2  502    0  0.25691579060E+03  0.12477238380E+04 -0.14226024103E+04  0.21516894323E+04  0.99153885252E+03 0.  0.
        -13    1    4    4    0    0  0.97248598301E+02  0.12964536776E+04 -0.14847965188E+04  0.19735425359E+04  0.10566000000E+00 0.  1.
          4    1    4    4  502    0  0.15966719230E+03 -0.48729839567E+02  0.62194108460E+02  0.17814689638E+03  0.00000000000E+00 0.  1.
         13    1    3    3    0    0 -0.30074786055E+03 -0.16407921032E+03  0.29436035829E+02  0.34385717130E+03  0.10566000000E+00 0. -1.
         -4    1    3    3    0  501  0.43832069946E+02 -0.10836446277E+04 -0.14524711350E+04  0.18126994587E+04  0.00000000000E+00 0. -1.
<mgrwt>
<rscale>  0 0.16173497E+04</rscale>
<asrwt>0</asrwt>
<pdfrwt beam="1">  1        4 0.11250835E+00 0.16143016E+04</pdfrwt>
<pdfrwt beam="2">  1       -4 0.55029875E+00 0.16204035E+04</pdfrwt>
<totfact> 0.22002029E-02</totfact>
</mgrwt>
</event>
<event>
 8    1  0.3025584E-006  0.1086674E+04  0.7818608E-02  0.8700317E-01
         -4   -1    0    0    0  501 -0.00000000000E+00  0.00000000000E+00  0.24779804973E+04  0.24779804973E+04  0.00000000000E+00 0. -1.
          4   -1    0    0  502    0  0.00000000000E+00 -0.00000000000E+00 -0.88494034209E+03  0.88494034209E+03  0.00000000000E+00 0.  1.
   -9000010    2    1    2    0  501 -0.38611366117E+03  0.10192376660E+03  0.19447666865E+04  0.22277739988E+04  0.10106370820E+04 0.  0.
    9000010    2    1    2  502    0  0.38611366117E+03 -0.10192376660E+03 -0.35172653125E+03  0.11351468405E+04  0.10026836905E+04 0.  0.
        -13    1    4    4    0    0 -0.14887186533E+03  0.34895333322E+03 -0.13548165527E+03  0.40284804968E+03  0.10566000000E+00 0.  1.
          4    1    4    4  502    0  0.53498552650E+03 -0.45087709982E+03 -0.21624487599E+03  0.73229879087E+03  0.00000000000E+00 0.  1.
         13    1    3    3    0    0  0.94628223064E+02  0.28423291539E+02  0.16625668406E+04  0.16655001936E+04  0.10566000000E+00 0. -1.
         -4    1    3    3    0  501 -0.48074188423E+03  0.73500475062E+02  0.28219984583E+03  0.56227380526E+03  0.00000000000E+00 0. -1.
<mgrwt>
<rscale>  0 0.10829708E+04</rscale>
<asrwt>0</asrwt>
<pdfrwt beam="2">  1        4 0.13614467E+00 0.10792807E+04</pdfrwt>
<pdfrwt beam="1">  1       -4 0.38122777E+00 0.10866736E+04</pdfrwt>
<totfact> 0.97249879E-02</totfact>
</mgrwt>
</event>
<event>
 8    1  0.3025584E-006  0.1159212E+04  0.7818608E-02  0.8655400E-01
          4   -1    0    0  502    0  0.00000000000E+00  0.00000000000E+00  0.16169264044E+04  0.16169264044E+04  0.00000000000E+00 0.  1.
         -4   -1    0    0    0  501 -0.00000000000E+00 -0.00000000000E+00 -0.10619111946E+04  0.10619111946E+04  0.00000000000E+00 0. -1.
   -9000010    2    1    2    0  501 -0.83793472190E+02  0.51051505547E+03 -0.38343588754E+03  0.12209810005E+04  0.10373642350E+04 0.  0.
    9000010    2    1    2  502    0  0.83793472190E+02 -0.51051505547E+03  0.93845109735E+03  0.14578565984E+04  0.98843736851E+03 0.  0.
        -13    1    4    4    0    0  0.22421401728E+03 -0.24149620128E+03 -0.12462809650E+03  0.35231309141E+03  0.10566000000E+00 0.  1.
          4    1    4    4  502    0 -0.14042054509E+03 -0.26901885419E+03  0.10630791939E+04  0.11055435070E+04  0.00000000000E+00 0.  1.
         13    1    3    3    0    0 -0.42292590539E+03  0.32173410022E+03 -0.57939846462E+03  0.78618175040E+03  0.10566000000E+00 0. -1.
         -4    1    3    3    0  501  0.33913243320E+03  0.18878095524E+03  0.19596257708E+03  0.43479925014E+03  0.00000000000E+00 0. -1.
<mgrwt>
<rscale>  0 0.11372178E+04</rscale>
<asrwt>0</asrwt>
<pdfrwt beam="1">  1        4 0.24875791E+00 0.11156413E+04</pdfrwt>
<pdfrwt beam="2">  1       -4 0.16337095E+00 0.11592116E+04</pdfrwt>
<totfact> 0.18022362E-01</totfact>
</mgrwt>
</event>
<event>
 8    1  0.3025584E-006  0.1570076E+04  0.7818608E-02  0.8372337E-01
         -4   -1    0    0    0  501 -0.00000000000E+00  0.00000000000E+00  0.26078960060E+04  0.26078960060E+04  0.00000000000E+00 0. -1.
          4   -1    0    0  502    0  0.00000000000E+00 -0.00000000000E+00 -0.26207918780E+04  0.26207918780E+04  0.00000000000E+00 0.  1.
   -9000010    2    1    2    0  501 -0.10998375641E+04  0.49540300426E+03  0.20867566408E+04  0.26069176094E+04  0.99317638941E+03 0.  0.
    9000010    2    1    2  502    0  0.10998375641E+04 -0.49540300426E+03 -0.20996525128E+04  0.26217702746E+04  0.10050233303E+04 0.  0.
        -13    1    4    4    0    0  0.48924161255E+03 -0.26986175869E+03 -0.16807553301E+03  0.58346561185E+03  0.10566000000E+00 0.  1.
          4    1    4    4  502    0  0.61059595152E+03 -0.22554124557E+03 -0.19315769798E+04  0.20383046628E+04  0.00000000000E+00 0.  1.
         13    1    3    3    0    0 -0.86498496884E+01  0.45386525840E+02  0.10043596482E+04  0.10054218372E+04  0.10566000000E+00 0. -1.
         -4    1    3    3    0  501 -0.10911877144E+04  0.45001647842E+03  0.10823969926E+04  0.16014957722E+04  0.00000000000E+00 0. -1.
<mgrwt>
<rscale>  0 0.15662930E+04</rscale>
<asrwt>0</asrwt>
<pdfrwt beam="2">  1        4 0.40319875E+00 0.15700760E+04</pdfrwt>
<pdfrwt beam="1">  1       -4 0.40121477E+00 0.15625192E+04</pdfrwt>
<totfact> 0.11207187E-02</totfact>
</mgrwt>
</event>
<event>
 8    1  0.3025584E-006  0.1062968E+04  0.7818608E-02  0.8718063E-01
         -4   -1    0    0    0  501 -0.00000000000E+00  0.00000000000E+00  0.18005889113E+04  0.18005889113E+04  0.00000000000E+00 0. -1.
          4   -1    0    0  502    0  0.00000000000E+00 -0.00000000000E+00 -0.64488129015E+03  0.64488129015E+03  0.00000000000E+00 0.  1.
   -9000010    2    1    2    0  501 -0.17495402048E+03  0.32031662964E+03  0.78255197007E+03  0.13199577750E+04  0.99834327230E+03 0.  0.
    9000010    2    1    2  502    0  0.17495402048E+03 -0.32031662964E+03  0.37315565108E+03  0.11255124265E+04  0.99715667260E+03 0.  0.
        -13    1    4    4    0    0  0.46370495974E+03 -0.11247689649E+03  0.55006747836E+03  0.72818101036E+03  0.10566000000E+00 0.  1.
          4    1    4    4  502    0 -0.28875093926E+03 -0.20783973315E+03 -0.17691182729E+03  0.39733141612E+03  0.00000000000E+00 0.  1.
         13    1    3    3    0    0 -0.36568661893E+02 -0.12332495075E+03 -0.19727587665E+03  0.23550815949E+03  0.10566000000E+00 0. -1.
         -4    1    3    3    0  501 -0.13838535859E+03  0.44364158039E+03  0.97982784672E+03  0.10844496155E+04  0.00000000000E+00 0. -1.
<mgrwt>
<rscale>  0 0.10624107E+04</rscale>
<asrwt>0</asrwt>
<pdfrwt beam="2">  1        4 0.99212507E-01 0.10618536E+04</pdfrwt>
<pdfrwt beam="1">  1       -4 0.27701368E+00 0.10629680E+04</pdfrwt>
<totfact> 0.35023363E-01</totfact>
</mgrwt>
</event>
<event>
 8    1  0.3025584E-006  0.1104389E+04  0.7818608E-02  0.8686644E-01
          4   -1    0    0  502    0  0.00000000000E+00  0.00000000000E+00  0.16194417968E+04  0.16194417968E+04  0.00000000000E+00 0.  1.
         -4   -1    0    0    0  501 -0.00000000000E+00 -0.00000000000E+00 -0.16835837219E+04  0.16835837219E+04  0.00000000000E+00 0. -1.
   -9000010    2    1    2    0  501 -0.45242070944E+02  0.45959117257E+03 -0.12645674633E+04  0.16789302244E+04  0.10031973576E+04 0.  0.
    9000010    2    1    2  502    0  0.45242070944E+02 -0.45959117257E+03  0.12004255382E+04  0.16240952943E+04  0.99166181807E+03 0.  0.
        -13    1    4    4    0    0 -0.25302234351E+03  0.17378545820E+03  0.69759019016E+03  0.76213763611E+03  0.10566000000E+00 0.  1.
          4    1    4    4  502    0  0.29826441446E+03 -0.63337663077E+03  0.50283534806E+03  0.86195765824E+03  0.00000000000E+00 0.  1.
         13    1    3    3    0    0  0.22429587577E+03  0.20689121994E+03 -0.12733041143E+04  0.13093570924E+04  0.10566000000E+00 0. -1.
         -4    1    3    3    0  501 -0.26953794671E+03  0.25269995263E+03  0.87366510640E+01  0.36957313194E+03  0.00000000000E+00 0. -1.
<mgrwt>
<rscale>  0 0.10991429E+04</rscale>
<asrwt>0</asrwt>
<pdfrwt beam="1">  1        4 0.24914489E+00 0.10939214E+04</pdfrwt>
<pdfrwt beam="2">  1       -4 0.25901288E+00 0.11043893E+04</pdfrwt>
<totfact> 0.97392599E-02</totfact>
</mgrwt>
</event>
<event>
 8    1  0.3025584E-006  0.1139212E+04  0.7818608E-02  0.8664625E-01
         -4   -1    0    0    0  501 -0.00000000000E+00  0.00000000000E+00  0.24444015850E+04  0.24444015850E+04  0.00000000000E+00 0. -1.
          4   -1    0    0  502    0  0.00000000000E+00 -0.00000000000E+00 -0.21785529934E+04  0.21785529934E+04  0.00000000000E+00 0.  1.
   -9000010    2    1    2    0  501  0.45992189973E+03  0.28647332362E+03  0.21502110116E+04  0.24209948766E+04  0.97170658063E+03 0.  0.
    9000010    2    1    2  502    0 -0.45992189973E+03 -0.28647332362E+03 -0.18843624200E+04  0.22019597018E+04  0.10021026292E+04 0.  0.
        -13    1    4    4    0    0 -0.76204298348E+03 -0.72849388952E+02 -0.13511286573E+04  0.15529215054E+04  0.10566000000E+00 0.  1.
          4    1    4    4  502    0  0.30212108375E+03 -0.21362393467E+03 -0.53323376270E+03  0.64903819640E+03  0.00000000000E+00 0.  1.
         13    1    3    3    0    0 -0.30297207798E+03  0.93444061991E+02  0.76053838680E+03  0.82397968526E+03  0.10566000000E+00 0. -1.
         -4    1    3    3    0  501  0.76289397771E+03  0.19302926163E+03  0.13896726248E+04  0.15970151913E+04  0.00000000000E+00 0. -1.
<mgrwt>
<rscale>  0 0.11258116E+04</rscale>
<asrwt>0</asrwt>
<pdfrwt beam="2">  1        4 0.33516200E+00 0.11392124E+04</pdfrwt>
<pdfrwt beam="1">  1       -4 0.37606178E+00 0.11125686E+04</pdfrwt>
<totfact> 0.26329401E-02</totfact>
</mgrwt>
</event>
<event>
 8    1  0.3025584E-006  0.1099837E+04  0.7818608E-02  0.8738181E-01
          4   -1    0    0  502    0  0.00000000000E+00  0.00000000000E+00  0.15551401780E+04  0.15551401780E+04  0.00000000000E+00 0.  1.
         -4   -1    0    0    0  501 -0.00000000000E+00 -0.00000000000E+00 -0.72565648504E+03  0.72565648504E+03  0.00000000000E+00 0. -1.
   -9000010    2    1    2    0  501  0.16454551820E+03 -0.44847261227E+03  0.21191790765E+03  0.11200672971E+04  0.99067584953E+03 0.  0.
    9000010    2    1    2  502    0 -0.16454551820E+03  0.44847261227E+03  0.61756578531E+03  0.11607293660E+04  0.85889594850E+03 0.  0.
        -13    1    4    4    0    0 -0.25211054304E+03  0.61910051028E+03  0.68530410231E+03  0.95733321866E+03  0.10566000000E+00 0.  1.
          4    1    4    4  502    0  0.87565024839E+02 -0.17062789801E+03 -0.67738317003E+02  0.20339614732E+03  0.00000000000E+00 0.  1.
         13    1    3    3    0    0 -0.28494151363E+03  0.33376171267E+02  0.34408135232E+03  0.44799288295E+03  0.10566000000E+00 0. -1.
         -4    1    3    3    0  501  0.44948703183E+03 -0.48184878354E+03 -0.13216344467E+03  0.67207441410E+03  0.00000000000E+00 0. -1.
<mgrwt>
<rscale>  0 0.10396755E+04</rscale>
<asrwt>0</asrwt>
<pdfrwt beam="1">  1        4 0.23925233E+00 0.98280474E+03</pdfrwt>
<pdfrwt beam="2">  1       -4 0.11163946E+00 0.10998371E+04</pdfrwt>
<totfact> 0.34682714E-01</totfact>
</mgrwt>
</event>
<event>
 8    1  0.3025584E-006  0.1127579E+04  0.7818608E-02  0.8667798E-01
          4   -1    0    0  502    0  0.00000000000E+00  0.00000000000E+00  0.33880170351E+04  0.33880170351E+04  0.00000000000E+00 0.  1.
         -4   -1    0    0    0  501 -0.00000000000E+00 -0.00000000000E+00 -0.13108013016E+04  0.13108013016E+04  0.00000000000E+00 0. -1.
   -9000010    2    1    2    0  501  0.38666008819E+03  0.30069832617E+03 -0.94868336696E+03  0.14735784505E+04  0.10156317305E+04 0.  0.
    9000010    2    1    2  502    0 -0.38666008819E+03 -0.30069832617E+03  0.30258991005E+04  0.32252398862E+04  0.10030859634E+04 0.  0.
        -13    1    4    4    0    0 -0.39758956456E+03 -0.14614540364E+03  0.36305862286E+03  0.55789561358E+03  0.10566000000E+00 0.  1.
          4    1    4    4  502    0  0.10929476369E+02 -0.15455292253E+03  0.26628404776E+04  0.26673442726E+04  0.00000000000E+00 0.  1.
         13    1    3    3    0    0  0.57176921249E+03  0.56033092489E+02 -0.10088215620E+04  0.11609395742E+04  0.10566000000E+00 0. -1.
         -4    1    3    3    0  501 -0.18510912429E+03  0.24466523368E+03  0.60138195084E+02  0.31263887631E+03  0.00000000000E+00 0. -1.
<mgrwt>
<rscale>  0 0.11219209E+04</rscale>
<asrwt>0</asrwt>
<pdfrwt beam="1">  1        4 0.52123339E+00 0.11162916E+04</pdfrwt>
<pdfrwt beam="2">  1       -4 0.20166174E+00 0.11275785E+04</pdfrwt>
<totfact> 0.13300471E-02</totfact>
</mgrwt>
</event>
<event>
 8    1  0.3025584E-006  0.1048000E+04  0.7818608E-02  0.8734262E-01
          4   -1    0    0  502    0  0.00000000000E+00  0.00000000000E+00  0.22998324426E+04  0.22998324426E+04  0.00000000000E+00 0.  1.
         -4   -1    0    0    0  501 -0.00000000000E+00 -0.00000000000E+00 -0.73962104237E+03  0.73962104237E+03  0.00000000000E+00 0. -1.
   -9000010    2    1    2    0  501 -0.18196204001E+03 -0.25770098815E+03 -0.12877727821E+03  0.10558827945E+04  0.99939226786E+03 0.  0.
    9000010    2    1    2  502    0  0.18196204001E+03  0.25770098815E+03  0.16889886785E+04  0.19835706905E+04  0.99113568442E+03 0.  0.
        -13    1    4    4    0    0  0.43406149330E+03  0.69559026685E+01  0.24926582714E+03  0.50059087915E+03  0.10566000000E+00 0.  1.
          4    1    4    4  502    0 -0.25209945328E+03  0.25074508548E+03  0.14397228513E+04  0.14829798113E+04  0.00000000000E+00 0.  1.
         13    1    3    3    0    0  0.22040153023E+03 -0.14035238134E+03 -0.45504850159E+03  0.52473305160E+03  0.10566000000E+00 0. -1.
         -4    1    3    3    0  501 -0.40236357024E+03 -0.11734860682E+03  0.32627122339E+03  0.53114974291E+03  0.00000000000E+00 0. -1.
<mgrwt>
<rscale>  0 0.10440577E+04</rscale>
<asrwt>0</asrwt>
<pdfrwt beam="1">  1        4 0.35382037E+00 0.10401298E+04</pdfrwt>
<pdfrwt beam="2">  1       -4 0.11378785E+00 0.10480004E+04</pdfrwt>
<totfact> 0.16511638E-01</totfact>
</mgrwt>
</event>
<event>
 8    1  0.3025584E-006  0.1647186E+04  0.7818608E-02  0.8331587E-01
          4   -1    0    0  502    0  0.00000000000E+00  0.00000000000E+00  0.11704035231E+04  0.11704035231E+04  0.00000000000E+00 0.  1.
         -4   -1    0    0    0  501 -0.00000000000E+00 -0.00000000000E+00 -0.26884246147E+04  0.26884246147E+04  0.00000000000E+00 0. -1.
   -9000010    2    1    2    0  501 -0.68217723334E+03  0.11134603681E+04 -0.14876082568E+04  0.22195043799E+04  0.10040227077E+04 0.  0.
    9000010    2    1    2  502    0  0.68217723334E+03 -0.11134603681E+04 -0.30412834833E+02  0.16393237579E+04  0.99060470095E+03 0.  0.
        -13    1    4    4    0    0  0.55823737271E+03 -0.79164339072E+02 -0.16862725346E+03  0.58849903878E+03  0.10566000000E+00 0.  1.
          4    1    4    4  502    0  0.12393986063E+03 -0.10342960290E+04  0.13821441862E+03  0.10508247191E+04  0.00000000000E+00 0.  1.
         13    1    3    3    0    0 -0.18037559305E+03  0.15915702395E+03  0.13157637003E+03  0.27418728117E+03  0.10566000000E+00 0. -1.
         -4    1    3    3    0  501 -0.50180164029E+03  0.95430334414E+03 -0.16191846268E+04  0.19453170987E+04  0.00000000000E+00 0. -1.
<mgrwt>
<rscale>  0 0.16431087E+04</rscale>
<asrwt>0</asrwt>
<pdfrwt beam="1">  1        4 0.18006208E+00 0.16390416E+04</pdfrwt>
<pdfrwt beam="2">  1       -4 0.41360378E+00 0.16471859E+04</pdfrwt>
<totfact> 0.46102558E-02</totfact>
</mgrwt>
</event>
<event>
 8    1  0.3025584E-006  0.1039154E+04  0.7818608E-02  0.8747928E-01
         -4   -1    0    0    0  501 -0.00000000000E+00  0.00000000000E+00  0.87448023794E+03  0.87448023794E+03  0.00000000000E+00 0. -1.
          4   -1    0    0  502    0  0.00000000000E+00 -0.00000000000E+00 -0.34599026976E+04  0.34599026976E+04  0.00000000000E+00 0.  1.
   -9000010    2    1    2    0  501 -0.12216693560E+03  0.21485856991E+03  0.45013261704E+03  0.11324578977E+04  0.10093327261E+04 0.  0.
    9000010    2    1    2  502    0  0.12216693560E+03 -0.21485856991E+03 -0.30355550767E+04  0.32019250378E+04  0.98825116189E+03 0.  0.
        -13    1    4    4    0    0 -0.29419244370E+03  0.18483109360E+03 -0.18618685599E+04  0.18940079917E+04  0.10566000000E+00 0.  1.
          4    1    4    4  502    0  0.41635937930E+03 -0.39968966351E+03 -0.11736865168E+04  0.13079170461E+04  0.00000000000E+00 0.  1.
         13    1    3    3    0    0 -0.50080330428E+03 -0.92830555202E+02  0.70337764683E+02  0.51416813774E+03  0.10566000000E+00 0. -1.
         -4    1    3    3    0  501  0.37863636868E+03  0.30768912512E+03  0.37979485236E+03  0.61828975997E+03  0.00000000000E+00 0. -1.
<mgrwt>
<rscale>  0 0.10288712E+04</rscale>
<asrwt>0</asrwt>
<pdfrwt beam="2">  1        4 0.53229273E+00 0.10186900E+04</pdfrwt>
<pdfrwt beam="1">  1       -4 0.13453542E+00 0.10391542E+04</pdfrwt>
<totfact> 0.21215404E-02</totfact>
</mgrwt>
</event>
<event>
 8    1  0.3025584E-006  0.1185810E+04  0.7818608E-02  0.8628118E-01
         -4   -1    0    0    0  501 -0.00000000000E+00  0.00000000000E+00  0.16330611952E+04  0.16330611952E+04  0.00000000000E+00 0. -1.
          4   -1    0    0  502    0  0.00000000000E+00 -0.00000000000E+00 -0.14588696915E+04  0.14588696915E+04  0.00000000000E+00 0.  1.
   -9000010    2    1    2    0  501  0.55977675039E+03 -0.15536710479E+03  0.10938152050E+04  0.16132505039E+04  0.10337584526E+04 0.  0.
    9000010    2    1    2  502    0 -0.55977675039E+03  0.15536710479E+03 -0.91962370128E+03  0.14786803827E+04  0.10016481292E+04 0.  0.
        -13    1    4    4    0    0  0.17767721472E+03 -0.24605981619E+03 -0.14523660724E+03  0.33646442460E+03  0.10566000000E+00 0.  1.
          4    1    4    4  502    0 -0.73745396511E+03  0.40142692098E+03 -0.77438709404E+03  0.11422159581E+04  0.00000000000E+00 0.  1.
         13    1    3    3    0    0  0.32130965974E+03  0.32828269645E+03  0.81870607274E+02  0.46659643561E+03  0.10566000000E+00 0. -1.
         -4    1    3    3    0  501  0.23846709066E+03 -0.48364980123E+03  0.10119445977E+04  0.11466540683E+04  0.00000000000E+00 0. -1.
<mgrwt>
<rscale>  0 0.11717841E+04</rscale>
<asrwt>0</asrwt>
<pdfrwt beam="2">  1        4 0.22444149E+00 0.11579240E+04</pdfrwt>
<pdfrwt beam="1">  1       -4 0.25124018E+00 0.11858101E+04</pdfrwt>
<totfact> 0.11608811E-01</totfact>
</mgrwt>
</event>
<event>
 8    1  0.3025584E-006  0.1262777E+04  0.7818608E-02  0.8568246E-01
         -4   -1    0    0    0  501 -0.00000000000E+00  0.00000000000E+00  0.94872342188E+03  0.94872342188E+03  0.00000000000E+00 0. -1.
          4   -1    0    0  502    0  0.00000000000E+00 -0.00000000000E+00 -0.26080567254E+04  0.26080567254E+04  0.00000000000E+00 0.  1.
   -9000010    2    1    2    0  501  0.30043452859E+03 -0.69445486671E+03  0.25095019801E+03  0.12668483595E+04  0.98458127959E+03 0.  0.
    9000010    2    1    2  502    0 -0.30043452859E+03  0.69445486671E+03 -0.19102835015E+04  0.22899317878E+04  0.10109777786E+04 0.  0.
        -13    1    4    4    0    0 -0.29238603369E+03  0.49728441425E+03 -0.19938552973E+04  0.20756301065E+04  0.10566000000E+00 0.  1.
          4    1    4    4  502    0 -0.80484949009E+01  0.19717045246E+03  0.83571795712E+02  0.21430168135E+03  0.00000000000E+00 0.  1.
         13    1    3    3    0    0  0.33883607959E+03 -0.91888971973E+03  0.31762754415E+03  0.10295899542E+04  0.10566000000E+00 0. -1.
         -4    1    3    3    0  501 -0.38401551003E+02  0.22443485302E+03 -0.66677346140E+02  0.23725840524E+03  0.00000000000E+00 0. -1.
<mgrwt>
<rscale>  0 0.12522162E+04</rscale>
<asrwt>0</asrwt>
<pdfrwt beam="2">  1        4 0.40123949E+00 0.12627765E+04</pdfrwt>
<pdfrwt beam="1">  1       -4 0.14595745E+00 0.12417442E+04</pdfrwt>
<totfact> 0.72105856E-02</totfact>
</mgrwt>
</event>
<event>
 8    1  0.3025584E-006  0.1167071E+04  0.7818608E-02  0.8634452E-01
          4   -1    0    0  502    0  0.00000000000E+00  0.00000000000E+00  0.34830826344E+04  0.34830826344E+04  0.00000000000E+00 0.  1.
         -4   -1    0    0    0  501 -0.00000000000E+00 -0.00000000000E+00 -0.98896988241E+03  0.98896988241E+03  0.00000000000E+00 0. -1.
   -9000010    2    1    2    0  501  0.51063398238E+03  0.30779261831E+03 -0.49633503164E+03  0.12619385229E+04  0.99531754329E+03 0.  0.
    9000010    2    1    2  502    0 -0.51063398238E+03 -0.30779261831E+03  0.29904477836E+04  0.32101139940E+04  0.10032798950E+04 0.  0.
        -13    1    4    4    0    0 -0.71646838242E+02 -0.58856828171E+03  0.20605937332E+04  0.21441997193E+04  0.10566000000E+00 0.  1.
          4    1    4    4  502    0 -0.43898714414E+03  0.28077566339E+03  0.92985405044E+03  0.10659142747E+04  0.00000000000E+00 0.  1.
         13    1    3    3    0    0 -0.10471385259E+03  0.22440051683E+03 -0.58444932349E+03  0.63474530779E+03  0.10566000000E+00 0. -1.
         -4    1    3    3    0  501  0.61534783497E+03  0.83392101483E+02  0.88114291843E+02  0.62719321507E+03  0.00000000000E+00 0. -1.
<mgrwt>
<rscale>  0 0.11636468E+04</rscale>
<asrwt>0</asrwt>
<pdfrwt beam="1">  1        4 0.53585886E+00 0.11670707E+04</pdfrwt>
<pdfrwt beam="2">  1       -4 0.15214921E+00 0.11602329E+04</pdfrwt>
<totfact> 0.16677935E-02</totfact>
</mgrwt>
</event>
<event>
 8    1  0.3025584E-006  0.1247077E+04  0.7818608E-02  0.8579230E-01
          4   -1    0    0  502    0  0.00000000000E+00  0.00000000000E+00  0.10800891976E+04  0.10800891976E+04  0.00000000000E+00 0.  1.
         -4   -1    0    0    0  501 -0.00000000000E+00 -0.00000000000E+00 -0.22136436089E+04  0.22136436089E+04  0.00000000000E+00 0. -1.
   -9000010    2    1    2    0  501 -0.54882840688E+03 -0.46341740516E+03 -0.15578253956E+04  0.19955005010E+04  0.10194282587E+04 0.  0.
    9000010    2    1    2  502    0  0.54882840688E+03  0.46341740516E+03  0.42427098437E+03  0.12982323055E+04  0.99470243750E+03 0.  0.
        -13    1    4    4    0    0  0.24290333511E+03  0.54980071197E+03 -0.16968353021E+03  0.62456013696E+03  0.10566000000E+00 0.  1.
          4    1    4    4  502    0  0.30592507177E+03 -0.86383306805E+02  0.59395451458E+03  0.67367216851E+03  0.00000000000E+00 0.  1.
         13    1    3    3    0    0 -0.77155273292E+03 -0.36738507011E+03 -0.70186319979E+03  0.11058378596E+04  0.10566000000E+00 0. -1.
         -4    1    3    3    0  501  0.22272432604E+03 -0.96032335051E+02 -0.85596219582E+03  0.88966264137E+03  0.00000000000E+00 0. -1.
<mgrwt>
<rscale>  0 0.12369718E+04</rscale>
<asrwt>0</asrwt>
<pdfrwt beam="1">  1        4 0.16616757E+00 0.12269479E+04</pdfrwt>
<pdfrwt beam="2">  1       -4 0.34056055E+00 0.12470775E+04</pdfrwt>
<totfact> 0.99884999E-02</totfact>
</mgrwt>
</event>
<event>
 8    1  0.3025584E-006  0.1057681E+04  0.7818608E-02  0.8753641E-01
         -4   -1    0    0    0  501 -0.00000000000E+00  0.00000000000E+00  0.17815503189E+04  0.17815503189E+04  0.00000000000E+00 0. -1.
          4   -1    0    0  502    0  0.00000000000E+00 -0.00000000000E+00 -0.11524572417E+04  0.11524572417E+04  0.00000000000E+00 0.  1.
   -9000010    2    1    2    0  501 -0.29270720982E+03 -0.17903680820E+03  0.13466648533E+04  0.17123655126E+04  0.10004787516E+04 0.  0.
    9000010    2    1    2  502    0  0.29270720982E+03  0.17903680820E+03 -0.71757177599E+03  0.12216420480E+04  0.92723694398E+03 0.  0.
        -13    1    4    4    0    0 -0.28806696253E+03 -0.68604375457E+02 -0.45632930788E+02  0.29961894261E+03  0.10566000000E+00 0.  1.
          4    1    4    4  502    0  0.58077417235E+03  0.24764118365E+03 -0.67193884520E+03  0.92202310535E+03  0.00000000000E+00 0.  1.
         13    1    3    3    0    0 -0.43017190163E+03 -0.12513725581E+03  0.14593863375E+04  0.15266026631E+04  0.10566000000E+00 0. -1.
         -4    1    3    3    0  501  0.13746469181E+03 -0.53899552389E+02 -0.11272148426E+03  0.18576284951E+03  0.00000000000E+00 0. -1.
<mgrwt>
<rscale>  0 0.10226019E+04</rscale>
<asrwt>0</asrwt>
<pdfrwt beam="2">  1        4 0.17730111E+00 0.98868602E+03</pdfrwt>
<pdfrwt beam="1">  1       -4 0.27408466E+00 0.10576812E+04</pdfrwt>
<totfact> 0.14093521E-01</totfact>
</mgrwt>
</event>
<event>
 8    1  0.3025584E-006  0.1412552E+04  0.7818608E-02  0.8501296E-01
          4   -1    0    0  502    0  0.00000000000E+00  0.00000000000E+00  0.14236377931E+04  0.14236377931E+04  0.00000000000E+00 0.  1.
         -4   -1    0    0    0  501 -0.00000000000E+00 -0.00000000000E+00 -0.20096335025E+04  0.20096335025E+04  0.00000000000E+00 0. -1.
   -9000010    2    1    2    0  501 -0.78235590425E+03  0.32753055084E+03 -0.13159959602E+04  0.18432390619E+04  0.97279383702E+03 0.  0.
    9000010    2    1    2  502    0  0.78235590425E+03 -0.32753055084E+03  0.73000025089E+03  0.15900322337E+04  0.11295774056E+04 0.  0.
        -13    1    4    4    0    0  0.25840902963E+03 -0.19932809710E+03  0.95226088412E+03  0.10066318689E+04  0.10566000000E+00 0.  1.
          4    1    4    4  502    0  0.52394687463E+03 -0.12820245374E+03 -0.22226063322E+03  0.58340036481E+03  0.00000000000E+00 0.  1.
         13    1    3    3    0    0 -0.68674963990E+03  0.43512432059E+03 -0.38208628052E+03  0.89830294400E+03  0.10566000000E+00 0. -1.
         -4    1    3    3    0  501 -0.95606264357E+02 -0.10759376975E+03 -0.93390967970E+03  0.94493611790E+03  0.00000000000E+00 0. -1.
<mgrwt>
<rscale>  0 0.13502071E+04</rscale>
<asrwt>0</asrwt>
<pdfrwt beam="1">  1        4 0.21902120E+00 0.14125516E+04</pdfrwt>
<pdfrwt beam="2">  1       -4 0.30917439E+00 0.12906141E+04</pdfrwt>
<totfact> 0.84364815E-02</totfact>
</mgrwt>
</event>
<event>
 8    1  0.3025584E-006  0.1263352E+04  0.7818608E-02  0.8561378E-01
          4   -1    0    0  502    0  0.00000000000E+00  0.00000000000E+00  0.95237010276E+03  0.95237010276E+03  0.00000000000E+00 0.  1.
         -4   -1    0    0    0  501 -0.00000000000E+00 -0.00000000000E+00 -0.27434905181E+04  0.27434905181E+04  0.00000000000E+00 0. -1.
   -9000010    2    1    2    0  501  0.75245682298E+03  0.12352910289E+03 -0.20498067690E+04  0.24062963141E+04  0.10035454407E+04 0.  0.
    9000010    2    1    2  502    0 -0.75245682298E+03 -0.12352910289E+03  0.25868635363E+03  0.12895643067E+04  0.10072769043E+04 0.  0.
        -13    1    4    4    0    0 -0.11382083932E+03 -0.49156284495E+03  0.22288300890E+03  0.55160317332E+03  0.10566000000E+00 0.  1.
          4    1    4    4  502    0 -0.63863598365E+03  0.36803374207E+03  0.35803344737E+02  0.73796113340E+03  0.00000000000E+00 0.  1.
         13    1    3    3    0    0  0.92743122069E+03  0.13511270731E+02 -0.11219966504E+04  0.14557430124E+04  0.10566000000E+00 0. -1.
         -4    1    3    3    0  501 -0.17497439771E+03  0.11001783215E+03 -0.92781011856E+03  0.95055330169E+03  0.00000000000E+00 0. -1.
<mgrwt>
<rscale>  0 0.12618643E+04</rscale>
<asrwt>0</asrwt>
<pdfrwt beam="1">  1        4 0.14651848E+00 0.12633517E+04</pdfrwt>
<pdfrwt beam="2">  1       -4 0.42207545E+00 0.12603786E+04</pdfrwt>
<totfact> 0.58862632E-02</totfact>
</mgrwt>
</event>
<event>
 8    1  0.3025584E-006  0.1595090E+04  0.7818608E-02  0.8380761E-01
         -4   -1    0    0    0  501 -0.00000000000E+00  0.00000000000E+00  0.29820135598E+04  0.29820135598E+04  0.00000000000E+00 0. -1.
          4   -1    0    0  502    0  0.00000000000E+00 -0.00000000000E+00 -0.10782381207E+04  0.10782381207E+04  0.00000000000E+00 0.  1.
   -9000010    2    1    2    0  501  0.99457795378E+03  0.75066590547E+03  0.19892419236E+04  0.25497831223E+04  0.99580416367E+03 0.  0.
    9000010    2    1    2  502    0 -0.99457795378E+03 -0.75066590547E+03 -0.85466484503E+02  0.15104685582E+04  0.84942694653E+03 0.  0.
        -13    1    4    4    0    0 -0.39272614300E+03 -0.50597625142E+03 -0.43351614235E+03  0.77342229554E+03  0.10566000000E+00 0.  1.
          4    1    4    4  502    0 -0.60185181078E+03 -0.24468965406E+03  0.34804965785E+03  0.73704626264E+03  0.00000000000E+00 0.  1.
         13    1    3    3    0    0  0.11988793997E+04  0.68272973770E+03  0.17090586613E+04  0.21964319313E+04  0.10566000000E+00 0. -1.
         -4    1    3    3    0  501 -0.20430144596E+03  0.67936167774E+02  0.28018326233E+03  0.35335119103E+03  0.00000000000E+00 0. -1.
<mgrwt>
<rscale>  0 0.15509586E+04</rscale>
<asrwt>0</asrwt>
<pdfrwt beam="2">  1        4 0.16588279E+00 0.15080487E+04</pdfrwt>
<pdfrwt beam="1">  1       -4 0.45877131E+00 0.15950895E+04</pdfrwt>
<totfact> 0.32535735E-02</totfact>
</mgrwt>
</event>
<event>
 8    1  0.3025584E-006  0.1138406E+04  0.7818608E-02  0.8668906E-01
          4   -1    0    0  502    0  0.00000000000E+00  0.00000000000E+00  0.24172790151E+04  0.24172790151E+04  0.00000000000E+00 0.  1.
         -4   -1    0    0    0  501 -0.00000000000E+00 -0.00000000000E+00 -0.19017396110E+04  0.19017396110E+04  0.00000000000E+00 0. -1.
   -9000010    2    1    2    0  501  0.22870096858E+03  0.38585029403E+03 -0.15820727151E+04  0.19490822079E+04  0.10463186871E+04 0.  0.
    9000010    2    1    2  502    0 -0.22870096858E+03 -0.38585029403E+03  0.20976121192E+04  0.23699364182E+04  0.10076891590E+04 0.  0.
        -13    1    4    4    0    0  0.34810382152E+03 -0.25759634632E+03  0.47346000619E+03  0.64163582882E+03  0.10566000000E+00 0.  1.
          4    1    4    4  502    0 -0.57680479010E+03 -0.12825394770E+03  0.16241521130E+04  0.17283005893E+04  0.00000000000E+00 0.  1.
         13    1    3    3    0    0  0.38892399983E+03 -0.22793963894E+03 -0.96016986499E+03  0.10607283052E+04  0.10566000000E+00 0. -1.
         -4    1    3    3    0  501 -0.16022303125E+03  0.61378993297E+03 -0.62190285010E+03  0.88835390274E+03  0.00000000000E+00 0. -1.
<mgrwt>
<rscale>  0 0.11205660E+04</rscale>
<asrwt>0</asrwt>
<pdfrwt beam="1">  1        4 0.37188908E+00 0.11030059E+04</pdfrwt>
<pdfrwt beam="2">  1       -4 0.29257533E+00 0.11384056E+04</pdfrwt>
<totfact> 0.35898367E-02</totfact>
</mgrwt>
</event>
<event>
 8    1  0.3025584E-006  0.1110735E+04  0.7818608E-02  0.8691811E-01
         -4   -1    0    0    0  501 -0.00000000000E+00  0.00000000000E+00  0.15949954649E+04  0.15949954649E+04  0.00000000000E+00 0. -1.
          4   -1    0    0  502    0  0.00000000000E+00 -0.00000000000E+00 -0.11395898958E+04  0.11395898958E+04  0.00000000000E+00 0.  1.
   -9000010    2    1    2    0  501 -0.66434317222E+02 -0.55089648110E+03  0.10303262737E+04  0.15150259584E+04  0.96220110842E+03 0.  0.
    9000010    2    1    2  502    0  0.66434317222E+02  0.55089648110E+03 -0.57492070458E+03  0.12195594022E+04  0.92135273787E+03 0.  0.
        -13    1    4    4    0    0 -0.77589293964E+02  0.20292283449E+03  0.23884827721E+03  0.32287193434E+03  0.10566000000E+00 0.  1.
          4    1    4    4  502    0  0.14402361119E+03  0.34797364661E+03 -0.81376898179E+03  0.89668746787E+03  0.00000000000E+00 0.  1.
         13    1    3    3    0    0 -0.19989643254E+03 -0.70825592645E+03  0.37096849200E+03  0.82413753361E+03  0.10566000000E+00 0. -1.
         -4    1    3    3    0  501  0.13346211532E+03  0.15735944535E+03  0.65935778167E+03  0.69088842479E+03  0.00000000000E+00 0. -1.
<mgrwt>
<rscale>  0 0.10929969E+04</rscale>
<asrwt>0</asrwt>
<pdfrwt beam="2">  1        4 0.17532152E+00 0.10755423E+04</pdfrwt>
<pdfrwt beam="1">  1       -4 0.24538392E+00 0.11107346E+04</pdfrwt>
<totfact> 0.16668935E-01</totfact>
</mgrwt>
</event>
<event>
 8    1  0.3025584E-006  0.1110899E+04  0.7818608E-02  0.8709461E-01
         -4   -1    0    0    0  501 -0.00000000000E+00  0.00000000000E+00  0.50513958523E+03  0.50513958523E+03  0.00000000000E+00 0. -1.
          4   -1    0    0  502    0  0.00000000000E+00 -0.00000000000E+00 -0.26609877724E+04  0.26609877724E+04  0.00000000000E+00 0.  1.
   -9000010    2    1    2    0  501 -0.24852566653E+02 -0.49565166554E+03 -0.51120812551E+03  0.12228781559E+04  0.99388581480E+03 0.  0.
    9000010    2    1    2  502    0  0.24852566653E+02  0.49565166554E+03 -0.16446400616E+04  0.19432492017E+04  0.90834371474E+03 0.  0.
        -13    1    4    4    0    0  0.44939202150E+03  0.18612323111E+03 -0.58733852328E+03  0.76260186090E+03  0.10566000000E+00 0.  1.
          4    1    4    4  502    0 -0.42453945485E+03  0.30952843443E+03 -0.10573015383E+04  0.11806473408E+04  0.00000000000E+00 0.  1.
         13    1    3    3    0    0 -0.28804778711E+03 -0.22109486339E+03  0.20132352275E+03  0.41519349496E+03  0.10566000000E+00 0. -1.
         -4    1    3    3    0  501  0.26319522046E+03 -0.27455680215E+03 -0.71253164826E+03  0.80768466090E+03  0.00000000000E+00 0. -1.
<mgrwt>
<rscale>  0 0.10723162E+04</rscale>
<asrwt>0</asrwt>
<pdfrwt beam="2">  1        4 0.40938274E+00 0.10350732E+04</pdfrwt>
<pdfrwt beam="1">  1       -4 0.77713782E-01 0.11108993E+04</pdfrwt>
<totfact> 0.21433426E-01</totfact>
</mgrwt>
</event>
<event>
 8    1  0.3025584E-006  0.1091360E+04  0.7818608E-02  0.8726199E-01
          4   -1    0    0  502    0  0.00000000000E+00  0.00000000000E+00  0.23253392345E+04  0.23253392345E+04  0.00000000000E+00 0.  1.
         -4   -1    0    0    0  501 -0.00000000000E+00 -0.00000000000E+00 -0.10546652401E+04  0.10546652401E+04  0.00000000000E+00 0. -1.
   -9000010    2    1    2    0  501 -0.31312143492E+03  0.27854344996E+03 -0.62467529163E+03  0.11929023345E+04  0.92583220578E+03 0.  0.
    9000010    2    1    2  502    0  0.31312143492E+03 -0.27854344996E+03  0.18953492861E+04  0.21871021401E+04  0.10076881307E+04 0.  0.
        -13    1    4    4    0    0  0.43894022139E+03 -0.58985687058E+03  0.14835975772E+04  0.16557963123E+04  0.10566000000E+00 0.  1.
          4    1    4    4  502    0 -0.12581878647E+03  0.31131342063E+03  0.41175170886E+03  0.53130582779E+03  0.00000000000E+00 0.  1.
         13    1    3    3    0    0  0.55598028873E+02  0.21792631403E+03 -0.76223051355E+03  0.79471906113E+03  0.10566000000E+00 0. -1.
         -4    1    3    3    0  501 -0.36871946379E+03  0.60617135931E+02  0.13755522192E+03  0.39818327341E+03  0.00000000000E+00 0. -1.
<mgrwt>
<rscale>  0 0.10531440E+04</rscale>
<asrwt>0</asrwt>
<pdfrwt beam="1">  1        4 0.35774450E+00 0.10913601E+04</pdfrwt>
<pdfrwt beam="2">  1       -4 0.16225619E+00 0.10162661E+04</pdfrwt>
<totfact> 0.91573400E-02</totfact>
</mgrwt>
</event>
<event>
 8    1  0.3025584E-006  0.1310057E+04  0.7818608E-02  0.8529683E-01
          4   -1    0    0  502    0  0.00000000000E+00  0.00000000000E+00  0.37895763808E+04  0.37895763808E+04  0.00000000000E+00 0.  1.
         -4   -1    0    0    0  501 -0.00000000000E+00 -0.00000000000E+00 -0.11398192520E+04  0.11398192520E+04  0.00000000000E+00 0. -1.
   -9000010    2    1    2    0  501 -0.32733194437E+03 -0.75930379816E+03 -0.58989903061E+03  0.14367424643E+04  0.10161493900E+04 0.  0.
    9000010    2    1    2  502    0  0.32733194437E+03  0.75930379816E+03  0.32396561594E+04  0.34926531686E+04  0.10097354430E+04 0.  0.
        -13    1    4    4    0    0  0.67255987639E+03  0.45228270280E+03  0.24153355242E+04  0.25476934933E+04  0.10566000000E+00 0.  1.
          4    1    4    4  502    0 -0.34522793202E+03  0.30702109536E+03  0.82432063528E+03  0.94495967522E+03  0.00000000000E+00 0.  1.
         13    1    3    3    0    0  0.22547148110E+03  0.13161392639E+03 -0.13351785724E+03  0.29323479291E+03  0.10566000000E+00 0. -1.
         -4    1    3    3    0  501 -0.55280342547E+03 -0.89091772455E+03 -0.45638117337E+03  0.11435076714E+04  0.00000000000E+00 0. -1.
<mgrwt>
<rscale>  0 0.13075698E+04</rscale>
<asrwt>0</asrwt>
<pdfrwt beam="1">  1        4 0.58301175E+00 0.13050878E+04</pdfrwt>
<pdfrwt beam="2">  1       -4 0.17535681E+00 0.13100565E+04</pdfrwt>
<totfact> 0.75149149E-03</totfact>
</mgrwt>
</event>
<event>
 8    1  0.3025584E-006  0.1048000E+04  0.7818608E-02  0.8756363E-01
         -4   -1    0    0    0  501 -0.00000000000E+00  0.00000000000E+00  0.21210614389E+04  0.21210614389E+04  0.00000000000E+00 0. -1.
          4   -1    0    0  502    0  0.00000000000E+00 -0.00000000000E+00 -0.16600323817E+04  0.16600323817E+04  0.00000000000E+00 0.  1.
   -9000010    2    1    2    0  501  0.15171186662E+03 -0.26022918890E+03  0.18190393402E+04  0.20993353508E+04  0.10037774021E+04 0.  0.
    9000010    2    1    2  502    0 -0.15171186662E+03  0.26022918890E+03 -0.13580102829E+04  0.16817584698E+04  0.94518987564E+03 0.  0.
        -13    1    4    4    0    0 -0.51247355194E+01  0.52514623327E+03 -0.35463041951E+03  0.63369359697E+03  0.10566000000E+00 0.  1.
          4    1    4    4  502    0 -0.14658713110E+03 -0.26491704437E+03 -0.10033798634E+04  0.10480648728E+04  0.00000000000E+00 0.  1.
         13    1    3    3    0    0 -0.42941617744E+03 -0.12145199220E+03  0.68515223190E+03  0.81766890114E+03  0.10566000000E+00 0. -1.
         -4    1    3    3    0  501  0.58112804406E+03 -0.13877719670E+03  0.11338871083E+04  0.12816664497E+04  0.00000000000E+00 0. -1.
<mgrwt>
<rscale>  0 0.10196302E+04</rscale>
<asrwt>0</asrwt>
<pdfrwt beam="2">  1        4 0.25538960E+00 0.99202804E+03</pdfrwt>
<pdfrwt beam="1">  1       -4 0.32631714E+00 0.10480004E+04</pdfrwt>
<totfact> 0.63248820E-02</totfact>
</mgrwt>
</event>
<event>
 8    1  0.3025584E-006  0.1062483E+04  0.7818608E-02  0.8722057E-01
          4   -1    0    0  502    0  0.00000000000E+00  0.00000000000E+00  0.12463646029E+04  0.12463646029E+04  0.00000000000E+00 0.  1.
         -4   -1    0    0    0  501 -0.00000000000E+00 -0.00000000000E+00 -0.16936221041E+04  0.16936221041E+04  0.00000000000E+00 0. -1.
   -9000010    2    1    2    0  501  0.37341515885E+03 -0.56212798718E+02 -0.12317631111E+04  0.16266867292E+04  0.99311157146E+03 0.  0.
    9000010    2    1    2  502    0 -0.37341515885E+03  0.56212798718E+02  0.78450560994E+03  0.13132999778E+04  0.98321361876E+03 0.  0.
        -13    1    4    4    0    0 -0.20184779218E+03 -0.18588699053E+03  0.93934350360E+03  0.97860243888E+03  0.10566000000E+00 0.  1.
          4    1    4    4  502    0 -0.17156736667E+03  0.24209978925E+03 -0.15483789366E+03  0.33469753894E+03  0.00000000000E+00 0.  1.
         13    1    3    3    0    0  0.35652235947E+03 -0.50235522610E+03 -0.71068234247E+03  0.94049900003E+03  0.10566000000E+00 0. -1.
         -4    1    3    3    0  501  0.16892799374E+02  0.44614242738E+03 -0.52108076864E+03  0.68618772914E+03  0.00000000000E+00 0. -1.
<mgrwt>
<rscale>  0 0.10578496E+04</rscale>
<asrwt>0</asrwt>
<pdfrwt beam="1">  1        4 0.19174840E+00 0.10532368E+04</pdfrwt>
<pdfrwt beam="2">  1       -4 0.26055725E+00 0.10624826E+04</pdfrwt>
<totfact> 0.13602559E-01</totfact>
</mgrwt>
</event>
<event>
 8    1  0.3025584E-006  0.1105174E+04  0.7818608E-02  0.8690322E-01
          4   -1    0    0  502    0  0.00000000000E+00  0.00000000000E+00  0.22639595621E+04  0.22639595621E+04  0.00000000000E+00 0.  1.
         -4   -1    0    0    0  501 -0.00000000000E+00 -0.00000000000E+00 -0.12277549598E+04  0.12277549598E+04  0.00000000000E+00 0. -1.
   -9000010    2    1    2    0  501  0.27588646641E+03  0.33832184830E+03 -0.80066777418E+03  0.13480007386E+04  0.99270443294E+03 0.  0.
    9000010    2    1    2  502    0 -0.27588646641E+03 -0.33832184830E+03  0.18368723765E+04  0.21437137833E+04  0.10152997792E+04 0.  0.
        -13    1    4    4    0    0  0.31203767561E+03  0.51365109194E+01  0.19946729638E+03  0.37037968118E+03  0.10566000000E+00 0.  1.
          4    1    4    4  502    0 -0.58792414202E+03 -0.34345835922E+03  0.16374050801E+04  0.17733341021E+04  0.00000000000E+00 0.  1.
         13    1    3    3    0    0  0.14635397528E+03  0.58545655977E+03 -0.12402447850E+03  0.61608518233E+03  0.10566000000E+00 0. -1.
         -4    1    3    3    0  501  0.12953249113E+03 -0.24713471147E+03 -0.67664329568E+03  0.73191555623E+03  0.00000000000E+00 0. -1.
<mgrwt>
<rscale>  0 0.10947640E+04</rscale>
<asrwt>0</asrwt>
<pdfrwt beam="1">  1        4 0.34830147E+00 0.11051736E+04</pdfrwt>
<pdfrwt beam="2">  1       -4 0.18888538E+00 0.10844524E+04</pdfrwt>
<totfact> 0.79972793E-02</totfact>
</mgrwt>
</event>
<event>
 8    1  0.3025584E-006  0.1061473E+04  0.7818608E-02  0.8728554E-01
         -4   -1    0    0    0  501 -0.00000000000E+00  0.00000000000E+00  0.21098898741E+04  0.21098898741E+04  0.00000000000E+00 0. -1.
          4   -1    0    0  502    0  0.00000000000E+00 -0.00000000000E+00 -0.61564560641E+03  0.61564560641E+03  0.00000000000E+00 0.  1.
   -9000010    2    1    2    0  501  0.84189318773E+02 -0.27706050945E+03  0.12821467276E+04  0.16645195337E+04  0.10212123579E+04 0.  0.
    9000010    2    1    2  502    0 -0.84189318773E+02  0.27706050945E+03  0.21209754016E+03  0.10610159468E+04  0.99845836445E+03 0.  0.
        -13    1    4    4    0    0  0.25106125138E+03  0.45607911242E+03  0.38098454382E+03  0.64512722972E+03  0.10566000000E+00 0.  1.
          4    1    4    4  502    0 -0.33525057015E+03 -0.17901860297E+03 -0.16888700366E+03  0.41588871709E+03  0.00000000000E+00 0.  1.
         13    1    3    3    0    0  0.49700684542E+03  0.65649158516E+02  0.44579945384E+03  0.67086718553E+03  0.10566000000E+00 0. -1.
         -4    1    3    3    0  501 -0.41281752664E+03 -0.34270966797E+03  0.83634727373E+03  0.99365234821E+03  0.00000000000E+00 0. -1.
<mgrwt>
<rscale>  0 0.10504799E+04</rscale>
<asrwt>0</asrwt>
<pdfrwt beam="2">  1        4 0.94714710E-01 0.10396006E+04</pdfrwt>
<pdfrwt beam="1">  1       -4 0.32459844E+00 0.10614731E+04</pdfrwt>
<totfact> 0.28485140E-01</totfact>
</mgrwt>
</event>
<event>
 8    1  0.3025584E-006  0.1277881E+04  0.7818608E-02  0.8572208E-01
         -4   -1    0    0    0  501 -0.00000000000E+00  0.00000000000E+00  0.15474113364E+04  0.15474113364E+04  0.00000000000E+00 0. -1.
          4   -1    0    0  502    0  0.00000000000E+00 -0.00000000000E+00 -0.20531682862E+04  0.20531682862E+04  0.00000000000E+00 0.  1.
   -9000010    2    1    2    0  501 -0.11325613080E+03 -0.65007155002E+03  0.10301644372E+04  0.16414077942E+04  0.10943312149E+04 0.  0.
    9000010    2    1    2  502    0  0.11325613080E+03  0.65007155002E+03 -0.15359213870E+04  0.19591718284E+04  0.10217043480E+04 0.  0.
        -13    1    4    4    0    0 -0.34974983594E+03 -0.72080534856E+02 -0.41038570539E+03  0.54400090955E+03  0.10566000000E+00 0.  1.
          4    1    4    4  502    0  0.46300596673E+03  0.72215208488E+03 -0.11255356817E+04  0.14151709189E+04  0.00000000000E+00 0.  1.
         13    1    3    3    0    0  0.18566746721E+03 -0.16470614115E+03  0.10421039551E+04  0.10712521578E+04  0.10566000000E+00 0. -1.
         -4    1    3    3    0  501 -0.29892359800E+03 -0.48536540887E+03 -0.11939517887E+02  0.57015563635E+03  0.00000000000E+00 0. -1.
<mgrwt>
<rscale>  0 0.12466924E+04</rscale>
<asrwt>0</asrwt>
<pdfrwt beam="2">  1        4 0.31587204E+00 0.12162647E+04</pdfrwt>
<pdfrwt beam="1">  1       -4 0.23806328E+00 0.12778814E+04</pdfrwt>
<totfact> 0.72911406E-02</totfact>
</mgrwt>
</event>
<event>
 8    1  0.3025584E-006  0.1073358E+04  0.7818608E-02  0.8713576E-01
          4   -1    0    0  502    0  0.00000000000E+00  0.00000000000E+00  0.13907200031E+04  0.13907200031E+04  0.00000000000E+00 0.  1.
         -4   -1    0    0    0  501 -0.00000000000E+00 -0.00000000000E+00 -0.23506520272E+04  0.23506520272E+04  0.00000000000E+00 0. -1.
   -9000010    2    1    2    0  501  0.90843331379E+02 -0.42498357929E+03 -0.19906412290E+04  0.22615814250E+04  0.98144510066E+03 0.  0.
    9000010    2    1    2  502    0 -0.90843331379E+02  0.42498357929E+03  0.10307092049E+04  0.14797906053E+04  0.96879059500E+03 0.  0.
        -13    1    4    4    0    0  0.26997307149E+03  0.56468521336E+03  0.84242626861E+03  0.10494936297E+04  0.10566000000E+00 0.  1.
          4    1    4    4  502    0 -0.36081640287E+03 -0.13970163407E+03  0.18828293629E+03  0.43029697564E+03  0.00000000000E+00 0.  1.
         13    1    3    3    0    0 -0.34536037907E+03  0.12764743745E+03 -0.73329946268E+03  0.82054602116E+03  0.10566000000E+00 0. -1.
         -4    1    3    3    0  501  0.43620371045E+03 -0.55263101674E+03 -0.12573417663E+04  0.14410354038E+04  0.00000000000E+00 0. -1.
<mgrwt>
<rscale>  0 0.10675634E+04</rscale>
<asrwt>0</asrwt>
<pdfrwt beam="1">  1        4 0.21395692E+00 0.10617998E+04</pdfrwt>
<pdfrwt beam="2">  1       -4 0.36163877E+00 0.10733583E+04</pdfrwt>
<totfact> 0.61331473E-02</totfact>
</mgrwt>
</event>
<event>
 8    1  0.3025584E-006  0.1440484E+04  0.7818608E-02  0.8483870E-01
          4   -1    0    0  502    0  0.00000000000E+00  0.00000000000E+00  0.37012039748E+04  0.37012039748E+04  0.00000000000E+00 0.  1.
         -4   -1    0    0    0  501 -0.00000000000E+00 -0.00000000000E+00 -0.18574218374E+04  0.18574218374E+04  0.00000000000E+00 0. -1.
   -9000010    2    1    2    0  501  0.79161405712E+03  0.33482413687E+03 -0.14530157622E+04  0.19608668885E+04  0.99748891280E+03 0.  0.
    9000010    2    1    2  502    0 -0.79161405712E+03 -0.33482413687E+03  0.32967978996E+04  0.35977589236E+04  0.11559553901E+04 0.  0.
        -13    1    4    4    0    0 -0.54156254286E+03 -0.75525854115E+03  0.18465516931E+04  0.20672345339E+04  0.10566000000E+00 0.  1.
          4    1    4    4  502    0 -0.25005151425E+03  0.42043440429E+03  0.14502462065E+04  0.15305243897E+04  0.00000000000E+00 0.  1.
         13    1    3    3    0    0  0.82136606713E+03  0.45608116132E+02 -0.49584318136E+03  0.96051173244E+03  0.10566000000E+00 0. -1.
         -4    1    3    3    0  501 -0.29752010016E+02  0.28921602074E+03 -0.95717258081E+03  0.10003551560E+04  0.00000000000E+00 0. -1.
<mgrwt>
<rscale>  0 0.13772108E+04</rscale>
<asrwt>0</asrwt>
<pdfrwt beam="1">  1        4 0.56941599E+00 0.14404836E+04</pdfrwt>
<pdfrwt beam="2">  1       -4 0.28575721E+00 0.13167172E+04</pdfrwt>
<totfact> 0.44818293E-03</totfact>
</mgrwt>
</event>
<event>
 8    1  0.3025584E-006  0.1057157E+04  0.7818608E-02  0.8722681E-01
          4   -1    0    0  502    0  0.00000000000E+00  0.00000000000E+00  0.20080602714E+04  0.20080602714E+04  0.00000000000E+00 0.  1.
         -4   -1    0    0    0  501 -0.00000000000E+00 -0.00000000000E+00 -0.14471262215E+04  0.14471262215E+04  0.00000000000E+00 0. -1.
   -9000010    2    1    2    0  501 -0.33692739232E+03 -0.68336049973E+02 -0.10748109935E+04  0.15075809190E+04  0.99969578983E+03 0.  0.
    9000010    2    1    2  502    0  0.33692739232E+03  0.68336049973E+02  0.16357450434E+04  0.19476055739E+04  0.99965781192E+03 0.  0.
        -13    1    4    4    0    0 -0.20715790307E+03 -0.23301019564E+03  0.16945169855E+03  0.35485495259E+03  0.10566000000E+00 0.  1.
          4    1    4    4  502    0  0.54408529539E+03  0.30134624561E+03  0.14662933449E+04  0.15927506213E+04  0.00000000000E+00 0.  1.
         13    1    3    3    0    0 -0.53996439428E+03  0.24930301482E+03 -0.34865962767E+03  0.68940342864E+03  0.10566000000E+00 0. -1.
         -4    1    3    3    0  501  0.20303700196E+03 -0.31763906479E+03 -0.72615136585E+03  0.81817749039E+03  0.00000000000E+00 0. -1.
<mgrwt>
<rscale>  0 0.10571393E+04</rscale>
<asrwt>0</asrwt>
<pdfrwt beam="1">  1        4 0.30893235E+00 0.10571214E+04</pdfrwt>
<pdfrwt beam="2">  1       -4 0.22263480E+00 0.10571573E+04</pdfrwt>
<totfact> 0.84579983E-02</totfact>
</mgrwt>
</event>
<event>
 8    1  0.3025584E-006  0.1081559E+04  0.7818608E-02  0.8709290E-01
          4   -1    0    0  502    0  0.00000000000E+00  0.00000000000E+00  0.25650011788E+04  0.25650011788E+04  0.00000000000E+00 0.  1.
         -4   -1    0    0    0  501 -0.00000000000E+00 -0.00000000000E+00 -0.14302245403E+04  0.14302245403E+04  0.00000000000E+00 0. -1.
   -9000010    2    1    2    0  501 -0.10875763309E+03 -0.38828597572E+03 -0.10861332811E+04  0.15327934201E+04  0.10035815575E+04 0.  0.
    9000010    2    1    2  502    0  0.10875763309E+03  0.38828597572E+03  0.22209099196E+04  0.24624322991E+04  0.98414314756E+03 0.  0.
        -13    1    4    4    0    0 -0.12654222093E+03  0.63519310221E+03  0.18423877296E+04  0.19529146854E+04  0.10566000000E+00 0.  1.
          4    1    4    4  502    0  0.23529985401E+03 -0.24690712649E+03  0.37852218998E+03  0.50951761375E+03  0.00000000000E+00 0.  1.
         13    1    3    3    0    0  0.29058870466E+03 -0.39811504032E+03 -0.15034079040E+03  0.51530548710E+03  0.10566000000E+00 0. -1.
         -4    1    3    3    0  501 -0.39934633775E+03  0.98290646072E+01 -0.93579249075E+03  0.10174879330E+04  0.00000000000E+00 0. -1.
<mgrwt>
<rscale>  0 0.10725152E+04</rscale>
<asrwt>0</asrwt>
<pdfrwt beam="1">  1        4 0.39461557E+00 0.10635469E+04</pdfrwt>
<pdfrwt beam="2">  1       -4 0.22003454E+00 0.10815591E+04</pdfrwt>
<totfact> 0.44565136E-02</totfact>
</mgrwt>
</event>
<event>
 8    1  0.3025584E-006  0.1048544E+04  0.7818608E-02  0.8737022E-01
         -4   -1    0    0    0  501 -0.00000000000E+00  0.00000000000E+00  0.17591182291E+04  0.17591182291E+04  0.00000000000E+00 0. -1.
          4   -1    0    0  502    0  0.00000000000E+00 -0.00000000000E+00 -0.22688332248E+04  0.22688332248E+04  0.00000000000E+00 0.  1.
   -9000010    2    1    2    0  501 -0.10946883978E+03 -0.30271156123E+03  0.14635785874E+04  0.18004183915E+04  0.99791101157E+03 0.  0.
    9000010    2    1    2  502    0  0.10946883978E+03  0.30271156123E+03 -0.19732935830E+04  0.22275330624E+04  0.98203781146E+03 0.  0.
        -13    1    4    4    0    0  0.35831713944E+03  0.17304455510E+03 -0.22552198813E+03  0.45737923953E+03  0.10566000000E+00 0.  1.
          4    1    4    4  502    0 -0.24884829966E+03  0.12966700613E+03 -0.17477715949E+04  0.17701538228E+04  0.00000000000E+00 0.  1.
         13    1    3    3    0    0  0.15279499922E+03  0.31335079491E+03  0.30954612730E+03  0.46621223552E+03  0.10566000000E+00 0. -1.
         -4    1    3    3    0  501 -0.26226383899E+03 -0.61606235613E+03  0.11540324601E+04  0.13342061560E+04  0.00000000000E+00 0. -1.
<mgrwt>
<rscale>  0 0.10409688E+04</rscale>
<asrwt>0</asrwt>
<pdfrwt beam="2">  1        4 0.34905126E+00 0.10334486E+04</pdfrwt>
<pdfrwt beam="1">  1       -4 0.27063357E+00 0.10485438E+04</pdfrwt>
<totfact> 0.49840404E-02</totfact>
</mgrwt>
</event>
<event>
 8    1  0.3025584E-006  0.1527559E+04  0.7818608E-02  0.8399406E-01
          4   -1    0    0  502    0  0.00000000000E+00  0.00000000000E+00  0.14809866263E+04  0.14809866263E+04  0.00000000000E+00 0.  1.
         -4   -1    0    0    0  501 -0.00000000000E+00 -0.00000000000E+00 -0.16638616558E+04  0.16638616558E+04  0.00000000000E+00 0. -1.
   -9000010    2    1    2    0  501 -0.35135796388E+03 -0.10983697423E+04 -0.49361292669E+03  0.16053321979E+04  0.10017830278E+04 0.  0.
    9000010    2    1    2  502    0  0.35135796388E+03  0.10983697423E+04  0.31073789719E+03  0.15395160842E+04  0.97143359177E+03 0.  0.
        -13    1    4    4    0    0  0.58057259320E+03  0.34291490440E+03  0.32808398452E+03  0.74986284059E+03  0.10566000000E+00 0.  1.
          4    1    4    4  502    0 -0.22921462932E+03  0.75545483792E+03 -0.17346087336E+02  0.78965324363E+03  0.00000000000E+00 0.  1.
         13    1    3    3    0    0  0.27104669196E+03 -0.32200753974E+03 -0.43991262827E+03  0.60883355406E+03  0.10566000000E+00 0. -1.
         -4    1    3    3    0  501 -0.62240465584E+03 -0.77636220258E+03 -0.53700298423E+02  0.99649864389E+03  0.00000000000E+00 0. -1.
<mgrwt>
<rscale>  0 0.15176627E+04</rscale>
<asrwt>0</asrwt>
<pdfrwt beam="1">  1        4 0.22784410E+00 0.15078301E+04</pdfrwt>
<pdfrwt beam="2">  1       -4 0.25597872E+00 0.15275594E+04</pdfrwt>
<totfact> 0.10859041E-01</totfact>
</mgrwt>
</event>
<event>
 8    1  0.3025584E-006  0.1122709E+04  0.7818608E-02  0.8667466E-01
         -4   -1    0    0    0  501 -0.00000000000E+00  0.00000000000E+00  0.12534364859E+04  0.12534364859E+04  0.00000000000E+00 0. -1.
          4   -1    0    0  502    0  0.00000000000E+00 -0.00000000000E+00 -0.17658931734E+04  0.17658931734E+04  0.00000000000E+00 0.  1.
   -9000010    2    1    2    0  501 -0.50078386896E+03  0.25187416260E+02  0.73483545132E+03  0.13411720141E+04  0.10036634602E+04 0.  0.
    9000010    2    1    2  502    0  0.50078386896E+03 -0.25187416260E+02 -0.12472921389E+04  0.16781576452E+04  0.10045180501E+04 0.  0.
        -13    1    4    4    0    0  0.79435455113E+03  0.77948914774E+02 -0.10073136944E+04  0.12852066279E+04  0.10566000000E+00 0.  1.
          4    1    4    4  502    0 -0.29357068217E+03 -0.10313633103E+03 -0.23997844445E+03  0.39295101732E+03  0.00000000000E+00 0.  1.
         13    1    3    3    0    0  0.32072344449E+02 -0.37845755332E+03  0.48175177487E+02  0.38285717159E+03  0.10566000000E+00 0. -1.
         -4    1    3    3    0  501 -0.53285621341E+03  0.40364496958E+03  0.68666027383E+03  0.95831484247E+03  0.00000000000E+00 0. -1.
<mgrwt>
<rscale>  0 0.11223266E+04</rscale>
<asrwt>0</asrwt>
<pdfrwt beam="2">  1        4 0.27167587E+00 0.11227090E+04</pdfrwt>
<pdfrwt beam="1">  1       -4 0.19283638E+00 0.11219444E+04</pdfrwt>
<totfact> 0.12688402E-01</totfact>
</mgrwt>
</event>
<event>
 8    1  0.3025584E-006  0.1256791E+04  0.7818608E-02  0.8571937E-01
          4   -1    0    0  502    0  0.00000000000E+00  0.00000000000E+00  0.17726196326E+04  0.17726196326E+04  0.00000000000E+00 0.  1.
         -4   -1    0    0    0  501 -0.00000000000E+00 -0.00000000000E+00 -0.17161883814E+04  0.17161883814E+04  0.00000000000E+00 0. -1.
   -9000010    2    1    2    0  501  0.72534649592E+03 -0.13360483263E+03 -0.11911876095E+04  0.17316034487E+04  0.10176172129E+04 0.  0.
    9000010    2    1    2  502    0 -0.72534649592E+03  0.13360483263E+03  0.12476188607E+04  0.17572045653E+04  0.99359814432E+03 0.  0.
        -13    1    4    4    0    0 -0.71125820946E+03  0.15996791326E+02  0.13963064261E+04  0.15671042673E+04  0.10566000000E+00 0.  1.
          4    1    4    4  502    0 -0.14088286458E+02  0.11760804130E+03 -0.14868756542E+03  0.19010029801E+03  0.00000000000E+00 0.  1.
         13    1    3    3    0    0  0.50782623282E+03  0.20155285999E+01  0.54085713016E+01  0.50785904432E+03  0.10566000000E+00 0. -1.
         -4    1    3    3    0  501  0.21752026310E+03 -0.13562036123E+03 -0.11965961808E+04  0.12237444043E+04  0.00000000000E+00 0. -1.
<mgrwt>
<rscale>  0 0.12470691E+04</rscale>
<asrwt>0</asrwt>
<pdfrwt beam="1">  1        4 0.27271071E+00 0.12374228E+04</pdfrwt>
<pdfrwt beam="2">  1       -4 0.26402898E+00 0.12567906E+04</pdfrwt>
<totfact> 0.82519777E-02</totfact>
</mgrwt>
</event>
<event>
 8    1  0.3025584E-006  0.1116286E+04  0.7818608E-02  0.8722665E-01
         -4   -1    0    0    0  501 -0.00000000000E+00  0.00000000000E+00  0.13120532526E+04  0.13120532526E+04  0.00000000000E+00 0. -1.
          4   -1    0    0  502    0  0.00000000000E+00 -0.00000000000E+00 -0.99052966032E+03  0.99052966032E+03  0.00000000000E+00 0.  1.
   -9000010    2    1    2    0  501 -0.43022232741E+03  0.19083314673E+03  0.59470588306E+03  0.12648198009E+04  0.10122181092E+04 0.  0.
    9000010    2    1    2  502    0  0.43022232741E+03 -0.19083314673E+03 -0.27318229078E+03  0.10377631120E+04  0.88363746620E+03 0.  0.
        -13    1    4    4    0    0  0.45416721641E+03 -0.50023736634E+03 -0.10186907378E+03  0.68328808163E+03  0.10566000000E+00 0.  1.
          4    1    4    4  502    0 -0.23944889003E+02  0.30940421960E+03 -0.17131321700E+03  0.35447503034E+03  0.00000000000E+00 0.  1.
         13    1    3    3    0    0 -0.34028824827E+03  0.31558627672E+03 -0.16282462012E+03  0.49183600727E+03  0.10566000000E+00 0. -1.
         -4    1    3    3    0  501 -0.89934079140E+02 -0.12475312999E+03  0.75753050318E+03  0.77298379368E+03  0.00000000000E+00 0. -1.
<mgrwt>
<rscale>  0 0.10571575E+04</rscale>
<asrwt>0</asrwt>
<pdfrwt beam="2">  1        4 0.15238918E+00 0.10011612E+04</pdfrwt>
<pdfrwt beam="1">  1       -4 0.20185435E+00 0.11162858E+04</pdfrwt>
<totfact> 0.26123482E-01</totfact>
</mgrwt>
</event>
<event>
 8    1  0.3025584E-006  0.1031108E+04  0.7818608E-02  0.8747040E-01
         -4   -1    0    0    0  501 -0.00000000000E+00  0.00000000000E+00  0.22908784188E+04  0.22908784188E+04  0.00000000000E+00 0. -1.
          4   -1    0    0  502    0  0.00000000000E+00 -0.00000000000E+00 -0.13284322339E+04  0.13284322339E+04  0.00000000000E+00 0.  1.
   -9000010    2    1    2    0  501  0.50680568320E+02 -0.25398882843E+03  0.19420964949E+04  0.21988455657E+04  0.99805018984E+03 0.  0.
    9000010    2    1    2  502    0 -0.50680568320E+02  0.25398882843E+03 -0.97965031009E+03  0.14204650869E+04  0.99545340833E+03 0.  0.
        -13    1    4    4    0    0 -0.25496182815E+03 -0.32579650338E+03 -0.40684827633E+03  0.58023652637E+03  0.10566000000E+00 0.  1.
          4    1    4    4  502    0  0.20428125983E+03  0.57978533181E+03 -0.57280203376E+03  0.84022856056E+03  0.00000000000E+00 0.  1.
         13    1    3    3    0    0  0.38809739631E+03 -0.11294536285E+02  0.26270723208E+03  0.46878807208E+03  0.10566000000E+00 0. -1.
         -4    1    3    3    0  501 -0.33741682799E+03 -0.24269429215E+03  0.16793892628E+04  0.17300574937E+04  0.00000000000E+00 0. -1.
<mgrwt>
<rscale>  0 0.10298502E+04</rscale>
<asrwt>0</asrwt>
<pdfrwt beam="2">  1        4 0.20437419E+00 0.10285943E+04</pdfrwt>
<pdfrwt beam="1">  1       -4 0.35244283E+00 0.10311077E+04</pdfrwt>
<totfact> 0.70359024E-02</totfact>
</mgrwt>
</event>
<event>
 8    1  0.3025584E-006  0.1387639E+04  0.7818608E-02  0.8478263E-01
          4   -1    0    0  502    0  0.00000000000E+00  0.00000000000E+00  0.21038019532E+04  0.21038019532E+04  0.00000000000E+00 0.  1.
         -4   -1    0    0    0  501 -0.00000000000E+00 -0.00000000000E+00 -0.16773250900E+04  0.16773250900E+04  0.00000000000E+00 0. -1.
   -9000010    2    1    2    0  501 -0.94455644670E+03 -0.98122218376E+02 -0.10627042421E+04  0.17478221921E+04  0.10117940789E+04 0.  0.
    9000010    2    1    2  502    0  0.94455644670E+03  0.98122218376E+02  0.14891811053E+04  0.20333048511E+04  0.10073993262E+04 0.  0.
        -13    1    4    4    0    0  0.10378112636E+04 -0.19420835648E+03  0.12921041627E+04  0.16686228702E+04  0.10566000000E+00 0.  1.
          4    1    4    4  502    0 -0.93254816949E+02  0.29233057486E+03  0.19707694262E+03  0.36468198090E+03  0.00000000000E+00 0.  1.
         13    1    3    3    0    0 -0.24809668796E+03 -0.23741134608E+03  0.12376396624E+03  0.36501184135E+03  0.10566000000E+00 0. -1.
         -4    1    3    3    0  501 -0.69645975874E+03  0.13928912770E+03 -0.11864682084E+04  0.13828103507E+04  0.00000000000E+00 0. -1.
<mgrwt>
<rscale>  0 0.13860375E+04</rscale>
<asrwt>0</asrwt>
<pdfrwt beam="1">  1        4 0.32366184E+00 0.13844379E+04</pdfrwt>
<pdfrwt beam="2">  1       -4 0.25805002E+00 0.13876390E+04</pdfrwt>
<totfact> 0.61218694E-02</totfact>
</mgrwt>
</event>
<event>
 8    1  0.3025584E-006  0.1355963E+04  0.7818608E-02  0.8500594E-01
         -4   -1    0    0    0  501 -0.00000000000E+00  0.00000000000E+00  0.16798161869E+04  0.16798161869E+04  0.00000000000E+00 0.  1.
          4   -1    0    0  502    0  0.00000000000E+00 -0.00000000000E+00 -0.10877404110E+04  0.10877404110E+04  0.00000000000E+00 0. -1.
   -9000010    2    1    2    0  501 -0.81811551975E+03  0.40357756775E+03  0.25929136394E+03  0.13713542503E+04  0.99055167026E+03 0.  0.
    9000010    2    1    2  502    0  0.81811551975E+03 -0.40357756775E+03  0.33278441198E+03  0.13962023477E+04  0.10032186571E+04 0.  0.
        -13    1    4    4    0    0  0.13803076851E+03 -0.19218877901E+02 -0.33859600974E+03  0.36615451288E+03  0.10566000000E+00 0.  1.
          4    1    4    4  502    0  0.68008475125E+03 -0.38435868985E+03  0.67138042172E+03  0.10300478348E+04  0.00000000000E+00 0.  1.
         13    1    3    3    0    0 -0.98126461846E+03  0.45484540836E+03  0.39666039935E+03  0.11520000349E+04  0.10566000000E+00 0. -1.
         -4    1    3    3    0  501  0.16314909870E+03 -0.51267840610E+02 -0.13736903541E+03  0.21935421532E+03  0.00000000000E+00 0. -1.
<mgrwt>
<rscale>  0 0.13512825E+04</rscale>
<asrwt>0</asrwt>
<pdfrwt beam="2">  1        4 0.16734468E+00 0.13559630E+04</pdfrwt>
<pdfrwt beam="1">  1       -4 0.25843326E+00 0.13466182E+04</pdfrwt>
<totfact> 0.16350144E-01</totfact>
</mgrwt>
</event>
<event>
 8    1  0.3025584E-006  0.1064190E+04  0.7818608E-02  0.8741150E-01
         -4   -1    0    0    0  501 -0.00000000000E+00  0.00000000000E+00  0.19900810811E+04  0.19900810811E+04  0.00000000000E+00 0. -1.
          4   -1    0    0  502    0  0.00000000000E+00 -0.00000000000E+00 -0.82955515315E+03  0.82955515315E+03  0.00000000000E+00 0.  1.
   -9000010    2    1    2    0  501 -0.31688963093E+03  0.11723331439E+03  0.14028678471E+04  0.17282009910E+04  0.95104036746E+03 0.  0.
    9000010    2    1    2  502    0  0.31688963093E+03 -0.11723331439E+03 -0.24234191918E+03  0.10914352432E+04  0.10091276412E+04 0.  0.
        -13    1    4    4    0    0  0.25391826217E+03 -0.37174850628E+03  0.26353289195E+03  0.52165221373E+03  0.10566000000E+00 0.  1.
          4    1    4    4  502    0  0.62971368763E+02  0.25451519190E+03 -0.50587481113E+03  0.56978302952E+03  0.00000000000E+00 0.  1.
         13    1    3    3    0    0 -0.26594510644E+03  0.23881519374E+03  0.15141005591E+04  0.15557184870E+04  0.10566000000E+00 0. -1.
         -4    1    3    3    0  501 -0.50944524493E+02 -0.12158187936E+03 -0.11123271201E+03  0.17248250400E+03  0.00000000000E+00 0. -1.
<mgrwt>
<rscale>  0 0.10363702E+04</rscale>
<asrwt>0</asrwt>
<pdfrwt beam="2">  1        4 0.12762387E+00 0.10641904E+04</pdfrwt>
<pdfrwt beam="1">  1       -4 0.30616632E+00 0.10092772E+04</pdfrwt>
<totfact> 0.18854331E-01</totfact>
</mgrwt>
</event>
<event>
 8    1  0.3025584E-006  0.1045552E+04  0.7818608E-02  0.8830642E-01
         -4   -1    0    0    0  501 -0.00000000000E+00  0.00000000000E+00  0.13716190356E+04  0.13716190356E+04  0.00000000000E+00 0. -1.
          4   -1    0    0  502    0  0.00000000000E+00 -0.00000000000E+00 -0.10502850546E+04  0.10502850546E+04  0.00000000000E+00 0.  1.
   -9000010    2    1    2    0  501 -0.25763253058E+03 -0.20052220260E+02  0.91186096460E+03  0.13873248140E+04  0.10131155455E+04 0.  0.
    9000010    2    1    2  502    0  0.25763253058E+03  0.20052220260E+02 -0.59052698358E+03  0.10345792762E+04  0.80923145514E+03 0.  0.
        -13    1    4    4    0    0 -0.40964985053E+02 -0.67415353098E+02 -0.70023142624E+03  0.70466092647E+03  0.10566000000E+00 0.  1.
          4    1    4    4  502    0  0.29859751564E+03  0.87467573358E+02  0.10970444265E+03  0.32991834970E+03  0.00000000000E+00 0.  1.
         13    1    3    3    0    0 -0.13081237627E+03  0.47890578726E+03  0.62431890557E+03  0.79764449341E+03  0.10566000000E+00 0. -1.
         -4    1    3    3    0  501 -0.12682015431E+03 -0.49895800752E+03  0.28754205903E+03  0.58968032062E+03  0.00000000000E+00 0. -1.
<mgrwt>
<rscale>  0 0.94243599E+03</rscale>
<asrwt>0</asrwt>
<pdfrwt beam="2">  1        4 0.16158232E+00 0.84948935E+03</pdfrwt>
<pdfrwt beam="1">  1       -4 0.21101831E+00 0.10455524E+04</pdfrwt>
<totfact> 0.22751349E-01</totfact>
</mgrwt>
</event>
<event>
 8    1  0.3025584E-006  0.1112793E+04  0.7818608E-02  0.8676417E-01
          4   -1    0    0  502    0  0.00000000000E+00  0.00000000000E+00  0.24885978518E+04  0.24885978518E+04  0.00000000000E+00 0.  1.
         -4   -1    0    0    0  501 -0.00000000000E+00 -0.00000000000E+00 -0.10803520328E+04  0.10803520328E+04  0.00000000000E+00 0. -1.
   -9000010    2    1    2    0  501  0.45292012026E+03  0.16227765461E+03 -0.60824401008E+03  0.12657913314E+04  0.10003980440E+04 0.  0.
    9000010    2    1    2  502    0 -0.45292012026E+03 -0.16227765461E+03  0.20164898291E+04  0.23031585531E+04  0.10034128848E+04 0.  0.
        -13    1    4    4    0    0 -0.53799782994E+03  0.31031145501E+03  0.12985971777E+04  0.14394754271E+04  0.10566000000E+00 0.  1.
          4    1    4    4  502    0  0.85077709678E+02 -0.47258910962E+03  0.71789265146E+03  0.86368312606E+03  0.00000000000E+00 0.  1.
         13    1    3    3    0    0  0.44540074407E+03 -0.36519062171E+03 -0.38605656068E+03  0.69338711569E+03  0.10566000000E+00 0. -1.
         -4    1    3    3    0  501  0.75193761919E+01  0.52746827632E+03 -0.22218744939E+03  0.57240421575E+03  0.00000000000E+00 0. -1.
<mgrwt>
<rscale>  0 0.11114332E+04</rscale>
<asrwt>0</asrwt>
<pdfrwt beam="1">  1        4 0.38286121E+00 0.11127929E+04</pdfrwt>
<pdfrwt beam="2">  1       -4 0.16620801E+00 0.11100752E+04</pdfrwt>
<totfact> 0.71406335E-02</totfact>
</mgrwt>
</event>
<event>
 8    1  0.3025584E-006  0.1110974E+04  0.7818608E-02  0.8685809E-01
         -4   -1    0    0    0  501 -0.00000000000E+00  0.00000000000E+00  0.22411469935E+04  0.22411469935E+04  0.00000000000E+00 0. -1.
          4   -1    0    0  502    0  0.00000000000E+00 -0.00000000000E+00 -0.77669777547E+03  0.77669777547E+03  0.00000000000E+00 0.  1.
   -9000010    2    1    2    0  501  0.16049972055E+03  0.44946710327E+03  0.15600330128E+04  0.19027665655E+04  0.97930422481E+03 0.  0.
    9000010    2    1    2  502    0 -0.16049972055E+03 -0.44946710327E+03 -0.95583794713E+02  0.11150782035E+04  0.10032359148E+04 0.  0.
        -13    1    4    4    0    0  0.14618915289E+02 -0.14823614927E+03 -0.53438860395E+03  0.55476018227E+03  0.10566000000E+00 0.  1.
          4    1    4    4  502    0 -0.17511863584E+03 -0.30123095400E+03  0.43880480924E+03  0.56031802119E+03  0.00000000000E+00 0.  1.
         13    1    3    3    0    0  0.65414812254E+02 -0.31353360071E+03  0.44129037600E+03  0.54527022985E+03  0.10566000000E+00 0. -1.
         -4    1    3    3    0  501  0.95084908294E+02  0.76300070399E+03  0.11187426368E+04  0.13574963357E+04  0.00000000000E+00 0. -1.
<mgrwt>
<rscale>  0 0.11001399E+04</rscale>
<asrwt>0</asrwt>
<pdfrwt beam="2">  1        4 0.11949197E+00 0.11109740E+04</pdfrwt>
<pdfrwt beam="1">  1       -4 0.34479184E+00 0.10894116E+04</pdfrwt>
<totfact> 0.16236632E-01</totfact>
</mgrwt>
</event>
<event>
 8    1  0.3025584E-006  0.1075207E+04  0.7818608E-02  0.8721174E-01
         -4   -1    0    0    0  501 -0.00000000000E+00  0.00000000000E+00  0.32508114025E+04  0.32508114025E+04  0.00000000000E+00 0. -1.
          4   -1    0    0  502    0  0.00000000000E+00 -0.00000000000E+00 -0.29868357663E+04  0.29868357663E+04  0.00000000000E+00 0.  1.
   -9000010    2    1    2    0  501 -0.15492223034E+03  0.26830318910E+03  0.30649056250E+04  0.32374340515E+04  0.99566322062E+03 0.  0.
    9000010    2    1    2  502    0  0.15492223034E+03 -0.26830318910E+03 -0.28009299887E+04  0.30002131173E+04  0.10296030539E+04 0.  0.
        -13    1    4    4    0    0  0.48849651119E+03  0.89950996809E+02 -0.20066188544E+04  0.20671814776E+04  0.10566000000E+00 0.  1.
          4    1    4    4  502    0 -0.33357428086E+03 -0.35825418591E+03 -0.79431113432E+03  0.93303163969E+03  0.00000000000E+00 0.  1.
         13    1    3    3    0    0  0.11047726530E+03  0.27029578091E+03  0.29209326282E+04  0.29354918608E+04  0.10566000000E+00 0. -1.
         -4    1    3    3    0  501 -0.26539949564E+03 -0.19925918045E+01  0.14397299682E+03  0.30194219070E+03  0.00000000000E+00 0. -1.
<mgrwt>
<rscale>  0 0.10588554E+04</rscale>
<asrwt>0</asrwt>
<pdfrwt beam="2">  1        4 0.45951319E+00 0.10752069E+04</pdfrwt>
<pdfrwt beam="1">  1       -4 0.50012483E+00 0.10427525E+04</pdfrwt>
<totfact> 0.24614222E-03</totfact>
</mgrwt>
</event>
<event>
 8    1  0.3025584E-006  0.1219080E+04  0.7818608E-02  0.8595842E-01
         -4   -1    0    0    0  501 -0.00000000000E+00  0.00000000000E+00  0.85976665508E+03  0.85976665508E+03  0.00000000000E+00 0. -1.
          4   -1    0    0  502    0  0.00000000000E+00 -0.00000000000E+00 -0.22518710483E+04  0.22518710483E+04  0.00000000000E+00 0.  1.
   -9000010    2    1    2    0  501 -0.38370270084E+03 -0.56705182584E+03  0.65555822964E+02  0.12113931589E+04  0.99719621127E+03 0.  0.
    9000010    2    1    2  502    0  0.38370270084E+03  0.56705182584E+03 -0.14576602161E+04  0.19002445444E+04  0.10086528079E+04 0.  0.
        -13    1    4    4    0    0 -0.20237333455E+03 -0.17663661760E+03 -0.38511947394E+03  0.46954497291E+03  0.10566000000E+00 0.  1.
          4    1    4    4  502    0  0.58607603539E+03  0.74368844344E+03 -0.10725407422E+04  0.14306995715E+04  0.00000000000E+00 0.  1.
         13    1    3    3    0    0 -0.20938131985E+03 -0.85095714704E+03  0.39623112551E+02  0.87723349538E+03  0.10566000000E+00 0. -1.
         -4    1    3    3    0  501 -0.17432138100E+03  0.28390532120E+03  0.25932710413E+02  0.33415966356E+03  0.00000000000E+00 0. -1.
<mgrwt>
<rscale>  0 0.12143398E+04</rscale>
<asrwt>0</asrwt>
<pdfrwt beam="2">  1        4 0.34644170E+00 0.12190800E+04</pdfrwt>
<pdfrwt beam="1">  1       -4 0.13227179E+00 0.12096180E+04</pdfrwt>
<totfact> 0.13452186E-01</totfact>
</mgrwt>
</event>
<event>
 8    1  0.3025584E-006  0.1464187E+04  0.7818608E-02  0.8448998E-01
          4   -1    0    0  502    0  0.00000000000E+00  0.00000000000E+00  0.19449444455E+04  0.19449444455E+04  0.00000000000E+00 0.  1.
         -4   -1    0    0    0  501 -0.00000000000E+00 -0.00000000000E+00 -0.30217455602E+04  0.30217455602E+04  0.00000000000E+00 0. -1.
   -9000010    2    1    2    0  501 -0.79312984861E+03 -0.57477447340E+03 -0.25449072348E+04  0.29360512819E+04  0.10883122915E+04 0.  0.
    9000010    2    1    2  502    0  0.79312984861E+03  0.57477447340E+03  0.14681061202E+04  0.20306387238E+04  0.10043591960E+04 0.  0.
        -13    1    4    4    0    0  0.60024761466E+03 -0.17621482304E+03  0.70924731358E+03  0.94571699030E+03  0.10566000000E+00 0.  1.
          4    1    4    4  502    0  0.19288223395E+03  0.75098929644E+03  0.75885880659E+03  0.10849217335E+04  0.00000000000E+00 0.  1.
         13    1    3    3    0    0 -0.35327378462E+03  0.11261892784E+03 -0.13981056012E+03  0.39627313016E+03  0.10566000000E+00 0. -1.
         -4    1    3    3    0  501 -0.43985606399E+03 -0.68739340124E+03 -0.24050966747E+04  0.25397781517E+04  0.00000000000E+00 0. -1.
<mgrwt>
<rscale>  0 0.14332215E+04</rscale>
<asrwt>0</asrwt>
<pdfrwt beam="1">  1        4 0.29922222E+00 0.14029106E+04</pdfrwt>
<pdfrwt beam="2">  1       -4 0.46488393E+00 0.14641872E+04</pdfrwt>
<totfact> 0.13280230E-02</totfact>
</mgrwt>
</event>
<event>
 8    1  0.3025584E-006  0.1102707E+04  0.7818608E-02  0.8688239E-01
          4   -1    0    0  502    0  0.00000000000E+00  0.00000000000E+00  0.32591144281E+04  0.32591144281E+04  0.00000000000E+00 0.  1.
         -4   -1    0    0    0  501 -0.00000000000E+00 -0.00000000000E+00 -0.47469623210E+03  0.47469623210E+03  0.00000000000E+00 0. -1.
   -9000010    2    1    2    0  501  0.71467499316E+02  0.47663601471E+03  0.51840126176E+03  0.12184836100E+04  0.99180287642E+03 0.  0.
    9000010    2    1    2  502    0 -0.71467499316E+02 -0.47663601471E+03  0.22660169343E+04  0.25153270502E+04  0.97966725434E+03 0.  0.
        -13    1    4    4    0    0 -0.29694027718E+03 -0.69405498715E+03  0.13432124669E+04  0.15408132903E+04  0.10566000000E+00 0.  1.
          4    1    4    4  502    0  0.22547277786E+03  0.21741897245E+03  0.92280446739E+03  0.97451375987E+03  0.00000000000E+00 0.  1.
         13    1    3    3    0    0  0.19872680960E+03  0.72091512341E+03  0.15703779499E+03  0.76411507002E+03  0.10566000000E+00 0. -1.
         -4    1    3    3    0  501 -0.12725931028E+03 -0.24427910870E+03  0.36136346678E+03  0.45436853998E+03  0.00000000000E+00 0. -1.
<mgrwt>
<rscale>  0 0.10972422E+04</rscale>
<asrwt>0</asrwt>
<pdfrwt beam="1">  1        4 0.50140220E+00 0.10918047E+04</pdfrwt>
<pdfrwt beam="2">  1       -4 0.73030192E-01 0.11027069E+04</pdfrwt>
<totfact> 0.92331693E-02</totfact>
</mgrwt>
</event>
<event>
 8    1  0.3025584E-006  0.1086721E+04  0.7818608E-02  0.8701122E-01
         -4   -1    0    0    0  501 -0.00000000000E+00  0.00000000000E+00  0.14471134017E+04  0.14471134017E+04  0.00000000000E+00 0. -1.
          4   -1    0    0  502    0  0.00000000000E+00 -0.00000000000E+00 -0.29109605824E+04  0.29109605824E+04  0.00000000000E+00 0.  1.
   -9000010    2    1    2    0  501 -0.35362324707E+03 -0.19385316882E+03  0.11205736300E+04  0.15544701448E+04  0.99903139025E+03 0.  0.
    9000010    2    1    2  502    0  0.35362324707E+03  0.19385316882E+03 -0.25844208107E+04  0.28036038394E+04  0.10091259136E+04 0.  0.
        -13    1    4    4    0    0 -0.23602594804E+03  0.31710418005E+03 -0.52064035507E+03  0.65370459662E+03  0.10566000000E+00 0.  1.
          4    1    4    4  502    0  0.58964919511E+03 -0.12325101123E+03 -0.20637804556E+04  0.21498992428E+04  0.00000000000E+00 0.  1.
         13    1    3    3    0    0  0.23111454098E+03 -0.64623783027E+02  0.87485293445E+03  0.90717023346E+03  0.10566000000E+00 0. -1.
         -4    1    3    3    0  501 -0.58473778806E+03 -0.12922938579E+03  0.24572069557E+03  0.64729991130E+03  0.00000000000E+00 0. -1.
<mgrwt>
<rscale>  0 0.10820277E+04</rscale>
<asrwt>0</asrwt>
<pdfrwt beam="2">  1        4 0.44784009E+00 0.10867215E+04</pdfrwt>
<pdfrwt beam="1">  1       -4 0.22263283E+00 0.10773542E+04</pdfrwt>
<totfact> 0.26065567E-02</totfact>
</mgrwt>
</event>
<event>
 8    1  0.3025584E-006  0.1140093E+04  0.7818608E-02  0.8659384E-01
          4   -1    0    0  502    0  0.00000000000E+00  0.00000000000E+00  0.63854425582E+03  0.63854425582E+03  0.00000000000E+00 0. -1.
         -4   -1    0    0    0  501 -0.00000000000E+00 -0.00000000000E+00 -0.22972941471E+04  0.22972941471E+04  0.00000000000E+00 0.  1.
   -9000010    2    1    2    0  501 -0.16808523705E+03 -0.50307029043E+03 -0.13553914660E+04  0.17711287647E+04  0.10091970625E+04 0.  0.
    9000010    2    1    2  502    0  0.16808523705E+03  0.50307029043E+03 -0.30335842525E+03  0.11647096382E+04  0.99155929883E+03 0.  0.
        -13    1    4    4    0    0 -0.31685778650E+03  0.48827571156E+03 -0.34687303941E+03  0.67759349465E+03  0.10566000000E+00 0.  1.
          4    1    4    4  502    0  0.48494302355E+03  0.14794578868E+02  0.43514614162E+02  0.48711614354E+03  0.00000000000E+00 0.  1.
         13    1    3    3    0    0  0.26510291665E+02 -0.26013755972E+03 -0.14278078945E+04  0.14515542498E+04  0.10566000000E+00 0. -1.
         -4    1    3    3    0  501 -0.19459552872E+03 -0.24293273070E+03  0.72416428458E+02  0.31957451487E+03  0.00000000000E+00 0. -1.
<mgrwt>
<rscale>  0 0.11322744E+04</rscale>
<asrwt>0</asrwt>
<pdfrwt beam="1">  1        4 0.98237578E-01 0.11245098E+04</pdfrwt>
<pdfrwt beam="2">  1       -4 0.35342987E+00 0.11400926E+04</pdfrwt>
<totfact> 0.21558738E-01</totfact>
</mgrwt>
</event>
<event>
 8    1  0.3025584E-006  0.1065355E+04  0.7818608E-02  0.8729998E-01
          4   -1    0    0  502    0  0.00000000000E+00  0.00000000000E+00  0.35892109599E+04  0.35892109599E+04  0.00000000000E+00 0.  1.
         -4   -1    0    0    0  501 -0.00000000000E+00 -0.00000000000E+00 -0.50979396317E+03  0.50979396317E+03  0.00000000000E+00 0. -1.
   -9000010    2    1    2    0  501  0.67351985354E+02 -0.33970719835E+03  0.26025690462E+03  0.10966840241E+04  0.10074943780E+04 0.  0.
    9000010    2    1    2  502    0 -0.67351985354E+02  0.33970719835E+03  0.28191600921E+04  0.30023208989E+04  0.97279488326E+03 0.  0.
        -13    1    4    4    0    0  0.24866405273E+03 -0.92116960604E+02  0.20834877718E+03  0.33723666714E+03  0.10566000000E+00 0.  1.
          4    1    4    4  502    0 -0.31601603808E+03  0.43182415895E+03  0.26108113149E+04  0.26650842318E+04  0.00000000000E+00 0.  1.
         13    1    3    3    0    0 -0.39988443639E+03 -0.42516428715E+03  0.20438664367E+03  0.61842230297E+03  0.10566000000E+00 0. -1.
         -4    1    3    3    0  501  0.46723642174E+03  0.85457088800E+02  0.55870260948E+02  0.47826172112E+03  0.00000000000E+00 0. -1.
<mgrwt>
<rscale>  0 0.10488509E+04</rscale>
<asrwt>0</asrwt>
<pdfrwt beam="1">  1        4 0.55218628E+00 0.10326021E+04</pdfrwt>
<pdfrwt beam="2">  1       -4 0.78429843E-01 0.10653554E+04</pdfrwt>
<totfact> 0.46002270E-02</totfact>
</mgrwt>
</event>
<event>
 8    1  0.3025584E-006  0.1068532E+04  0.7818608E-02  0.8715363E-01
          4   -1    0    0  502    0  0.00000000000E+00  0.00000000000E+00  0.24737229761E+04  0.24737229761E+04  0.00000000000E+00 0.  1.
         -4   -1    0    0    0  501 -0.00000000000E+00 -0.00000000000E+00 -0.34243129385E+04  0.34243129385E+04  0.00000000000E+00 0. -1.
   -9000010    2    1    2    0  501  0.29532957965E+03 -0.23536336297E+03 -0.32194005100E+04  0.33901956376E+04  0.99311194936E+03 0.  0.
    9000010    2    1    2  502    0 -0.29532957965E+03  0.23536336297E+03  0.22688105476E+04  0.25078402770E+04  0.99957294941E+03 0.  0.
        -13    1    4    4    0    0 -0.36826646947E+03  0.54079194687E+03  0.95910459739E+03  0.11610158320E+04  0.10566000000E+00 0.  1.
          4    1    4    4  502    0  0.72936889823E+02 -0.30542858390E+03  0.13097059502E+04  0.13468244450E+04  0.00000000000E+00 0.  1.
         13    1    3    3    0    0 -0.27012563042E+03 -0.30118265838E+02 -0.21167525268E+04  0.21341312605E+04  0.10566000000E+00 0. -1.
         -4    1    3    3    0  501  0.56545521007E+03 -0.20524509713E+03 -0.11026479831E+04  0.12560643770E+04  0.00000000000E+00 0. -1.
<mgrwt>
<rscale>  0 0.10655074E+04</rscale>
<asrwt>0</asrwt>
<pdfrwt beam="1">  1        4 0.38057277E+00 0.10685324E+04</pdfrwt>
<pdfrwt beam="2">  1       -4 0.52681737E+00 0.10624909E+04</pdfrwt>
<totfact> 0.39864932E-03</totfact>
</mgrwt>
</event>
<event>
 8    1  0.3025584E-006  0.1219997E+04  0.7818608E-02  0.8605080E-01
          4   -1    0    0  502    0  0.00000000000E+00  0.00000000000E+00  0.25196564446E+04  0.25196564446E+04  0.00000000000E+00 0.  1.
         -4   -1    0    0    0  501 -0.00000000000E+00 -0.00000000000E+00 -0.90346497410E+03  0.90346497410E+03  0.00000000000E+00 0. -1.
   -9000010    2    1    2    0  501  0.60031292619E+03  0.34014578801E+03 -0.21853396212E+03  0.12394152836E+04  0.10061403412E+04 0.  0.
    9000010    2    1    2  502    0 -0.60031292619E+03 -0.34014578801E+03  0.18347254327E+04  0.21837061351E+04  0.96243457173E+03 0.  0.
        -13    1    4    4    0    0 -0.58799457297E+03  0.51643905801E+02  0.44348083435E+03  0.73829531520E+03  0.10566000000E+00 0.  1.
          4    1    4    4  502    0 -0.12318353220E+02 -0.39178969381E+03  0.13912445983E+04  0.14454108199E+04  0.00000000000E+00 0.  1.
         13    1    3    3    0    0 -0.15477724392E+03 -0.16574895437E+03  0.13530144742E+03  0.26407423947E+03  0.10566000000E+00 0. -1.
         -4    1    3    3    0  501  0.75509017012E+03  0.50589474238E+03 -0.35383540954E+03  0.97534104416E+03  0.00000000000E+00 0. -1.
<mgrwt>
<rscale>  0 0.12019708E+04</rscale>
<asrwt>0</asrwt>
<pdfrwt beam="1">  1        4 0.38763945E+00 0.11842107E+04</pdfrwt>
<pdfrwt beam="2">  1       -4 0.13899461E+00 0.12199972E+04</pdfrwt>
<totfact> 0.88312131E-02</totfact>
</mgrwt>
</event>
<event>
 8    1  0.3025584E-006  0.1096179E+04  0.7818608E-02  0.8693538E-01
          4   -1    0    0  502    0  0.00000000000E+00  0.00000000000E+00  0.13698032016E+04  0.13698032016E+04  0.00000000000E+00 0.  1.
         -4   -1    0    0    0  501 -0.00000000000E+00 -0.00000000000E+00 -0.14197797174E+04  0.14197797174E+04  0.00000000000E+00 0. -1.
   -9000010    2    1    2    0  501  0.19505922030E+02 -0.40746252589E+03 -0.89373398933E+03  0.14062769166E+04  0.10062048158E+04 0.  0.
    9000010    2    1    2  502    0 -0.19505922030E+02  0.40746252589E+03  0.84375747349E+03  0.13833060025E+04  0.10174490805E+04 0.  0.
        -13    1    4    4    0    0 -0.15609047739E+03  0.66548286329E+03  0.26131002000E+03  0.73178864174E+03  0.10566000000E+00 0.  1.
          4    1    4    4  502    0  0.13658455536E+03 -0.25802033740E+03  0.58244745350E+03  0.65151736075E+03  0.00000000000E+00 0.  1.
         13    1    3    3    0    0 -0.28351488725E+03 -0.51413355323E+03 -0.16498678128E+03  0.60986445298E+03  0.10566000000E+00 0. -1.
         -4    1    3    3    0  501  0.30302080928E+03  0.10667102733E+03 -0.72874720805E+03  0.79641246359E+03  0.00000000000E+00 0. -1.
<mgrwt>
<rscale>  0 0.10909524E+04</rscale>
<asrwt>0</asrwt>
<pdfrwt beam="1">  1        4 0.21073896E+00 0.10961792E+04</pdfrwt>
<pdfrwt beam="2">  1       -4 0.21842765E+00 0.10857506E+04</pdfrwt>
<totfact> 0.15203385E-01</totfact>
</mgrwt>
</event>
<event>
 8    1  0.3025584E-006  0.1089685E+04  0.7818608E-02  0.8698626E-01
         -4   -1    0    0    0  501 -0.00000000000E+00  0.00000000000E+00  0.32891424730E+04  0.32891424730E+04  0.00000000000E+00 0. -1.
          4   -1    0    0  502    0  0.00000000000E+00 -0.00000000000E+00 -0.62348086932E+03  0.62348086932E+03  0.00000000000E+00 0.  1.
   -9000010    2    1    2    0  501  0.32429100003E+03  0.21350631223E+03  0.26063265288E+04  0.28213236046E+04  0.10080571954E+04 0.  0.
    9000010    2    1    2  502    0 -0.32429100003E+03 -0.21350631223E+03  0.59335074874E+02  0.10912997377E+04  0.10181674068E+04 0.  0.
        -13    1    4    4    0    0 -0.62925819108E+03 -0.95030992533E+02 -0.20722870654E+03  0.66928357858E+03  0.10566000000E+00 0.  1.
          4    1    4    4  502    0  0.30496719104E+03 -0.11847531969E+03  0.26656378141E+03  0.42201615911E+03  0.00000000000E+00 0.  1.
         13    1    3    3    0    0 -0.33651783947E+03  0.20350033475E+03  0.12867038610E+04  0.13454603226E+04  0.10566000000E+00 0. -1.
         -4    1    3    3    0  501  0.66080883950E+03  0.10005977477E+02  0.13196226678E+04  0.14758632820E+04  0.00000000000E+00 0. -1.
<mgrwt>
<rscale>  0 0.10849549E+04</rscale>
<asrwt>0</asrwt>
<pdfrwt beam="2">  1        4 0.95920135E-01 0.10896855E+04</pdfrwt>
<pdfrwt beam="1">  1       -4 0.50602191E+00 0.10802448E+04</pdfrwt>
<totfact> 0.50551154E-02</totfact>
</mgrwt>
</event>
<event>
 8    1  0.3025584E-006  0.1297062E+04  0.7818608E-02  0.8541410E-01
          4   -1    0    0  502    0  0.00000000000E+00  0.00000000000E+00  0.13055595428E+04  0.13055595428E+04  0.00000000000E+00 0.  1.
         -4   -1    0    0    0  501 -0.00000000000E+00 -0.00000000000E+00 -0.12760056858E+04  0.12760056858E+04  0.00000000000E+00 0. -1.
   -9000010    2    1    2    0  501 -0.44643095911E+03 -0.67345491915E+03  0.40203780987E+02  0.12844593660E+04  0.99768601756E+03 0.  0.
    9000010    2    1    2  502    0  0.44643095911E+03  0.67345491915E+03 -0.10649924016E+02  0.12971058626E+04  0.10146566259E+04 0.  0.
        -13    1    4    4    0    0  0.41140776341E+03  0.67224866704E+03 -0.41534890419E+03  0.89089244104E+03  0.10566000000E+00 0.  1.
          4    1    4    4  502    0  0.35023195704E+02  0.12062521074E+01  0.40469898017E+03  0.40621342153E+03  0.00000000000E+00 0.  1.
         13    1    3    3    0    0 -0.34718673458E+03 -0.29327651247E+03 -0.46116203746E+03  0.64747214410E+03  0.10566000000E+00 0. -1.
         -4    1    3    3    0  501 -0.99244224536E+02 -0.38017840668E+03  0.50136581845E+03  0.63698722194E+03  0.00000000000E+00 0. -1.
<mgrwt>
<rscale>  0 0.12904291E+04</rscale>
<asrwt>0</asrwt>
<pdfrwt beam="1">  1        4 0.20085531E+00 0.12970621E+04</pdfrwt>
<pdfrwt beam="2">  1       -4 0.19630857E+00 0.12838300E+04</pdfrwt>
<totfact> 0.18408708E-01</totfact>
</mgrwt>
</event>
<event>
 8    1  0.3025584E-006  0.1196976E+04  0.7818608E-02  0.8623712E-01
         -4   -1    0    0    0  501 -0.00000000000E+00  0.00000000000E+00  0.14431300995E+04  0.14431300995E+04  0.00000000000E+00 0. -1.
          4   -1    0    0  502    0  0.00000000000E+00 -0.00000000000E+00 -0.23070808841E+04  0.23070808841E+04  0.00000000000E+00 0.  1.
   -9000010    2    1    2    0  501 -0.56215543671E+03  0.84430613033E+02  0.10031856025E+04  0.15323405678E+04  0.10092269316E+04 0.  0.
    9000010    2    1    2  502    0  0.56215543671E+03 -0.84430613033E+02 -0.18671363871E+04  0.22178704157E+04  0.10533772494E+04 0.  0.
        -13    1    4    4    0    0 -0.10943917324E+02  0.41518713439E+03 -0.86893325438E+03  0.96309144821E+03  0.10566000000E+00 0.  1.
          4    1    4    4  502    0  0.57309935404E+03 -0.49961774742E+03 -0.99820313270E+03  0.12547789675E+04  0.00000000000E+00 0.  1.
         13    1    3    3    0    0 -0.83414989261E+03  0.18922179434E+03  0.64932557231E+03  0.10738876295E+04  0.10566000000E+00 0. -1.
         -4    1    3    3    0  501  0.27199445590E+03 -0.10479118131E+03  0.35386003015E+03  0.45845293832E+03  0.00000000000E+00 0. -1.
<mgrwt>
<rscale>  0 0.11774851E+04</rscale>
<asrwt>0</asrwt>
<pdfrwt beam="2">  1        4 0.35493552E+00 0.11969757E+04</pdfrwt>
<pdfrwt beam="1">  1       -4 0.22202002E+00 0.11583118E+04</pdfrwt>
<totfact> 0.61083965E-02</totfact>
</mgrwt>
</event>
<event>
 8    1  0.3025584E-006  0.1156041E+04  0.7818608E-02  0.8647907E-01
          4   -1    0    0  502    0  0.00000000000E+00  0.00000000000E+00  0.63426922118E+03  0.63426922118E+03  0.00000000000E+00 0.  1.
         -4   -1    0    0    0  501 -0.00000000000E+00 -0.00000000000E+00 -0.20872194407E+04  0.20872194407E+04  0.00000000000E+00 0. -1.
   -9000010    2    1    2    0  501 -0.25891394698E+03 -0.53596671926E+03 -0.83342381918E+03  0.14099078517E+04  0.96899336011E+03 0.  0.
    9000010    2    1    2  502    0  0.25891394698E+03  0.53596671926E+03 -0.61952640034E+03  0.13115808101E+04  0.99102699494E+03 0.  0.
        -13    1    4    4    0    0  0.11976458740E+03  0.12951566319E+03 -0.81909845260E+03  0.83787836207E+03  0.10566000000E+00 0.  1.
          4    1    4    4  502    0  0.13914935958E+03  0.40645105608E+03  0.19957205226E+03  0.47370244806E+03  0.00000000000E+00 0.  1.
         13    1    3    3    0    0 -0.56874855284E+02  0.39988050322E+02  0.19886773345E+03  0.21067078560E+03  0.10566000000E+00 0. -1.
         -4    1    3    3    0  501 -0.20203909170E+03 -0.57595476958E+03 -0.10322915526E+04  0.11992370661E+04  0.00000000000E+00 0. -1.
<mgrwt>
<rscale>  0 0.11465866E+04</rscale>
<asrwt>0</asrwt>
<pdfrwt beam="1">  1        4 0.97579881E-01 0.11560412E+04</pdfrwt>
<pdfrwt beam="2">  1       -4 0.32111068E+00 0.11372093E+04</pdfrwt>
<totfact> 0.27427762E-01</totfact>
</mgrwt>
</event>
<event>
 8    1  0.3025584E-006  0.1038140E+04  0.7818608E-02  0.8761621E-01
         -4   -1    0    0    0  501 -0.00000000000E+00  0.00000000000E+00  0.25794134165E+04  0.25794134165E+04  0.00000000000E+00 0. -1.
          4   -1    0    0  502    0  0.00000000000E+00 -0.00000000000E+00 -0.15597475404E+04  0.15597475404E+04  0.00000000000E+00 0.  1.
   -9000010    2    1    2    0  501  0.12281432926E+03  0.30532108725E+03  0.22983072942E+04  0.25218942372E+04  0.98459626208E+03 0.  0.
    9000010    2    1    2  502    0 -0.12281432926E+03 -0.30532108725E+03 -0.12786414182E+04  0.16172667197E+04  0.93398256977E+03 0.  0.
        -13    1    4    4    0    0  0.55798098572E+02 -0.58369097057E+03 -0.49742846689E+03  0.76892370738E+03  0.10566000000E+00 0.  1.
          4    1    4    4  502    0 -0.17861242784E+03  0.27836988333E+03 -0.78121295129E+03  0.84834301234E+03  0.00000000000E+00 0.  1.
         13    1    3    3    0    0 -0.26966788531E+03  0.52259566539E+03  0.13695470590E+04  0.14904650804E+04  0.10566000000E+00 0. -1.
         -4    1    3    3    0  501  0.39248221458E+03 -0.21727457814E+03  0.92876023521E+03  0.10314291568E+04  0.00000000000E+00 0. -1.
<mgrwt>
<rscale>  0 0.10139206E+04</rscale>
<asrwt>0</asrwt>
<pdfrwt beam="2">  1        4 0.23996116E+00 0.99026651E+03</pdfrwt>
<pdfrwt beam="1">  1       -4 0.39683283E+00 0.10381397E+04</pdfrwt>
<totfact> 0.39229084E-02</totfact>
</mgrwt>
</event>
<event>
 8    1  0.3025584E-006  0.1467016E+04  0.7818608E-02  0.8471042E-01
          4   -1    0    0  502    0  0.00000000000E+00  0.00000000000E+00  0.25596165581E+04  0.25596165581E+04  0.00000000000E+00 0.  1.
         -4   -1    0    0    0  501 -0.00000000000E+00 -0.00000000000E+00 -0.26960417947E+04  0.26960417947E+04  0.00000000000E+00 0. -1.
   -9000010    2    1    2    0  501 -0.10766315516E+04  0.66300867486E+02 -0.22906140830E+04  0.26493842349E+04  0.78025165410E+03 0.  0.
    9000010    2    1    2  502    0  0.10766315516E+04 -0.66300867486E+02  0.21541888464E+04  0.26062741179E+04  0.99428561747E+03 0.  0.
        -13    1    4    4    0    0  0.96369439124E+03 -0.13048461090E+03  0.83813178285E+03  0.12838216426E+04  0.10566000000E+00 0.  1.
          4    1    4    4  502    0  0.11293716033E+03  0.64183743416E+02  0.13160570635E+04  0.13224524753E+04  0.00000000000E+00 0.  1.
         13    1    3    3    0    0 -0.36349841891E+03 -0.30617792895E+03 -0.12264335627E+04  0.13153004675E+04  0.10566000000E+00 0. -1.
         -4    1    3    3    0  501 -0.71313313267E+03  0.37247879643E+03 -0.10641805203E+04  0.13340837674E+04  0.00000000000E+00 0. -1.
<mgrwt>
<rscale>  0 0.13975043E+04</rscale>
<asrwt>0</asrwt>
<pdfrwt beam="1">  1        4 0.39378717E+00 0.14670157E+04</pdfrwt>
<pdfrwt beam="2">  1       -4 0.41477566E+00 0.13312866E+04</pdfrwt>
<totfact> 0.11003036E-02</totfact>
</mgrwt>
</event>
<event>
 8    1  0.3025584E-006  0.1112385E+04  0.7818608E-02  0.8676885E-01
         -4   -1    0    0    0  501 -0.00000000000E+00  0.00000000000E+00  0.29252910444E+04  0.29252910444E+04  0.00000000000E+00 0. -1.
          4   -1    0    0  502    0  0.00000000000E+00 -0.00000000000E+00 -0.16518109270E+04  0.16518109270E+04  0.00000000000E+00 0.  1.
   -9000010    2    1    2    0  501  0.46492405990E+03 -0.58019090551E+02  0.26117771113E+04  0.28387988913E+04  0.10088998316E+04 0.  0.
    9000010    2    1    2  502    0 -0.46492405990E+03  0.58019090551E+02 -0.13382969939E+04  0.17383030801E+04  0.10055536575E+04 0.  0.
        -13    1    4    4    0    0  0.91070158287E+02  0.39189819339E+03 -0.79997283391E+03  0.89545212819E+03  0.10566000000E+00 0.  1.
          4    1    4    4  502    0 -0.55599421819E+03 -0.33387910284E+03 -0.53832415994E+03  0.84285095192E+03  0.00000000000E+00 0.  1.
         13    1    3    3    0    0  0.11581567907E+03 -0.48358355963E+02 -0.63615341911E+02  0.14070794221E+03  0.10566000000E+00 0. -1.
         -4    1    3    3    0  501  0.34910838084E+03 -0.96607345885E+01  0.26753924532E+04  0.26980909491E+04  0.00000000000E+00 0. -1.
<mgrwt>
<rscale>  0 0.11108666E+04</rscale>
<asrwt>0</asrwt>
<pdfrwt beam="2">  1        4 0.25412476E+00 0.11093506E+04</pdfrwt>
<pdfrwt beam="1">  1       -4 0.45004478E+00 0.11123846E+04</pdfrwt>
<totfact> 0.21258585E-02</totfact>
</mgrwt>
</event>
<event>
 8    1  0.3025584E-006  0.1327098E+04  0.7818608E-02  0.8519352E-01
          4   -1    0    0  502    0  0.00000000000E+00  0.00000000000E+00  0.19525216326E+04  0.19525216326E+04  0.00000000000E+00 0.  1.
         -4   -1    0    0    0  501 -0.00000000000E+00 -0.00000000000E+00 -0.10615405933E+04  0.10615405933E+04  0.00000000000E+00 0. -1.
   -9000010    2    1    2    0  501 -0.22728760930E+03 -0.82608399750E+03 -0.15025774492E+03  0.13272405066E+04  0.10024547592E+04 0.  0.
    9000010    2    1    2  502    0  0.22728760930E+03  0.82608399750E+03  0.10412387843E+04  0.16868217193E+04  0.10134667624E+04 0.  0.
        -13    1    4    4    0    0  0.61687401639E+02 -0.49274687687E+02 -0.16754259641E+03  0.18521302099E+03  0.10566000000E+00 0.  1.
          4    1    4    4  502    0  0.16560020766E+03  0.87535868518E+03  0.12087813807E+04  0.15016086983E+04  0.00000000000E+00 0.  1.
         13    1    3    3    0    0 -0.55431752063E+02  0.99718418922E+02 -0.34701195383E+03  0.36528584625E+03  0.10566000000E+00 0. -1.
         -4    1    3    3    0  501 -0.17185585723E+03 -0.92580241642E+03  0.19675420891E+03  0.96195466038E+03  0.00000000000E+00 0. -1.
<mgrwt>
<rscale>  0 0.13228962E+04</rscale>
<asrwt>0</asrwt>
<pdfrwt beam="1">  1        4 0.30038794E+00 0.13270981E+04</pdfrwt>
<pdfrwt beam="2">  1       -4 0.16331394E+00 0.13187077E+04</pdfrwt>
<totfact> 0.13242733E-01</totfact>
</mgrwt>
</event>
<event>
 8    1  0.3025584E-006  0.1005239E+04  0.7818608E-02  0.8769793E-01
         -4   -1    0    0    0  501 -0.00000000000E+00  0.00000000000E+00  0.17629942467E+04  0.17629942467E+04  0.00000000000E+00 0. -1.
          4   -1    0    0  502    0  0.00000000000E+00 -0.00000000000E+00 -0.17058408360E+04  0.17058408360E+04  0.00000000000E+00 0.  1.
   -9000010    2    1    2    0  501  0.69587541955E+02  0.19743162474E+03  0.14419606635E+04  0.17576376714E+04  0.98296386317E+03 0.  0.
    9000010    2    1    2  502    0 -0.69587541955E+02 -0.19743162474E+03 -0.13848072529E+04  0.17111974114E+04  0.98320078351E+03 0.  0.
        -13    1    4    4    0    0  0.44904413212E+03 -0.19917983471E+02 -0.52055112562E+03  0.68775783834E+03  0.10566000000E+00 0.  1.
          4    1    4    4  502    0 -0.51863167407E+03 -0.17751364127E+03 -0.86425612724E+03  0.10234395730E+04  0.00000000000E+00 0.  1.
         13    1    3    3    0    0  0.21930301338E+03 -0.64892771341E+02  0.14374839057E+04  0.14555634214E+04  0.10566000000E+00 0. -1.
         -4    1    3    3    0  501 -0.14971547142E+03  0.26232439608E+03  0.44767578639E+01  0.30207425002E+03  0.00000000000E+00 0. -1.
<mgrwt>
<rscale>  0 0.10051231E+04</rscale>
<asrwt>0</asrwt>
<pdfrwt beam="2">  1        4 0.26243705E+00 0.10052390E+04</pdfrwt>
<pdfrwt beam="1">  1       -4 0.27122988E+00 0.10050073E+04</pdfrwt>
<totfact> 0.85729182E-02</totfact>
</mgrwt>
</event>
<event>
 8    1  0.3025584E-006  0.1027912E+04  0.7818608E-02  0.8759870E-01
         -4   -1    0    0    0  501 -0.00000000000E+00  0.00000000000E+00  0.13225951323E+04  0.13225951323E+04  0.00000000000E+00 0. -1.
          4   -1    0    0  502    0  0.00000000000E+00 -0.00000000000E+00 -0.21775387640E+04  0.21775387640E+04  0.00000000000E+00 0.  1.
   -9000010    2    1    2    0  501 -0.17133345918E+02  0.23777806826E+03  0.97616987722E+03  0.14002338054E+04  0.97514876771E+03 0.  0.
    9000010    2    1    2  502    0  0.17133345918E+02 -0.23777806826E+03 -0.18311135088E+04  0.20999000909E+04  0.99988586770E+03 0.  0.
        -13    1    4    4    0    0  0.24608512765E+02  0.31407301260E+03 -0.18867279489E+03  0.36721229669E+03  0.10566000000E+00 0.  1.
          4    1    4    4  502    0 -0.74751668473E+01 -0.55185108086E+03 -0.16424407139E+04  0.17326877943E+04  0.00000000000E+00 0.  1.
         13    1    3    3    0    0 -0.43891636280E+03  0.35515706139E+03  0.58689745997E+03  0.81439103106E+03  0.10566000000E+00 0. -1.
         -4    1    3    3    0  501  0.42178301688E+03 -0.11737899313E+03  0.38927241725E+03  0.58584277429E+03  0.00000000000E+00 0. -1.
<mgrwt>
<rscale>  0 0.10158180E+04</rscale>
<asrwt>0</asrwt>
<pdfrwt beam="2">  1        4 0.33500596E+00 0.10279123E+04</pdfrwt>
<pdfrwt beam="1">  1       -4 0.20347618E+00 0.10038661E+04</pdfrwt>
<totfact> 0.80347182E-02</totfact>
</mgrwt>
</event>
<event>
 8    1  0.3025584E-006  0.1045332E+04  0.7818608E-02  0.8737717E-01
          4   -1    0    0  502    0  0.00000000000E+00  0.00000000000E+00  0.21154550183E+04  0.21154550183E+04  0.00000000000E+00 0.  1.
         -4   -1    0    0    0  501 -0.00000000000E+00 -0.00000000000E+00 -0.15995060857E+04  0.15995060857E+04  0.00000000000E+00 0. -1.
   -9000010    2    1    2    0  501  0.93738738250E+02  0.26407234253E+03 -0.12743942927E+04  0.16417876758E+04  0.99642601626E+03 0.  0.
    9000010    2    1    2  502    0 -0.93738738250E+02 -0.26407234253E+03  0.17903432253E+04  0.20731734282E+04  0.10070740022E+04 0.  0.
        -13    1    4    4    0    0 -0.36796692332E+02  0.34430294115E+02 -0.12452868873E+03  0.13433855441E+03  0.10566000000E+00 0.  1.
          4    1    4    4  502    0 -0.56942045919E+02 -0.29850263664E+03  0.19148719140E+04  0.19388348738E+04  0.00000000000E+00 0.  1.
         13    1    3    3    0    0 -0.45773886506E+01  0.63034425398E+03 -0.96359290168E+03  0.11514626014E+04  0.10566000000E+00 0. -1.
         -4    1    3    3    0  501  0.98316126901E+02 -0.36627191145E+03 -0.31080139101E+03  0.49032507439E+03  0.00000000000E+00 0. -1.
<mgrwt>
<rscale>  0 0.10401923E+04</rscale>
<asrwt>0</asrwt>
<pdfrwt beam="1">  1        4 0.32545462E+00 0.10453321E+04</pdfrwt>
<pdfrwt beam="2">  1       -4 0.24607786E+00 0.10350778E+04</pdfrwt>
<totfact> 0.66887585E-02</totfact>
</mgrwt>
</event>
<event>
 8    1  0.3025584E-006  0.1222596E+04  0.7818608E-02  0.8594129E-01
         -4   -1    0    0    0  501 -0.00000000000E+00  0.00000000000E+00  0.19502524267E+04  0.19502524267E+04  0.00000000000E+00 0. -1.
          4   -1    0    0  502    0  0.00000000000E+00 -0.00000000000E+00 -0.81131128805E+03  0.81131128805E+03  0.00000000000E+00 0.  1.
   -9000010    2    1    2    0  501 -0.66765165695E+03  0.22287687479E+03  0.91742959993E+03  0.15190630731E+04  0.98511050798E+03 0.  0.
    9000010    2    1    2  502    0  0.66765165695E+03 -0.22287687479E+03  0.22151153867E+03  0.12425006416E+04  0.99965376318E+03 0.  0.
        -13    1    4    4    0    0  0.82121239664E+03  0.49899557522E+02 -0.55369315949E+02  0.82458810235E+03  0.10566000000E+00 0.  1.
          4    1    4    4  502    0 -0.15356073968E+03 -0.27277643231E+03  0.27688085462E+03  0.41791253924E+03  0.00000000000E+00 0.  1.
         13    1    3    3    0    0  0.11166099277E+03  0.97252109717E+02 -0.13711126037E+03  0.20180599355E+03  0.10566000000E+00 0. -1.
         -4    1    3    3    0  501 -0.77931264972E+03  0.12562476507E+03  0.10545408603E+04  0.13172570796E+04  0.00000000000E+00 0. -1.
<mgrwt>
<rscale>  0 0.12166502E+04</rscale>
<asrwt>0</asrwt>
<pdfrwt beam="2">  1        4 0.12481712E+00 0.12225958E+04</pdfrwt>
<pdfrwt beam="1">  1       -4 0.30003883E+00 0.12107335E+04</pdfrwt>
<totfact> 0.20105336E-01</totfact>
</mgrwt>
</event>
<event>
 8    1  0.3025584E-006  0.1089376E+04  0.7818608E-02  0.8697850E-01
          4   -1    0    0  502    0  0.00000000000E+00  0.00000000000E+00  0.33926594598E+04  0.33926594598E+04  0.00000000000E+00 0.  1.
         -4   -1    0    0    0  501 -0.00000000000E+00 -0.00000000000E+00 -0.70846887400E+03  0.70846887400E+03  0.00000000000E+00 0. -1.
   -9000010    2    1    2    0  501 -0.25608795192E+03 -0.36898476905E+03 -0.12360995042E+03  0.10894039907E+04  0.98477958764E+03 0.  0.
    9000010    2    1    2  502    0  0.25608795192E+03  0.36898476905E+03  0.28078005362E+04  0.30117243431E+04  0.99247612998E+03 0.  0.
        -13    1    4    4    0    0 -0.30354119671E+03  0.25522523777E+03  0.18869077340E+04  0.19281332910E+04  0.10566000000E+00 0.  1.
          4    1    4    4  502    0  0.55962914863E+03  0.11375953128E+03  0.92089280224E+03  0.10835910521E+04  0.00000000000E+00 0.  1.
         13    1    3    3    0    0  0.21449520397E+03 -0.52767875810E+03 -0.15941256312E+03  0.59149424403E+03  0.10566000000E+00 0. -1.
         -4    1    3    3    0  501 -0.47058315589E+03  0.15869398905E+03  0.35802612704E+02  0.49790974668E+03  0.00000000000E+00 0. -1.
<mgrwt>
<rscale>  0 0.10858665E+04</rscale>
<asrwt>0</asrwt>
<pdfrwt beam="1">  1        4 0.52194760E+00 0.10893758E+04</pdfrwt>
<pdfrwt beam="2">  1       -4 0.10899521E+00 0.10823685E+04</pdfrwt>
<totfact> 0.33442134E-02</totfact>
</mgrwt>
</event>
<event>
 8    1  0.3025584E-006  0.1506554E+04  0.7818608E-02  0.8422916E-01
          4   -1    0    0  502    0  0.00000000000E+00  0.00000000000E+00  0.10870626765E+04  0.10870626765E+04  0.00000000000E+00 0.  1.
         -4   -1    0    0    0  501 -0.00000000000E+00 -0.00000000000E+00 -0.22321252578E+04  0.22321252578E+04  0.00000000000E+00 0. -1.
   -9000010    2    1    2    0  501  0.15966117006E+03  0.10015339956E+04 -0.10888573216E+04  0.18115863443E+04  0.10332825279E+04 0.  0.
    9000010    2    1    2  502    0 -0.15966117006E+03 -0.10015339956E+04 -0.56205259726E+02  0.15076015900E+04  0.11140652985E+04 0.  0.
        -13    1    4    4    0    0 -0.27171174657E+03 -0.56233387606E+03 -0.55365710482E+03  0.83461539781E+03  0.10566000000E+00 0.  1.
          4    1    4    4  502    0  0.11205057651E+03 -0.43920011950E+03  0.49745184510E+03  0.67298619217E+03  0.00000000000E+00 0.  1.
         13    1    3    3    0    0  0.32022884998E+02  0.67168162504E+03 -0.12527155357E+04  0.14217868670E+04  0.10566000000E+00 0. -1.
         -4    1    3    3    0  501  0.12763828506E+03  0.32985237051E+03  0.16385821410E+03  0.38979947727E+03  0.00000000000E+00 0. -1.
<mgrwt>
<rscale>  0 0.14769040E+04</rscale>
<asrwt>0</asrwt>
<pdfrwt beam="1">  1        4 0.16724041E+00 0.15065535E+04</pdfrwt>
<pdfrwt beam="2">  1       -4 0.34340388E+00 0.14478380E+04</pdfrwt>
<totfact> 0.95633932E-02</totfact>
</mgrwt>
</event>
<event>
 8    1  0.3025584E-006  0.1073426E+04  0.7818608E-02  0.8710281E-01
          4   -1    0    0  502    0  0.00000000000E+00  0.00000000000E+00  0.17971993216E+04  0.17971993216E+04  0.00000000000E+00 0.  1.
         -4   -1    0    0    0  501 -0.00000000000E+00 -0.00000000000E+00 -0.75016333014E+03  0.75016333014E+03  0.00000000000E+00 0. -1.
   -9000010    2    1    2    0  501  0.10009668101E+02 -0.37508438629E+03  0.33364638928E+02  0.10739444823E+04  0.10057112218E+04 0.  0.
    9000010    2    1    2  502    0 -0.10009668101E+02  0.37508438629E+03  0.10136713525E+04  0.14734181694E+04  0.10013206283E+04 0.  0.
        -13    1    4    4    0    0 -0.40301984244E+03 -0.11062305919E+03  0.57141221592E+03  0.70793671066E+03  0.10566000000E+00 0.  1.
          4    1    4    4  502    0  0.39301017434E+03  0.48570744548E+03  0.44225913657E+03  0.76548145870E+03  0.00000000000E+00 0.  1.
         13    1    3    3    0    0  0.39044678876E+03  0.33595111388E+02  0.26113836482E+03  0.47092524152E+03  0.10566000000E+00 0. -1.
         -4    1    3    3    0  501 -0.38043712066E+03 -0.40867949768E+03 -0.22777372589E+03  0.60301924082E+03  0.00000000000E+00 0. -1.
<mgrwt>
<rscale>  0 0.10713678E+04</rscale>
<asrwt>0</asrwt>
<pdfrwt beam="1">  1        4 0.27649220E+00 0.10693136E+04</pdfrwt>
<pdfrwt beam="2">  1       -4 0.11540974E+00 0.10734261E+04</pdfrwt>
<totfact> 0.26645304E-01</totfact>
</mgrwt>
</event>
<event>
 8    1  0.3025584E-006  0.1529850E+04  0.7818608E-02  0.8392549E-01
          4   -1    0    0  502    0  0.00000000000E+00  0.00000000000E+00  0.89448630730E+03  0.89448630730E+03  0.00000000000E+00 0.  1.
         -4   -1    0    0    0  501 -0.00000000000E+00 -0.00000000000E+00 -0.36566675891E+04  0.36566675891E+04  0.00000000000E+00 0. -1.
   -9000010    2    1    2    0  501 -0.73005113942E+03 -0.91465373860E+03 -0.25948072653E+04  0.30121756092E+04  0.98519593410E+03 0.  0.
    9000010    2    1    2  502    0  0.73005113942E+03  0.91465373860E+03 -0.16737401644E+03  0.15389782872E+04  0.98532937609E+03 0.  0.
        -13    1    4    4    0    0  0.19178483242E+03  0.89473431745E+02  0.36291560728E+03  0.42011268263E+03  0.10566000000E+00 0.  1.
          4    1    4    4  502    0  0.53826630699E+03  0.82518030685E+03 -0.53028962372E+03  0.11188656046E+04  0.00000000000E+00 0.  1.
         13    1    3    3    0    0 -0.38469541348E+03 -0.46622832730E+03 -0.35290491709E+03  0.69992950074E+03  0.10566000000E+00 0. -1.
         -4    1    3    3    0  501 -0.34535572594E+03 -0.44842541130E+03 -0.22419023482E+04  0.23122461084E+04  0.00000000000E+00 0. -1.
<mgrwt>
<rscale>  0 0.15298067E+04</rscale>
<asrwt>0</asrwt>
<pdfrwt beam="1">  1        4 0.13761328E+00 0.15298497E+04</pdfrwt>
<pdfrwt beam="2">  1       -4 0.56256424E+00 0.15297638E+04</pdfrwt>
<totfact> 0.13552354E-02</totfact>
</mgrwt>
</event>
<event>
 8    1  0.3025584E-006  0.1205282E+04  0.7818608E-02  0.8630111E-01
          4   -1    0    0  502    0  0.00000000000E+00  0.00000000000E+00  0.18006690909E+04  0.18006690909E+04  0.00000000000E+00 0.  1.
         -4   -1    0    0    0  501 -0.00000000000E+00 -0.00000000000E+00 -0.19660010108E+04  0.19660010108E+04  0.00000000000E+00 0. -1.
   -9000010    2    1    2    0  501 -0.38453144854E+03 -0.54830457682E+03 -0.15584940975E+04  0.19701799668E+04  0.10020992495E+04 0.  0.
    9000010    2    1    2  502    0  0.38453144854E+03  0.54830457682E+03  0.13931621775E+04  0.17964901349E+04  0.91540898409E+03 0.  0.
        -13    1    4    4    0    0  0.31375680923E+03  0.50260493239E+03  0.15272382278E+04  0.16381427499E+04  0.10566000000E+00 0.  1.
          4    1    4    4  502    0  0.70774639311E+02  0.45699644435E+02 -0.13407605032E+03  0.15834738501E+03  0.00000000000E+00 0.  1.
         13    1    3    3    0    0 -0.30078178556E+03  0.23856814614E+03 -0.72817298537E+03  0.82317698624E+03  0.10566000000E+00 0. -1.
         -4    1    3    3    0  501 -0.83749662982E+02 -0.78687272297E+03 -0.83032111211E+03  0.11470029806E+04  0.00000000000E+00 0. -1.
<mgrwt>
<rscale>  0 0.11692161E+04</rscale>
<asrwt>0</asrwt>
<pdfrwt beam="1">  1        4 0.27702601E+00 0.11342292E+04</pdfrwt>
<pdfrwt beam="2">  1       -4 0.30246169E+00 0.12052822E+04</pdfrwt>
<totfact> 0.64516608E-02</totfact>
</mgrwt>
</event>
<event>
 8    1  0.3025584E-006  0.1307355E+04  0.7818608E-02  0.8533014E-01
         -4   -1    0    0    0  501 -0.00000000000E+00  0.00000000000E+00  0.21641420798E+04  0.21641420798E+04  0.00000000000E+00 0. -1.
          4   -1    0    0  502    0  0.00000000000E+00 -0.00000000000E+00 -0.80862798329E+03  0.80862798329E+03  0.00000000000E+00 0.  1.
   -9000010    2    1    2    0  501  0.32561177882E+03 -0.75956427897E+03  0.93409053707E+03  0.15991708994E+04  0.10009303220E+04 0.  0.
    9000010    2    1    2  502    0 -0.32561177882E+03  0.75956427897E+03  0.42142355945E+03  0.13735991637E+04  0.10130231595E+04 0.  0.
        -13    1    4    4    0    0 -0.63582642653E+03  0.20136211941E+03  0.17930279952E+03  0.69063119890E+03  0.10566000000E+00 0.  1.
          4    1    4    4  502    0  0.31021464771E+03  0.55820215957E+03  0.24212075993E+03  0.68296796483E+03  0.00000000000E+00 0.  1.
         13    1    3    3    0    0 -0.34948841280E+03 -0.28293431840E+03  0.19366594197E+03  0.48959216441E+03  0.10566000000E+00 0. -1.
         -4    1    3    3    0  501  0.67510019163E+03 -0.47662996058E+03  0.74042459510E+03  0.11095787350E+04  0.00000000000E+00 0. -1.
<mgrwt>
<rscale>  0 0.13026726E+04</rscale>
<asrwt>0</asrwt>
<pdfrwt beam="2">  1        4 0.12440431E+00 0.13073549E+04</pdfrwt>
<pdfrwt beam="1">  1       -4 0.33294493E+00 0.12980071E+04</pdfrwt>
<totfact> 0.16254453E-01</totfact>
</mgrwt>
</event>
<event>
 8    1  0.3025584E-006  0.1104170E+04  0.7818608E-02  0.8684276E-01
         -4   -1    0    0    0  501 -0.00000000000E+00  0.00000000000E+00  0.23652313010E+04  0.23652313010E+04  0.00000000000E+00 0. -1.
          4   -1    0    0  502    0  0.00000000000E+00 -0.00000000000E+00 -0.10031795084E+04  0.10031795084E+04  0.00000000000E+00 0.  1.
   -9000010    2    1    2    0  501  0.43588580693E+03  0.56146812838E+02  0.18571185841E+04  0.21583349390E+04  0.10081524548E+04 0.  0.
    9000010    2    1    2  502    0 -0.43588580693E+03 -0.56146812838E+02 -0.49506679147E+03  0.12100758704E+04  0.10129380942E+04 0.  0.
        -13    1    4    4    0    0 -0.68101208859E+03 -0.32831905126E+02 -0.63085124067E+03  0.92888572915E+03  0.10566000000E+00 0.  1.
          4    1    4    4  502    0  0.24512628165E+03 -0.23314907712E+02  0.13578444920E+03  0.28119014123E+03  0.00000000000E+00 0.  1.
         13    1    3    3    0    0 -0.10190564617E+03 -0.37123899003E+03  0.44791565416E+03  0.59061966852E+03  0.10566000000E+00 0. -1.
         -4    1    3    3    0  501  0.53779145310E+03  0.42738580287E+03  0.14092029299E+04  0.15677152704E+04  0.00000000000E+00 0. -1.
<mgrwt>
<rscale>  0 0.11019740E+04</rscale>
<asrwt>0</asrwt>
<pdfrwt beam="2">  1        4 0.15433531E+00 0.11041705E+04</pdfrwt>
<pdfrwt beam="1">  1       -4 0.36388174E+00 0.10997819E+04</pdfrwt>
<totfact> 0.93357033E-02</totfact>
</mgrwt>
</event>
<event>
 8    1  0.3025584E-006  0.1078895E+04  0.7818608E-02  0.8709078E-01
         -4   -1    0    0    0  501 -0.00000000000E+00  0.00000000000E+00  0.18610382846E+04  0.18610382846E+04  0.00000000000E+00 0. -1.
          4   -1    0    0  502    0  0.00000000000E+00 -0.00000000000E+00 -0.28926506420E+04  0.28926506420E+04  0.00000000000E+00 0.  1.
   -9000010    2    1    2    0  501 -0.40429287879E+03 -0.44307306514E+02  0.15923396894E+04  0.19165883380E+04  0.98607773623E+03 0.  0.
    9000010    2    1    2  502    0  0.40429287879E+03  0.44307306514E+02 -0.26239520467E+04  0.28371005886E+04  0.99929952323E+03 0.  0.
        -13    1    4    4    0    0 -0.87614111850E+02 -0.37559751377E+03 -0.14077261267E+04  0.14596035708E+04  0.10566000000E+00 0.  1.
          4    1    4    4  502    0  0.49190699064E+03  0.41990482028E+03 -0.12162259201E+04  0.13774970179E+04  0.00000000000E+00 0.  1.
         13    1    3    3    0    0  0.14244174500E+02 -0.45980281063E+03  0.86943535454E+03  0.98363579035E+03  0.10566000000E+00 0. -1.
         -4    1    3    3    0  501 -0.41853705329E+03  0.41549550411E+03  0.72290433483E+03  0.93295254768E+03  0.00000000000E+00 0. -1.
<mgrwt>
<rscale>  0 0.10727607E+04</rscale>
<asrwt>0</asrwt>
<pdfrwt beam="2">  1        4 0.44502318E+00 0.10788955E+04</pdfrwt>
<pdfrwt beam="1">  1       -4 0.28631358E+00 0.10666608E+04</pdfrwt>
<totfact> 0.18875521E-02</totfact>
</mgrwt>
</event>
<event>
 8    1  0.3025584E-006  0.1073694E+04  0.7818608E-02  0.8711457E-01
          4   -1    0    0  502    0  0.00000000000E+00  0.00000000000E+00  0.13415424143E+04  0.13415424143E+04  0.00000000000E+00 0.  1.
         -4   -1    0    0    0  501 -0.00000000000E+00 -0.00000000000E+00 -0.14050546584E+04  0.14050546584E+04  0.00000000000E+00 0. -1.
   -9000010    2    1    2    0  501 -0.22691738560E+03  0.30480965974E+03 -0.89228728343E+03  0.13960642922E+04  0.10042004199E+04 0.  0.
    9000010    2    1    2  502    0  0.22691738560E+03 -0.30480965974E+03  0.82877503929E+03  0.13505327805E+04  0.99632840813E+03 0.  0.
        -13    1    4    4    0    0 -0.34322044110E+03 -0.35525003708E+03  0.38576508837E+03  0.62675160519E+03  0.10566000000E+00 0.  1.
          4    1    4    4  502    0  0.57013782670E+03  0.50440377349E+02  0.44300995092E+03  0.72378117529E+03  0.00000000000E+00 0.  1.
         13    1    3    3    0    0 -0.45941634442E+03 -0.20807252711E+03 -0.49686786996E+03  0.70797969280E+03  0.10566000000E+00 0. -1.
         -4    1    3    3    0  501  0.23249895882E+03  0.51288218685E+03 -0.39541941347E+03  0.68808459944E+03  0.00000000000E+00 0. -1.
<mgrwt>
<rscale>  0 0.10700083E+04</rscale>
<asrwt>0</asrwt>
<pdfrwt beam="1">  1        4 0.20639114E+00 0.10663352E+04</pdfrwt>
<pdfrwt beam="2">  1       -4 0.21616225E+00 0.10736940E+04</pdfrwt>
<totfact> 0.15835432E-01</totfact>
</mgrwt>
</event>
<event>
 8    1  0.3025584E-006  0.1020267E+04  0.7818608E-02  0.8759285E-01
         -4   -1    0    0    0  501 -0.00000000000E+00  0.00000000000E+00  0.13062443402E+04  0.13062443402E+04  0.00000000000E+00 0. -1.
          4   -1    0    0  502    0  0.00000000000E+00 -0.00000000000E+00 -0.97054914902E+03  0.97054914902E+03  0.00000000000E+00 0.  1.
   -9000010    2    1    2    0  501 -0.88563365031E+02 -0.18810560745E+03  0.65804786704E+03  0.12140724589E+04  0.99885822360E+03 0.  0.
    9000010    2    1    2  502    0  0.88563365031E+02  0.18810560745E+03 -0.32235267587E+03  0.10627210304E+04  0.99107898351E+03 0.  0.
        -13    1    4    4    0    0 -0.33796748269E+03 -0.19601521442E+03  0.25526953298E+02  0.39152984580E+03  0.10566000000E+00 0.  1.
          4    1    4    4  502    0  0.42653084772E+03  0.38412082187E+03 -0.34787962917E+03  0.67119118457E+03  0.00000000000E+00 0.  1.
         13    1    3    3    0    0 -0.13616078809E+03 -0.36484550206E+03 -0.12571987738E+03  0.40921571245E+03  0.10566000000E+00 0. -1.
         -4    1    3    3    0  501  0.47597423059E+02  0.17673989461E+03  0.78376774442E+03  0.80485674640E+03  0.00000000000E+00 0. -1.
<mgrwt>
<rscale>  0 0.10164526E+04</rscale>
<asrwt>0</asrwt>
<pdfrwt beam="2">  1        4 0.14931525E+00 0.10126523E+04</pdfrwt>
<pdfrwt beam="1">  1       -4 0.20096067E+00 0.10202671E+04</pdfrwt>
<totfact> 0.27120755E-01</totfact>
</mgrwt>
</event>
<event>
 8    1  0.3025584E-006  0.1171623E+04  0.7818608E-02  0.8632235E-01
          4   -1    0    0  502    0  0.00000000000E+00  0.00000000000E+00  0.31947836310E+04  0.31947836310E+04  0.00000000000E+00 0.  1.
         -4   -1    0    0    0  501 -0.00000000000E+00 -0.00000000000E+00 -0.72583407438E+03  0.72583407438E+03  0.00000000000E+00 0. -1.
   -9000010    2    1    2    0  501 -0.58607606284E+03 -0.13762323743E+03 -0.28801085060E+02  0.11617304154E+04  0.99315796758E+03 0.  0.
    9000010    2    1    2  502    0  0.58607606284E+03  0.13762323743E+03  0.24977506416E+04  0.27588872900E+04  0.10051246211E+04 0.  0.
        -13    1    4    4    0    0  0.62074465382E+03 -0.17346584489E+03  0.77526428378E+03  0.10081909767E+04  0.10566000000E+00 0.  1.
          4    1    4    4  502    0 -0.34668590987E+02  0.31108908233E+03  0.17224863579E+04  0.17506963133E+04  0.00000000000E+00 0.  1.
         13    1    3    3    0    0  0.13596426877E+03 -0.37349946156E+03 -0.57399529277E+02  0.40160035769E+03  0.10566000000E+00 0. -1.
         -4    1    3    3    0  501 -0.72204033161E+03  0.23587622413E+03  0.28598444216E+02  0.76013005768E+03  0.00000000000E+00 0. -1.
<mgrwt>
<rscale>  0 0.11664870E+04</rscale>
<asrwt>0</asrwt>
<pdfrwt beam="1">  1        4 0.49150517E+00 0.11716232E+04</pdfrwt>
<pdfrwt beam="2">  1       -4 0.11166678E+00 0.11613733E+04</pdfrwt>
<totfact> 0.44113499E-02</totfact>
</mgrwt>
</event>
<event>
 8    1  0.3025584E-006  0.1435274E+04  0.7818608E-02  0.8448220E-01
         -4   -1    0    0    0  501 -0.00000000000E+00  0.00000000000E+00  0.33786148898E+04  0.33786148898E+04  0.00000000000E+00 0. -1.
          4   -1    0    0  502    0  0.00000000000E+00 -0.00000000000E+00 -0.12821947443E+04  0.12821947443E+04  0.00000000000E+00 0.  1.
   -9000010    2    1    2    0  501 -0.98358692992E+02  0.10235250225E+04  0.27364520107E+04  0.30892968054E+04  0.99915326193E+03 0.  0.
    9000010    2    1    2  502    0  0.98358692992E+02 -0.10235250225E+04 -0.64003186525E+03  0.15715128286E+04  0.10013660059E+04 0.  0.
        -13    1    4    4    0    0  0.52481878420E+03 -0.64911384982E+03 -0.54292971806E+03  0.99576916812E+03  0.10566000000E+00 0.  1.
          4    1    4    4  502    0 -0.42646009120E+03 -0.37441117266E+03 -0.97102147186E+02  0.57574366049E+03  0.00000000000E+00 0.  1.
         13    1    3    3    0    0 -0.40349042303E+02  0.11031567028E+04  0.27726624799E+04  0.29843324202E+04  0.10566000000E+00 0. -1.
         -4    1    3    3    0  501 -0.58009650690E+02 -0.79631680313E+02 -0.36210469123E+02  0.10496438518E+03  0.00000000000E+00 0. -1.
<mgrwt>
<rscale>  0 0.14345024E+04</rscale>
<asrwt>0</asrwt>
<pdfrwt beam="2">  1        4 0.19726073E+00 0.14352741E+04</pdfrwt>
<pdfrwt beam="1">  1       -4 0.51978690E+00 0.14337312E+04</pdfrwt>
<totfact> 0.13406394E-02</totfact>
</mgrwt>
</event>
<event>
 8    1  0.3025584E-006  0.1128298E+04  0.7818608E-02  0.8665446E-01
         -4   -1    0    0    0  501 -0.00000000000E+00  0.00000000000E+00  0.16455347895E+04  0.16455347895E+04  0.00000000000E+00 0. -1.
          4   -1    0    0  502    0  0.00000000000E+00 -0.00000000000E+00 -0.26329597638E+04  0.26329597638E+04  0.00000000000E+00 0.  1.
   -9000010    2    1    2    0  501 -0.14073013328E+03 -0.49515962828E+03  0.13067332839E+04  0.17218917375E+04  0.99617832354E+03 0.  0.
    9000010    2    1    2  502    0  0.14073013328E+03  0.49515962828E+03 -0.22941582583E+04  0.25566028158E+04  0.10040258044E+04 0.  0.
        -13    1    4    4    0    0 -0.26579291592E+03  0.45522856275E+02 -0.16507459159E+04  0.16726267649E+04  0.10566000000E+00 0.  1.
          4    1    4    4  502    0  0.40652304920E+03  0.44963677200E+03 -0.64341234238E+03  0.88397605092E+03  0.00000000000E+00 0.  1.
         13    1    3    3    0    0 -0.35490909159E+03 -0.18420668218E+03  0.42076793959E+02  0.40207341719E+03  0.10566000000E+00 0. -1.
         -4    1    3    3    0  501  0.21417895832E+03 -0.31095294610E+03  0.12646564900E+04  0.13198183203E+04  0.00000000000E+00 0. -1.
<mgrwt>
<rscale>  0 0.11248036E+04</rscale>
<asrwt>0</asrwt>
<pdfrwt beam="2">  1        4 0.40507073E+00 0.11282978E+04</pdfrwt>
<pdfrwt beam="1">  1       -4 0.25315920E+00 0.11213203E+04</pdfrwt>
<totfact> 0.33396036E-02</totfact>
</mgrwt>
</event>
<event>
 8    1  0.3025584E-006  0.1092222E+04  0.7818608E-02  0.8699722E-01
          4   -1    0    0  502    0  0.00000000000E+00  0.00000000000E+00  0.14040708596E+04  0.14040708596E+04  0.00000000000E+00 0. -1.
         -4   -1    0    0    0  501 -0.00000000000E+00 -0.00000000000E+00 -0.84469630915E+03  0.84469630915E+03  0.00000000000E+00 0.  1.
   -9000010    2    1    2    0  501  0.24981029273E+03  0.34523092285E+03  0.17064526418E+03  0.11054724284E+04  0.10056639157E+04 0.  0.
    9000010    2    1    2  502    0 -0.24981029273E+03 -0.34523092285E+03  0.38872928623E+03  0.11432947403E+04  0.98712857967E+03 0.  0.
        -13    1    4    4    0    0  0.28223514495E+03 -0.36588468573E+03 -0.34146974893E+02  0.46335117066E+03  0.10566000000E+00 0.  1.
          4    1    4    4  502    0 -0.53204543768E+03  0.20653762880E+02  0.42287626113E+03  0.67994356965E+03  0.00000000000E+00 0.  1.
         13    1    3    3    0    0  0.89959753657E+02  0.22237800564E+02  0.56424749217E+03  0.57180636638E+03  0.10566000000E+00 0. -1.
         -4    1    3    3    0  501  0.15985053907E+03  0.32299312228E+03 -0.39360222799E+03  0.53366606203E+03  0.00000000000E+00 0. -1.
<mgrwt>
<rscale>  0 0.10836677E+04</rscale>
<asrwt>0</asrwt>
<pdfrwt beam="1">  1        4 0.21601090E+00 0.10751802E+04</pdfrwt>
<pdfrwt beam="2">  1       -4 0.12995328E+00 0.10922223E+04</pdfrwt>
<totfact> 0.30558655E-01</totfact>
</mgrwt>
</event>
<event>
 8    1  0.3025584E-006  0.1499434E+04  0.7818608E-02  0.8413197E-01
          4   -1    0    0  502    0  0.00000000000E+00  0.00000000000E+00  0.34448019108E+04  0.34448019108E+04  0.00000000000E+00 0. -1.
         -4   -1    0    0    0  501 -0.00000000000E+00 -0.00000000000E+00 -0.76664585015E+03  0.76664585015E+03  0.00000000000E+00 0.  1.
   -9000010    2    1    2    0  501  0.99539944347E+03  0.48156583403E+03  0.21644367466E+04  0.26264522863E+04  0.99535896914E+03 0.  0.
    9000010    2    1    2  502    0 -0.99539944347E+03 -0.48156583403E+03  0.51371931402E+03  0.15849954747E+04  0.10127079621E+04 0.  0.
        -13    1    4    4    0    0  0.87372541559E+02 -0.12240543675E+03 -0.19175578033E+03  0.24369518341E+03  0.10566000000E+00 0.  1.
          4    1    4    4  502    0 -0.10827719850E+04 -0.35916039729E+03  0.70547509435E+03  0.13413002912E+04  0.00000000000E+00 0.  1.
         13    1    3    3    0    0  0.10938449563E+04  0.10820426491E+03  0.16663773215E+04  0.19962510714E+04  0.10566000000E+00 0. -1.
         -4    1    3    3    0  501 -0.98445512791E+02  0.37336156913E+03  0.49805942505E+03  0.63020121483E+03  0.00000000000E+00 0. -1.
<mgrwt>
<rscale>  0 0.14935917E+04</rscale>
<asrwt>0</asrwt>
<pdfrwt beam="1">  1        4 0.52996952E+00 0.14994343E+04</pdfrwt>
<pdfrwt beam="2">  1       -4 0.11794552E+00 0.14877719E+04</pdfrwt>
<totfact> 0.25707604E-02</totfact>
</mgrwt>
</event>
<event>
 8    1  0.3025584E-006  0.1158016E+04  0.7818608E-02  0.8650890E-01
          4   -1    0    0  502    0  0.00000000000E+00  0.00000000000E+00  0.19683025966E+04  0.19683025966E+04  0.00000000000E+00 0.  1.
         -4   -1    0    0    0  501 -0.00000000000E+00 -0.00000000000E+00 -0.13932378559E+04  0.13932378559E+04  0.00000000000E+00 0. -1.
   -9000010    2    1    2    0  501 -0.48722688161E+03 -0.20621583241E+03 -0.92686893253E+03  0.14832690667E+04  0.10300903370E+04 0.  0.
    9000010    2    1    2  502    0  0.48722688161E+03  0.20621583241E+03  0.15019336733E+04  0.18782713858E+04  0.99608415106E+03 0.  0.
        -13    1    4    4    0    0  0.35396566957E+03 -0.36077594346E+03  0.94884619528E+03  0.10750628308E+04  0.10566000000E+00 0.  1.
          4    1    4    4  502    0  0.13326121204E+03  0.56699177587E+03  0.55308747800E+03  0.80320855502E+03  0.00000000000E+00 0.  1.
         13    1    3    3    0    0 -0.33966901494E+03 -0.37770496937E+03  0.21364028501E+02  0.50842159325E+03  0.10566000000E+00 0. -1.
         -4    1    3    3    0  501 -0.14755786666E+03  0.17148913696E+03 -0.94823296103E+03  0.97484747345E+03  0.00000000000E+00 0. -1.
<mgrwt>
<rscale>  0 0.11428454E+04</rscale>
<asrwt>0</asrwt>
<pdfrwt beam="1">  1        4 0.30281578E+00 0.11278735E+04</pdfrwt>
<pdfrwt beam="2">  1       -4 0.21434429E+00 0.11580160E+04</pdfrwt>
<totfact> 0.91596817E-02</totfact>
</mgrwt>
</event>
<event>
 8    1  0.3025584E-006  0.1081593E+04  0.7818608E-02  0.8742726E-01
         -4   -1    0    0    0  501 -0.00000000000E+00  0.00000000000E+00  0.99730098007E+03  0.99730098007E+03  0.00000000000E+00 0. -1.
          4   -1    0    0  502    0  0.00000000000E+00 -0.00000000000E+00 -0.14324207247E+04  0.14324207247E+04  0.00000000000E+00 0.  1.
   -9000010    2    1    2    0  501  0.36528988773E+03  0.14678445961E+03  0.38120928418E+03  0.11468063634E+04  0.10074035622E+04 0.  0.
    9000010    2    1    2  502    0 -0.36528988773E+03 -0.14678445961E+03 -0.81632902882E+03  0.12829153413E+04  0.90801779173E+03 0.  0.
        -13    1    4    4    0    0 -0.21517640917E+03  0.24324953141E+02 -0.97930585463E+03  0.10029618928E+04  0.10566000000E+00 0.  1.
          4    1    4    4  502    0 -0.15011347856E+03 -0.17110941275E+03  0.16297682581E+03  0.27995344851E+03  0.00000000000E+00 0.  1.
         13    1    3    3    0    0  0.42551868689E+03 -0.36829051088E+03  0.21056741779E+03  0.60086828997E+03  0.10566000000E+00 0. -1.
         -4    1    3    3    0  501 -0.60228799156E+02  0.51507497049E+03  0.17064186639E+03  0.54593807345E+03  0.00000000000E+00 0. -1.
<mgrwt>
<rscale>  0 0.10346198E+04</rscale>
<asrwt>0</asrwt>
<pdfrwt beam="2">  1        4 0.22037242E+00 0.98968616E+03</pdfrwt>
<pdfrwt beam="1">  1       -4 0.15343092E+00 0.10815934E+04</pdfrwt>
<totfact> 0.23209206E-01</totfact>
</mgrwt>
</event>
<event>
 8    1  0.3025584E-006  0.1372163E+04  0.7818608E-02  0.8499766E-01
          4   -1    0    0  502    0  0.00000000000E+00  0.00000000000E+00  0.38216605532E+04  0.38216605532E+04  0.00000000000E+00 0.  1.
         -4   -1    0    0    0  501 -0.00000000000E+00 -0.00000000000E+00 -0.78047210864E+03  0.78047210864E+03  0.00000000000E+00 0. -1.
   -9000010    2    1    2    0  501  0.11608896142E+03  0.88056253233E+03  0.10349213072E+03  0.13760600909E+04  0.10459272117E+04 0.  0.
    9000010    2    1    2  502    0 -0.11608896142E+03 -0.88056253233E+03  0.29376963138E+04  0.32260725710E+04  0.99429250249E+03 0.  0.
        -13    1    4    4    0    0  0.38544868658E+03 -0.64825638551E+03  0.20016056814E+04  0.21389792768E+04  0.10566000000E+00 0.  1.
          4    1    4    4  502    0 -0.50153764800E+03 -0.23230614683E+03  0.93609063242E+03  0.10870932942E+04  0.00000000000E+00 0.  1.
         13    1    3    3    0    0  0.39166036796E+03  0.98822443272E+03  0.15962630564E+03  0.10749260169E+04  0.10566000000E+00 0. -1.
         -4    1    3    3    0  501 -0.27557140654E+03 -0.10766190038E+03 -0.56134174916E+02  0.30113407395E+03  0.00000000000E+00 0. -1.
<mgrwt>
<rscale>  0 0.13525530E+04</rscale>
<asrwt>0</asrwt>
<pdfrwt beam="1">  1        4 0.58794777E+00 0.13332234E+04</pdfrwt>
<pdfrwt beam="2">  1       -4 0.12007263E+00 0.13721628E+04</pdfrwt>
<totfact> 0.12532771E-02</totfact>
</mgrwt>
</event>
<event>
 8    1  0.3025584E-006  0.1030327E+04  0.7818608E-02  0.8756591E-01
          4   -1    0    0  502    0  0.00000000000E+00  0.00000000000E+00  0.98844902300E+03  0.98844902300E+03  0.00000000000E+00 0.  1.
         -4   -1    0    0    0  501 -0.00000000000E+00 -0.00000000000E+00 -0.15939507362E+04  0.15939507362E+04  0.00000000000E+00 0. -1.
   -9000010    2    1    2    0  501  0.10798671412E+03  0.19837758556E+03 -0.10581668011E+04  0.14769192485E+04  0.10052654827E+04 0.  0.
    9000010    2    1    2  502    0 -0.10798671412E+03 -0.19837758556E+03  0.45266508793E+03  0.11054805107E+04  0.98293778076E+03 0.  0.
        -13    1    4    4    0    0 -0.25449792442E+03 -0.54039348653E+03  0.42358611846E+03  0.73227011733E+03  0.10566000000E+00 0.  1.
          4    1    4    4  502    0  0.14651121029E+03  0.34201590098E+03  0.29078969473E+02  0.37321039338E+03  0.00000000000E+00 0.  1.
         13    1    3    3    0    0 -0.20624671098E+02 -0.28216690509E+03 -0.91724513468E+03  0.95988654936E+03  0.10566000000E+00 0. -1.
         -4    1    3    3    0  501  0.12861138522E+03  0.48054449065E+03 -0.14092166646E+03  0.51703269914E+03  0.00000000000E+00 0. -1.
<mgrwt>
<rscale>  0 0.10193824E+04</rscale>
<asrwt>0</asrwt>
<pdfrwt beam="1">  1        4 0.15206908E+00 0.10085542E+04</pdfrwt>
<pdfrwt beam="2">  1       -4 0.24522319E+00 0.10303269E+04</pdfrwt>
<totfact> 0.20441634E-01</totfact>
</mgrwt>
</event>
<event>
 8    1  0.3025584E-006  0.1024002E+04  0.7818608E-02  0.8754863E-01
         -4   -1    0    0    0  501 -0.00000000000E+00  0.00000000000E+00  0.84755003511E+03  0.84755003511E+03  0.00000000000E+00 0. -1.
          4   -1    0    0  502    0  0.00000000000E+00 -0.00000000000E+00 -0.16166303077E+04  0.16166303077E+04  0.00000000000E+00 0.  1.
   -9000010    2    1    2    0  501  0.17501875821E+03  0.69150201055E+02  0.21831542768E+03  0.10416716292E+04  0.10010019186E+04 0.  0.
    9000010    2    1    2  502    0 -0.17501875821E+03 -0.69150201055E+02 -0.98739570027E+03  0.14225087136E+04  0.10065621965E+04 0.  0.
        -13    1    4    4    0    0 -0.84187870156E+01  0.46324045312E+03 -0.39557076178E+03  0.60921164805E+03  0.10566000000E+00 0.  1.
          4    1    4    4  502    0 -0.16659997119E+03 -0.53239065417E+03 -0.59182493850E+03  0.81329706558E+03  0.00000000000E+00 0.  1.
         13    1    3    3    0    0  0.34383022029E+03  0.98258436658E+02  0.55712771354E+03  0.66201604295E+03  0.10566000000E+00 0. -1.
         -4    1    3    3    0  501 -0.16881146208E+03 -0.29108235603E+02 -0.33881228586E+03  0.37965558623E+03  0.00000000000E+00 0. -1.
<mgrwt>
<rscale>  0 0.10212661E+04</rscale>
<asrwt>0</asrwt>
<pdfrwt beam="2">  1        4 0.24871235E+00 0.10240023E+04</pdfrwt>
<pdfrwt beam="1">  1       -4 0.13039231E+00 0.10185373E+04</pdfrwt>
<totfact> 0.25331435E-01</totfact>
</mgrwt>
</event>
<event>
 8    1  0.3025584E-006  0.1134046E+04  0.7818608E-02  0.8670256E-01
         -4   -1    0    0    0  501 -0.00000000000E+00  0.00000000000E+00  0.12006769615E+04  0.12006769615E+04  0.00000000000E+00 0. -1.
          4   -1    0    0  502    0  0.00000000000E+00 -0.00000000000E+00 -0.42443027313E+04  0.42443027313E+04  0.00000000000E+00 0.  1.
   -9000010    2    1    2    0  501  0.20559781516E+03  0.42716978252E+03  0.84761886599E+03  0.13918519422E+04  0.99702036200E+03 0.  0.
    9000010    2    1    2  502    0 -0.20559781516E+03 -0.42716978252E+03 -0.38912446357E+04  0.40531277506E+04  0.10302015642E+04 0.  0.
        -13    1    4    4    0    0 -0.45088629234E+03 -0.55647023865E+03 -0.35063863571E+04  0.35787851112E+04  0.10566000000E+00 0.  1.
          4    1    4    4  502    0  0.24528847719E+03  0.12930045613E+03 -0.38485827858E+03  0.47434263944E+03  0.00000000000E+00 0.  1.
         13    1    3    3    0    0 -0.12829174354E+03  0.59172360139E+03  0.18719447389E+03  0.63374866794E+03  0.10566000000E+00 0. -1.
         -4    1    3    3    0  501  0.33388955869E+03 -0.16455381887E+03  0.66042439210E+03  0.75810327422E+03  0.00000000000E+00 0. -1.
<mgrwt>
<rscale>  0 0.11189170E+04</rscale>
<asrwt>0</asrwt>
<pdfrwt beam="2">  1        4 0.65296965E+00 0.11340457E+04</pdfrwt>
<pdfrwt beam="1">  1       -4 0.18471953E+00 0.11039901E+04</pdfrwt>
<totfact> 0.30220327E-03</totfact>
</mgrwt>
</event>
<event>
 8    1  0.3025584E-006  0.1055246E+04  0.7818608E-02  0.8735908E-01
          4   -1    0    0  502    0  0.00000000000E+00  0.00000000000E+00  0.20136801579E+04  0.20136801579E+04  0.00000000000E+00 0.  1.
         -4   -1    0    0    0  501 -0.00000000000E+00 -0.00000000000E+00 -0.13019125310E+04  0.13019125310E+04  0.00000000000E+00 0. -1.
   -9000010    2    1    2    0  501 -0.33341212642E+03  0.51235126624E+02 -0.91087482686E+03  0.13940002576E+04  0.99987753440E+03 0.  0.
    9000010    2    1    2  502    0  0.33341212642E+03 -0.51235126624E+02  0.16226424537E+04  0.19215924313E+04  0.97250205912E+03 0.  0.
        -13    1    4    4    0    0 -0.70340731583E+02  0.38835341120E+03  0.91076117728E+03  0.99259867203E+03  0.10566000000E+00 0.  1.
          4    1    4    4  502    0  0.40375285800E+03 -0.43958853783E+03  0.71188127645E+03  0.92899375924E+03  0.00000000000E+00 0.  1.
         13    1    3    3    0    0  0.28487732394E+03 -0.21028644870E+03 -0.16542790079E+03  0.39082205890E+03  0.10566000000E+00 0. -1.
         -4    1    3    3    0  501 -0.61828945036E+03  0.26152157532E+03 -0.74544692607E+03  0.10031781987E+04  0.00000000000E+00 0. -1.
<mgrwt>
<rscale>  0 0.10422144E+04</rscale>
<asrwt>0</asrwt>
<pdfrwt beam="1">  1        4 0.30979695E+00 0.10293439E+04</pdfrwt>
<pdfrwt beam="2">  1       -4 0.20029424E+00 0.10552458E+04</pdfrwt>
<totfact> 0.96420957E-02</totfact>
</mgrwt>
</event>
<event>
 8    1  0.3025584E-006  0.1127027E+04  0.7818608E-02  0.8666061E-01
         -4   -1    0    0    0  501 -0.00000000000E+00  0.00000000000E+00  0.21437886051E+04  0.21437886051E+04  0.00000000000E+00 0. -1.
          4   -1    0    0  502    0  0.00000000000E+00 -0.00000000000E+00 -0.58959324747E+03  0.58959324747E+03  0.00000000000E+00 0.  1.
   -9000010    2    1    2    0  501  0.25153981471E+03  0.44201205981E+03  0.75280657873E+03  0.13553258825E+04  0.10057552204E+04 0.  0.
    9000010    2    1    2  502    0 -0.25153981471E+03 -0.44201205981E+03  0.80138877891E+03  0.13780559701E+04  0.99908325099E+03 0.  0.
        -13    1    4    4    0    0 -0.44917331488E+03  0.16161050619E+03  0.26057817766E+03  0.54385257225E+03  0.10566000000E+00 0.  1.
          4    1    4    4  502    0  0.19763350017E+03 -0.60362256600E+03  0.54081060125E+03  0.83420339786E+03  0.00000000000E+00 0.  1.
         13    1    3    3    0    0  0.45700949428E+03 -0.95474061457E+01  0.40494719962E+01  0.45712715979E+03  0.10566000000E+00 0. -1.
         -4    1    3    3    0  501 -0.20546967958E+03  0.45155946596E+03  0.74875710674E+03  0.89819872267E+03  0.00000000000E+00 0. -1.
<mgrwt>
<rscale>  0 0.11240483E+04</rscale>
<asrwt>0</asrwt>
<pdfrwt beam="2">  1        4 0.90706655E-01 0.11210773E+04</pdfrwt>
<pdfrwt beam="1">  1       -4 0.32981363E+00 0.11270273E+04</pdfrwt>
<totfact> 0.29869696E-01</totfact>
</mgrwt>
</event>
<event>
 8    1  0.3025584E-006  0.1228750E+04  0.7818608E-02  0.8605284E-01
         -4   -1    0    0    0  501 -0.00000000000E+00  0.00000000000E+00  0.35214433760E+04  0.35214433760E+04  0.00000000000E+00 0. -1.
          4   -1    0    0  502    0  0.00000000000E+00 -0.00000000000E+00 -0.58612062647E+03  0.58612062647E+03  0.00000000000E+00 0.  1.
   -9000010    2    1    2    0  501 -0.51702599374E+03 -0.47356825818E+03  0.25694997684E+04  0.28255136684E+04  0.94319438965E+03 0.  0.
    9000010    2    1    2  502    0  0.51702599374E+03  0.47356825818E+03  0.36582298113E+03  0.12820503342E+04  0.10090806868E+04 0.  0.
        -13    1    4    4    0    0  0.68326909930E+03  0.24469635385E+03 -0.10446420101E+03  0.73324330758E+03  0.10566000000E+00 0.  1.
          4    1    4    4  502    0 -0.16624310556E+03  0.22887190433E+03  0.47028718214E+03  0.54880702658E+03  0.00000000000E+00 0.  1.
         13    1    3    3    0    0 -0.23639634778E+02  0.16662454561E+03  0.13627001992E+04  0.13730529544E+04  0.10566000000E+00 0. -1.
         -4    1    3    3    0  501 -0.49338635896E+03 -0.64019280379E+03  0.12067995692E+04  0.14524607139E+04  0.00000000000E+00 0. -1.
<mgrwt>
<rscale>  0 0.12016992E+04</rscale>
<asrwt>0</asrwt>
<pdfrwt beam="2">  1        4 0.90172406E-01 0.12287500E+04</pdfrwt>
<pdfrwt beam="1">  1       -4 0.54176051E+00 0.11752440E+04</pdfrwt>
<totfact> 0.38512077E-02</totfact>
</mgrwt>
</event>
<event>
 8    1  0.3025584E-006  0.1328229E+04  0.7818608E-02  0.8518198E-01
          4   -1    0    0  502    0  0.00000000000E+00  0.00000000000E+00  0.38709454889E+04  0.38709454889E+04  0.00000000000E+00 0.  1.
         -4   -1    0    0    0  501 -0.00000000000E+00 -0.00000000000E+00 -0.13014533567E+04  0.13014533567E+04  0.00000000000E+00 0. -1.
   -9000010    2    1    2    0  501 -0.55878047669E+03  0.65280822872E+03 -0.80183500466E+03  0.15514935796E+04  0.10128172333E+04 0.  0.
    9000010    2    1    2  502    0  0.55878047669E+03 -0.65280822872E+03  0.33713271369E+04  0.36209052660E+04  0.10033514225E+04 0.  0.
        -13    1    4    4    0    0  0.75681994985E+03 -0.16681333784E+03  0.16822544602E+04  0.18521833619E+04  0.10566000000E+00 0.  1.
          4    1    4    4  502    0 -0.19803947316E+03 -0.48599489089E+03  0.16890726766E+04  0.17687219041E+04  0.00000000000E+00 0.  1.
         13    1    3    3    0    0 -0.42764622710E+03 -0.15060013536E+03 -0.73738636474E+02  0.45934637693E+03  0.10566000000E+00 0. -1.
         -4    1    3    3    0  501 -0.13113424959E+03  0.80340836408E+03 -0.72809636819E+03  0.10921472026E+04  0.00000000000E+00 0. -1.
<mgrwt>
<rscale>  0 0.13246225E+04</rscale>
<asrwt>0</asrwt>
<pdfrwt beam="1">  1        4 0.59553007E+00 0.13210255E+04</pdfrwt>
<pdfrwt beam="2">  1       -4 0.20022359E+00 0.13282293E+04</pdfrwt>
<totfact> 0.53927979E-03</totfact>
</mgrwt>
</event>
<event>
 8    1  0.3025584E-006  0.1411137E+04  0.7818608E-02  0.8466880E-01
         -4   -1    0    0    0  501 -0.00000000000E+00  0.00000000000E+00  0.21078659074E+04  0.21078659074E+04  0.00000000000E+00 0. -1.
          4   -1    0    0  502    0  0.00000000000E+00 -0.00000000000E+00 -0.94997434707E+03  0.94997434707E+03  0.00000000000E+00 0.  1.
   -9000010    2    1    2    0  501 -0.70036154114E+03  0.68659766016E+03  0.76539333302E+03  0.15931347956E+04  0.99515269548E+03 0.  0.
    9000010    2    1    2  502    0  0.70036154114E+03 -0.68659766016E+03  0.39249822733E+03  0.14647054589E+04  0.10145859194E+04 0.  0.
        -13    1    4    4    0    0  0.74908921377E+03 -0.89552376949E+03  0.21695324805E+03  0.11875041873E+04  0.10566000000E+00 0.  1.
          4    1    4    4  502    0 -0.48727672625E+02  0.20892610933E+03  0.17554497928E+03  0.27720127162E+03  0.00000000000E+00 0.  1.
         13    1    3    3    0    0 -0.99168402264E+02 -0.19183643359E+03 -0.83596262647E+02  0.23156842521E+03  0.10566000000E+00 0. -1.
         -4    1    3    3    0  501 -0.60119313888E+03  0.87843409375E+03  0.84898959567E+03  0.13615663703E+04  0.00000000000E+00 0. -1.
<mgrwt>
<rscale>  0 0.14041662E+04</rscale>
<asrwt>0</asrwt>
<pdfrwt beam="2">  1        4 0.14614990E+00 0.14111369E+04</pdfrwt>
<pdfrwt beam="1">  1       -4 0.32428706E+00 0.13972299E+04</pdfrwt>
<totfact> 0.13296279E-01</totfact>
</mgrwt>
</event>
<event>
 8    1  0.3025584E-006  0.1351131E+04  0.7818608E-02  0.8521652E-01
         -4   -1    0    0    0  501 -0.00000000000E+00  0.00000000000E+00  0.31060239348E+04  0.31060239348E+04  0.00000000000E+00 0.  1.
          4   -1    0    0  502    0  0.00000000000E+00 -0.00000000000E+00 -0.67978189507E+03  0.67978189507E+03  0.00000000000E+00 0. -1.
   -9000010    2    1    2    0  501 -0.82622067412E+03  0.36385112033E+03  0.20284751112E+04  0.24372663920E+04  0.10052501921E+04 0.  0.
    9000010    2    1    2  502    0  0.82622067412E+03 -0.36385112033E+03  0.39776692847E+03  0.13485394378E+04  0.91940842166E+03 0.  0.
        -13    1    4    4    0    0  0.24832871992E+03 -0.31257793356E+03 -0.25617402623E+03  0.47433876139E+03  0.10566000000E+00 0.  1.
          4    1    4    4  502    0  0.57789195420E+03 -0.51273186772E+02  0.65394095470E+03  0.87420067641E+03  0.00000000000E+00 0.  1.
         13    1    3    3    0    0 -0.70523321719E+03  0.33600327320E+03  0.21351571424E+04  0.22735760652E+04  0.10566000000E+00 0. -1.
         -4    1    3    3    0  501 -0.12098745693E+03  0.27847847124E+02 -0.10668203119E+03  0.16369032685E+03  0.00000000000E+00 0. -1.
<mgrwt>
<rscale>  0 0.13194656E+04</rscale>
<asrwt>0</asrwt>
<pdfrwt beam="2">  1        4 0.10458183E+00 0.12885418E+04</pdfrwt>
<pdfrwt beam="1">  1       -4 0.47784983E+00 0.13511314E+04</pdfrwt>
<totfact> 0.56608178E-02</totfact>
</mgrwt>
</event>
<event>
 8    1  0.3025584E-006  0.1448723E+04  0.7818608E-02  0.8521146E-01
         -4   -1    0    0    0  501 -0.00000000000E+00  0.00000000000E+00  0.20430511341E+04  0.20430511341E+04  0.00000000000E+00 0. -1.
          4   -1    0    0  502    0  0.00000000000E+00 -0.00000000000E+00 -0.34595209350E+04  0.34595209350E+04  0.00000000000E+00 0.  1.
   -9000010    2    1    2    0  501  0.54560771107E+03 -0.38404343550E+03  0.16902265571E+04  0.20746923636E+04  0.10011520637E+04 0.  0.
    9000010    2    1    2  502    0 -0.54560771107E+03  0.38404343550E+03 -0.31066963580E+04  0.34278797055E+04  0.12859315221E+04 0.  0.
        -13    1    4    4    0    0  0.13249787453E+03  0.16850086370E+03 -0.24508045875E+04  0.24601608413E+04  0.10566000000E+00 0.  1.
          4    1    4    4  502    0 -0.67810558560E+03  0.21554257179E+03 -0.65589177055E+03  0.96771886421E+03  0.00000000000E+00 0.  1.
         13    1    3    3    0    0  0.71236542826E+03 -0.40277927225E+03  0.17195434033E+04  0.19043437643E+04  0.10566000000E+00 0. -1.
         -4    1    3    3    0  501 -0.16675771719E+03  0.18735836756E+02 -0.29316846218E+02  0.17034859933E+03  0.00000000000E+00 0. -1.
<mgrwt>
<rscale>  0 0.13202189E+04</rscale>
<asrwt>0</asrwt>
<pdfrwt beam="2">  1        4 0.53223398E+00 0.14487225E+04</pdfrwt>
<pdfrwt beam="1">  1       -4 0.31431556E+00 0.12031137E+04</pdfrwt>
<totfact> 0.59000378E-03</totfact>
</mgrwt>
</event>
<event>
 8    1  0.3025584E-006  0.1293845E+04  0.7818608E-02  0.8541942E-01
         -4   -1    0    0    0  501 -0.00000000000E+00  0.00000000000E+00  0.19792422211E+04  0.19792422211E+04  0.00000000000E+00 0. -1.
          4   -1    0    0  502    0  0.00000000000E+00 -0.00000000000E+00 -0.10702405184E+04  0.10702405184E+04  0.00000000000E+00 0.  1.
   -9000010    2    1    2    0  501 -0.69513934161E+03 -0.42298741345E+03  0.11600256258E+04  0.17315119702E+04  0.99515686916E+03 0.  0.
    9000010    2    1    2  502    0  0.69513934161E+03  0.42298741345E+03 -0.25102392314E+03  0.13179707693E+04  0.10059308538E+04 0.  0.
        -13    1    4    4    0    0  0.62881362848E+02 -0.18165469503E+03 -0.38749088281E+03  0.43255252796E+03  0.10566000000E+00 0.  1.
          4    1    4    4  502    0  0.63225797876E+03  0.60464210847E+03  0.13646695967E+03  0.88541824136E+03  0.00000000000E+00 0.  1.
         13    1    3    3    0    0 -0.51701469277E+03 -0.68687141238E+03  0.48963751373E+03  0.98936415728E+03  0.10566000000E+00 0. -1.
         -4    1    3    3    0  501 -0.17812464884E+03  0.26388399893E+03  0.67038811207E+03  0.74214781292E+03  0.00000000000E+00 0. -1.
<mgrwt>
<rscale>  0 0.12896585E+04</rscale>
<asrwt>0</asrwt>
<pdfrwt beam="2">  1        4 0.16465239E+00 0.12938446E+04</pdfrwt>
<pdfrwt beam="1">  1       -4 0.30449880E+00 0.12854860E+04</pdfrwt>
<totfact> 0.12781791E-01</totfact>
</mgrwt>
</event>
<event>
 8    1  0.3025584E-006  0.1878284E+04  0.7818608E-02  0.8219909E-01
          4   -1    0    0  502    0  0.00000000000E+00  0.00000000000E+00  0.17776517176E+04  0.17776517176E+04  0.00000000000E+00 0. -1.
         -4   -1    0    0    0  501 -0.00000000000E+00 -0.00000000000E+00 -0.20127171339E+04  0.20127171339E+04  0.00000000000E+00 0.  1.
   -9000010    2    1    2    0  501  0.36556508461E+03 -0.15442616100E+04  0.10789195288E+03  0.18810315562E+04  0.10041201576E+04 0.  0.
    9000010    2    1    2  502    0 -0.36556508461E+03  0.15442616100E+04 -0.34295736923E+03  0.19093372952E+04  0.10047723119E+04 0.  0.
        -13    1    4    4    0    0 -0.48067775166E+03  0.68395683275E+03 -0.57043780583E+03  0.10120510617E+04  0.10566000000E+00 0.  1.
          4    1    4    4  502    0  0.11511266706E+03  0.86030477723E+03  0.22748043660E+03  0.89728623352E+03  0.00000000000E+00 0.  1.
         13    1    3    3    0    0  0.43953481067E+03 -0.64161709208E+03 -0.36524049123E+03  0.85922288740E+03  0.10566000000E+00 0. -1.
         -4    1    3    3    0  501 -0.73969726060E+02 -0.90264451790E+03  0.47313244411E+03  0.10218086688E+04  0.00000000000E+00 0. -1.
<mgrwt>
<rscale>  0 0.18781092E+04</rscale>
<asrwt>0</asrwt>
<pdfrwt beam="1">  1        4 0.27348488E+00 0.18782836E+04</pdfrwt>
<pdfrwt beam="2">  1       -4 0.30964879E+00 0.18779348E+04</pdfrwt>
<totfact> 0.59482449E-02</totfact>
</mgrwt>
</event>
<event>
 8    1  0.3025584E-006  0.2088361E+04  0.7818608E-02  0.8151537E-01
          4   -1    0    0  502    0  0.00000000000E+00  0.00000000000E+00  0.18287677776E+04  0.18287677776E+04  0.00000000000E+00 0. -1.
         -4   -1    0    0    0  501 -0.00000000000E+00 -0.00000000000E+00 -0.23743519115E+04  0.23743519115E+04  0.00000000000E+00 0.  1.
   -9000010    2    1    2    0  501  0.15621810974E+04 -0.97664716011E+03 -0.68337991776E+03  0.21102177049E+04  0.76926016000E+03 0.  0.
    9000010    2    1    2  502    0 -0.15621810974E+04  0.97664716011E+03  0.13779578383E+03  0.20929019842E+04  0.98336238547E+03 0.  0.
        -13    1    4    4    0    0 -0.90899374970E+03  0.10963901215E+04  0.84918380071E+02  0.14267277519E+04  0.10566000000E+00 0.  1.
          4    1    4    4  502    0 -0.65318734768E+03 -0.11974296143E+03  0.52877403756E+02  0.66617423232E+03  0.00000000000E+00 0.  1.
         13    1    3    3    0    0  0.65298167849E+03 -0.37624874590E+03  0.11109737054E+03  0.76176822469E+03  0.10566000000E+00 0. -1.
         -4    1    3    3    0  501  0.90919941889E+03 -0.60039841421E+03 -0.79447728830E+03  0.13484494802E+04  0.00000000000E+00 0. -1.
<mgrwt>
<rscale>  0 0.20419137E+04</rscale>
<asrwt>0</asrwt>
<pdfrwt beam="1">  1        4 0.28134889E+00 0.20883608E+04</pdfrwt>
<pdfrwt beam="2">  1       -4 0.36528491E+00 0.19964996E+04</pdfrwt>
<totfact> 0.37253971E-02</totfact>
</mgrwt>
</event>
<event>
 8    1  0.3025584E-006  0.1602558E+04  0.7818608E-02  0.8358988E-01
          4   -1    0    0  502    0  0.00000000000E+00  0.00000000000E+00  0.21862194962E+04  0.21862194962E+04  0.00000000000E+00 0.  1.
         -4   -1    0    0    0  501 -0.00000000000E+00 -0.00000000000E+00 -0.26014517595E+04  0.26014517595E+04  0.00000000000E+00 0. -1.
   -9000010    2    1    2    0  501  0.12174085722E+04 -0.23203044600E+03 -0.19901662583E+04  0.25407602393E+04  0.97917266034E+03 0.  0.
    9000010    2    1    2  502    0 -0.12174085722E+04  0.23203044600E+03  0.15749339950E+04  0.22469110164E+04  0.10160070215E+04 0.  0.
        -13    1    4    4    0    0 -0.60594814026E+03 -0.12592304822E+03  0.13794272488E+04  0.15119025460E+04  0.10566000000E+00 0.  1.
          4    1    4    4  502    0 -0.61146043190E+03  0.35795349422E+03  0.19550674620E+03  0.73500847044E+03  0.00000000000E+00 0.  1.
         13    1    3    3    0    0  0.98752930594E+03  0.24302291566E+03 -0.15484076648E+04  0.18525227597E+04  0.10566000000E+00 0. -1.
         -4    1    3    3    0  501  0.22987926623E+03 -0.47505336166E+03 -0.44175859345E+03  0.68823747962E+03  0.00000000000E+00 0. -1.
<mgrwt>
<rscale>  0 0.15909682E+04</rscale>
<asrwt>0</asrwt>
<pdfrwt beam="1">  1        4 0.33634146E+00 0.16025580E+04</pdfrwt>
<pdfrwt beam="2">  1       -4 0.40022335E+00 0.15794622E+04</pdfrwt>
<totfact> 0.19825142E-02</totfact>
</mgrwt>
</event>
<event>
 8    1  0.3025584E-006  0.1234525E+04  0.7818608E-02  0.8676083E-01
          4   -1    0    0  502    0  0.00000000000E+00  0.00000000000E+00  0.14329804684E+04  0.14329804684E+04  0.00000000000E+00 0.  1.
         -4   -1    0    0    0  501 -0.00000000000E+00 -0.00000000000E+00 -0.19266767350E+04  0.19266767350E+04  0.00000000000E+00 0. -1.
   -9000010    2    1    2    0  501 -0.16690490731E+03 -0.38335032285E+03 -0.14748960927E+04  0.17826961209E+04  0.90987485781E+03 0.  0.
    9000010    2    1    2  502    0  0.16690490731E+03  0.38335032285E+03  0.98119982603E+03  0.15769610825E+04  0.11615672340E+04 0.  0.
        -13    1    4    4    0    0 -0.52113710694E+02 -0.20853138269E+03  0.91785301165E+03  0.94268517469E+03  0.10566000000E+00 0.  1.
          4    1    4    4  502    0  0.21901861801E+03  0.59188170555E+03  0.63346814378E+02  0.63427590786E+03  0.00000000000E+00 0.  1.
         13    1    3    3    0    0 -0.26145401835E+03 -0.22250811926E+03 -0.51542681020E+02  0.34716671208E+03  0.10566000000E+00 0. -1.
         -4    1    3    3    0  501  0.94549111038E+02 -0.16084220360E+03 -0.14233534117E+04  0.14355294088E+04  0.00000000000E+00 0. -1.
<mgrwt>
<rscale>  0 0.11118376E+04</rscale>
<asrwt>0</asrwt>
<pdfrwt beam="1">  1        4 0.22045853E+00 0.12345255E+04</pdfrwt>
<pdfrwt beam="2">  1       -4 0.29641181E+00 0.10013426E+04</pdfrwt>
<totfact> 0.92550725E-02</totfact>
</mgrwt>
</event>
<event>
 8    1  0.3025584E-006  0.1450260E+04  0.7818608E-02  0.8450727E-01
          4   -1    0    0  502    0  0.00000000000E+00  0.00000000000E+00  0.18661185792E+04  0.18661185792E+04  0.00000000000E+00 0.  1.
         -4   -1    0    0    0  501 -0.00000000000E+00 -0.00000000000E+00 -0.22243612184E+04  0.22243612184E+04  0.00000000000E+00 0. -1.
   -9000010    2    1    2    0  501 -0.17027030213E+03 -0.10791408940E+04 -0.16341339405E+04  0.21588609680E+04  0.89260847992E+03 0.  0.
    9000010    2    1    2  502    0  0.17027030213E+03  0.10791408940E+04  0.12758913013E+04  0.19316188297E+04  0.95379014757E+03 0.  0.
        -13    1    4    4    0    0  0.45428686190E+03  0.60038044338E+03  0.11270681311E+04  0.13554024543E+04  0.10566000000E+00 0.  1.
          4    1    4    4  502    0 -0.28401655978E+03  0.47876045061E+03  0.14882317015E+03  0.57621637539E+03  0.00000000000E+00 0.  1.
         13    1    3    3    0    0  0.20260992987E+03 -0.21805293865E+02 -0.36404675824E+02  0.20700619824E+03  0.10566000000E+00 0. -1.
         -4    1    3    3    0  501 -0.37288023200E+03 -0.10573356001E+04 -0.15977292647E+04  0.19518547697E+04  0.00000000000E+00 0. -1.
<mgrwt>
<rscale>  0 0.14303812E+04</rscale>
<asrwt>0</asrwt>
<pdfrwt beam="1">  1        4 0.28709517E+00 0.14502595E+04</pdfrwt>
<pdfrwt beam="2">  1       -4 0.34220942E+00 0.14107753E+04</pdfrwt>
<totfact> 0.45573598E-02</totfact>
</mgrwt>
</event>
<event>
 8    1  0.3025584E-006  0.1130695E+04  0.7818608E-02  0.8669117E-01
          4   -1    0    0  502    0  0.00000000000E+00  0.00000000000E+00  0.13124304071E+04  0.13124304071E+04  0.00000000000E+00 0.  1.
         -4   -1    0    0    0  501 -0.00000000000E+00 -0.00000000000E+00 -0.22128911768E+04  0.22128911768E+04  0.00000000000E+00 0. -1.
   -9000010    2    1    2    0  501  0.44274801360E+03  0.22033675601E+03 -0.17766305311E+04  0.20948868281E+04  0.99376088121E+03 0.  0.
    9000010    2    1    2  502    0 -0.44274801360E+03 -0.22033675601E+03  0.87616976143E+03  0.14304347557E+04  0.10168067909E+04 0.  0.
        -13    1    4    4    0    0 -0.71644949411E+03  0.64854666502E+02  0.44688652508E+03  0.84688463372E+03  0.10566000000E+00 0.  1.
          4    1    4    4  502    0  0.27370148051E+03 -0.28519142251E+03  0.42928323635E+03  0.58355012203E+03  0.00000000000E+00 0.  1.
         13    1    3    3    0    0  0.72794213983E+00 -0.36296055687E+03 -0.43423380589E+03  0.56595044402E+03  0.10566000000E+00 0. -1.
         -4    1    3    3    0  501  0.44202007146E+03  0.58329731288E+03 -0.13423967252E+04  0.15289363841E+04  0.00000000000E+00 0. -1.
<mgrwt>
<rscale>  0 0.11203074E+04</rscale>
<asrwt>0</asrwt>
<pdfrwt beam="1">  1        4 0.20191237E+00 0.11306945E+04</pdfrwt>
<pdfrwt beam="2">  1       -4 0.34044480E+00 0.11100157E+04</pdfrwt>
<totfact> 0.77579052E-02</totfact>
</mgrwt>
</event>
<event>
 8    1  0.3025584E-006  0.1181533E+04  0.7818608E-02  0.8627371E-01
          4   -1    0    0  502    0  0.00000000000E+00  0.00000000000E+00  0.17260760499E+04  0.17260760499E+04  0.00000000000E+00 0.  1.
         -4   -1    0    0    0  501 -0.00000000000E+00 -0.00000000000E+00 -0.18248834673E+04  0.18248834673E+04  0.00000000000E+00 0. -1.
   -9000010    2    1    2    0  501 -0.37288455059E+03  0.49102068758E+03 -0.13818364133E+04  0.18067739982E+04  0.98732780963E+03 0.  0.
    9000010    2    1    2  502    0  0.37288455059E+03 -0.49102068758E+03  0.12830289959E+04  0.17441855190E+04  0.10079065020E+04 0.  0.
        -13    1    4    4    0    0 -0.29118843389E+03 -0.41679700092E+03  0.47663009196E+03  0.69691226115E+03  0.10566000000E+00 0.  1.
          4    1    4    4  502    0  0.66407298448E+03 -0.74223686659E+02  0.80639890390E+03  0.10472732578E+04  0.00000000000E+00 0.  1.
         13    1    3    3    0    0  0.26635435974E+03  0.39168267005E+03 -0.35013168243E+03  0.58902645541E+03  0.10566000000E+00 0. -1.
         -4    1    3    3    0  501 -0.63923891033E+03  0.99338017525E+02 -0.10317047309E+04  0.12177475428E+04  0.00000000000E+00 0. -1.
<mgrwt>
<rscale>  0 0.11727476E+04</rscale>
<asrwt>0</asrwt>
<pdfrwt beam="1">  1        4 0.26555016E+00 0.11815328E+04</pdfrwt>
<pdfrwt beam="2">  1       -4 0.28075130E+00 0.11640277E+04</pdfrwt>
<totfact> 0.78608870E-02</totfact>
</mgrwt>
</event>
<event>
 8    1  0.3025584E-006  0.1378707E+04  0.7818608E-02  0.8486630E-01
         -4   -1    0    0    0  501 -0.00000000000E+00  0.00000000000E+00  0.26638646447E+04  0.26638646447E+04  0.00000000000E+00 0. -1.
          4   -1    0    0  502    0  0.00000000000E+00 -0.00000000000E+00 -0.24168192991E+04  0.24168192991E+04  0.00000000000E+00 0.  1.
   -9000010    2    1    2    0  501 -0.63196893664E+03  0.71297124991E+03  0.22600236036E+04  0.26473645747E+04  0.99655394358E+03 0.  0.
    9000010    2    1    2  502    0  0.63196893664E+03 -0.71297124991E+03 -0.20129782579E+04  0.24333193692E+04  0.98043303975E+03 0.  0.
        -13    1    4    4    0    0  0.35904246538E+03 -0.92266551857E+03 -0.17042535691E+04  0.19709650910E+04  0.10566000000E+00 0.  1.
          4    1    4    4  502    0  0.27292647125E+03  0.20969426866E+03 -0.30872468881E+03  0.46235427813E+03  0.00000000000E+00 0.  1.
         13    1    3    3    0    0  0.38622067443E+02 -0.19673706146E+03  0.65041946301E+03  0.68061929481E+03  0.10566000000E+00 0. -1.
         -4    1    3    3    0  501 -0.67059100408E+03  0.90970831137E+03  0.16096041406E+04  0.19667452799E+04  0.00000000000E+00 0. -1.
<mgrwt>
<rscale>  0 0.13728910E+04</rscale>
<asrwt>0</asrwt>
<pdfrwt beam="2">  1        4 0.37181835E+00 0.13670997E+04</pdfrwt>
<pdfrwt beam="1">  1       -4 0.40982533E+00 0.13787068E+04</pdfrwt>
<totfact> 0.14039459E-02</totfact>
</mgrwt>
</event>
<event>
 8    1  0.3025584E-006  0.1200834E+04  0.7818608E-02  0.8610505E-01
          4   -1    0    0  502    0  0.00000000000E+00  0.00000000000E+00  0.10818844006E+04  0.10818844006E+04  0.00000000000E+00 0.  1.
         -4   -1    0    0    0  501 -0.00000000000E+00 -0.00000000000E+00 -0.17333459285E+04  0.17333459285E+04  0.00000000000E+00 0. -1.
   -9000010    2    1    2    0  501  0.65322703945E+03  0.54233870517E+02 -0.10122807184E+04  0.15613589744E+04  0.99170697102E+03 0.  0.
    9000010    2    1    2  502    0 -0.65322703945E+03 -0.54233870517E+02  0.36081919046E+03  0.12538713547E+04  0.10061590372E+04 0.  0.
        -13    1    4    4    0    0 -0.81474476989E+03 -0.13034217602E+03 -0.28461703868E+02  0.82559566537E+03  0.10566000000E+00 0.  1.
          4    1    4    4  502    0  0.16151773044E+03  0.76108305505E+02  0.38928089433E+03  0.42827568937E+03  0.00000000000E+00 0.  1.
         13    1    3    3    0    0  0.11549232716E+03 -0.31411556446E+03  0.25741667530E+02  0.33566309014E+03  0.10566000000E+00 0. -1.
         -4    1    3    3    0  501  0.53773471229E+03  0.36834943498E+03 -0.10380223859E+04  0.12256958843E+04  0.00000000000E+00 0. -1.
<mgrwt>
<rscale>  0 0.11947775E+04</rscale>
<asrwt>0</asrwt>
<pdfrwt beam="1">  1        4 0.16644375E+00 0.12008342E+04</pdfrwt>
<pdfrwt beam="2">  1       -4 0.26666860E+00 0.11887513E+04</pdfrwt>
<totfact> 0.15889830E-01</totfact>
</mgrwt>
</event>
<event>
 8    1  0.3025584E-006  0.1149504E+04  0.7818608E-02  0.8654576E-01
         -4   -1    0    0    0  501 -0.00000000000E+00  0.00000000000E+00  0.40696836488E+03  0.40696836488E+03  0.00000000000E+00 0. -1.
          4   -1    0    0  502    0  0.00000000000E+00 -0.00000000000E+00 -0.48287384238E+04  0.48287384238E+04  0.00000000000E+00 0.  1.
   -9000010    2    1    2    0  501  0.44685686415E+03 -0.26690940648E+03 -0.66867387242E+03  0.13105200549E+04  0.99970814657E+03 0.  0.
    9000010    2    1    2  502    0 -0.44685686415E+03  0.26690940648E+03 -0.37530961865E+04  0.39251867337E+04  0.10249088846E+04 0.  0.
        -13    1    4    4    0    0  0.97632637960E+02 -0.32506347767E+03 -0.94145500798E+03  0.10007676752E+04  0.10566000000E+00 0.  1.
          4    1    4    4  502    0 -0.54448950211E+03  0.59197288415E+03 -0.28116411785E+04  0.29244190585E+04  0.00000000000E+00 0.  1.
         13    1    3    3    0    0  0.60952828992E+03 -0.44068183663E+03 -0.74687194055E+03  0.10599730771E+04  0.10566000000E+00 0. -1.
         -4    1    3    3    0  501 -0.16267142577E+03  0.17377243015E+03  0.78198068126E+02  0.25054697784E+03  0.00000000000E+00 0. -1.
<mgrwt>
<rscale>  0 0.11382433E+04</rscale>
<asrwt>0</asrwt>
<pdfrwt beam="2">  1        4 0.74288279E+00 0.11495042E+04</pdfrwt>
<pdfrwt beam="1">  1       -4 0.62610521E-01 0.11270927E+04</pdfrwt>
<totfact> 0.73226024E-03</totfact>
</mgrwt>
</event>
<event>
 8    1  0.3025584E-006  0.1022814E+04  0.7818608E-02  0.8758573E-01
          4   -1    0    0  502    0  0.00000000000E+00  0.00000000000E+00  0.15423171219E+04  0.15423171219E+04  0.00000000000E+00 0.  1.
         -4   -1    0    0    0  501 -0.00000000000E+00 -0.00000000000E+00 -0.17972955469E+04  0.17972955469E+04  0.00000000000E+00 0. -1.
   -9000010    2    1    2    0  501 -0.19497338612E+03 -0.85040938568E+02 -0.14496378204E+04  0.17741474064E+04  0.10004512116E+04 0.  0.
    9000010    2    1    2  502    0  0.19497338612E+03  0.85040938568E+02  0.11946593953E+04  0.15654652625E+04  0.98905198783E+03 0.  0.
        -13    1    4    4    0    0 -0.21007359202E+03  0.27439992877E+03  0.66485643808E+02  0.35191843795E+03  0.10566000000E+00 0.  1.
          4    1    4    4  502    0  0.40504697815E+03 -0.18935899020E+03  0.11281737515E+04  0.12135468245E+04  0.00000000000E+00 0.  1.
         13    1    3    3    0    0  0.11361840715E+02  0.20767305286E+03 -0.13967324000E+04  0.14121326414E+04  0.10566000000E+00 0. -1.
         -4    1    3    3    0  501 -0.20633522684E+03 -0.29271399143E+03 -0.52905420323E+02  0.36201476504E+03  0.00000000000E+00 0. -1.
<mgrwt>
<rscale>  0 0.10172255E+04</rscale>
<asrwt>0</asrwt>
<pdfrwt beam="1">  1        4 0.23727956E+00 0.10116671E+04</pdfrwt>
<pdfrwt beam="2">  1       -4 0.27650701E+00 0.10228144E+04</pdfrwt>
<totfact> 0.95173953E-02</totfact>
</mgrwt>
</event>
<event>
 8    1  0.3025584E-006  0.1067314E+04  0.7818608E-02  0.8714265E-01
         -4   -1    0    0    0  501 -0.00000000000E+00  0.00000000000E+00  0.55432125984E+03  0.55432125984E+03  0.00000000000E+00 0. -1.
          4   -1    0    0  502    0  0.00000000000E+00 -0.00000000000E+00 -0.21736164721E+04  0.21736164721E+04  0.00000000000E+00 0.  1.
   -9000010    2    1    2    0  501  0.32703260738E+03 -0.14544723800E+03 -0.48868116609E+03  0.11738694501E+04  0.10055122965E+04 0.  0.
    9000010    2    1    2  502    0 -0.32703260738E+03  0.14544723800E+03 -0.11306140461E+04  0.15540682819E+04  0.10043579432E+04 0.  0.
        -13    1    4    4    0    0 -0.59978594050E+03 -0.15327476963E+03 -0.88764322219E+03  0.10821953754E+04  0.10566000000E+00 0.  1.
          4    1    4    4  502    0  0.27275333313E+03  0.29872200763E+03 -0.24297082396E+03  0.47187290648E+03  0.00000000000E+00 0.  1.
         13    1    3    3    0    0 -0.25395937785E+03 -0.63351526428E+02 -0.52432413065E+03  0.58602439082E+03  0.10566000000E+00 0. -1.
         -4    1    3    3    0  501  0.58099198522E+03 -0.82095711568E+02  0.35642964554E+02  0.58784505924E+03  0.00000000000E+00 0. -1.
<mgrwt>
<rscale>  0 0.10667706E+04</rscale>
<asrwt>0</asrwt>
<pdfrwt beam="2">  1        4 0.33440253E+00 0.10662270E+04</pdfrwt>
<pdfrwt beam="1">  1       -4 0.85280194E-01 0.10673145E+04</pdfrwt>
<totfact> 0.32986877E-01</totfact>
</mgrwt>
</event>
<event>
 8    1  0.3025584E-006  0.1091279E+04  0.7818608E-02  0.8705300E-01
          4   -1    0    0  502    0  0.00000000000E+00  0.00000000000E+00  0.11744668629E+04  0.11744668629E+04  0.00000000000E+00 0.  1.
         -4   -1    0    0    0  501 -0.00000000000E+00 -0.00000000000E+00 -0.16816939674E+04  0.16816939674E+04  0.00000000000E+00 0. -1.
   -9000010    2    1    2    0  501 -0.35087205013E+03  0.10047790996E+02 -0.11726667872E+04  0.16018855691E+04  0.10332849699E+04 0.  0.
    9000010    2    1    2  502    0  0.35087205013E+03 -0.10047790996E+02  0.66543968270E+03  0.12542752613E+04  0.10035857243E+04 0.  0.
        -13    1    4    4    0    0  0.29634705320E+03 -0.47962321093E+03  0.22140311667E+03  0.60570566420E+03  0.10566000000E+00 0.  1.
          4    1    4    4  502    0  0.54524996932E+02  0.46957541994E+03  0.44403656604E+03  0.64856959709E+03  0.00000000000E+00 0.  1.
         13    1    3    3    0    0 -0.45495670916E+03  0.16213934384E+03 -0.74902874573E+02  0.48875886264E+03  0.10566000000E+00 0. -1.
         -4    1    3    3    0  501  0.10408465903E+03 -0.15209155284E+03 -0.10977639126E+04  0.11131267064E+04  0.00000000000E+00 0. -1.
<mgrwt>
<rscale>  0 0.10771486E+04</rscale>
<asrwt>0</asrwt>
<pdfrwt beam="1">  1        4 0.18068721E+00 0.10632010E+04</pdfrwt>
<pdfrwt beam="2">  1       -4 0.25872215E+00 0.10912791E+04</pdfrwt>
<totfact> 0.14854018E-01</totfact>
</mgrwt>
</event>
<event>
 8    1  0.3025584E-006  0.1183831E+04  0.7818608E-02  0.8627820E-01
          4   -1    0    0  502    0  0.00000000000E+00  0.00000000000E+00  0.15763942827E+04  0.15763942827E+04  0.00000000000E+00 0.  1.
         -4   -1    0    0    0  501 -0.00000000000E+00 -0.00000000000E+00 -0.91925994120E+03  0.91925994120E+03  0.00000000000E+00 0. -1.
   -9000010    2    1    2    0  501  0.56577272811E+03 -0.24599890670E+03  0.41614699568E+02  0.11613681930E+04  0.98307174430E+03 0.  0.
    9000010    2    1    2  502    0 -0.56577272811E+03  0.24599890670E+03  0.61551964192E+03  0.13342860309E+04  0.10103665378E+04 0.  0.
        -13    1    4    4    0    0 -0.17852482707E+03 -0.46462502154E+02 -0.26853832742E+03  0.32579552245E+03  0.10566000000E+00 0.  1.
          4    1    4    4  502    0 -0.38724790105E+03  0.29246140886E+03  0.88405796935E+03  0.10084905085E+04  0.00000000000E+00 0.  1.
         13    1    3    3    0    0 -0.33197724426E+02 -0.41131723390E+03 -0.24195155353E+03  0.47835606114E+03  0.10566000000E+00 0. -1.
         -4    1    3    3    0  501  0.59897045254E+03  0.16531832720E+03  0.28356625310E+03  0.68301213182E+03  0.00000000000E+00 0. -1.
<mgrwt>
<rscale>  0 0.11721690E+04</rscale>
<asrwt>0</asrwt>
<pdfrwt beam="1">  1        4 0.24252220E+00 0.11838306E+04</pdfrwt>
<pdfrwt beam="2">  1       -4 0.14142461E+00 0.11606224E+04</pdfrwt>
<totfact> 0.22965329E-01</totfact>
</mgrwt>
</event>
<event>
 8    1  0.3025584E-006  0.1141489E+04  0.7818608E-02  0.8652492E-01
         -4   -1    0    0    0  501 -0.00000000000E+00  0.00000000000E+00  0.26754469036E+04  0.26754469036E+04  0.00000000000E+00 0. -1.
          4   -1    0    0  502    0  0.00000000000E+00 -0.00000000000E+00 -0.23932310912E+04  0.23932310912E+04  0.00000000000E+00 0.  1.
   -9000010    2    1    2    0  501  0.54928588349E+03 -0.72552030108E+02  0.24032697040E+04  0.26605831737E+04  0.99800740232E+03 0.  0.
    9000010    2    1    2  502    0 -0.54928588349E+03  0.72552030108E+02 -0.21210538916E+04  0.24080948211E+04  0.99653011879E+03 0.  0.
        -13    1    4    4    0    0  0.24588843939E+03 -0.17893254853E+03 -0.50387086761E+03  0.58852684216E+03  0.10566000000E+00 0.  1.
          4    1    4    4  502    0 -0.79517432288E+03  0.25148457864E+03 -0.16171830240E+04  0.18195679790E+04  0.00000000000E+00 0.  1.
         13    1    3    3    0    0  0.49031859764E+03 -0.45738127156E+03  0.19553080501E+04  0.20670847918E+04  0.10566000000E+00 0. -1.
         -4    1    3    3    0  501  0.58967285850E+02  0.38482924145E+03  0.44796165389E+03  0.59349838183E+03  0.00000000000E+00 0. -1.
<mgrwt>
<rscale>  0 0.11408433E+04</rscale>
<asrwt>0</asrwt>
<pdfrwt beam="2">  1        4 0.36818940E+00 0.11401978E+04</pdfrwt>
<pdfrwt beam="1">  1       -4 0.41160722E+00 0.11414892E+04</pdfrwt>
<totfact> 0.14764086E-02</totfact>
</mgrwt>
</event>
<event>
 8    1  0.3025584E-006  0.1139906E+04  0.7818608E-02  0.8661089E-01
         -4   -1    0    0    0  501 -0.00000000000E+00  0.00000000000E+00  0.80286044094E+03  0.80286044094E+03  0.00000000000E+00 0. -1.
          4   -1    0    0  502    0  0.00000000000E+00 -0.00000000000E+00 -0.23387391130E+04  0.23387391130E+04  0.00000000000E+00 0.  1.
   -9000010    2    1    2    0  501  0.30774939449E+03 -0.49715852730E+03  0.12469448320E+03  0.11274274408E+04  0.95585962831E+03 0.  0.
    9000010    2    1    2  502    0 -0.30774939449E+03  0.49715852730E+03 -0.16605731552E+04  0.20141721131E+04  0.97852430032E+03 0.  0.
        -13    1    4    4    0    0 -0.36356381599E+03  0.76602057674E+03 -0.13929891817E+04  0.16307621052E+04  0.10566000000E+00 0.  1.
          4    1    4    4  502    0  0.55814421499E+02 -0.26886204944E+03 -0.26758397354E+03  0.38341000792E+03  0.00000000000E+00 0.  1.
         13    1    3    3    0    0  0.47400446429E+03 -0.40247597134E+03  0.43780653424E+03  0.76048781204E+03  0.10566000000E+00 0. -1.
         -4    1    3    3    0  501 -0.16625506981E+03 -0.94682555961E+02 -0.31311205104E+03  0.36693962875E+03  0.00000000000E+00 0. -1.
<mgrwt>
<rscale>  0 0.11301668E+04</rscale>
<asrwt>0</asrwt>
<pdfrwt beam="2">  1        4 0.35980601E+00 0.11399062E+04</pdfrwt>
<pdfrwt beam="1">  1       -4 0.12351699E+00 0.11205106E+04</pdfrwt>
<totfact> 0.13582789E-01</totfact>
</mgrwt>
</event>
<event>
 8    1  0.3025584E-006  0.1161752E+04  0.7818608E-02  0.8642403E-01
          4   -1    0    0  502    0  0.00000000000E+00  0.00000000000E+00  0.10522260361E+04  0.10522260361E+04  0.00000000000E+00 0.  1.
         -4   -1    0    0    0  501 -0.00000000000E+00 -0.00000000000E+00 -0.16319674643E+04  0.16319674643E+04  0.00000000000E+00 0. -1.
   -9000010    2    1    2    0  501  0.25591285281E+03 -0.50912210477E+03 -0.92817729232E+03  0.14870040892E+04  0.10124086969E+04 0.  0.
    9000010    2    1    2  502    0 -0.25591285281E+03  0.50912210477E+03  0.34843586414E+03  0.11971894111E+04  0.99355836711E+03 0.  0.
        -13    1    4    4    0    0 -0.62469965360E+03  0.45412898756E+03  0.24477155080E+03  0.81018264471E+03  0.10566000000E+00 0.  1.
          4    1    4    4  502    0  0.36878680079E+03  0.54993117211E+02  0.10366431334E+03  0.38700676639E+03  0.00000000000E+00 0.  1.
         13    1    3    3    0    0  0.32676977949E+03 -0.10202102391E+03 -0.10094065240E+04  0.10658744392E+04  0.10566000000E+00 0. -1.
         -4    1    3    3    0  501 -0.70856926683E+02 -0.40710108086E+03  0.81229231715E+02  0.42112965008E+03  0.00000000000E+00 0. -1.
<mgrwt>
<rscale>  0 0.11535281E+04</rscale>
<asrwt>0</asrwt>
<pdfrwt beam="1">  1        4 0.16188093E+00 0.11453624E+04</pdfrwt>
<pdfrwt beam="2">  1       -4 0.25107192E+00 0.11617522E+04</pdfrwt>
<totfact> 0.17989692E-01</totfact>
</mgrwt>
</event>
<event>
 8    1  0.3025584E-006  0.1136915E+04  0.7818608E-02  0.8757288E-01
          4   -1    0    0  502    0  0.00000000000E+00  0.00000000000E+00  0.74589660397E+03  0.74589660397E+03  0.00000000000E+00 0.  1.
         -4   -1    0    0    0  501 -0.00000000000E+00 -0.00000000000E+00 -0.20377610619E+04  0.20377610619E+04  0.00000000000E+00 0. -1.
   -9000010    2    1    2    0  501  0.50739598072E+03 -0.27729713885E+03 -0.14653491209E+04  0.18546763465E+04  0.97889321161E+03 0.  0.
    9000010    2    1    2  502    0 -0.50739598072E+03  0.27729713885E+03  0.17348466297E+03  0.92898131937E+03  0.70609133898E+03 0.  0.
        -13    1    4    4    0    0 -0.91973225843E+02  0.44641472949E+03  0.15000308510E+03  0.47983968331E+03  0.10566000000E+00 0.  1.
          4    1    4    4  502    0 -0.41542275488E+03 -0.16911759064E+03  0.23481577865E+02  0.44914163605E+03  0.00000000000E+00 0.  1.
         13    1    3    3    0    0  0.70512951363E+03  0.46533717756E+02 -0.67156487970E+03  0.97487046149E+03  0.10566000000E+00 0. -1.
         -4    1    3    3    0  501 -0.19773353291E+03 -0.32383085661E+03 -0.79378424124E+03  0.87980588505E+03  0.00000000000E+00 0. -1.
<mgrwt>
<rscale>  0 0.10186230E+04</rscale>
<asrwt>0</asrwt>
<pdfrwt beam="1">  1        4 0.11475333E+00 0.91263868E+03</pdfrwt>
<pdfrwt beam="2">  1       -4 0.31350169E+00 0.11369153E+04</pdfrwt>
<totfact> 0.21304676E-01</totfact>
</mgrwt>
</event>
<event>
 8    1  0.3025584E-006  0.1117525E+04  0.7818608E-02  0.8702732E-01
          4   -1    0    0  502    0  0.00000000000E+00  0.00000000000E+00  0.16880463383E+04  0.16880463383E+04  0.00000000000E+00 0.  1.
         -4   -1    0    0    0  501 -0.00000000000E+00 -0.00000000000E+00 -0.18979836445E+04  0.18979836445E+04  0.00000000000E+00 0. -1.
   -9000010    2    1    2    0  501  0.42875547634E+03  0.17524529029E+03 -0.15352425369E+04  0.18989027090E+04  0.10170150840E+04 0.  0.
    9000010    2    1    2  502    0 -0.42875547634E+03 -0.17524529029E+03  0.13253052306E+04  0.16871272738E+04  0.93564005554E+03 0.  0.
        -13    1    4    4    0    0 -0.10704323765E+03 -0.42453771352E+03  0.18308646681E+03  0.47456421106E+03  0.10566000000E+00 0.  1.
          4    1    4    4  502    0 -0.32171223869E+03  0.24929242323E+03  0.11422187638E+04  0.12125630628E+04  0.00000000000E+00 0.  1.
         13    1    3    3    0    0  0.31641855750E+03 -0.38536451242E+03 -0.99179089056E+03  0.11100791380E+04  0.10566000000E+00 0. -1.
         -4    1    3    3    0  501  0.11233691883E+03  0.56060980271E+03 -0.54345164630E+03  0.78882357095E+03  0.00000000000E+00 0. -1.
<mgrwt>
<rscale>  0 0.10801441E+04</rscale>
<asrwt>0</asrwt>
<pdfrwt beam="1">  1        4 0.25969944E+00 0.10440136E+04</pdfrwt>
<pdfrwt beam="2">  1       -4 0.29199748E+00 0.11175249E+04</pdfrwt>
<totfact> 0.76308069E-02</totfact>
</mgrwt>
</event>
<event>
 8    1  0.3025584E-006  0.1539495E+04  0.7818608E-02  0.8394540E-01
          4   -1    0    0  502    0  0.00000000000E+00  0.00000000000E+00  0.28062733153E+04  0.28062733153E+04  0.00000000000E+00 0.  1.
         -4   -1    0    0    0  501 -0.00000000000E+00 -0.00000000000E+00 -0.17559817267E+04  0.17559817267E+04  0.00000000000E+00 0. -1.
   -9000010    2    1    2    0  501 -0.11325900446E+04  0.27935482035E+03 -0.11290328577E+04  0.19091256193E+04  0.10046124187E+04 0.  0.
    9000010    2    1    2  502    0  0.11325900446E+04 -0.27935482035E+03  0.21793244463E+04  0.26531294227E+04  0.96376416559E+03 0.  0.
        -13    1    4    4    0    0  0.11923384753E+04  0.34648488612E+02  0.16857970644E+04  0.20651351798E+04  0.10566000000E+00 0.  1.
          4    1    4    4  502    0 -0.59748430744E+02 -0.31400330896E+03  0.49352738190E+03  0.58799424292E+03  0.00000000000E+00 0.  1.
         13    1    3    3    0    0 -0.54957035686E+03 -0.15424241423E+03 -0.10276111137E+04  0.11755011321E+04  0.10566000000E+00 0. -1.
         -4    1    3    3    0  501 -0.58301968769E+03  0.43359723458E+03 -0.10142174403E+03  0.73362448721E+03  0.00000000000E+00 0. -1.
<mgrwt>
<rscale>  0 0.15262687E+04</rscale>
<asrwt>0</asrwt>
<pdfrwt beam="1">  1        4 0.43173436E+00 0.15131559E+04</pdfrwt>
<pdfrwt beam="2">  1       -4 0.27015104E+00 0.15394952E+04</pdfrwt>
<totfact> 0.22485334E-02</totfact>
</mgrwt>
</event>
<event>
 8    1  0.3025584E-006  0.1413935E+04  0.7818608E-02  0.8462602E-01
          4   -1    0    0  502    0  0.00000000000E+00  0.00000000000E+00  0.21814079862E+04  0.21814079862E+04  0.00000000000E+00 0.  1.
         -4   -1    0    0    0  501 -0.00000000000E+00 -0.00000000000E+00 -0.35746995851E+04  0.35746995851E+04  0.00000000000E+00 0. -1.
   -9000010    2    1    2    0  501 -0.14285605145E+03 -0.97607867235E+03 -0.31805932598E+04  0.34807161157E+04  0.10129529937E+04 0.  0.
    9000010    2    1    2  502    0  0.14285605145E+03  0.97607867235E+03  0.17873016609E+04  0.22753914556E+04  0.10048988125E+04 0.  0.
        -13    1    4    4    0    0  0.27001104504E+03  0.37302641873E+02  0.10214612815E+04  0.10572041489E+04  0.10566000000E+00 0.  1.
          4    1    4    4  502    0 -0.12715499359E+03  0.93877603048E+03  0.76584037933E+03  0.12181873068E+04  0.00000000000E+00 0.  1.
         13    1    3    3    0    0  0.33051283667E+03 -0.86706211631E+03 -0.21188966913E+04  0.23131706916E+04  0.10566000000E+00 0. -1.
         -4    1    3    3    0  501 -0.47336888812E+03 -0.10901655604E+03 -0.10616965685E+04  0.11675454241E+04  0.00000000000E+00 0. -1.
<mgrwt>
<rscale>  0 0.14110523E+04</rscale>
<asrwt>0</asrwt>
<pdfrwt beam="1">  1        4 0.33560123E+00 0.14081758E+04</pdfrwt>
<pdfrwt beam="2">  1       -4 0.54995378E+00 0.14139346E+04</pdfrwt>
<totfact> 0.41587695E-03</totfact>
</mgrwt>
</event>
<event>
 8    1  0.3025584E-006  0.1107768E+04  0.7818608E-02  0.8686160E-01
         -4   -1    0    0    0  501 -0.00000000000E+00  0.00000000000E+00  0.98131006157E+03  0.98131006157E+03  0.00000000000E+00 0. -1.
          4   -1    0    0  502    0  0.00000000000E+00 -0.00000000000E+00 -0.23303791326E+04  0.23303791326E+04  0.00000000000E+00 0.  1.
   -9000010    2    1    2    0  501 -0.45338612824E+03  0.36437994247E+02  0.45939302040E+03  0.11992466184E+04  0.10100810838E+04 0.  0.
    9000010    2    1    2  502    0  0.45338612824E+03 -0.36437994247E+02 -0.18084620914E+04  0.21124425757E+04  0.99246752643E+03 0.  0.
        -13    1    4    4    0    0  0.36190644189E+03 -0.14271896813E+03 -0.10463772189E+03  0.40285734516E+03  0.10566000000E+00 0.  1.
          4    1    4    4  502    0  0.91479686348E+02  0.10628097388E+03 -0.17038243695E+04  0.17095852306E+04  0.00000000000E+00 0.  1.
         13    1    3    3    0    0 -0.15579632701E+03 -0.85392966083E+02  0.74699584341E+03  0.76783283038E+03  0.10566000000E+00 0. -1.
         -4    1    3    3    0  501 -0.29758980123E+03  0.12183096033E+03 -0.28760282301E+03  0.43141378802E+03  0.00000000000E+00 0. -1.
<mgrwt>
<rscale>  0 0.10997208E+04</rscale>
<asrwt>0</asrwt>
<pdfrwt beam="2">  1        4 0.35851986E+00 0.10917319E+04</pdfrwt>
<pdfrwt beam="1">  1       -4 0.15097078E+00 0.11077683E+04</pdfrwt>
<totfact> 0.10086763E-01</totfact>
</mgrwt>
</event>
<event>
 8    1  0.3025584E-006  0.1037640E+04  0.7818608E-02  0.8744976E-01
         -4   -1    0    0    0  501 -0.00000000000E+00  0.00000000000E+00  0.18537490938E+04  0.18537490938E+04  0.00000000000E+00 0. -1.
          4   -1    0    0  502    0  0.00000000000E+00 -0.00000000000E+00 -0.32437737372E+04  0.32437737372E+04  0.00000000000E+00 0.  1.
   -9000010    2    1    2    0  501 -0.97031580810E+01  0.21218528496E+03  0.16176248529E+04  0.19159112057E+04  0.10044345857E+04 0.  0.
    9000010    2    1    2  502    0  0.97031580810E+01 -0.21218528496E+03 -0.30076494963E+04  0.31816116252E+04  0.10156674134E+04 0.  0.
        -13    1    4    4    0    0  0.12247444082E+03  0.18930860350E+03 -0.25596104348E+04  0.25695220032E+04  0.10566000000E+00 0.  1.
          4    1    4    4  502    0 -0.11277128274E+03 -0.40149388847E+03 -0.44803906151E+03  0.61208962197E+03  0.00000000000E+00 0.  1.
         13    1    3    3    0    0  0.40170245327E+03 -0.13630166153E+03  0.10528772584E+04  0.11351182918E+04  0.10566000000E+00 0. -1.
         -4    1    3    3    0  501 -0.41140561135E+03  0.34848694649E+03  0.56474759446E+03  0.78079291389E+03  0.00000000000E+00 0. -1.
<mgrwt>
<rscale>  0 0.10321293E+04</rscale>
<asrwt>0</asrwt>
<pdfrwt beam="2">  1        4 0.49904210E+00 0.10376401E+04</pdfrwt>
<pdfrwt beam="1">  1       -4 0.28519217E+00 0.10266477E+04</pdfrwt>
<totfact> 0.10655174E-02</totfact>
</mgrwt>
</event>
<event>
 8    1  0.3025584E-006  0.1091823E+04  0.7818608E-02  0.8702420E-01
         -4   -1    0    0    0  501 -0.00000000000E+00  0.00000000000E+00  0.57725486453E+03  0.57725486453E+03  0.00000000000E+00 0. -1.
          4   -1    0    0  502    0  0.00000000000E+00 -0.00000000000E+00 -0.36904116069E+04  0.36904116069E+04  0.00000000000E+00 0.  1.
   -9000010    2    1    2    0  501 -0.27265275570E+03 -0.26269762732E+03 -0.11329959432E+03  0.10752975352E+04  0.10000392105E+04 0.  0.
    9000010    2    1    2  502    0  0.27265275570E+03  0.26269762732E+03 -0.29998571480E+04  0.31923689362E+04  0.10240737022E+04 0.  0.
        -13    1    4    4    0    0 -0.30029044678E+03  0.40172739767E+03 -0.13223201584E+04  0.14142453348E+04  0.10566000000E+00 0.  1.
          4    1    4    4  502    0  0.57294320248E+03 -0.13902977035E+03 -0.16775369896E+04  0.17781236014E+04  0.00000000000E+00 0.  1.
         13    1    3    3    0    0 -0.56997076101E+03 -0.34740161334E+03 -0.28025701227E+03  0.72394651283E+03  0.10566000000E+00 0. -1.
         -4    1    3    3    0  501  0.29731800531E+03  0.84703986016E+02  0.16695741794E+03  0.35135102239E+03  0.00000000000E+00 0. -1.
<mgrwt>
<rscale>  0 0.10805086E+04</rscale>
<asrwt>0</asrwt>
<pdfrwt beam="2">  1        4 0.56775566E+00 0.10918226E+04</pdfrwt>
<pdfrwt beam="1">  1       -4 0.88808436E-01 0.10693119E+04</pdfrwt>
<totfact> 0.28982688E-02</totfact>
</mgrwt>
</event>
<event>
 8    1  0.3025584E-006  0.1369078E+04  0.7818608E-02  0.8490055E-01
         -4   -1    0    0    0  501 -0.00000000000E+00  0.00000000000E+00  0.26020176569E+04  0.26020176569E+04  0.00000000000E+00 0. -1.
          4   -1    0    0  502    0  0.00000000000E+00 -0.00000000000E+00 -0.79742305664E+03  0.79742305664E+03  0.00000000000E+00 0.  1.
   -9000010    2    1    2    0  501  0.60728779096E+03 -0.70541309463E+03  0.14352691798E+04  0.19814225838E+04  0.99981585409E+03 0.  0.
    9000010    2    1    2  502    0 -0.60728779096E+03  0.70541309463E+03  0.36932542044E+03  0.14180181297E+04  0.10039761227E+04 0.  0.
        -13    1    4    4    0    0 -0.41966121014E+03 -0.49077826768E+02  0.47235189219E+03  0.63375112276E+03  0.10566000000E+00 0.  1.
          4    1    4    4  502    0 -0.18762658081E+03  0.75449092139E+03 -0.10302647175E+03  0.78426700694E+03  0.00000000000E+00 0.  1.
         13    1    3    3    0    0  0.10910730442E+03 -0.72862179654E+03  0.41451595959E+03  0.84535058893E+03  0.10566000000E+00 0. -1.
         -4    1    3    3    0  501  0.49818048654E+03  0.23208701920E+02  0.10207532202E+04  0.11360719949E+04  0.00000000000E+00 0. -1.
<mgrwt>
<rscale>  0 0.13675531E+04</rscale>
<asrwt>0</asrwt>
<pdfrwt beam="2">  1        4 0.12268047E+00 0.13690778E+04</pdfrwt>
<pdfrwt beam="1">  1       -4 0.40031041E+00 0.13660300E+04</pdfrwt>
<totfact> 0.94997406E-02</totfact>
</mgrwt>
</event>
<event>
 8    1  0.3025584E-006  0.1451393E+04  0.7818608E-02  0.8438744E-01
         -4   -1    0    0    0  501 -0.00000000000E+00  0.00000000000E+00  0.23033467101E+04  0.23033467101E+04  0.00000000000E+00 0. -1.
          4   -1    0    0  502    0  0.00000000000E+00 -0.00000000000E+00 -0.10886261644E+04  0.10886261644E+04  0.00000000000E+00 0.  1.
   -9000010    2    1    2    0  501  0.16633384119E+03  0.10353802738E+04  0.12888523570E+04  0.19410521088E+04  0.10034259478E+04 0.  0.
    9000010    2    1    2  502    0 -0.16633384119E+03 -0.10353802738E+04 -0.74131811282E+02  0.14509207658E+04  0.99999814257E+03 0.  0.
        -13    1    4    4    0    0 -0.14287606010E+03  0.16878444168E+03 -0.10789362797E+03  0.24605447044E+03  0.10566000000E+00 0.  1.
          4    1    4    4  502    0 -0.23457781097E+02 -0.12041647155E+04  0.33761816688E+02  0.12048662954E+04  0.00000000000E+00 0.  1.
         13    1    3    3    0    0 -0.13202098973E+03 -0.13425661916E+03  0.39970691597E+03  0.44183708690E+03  0.10566000000E+00 0. -1.
         -4    1    3    3    0  501  0.29835483092E+03  0.11696368929E+04  0.88914544102E+03  0.14992150219E+04  0.00000000000E+00 0. -1.
<mgrwt>
<rscale>  0 0.14502091E+04</rscale>
<asrwt>0</asrwt>
<pdfrwt beam="2">  1        4 0.16748095E+00 0.14490257E+04</pdfrwt>
<pdfrwt beam="1">  1       -4 0.35436103E+00 0.14513934E+04</pdfrwt>
<totfact> 0.87574156E-02</totfact>
</mgrwt>
</event>
<event>
 8    1  0.3025584E-006  0.2022218E+04  0.7818608E-02  0.8194334E-01
         -4   -1    0    0    0  501 -0.00000000000E+00  0.00000000000E+00  0.22221884017E+04  0.22221884017E+04  0.00000000000E+00 0.  1.
          4   -1    0    0  502    0  0.00000000000E+00 -0.00000000000E+00 -0.22201453311E+04  0.22201453311E+04  0.00000000000E+00 0. -1.
   -9000010    2    1    2    0  501 -0.15513950338E+04 -0.16022903654E+03 -0.10811880140E+04  0.22931053201E+04  0.12871925234E+04 0.  0.
    9000010    2    1    2  502    0  0.15513950338E+04  0.16022903654E+03  0.10832310846E+04  0.21492284128E+04  0.10066247030E+04 0.  0.
        -13    1    4    4    0    0  0.14974381823E+04  0.40970222730E+03  0.10848912399E+04  0.18939815306E+04  0.10566000000E+00 0.  1.
          4    1    4    4  502    0  0.53956851481E+02 -0.24947319076E+03 -0.16601552425E+01  0.25524688215E+03  0.00000000000E+00 0.  1.
         13    1    3    3    0    0 -0.16526717838E+04 -0.45199864330E+03 -0.91761532824E+03  0.19436163974E+04  0.10566000000E+00 0. -1.
         -4    1    3    3    0  501  0.10127675000E+03  0.29176960676E+03 -0.16357268580E+03  0.34948892266E+03  0.00000000000E+00 0. -1.
<mgrwt>
<rscale>  0 0.19374757E+04</rscale>
<asrwt>0</asrwt>
<pdfrwt beam="2">  1        4 0.34156082E+00 0.18562848E+04</pdfrwt>
<pdfrwt beam="1">  1       -4 0.34187514E+00 0.20222177E+04</pdfrwt>
<totfact> 0.30486910E-02</totfact>
</mgrwt>
</event>
<event>
 8    1  0.3025584E-006  0.1689783E+04  0.7818608E-02  0.8312490E-01
          4   -1    0    0  502    0  0.00000000000E+00  0.00000000000E+00  0.27721825047E+04  0.27721825047E+04  0.00000000000E+00 0.  1.
         -4   -1    0    0    0  501 -0.00000000000E+00 -0.00000000000E+00 -0.17511860827E+04  0.17511860827E+04  0.00000000000E+00 0. -1.
   -9000010    2    1    2    0  501  0.56838854899E+03 -0.12173657986E+04 -0.95036097706E+03  0.19386985089E+04  0.10248516436E+04 0.  0.
    9000010    2    1    2  502    0 -0.56838854899E+03  0.12173657986E+04  0.19713573991E+04  0.25846700785E+04  0.99459760173E+03 0.  0.
        -13    1    4    4    0    0  0.79447031366E+02  0.90620248255E+03  0.80526011615E+03  0.12148903802E+04  0.10566000000E+00 0.  1.
          4    1    4    4  502    0 -0.64783558035E+03  0.31116331609E+03  0.11660972829E+04  0.13697796982E+04  0.00000000000E+00 0.  1.
         13    1    3    3    0    0  0.65352007563E+03 -0.43495859555E+03 -0.83013819395E+03  0.11425440479E+04  0.10566000000E+00 0. -1.
         -4    1    3    3    0  501 -0.85131526641E+02 -0.78240720310E+03 -0.12022278311E+03  0.79615446106E+03  0.00000000000E+00 0. -1.
<mgrwt>
<rscale>  0 0.16806702E+04</rscale>
<asrwt>0</asrwt>
<pdfrwt beam="1">  1        4 0.42648962E+00 0.16716068E+04</pdfrwt>
<pdfrwt beam="2">  1       -4 0.26941324E+00 0.16897828E+04</pdfrwt>
<totfact> 0.23433602E-02</totfact>
</mgrwt>
</event>
<event>
 8    1  0.3025584E-006  0.1407466E+04  0.7818608E-02  0.8492283E-01
          4   -1    0    0  502    0  0.00000000000E+00  0.00000000000E+00  0.16155612335E+04  0.16155612335E+04  0.00000000000E+00 0.  1.
         -4   -1    0    0    0  501 -0.00000000000E+00 -0.00000000000E+00 -0.20449127016E+04  0.20449127016E+04  0.00000000000E+00 0. -1.
   -9000010    2    1    2    0  501  0.62667247236E+03  0.63970798866E+03 -0.14193601544E+04  0.19396957329E+04  0.97256958106E+03 0.  0.
    9000010    2    1    2  502    0 -0.62667247236E+03 -0.63970798866E+03  0.99000868632E+03  0.17207782022E+04  0.10858249048E+04 0.  0.
        -13    1    4    4    0    0 -0.84827352794E+03 -0.73541650942E+03  0.96070607265E+03  0.14776202454E+04  0.10566000000E+00 0.  1.
          4    1    4    4  502    0  0.22160105558E+03  0.95708520756E+02  0.29302613664E+02  0.24315795678E+03  0.00000000000E+00 0.  1.
         13    1    3    3    0    0  0.82367592921E+03  0.55882462666E+03 -0.77629199580E+03  0.12622821688E+04  0.10566000000E+00 0. -1.
         -4    1    3    3    0  501 -0.19700345685E+03  0.80883362002E+02 -0.64306815858E+03  0.67741356411E+03  0.00000000000E+00 0. -1.
<mgrwt>
<rscale>  0 0.13640935E+04</rscale>
<asrwt>0</asrwt>
<pdfrwt beam="1">  1        4 0.24854788E+00 0.14074660E+04</pdfrwt>
<pdfrwt beam="2">  1       -4 0.31460195E+00 0.13220576E+04</pdfrwt>
<totfact> 0.68741243E-02</totfact>
</mgrwt>
</event>
<event>
 8    1  0.3025584E-006  0.1075545E+04  0.7818608E-02  0.8718376E-01
          4   -1    0    0  502    0  0.00000000000E+00  0.00000000000E+00  0.12723198930E+04  0.12723198930E+04  0.00000000000E+00 0.  1.
         -4   -1    0    0    0  501 -0.00000000000E+00 -0.00000000000E+00 -0.17343952091E+04  0.17343952091E+04  0.00000000000E+00 0. -1.
   -9000010    2    1    2    0  501 -0.26301715233E+03 -0.20306585432E+03 -0.12805325272E+04  0.16551719673E+04  0.99469438752E+03 0.  0.
    9000010    2    1    2  502    0  0.26301715233E+03  0.20306585432E+03  0.81845721114E+03  0.13515431347E+04  0.10229285776E+04 0.  0.
        -13    1    4    4    0    0  0.29270137071E+03  0.37824151144E+03  0.99318988295E+03  0.11023460837E+04  0.10566000000E+00 0.  1.
          4    1    4    4  502    0 -0.29684218377E+02 -0.17517565711E+03 -0.17473267180E+03  0.24919705107E+03  0.00000000000E+00 0.  1.
         13    1    3    3    0    0 -0.22139520028E+03 -0.26124395200E+03 -0.14401263800E+04  0.14802797840E+04  0.10566000000E+00 0. -1.
         -4    1    3    3    0  501 -0.41621952049E+02  0.58178097680E+02  0.15959385282E+03  0.17489218336E+03  0.00000000000E+00 0. -1.
<mgrwt>
<rscale>  0 0.10620518E+04</rscale>
<asrwt>0</asrwt>
<pdfrwt beam="1">  1        4 0.19574152E+00 0.10755448E+04</pdfrwt>
<pdfrwt beam="2">  1       -4 0.26683003E+00 0.10487281E+04</pdfrwt>
<totfact> 0.12828101E-01</totfact>
</mgrwt>
</event>
<event>
 8    1  0.3025584E-006  0.1046735E+04  0.7818608E-02  0.8737856E-01
         -4   -1    0    0    0  501 -0.00000000000E+00  0.00000000000E+00  0.20504877386E+04  0.20504877386E+04  0.00000000000E+00 0. -1.
          4   -1    0    0  502    0  0.00000000000E+00 -0.00000000000E+00 -0.83855715574E+03  0.83855715574E+03  0.00000000000E+00 0.  1.
   -9000010    2    1    2    0  501 -0.46708611892E+02  0.31384859744E+03  0.14832323308E+04  0.18077220184E+04  0.98346230853E+03 0.  0.
    9000010    2    1    2  502    0  0.46708611892E+02 -0.31384859744E+03 -0.27130174786E+03  0.10813228760E+04  0.99748277537E+03 0.  0.
        -13    1    4    4    0    0  0.41786227016E+03 -0.41938646864E+03  0.28449492075E+02  0.59270842044E+03  0.10566000000E+00 0.  1.
          4    1    4    4  502    0 -0.37115365826E+03  0.10553787121E+03 -0.29975123994E+03  0.48861445552E+03  0.00000000000E+00 0.  1.
         13    1    3    3    0    0  0.16938713060E+03 -0.30317651660E+03  0.31433583195E+03  0.46841757721E+03  0.10566000000E+00 0. -1.
         -4    1    3    3    0  501 -0.21609574249E+03  0.61702511404E+03  0.11688964988E+04  0.13393044412E+04  0.00000000000E+00 0. -1.
<mgrwt>
<rscale>  0 0.10400377E+04</rscale>
<asrwt>0</asrwt>
<pdfrwt beam="2">  1        4 0.12900879E+00 0.10467352E+04</pdfrwt>
<pdfrwt beam="1">  1       -4 0.31545965E+00 0.10333832E+04</pdfrwt>
<totfact> 0.17452876E-01</totfact>
</mgrwt>
</event>
<event>
 8    1  0.3025584E-006  0.1082937E+04  0.7818608E-02  0.8701612E-01
          4   -1    0    0  502    0  0.00000000000E+00  0.00000000000E+00  0.22064124977E+04  0.22064124977E+04  0.00000000000E+00 0.  1.
         -4   -1    0    0    0  501 -0.00000000000E+00 -0.00000000000E+00 -0.71526077725E+03  0.71526077725E+03  0.00000000000E+00 0. -1.
   -9000010    2    1    2    0  501 -0.19094342453E+03  0.42257951436E+03  0.14866378173E+01  0.10799743063E+04  0.97535093933E+03 0.  0.
    9000010    2    1    2  502    0  0.19094342453E+03 -0.42257951436E+03  0.14896650827E+04  0.18416989687E+04  0.97863179766E+03 0.  0.
        -13    1    4    4    0    0 -0.23092609972E+03  0.21361818906E+03  0.35717420674E+03  0.47595485012E+03  0.10566000000E+00 0.  1.
          4    1    4    4  502    0  0.42186952425E+03 -0.63619770342E+03  0.11324908759E+04  0.13657441185E+04  0.00000000000E+00 0.  1.
         13    1    3    3    0    0 -0.39900452996E+03 -0.15155628524E+03 -0.14715118034E+03  0.45147248373E+03  0.10566000000E+00 0. -1.
         -4    1    3    3    0  501  0.20806110543E+03  0.57413579960E+03  0.14863781816E+03  0.62850182256E+03  0.00000000000E+00 0. -1.
<mgrwt>
<rscale>  0 0.10814542E+04</rscale>
<asrwt>0</asrwt>
<pdfrwt beam="1">  1        4 0.33944807E+00 0.10829372E+04</pdfrwt>
<pdfrwt beam="2">  1       -4 0.11004012E+00 0.10799733E+04</pdfrwt>
<totfact> 0.19467249E-01</totfact>
</mgrwt>
</event>
<event>
 8    1  0.3025584E-006  0.1078567E+04  0.7818608E-02  0.8715686E-01
          4   -1    0    0  502    0  0.00000000000E+00  0.00000000000E+00  0.99948556992E+03  0.99948556992E+03  0.00000000000E+00 0.  1.
         -4   -1    0    0    0  501 -0.00000000000E+00 -0.00000000000E+00 -0.21092233141E+04  0.21092233141E+04  0.00000000000E+00 0. -1.
   -9000010    2    1    2    0  501  0.34760097138E+03  0.11672190800E+03 -0.16147902988E+04  0.19418690596E+04  0.10143260307E+04 0.  0.
    9000010    2    1    2  502    0 -0.34760097138E+03 -0.11672190800E+03  0.50505255460E+03  0.11668398244E+04  0.98589383495E+03 0.  0.
        -13    1    4    4    0    0 -0.64604937613E+03  0.13082422072E+03  0.37205358605E+03  0.75691390210E+03  0.10566000000E+00 0.  1.
          4    1    4    4  502    0  0.29844840475E+03 -0.24754612872E+03  0.13299896854E+03  0.40992592231E+03  0.00000000000E+00 0.  1.
         13    1    3    3    0    0 -0.53372566433E+01  0.20402467327E+03 -0.15610594499E+04  0.15743446798E+04  0.10566000000E+00 0. -1.
         -4    1    3    3    0  501  0.35293822802E+03 -0.87302765272E+02 -0.53730848890E+02  0.36752437980E+03  0.00000000000E+00 0. -1.
<mgrwt>
<rscale>  0 0.10651367E+04</rscale>
<asrwt>0</asrwt>
<pdfrwt beam="1">  1        4 0.15376701E+00 0.10518731E+04</pdfrwt>
<pdfrwt beam="2">  1       -4 0.32449589E+00 0.10785674E+04</pdfrwt>
<totfact> 0.12566120E-01</totfact>
</mgrwt>
</event>
<event>
 8    1  0.3025584E-006  0.1043577E+04  0.7818608E-02  0.8776419E-01
          4   -1    0    0  502    0  0.00000000000E+00  0.00000000000E+00  0.18354856404E+04  0.18354856404E+04  0.00000000000E+00 0.  1.
         -4   -1    0    0    0  501 -0.00000000000E+00 -0.00000000000E+00 -0.13259847965E+04  0.13259847965E+04  0.00000000000E+00 0. -1.
   -9000010    2    1    2    0  501  0.21578982210E+03 -0.14158926010E+03 -0.96349927010E+03  0.13562604997E+04  0.91896623090E+03 0.  0.
    9000010    2    1    2  502    0 -0.21578982210E+03  0.14158926010E+03  0.14730001140E+04  0.18052099372E+04  0.10111581557E+04 0.  0.
        -13    1    4    4    0    0 -0.13264682563E+03  0.47160459968E+03  0.27926678205E+03  0.56391136317E+03  0.10566000000E+00 0.  1.
          4    1    4    4  502    0 -0.83142996468E+02 -0.33001533959E+03  0.11937333319E+04  0.12412985740E+04  0.00000000000E+00 0.  1.
         13    1    3    3    0    0 -0.11913030524E+02 -0.51307159756E+03 -0.44754758867E+03  0.68094290495E+03  0.10566000000E+00 0. -1.
         -4    1    3    3    0  501  0.22770285263E+03  0.37148233746E+03 -0.51595168143E+03  0.67531759470E+03  0.00000000000E+00 0. -1.
<mgrwt>
<rscale>  0 0.99805671E+03</rscale>
<asrwt>0</asrwt>
<pdfrwt beam="1">  1        4 0.28238241E+00 0.10435773E+04</pdfrwt>
<pdfrwt beam="2">  1       -4 0.20399766E+00 0.95452171E+03</pdfrwt>
<totfact> 0.11167295E-01</totfact>
</mgrwt>
</event>
<event>
 8    1  0.3025584E-006  0.1117942E+04  0.7818608E-02  0.8678113E-01
          4   -1    0    0  502    0  0.00000000000E+00  0.00000000000E+00  0.13722384527E+04  0.13722384527E+04  0.00000000000E+00 0.  1.
         -4   -1    0    0    0  501 -0.00000000000E+00 -0.00000000000E+00 -0.19117977393E+04  0.19117977393E+04  0.00000000000E+00 0. -1.
   -9000010    2    1    2    0  501 -0.16104597231E+03 -0.44348694108E+03 -0.14651491701E+04  0.18326537005E+04  0.99465623378E+03 0.  0.
    9000010    2    1    2  502    0  0.16104597231E+03  0.44348694108E+03  0.92558988345E+03  0.14513824915E+04  0.10134979191E+04 0.  0.
        -13    1    4    4    0    0 -0.10658743196E+03  0.70493490544E+03  0.43783226674E+03  0.83665477141E+03  0.10566000000E+00 0.  1.
          4    1    4    4  502    0  0.26763340427E+03 -0.26144796436E+03  0.48775761670E+03  0.61472772005E+03  0.00000000000E+00 0.  1.
         13    1    3    3    0    0 -0.54178464186E+02 -0.32365030905E+02  0.14991731628E+03  0.16265919615E+03  0.10566000000E+00 0. -1.
         -4    1    3    3    0  501 -0.10686750813E+03 -0.41112191017E+03 -0.16150664863E+04  0.16699945044E+04  0.00000000000E+00 0. -1.
<mgrwt>
<rscale>  0 0.11093830E+04</rscale>
<asrwt>0</asrwt>
<pdfrwt beam="1">  1        4 0.21111361E+00 0.11179421E+04</pdfrwt>
<pdfrwt beam="2">  1       -4 0.29412273E+00 0.11008894E+04</pdfrwt>
<totfact> 0.98838441E-02</totfact>
</mgrwt>
</event>
<event>
 8    1  0.3025584E-006  0.1120120E+04  0.7818608E-02  0.8672287E-01
          4   -1    0    0  502    0  0.00000000000E+00  0.00000000000E+00  0.21682811268E+04  0.21682811268E+04  0.00000000000E+00 0.  1.
         -4   -1    0    0    0  501 -0.00000000000E+00 -0.00000000000E+00 -0.57506908521E+03  0.57506908521E+03  0.00000000000E+00 0. -1.
   -9000010    2    1    2    0  501  0.49066857282E+03  0.10214638663E+03  0.77310453864E+03  0.13610138009E+04  0.10017376931E+04 0.  0.
    9000010    2    1    2  502    0 -0.49066857282E+03 -0.10214638663E+03  0.82010750296E+03  0.13823364112E+04  0.99352307701E+03 0.  0.
        -13    1    4    4    0    0 -0.69147465922E+03  0.43238496042E+02  0.21026407460E+03  0.72402884204E+03  0.10566000000E+00 0.  1.
          4    1    4    4  502    0  0.20080608640E+03 -0.14538488268E+03  0.60984342836E+03  0.65830756912E+03  0.00000000000E+00 0.  1.
         13    1    3    3    0    0  0.65743163725E+03 -0.27122771374E+03  0.48761281472E+03  0.86229177115E+03  0.10566000000E+00 0. -1.
         -4    1    3    3    0  501 -0.16676306443E+03  0.37337410038E+03  0.28549172392E+03  0.49872202971E+03  0.00000000000E+00 0. -1.
<mgrwt>
<rscale>  0 0.11164434E+04</rscale>
<asrwt>0</asrwt>
<pdfrwt beam="1">  1        4 0.33358171E+00 0.11127792E+04</pdfrwt>
<pdfrwt beam="2">  1       -4 0.88472168E-01 0.11201196E+04</pdfrwt>
<totfact> 0.30678427E-01</totfact>
</mgrwt>
</event>
<event>
 8    1  0.3025584E-006  0.1486072E+04  0.7818608E-02  0.8425878E-01
         -4   -1    0    0    0  501 -0.00000000000E+00  0.00000000000E+00  0.14675377397E+04  0.14675377397E+04  0.00000000000E+00 0. -1.
          4   -1    0    0  502    0  0.00000000000E+00 -0.00000000000E+00 -0.16940960965E+04  0.16940960965E+04  0.00000000000E+00 0.  1.
   -9000010    2    1    2    0  501 -0.50575470344E+03 -0.93235278226E+03  0.45250634913E+03  0.15534388439E+04  0.10408365459E+04 0.  0.
    9000010    2    1    2  502    0  0.50575470344E+03  0.93235278226E+03 -0.67906470587E+03  0.16081949923E+04  0.10000463628E+04 0.  0.
        -13    1    4    4    0    0  0.80394233917E+03  0.58360563935E+03 -0.52854601110E+03  0.11252909508E+04  0.10566000000E+00 0.  1.
          4    1    4    4  502    0 -0.29818763573E+03  0.34874714291E+03 -0.15051869476E+03  0.48290404147E+03  0.00000000000E+00 0.  1.
         13    1    3    3    0    0  0.15079049388E+03 -0.15821812208E+03 -0.24003828627E+03  0.32463693141E+03  0.10566000000E+00 0. -1.
         -4    1    3    3    0  501 -0.65654519731E+03 -0.77413466018E+03  0.69254463540E+03  0.12288019125E+04  0.00000000000E+00 0. -1.
<mgrwt>
<rscale>  0 0.14718649E+04</rscale>
<asrwt>0</asrwt>
<pdfrwt beam="2">  1        4 0.26063017E+00 0.14577936E+04</pdfrwt>
<pdfrwt beam="1">  1       -4 0.22577504E+00 0.14860721E+04</pdfrwt>
<totfact> 0.10745012E-01</totfact>
</mgrwt>
</event>
<event>
 8    1  0.3025584E-006  0.1625301E+04  0.7818608E-02  0.8341282E-01
         -4   -1    0    0    0  501 -0.00000000000E+00  0.00000000000E+00  0.29563321724E+04  0.29563321724E+04  0.00000000000E+00 0. -1.
          4   -1    0    0  502    0  0.00000000000E+00 -0.00000000000E+00 -0.11165448619E+04  0.11165448619E+04  0.00000000000E+00 0.  1.
   -9000010    2    1    2    0  501 -0.20707475283E+03 -0.12562826623E+04  0.18323466345E+04  0.24493054201E+04  0.10101865032E+04 0.  0.
    9000010    2    1    2  502    0  0.20707475283E+03  0.12562826623E+04  0.74406760532E+01  0.16235716142E+04  0.10073744795E+04 0.  0.
        -13    1    4    4    0    0  0.45280358560E+02  0.13361249379E+04 -0.19652432932E+03  0.13512594066E+04  0.10566000000E+00 0.  1.
          4    1    4    4  502    0  0.16179439427E+03 -0.79842275683E+02  0.20396500537E+03  0.27231220762E+03  0.00000000000E+00 0.  1.
         13    1    3    3    0    0 -0.20761739069E+03 -0.13890192080E+04  0.13464791171E+04  0.19456323818E+04  0.10566000000E+00 0. -1.
         -4    1    3    3    0  501  0.54263785784E+00  0.13273654580E+03  0.48586751739E+03  0.50367303829E+03  0.00000000000E+00 0. -1.
<mgrwt>
<rscale>  0 0.16244275E+04</rscale>
<asrwt>0</asrwt>
<pdfrwt beam="2">  1        4 0.17177613E+00 0.16235546E+04</pdfrwt>
<pdfrwt beam="1">  1       -4 0.45482033E+00 0.16253008E+04</pdfrwt>
<totfact> 0.32292621E-02</totfact>
</mgrwt>
</event>
<event>
 8    1  0.3025584E-006  0.1641822E+04  0.7818608E-02  0.8337990E-01
         -4   -1    0    0    0  501 -0.00000000000E+00  0.00000000000E+00  0.16733025545E+04  0.16733025545E+04  0.00000000000E+00 0. -1.
          4   -1    0    0  502    0  0.00000000000E+00 -0.00000000000E+00 -0.23747156443E+04  0.23747156443E+04  0.00000000000E+00 0.  1.
   -9000010    2    1    2    0  501 -0.90837113027E+03  0.90704442207E+03  0.81166604240E+03  0.18314968917E+04  0.10235777479E+04 0.  0.
    9000010    2    1    2  502    0  0.90837113027E+03 -0.90704442207E+03 -0.15130791322E+04  0.22165213071E+04  0.98777049492E+03 0.  0.
        -13    1    4    4    0    0  0.46734350087E+03 -0.39162017659E+03 -0.14023720609E+04  0.15291905436E+04  0.10566000000E+00 0.  1.
          4    1    4    4  502    0  0.44102762940E+03 -0.51542424548E+03 -0.11070707130E+03  0.68733076344E+03  0.00000000000E+00 0.  1.
         13    1    3    3    0    0 -0.79643278706E+03  0.93803110099E+03  0.24708579824E+03  0.12550931972E+04  0.10566000000E+00 0. -1.
         -4    1    3    3    0  501 -0.11193834321E+03 -0.30986678921E+02  0.56458024416E+03  0.57640369451E+03  0.00000000000E+00 0. -1.
<mgrwt>
<rscale>  0 0.16307437E+04</rscale>
<asrwt>0</asrwt>
<pdfrwt beam="2">  1        4 0.36534087E+00 0.16197402E+04</pdfrwt>
<pdfrwt beam="1">  1       -4 0.25743116E+00 0.16418219E+04</pdfrwt>
<totfact> 0.44011901E-02</totfact>
</mgrwt>
</event>
<event>
 8    1  0.3025584E-006  0.1043731E+04  0.7818608E-02  0.8736205E-01
         -4   -1    0    0    0  501 -0.00000000000E+00  0.00000000000E+00  0.18248703044E+04  0.18248703044E+04  0.00000000000E+00 0. -1.
          4   -1    0    0  502    0  0.00000000000E+00 -0.00000000000E+00 -0.14816908018E+04  0.14816908018E+04  0.00000000000E+00 0.  1.
   -9000010    2    1    2    0  501 -0.19945544747E+03 -0.19618264090E+03  0.14505271331E+04  0.17848536523E+04  0.10017003006E+04 0.  0.
    9000010    2    1    2  502    0  0.19945544747E+03  0.19618264090E+03 -0.11073476305E+04  0.15217074539E+04  0.10055370189E+04 0.  0.
        -13    1    4    4    0    0  0.19210694768E+03 -0.39097709235E+03 -0.62477210418E+03  0.76164844871E+03  0.10566000000E+00 0.  1.
          4    1    4    4  502    0  0.73484997992E+01  0.58715973326E+03 -0.48257552629E+03  0.76005900520E+03  0.00000000000E+00 0.  1.
         13    1    3    3    0    0  0.20252033567E+02  0.26032391151E+03  0.11838970121E+04  0.12123493021E+04  0.10566000000E+00 0. -1.
         -4    1    3    3    0  501 -0.21970748104E+03 -0.45650655241E+03  0.26663012095E+03  0.57250435022E+03  0.00000000000E+00 0. -1.
<mgrwt>
<rscale>  0 0.10418816E+04</rscale>
<asrwt>0</asrwt>
<pdfrwt beam="2">  1        4 0.22795243E+00 0.10437312E+04</pdfrwt>
<pdfrwt beam="1">  1       -4 0.28074928E+00 0.10400354E+04</pdfrwt>
<totfact> 0.97644737E-02</totfact>
</mgrwt>
</event>
<event>
 8    1  0.3025584E-006  0.1456444E+04  0.7818608E-02  0.8437217E-01
          4   -1    0    0  502    0  0.00000000000E+00  0.00000000000E+00  0.19690353703E+04  0.19690353703E+04  0.00000000000E+00 0.  1.
         -4   -1    0    0    0  501 -0.00000000000E+00 -0.00000000000E+00 -0.20161035386E+04  0.20161035386E+04  0.00000000000E+00 0. -1.
   -9000010    2    1    2    0  501  0.53555811910E+03  0.90897603556E+03 -0.13871416603E+04  0.20059907720E+04  0.99336652821E+03 0.  0.
    9000010    2    1    2  502    0 -0.53555811910E+03 -0.90897603556E+03  0.13400734920E+04  0.19791481370E+04  0.10040769154E+04 0.  0.
        -13    1    4    4    0    0 -0.75211229781E+03 -0.67404737976E+03  0.60416776076E+03  0.11768736011E+04  0.10566000000E+00 0.  1.
          4    1    4    4  502    0  0.21655417872E+03 -0.23492865579E+03  0.73590573122E+03  0.80227453585E+03  0.00000000000E+00 0.  1.
         13    1    3    3    0    0  0.61517457956E+03  0.84873867206E+02 -0.58071419857E+03  0.85021898841E+03  0.10566000000E+00 0. -1.
         -4    1    3    3    0  501 -0.79616460462E+02  0.82410216835E+03 -0.80642746173E+03  0.11557717836E+04  0.00000000000E+00 0. -1.
<mgrwt>
<rscale>  0 0.14527583E+04</rscale>
<asrwt>0</asrwt>
<pdfrwt beam="1">  1        4 0.30292852E+00 0.14564444E+04</pdfrwt>
<pdfrwt beam="2">  1       -4 0.31016977E+00 0.14490814E+04</pdfrwt>
<totfact> 0.50960138E-02</totfact>
</mgrwt>
</event>
<event>
 8    1  0.3025584E-006  0.1473960E+04  0.7818608E-02  0.8429691E-01
          4   -1    0    0  502    0  0.00000000000E+00  0.00000000000E+00  0.25863523059E+04  0.25863523059E+04  0.00000000000E+00 0.  1.
         -4   -1    0    0    0  501 -0.00000000000E+00 -0.00000000000E+00 -0.29056554770E+04  0.29056554770E+04  0.00000000000E+00 0. -1.
   -9000010    2    1    2    0  501 -0.68369627329E+03  0.84688267704E+03 -0.24800998075E+04  0.28763626664E+04  0.96846077405E+03 0.  0.
    9000010    2    1    2  502    0  0.68369627329E+03 -0.84688267704E+03  0.21607966364E+04  0.26156451165E+04  0.99393481107E+03 0.  0.
        -13    1    4    4    0    0  0.50149804879E+03 -0.99060226575E+03  0.21004712203E+04  0.23758729976E+04  0.10566000000E+00 0.  1.
          4    1    4    4  502    0  0.18219822451E+03  0.14371958871E+03  0.60325416075E+02  0.23977211893E+03  0.00000000000E+00 0.  1.
         13    1    3    3    0    0 -0.69429811791E+02  0.20650203672E+03 -0.16399953082E+04  0.16544026753E+04  0.10566000000E+00 0. -1.
         -4    1    3    3    0  501 -0.61426646150E+03  0.64038064032E+03 -0.84010449935E+03  0.12219599912E+04  0.00000000000E+00 0. -1.
<mgrwt>
<rscale>  0 0.14654067E+04</rscale>
<asrwt>0</asrwt>
<pdfrwt beam="1">  1        4 0.39790036E+00 0.14739597E+04</pdfrwt>
<pdfrwt beam="2">  1       -4 0.44702392E+00 0.14569033E+04</pdfrwt>
<totfact> 0.75715458E-03</totfact>
</mgrwt>
</event>
<event>
 8    1  0.3025584E-006  0.1152478E+04  0.7818608E-02  0.8643295E-01
          4   -1    0    0  502    0  0.00000000000E+00  0.00000000000E+00  0.12975218850E+04  0.12975218850E+04  0.00000000000E+00 0.  1.
         -4   -1    0    0    0  501 -0.00000000000E+00 -0.00000000000E+00 -0.17602702190E+04  0.17602702190E+04  0.00000000000E+00 0. -1.
   -9000010    2    1    2    0  501 -0.56515439806E+03  0.56540157341E+02 -0.12204917374E+04  0.16785239021E+04  0.10026196317E+04 0.  0.
    9000010    2    1    2  502    0  0.56515439806E+03 -0.56540157341E+02  0.75774340343E+03  0.13792682019E+04  0.10028007899E+04 0.  0.
        -13    1    4    4    0    0  0.10510161771E+03 -0.30972615236E+03  0.78809573307E+03  0.85327107952E+03  0.10566000000E+00 0.  1.
          4    1    4    4  502    0  0.46005278036E+03  0.25318599502E+03 -0.30352329639E+02  0.52599712234E+03  0.00000000000E+00 0.  1.
         13    1    3    3    0    0 -0.71862922765E+03 -0.28118896827E+03 -0.92241199581E+03  0.12026383928E+04  0.10566000000E+00 0. -1.
         -4    1    3    3    0  501  0.15347482958E+03  0.33772912561E+03 -0.29807974164E+03  0.47588550931E+03  0.00000000000E+00 0. -1.
<mgrwt>
<rscale>  0 0.11523993E+04</rscale>
<asrwt>0</asrwt>
<pdfrwt beam="1">  1        4 0.19961875E+00 0.11524781E+04</pdfrwt>
<pdfrwt beam="2">  1       -4 0.27081080E+00 0.11523204E+04</pdfrwt>
<totfact> 0.12164350E-01</totfact>
</mgrwt>
</event>
<event>
 8    1  0.3025584E-006  0.1869132E+04  0.7818608E-02  0.8234366E-01
          4   -1    0    0  502    0  0.00000000000E+00  0.00000000000E+00  0.24376245151E+04  0.24376245151E+04  0.00000000000E+00 0.  1.
         -4   -1    0    0    0  501 -0.00000000000E+00 -0.00000000000E+00 -0.21336991312E+04  0.21336991312E+04  0.00000000000E+00 0. -1.
   -9000010    2    1    2    0  501 -0.15518130289E+04 -0.26967427341E+03 -0.11918624621E+04  0.21773656622E+04  0.91626263041E+03 0.  0.
    9000010    2    1    2  502    0  0.15518130289E+04  0.26967427341E+03  0.14957878459E+04  0.23939579841E+04  0.10063824615E+04 0.  0.
        -13    1    4    4    0    0  0.12367517083E+04  0.51946115814E+03  0.14715026683E+04  0.19911591591E+04  0.10566000000E+00 0.  1.
          4    1    4    4  502    0  0.31506132062E+03 -0.24978688473E+03  0.24285177606E+02  0.40279882495E+03  0.00000000000E+00 0.  1.
         13    1    3    3    0    0 -0.35083460745E+03 -0.47817869840E+03 -0.50027556233E+03  0.77589653874E+03  0.10566000000E+00 0. -1.
         -4    1    3    3    0  501 -0.12009784215E+04  0.20850442499E+03 -0.69158689976E+03  0.14014691235E+04  0.00000000000E+00 0. -1.
<mgrwt>
<rscale>  0 0.18455128E+04</rscale>
<asrwt>0</asrwt>
<pdfrwt beam="1">  1        4 0.37501916E+00 0.18691318E+04</pdfrwt>
<pdfrwt beam="2">  1       -4 0.32826140E+00 0.18221924E+04</pdfrwt>
<totfact> 0.25596596E-02</totfact>
</mgrwt>
</event>
<event>
 8    1  0.3025584E-006  0.1071017E+04  0.7818608E-02  0.8726934E-01
         -4   -1    0    0    0  501 -0.00000000000E+00  0.00000000000E+00  0.23050931128E+04  0.23050931128E+04  0.00000000000E+00 0. -1.
          4   -1    0    0  502    0  0.00000000000E+00 -0.00000000000E+00 -0.70824039110E+03  0.70824039110E+03  0.00000000000E+00 0.  1.
   -9000010    2    1    2    0  501 -0.32494469892E+03  0.24101840160E+03  0.16430777809E+04  0.19413198259E+04  0.95149311347E+03 0.  0.
    9000010    2    1    2  502    0  0.32494469892E+03 -0.24101840160E+03 -0.46225059191E+02  0.10720136780E+04  0.99166407746E+03 0.  0.
        -13    1    4    4    0    0  0.65889654585E+03 -0.58365033410E+02  0.90341481559E+02  0.66761720298E+03  0.10566000000E+00 0.  1.
          4    1    4    4  502    0 -0.33395184693E+03 -0.18265336819E+03 -0.13656654075E+03  0.40439647505E+03  0.00000000000E+00 0.  1.
         13    1    3    3    0    0 -0.14076855004E+03 -0.51317140033E+02 -0.89566697001E+02  0.17456069981E+03  0.10566000000E+00 0. -1.
         -4    1    3    3    0  501 -0.18417614888E+03  0.29233554164E+03  0.17326444779E+04  0.17667591261E+04  0.00000000000E+00 0. -1.
<mgrwt>
<rscale>  0 0.10523116E+04</rscale>
<asrwt>0</asrwt>
<pdfrwt beam="2">  1        4 0.10896006E+00 0.10710166E+04</pdfrwt>
<pdfrwt beam="1">  1       -4 0.35462971E+00 0.10339333E+04</pdfrwt>
<totfact> 0.17737824E-01</totfact>
</mgrwt>
</event>
<event>
 8    1  0.3025584E-006  0.1463803E+04  0.7818608E-02  0.8432089E-01
         -4   -1    0    0    0  501 -0.00000000000E+00  0.00000000000E+00  0.25996083677E+04  0.25996083677E+04  0.00000000000E+00 0. -1.
          4   -1    0    0  502    0  0.00000000000E+00 -0.00000000000E+00 -0.26033245503E+04  0.26033245503E+04  0.00000000000E+00 0.  1.
   -9000010    2    1    2    0  501  0.10561320805E+04 -0.83974131060E+02  0.21503576652E+04  0.26012993605E+04  0.10100760607E+04 0.  0.
    9000010    2    1    2  502    0 -0.10561320805E+04  0.83974131060E+02 -0.21540738478E+04  0.26016335575E+04  0.10029937187E+04 0.  0.
        -13    1    4    4    0    0 -0.26588065226E+03  0.11832803472E+03  0.16433903961E+02  0.29148607070E+03  0.10566000000E+00 0.  1.
          4    1    4    4  502    0 -0.79025142826E+03 -0.34353903665E+02 -0.21705077517E+04  0.23101474868E+04  0.00000000000E+00 0.  1.
         13    1    3    3    0    0  0.10546552812E+04 -0.23750411899E+02  0.22499059701E+04  0.24849423997E+04  0.10566000000E+00 0. -1.
         -4    1    3    3    0  501  0.14767993237E+01 -0.60223719161E+02 -0.99548304992E+02  0.11635696074E+03  0.00000000000E+00 0. -1.
<mgrwt>
<rscale>  0 0.14613623E+04</rscale>
<asrwt>0</asrwt>
<pdfrwt beam="2">  1        4 0.40051147E+00 0.14589253E+04</pdfrwt>
<pdfrwt beam="1">  1       -4 0.39993975E+00 0.14638034E+04</pdfrwt>
<totfact> 0.11787739E-02</totfact>
</mgrwt>
</event>
<event>
 8    1  0.3025584E-006  0.1034973E+04  0.7818608E-02  0.8744956E-01
         -4   -1    0    0    0  501 -0.00000000000E+00  0.00000000000E+00  0.27710964173E+04  0.27710964173E+04  0.00000000000E+00 0. -1.
          4   -1    0    0  502    0  0.00000000000E+00 -0.00000000000E+00 -0.23166047261E+04  0.23166047261E+04  0.00000000000E+00 0.  1.
   -9000010    2    1    2    0  501  0.17620222532E+03 -0.14869506629E+03  0.25503423109E+04  0.27502326608E+04  0.10031831033E+04 0.  0.
    9000010    2    1    2  502    0 -0.17620222532E+03  0.14869506629E+03 -0.20958506196E+04  0.23374684826E+04  0.10089656291E+04 0.  0.
        -13    1    4    4    0    0  0.24660625272E+03  0.44749725736E+03 -0.11697406625E+04  0.12764645189E+04  0.10566000000E+00 0.  1.
          4    1    4    4  502    0 -0.42280847803E+03 -0.29880219107E+03 -0.92610995707E+03  0.10610039637E+04  0.00000000000E+00 0.  1.
         13    1    3    3    0    0 -0.23156973027E+03  0.65227280164E+02  0.10600498708E+03  0.26289961298E+03  0.10566000000E+00 0. -1.
         -4    1    3    3    0  501  0.40777195559E+03 -0.21392234645E+03  0.24443373238E+04  0.24873330478E+04  0.00000000000E+00 0. -1.
<mgrwt>
<rscale>  0 0.10321509E+04</rscale>
<asrwt>0</asrwt>
<pdfrwt beam="2">  1        4 0.35640073E+00 0.10349730E+04</pdfrwt>
<pdfrwt beam="1">  1       -4 0.42632252E+00 0.10293366E+04</pdfrwt>
<totfact> 0.14423312E-02</totfact>
</mgrwt>
</event>
<event>
 8    1  0.3025584E-006  0.1448285E+04  0.7818608E-02  0.8441315E-01
          4   -1    0    0  502    0  0.00000000000E+00  0.00000000000E+00  0.19910002380E+04  0.19910002380E+04  0.00000000000E+00 0.  1.
         -4   -1    0    0    0  501 -0.00000000000E+00 -0.00000000000E+00 -0.28187730016E+04  0.28187730016E+04  0.00000000000E+00 0. -1.
   -9000010    2    1    2    0  501  0.88158463306E+03 -0.56739609210E+03 -0.23186151763E+04  0.27312781762E+04  0.99235797437E+03 0.  0.
    9000010    2    1    2  502    0 -0.88158463306E+03  0.56739609210E+03  0.14908424128E+04  0.20784950635E+04  0.99920009936E+03 0.  0.
        -13    1    4    4    0    0 -0.91264229334E+03  0.53838885621E+03  0.16237813865E+04  0.19389287038E+04  0.10566000000E+00 0.  1.
          4    1    4    4  502    0  0.31057660284E+02  0.29007235885E+02 -0.13293897377E+03  0.13956635964E+03  0.00000000000E+00 0.  1.
         13    1    3    3    0    0  0.11010545540E+04 -0.49086091459E+03 -0.20267033772E+04  0.23581331935E+04  0.10566000000E+00 0. -1.
         -4    1    3    3    0  501 -0.21946992093E+03 -0.76535177504E+02 -0.29191179916E+03  0.37314498265E+03  0.00000000000E+00 0. -1.
<mgrwt>
<rscale>  0 0.14459275E+04</rscale>
<asrwt>0</asrwt>
<pdfrwt beam="1">  1        4 0.30630773E+00 0.14482854E+04</pdfrwt>
<pdfrwt beam="2">  1       -4 0.43365739E+00 0.14435734E+04</pdfrwt>
<totfact> 0.17798057E-02</totfact>
</mgrwt>
</event>
<event>
 8    1  0.3025584E-006  0.1282989E+04  0.7818608E-02  0.8548654E-01
          4   -1    0    0  502    0  0.00000000000E+00  0.00000000000E+00  0.21309123475E+04  0.21309123475E+04  0.00000000000E+00 0.  1.
         -4   -1    0    0    0  501 -0.00000000000E+00 -0.00000000000E+00 -0.14300513699E+04  0.14300513699E+04  0.00000000000E+00 0. -1.
   -9000010    2    1    2    0  501 -0.15065951825E+03 -0.79937986331E+03 -0.86068887871E+03  0.15399495230E+04  0.98435396638E+03 0.  0.
    9000010    2    1    2  502    0  0.15065951825E+03  0.79937986331E+03  0.15615498563E+04  0.20210141943E+04  0.99214614032E+03 0.  0.
        -13    1    4    4    0    0  0.52045182621E+03  0.62570628886E+03  0.72466571708E+03  0.10897333968E+04  0.10566000000E+00 0.  1.
          4    1    4    4  502    0 -0.36979230797E+03  0.17367357445E+03  0.83688413922E+03  0.93128079759E+03  0.00000000000E+00 0.  1.
         13    1    3    3    0    0  0.21896673067E+03  0.14458391516E+03 -0.15489592977E+03  0.30470263847E+03  0.10566000000E+00 0. -1.
         -4    1    3    3    0  501 -0.36962624892E+03 -0.94396377847E+03 -0.70579294894E+03  0.12352468845E+04  0.00000000000E+00 0. -1.
<mgrwt>
<rscale>  0 0.12799772E+04</rscale>
<asrwt>0</asrwt>
<pdfrwt beam="1">  1        4 0.32783267E+00 0.12829889E+04</pdfrwt>
<pdfrwt beam="2">  1       -4 0.22000790E+00 0.12769727E+04</pdfrwt>
<totfact> 0.74531471E-02</totfact>
</mgrwt>
</event>
<event>
 8    1  0.3025584E-006  0.1573848E+04  0.7818608E-02  0.8370179E-01
          4   -1    0    0  502    0  0.00000000000E+00  0.00000000000E+00  0.23171355906E+04  0.23171355906E+04  0.00000000000E+00 0.  1.
         -4   -1    0    0    0  501 -0.00000000000E+00 -0.00000000000E+00 -0.19015626296E+04  0.19015626296E+04  0.00000000000E+00 0. -1.
   -9000010    2    1    2    0  501  0.98475925365E+03 -0.71149520221E+03 -0.11922969918E+04  0.19687555971E+04  0.98916645416E+03 0.  0.
    9000010    2    1    2  502    0 -0.98475925365E+03  0.71149520221E+03  0.16078699527E+04  0.22499426231E+04  0.10005097761E+04 0.  0.
        -13    1    4    4    0    0  0.96356439490E+02  0.25816280181E+03  0.74494705226E+03  0.79427874044E+03  0.10566000000E+00 0.  1.
          4    1    4    4  502    0 -0.10811156931E+04  0.45333240041E+03  0.86292290044E+03  0.14556638827E+04  0.00000000000E+00 0.  1.
         13    1    3    3    0    0  0.97221662377E+03 -0.29281317559E+03 -0.11702128275E+04  0.15493039702E+04  0.10566000000E+00 0. -1.
         -4    1    3    3    0  501  0.12542629871E+02 -0.41868202663E+03 -0.22084164314E+02  0.41945162689E+03  0.00000000000E+00 0. -1.
<mgrwt>
<rscale>  0 0.15702501E+04</rscale>
<asrwt>0</asrwt>
<pdfrwt beam="1">  1        4 0.35648240E+00 0.15738475E+04</pdfrwt>
<pdfrwt beam="2">  1       -4 0.29254810E+00 0.15666609E+04</pdfrwt>
<totfact> 0.38827998E-02</totfact>
</mgrwt>
</event>
<event>
 8    1  0.3025584E-006  0.1635792E+04  0.7818608E-02  0.8356177E-01
         -4   -1    0    0    0  501 -0.00000000000E+00  0.00000000000E+00  0.18445497206E+04  0.18445497206E+04  0.00000000000E+00 0. -1.
          4   -1    0    0  502    0  0.00000000000E+00 -0.00000000000E+00 -0.21012189819E+04  0.21012189819E+04  0.00000000000E+00 0.  1.
   -9000010    2    1    2    0  501  0.81843979619E+03  0.86657096674E+03  0.10234836652E+04  0.19295943030E+04  0.11202796173E+04 0.  0.
    9000010    2    1    2  502    0 -0.81843979619E+03 -0.86657096674E+03 -0.12801529265E+04  0.20161743995E+04  0.10026857701E+04 0.  0.
        -13    1    4    4    0    0 -0.69683854170E+03 -0.63909635927E+03 -0.14326413752E+04  0.17165341333E+04  0.10566000000E+00 0.  1.
          4    1    4    4  502    0 -0.12160125448E+03 -0.22747460747E+03  0.15248844872E+03  0.29964026620E+03  0.00000000000E+00 0.  1.
         13    1    3    3    0    0  0.11599753304E+03 -0.24879209072E+03  0.24334659743E+02  0.27558141974E+03  0.10566000000E+00 0. -1.
         -4    1    3    3    0  501  0.70244226314E+03  0.11153630575E+04  0.99914900543E+03  0.16540128833E+04  0.00000000000E+00 0. -1.
<mgrwt>
<rscale>  0 0.15962255E+04</rscale>
<asrwt>0</asrwt>
<pdfrwt beam="2">  1        4 0.32326446E+00 0.15576160E+04</pdfrwt>
<pdfrwt beam="1">  1       -4 0.28377688E+00 0.16357920E+04</pdfrwt>
<totfact> 0.52159039E-02</totfact>
</mgrwt>
</event>
<event>
 8    1  0.3025584E-006  0.1880730E+04  0.7818608E-02  0.8219014E-01
         -4   -1    0    0    0  501 -0.00000000000E+00  0.00000000000E+00  0.13690750106E+04  0.13690750106E+04  0.00000000000E+00 0. -1.
          4   -1    0    0  502    0  0.00000000000E+00 -0.00000000000E+00 -0.27188255599E+04  0.27188255599E+04  0.00000000000E+00 0.  1.
   -9000010    2    1    2    0  501  0.12117798761E+04 -0.10382217115E+04 -0.21616241007E+03  0.18919567623E+04  0.99320663141E+03 0.  0.
    9000010    2    1    2  502    0 -0.12117798761E+04  0.10382217115E+04 -0.11335881392E+04  0.21959438082E+04  0.99540562043E+03 0.  0.
        -13    1    4    4    0    0  0.36506588750E+02  0.53155910146E+03 -0.29393834827E+03  0.60851259076E+03  0.10566000000E+00 0.  1.
          4    1    4    4  502    0 -0.12482864649E+04  0.50666261001E+03 -0.83964979090E+03  0.15874312174E+04  0.00000000000E+00 0.  1.
         13    1    3    3    0    0  0.41565539169E+03 -0.37187440831E+03 -0.56773757538E+03  0.79585548051E+03  0.10566000000E+00 0. -1.
         -4    1    3    3    0  501  0.79612448442E+03 -0.66634730316E+03  0.35157516532E+03  0.10961012818E+04  0.00000000000E+00 0. -1.
<mgrwt>
<rscale>  0 0.18801489E+04</rscale>
<asrwt>0</asrwt>
<pdfrwt beam="2">  1        4 0.41828085E+00 0.18807305E+04</pdfrwt>
<pdfrwt beam="1">  1       -4 0.21062693E+00 0.18795676E+04</pdfrwt>
<totfact> 0.35074800E-02</totfact>
</mgrwt>
</event>
<event>
 8    1  0.3025584E-006  0.1454201E+04  0.7818608E-02  0.8452178E-01
          4   -1    0    0  502    0  0.00000000000E+00  0.00000000000E+00  0.18158475433E+04  0.18158475433E+04  0.00000000000E+00 0.  1.
         -4   -1    0    0    0  501 -0.00000000000E+00 -0.00000000000E+00 -0.23648614559E+04  0.23648614559E+04  0.00000000000E+00 0. -1.
   -9000010    2    1    2    0  501  0.98161760553E+03 -0.10412186539E+03 -0.17913277674E+04  0.23072832075E+04  0.10678418155E+04 0.  0.
    9000010    2    1    2  502    0 -0.98161760553E+03  0.10412186539E+03  0.12423138549E+04  0.18734257917E+04  0.99597489764E+03 0.  0.
        -13    1    4    4    0    0 -0.81307721313E+03  0.47196393249E+02  0.23098089253E+03  0.84656614504E+03  0.10566000000E+00 0.  1.
          4    1    4    4  502    0 -0.16854039239E+03  0.56925472146E+02  0.10113329623E+04  0.10268596467E+04  0.00000000000E+00 0.  1.
         13    1    3    3    0    0  0.55739914726E+03 -0.55568245229E+03 -0.12861378037E+04  0.15078551848E+04  0.10566000000E+00 0. -1.
         -4    1    3    3    0  501  0.42421845826E+03  0.45156058689E+03 -0.50518996372E+03  0.79942802266E+03  0.00000000000E+00 0. -1.
<mgrwt>
<rscale>  0 0.14280030E+04</rscale>
<asrwt>0</asrwt>
<pdfrwt beam="1">  1        4 0.27936116E+00 0.14022769E+04</pdfrwt>
<pdfrwt beam="2">  1       -4 0.36382484E+00 0.14542010E+04</pdfrwt>
<totfact> 0.40130884E-02</totfact>
</mgrwt>
</event>
<event>
 8    1  0.3025584E-006  0.1111299E+04  0.7818608E-02  0.8695586E-01
          4   -1    0    0  502    0  0.00000000000E+00  0.00000000000E+00  0.15665335872E+04  0.15665335872E+04  0.00000000000E+00 0.  1.
         -4   -1    0    0    0  501 -0.00000000000E+00 -0.00000000000E+00 -0.76457295403E+03  0.76457295403E+03  0.00000000000E+00 0. -1.
   -9000010    2    1    2    0  501 -0.32519603298E+03 -0.18456315334E+03  0.27460294262E+03  0.11010283165E+04  0.99851918373E+03 0.  0.
    9000010    2    1    2  502    0  0.32519603298E+03  0.18456315334E+03  0.52735769054E+03  0.12300782247E+04  0.10465038402E+04 0.  0.
        -13    1    4    4    0    0  0.63442421997E+03  0.13233467239E+03  0.38431159092E+02  0.64921762264E+03  0.10566000000E+00 0.  1.
          4    1    4    4  502    0 -0.30922818698E+03  0.52228480951E+02  0.48892653145E+03  0.58086060204E+03  0.00000000000E+00 0.  1.
         13    1    3    3    0    0 -0.46539123361E+02 -0.23680298491E+03  0.61345287868E+03  0.65921619305E+03  0.10566000000E+00 0. -1.
         -4    1    3    3    0  501 -0.27865690962E+03  0.52239831568E+02 -0.33884993606E+03  0.44181212348E+03  0.00000000000E+00 0. -1.
<mgrwt>
<rscale>  0 0.10885339E+04</rscale>
<asrwt>0</asrwt>
<pdfrwt beam="1">  1        4 0.24100517E+00 0.11112994E+04</pdfrwt>
<pdfrwt beam="2">  1       -4 0.11762661E+00 0.10662348E+04</pdfrwt>
<totfact> 0.31217649E-01</totfact>
</mgrwt>
</event>
<event>
 8    1  0.3025584E-006  0.1072237E+04  0.7818608E-02  0.8729754E-01
         -4   -1    0    0    0  501 -0.00000000000E+00  0.00000000000E+00  0.23025202062E+04  0.23025202062E+04  0.00000000000E+00 0. -1.
          4   -1    0    0  502    0  0.00000000000E+00 -0.00000000000E+00 -0.13020296922E+04  0.13020296922E+04  0.00000000000E+00 0.  1.
   -9000010    2    1    2    0  501  0.23664179622E+03  0.54223967429E+02  0.19376810714E+04  0.22145654849E+04  0.10443911021E+04 0.  0.
    9000010    2    1    2  502    0 -0.23664179622E+03 -0.54223967429E+02 -0.93719055745E+03  0.13899844135E+04  0.99739207458E+03 0.  0.
        -13    1    4    4    0    0 -0.62529775414E+03  0.28930233410E+02 -0.52001974236E+03  0.81379038047E+03  0.10566000000E+00 0.  1.
          4    1    4    4  502    0  0.38865595792E+03 -0.83154200839E+02 -0.41717081509E+03  0.57619403304E+03  0.00000000000E+00 0.  1.
         13    1    3    3    0    0 -0.40948065629E+03 -0.17714789565E+02  0.91694956693E+03  0.10043827662E+04  0.10566000000E+00 0. -1.
         -4    1    3    3    0  501  0.64612245251E+03  0.71938756994E+02  0.10207315045E+04  0.12101827187E+04  0.00000000000E+00 0. -1.
<mgrwt>
<rscale>  0 0.10491264E+04</rscale>
<asrwt>0</asrwt>
<pdfrwt beam="2">  1        4 0.20031226E+00 0.10265138E+04</pdfrwt>
<pdfrwt beam="1">  1       -4 0.35423388E+00 0.10722371E+04</pdfrwt>
<totfact> 0.70938430E-02</totfact>
</mgrwt>
</event>
<event>
 8    1  0.3025584E-006  0.1081158E+04  0.7818608E-02  0.8713043E-01
          4   -1    0    0  502    0  0.00000000000E+00  0.00000000000E+00  0.24472085374E+04  0.24472085374E+04  0.00000000000E+00 0.  1.
         -4   -1    0    0    0  501 -0.00000000000E+00 -0.00000000000E+00 -0.11737141395E+04  0.11737141395E+04  0.00000000000E+00 0. -1.
   -9000010    2    1    2    0  501  0.16344124401E+03  0.34532425479E+03 -0.76568711351E+03  0.13248320734E+04  0.10114056485E+04 0.  0.
    9000010    2    1    2  502    0 -0.16344124401E+03 -0.34532425479E+03  0.20391815114E+04  0.22960906035E+04  0.98377281017E+03 0.  0.
        -13    1    4    4    0    0  0.10875127116E+03  0.23966626157E+03  0.15715491826E+03  0.30653618940E+03  0.10566000000E+00 0.  1.
          4    1    4    4  502    0 -0.27219251518E+03 -0.58499051636E+03  0.18820265931E+04  0.19895544141E+04  0.00000000000E+00 0.  1.
         13    1    3    3    0    0 -0.33472964314E+03 -0.10975272737E+03 -0.76771267661E+02  0.36053215372E+03  0.10566000000E+00 0. -1.
         -4    1    3    3    0  501  0.49817088716E+03  0.45507698216E+03 -0.68891584585E+03  0.96429991971E+03  0.00000000000E+00 0. -1.
<mgrwt>
<rscale>  0 0.10681779E+04</rscale>
<asrwt>0</asrwt>
<pdfrwt beam="1">  1        4 0.37649362E+00 0.10553534E+04</pdfrwt>
<pdfrwt beam="2">  1       -4 0.18057141E+00 0.10811583E+04</pdfrwt>
<totfact> 0.67619371E-02</totfact>
</mgrwt>
</event>
<event>
 8    1  0.3025584E-006  0.1212157E+04  0.7818608E-02  0.8603801E-01
          4   -1    0    0  502    0  0.00000000000E+00  0.00000000000E+00  0.43831330153E+03  0.43831330153E+03  0.00000000000E+00 0.  1.
         -4   -1    0    0    0  501 -0.00000000000E+00 -0.00000000000E+00 -0.35614747841E+04  0.35614747841E+04  0.00000000000E+00 0. -1.
   -9000010    2    1    2    0  501  0.40880603539E+02  0.68273553425E+03 -0.20874052461E+04  0.24053870410E+04  0.98021789514E+03 0.  0.
    9000010    2    1    2  502    0 -0.40880603539E+02 -0.68273553425E+03 -0.10357562364E+04  0.15944010446E+04  0.10007620478E+04 0.  0.
        -13    1    4    4    0    0 -0.13663785727E+03  0.22421581903E+03 -0.41536989675E+03  0.49140085453E+03  0.10566000000E+00 0.  1.
          4    1    4    4  502    0  0.95757253733E+02 -0.90695135328E+03 -0.62038633969E+03  0.11030001901E+04  0.00000000000E+00 0.  1.
         13    1    3    3    0    0  0.36082110554E+03  0.42261632241E+03 -0.44471559401E+03  0.71173618490E+03  0.10566000000E+00 0. -1.
         -4    1    3    3    0  501 -0.31994050200E+03  0.26011921184E+03 -0.16426896521E+04  0.16936508561E+04  0.00000000000E+00 0. -1.
<mgrwt>
<rscale>  0 0.12036744E+04</rscale>
<asrwt>0</asrwt>
<pdfrwt beam="1">  1        4 0.67432817E-01 0.12121566E+04</pdfrwt>
<pdfrwt beam="2">  1       -4 0.54791918E+00 0.11952515E+04</pdfrwt>
<totfact> 0.65214137E-02</totfact>
</mgrwt>
</event>
<event>
 8    1  0.3025584E-006  0.1624934E+04  0.7818608E-02  0.8367071E-01
          4   -1    0    0  502    0  0.00000000000E+00  0.00000000000E+00  0.22798573877E+04  0.22798573877E+04  0.00000000000E+00 0.  1.
         -4   -1    0    0    0  501 -0.00000000000E+00 -0.00000000000E+00 -0.16232005316E+04  0.16232005316E+04  0.00000000000E+00 0. -1.
   -9000010    2    1    2    0  501 -0.10779236495E+04 -0.76004267029E+03 -0.78262373716E+03  0.18035828404E+04  0.94911900895E+03 0.  0.
    9000010    2    1    2  502    0  0.10779236495E+04  0.76004267029E+03  0.14392805933E+04  0.20994750790E+04  0.77245241025E+03 0.  0.
        -13    1    4    4    0    0  0.72993712116E+03  0.56933410273E+02  0.56495897893E+03  0.92478552816E+03  0.10566000000E+00 0.  1.
          4    1    4    4  502    0  0.34798652838E+03  0.70310926002E+03  0.87432161436E+03  0.11746895508E+04  0.00000000000E+00 0.  1.
         13    1    3    3    0    0 -0.37802534624E+03 -0.43359836026E+03 -0.85218883876E+03  0.10281714490E+04  0.10566000000E+00 0. -1.
         -4    1    3    3    0  501 -0.69989830331E+03 -0.32644431003E+03  0.69565101597E+02  0.77541139138E+03  0.00000000000E+00 0. -1.
<mgrwt>
<rscale>  0 0.15759720E+04</rscale>
<asrwt>0</asrwt>
<pdfrwt beam="1">  1        4 0.35074729E+00 0.15284852E+04</pdfrwt>
<pdfrwt beam="2">  1       -4 0.24972316E+00 0.16249342E+04</pdfrwt>
<totfact> 0.52211709E-02</totfact>
</mgrwt>
</event>
<event>
 8    1  0.3025584E-006  0.1062251E+04  0.7818608E-02  0.8740933E-01
         -4   -1    0    0    0  501 -0.00000000000E+00  0.00000000000E+00  0.94423557510E+03  0.94423557510E+03  0.00000000000E+00 0. -1.
          4   -1    0    0  502    0  0.00000000000E+00 -0.00000000000E+00 -0.15216861837E+04  0.15216861837E+04  0.00000000000E+00 0.  1.
   -9000010    2    1    2    0  501  0.45512075184E+01 -0.18230272171E+03  0.32441175102E+03  0.11106844444E+04  0.10464807476E+04 0.  0.
    9000010    2    1    2  502    0 -0.45512075184E+01  0.18230272171E+03 -0.90186235958E+03  0.13552373143E+04  0.99501631479E+03 0.  0.
        -13    1    4    4    0    0  0.16272505210E+03 -0.25227665955E+02 -0.10414218483E+04  0.10543601638E+04  0.10566000000E+00 0.  1.
          4    1    4    4  502    0 -0.16727625962E+03  0.20753038767E+03  0.13955948870E+03  0.30087715055E+03  0.00000000000E+00 0.  1.
         13    1    3    3    0    0 -0.20298599005E+03 -0.52522445087E+03 -0.45931368308E+02  0.56495463331E+03  0.10566000000E+00 0. -1.
         -4    1    3    3    0  501  0.20753719756E+03  0.34292172915E+03  0.37034311933E+03  0.54572981111E+03  0.00000000000E+00 0. -1.
<mgrwt>
<rscale>  0 0.10366105E+04</rscale>
<asrwt>0</asrwt>
<pdfrwt beam="2">  1        4 0.23410557E+00 0.10115891E+04</pdfrwt>
<pdfrwt beam="1">  1       -4 0.14526701E+00 0.10622509E+04</pdfrwt>
<totfact> 0.23214610E-01</totfact>
</mgrwt>
</event>
<event>
 8    1  0.3025584E-006  0.1536511E+04  0.7818608E-02  0.8399483E-01
          4   -1    0    0  502    0  0.00000000000E+00  0.00000000000E+00  0.35634564823E+04  0.35634564823E+04  0.00000000000E+00 0.  1.
         -4   -1    0    0    0  501 -0.00000000000E+00 -0.00000000000E+00 -0.12652248944E+04  0.12652248944E+04  0.00000000000E+00 0. -1.
   -9000010    2    1    2    0  501 -0.11367900398E+04 -0.19414508377E+03 -0.53207723921E+03  0.16260291597E+04  0.10153229690E+04 0.  0.
    9000010    2    1    2  502    0  0.11367900398E+04  0.19414508377E+03  0.28303088271E+04  0.32026522170E+04  0.95726133221E+03 0.  0.
        -13    1    4    4    0    0  0.96610930209E+03 -0.60894740735E+01  0.11504400803E+04  0.15023037825E+04  0.10566000000E+00 0.  1.
          4    1    4    4  502    0  0.17068073775E+03  0.20023455785E+03  0.16798687468E+04  0.17003484346E+04  0.00000000000E+00 0.  1.
         13    1    3    3    0    0 -0.79701577702E+03 -0.68915686824E+02  0.18643311640E+03  0.82142610061E+03  0.10566000000E+00 0. -1.
         -4    1    3    3    0  501 -0.33977426281E+03 -0.12522939695E+03 -0.71851035560E+03  0.80460305905E+03  0.00000000000E+00 0. -1.
<mgrwt>
<rscale>  0 0.15175266E+04</rscale>
<asrwt>0</asrwt>
<pdfrwt beam="1">  1        4 0.54822407E+00 0.14987772E+04</pdfrwt>
<pdfrwt beam="2">  1       -4 0.19464998E+00 0.15365105E+04</pdfrwt>
<totfact> 0.98988617E-03</totfact>
</mgrwt>
</event>
<event>
 8    1  0.3025584E-006  0.1281016E+04  0.7818608E-02  0.8550766E-01
         -4   -1    0    0    0  501 -0.00000000000E+00  0.00000000000E+00  0.87193925497E+03  0.87193925497E+03  0.00000000000E+00 0. -1.
          4   -1    0    0  502    0  0.00000000000E+00 -0.00000000000E+00 -0.23126169777E+04  0.23126169777E+04  0.00000000000E+00 0.  1.
   -9000010    2    1    2    0  501 -0.77836910725E+03  0.10079397823E+02 -0.21975609126E+02  0.12730861637E+04  0.10071272966E+04 0.  0.
    9000010    2    1    2  502    0  0.77836910725E+03 -0.10079397823E+02 -0.14187021136E+04  0.19114700689E+04  0.10173701764E+04 0.  0.
        -13    1    4    4    0    0  0.70365920671E+03 -0.44941214528E+03 -0.90080106354E+03  0.12282304844E+04  0.10566000000E+00 0.  1.
          4    1    4    4  502    0  0.74709900548E+02  0.43933274745E+03 -0.51790105002E+03  0.68323958450E+03  0.00000000000E+00 0.  1.
         13    1    3    3    0    0  0.20060410996E+03  0.99599461041E+02  0.15746822623E+03  0.27378516214E+03  0.10566000000E+00 0. -1.
         -4    1    3    3    0  501 -0.97897321722E+03 -0.89520063218E+02 -0.17944383535E+03  0.99930100160E+03  0.00000000000E+00 0. -1.
<mgrwt>
<rscale>  0 0.12769498E+04</rscale>
<asrwt>0</asrwt>
<pdfrwt beam="2">  1        4 0.35578722E+00 0.12810161E+04</pdfrwt>
<pdfrwt beam="1">  1       -4 0.13414450E+00 0.12728965E+04</pdfrwt>
<totfact> 0.12163549E-01</totfact>
</mgrwt>
</event>
<event>
 8    1  0.3025584E-006  0.1148500E+04  0.7818608E-02  0.8647283E-01
         -4   -1    0    0    0  501 -0.00000000000E+00  0.00000000000E+00  0.23273763313E+04  0.23273763313E+04  0.00000000000E+00 0. -1.
          4   -1    0    0  502    0  0.00000000000E+00 -0.00000000000E+00 -0.14805569490E+04  0.14805569490E+04  0.00000000000E+00 0.  1.
   -9000010    2    1    2    0  501 -0.32765261265E+03 -0.41899709155E+03  0.19202764742E+04  0.22375241618E+04  0.10179085618E+04 0.  0.
    9000010    2    1    2  502    0  0.32765261265E+03  0.41899709155E+03 -0.10734570918E+04  0.15704091185E+04  0.10153619424E+04 0.  0.
        -13    1    4    4    0    0 -0.33227989413E+03 -0.40762923499E+02 -0.39828882658E+03  0.52029370986E+03  0.10566000000E+00 0.  1.
          4    1    4    4  502    0  0.65993250678E+03  0.45976001505E+03 -0.67516826527E+03  0.10501154086E+04  0.00000000000E+00 0.  1.
         13    1    3    3    0    0 -0.15015534166E+03 -0.74089645565E+03  0.14960138882E+04  0.16761657882E+04  0.10566000000E+00 0. -1.
         -4    1    3    3    0  501 -0.17749727099E+03  0.32189936410E+03  0.42426258592E+03  0.56135837362E+03  0.00000000000E+00 0. -1.
<mgrwt>
<rscale>  0 0.11473714E+04</rscale>
<asrwt>0</asrwt>
<pdfrwt beam="2">  1        4 0.22777799E+00 0.11462437E+04</pdfrwt>
<pdfrwt beam="1">  1       -4 0.35805790E+00 0.11485002E+04</pdfrwt>
<totfact> 0.57789624E-02</totfact>
</mgrwt>
</event>
<event>
 8    1  0.3025584E-006  0.1207832E+04  0.7818608E-02  0.8633610E-01
          4   -1    0    0  502    0  0.00000000000E+00  0.00000000000E+00  0.10606631403E+04  0.10606631403E+04  0.00000000000E+00 0.  1.
         -4   -1    0    0    0  501 -0.00000000000E+00 -0.00000000000E+00 -0.25390855692E+04  0.25390855692E+04  0.00000000000E+00 0. -1.
   -9000010    2    1    2    0  501 -0.45189830274E+03  0.49049267939E+03 -0.19923517575E+04  0.22871248548E+04  0.90370317663E+03 0.  0.
    9000010    2    1    2  502    0  0.45189830274E+03 -0.49049267939E+03  0.51392932860E+03  0.13126238548E+04  0.10070068941E+04 0.  0.
        -13    1    4    4    0    0  0.20169328023E+03 -0.78417417435E+03  0.43378764811E+03  0.91857555477E+03  0.10566000000E+00 0.  1.
          4    1    4    4  502    0  0.25020502251E+03  0.29368149496E+03  0.80141680490E+02  0.39404829999E+03  0.00000000000E+00 0.  1.
         13    1    3    3    0    0 -0.66768823744E+01  0.48612794132E+03 -0.38765710334E+03  0.62180623753E+03  0.10566000000E+00 0. -1.
         -4    1    3    3    0  501 -0.44522142036E+03  0.43647380668E+01 -0.16046946541E+04  0.16653186173E+04  0.00000000000E+00 0. -1.
<mgrwt>
<rscale>  0 0.11647236E+04</rscale>
<asrwt>0</asrwt>
<pdfrwt beam="1">  1        4 0.16317894E+00 0.12078320E+04</pdfrwt>
<pdfrwt beam="2">  1       -4 0.39062855E+00 0.11231539E+04</pdfrwt>
<totfact> 0.68290012E-02</totfact>
</mgrwt>
</event>
<event>
 8    1  0.3025584E-006  0.1053466E+04  0.7818608E-02  0.8738198E-01
         -4   -1    0    0    0  501 -0.00000000000E+00  0.00000000000E+00  0.68114581008E+03  0.68114581008E+03  0.00000000000E+00 0. -1.
          4   -1    0    0  502    0  0.00000000000E+00 -0.00000000000E+00 -0.40468205432E+04  0.40468205432E+04  0.00000000000E+00 0.  1.
   -9000010    2    1    2    0  501  0.12667321175E+03  0.23201088590E+03  0.15139769109E+03  0.10642889566E+04  0.10197620156E+04 0.  0.
    9000010    2    1    2  502    0 -0.12667321175E+03 -0.23201088590E+03 -0.35170724242E+04  0.36636773967E+04  0.99139219085E+03 0.  0.
        -13    1    4    4    0    0 -0.24241582702E+03 -0.86950830733E+01 -0.33565248938E+04  0.33652786529E+04  0.10566000000E+00 0.  1.
          4    1    4    4  502    0  0.11574261527E+03 -0.22331580283E+03 -0.16054753041E+03  0.29839874380E+03  0.00000000000E+00 0.  1.
         13    1    3    3    0    0  0.46698058389E+03 -0.41949518191E+02 -0.19395458924E+03  0.50739434531E+03  0.10566000000E+00 0. -1.
         -4    1    3    3    0  501 -0.34030737214E+03  0.27396040409E+03  0.34535228033E+03  0.55689461128E+03  0.00000000000E+00 0. -1.
<mgrwt>
<rscale>  0 0.10396563E+04</rscale>
<asrwt>0</asrwt>
<pdfrwt beam="2">  1        4 0.62258777E+00 0.10260281E+04</pdfrwt>
<pdfrwt beam="1">  1       -4 0.10479166E+00 0.10534656E+04</pdfrwt>
<totfact> 0.10826711E-02</totfact>
</mgrwt>
</event>
<event>
 8    1  0.3025584E-006  0.1188369E+04  0.7818608E-02  0.8617930E-01
          4   -1    0    0  502    0  0.00000000000E+00  0.00000000000E+00  0.22549909856E+04  0.22549909856E+04  0.00000000000E+00 0.  1.
         -4   -1    0    0    0  501 -0.00000000000E+00 -0.00000000000E+00 -0.10739075738E+04  0.10739075738E+04  0.00000000000E+00 0. -1.
   -9000010    2    1    2    0  501  0.20648324614E+03  0.63570495777E+03 -0.48732224942E+03  0.12844080879E+04  0.98258080439E+03 0.  0.
    9000010    2    1    2  502    0 -0.20648324614E+03 -0.63570495777E+03  0.16684056612E+04  0.20444904716E+04  0.97447817509E+03 0.  0.
        -13    1    4    4    0    0  0.24314526695E+03 -0.48401656995E+03  0.35406447258E+03  0.64711152264E+03  0.10566000000E+00 0.  1.
          4    1    4    4  502    0 -0.44962851309E+03 -0.15168838783E+03  0.13143411887E+04  0.13973789490E+04  0.00000000000E+00 0.  1.
         13    1    3    3    0    0  0.19086839938E+03  0.87808682790E+03 -0.22382960594E+03  0.92604909528E+03  0.10566000000E+00 0. -1.
         -4    1    3    3    0  501  0.15614846760E+02 -0.24238187013E+03 -0.26349264348E+03  0.35835899260E+03  0.00000000000E+00 0. -1.
<mgrwt>
<rscale>  0 0.11850190E+04</rscale>
<asrwt>0</asrwt>
<pdfrwt beam="1">  1        4 0.34692169E+00 0.11816784E+04</pdfrwt>
<pdfrwt beam="2">  1       -4 0.16521655E+00 0.11883691E+04</pdfrwt>
<totfact> 0.96555191E-02</totfact>
</mgrwt>
</event>
<event>
 8    1  0.3025584E-006  0.1117252E+04  0.7818608E-02  0.8678658E-01
          4   -1    0    0  502    0  0.00000000000E+00  0.00000000000E+00  0.10535417243E+04  0.10535417243E+04  0.00000000000E+00 0.  1.
         -4   -1    0    0    0  501 -0.00000000000E+00 -0.00000000000E+00 -0.29299643631E+04  0.29299643631E+04  0.00000000000E+00 0. -1.
   -9000010    2    1    2    0  501  0.31379742789E+03 -0.36526843115E+03 -0.24861051635E+04  0.27256139653E+04  0.10081481793E+04 0.  0.
    9000010    2    1    2  502    0 -0.31379742789E+03  0.36526843115E+03  0.60968252468E+03  0.12578921221E+04  0.98928760099E+03 0.  0.
        -13    1    4    4    0    0  0.15073623057E+03  0.26914589946E+02  0.66325942468E+03  0.68070469511E+03  0.10566000000E+00 0.  1.
          4    1    4    4  502    0 -0.46453365846E+03  0.33835384121E+03 -0.53576899999E+02  0.57718742702E+03  0.00000000000E+00 0.  1.
         13    1    3    3    0    0 -0.28227731338E+03 -0.14271305682E+03 -0.25721023863E+03  0.40768200384E+03  0.10566000000E+00 0. -1.
         -4    1    3    3    0  501  0.59607474128E+03 -0.22255537433E+03 -0.22288949249E+04  0.23179319615E+04  0.00000000000E+00 0. -1.
<mgrwt>
<rscale>  0 0.11087253E+04</rscale>
<asrwt>0</asrwt>
<pdfrwt beam="1">  1        4 0.16208334E+00 0.11002635E+04</pdfrwt>
<pdfrwt beam="2">  1       -4 0.45076374E+00 0.11172523E+04</pdfrwt>
<totfact> 0.38374182E-02</totfact>
</mgrwt>
</event>
<event>
 8    1  0.3025584E-006  0.1496016E+04  0.7818608E-02  0.8433769E-01
         -4   -1    0    0    0  501 -0.00000000000E+00  0.00000000000E+00  0.15399926219E+04  0.15399926219E+04  0.00000000000E+00 0. -1.
          4   -1    0    0  502    0  0.00000000000E+00 -0.00000000000E+00 -0.30951065835E+04  0.30951065835E+04  0.00000000000E+00 0.  1.
   -9000010    2    1    2    0  501 -0.88188947645E+03  0.51817999266E+03  0.95504624911E+03  0.17129477919E+04  0.98784474810E+03 0.  0.
    9000010    2    1    2  502    0  0.88188947645E+03 -0.51817999266E+03 -0.25101602107E+04  0.29221514135E+04  0.10917073999E+04 0.  0.
        -13    1    4    4    0    0 -0.22304998178E+03 -0.45216825136E+02 -0.14708340483E+03  0.27097858732E+03  0.10566000000E+00 0.  1.
          4    1    4    4  502    0  0.11049394582E+04 -0.47296316753E+03 -0.23630768058E+04  0.26511728262E+04  0.00000000000E+00 0.  1.
         13    1    3    3    0    0 -0.87640017231E+03  0.55792388931E+03  0.33498688060E+03  0.10915917504E+04  0.10566000000E+00 0. -1.
         -4    1    3    3    0  501 -0.54893041360E+01 -0.39743896642E+02  0.62005936851E+03  0.62135604146E+03  0.00000000000E+00 0. -1.
<mgrwt>
<rscale>  0 0.14585374E+04</rscale>
<asrwt>0</asrwt>
<pdfrwt beam="2">  1        4 0.47617024E+00 0.14960162E+04</pdfrwt>
<pdfrwt beam="1">  1       -4 0.23692194E+00 0.14219975E+04</pdfrwt>
<totfact> 0.16783639E-02</totfact>
</mgrwt>
</event>
<event>
 8    1  0.3025584E-006  0.1203332E+04  0.7818608E-02  0.8604272E-01
          4   -1    0    0  502    0  0.00000000000E+00  0.00000000000E+00  0.89740602210E+03  0.89740602210E+03  0.00000000000E+00 0.  1.
         -4   -1    0    0    0  501 -0.00000000000E+00 -0.00000000000E+00 -0.19056989753E+04  0.19056989753E+04  0.00000000000E+00 0. -1.
   -9000010    2    1    2    0  501 -0.62267798582E+03  0.21223057797E+03 -0.10537325833E+04  0.15994871659E+04  0.10075897700E+04 0.  0.
    9000010    2    1    2  502    0  0.62267798582E+03 -0.21223057797E+03  0.45439630116E+02  0.12036178314E+04  0.10069068636E+04 0.  0.
        -13    1    4    4    0    0 -0.14892565880E+03 -0.67315985196E+02 -0.30331785740E+03  0.34454611810E+03  0.10566000000E+00 0.  1.
          4    1    4    4  502    0  0.77160364462E+03 -0.14491459277E+03  0.34875748752E+03  0.85907171335E+03  0.00000000000E+00 0.  1.
         13    1    3    3    0    0 -0.81643986201E+03 -0.10814493344E+03 -0.79252900292E+03  0.11429661441E+04  0.10566000000E+00 0. -1.
         -4    1    3    3    0  501  0.19376187620E+03  0.32037551141E+03 -0.26120358038E+03  0.45652102184E+03  0.00000000000E+00 0. -1.
<mgrwt>
<rscale>  0 0.12030456E+04</rscale>
<asrwt>0</asrwt>
<pdfrwt beam="1">  1        4 0.13806247E+00 0.12027598E+04</pdfrwt>
<pdfrwt beam="2">  1       -4 0.29318445E+00 0.12033316E+04</pdfrwt>
<totfact> 0.17865321E-01</totfact>
</mgrwt>
</event>
<event>
 8    1  0.3025584E-006  0.1047792E+04  0.7818608E-02  0.8753527E-01
         -4   -1    0    0    0  501 -0.00000000000E+00  0.00000000000E+00  0.31100638477E+04  0.31100638477E+04  0.00000000000E+00 0. -1.
          4   -1    0    0  502    0  0.00000000000E+00 -0.00000000000E+00 -0.42291402539E+03  0.42291402539E+03  0.00000000000E+00 0.  1.
   -9000010    2    1    2    0  501 -0.24507749429E+02  0.34120416643E+03  0.21159440606E+04  0.23396027686E+04  0.93781711113E+03 0.  0.
    9000010    2    1    2  502    0  0.24507749429E+02 -0.34120416643E+03  0.57120576168E+03  0.11933751045E+04  0.99037730437E+03 0.  0.
        -13    1    4    4    0    0 -0.13689350205E+03  0.32805010127E+03  0.24384442644E+03  0.43106474609E+03  0.10566000000E+00 0.  1.
          4    1    4    4  502    0  0.16140125148E+03 -0.66925426769E+03  0.32736133524E+03  0.76231035846E+03  0.00000000000E+00 0.  1.
         13    1    3    3    0    0  0.27956366336E+03  0.49926537813E+03  0.17363187865E+04  0.18281752375E+04  0.10566000000E+00 0. -1.
         -4    1    3    3    0  501 -0.30407141279E+03 -0.15806121171E+03  0.37962527419E+03  0.51142753106E+03  0.00000000000E+00 0. -1.
<mgrwt>
<rscale>  0 0.10227259E+04</rscale>
<asrwt>0</asrwt>
<pdfrwt beam="2">  1        4 0.65063698E-01 0.10477920E+04</pdfrwt>
<pdfrwt beam="1">  1       -4 0.47847135E+00 0.99825941E+03</pdfrwt>
<totfact> 0.15205047E-01</totfact>
</mgrwt>
</event>
<event>
 8    1  0.3025584E-006  0.1155826E+04  0.7818608E-02  0.8656114E-01
         -4   -1    0    0    0  501 -0.00000000000E+00  0.00000000000E+00  0.79330331726E+03  0.79330331726E+03  0.00000000000E+00 0. -1.
          4   -1    0    0  502    0  0.00000000000E+00 -0.00000000000E+00 -0.18329934495E+04  0.18329934495E+04  0.00000000000E+00 0.  1.
   -9000010    2    1    2    0  501  0.21276531969E+03 -0.48470787630E+03 -0.73073314415E+02  0.11195511373E+04  0.98379074661E+03 0.  0.
    9000010    2    1    2  502    0 -0.21276531969E+03  0.48470787630E+03 -0.96661681787E+03  0.15067456295E+04  0.10274840694E+04 0.  0.
        -13    1    4    4    0    0 -0.19857801618E+03  0.16439761774E+03  0.18112254956E+03  0.31506379410E+03  0.10566000000E+00 0.  1.
          4    1    4    4  502    0 -0.14187303505E+02  0.32031025856E+03 -0.11477393674E+04  0.11916818354E+04  0.00000000000E+00 0.  1.
         13    1    3    3    0    0 -0.10892352928E+03 -0.49441537957E+02 -0.44633263551E+03  0.46208401140E+03  0.10566000000E+00 0. -1.
         -4    1    3    3    0  501  0.32168884897E+03 -0.43526633834E+03  0.37325932109E+03  0.65746712589E+03  0.00000000000E+00 0. -1.
<mgrwt>
<rscale>  0 0.11363306E+04</rscale>
<asrwt>0</asrwt>
<pdfrwt beam="2">  1        4 0.28199899E+00 0.11558262E+04</pdfrwt>
<pdfrwt beam="1">  1       -4 0.12204667E+00 0.11171638E+04</pdfrwt>
<totfact> 0.23372363E-01</totfact>
</mgrwt>
</event>
<event>
 8    1  0.3025584E-006  0.1166278E+04  0.7818608E-02  0.8634823E-01
          4   -1    0    0  502    0  0.00000000000E+00  0.00000000000E+00  0.23663996918E+04  0.23663996918E+04  0.00000000000E+00 0.  1.
         -4   -1    0    0    0  501 -0.00000000000E+00 -0.00000000000E+00 -0.14872303820E+04  0.14872303820E+04  0.00000000000E+00 0. -1.
   -9000010    2    1    2    0  501  0.13482681897E+03  0.56551951220E+03 -0.10726016210E+04  0.15799513937E+04  0.10038832499E+04 0.  0.
    9000010    2    1    2  502    0 -0.13482681897E+03 -0.56551951220E+03  0.19517709308E+04  0.22736786801E+04  0.10110461831E+04 0.  0.
        -13    1    4    4    0    0 -0.19671430686E+03 -0.17337617651E+03 -0.19397389418E+02  0.26292981380E+03  0.10566000000E+00 0.  1.
          4    1    4    4  502    0  0.61887487888E+02 -0.39214333570E+03  0.19711683202E+04  0.20107488663E+04  0.00000000000E+00 0.  1.
         13    1    3    3    0    0  0.70636331188E+02  0.76733009947E+03 -0.38681838428E+03  0.86221426944E+03  0.10566000000E+00 0. -1.
         -4    1    3    3    0  501  0.64190487786E+02 -0.20181058727E+03 -0.68578323670E+03  0.71773712430E+03  0.00000000000E+00 0. -1.
<mgrwt>
<rscale>  0 0.11631721E+04</rscale>
<asrwt>0</asrwt>
<pdfrwt beam="1">  1        4 0.36406149E+00 0.11662783E+04</pdfrwt>
<pdfrwt beam="2">  1       -4 0.22880467E+00 0.11600742E+04</pdfrwt>
<totfact> 0.54542567E-02</totfact>
</mgrwt>
</event>
<event>
 8    1  0.3025584E-006  0.1163488E+04  0.7818608E-02  0.8642879E-01
         -4   -1    0    0    0  501 -0.00000000000E+00  0.00000000000E+00  0.57598182853E+03  0.57598182853E+03  0.00000000000E+00 0. -1.
          4   -1    0    0  502    0  0.00000000000E+00 -0.00000000000E+00 -0.27102059506E+04  0.27102059506E+04  0.00000000000E+00 0.  1.
   -9000010    2    1    2    0  501  0.32216565867E+03 -0.48984897763E+03 -0.44242525051E+03  0.12447670222E+04  0.10049687084E+04 0.  0.
    9000010    2    1    2  502    0 -0.32216565867E+03  0.48984897763E+03 -0.16917988715E+04  0.20414207569E+04  0.98054706790E+03 0.  0.
        -13    1    4    4    0    0  0.10493417371E+03 -0.21568359686E+03 -0.12419611079E+03  0.27010235072E+03  0.10566000000E+00 0.  1.
          4    1    4    4  502    0 -0.42709983238E+03  0.70553257449E+03 -0.15676027607E+04  0.17713184061E+04  0.00000000000E+00 0.  1.
         13    1    3    3    0    0  0.88663363163E+01 -0.27711090936E+03 -0.72242208826E+03  0.77379761745E+03  0.10566000000E+00 0. -1.
         -4    1    3    3    0  501  0.31329932235E+03 -0.21273806827E+03  0.27999683775E+03  0.47096940477E+03  0.00000000000E+00 0. -1.
<mgrwt>
<rscale>  0 0.11529263E+04</rscale>
<asrwt>0</asrwt>
<pdfrwt beam="2">  1        4 0.41695476E+00 0.11424602E+04</pdfrwt>
<pdfrwt beam="1">  1       -4 0.88612590E-01 0.11634882E+04</pdfrwt>
<totfact> 0.15098969E-01</totfact>
</mgrwt>
</event>
<event>
 8    1  0.3025584E-006  0.1149805E+04  0.7818608E-02  0.8647616E-01
         -4   -1    0    0    0  501 -0.00000000000E+00  0.00000000000E+00  0.32265786297E+04  0.32265786297E+04  0.00000000000E+00 0. -1.
          4   -1    0    0  502    0  0.00000000000E+00 -0.00000000000E+00 -0.51978449953E+03  0.51978449953E+03  0.00000000000E+00 0.  1.
   -9000010    2    1    2    0  501 -0.33797422946E+03  0.43605237975E+03  0.22205623488E+04  0.24979754433E+04  0.10023052993E+04 0.  0.
    9000010    2    1    2  502    0  0.33797422946E+03 -0.43605237975E+03  0.48623178142E+03  0.12483876859E+04  0.10088023649E+04 0.  0.
        -13    1    4    4    0    0 -0.32692955021E+03 -0.35291812359E+02  0.31081297158E+03  0.45247448247E+03  0.10566000000E+00 0.  1.
          4    1    4    4  502    0  0.66490377967E+03 -0.40076056739E+03  0.17541880984E+03  0.79591320346E+03  0.00000000000E+00 0.  1.
         13    1    3    3    0    0 -0.39720410472E+03 -0.23473968330E+03  0.10625817127E+04  0.11584272645E+04  0.10566000000E+00 0. -1.
         -4    1    3    3    0  501  0.59229875262E+02  0.67079206305E+03  0.11579806361E+04  0.13395481789E+04  0.00000000000E+00 0. -1.
<mgrwt>
<rscale>  0 0.11469530E+04</rscale>
<asrwt>0</asrwt>
<pdfrwt beam="2">  1        4 0.79966848E-01 0.11498045E+04</pdfrwt>
<pdfrwt beam="1">  1       -4 0.49639670E+00 0.11441085E+04</pdfrwt>
<totfact> 0.80463645E-02</totfact>
</mgrwt>
</event>
<event>
 8    1  0.3025584E-006  0.1058929E+04  0.7818608E-02  0.8733942E-01
          4   -1    0    0  502    0  0.00000000000E+00  0.00000000000E+00  0.16549086232E+04  0.16549086232E+04  0.00000000000E+00 0.  1.
         -4   -1    0    0    0  501 -0.00000000000E+00 -0.00000000000E+00 -0.79435976571E+03  0.79435976571E+03  0.00000000000E+00 0. -1.
   -9000010    2    1    2    0  501 -0.14507422975E+03  0.15797689129E+03 -0.69798553077E+02  0.10612264142E+04  0.10369794761E+04 0.  0.
    9000010    2    1    2  502    0  0.14507422975E+03 -0.15797689129E+03  0.93034741061E+03  0.13880419747E+04  0.10075271653E+04 0.  0.
        -13    1    4    4    0    0 -0.27850338627E+03  0.25189905050E+03  0.61231663780E+03  0.71829586098E+03  0.10566000000E+00 0.  1.
          4    1    4    4  502    0  0.42357761602E+03 -0.40987594179E+03  0.31803077281E+03  0.66974611377E+03  0.00000000000E+00 0.  1.
         13    1    3    3    0    0 -0.52431678705E+03  0.22154986594E+03  0.18664758169E+03  0.59902401221E+03  0.10566000000E+00 0. -1.
         -4    1    3    3    0  501  0.37924255730E+03 -0.63572974655E+02 -0.25644613477E+03  0.46220240200E+03  0.00000000000E+00 0. -1.
<mgrwt>
<rscale>  0 0.10444168E+04</rscale>
<asrwt>0</asrwt>
<pdfrwt beam="1">  1        4 0.25460133E+00 0.10301040E+04</pdfrwt>
<pdfrwt beam="2">  1       -4 0.12220920E+00 0.10589285E+04</pdfrwt>
<totfact> 0.27249849E-01</totfact>
</mgrwt>
</event>
<event>
 8    1  0.3025584E-006  0.1215125E+04  0.7818608E-02  0.8600177E-01
          4   -1    0    0  502    0  0.00000000000E+00  0.00000000000E+00  0.13692600914E+04  0.13692600914E+04  0.00000000000E+00 0.  1.
         -4   -1    0    0    0  501 -0.00000000000E+00 -0.00000000000E+00 -0.11952099377E+04  0.11952099377E+04  0.00000000000E+00 0. -1.
   -9000010    2    1    2    0  501 -0.67156401469E+03 -0.17728184410E+03 -0.33388571191E+03  0.12474557872E+04  0.98093791567E+03 0.  0.
    9000010    2    1    2  502    0  0.67156401469E+03  0.17728184410E+03  0.50793586558E+03  0.13170142418E+04  0.99704593253E+03 0.  0.
        -13    1    4    4    0    0 -0.18538997340E+03  0.37838388597E+02 -0.13856786593E+03  0.23452558607E+03  0.10566000000E+00 0.  1.
          4    1    4    4  502    0  0.85695398809E+03  0.13944345550E+03  0.64650373151E+03  0.10824886558E+04  0.00000000000E+00 0.  1.
         13    1    3    3    0    0  0.54595866140E+01 -0.14691945204E+03 -0.52347757716E+03  0.54373147548E+03  0.10566000000E+00 0. -1.
         -4    1    3    3    0  501 -0.67702360130E+03 -0.30362392054E+02  0.18959186525E+03  0.70372431174E+03  0.00000000000E+00 0. -1.
<mgrwt>
<rscale>  0 0.12085157E+04</rscale>
<asrwt>0</asrwt>
<pdfrwt beam="1">  1        4 0.21065540E+00 0.12151245E+04</pdfrwt>
<pdfrwt beam="2">  1       -4 0.18387845E+00 0.12019427E+04</pdfrwt>
<totfact> 0.18927877E-01</totfact>
</mgrwt>
</event>
<event>
 8    1  0.3025584E-006  0.1083124E+04  0.7818608E-02  0.8704153E-01
         -4   -1    0    0    0  501 -0.00000000000E+00  0.00000000000E+00  0.18238918518E+04  0.18238918518E+04  0.00000000000E+00 0. -1.
          4   -1    0    0  502    0  0.00000000000E+00 -0.00000000000E+00 -0.77596617154E+03  0.77596617154E+03  0.00000000000E+00 0.  1.
   -9000010    2    1    2    0  501 -0.20671732119E+03 -0.28923043411E+03  0.10744719867E+04  0.15256633465E+04  0.10231189090E+04 0.  0.
    9000010    2    1    2  502    0  0.20671732119E+03  0.28923043411E+03 -0.26546306373E+02  0.10741946768E+04  0.10133129835E+04 0.  0.
        -13    1    4    4    0    0 -0.15430221704E+03  0.15324971741E+03  0.42674570156E+03  0.47896404357E+03  0.10566000000E+00 0.  1.
          4    1    4    4  502    0  0.36101953823E+03  0.13598071670E+03 -0.45329200794E+03  0.59523063325E+03  0.00000000000E+00 0.  1.
         13    1    3    3    0    0 -0.29515027116E+03 -0.45555398947E+03  0.12411732023E+03  0.55681975561E+03  0.10566000000E+00 0. -1.
         -4    1    3    3    0  501  0.88432949970E+02  0.16632355536E+03  0.95035466643E+03  0.96884359094E+03  0.00000000000E+00 0. -1.
<mgrwt>
<rscale>  0 0.10784856E+04</rscale>
<asrwt>0</asrwt>
<pdfrwt beam="2">  1        4 0.11937941E+00 0.10738666E+04</pdfrwt>
<pdfrwt beam="1">  1       -4 0.28059875E+00 0.10831245E+04</pdfrwt>
<totfact> 0.24536811E-01</totfact>
</mgrwt>
</event>
<event>
 8    1  0.3025584E-006  0.1030158E+04  0.7818608E-02  0.8747617E-01
          4   -1    0    0  502    0  0.00000000000E+00  0.00000000000E+00  0.67450734540E+03  0.67450734540E+03  0.00000000000E+00 0.  1.
         -4   -1    0    0    0  501 -0.00000000000E+00 -0.00000000000E+00 -0.21073574544E+04  0.21073574544E+04  0.00000000000E+00 0. -1.
   -9000010    2    1    2    0  501  0.81812565602E+02  0.19806232505E+03 -0.14189923596E+04  0.17535007830E+04  0.10076227960E+04 0.  0.
    9000010    2    1    2  502    0 -0.81812565602E+02 -0.19806232505E+03 -0.13857749348E+02  0.10283640167E+04  0.10056930611E+04 0.  0.
        -13    1    4    4    0    0 -0.25363575476E+03 -0.53528298548E+03  0.15748764952E+03  0.61291218095E+03  0.10566000000E+00 0.  1.
          4    1    4    4  502    0  0.17182318916E+03  0.33722066043E+03 -0.17134539887E+03  0.41545183580E+03  0.00000000000E+00 0.  1.
         13    1    3    3    0    0 -0.32728588902E+03 -0.34677734859E+02 -0.86456594765E+02  0.34028422295E+03  0.10566000000E+00 0. -1.
         -4    1    3    3    0  501  0.40909845462E+03  0.23274005991E+03 -0.13325357649E+04  0.14132165601E+04  0.00000000000E+00 0. -1.
<mgrwt>
<rscale>  0 0.10292139E+04</rscale>
<asrwt>0</asrwt>
<pdfrwt beam="1">  1        4 0.10377036E+00 0.10282706E+04</pdfrwt>
<pdfrwt beam="2">  1       -4 0.32420883E+00 0.10301581E+04</pdfrwt>
<totfact> 0.24043224E-01</totfact>
</mgrwt>
</event>
<event>
 8    1  0.3025584E-006  0.1077575E+04  0.7818608E-02  0.8748124E-01
          4   -1    0    0  502    0  0.00000000000E+00  0.00000000000E+00  0.17510225791E+04  0.17510225791E+04  0.00000000000E+00 0.  1.
         -4   -1    0    0    0  501 -0.00000000000E+00 -0.00000000000E+00 -0.60786567738E+03  0.60786567738E+03  0.00000000000E+00 0. -1.
   -9000010    2    1    2    0  501  0.27086096845E+03 -0.30657231068E+03  0.52606480351E+03  0.11991295411E+04  0.99690282020E+03 0.  0.
    9000010    2    1    2  502    0 -0.27086096845E+03  0.30657231068E+03  0.61709209822E+03  0.11597587154E+04  0.89268436434E+03 0.  0.
        -13    1    4    4    0    0 -0.34113413593E+03  0.55691223685E+03  0.22791894713E+03  0.69171583463E+03  0.10566000000E+00 0.  1.
          4    1    4    4  502    0  0.70273167475E+02 -0.25033992617E+03  0.38917315109E+03  0.46804288076E+03  0.00000000000E+00 0.  1.
         13    1    3    3    0    0 -0.14825007314E+02  0.11206086210E+03 -0.24877594446E+03  0.27325244622E+03  0.10566000000E+00 0. -1.
         -4    1    3    3    0  501  0.28568597577E+03 -0.41863317278E+03  0.77484074797E+03  0.92587709488E+03  0.00000000000E+00 0. -1.
<mgrwt>
<rscale>  0 0.10286550E+04</rscale>
<asrwt>0</asrwt>
<pdfrwt beam="1">  1        4 0.26938809E+00 0.98195602E+03</pdfrwt>
<pdfrwt beam="2">  1       -4 0.93517797E-01 0.10775748E+04</pdfrwt>
<totfact> 0.41162948E-01</totfact>
</mgrwt>
</event>
<event>
 8    1  0.3025584E-006  0.1104588E+04  0.7818608E-02  0.8689795E-01
          4   -1    0    0  502    0  0.00000000000E+00  0.00000000000E+00  0.10636606292E+04  0.10636606292E+04  0.00000000000E+00 0.  1.
         -4   -1    0    0    0  501 -0.00000000000E+00 -0.00000000000E+00 -0.12736510038E+04  0.12736510038E+04  0.00000000000E+00 0. -1.
   -9000010    2    1    2    0  501 -0.21419776145E+03  0.42222050170E+03 -0.50076290940E+03  0.12127972713E+04  0.99797940701E+03 0.  0.
    9000010    2    1    2  502    0  0.21419776145E+03 -0.42222050170E+03  0.29077253482E+03  0.11245143617E+04  0.97766714660E+03 0.  0.
        -13    1    4    4    0    0  0.38454755438E+03  0.13672508674E+02  0.48389310623E+03  0.61823645031E+03  0.10566000000E+00 0.  1.
          4    1    4    4  502    0 -0.17034979293E+03 -0.43589301037E+03 -0.19312057140E+03  0.50627791137E+03  0.00000000000E+00 0.  1.
         13    1    3    3    0    0 -0.13263431015E+03  0.43876477453E+03  0.20501245995E+03  0.50213196223E+03  0.10566000000E+00 0. -1.
         -4    1    3    3    0  501 -0.81563451304E+02 -0.16544272826E+02 -0.70577536936E+03  0.71066530909E+03  0.00000000000E+00 0. -1.
<mgrwt>
<rscale>  0 0.10953908E+04</rscale>
<asrwt>0</asrwt>
<pdfrwt beam="1">  1        4 0.16364010E+00 0.10862706E+04</pdfrwt>
<pdfrwt beam="2">  1       -4 0.19594631E+00 0.11045876E+04</pdfrwt>
<totfact> 0.24527318E-01</totfact>
</mgrwt>
</event>
<event>
 8    1  0.3025584E-006  0.1219053E+04  0.7818608E-02  0.8592658E-01
         -4   -1    0    0    0  501 -0.00000000000E+00  0.00000000000E+00  0.23139209813E+04  0.23139209813E+04  0.00000000000E+00 0. -1.
          4   -1    0    0  502    0  0.00000000000E+00 -0.00000000000E+00 -0.70686244911E+03  0.70686244911E+03  0.00000000000E+00 0.  1.
   -9000010    2    1    2    0  501 -0.40801208385E+03 -0.56693245647E+03  0.12620066294E+04  0.17546366443E+04  0.99910097090E+03 0.  0.
    9000010    2    1    2  502    0  0.40801208385E+03  0.56693245647E+03  0.34505190283E+03  0.12661467862E+04  0.99808847187E+03 0.  0.
        -13    1    4    4    0    0  0.59620425037E+03  0.22367963001E+03  0.53439145197E+03  0.83130398781E+03  0.10566000000E+00 0.  1.
          4    1    4    4  502    0 -0.18819216652E+03  0.34325282645E+03 -0.18933954914E+03  0.43484279835E+03  0.00000000000E+00 0.  1.
         13    1    3    3    0    0 -0.43110577723E+03 -0.58419968529E+03  0.28939096688E+03  0.78159363248E+03  0.10566000000E+00 0. -1.
         -4    1    3    3    0  501  0.23093693385E+02  0.17267228821E+02  0.97261566248E+03  0.97304301178E+03  0.00000000000E+00 0. -1.
<mgrwt>
<rscale>  0 0.12186376E+04</rscale>
<asrwt>0</asrwt>
<pdfrwt beam="2">  1        4 0.10874807E+00 0.12182228E+04</pdfrwt>
<pdfrwt beam="1">  1       -4 0.35598784E+00 0.12190525E+04</pdfrwt>
<totfact> 0.17382823E-01</totfact>
</mgrwt>
</event>
<event>
 8    1  0.3025584E-006  0.2149612E+04  0.7818608E-02  0.8124054E-01
         -4   -1    0    0    0  501 -0.00000000000E+00  0.00000000000E+00  0.28026176851E+04  0.28026176851E+04  0.00000000000E+00 0. -1.
          4   -1    0    0  502    0  0.00000000000E+00 -0.00000000000E+00 -0.18467388081E+04  0.18467388081E+04  0.00000000000E+00 0.  1.
   -9000010    2    1    2    0  501  0.58475275825E+02  0.18646635498E+04  0.13326250267E+04  0.24669793370E+04  0.91088312941E+03 0.  0.
    9000010    2    1    2  502    0 -0.58475275825E+02 -0.18646635498E+04 -0.37674614973E+03  0.21823771563E+04  0.10679152022E+04 0.  0.
        -13    1    4    4    0    0 -0.78862370783E+02 -0.50328214471E+03  0.36990132146E+03  0.62955475496E+03  0.10566000000E+00 0.  1.
          4    1    4    4  502    0  0.20387094958E+02 -0.13613814051E+04 -0.74664747119E+03  0.15528224013E+04  0.00000000000E+00 0.  1.
         13    1    3    3    0    0  0.31919510909E+03  0.12399266660E+04  0.12423618183E+04  0.17840309844E+04  0.10566000000E+00 0. -1.
         -4    1    3    3    0  501 -0.26071983327E+03  0.62473688384E+03  0.90263208431E+02  0.68294835258E+03  0.00000000000E+00 0. -1.
<mgrwt>
<rscale>  0 0.21125249E+04</rscale>
<asrwt>0</asrwt>
<pdfrwt beam="2">  1        4 0.28411366E+00 0.21496121E+04</pdfrwt>
<pdfrwt beam="1">  1       -4 0.43117195E+00 0.20760775E+04</pdfrwt>
<totfact> 0.19744758E-02</totfact>
</mgrwt>
</event>
<event>
 8    1  0.3025584E-006  0.1444347E+04  0.7818608E-02  0.8444946E-01
          4   -1    0    0  502    0  0.00000000000E+00  0.00000000000E+00  0.33051516467E+04  0.33051516467E+04  0.00000000000E+00 0.  1.
         -4   -1    0    0    0  501 -0.00000000000E+00 -0.00000000000E+00 -0.20609582786E+04  0.20609582786E+04  0.00000000000E+00 0. -1.
   -9000010    2    1    2    0  501  0.18946698368E+03 -0.10232204221E+04 -0.16162591861E+04  0.21616869220E+04  0.98879665361E+03 0.  0.
    9000010    2    1    2  502    0 -0.18946698368E+03  0.10232204221E+04  0.28604525542E+04  0.32044230033E+04  0.10016287733E+04 0.  0.
        -13    1    4    4    0    0  0.24292561005E+02 -0.94157821394E+02  0.11258271602E+04  0.11300188625E+04  0.10566000000E+00 0.  1.
          4    1    4    4  502    0 -0.21375954469E+03  0.11173782434E+04  0.17346253940E+04  0.20744041408E+04  0.00000000000E+00 0.  1.
         13    1    3    3    0    0 -0.27249376470E+02 -0.34631177311E+03  0.49254273832E+02  0.35085661938E+03  0.10566000000E+00 0. -1.
         -4    1    3    3    0  501  0.21671636015E+03 -0.67690864895E+03 -0.16655134599E+04  0.18108303026E+04  0.00000000000E+00 0. -1.
<mgrwt>
<rscale>  0 0.14399055E+04</rscale>
<asrwt>0</asrwt>
<pdfrwt beam="1">  1        4 0.50848487E+00 0.14443469E+04</pdfrwt>
<pdfrwt beam="2">  1       -4 0.31707050E+00 0.14354778E+04</pdfrwt>
<totfact> 0.74076389E-03</totfact>
</mgrwt>
</event>
<event>
 8    1  0.3025584E-006  0.1076512E+04  0.7818608E-02  0.8712665E-01
         -4   -1    0    0    0  501 -0.00000000000E+00  0.00000000000E+00  0.16588636172E+04  0.16588636172E+04  0.00000000000E+00 0. -1.
          4   -1    0    0  502    0  0.00000000000E+00 -0.00000000000E+00 -0.15121469389E+04  0.15121469389E+04  0.00000000000E+00 0.  1.
   -9000010    2    1    2    0  501 -0.34053710061E+03  0.53862584440E+02  0.12433025952E+04  0.16343325275E+04  0.10031823225E+04 0.  0.
    9000010    2    1    2  502    0  0.34053710061E+03 -0.53862584440E+02 -0.10965859169E+04  0.15366780286E+04  0.10198097840E+04 0.  0.
        -13    1    4    4    0    0  0.65412232797E+03 -0.30425773081E+02 -0.10215150678E+04  0.12133815527E+04  0.10566000000E+00 0.  1.
          4    1    4    4  502    0 -0.31358522736E+03 -0.23436811359E+02 -0.75070849141E+02  0.32329647591E+03  0.00000000000E+00 0.  1.
         13    1    3    3    0    0 -0.38402854914E+03 -0.18476247518E+03  0.13142462997E+04  0.13816144347E+04  0.10566000000E+00 0. -1.
         -4    1    3    3    0  501  0.43491448531E+02  0.23862505962E+03 -0.70943704547E+02  0.25271809272E+03  0.00000000000E+00 0. -1.
<mgrwt>
<rscale>  0 0.10686142E+04</rscale>
<asrwt>0</asrwt>
<pdfrwt beam="2">  1        4 0.23263799E+00 0.10765123E+04</pdfrwt>
<pdfrwt beam="1">  1       -4 0.25520979E+00 0.10607740E+04</pdfrwt>
<totfact> 0.10899950E-01</totfact>
</mgrwt>
</event>
<event>
 8    1  0.3025584E-006  0.1098790E+04  0.7818608E-02  0.8695441E-01
         -4   -1    0    0    0  501 -0.00000000000E+00  0.00000000000E+00  0.16137190838E+04  0.16137190838E+04  0.00000000000E+00 0. -1.
          4   -1    0    0  502    0  0.00000000000E+00 -0.00000000000E+00 -0.17950366157E+04  0.17950366157E+04  0.00000000000E+00 0.  1.
   -9000010    2    1    2    0  501  0.41869413606E+03 -0.17591042592E+03  0.12189997551E+04  0.16411274056E+04  0.10005446022E+04 0.  0.
    9000010    2    1    2  502    0 -0.41869413606E+03  0.17591042592E+03 -0.14003172869E+04  0.17676282939E+04  0.97845389456E+03 0.  0.
        -13    1    4    4    0    0 -0.46091284077E+02  0.73667876392E+02  0.14811137684E+03  0.17172173302E+03  0.10566000000E+00 0.  1.
          4    1    4    4  502    0 -0.37260285198E+03  0.10224254953E+03 -0.15484286638E+04  0.15959065609E+04  0.00000000000E+00 0.  1.
         13    1    3    3    0    0  0.14870854667E+03 -0.41469651011E+03  0.81680466354E+02  0.44806153272E+03  0.10566000000E+00 0. -1.
         -4    1    3    3    0  501  0.26998558938E+03  0.23878608419E+03  0.11373192887E+04  0.11930658729E+04  0.00000000000E+00 0. -1.
<mgrwt>
<rscale>  0 0.10887050E+04</rscale>
<asrwt>0</asrwt>
<pdfrwt beam="2">  1        4 0.27615948E+00 0.10787128E+04</pdfrwt>
<pdfrwt beam="1">  1       -4 0.24826447E+00 0.10987897E+04</pdfrwt>
<totfact> 0.89363818E-02</totfact>
</mgrwt>
</event>
<event>
 8    1  0.3025584E-006  0.1114605E+04  0.7818608E-02  0.8700717E-01
         -4   -1    0    0    0  501 -0.00000000000E+00  0.00000000000E+00  0.16341943330E+04  0.16341943330E+04  0.00000000000E+00 0. -1.
          4   -1    0    0  502    0  0.00000000000E+00 -0.00000000000E+00 -0.16291695771E+04  0.16291695771E+04  0.00000000000E+00 0.  1.
   -9000010    2    1    2    0  501  0.26694230906E+03  0.22836206988E+03  0.12227950199E+04  0.16545609342E+04  0.10577980871E+04 0.  0.
    9000010    2    1    2  502    0 -0.26694230906E+03 -0.22836206988E+03 -0.12177702640E+04  0.16088029759E+04  0.99089614392E+03 0.  0.
        -13    1    4    4    0    0 -0.36407378561E+03 -0.56999499503E+02 -0.13313618696E+04  0.13814206830E+04  0.10566000000E+00 0.  1.
          4    1    4    4  502    0  0.97131476553E+02 -0.17136257038E+03  0.11359160563E+03  0.22738229292E+03  0.00000000000E+00 0.  1.
         13    1    3    3    0    0  0.27273680663E+03 -0.33986378832E+03  0.90264123430E+03  0.10023242835E+04  0.10566000000E+00 0. -1.
         -4    1    3    3    0  501 -0.57944975670E+01  0.56822585820E+03  0.32015378557E+03  0.65223665072E+03  0.00000000000E+00 0. -1.
<mgrwt>
<rscale>  0 0.10825023E+04</rscale>
<asrwt>0</asrwt>
<pdfrwt beam="2">  1        4 0.25064147E+00 0.10513242E+04</pdfrwt>
<pdfrwt beam="1">  1       -4 0.25141451E+00 0.11146050E+04</pdfrwt>
<totfact> 0.10085323E-01</totfact>
</mgrwt>
</event>
<event>
 8    1  0.3025584E-006  0.1580588E+04  0.7818608E-02  0.8366456E-01
          4   -1    0    0  502    0  0.00000000000E+00  0.00000000000E+00  0.17768872259E+04  0.17768872259E+04  0.00000000000E+00 0. -1.
         -4   -1    0    0    0  501 -0.00000000000E+00 -0.00000000000E+00 -0.15218729520E+04  0.15218729520E+04  0.00000000000E+00 0.  1.
   -9000010    2    1    2    0  501  0.52793959344E+03 -0.10970483121E+04 -0.33989458394E+03  0.16099217545E+04  0.99703786983E+03 0.  0.
    9000010    2    1    2  502    0 -0.52793959344E+03  0.10970483121E+04  0.59490885786E+03  0.16888384234E+04  0.10079798895E+04 0.  0.
        -13    1    4    4    0    0 -0.75256330292E+03  0.63755413140E+03  0.63941201207E+03  0.11754465227E+04  0.10566000000E+00 0.  1.
          4    1    4    4  502    0  0.22462370948E+03  0.45949418072E+03 -0.44503154206E+02  0.51339190070E+03  0.00000000000E+00 0.  1.
         13    1    3    3    0    0  0.54554126637E+03 -0.37879310876E+03  0.21936495759E+03  0.69944298434E+03  0.10566000000E+00 0. -1.
         -4    1    3    3    0  501 -0.17601672936E+02 -0.71825520337E+03 -0.55925954154E+03  0.91047877013E+03  0.00000000000E+00 0. -1.
<mgrwt>
<rscale>  0 0.15771065E+04</rscale>
<asrwt>0</asrwt>
<pdfrwt beam="1">  1        4 0.27336727E+00 0.15805881E+04</pdfrwt>
<pdfrwt beam="2">  1       -4 0.23413430E+00 0.15736327E+04</pdfrwt>
<totfact> 0.94826691E-02</totfact>
</mgrwt>
</event>
<event>
 8    1  0.3025584E-006  0.1932601E+04  0.7818608E-02  0.8200607E-01
         -4   -1    0    0    0  501 -0.00000000000E+00  0.00000000000E+00  0.14673335459E+04  0.14673335459E+04  0.00000000000E+00 0. -1.
          4   -1    0    0  502    0  0.00000000000E+00 -0.00000000000E+00 -0.25194825028E+04  0.25194825028E+04  0.00000000000E+00 0.  1.
   -9000010    2    1    2    0  501  0.87354567856E+03 -0.13794846099E+04 -0.52453807913E+03  0.20025197785E+04  0.10338691529E+04 0.  0.
    9000010    2    1    2  502    0 -0.87354567856E+03  0.13794846099E+04 -0.52761087778E+03  0.19842962703E+04  0.99649315518E+03 0.  0.
        -13    1    4    4    0    0 -0.97677143025E+01  0.47776419860E+03  0.22303842664E+03  0.52735205378E+03  0.10566000000E+00 0.  1.
          4    1    4    4  502    0 -0.86377796426E+03  0.90172041131E+03 -0.75064930442E+03  0.14569442165E+04  0.00000000000E+00 0.  1.
         13    1    3    3    0    0 -0.68694519819E+02 -0.84777124169E+03 -0.24274540436E+03  0.88451136668E+03  0.10566000000E+00 0. -1.
         -4    1    3    3    0  501  0.94224019838E+03 -0.53171336822E+03 -0.28179267478E+03  0.11180084118E+04  0.00000000000E+00 0. -1.
<mgrwt>
<rscale>  0 0.19227083E+04</rscale>
<asrwt>0</asrwt>
<pdfrwt beam="2">  1        4 0.38761269E+00 0.19128666E+04</pdfrwt>
<pdfrwt beam="1">  1       -4 0.22574362E+00 0.19326006E+04</pdfrwt>
<totfact> 0.42545850E-02</totfact>
</mgrwt>
</event>
<event>
 8    1  0.3025584E-006  0.1350067E+04  0.7818608E-02  0.8511137E-01
         -4   -1    0    0    0  501 -0.00000000000E+00  0.00000000000E+00  0.11603131245E+04  0.11603131245E+04  0.00000000000E+00 0. -1.
          4   -1    0    0  502    0  0.00000000000E+00 -0.00000000000E+00 -0.43230622928E+04  0.43230622928E+04  0.00000000000E+00 0.  1.
   -9000010    2    1    2    0  501  0.57729695292E+03 -0.64887547973E+03  0.61346694369E+03  0.14829102956E+04  0.10336198981E+04 0.  0.
    9000010    2    1    2  502    0 -0.57729695292E+03  0.64887547973E+03 -0.37762161121E+04  0.40004651217E+04  0.99478736668E+03 0.  0.
        -13    1    4    4    0    0 -0.58928625020E+03  0.87497596234E+03 -0.26605665866E+04  0.28620719405E+04  0.10566000000E+00 0.  1.
          4    1    4    4  502    0  0.11989297277E+02 -0.22610048261E+03 -0.11156495254E+04  0.11383931812E+04  0.00000000000E+00 0.  1.
         13    1    3    3    0    0 -0.19072600174E+03  0.13069787877E+03  0.22233489124E+03  0.32076651677E+03  0.10566000000E+00 0. -1.
         -4    1    3    3    0  501  0.76802295466E+03 -0.77957335850E+03  0.39113205245E+03  0.11621437788E+04  0.00000000000E+00 0. -1.
<mgrwt>
<rscale>  0 0.13352386E+04</rscale>
<asrwt>0</asrwt>
<pdfrwt beam="2">  1        4 0.66508650E+00 0.13205730E+04</pdfrwt>
<pdfrwt beam="1">  1       -4 0.17850971E+00 0.13500671E+04</pdfrwt>
<totfact> 0.26430615E-03</totfact>
</mgrwt>
</event>
<event>
 8    1  0.3025584E-006  0.1347968E+04  0.7818608E-02  0.8525767E-01
          4   -1    0    0  502    0  0.00000000000E+00  0.00000000000E+00  0.11865001994E+04  0.11865001994E+04  0.00000000000E+00 0.  1.
         -4   -1    0    0    0  501 -0.00000000000E+00 -0.00000000000E+00 -0.16497453627E+04  0.16497453627E+04  0.00000000000E+00 0. -1.
   -9000010    2    1    2    0  501 -0.29525481847E+03  0.72281661788E+03 -0.72433444976E+03  0.15302543264E+04  0.10988078256E+04 0.  0.
    9000010    2    1    2  502    0  0.29525481847E+03 -0.72281661788E+03  0.26108928642E+03  0.13059912357E+04  0.10138077832E+04 0.  0.
        -13    1    4    4    0    0  0.49019457922E+03  0.27709116773E+02  0.10543647496E+02  0.49109031788E+03  0.10566000000E+00 0.  1.
          4    1    4    4  502    0 -0.19493976075E+03 -0.75052573465E+03  0.25054563893E+03  0.81490091783E+03  0.00000000000E+00 0.  1.
         13    1    3    3    0    0  0.35251402490E+03  0.35376973632E+03 -0.12652366618E+02  0.49957908046E+03  0.10566000000E+00 0. -1.
         -4    1    3    3    0  501 -0.64776884337E+03  0.36904688156E+03 -0.71168208314E+03  0.10306752460E+04  0.00000000000E+00 0. -1.
<mgrwt>
<rscale>  0 0.13133531E+04</rscale>
<asrwt>0</asrwt>
<pdfrwt beam="1">  1        4 0.18253849E+00 0.12796271E+04</pdfrwt>
<pdfrwt beam="2">  1       -4 0.25380698E+00 0.13479681E+04</pdfrwt>
<totfact> 0.14867312E-01</totfact>
</mgrwt>
</event>
<event>
 8    1  0.3025584E-006  0.1119082E+04  0.7818608E-02  0.8698884E-01
          4   -1    0    0  502    0  0.00000000000E+00  0.00000000000E+00  0.21182762694E+04  0.21182762694E+04  0.00000000000E+00 0.  1.
         -4   -1    0    0    0  501 -0.00000000000E+00 -0.00000000000E+00 -0.15896998684E+04  0.15896998684E+04  0.00000000000E+00 0. -1.
   -9000010    2    1    2    0  501 -0.26366516760E+03 -0.17758037439E+03 -0.12276366523E+04  0.16611549600E+04  0.10729817990E+04 0.  0.
    9000010    2    1    2  502    0  0.26366516760E+03  0.17758037439E+03  0.17562130533E+04  0.20468211779E+04  0.10020671313E+04 0.  0.
        -13    1    4    4    0    0 -0.20603650592E+03 -0.26836965039E+03  0.29651140862E+03  0.44988035924E+03  0.10566000000E+00 0.  1.
          4    1    4    4  502    0  0.46970167352E+03  0.44595002477E+03  0.14597016447E+04  0.15969408186E+04  0.00000000000E+00 0.  1.
         13    1    3    3    0    0 -0.54005244355E+03  0.20791311013E+03 -0.94758333336E+03  0.11103146797E+04  0.10566000000E+00 0. -1.
         -4    1    3    3    0  501  0.27638727595E+03 -0.38549348451E+03 -0.28005331899E+03  0.55084028029E+03  0.00000000000E+00 0. -1.
<mgrwt>
<rscale>  0 0.10846520E+04</rscale>
<asrwt>0</asrwt>
<pdfrwt beam="1">  1        4 0.32588865E+00 0.10512814E+04</pdfrwt>
<pdfrwt beam="2">  1       -4 0.24456921E+00 0.11190818E+04</pdfrwt>
<totfact> 0.67003300E-02</totfact>
</mgrwt>
</event>
<event>
 8    1  0.3025584E-006  0.1038284E+04  0.7818608E-02  0.8742937E-01
          4   -1    0    0  502    0  0.00000000000E+00  0.00000000000E+00  0.15646938654E+04  0.15646938654E+04  0.00000000000E+00 0.  1.
         -4   -1    0    0    0  501 -0.00000000000E+00 -0.00000000000E+00 -0.20780272914E+04  0.20780272914E+04  0.00000000000E+00 0. -1.
   -9000010    2    1    2    0  501 -0.80282636387E+02  0.30471896268E+03 -0.17482255759E+04  0.20293419135E+04  0.98114065744E+03 0.  0.
    9000010    2    1    2  502    0  0.80282636387E+02 -0.30471896268E+03  0.12348921499E+04  0.16133792434E+04  0.98931037249E+03 0.  0.
        -13    1    4    4    0    0 -0.24026017037E+03 -0.49051271073E+03  0.33634988753E+03  0.64145064257E+03  0.10566000000E+00 0.  1.
          4    1    4    4  502    0  0.32054280676E+03  0.18579374805E+03  0.89854226236E+03  0.97192860079E+03  0.00000000000E+00 0.  1.
         13    1    3    3    0    0 -0.12769550642E+03  0.35380467941E+03 -0.18603970543E+04  0.18980413864E+04  0.10566000000E+00 0. -1.
         -4    1    3    3    0  501  0.47412870035E+02 -0.49085716731E+02  0.11217147845E+03  0.13130052708E+03  0.00000000000E+00 0. -1.
<mgrwt>
<rscale>  0 0.10343861E+04</rscale>
<asrwt>0</asrwt>
<pdfrwt beam="1">  1        4 0.24072213E+00 0.10382841E+04</pdfrwt>
<pdfrwt beam="2">  1       -4 0.31969651E+00 0.10305028E+04</pdfrwt>
<totfact> 0.71538307E-02</totfact>
</mgrwt>
</event>
<event>
 8    1  0.3025584E-006  0.1139067E+04  0.7818608E-02  0.8668175E-01
          4   -1    0    0  502    0  0.00000000000E+00  0.00000000000E+00  0.19972668389E+04  0.19972668389E+04  0.00000000000E+00 0.  1.
         -4   -1    0    0    0  501 -0.00000000000E+00 -0.00000000000E+00 -0.19012991732E+04  0.19012991732E+04  0.00000000000E+00 0. -1.
   -9000010    2    1    2    0  501 -0.31209437477E+03 -0.40950432163E+03 -0.15462405212E+04  0.18999860516E+04  0.97672440258E+03 0.  0.
    9000010    2    1    2  502    0  0.31209437477E+03  0.40950432163E+03  0.16422081868E+04  0.19985799605E+04  0.10160597627E+04 0.  0.
        -13    1    4    4    0    0 -0.11755891924E+03  0.34238682299E+03  0.71779257441E+02  0.36905434426E+03  0.10566000000E+00 0.  1.
          4    1    4    4  502    0  0.42965329401E+03  0.67117498635E+02  0.15704289294E+04  0.16295256162E+04  0.00000000000E+00 0.  1.
         13    1    3    3    0    0 -0.58707897211E+03 -0.49666165821E+02 -0.55156692696E+03  0.80706538372E+03  0.10566000000E+00 0. -1.
         -4    1    3    3    0  501  0.27498459734E+03 -0.35983815581E+03 -0.99467359425E+03  0.10929206679E+04  0.00000000000E+00 0. -1.
<mgrwt>
<rscale>  0 0.11214589E+04</rscale>
<asrwt>0</asrwt>
<pdfrwt beam="1">  1        4 0.30727182E+00 0.11390672E+04</pdfrwt>
<pdfrwt beam="2">  1       -4 0.29250756E+00 0.11041228E+04</pdfrwt>
<totfact> 0.57319239E-02</totfact>
</mgrwt>
</event>
<event>
 8    1  0.3025584E-006  0.1330663E+04  0.7818608E-02  0.8583458E-01
         -4   -1    0    0    0  501 -0.00000000000E+00  0.00000000000E+00  0.11464392265E+04  0.11464392265E+04  0.00000000000E+00 0. -1.
          4   -1    0    0  502    0  0.00000000000E+00 -0.00000000000E+00 -0.24271800069E+04  0.24271800069E+04  0.00000000000E+00 0.  1.
   -9000010    2    1    2    0  501  0.54014772473E+03 -0.13945792982E+03  0.58612551832E+03  0.12810542279E+04  0.99315091137E+03 0.  0.
    9000010    2    1    2  502    0 -0.54014772473E+03  0.13945792982E+03 -0.18668662987E+04  0.22925650056E+04  0.12080796534E+04 0.  0.
        -13    1    4    4    0    0 -0.15837754253E+03 -0.52872218334E+03 -0.91440350780E+03  0.10680657187E+04  0.10566000000E+00 0.  1.
          4    1    4    4  502    0 -0.38177018220E+03  0.66818011316E+03 -0.95246279089E+03  0.12244992869E+04  0.00000000000E+00 0.  1.
         13    1    3    3    0    0 -0.66872752194E+02  0.31932130356E+02  0.64344920916E+03  0.64770249488E+03  0.10566000000E+00 0. -1.
         -4    1    3    3    0  501  0.60702047693E+03 -0.17139006018E+03 -0.57323690842E+02  0.63335173298E+03  0.00000000000E+00 0. -1.
<mgrwt>
<rscale>  0 0.12311633E+04</rscale>
<asrwt>0</asrwt>
<pdfrwt beam="2">  1        4 0.37341230E+00 0.13306632E+04</pdfrwt>
<pdfrwt beam="1">  1       -4 0.17637527E+00 0.11391035E+04</pdfrwt>
<totfact> 0.70156916E-02</totfact>
</mgrwt>
</event>
<event>
 8    1  0.3025584E-006  0.1172823E+04  0.7818608E-02  0.8637803E-01
          4   -1    0    0  502    0  0.00000000000E+00  0.00000000000E+00  0.13215717704E+04  0.13215717704E+04  0.00000000000E+00 0.  1.
         -4   -1    0    0    0  501 -0.00000000000E+00 -0.00000000000E+00 -0.11593634673E+04  0.11593634673E+04  0.00000000000E+00 0. -1.
   -9000010    2    1    2    0  501 -0.36312730148E+03 -0.47675850373E+03 -0.35405596969E+03  0.11995135613E+04  0.97689152213E+03 0.  0.
    9000010    2    1    2  502    0  0.36312730148E+03  0.47675850373E+03  0.51626427283E+03  0.12814216764E+04  0.10081431473E+04 0.  0.
        -13    1    4    4    0    0  0.34561125110E+03  0.26520526506E+03  0.80958134100E+03  0.91934918739E+03  0.10566000000E+00 0.  1.
          4    1    4    4  502    0  0.17516050384E+02  0.21155323868E+03 -0.29331706817E+03  0.36207248901E+03  0.00000000000E+00 0.  1.
         13    1    3    3    0    0  0.18007331873E+03  0.20521572789E+03 -0.61410927544E+02  0.27984139843E+03  0.10566000000E+00 0. -1.
         -4    1    3    3    0  501 -0.54320062021E+03 -0.68197423162E+03 -0.29264504215E+03  0.91967216283E+03  0.00000000000E+00 0. -1.
<mgrwt>
<rscale>  0 0.11593693E+04</rscale>
<asrwt>0</asrwt>
<pdfrwt beam="1">  1        4 0.20331873E+00 0.11728225E+04</pdfrwt>
<pdfrwt beam="2">  1       -4 0.17836361E+00 0.11460703E+04</pdfrwt>
<totfact> 0.20704136E-01</totfact>
</mgrwt>
</event>
<event>
 8    1  0.3025584E-006  0.1068873E+04  0.7818608E-02  0.8718198E-01
         -4   -1    0    0    0  501 -0.00000000000E+00  0.00000000000E+00  0.19433288027E+04  0.19433288027E+04  0.00000000000E+00 0. -1.
          4   -1    0    0  502    0  0.00000000000E+00 -0.00000000000E+00 -0.31150704552E+04  0.31150704552E+04  0.00000000000E+00 0.  1.
   -9000010    2    1    2    0  501 -0.32708494449E+03  0.10162143880E+03  0.16947660207E+04  0.20036768436E+04  0.10125105188E+04 0.  0.
    9000010    2    1    2  502    0  0.32708494449E+03 -0.10162143880E+03 -0.28665076732E+04  0.30547224143E+04  0.99857463918E+03 0.  0.
        -13    1    4    4    0    0  0.45520460825E+03  0.35763355717E+03 -0.15734708464E+04  0.16765808994E+04  0.10566000000E+00 0.  1.
          4    1    4    4  502    0 -0.12811966377E+03 -0.45925499597E+03 -0.12930368268E+04  0.13781415149E+04  0.00000000000E+00 0.  1.
         13    1    3    3    0    0 -0.15891976051E+03 -0.31258523970E+03  0.12624927149E+03  0.37269815142E+03  0.10566000000E+00 0. -1.
         -4    1    3    3    0  501 -0.16816518398E+03  0.41420667851E+03  0.15685167492E+04  0.16309786922E+04  0.00000000000E+00 0. -1.
<mgrwt>
<rscale>  0 0.10622565E+04</rscale>
<asrwt>0</asrwt>
<pdfrwt beam="2">  1        4 0.47924160E+00 0.10556812E+04</pdfrwt>
<pdfrwt beam="1">  1       -4 0.29897367E+00 0.10688728E+04</pdfrwt>
<totfact> 0.12050981E-02</totfact>
</mgrwt>
</event>
<event>
 8    1  0.3025584E-006  0.1127910E+04  0.7818608E-02  0.8665585E-01
         -4   -1    0    0    0  501 -0.00000000000E+00  0.00000000000E+00  0.29930186832E+04  0.29930186832E+04  0.00000000000E+00 0. -1.
          4   -1    0    0  502    0  0.00000000000E+00 -0.00000000000E+00 -0.55318489350E+03  0.55318489350E+03  0.00000000000E+00 0.  1.
   -9000010    2    1    2    0  501 -0.30449581211E+03  0.38987720566E+03  0.20787275764E+04  0.23618986732E+04  0.10063473904E+04 0.  0.
    9000010    2    1    2  502    0  0.30449581211E+03 -0.38987720566E+03  0.36110621323E+03  0.11843049035E+04  0.10136362623E+04 0.  0.
        -13    1    4    4    0    0  0.10415580157E+02 -0.14084664989E+02 -0.33767989484E+03  0.33813397440E+03  0.10566000000E+00 0.  1.
          4    1    4    4  502    0  0.29408023195E+03 -0.37579254067E+03  0.69878610807E+03  0.84617092911E+03  0.00000000000E+00 0.  1.
         13    1    3    3    0    0 -0.10798150231E+03 -0.27121642711E+03  0.18282240244E+03  0.34444505683E+03  0.10566000000E+00 0. -1.
         -4    1    3    3    0  501 -0.19651430980E+03  0.66109363277E+03  0.18959051740E+04  0.20174536163E+04  0.00000000000E+00 0. -1.
<mgrwt>
<rscale>  0 0.11246321E+04</rscale>
<asrwt>0</asrwt>
<pdfrwt beam="2">  1        4 0.85105370E-01 0.11279098E+04</pdfrwt>
<pdfrwt beam="1">  1       -4 0.46046441E+00 0.11213639E+04</pdfrwt>
<totfact> 0.10457615E-01</totfact>
</mgrwt>
</event>
<event>
 8    1  0.3025584E-006  0.1185303E+04  0.7818608E-02  0.8627398E-01
         -4   -1    0    0    0  501 -0.00000000000E+00  0.00000000000E+00  0.32540699140E+04  0.32540699140E+04  0.00000000000E+00 0. -1.
          4   -1    0    0  502    0  0.00000000000E+00 -0.00000000000E+00 -0.69047528177E+03  0.69047528177E+03  0.00000000000E+00 0.  1.
   -9000010    2    1    2    0  501 -0.40281411542E+03  0.49920757908E+03  0.25016596958E+04  0.27576249825E+04  0.96681274925E+03 0.  0.
    9000010    2    1    2  502    0  0.40281411542E+03 -0.49920757908E+03  0.61934936439E+02  0.11869202132E+04  0.99673278147E+03 0.  0.
        -13    1    4    4    0    0  0.84871443955E+02 -0.25460329710E+03  0.51564393083E+03  0.58130428818E+03  0.10566000000E+00 0.  1.
          4    1    4    4  502    0  0.31794267147E+03 -0.24460428198E+03 -0.45370899439E+03  0.60561592506E+03  0.00000000000E+00 0.  1.
         13    1    3    3    0    0 -0.30059784413E+03  0.77676202485E+03  0.15309105530E+04  0.17428153774E+04  0.10566000000E+00 0. -1.
         -4    1    3    3    0  501 -0.10221627129E+03 -0.27755444577E+03  0.97074914280E+03  0.10148096052E+04  0.00000000000E+00 0. -1.
<mgrwt>
<rscale>  0 0.11727128E+04</rscale>
<asrwt>0</asrwt>
<pdfrwt beam="2">  1        4 0.10622697E+00 0.11853032E+04</pdfrwt>
<pdfrwt beam="1">  1       -4 0.50062613E+00 0.11602561E+04</pdfrwt>
<totfact> 0.43802872E-02</totfact>
</mgrwt>
</event>
<event>
 8    1  0.3025584E-006  0.1710856E+04  0.7818608E-02  0.8299115E-01
          4   -1    0    0  502    0  0.00000000000E+00  0.00000000000E+00  0.19506356374E+04  0.19506356374E+04  0.00000000000E+00 0.  1.
         -4   -1    0    0    0  501 -0.00000000000E+00 -0.00000000000E+00 -0.38244092248E+04  0.38244092248E+04  0.00000000000E+00 0. -1.
   -9000010    2    1    2    0  501  0.44847877746E+03  0.13144701974E+04 -0.31912043075E+04  0.36208857253E+04  0.99903122579E+03 0.  0.
    9000010    2    1    2  502    0 -0.44847877746E+03 -0.13144701974E+04  0.13174307201E+04  0.21541591369E+04  0.98783235991E+03 0.  0.
        -13    1    4    4    0    0 -0.28100757478E+03 -0.14381728977E+04  0.99826589031E+03  0.17730880801E+04  0.10566000000E+00 0.  1.
          4    1    4    4  502    0 -0.16747120268E+03  0.12370270033E+03  0.31916482977E+03  0.38107105683E+03  0.00000000000E+00 0.  1.
         13    1    3    3    0    0  0.42938901695E+03  0.27946401369E+03 -0.18896134215E+04  0.19578339963E+04  0.10566000000E+00 0. -1.
         -4    1    3    3    0  501  0.19089760503E+02  0.10350061837E+04 -0.13015908860E+04  0.16630517291E+04  0.00000000000E+00 0. -1.
<mgrwt>
<rscale>  0 0.17075954E+04</rscale>
<asrwt>0</asrwt>
<pdfrwt beam="1">  1        4 0.30009779E+00 0.17043409E+04</pdfrwt>
<pdfrwt beam="2">  1       -4 0.58837064E+00 0.17108561E+04</pdfrwt>
<totfact> 0.31125137E-03</totfact>
</mgrwt>
</event>
<event>
 8    1  0.3025584E-006  0.2333732E+04  0.7818608E-02  0.8048847E-01
         -4   -1    0    0    0  501 -0.00000000000E+00  0.00000000000E+00  0.30580583468E+04  0.30580583468E+04  0.00000000000E+00 0. -1.
          4   -1    0    0  502    0  0.00000000000E+00 -0.00000000000E+00 -0.29738989116E+04  0.29738989116E+04  0.00000000000E+00 0.  1.
   -9000010    2    1    2    0  501  0.81527250690E+03  0.19401155715E+04  0.19671495915E+04  0.30332978623E+04  0.95000037620E+03 0.  0.
    9000010    2    1    2  502    0 -0.81527250690E+03 -0.19401155715E+04 -0.18829901563E+04  0.29986593961E+04  0.10087559437E+04 0.  0.
        -13    1    4    4    0    0 -0.43159393638E+03 -0.55261014988E+03 -0.10191212636E+03  0.70854597334E+03  0.10566000000E+00 0.  1.
          4    1    4    4  502    0 -0.38367857052E+03 -0.13875054216E+04 -0.17810780299E+04  0.22901134228E+04  0.00000000000E+00 0.  1.
         13    1    3    3    0    0  0.86361123367E+03  0.13350385704E+04  0.18041074110E+04  0.24047777255E+04  0.10566000000E+00 0. -1.
         -4    1    3    3    0  501 -0.48338726766E+02  0.60507700109E+03  0.16304218049E+03  0.62852013681E+03  0.00000000000E+00 0. -1.
<mgrwt>
<rscale>  0 0.23213046E+04</rscale>
<asrwt>0</asrwt>
<pdfrwt beam="2">  1        4 0.45752291E+00 0.23337323E+04</pdfrwt>
<pdfrwt beam="1">  1       -4 0.47047052E+00 0.23089431E+04</pdfrwt>
<totfact> 0.28889393E-03</totfact>
</mgrwt>
</event>
<event>
 8    1  0.3025584E-006  0.1069538E+04  0.7818608E-02  0.8720811E-01
         -4   -1    0    0    0  501 -0.00000000000E+00  0.00000000000E+00  0.40412862381E+04  0.40412862381E+04  0.00000000000E+00 0. -1.
          4   -1    0    0  502    0  0.00000000000E+00 -0.00000000000E+00 -0.79894508732E+03  0.79894508732E+03  0.00000000000E+00 0.  1.
   -9000010    2    1    2    0  501 -0.35260792826E+03 -0.99218670942E+02  0.35814079824E+04  0.37376990718E+04  0.10048554718E+04 0.  0.
    9000010    2    1    2  502    0  0.35260792826E+03  0.99218670942E+02 -0.33906683164E+03  0.11025322536E+04  0.98307393321E+03 0.  0.
        -13    1    4    4    0    0  0.50450271737E+02 -0.16196173497E+03  0.30249260962E+03  0.34681208680E+03  0.10566000000E+00 0.  1.
          4    1    4    4  502    0  0.30215765652E+03  0.26118040591E+03 -0.64155944126E+03  0.75572016679E+03  0.00000000000E+00 0.  1.
         13    1    3    3    0    0 -0.46232813800E+03 -0.46629525399E+03  0.18125840978E+04  0.19278588366E+04  0.10566000000E+00 0. -1.
         -4    1    3    3    0  501  0.10972020975E+03  0.36707658305E+03  0.17688238846E+04  0.18098402352E+04  0.00000000000E+00 0. -1.
<mgrwt>
<rscale>  0 0.10592697E+04</rscale>
<asrwt>0</asrwt>
<pdfrwt beam="2">  1        4 0.12291463E+00 0.10491001E+04</pdfrwt>
<pdfrwt beam="1">  1       -4 0.62173633E+00 0.10695379E+04</pdfrwt>
<totfact> 0.82232864E-03</totfact>
</mgrwt>
</event>
<event>
 8    1  0.3025584E-006  0.1185197E+04  0.7818608E-02  0.8665979E-01
          4   -1    0    0  502    0  0.00000000000E+00  0.00000000000E+00  0.14782960885E+04  0.14782960885E+04  0.00000000000E+00 0.  1.
         -4   -1    0    0    0  501 -0.00000000000E+00 -0.00000000000E+00 -0.12072404804E+04  0.12072404804E+04  0.00000000000E+00 0. -1.
   -9000010    2    1    2    0  501  0.51420814933E+03 -0.41043144610E+03 -0.58167611365E+03  0.13202417508E+04  0.98581295718E+03 0.  0.
    9000010    2    1    2  502    0 -0.51420814933E+03  0.41043144610E+03  0.85273172177E+03  0.13652948180E+04  0.83905575386E+03 0.  0.
        -13    1    4    4    0    0 -0.46478962607E+02  0.45671132520E+03  0.75747208635E+03  0.88572540965E+03  0.10566000000E+00 0.  1.
          4    1    4    4  502    0 -0.46772918673E+03 -0.46279879107E+02  0.95259635418E+02  0.47956940839E+03  0.00000000000E+00 0.  1.
         13    1    3    3    0    0  0.38969445794E+03 -0.62682153389E+03 -0.58314516705E+02  0.74038341413E+03  0.10566000000E+00 0. -1.
         -4    1    3    3    0  501  0.12451369140E+03  0.21639008779E+03 -0.52336159694E+03  0.57985833666E+03  0.00000000000E+00 0. -1.
<mgrwt>
<rscale>  0 0.11241486E+04</rscale>
<asrwt>0</asrwt>
<pdfrwt beam="1">  1        4 0.22743017E+00 0.10662451E+04</pdfrwt>
<pdfrwt beam="2">  1       -4 0.18572930E+00 0.11851967E+04</pdfrwt>
<totfact> 0.16988779E-01</totfact>
</mgrwt>
</event>
<event>
 8    1  0.3025584E-006  0.1361666E+04  0.7818608E-02  0.8494518E-01
          4   -1    0    0  502    0  0.00000000000E+00  0.00000000000E+00  0.17509219912E+04  0.17509219912E+04  0.00000000000E+00 0.  1.
         -4   -1    0    0    0  501 -0.00000000000E+00 -0.00000000000E+00 -0.14247251638E+04  0.14247251638E+04  0.00000000000E+00 0. -1.
   -9000010    2    1    2    0  501 -0.87077716767E+03 -0.27852672191E+03 -0.64329079970E+03  0.15041084852E+04  0.10063246353E+04 0.  0.
    9000010    2    1    2  502    0  0.87077716767E+03  0.27852672191E+03  0.96948762708E+03  0.16715386699E+04  0.10091111214E+04 0.  0.
        -13    1    4    4    0    0  0.13910940410E+03 -0.36194272905E+03  0.31254254802E+03  0.49803295162E+03  0.10566000000E+00 0.  1.
          4    1    4    4  502    0  0.73166776357E+03  0.64046945096E+03  0.65694507906E+03  0.11735057182E+04  0.00000000000E+00 0.  1.
         13    1    3    3    0    0 -0.24218104572E+02  0.30133675407E+03 -0.28990585257E+03  0.41885053475E+03  0.10566000000E+00 0. -1.
         -4    1    3    3    0  501 -0.84655906309E+03 -0.57986347599E+03 -0.35338494714E+03  0.10852579504E+04  0.00000000000E+00 0. -1.
<mgrwt>
<rscale>  0 0.13606341E+04</rscale>
<asrwt>0</asrwt>
<pdfrwt beam="1">  1        4 0.26937261E+00 0.13616664E+04</pdfrwt>
<pdfrwt beam="2">  1       -4 0.21918849E+00 0.13596026E+04</pdfrwt>
<totfact> 0.10733296E-01</totfact>
</mgrwt>
</event>
<event>
 8    1  0.3025584E-006  0.1154970E+04  0.7818608E-02  0.8641812E-01
         -4   -1    0    0    0  501 -0.00000000000E+00  0.00000000000E+00  0.13371545541E+04  0.13371545541E+04  0.00000000000E+00 0. -1.
          4   -1    0    0  502    0  0.00000000000E+00 -0.00000000000E+00 -0.22121174108E+04  0.22121174108E+04  0.00000000000E+00 0.  1.
   -9000010    2    1    2    0  501  0.19632801246E+03 -0.55340521654E+03  0.87798723850E+03  0.14507989426E+04  0.99456219455E+03 0.  0.
    9000010    2    1    2  502    0 -0.19632801246E+03  0.55340521654E+03 -0.17529500952E+04  0.20984730224E+04  0.99295164391E+03 0.  0.
        -13    1    4    4    0    0 -0.46274458647E+03  0.55595672229E+03 -0.67945936634E+03  0.99241396153E+03  0.10566000000E+00 0.  1.
          4    1    4    4  502    0  0.26641657401E+03 -0.25515057531E+01 -0.10734907289E+04  0.11060590608E+04  0.00000000000E+00 0.  1.
         13    1    3    3    0    0 -0.25400757278E+03 -0.63945658885E+03  0.43988741001E+03  0.81665508062E+03  0.10566000000E+00 0. -1.
         -4    1    3    3    0  501  0.45033558524E+03  0.86051372311E+02  0.43809982849E+03  0.63414386202E+03  0.00000000000E+00 0. -1.
<mgrwt>
<rscale>  0 0.11542766E+04</rscale>
<asrwt>0</asrwt>
<pdfrwt beam="2">  1        4 0.34032576E+00 0.11535835E+04</pdfrwt>
<pdfrwt beam="1">  1       -4 0.20571608E+00 0.11549701E+04</pdfrwt>
<totfact> 0.75510713E-02</totfact>
</mgrwt>
</event>
<event>
 8    1  0.3025584E-006  0.1245625E+04  0.7818608E-02  0.8589228E-01
         -4   -1    0    0    0  501 -0.00000000000E+00  0.00000000000E+00  0.89816413643E+03  0.89816413643E+03  0.00000000000E+00 0. -1.
          4   -1    0    0  502    0  0.00000000000E+00 -0.00000000000E+00 -0.25859209086E+04  0.25859209086E+04  0.00000000000E+00 0.  1.
   -9000010    2    1    2    0  501 -0.33772656735E+03  0.62975819915E+03  0.20450845164E+03  0.12186382633E+04  0.96571263136E+03 0.  0.
    9000010    2    1    2  502    0  0.33772656735E+03 -0.62975819915E+03 -0.18922652238E+04  0.22654467817E+04  0.10202582123E+04 0.  0.
        -13    1    4    4    0    0  0.55436647620E+02  0.27155447657E+03 -0.63580073789E+03  0.69358319264E+03  0.10566000000E+00 0.  1.
          4    1    4    4  502    0  0.28228991973E+03 -0.90131267572E+03 -0.12564644859E+04  0.15718635890E+04  0.00000000000E+00 0.  1.
         13    1    3    3    0    0 -0.71069455385E+02  0.85103733894E+03  0.12471863349E+03  0.86305861241E+03  0.10566000000E+00 0. -1.
         -4    1    3    3    0  501 -0.26665711197E+03 -0.22127913979E+03  0.79789818156E+02  0.35557965092E+03  0.00000000000E+00 0. -1.
<mgrwt>
<rscale>  0 0.12232901E+04</rscale>
<asrwt>0</asrwt>
<pdfrwt beam="2">  1        4 0.39783399E+00 0.12456249E+04</pdfrwt>
<pdfrwt beam="1">  1       -4 0.13817910E+00 0.12013557E+04</pdfrwt>
<totfact> 0.80915114E-02</totfact>
</mgrwt>
</event>
<event>
 8    1  0.3025584E-006  0.1047252E+04  0.7818608E-02  0.8731885E-01
          4   -1    0    0  502    0  0.00000000000E+00  0.00000000000E+00  0.26847160456E+04  0.26847160456E+04  0.00000000000E+00 0.  1.
         -4   -1    0    0    0  501 -0.00000000000E+00 -0.00000000000E+00 -0.15092019659E+04  0.15092019659E+04  0.00000000000E+00 0. -1.
   -9000010    2    1    2    0  501 -0.19577224139E+03  0.22068822327E+03 -0.12033040465E+04  0.15952047122E+04  0.10048419693E+04 0.  0.
    9000010    2    1    2  502    0  0.19577224139E+03 -0.22068822327E+03  0.23788181261E+04  0.25987132993E+04  0.10037455218E+04 0.  0.
        -13    1    4    4    0    0 -0.50635974950E+01  0.14584163125E+03 -0.34104340833E+02  0.14986173178E+03  0.10566000000E+00 0.  1.
          4    1    4    4  502    0  0.20083583889E+03 -0.36652985451E+03  0.24129224669E+04  0.24488515675E+04  0.00000000000E+00 0.  1.
         13    1    3    3    0    0  0.39131407326E+03 -0.60934118242E+02 -0.44531496640E+03  0.59594051814E+03  0.10566000000E+00 0. -1.
         -4    1    3    3    0  501 -0.58708631465E+03  0.28162234151E+03 -0.75798908005E+03  0.99926419407E+03  0.00000000000E+00 0. -1.
<mgrwt>
<rscale>  0 0.10467262E+04</rscale>
<asrwt>0</asrwt>
<pdfrwt beam="1">  1        4 0.41303324E+00 0.10462003E+04</pdfrwt>
<pdfrwt beam="2">  1       -4 0.23218492E+00 0.10472523E+04</pdfrwt>
<totfact> 0.35127024E-02</totfact>
</mgrwt>
</event>
<event>
 8    1  0.3025584E-006  0.9910465E+03  0.7818608E-02  0.8787477E-01
          4   -1    0    0  502    0  0.00000000000E+00  0.00000000000E+00  0.16514480521E+04  0.16514480521E+04  0.00000000000E+00 0.  1.
         -4   -1    0    0    0  501 -0.00000000000E+00 -0.00000000000E+00 -0.63133392672E+03  0.63133392672E+03  0.00000000000E+00 0. -1.
   -9000010    2    1    2    0  501 -0.35956579493E+02  0.19457413618E+02  0.21737082599E+03  0.10146049927E+04  0.99020288255E+03 0.  0.
    9000010    2    1    2  502    0  0.35956579493E+02 -0.19457413618E+02  0.80274329940E+03  0.12681769862E+04  0.98092028062E+03 0.  0.
        -13    1    4    4    0    0 -0.36058372470E+03  0.29999137025E+03  0.43851823601E+03  0.64211657760E+03  0.10566000000E+00 0.  1.
          4    1    4    4  502    0  0.39654030420E+03 -0.31944878387E+03  0.36422506339E+03  0.62606040856E+03  0.00000000000E+00 0.  1.
         13    1    3    3    0    0  0.39938978014E+03  0.27315658873E+03  0.14788838926E+03  0.50596215796E+03  0.10566000000E+00 0. -1.
         -4    1    3    3    0  501 -0.43534635963E+03 -0.25369917511E+03  0.69482436737E+02  0.50864283472E+03  0.00000000000E+00 0. -1.
<mgrwt>
<rscale>  0 0.98639831E+03</rscale>
<asrwt>0</asrwt>
<pdfrwt beam="1">  1        4 0.25406893E+00 0.98177190E+03</pdfrwt>
<pdfrwt beam="2">  1       -4 0.97128297E-01 0.99104653E+03</pdfrwt>
<totfact> 0.41375104E-01</totfact>
</mgrwt>
</event>
<event>
 8    1  0.3025584E-006  0.1254763E+04  0.7818608E-02  0.8570292E-01
          4   -1    0    0  502    0  0.00000000000E+00  0.00000000000E+00  0.31088376231E+04  0.31088376231E+04  0.00000000000E+00 0.  1.
         -4   -1    0    0    0  501 -0.00000000000E+00 -0.00000000000E+00 -0.11177752191E+04  0.11177752191E+04  0.00000000000E+00 0. -1.
   -9000010    2    1    2    0  501  0.65707499404E+03  0.33644006370E+03 -0.57095542451E+03  0.13785573555E+04  0.10146382711E+04 0.  0.
    9000010    2    1    2  502    0 -0.65707499404E+03 -0.33644006370E+03  0.25620178285E+04  0.28480554867E+04  0.10012718102E+04 0.  0.
        -13    1    4    4    0    0 -0.53192691074E+03 -0.57517193526E+03  0.10384391680E+04  0.13008170164E+04  0.10566000000E+00 0.  1.
          4    1    4    4  502    0 -0.12514808330E+03  0.23873187156E+03  0.15235786605E+04  0.15472384703E+04  0.00000000000E+00 0.  1.
         13    1    3    3    0    0  0.29221463355E+02 -0.28677491195E+03 -0.37409710257E+03  0.47227364669E+03  0.10566000000E+00 0. -1.
         -4    1    3    3    0  501  0.62785353068E+03  0.62321497565E+03 -0.19685832194E+03  0.90628370877E+03  0.00000000000E+00 0. -1.
<mgrwt>
<rscale>  0 0.12493596E+04</rscale>
<asrwt>0</asrwt>
<pdfrwt beam="1">  1        4 0.47828271E+00 0.12439794E+04</pdfrwt>
<pdfrwt beam="2">  1       -4 0.17196542E+00 0.12547630E+04</pdfrwt>
<totfact> 0.25795621E-02</totfact>
</mgrwt>
</event>
<event>
 8    1  0.3025584E-006  0.1403567E+04  0.7818608E-02  0.8471400E-01
          4   -1    0    0  502    0  0.00000000000E+00  0.00000000000E+00  0.24239877766E+04  0.24239877766E+04  0.00000000000E+00 0.  1.
         -4   -1    0    0    0  501 -0.00000000000E+00 -0.00000000000E+00 -0.10722439273E+04  0.10722439273E+04  0.00000000000E+00 0. -1.
   -9000010    2    1    2    0  501 -0.58347526504E+03 -0.76348885894E+03 -0.19914427752E+03  0.14045211288E+04  0.10048196532E+04 0.  0.
    9000010    2    1    2  502    0  0.58347526504E+03  0.76348885894E+03  0.15508881269E+04  0.20917105751E+04  0.10230545075E+04 0.  0.
        -13    1    4    4    0    0 -0.46607736557E+02  0.74011773931E+03  0.10549551833E+04  0.12895258815E+04  0.10566000000E+00 0.  1.
          4    1    4    4  502    0  0.63008300159E+03  0.23371119628E+02  0.49593294351E+03  0.80218469356E+03  0.00000000000E+00 0.  1.
         13    1    3    3    0    0 -0.78277277594E+03 -0.63301908361E+03 -0.40943125517E+03  0.10867752035E+04  0.10566000000E+00 0. -1.
         -4    1    3    3    0  501  0.19929751090E+03 -0.13046977533E+03  0.21028697765E+03  0.31774592538E+03  0.00000000000E+00 0. -1.
<mgrwt>
<rscale>  0 0.13969333E+04</rscale>
<asrwt>0</asrwt>
<pdfrwt beam="1">  1        4 0.37292120E+00 0.14035666E+04</pdfrwt>
<pdfrwt beam="2">  1       -4 0.16496060E+00 0.13903313E+04</pdfrwt>
<totfact> 0.76780583E-02</totfact>
</mgrwt>
</event>
<event>
 8    1  0.3025584E-006  0.1347729E+04  0.7818608E-02  0.8503640E-01
         -4   -1    0    0    0  501 -0.00000000000E+00  0.00000000000E+00  0.26134156474E+04  0.26134156474E+04  0.00000000000E+00 0. -1.
          4   -1    0    0  502    0  0.00000000000E+00 -0.00000000000E+00 -0.12277799976E+04  0.12277799976E+04  0.00000000000E+00 0.  1.
   -9000010    2    1    2    0  501 -0.82869681417E+03  0.31150319024E+03  0.19596411121E+04  0.23783538496E+04  0.10161698176E+04 0.  0.
    9000010    2    1    2  502    0  0.82869681417E+03 -0.31150319024E+03 -0.57400546226E+03  0.14628417954E+04  0.10132379781E+04 0.  0.
        -13    1    4    4    0    0  0.30955449976E+03  0.32809218676E+03 -0.43646819096E+03  0.62767265690E+03  0.10566000000E+00 0.  1.
          4    1    4    4  502    0  0.51914231441E+03 -0.63959537700E+03 -0.13753727130E+03  0.83516913849E+03  0.00000000000E+00 0.  1.
         13    1    3    3    0    0  0.18055030449E+03 -0.29335725719E+01  0.75214928172E+03  0.77352153910E+03  0.10566000000E+00 0. -1.
         -4    1    3    3    0  501 -0.10092471187E+04  0.31443676282E+03  0.12074918304E+04  0.16048323105E+04  0.00000000000E+00 0. -1.
<mgrwt>
<rscale>  0 0.13466241E+04</rscale>
<asrwt>0</asrwt>
<pdfrwt beam="2">  1        4 0.18888923E+00 0.13455199E+04</pdfrwt>
<pdfrwt beam="1">  1       -4 0.40206394E+00 0.13477291E+04</pdfrwt>
<totfact> 0.49278871E-02</totfact>
</mgrwt>
</event>
<event>
 8    1  0.3025584E-006  0.1086498E+04  0.7818608E-02  0.8714386E-01
         -4   -1    0    0    0  501 -0.00000000000E+00  0.00000000000E+00  0.22822585332E+04  0.22822585332E+04  0.00000000000E+00 0. -1.
          4   -1    0    0  502    0  0.00000000000E+00 -0.00000000000E+00 -0.89638472119E+03  0.89638472119E+03  0.00000000000E+00 0.  1.
   -9000010    2    1    2    0  501  0.81302530840E+02 -0.44395499991E+03  0.17443710281E+04  0.20345282564E+04  0.94486443411E+03 0.  0.
    9000010    2    1    2  502    0 -0.81302530840E+02  0.44395499991E+03 -0.35849721610E+03  0.11441149980E+04  0.98831813263E+03 0.  0.
        -13    1    4    4    0    0 -0.32542591525E+03  0.18363272650E+03  0.24227863720E+03  0.44533353093E+03  0.10566000000E+00 0.  1.
          4    1    4    4  502    0  0.24412338441E+03  0.26032227341E+03 -0.60077585330E+03  0.69878146709E+03  0.00000000000E+00 0.  1.
         13    1    3    3    0    0 -0.17077142726E+03 -0.51718951370E+03  0.16774190150E+04  0.17636276355E+04  0.10566000000E+00 0. -1.
         -4    1    3    3    0  501  0.25207395810E+03  0.73234513793E+02  0.66952013109E+02  0.27090062093E+03  0.00000000000E+00 0. -1.
<mgrwt>
<rscale>  0 0.10666311E+04</rscale>
<asrwt>0</asrwt>
<pdfrwt beam="2">  1        4 0.13790534E+00 0.10864984E+04</pdfrwt>
<pdfrwt beam="1">  1       -4 0.35111670E+00 0.10471270E+04</pdfrwt>
<totfact> 0.12302875E-01</totfact>
</mgrwt>
</event>
<event>
 8    1  0.3025584E-006  0.1495107E+04  0.7818608E-02  0.8416320E-01
         -4   -1    0    0    0  501 -0.00000000000E+00  0.00000000000E+00  0.23900722434E+04  0.23900722434E+04  0.00000000000E+00 0. -1.
          4   -1    0    0  502    0  0.00000000000E+00 -0.00000000000E+00 -0.18051229191E+04  0.18051229191E+04  0.00000000000E+00 0.  1.
   -9000010    2    1    2    0  501 -0.50850953126E+03  0.98894168551E+03  0.17564468980E+04  0.23066102921E+04  0.99937867357E+03 0.  0.
    9000010    2    1    2  502    0  0.50850953126E+03 -0.98894168551E+03 -0.11714975737E+04  0.18885848704E+04  0.97865144307E+03 0.  0.
        -13    1    4    4    0    0  0.54970996348E+03 -0.15032855596E+03 -0.76985613470E+03  0.95784038231E+03  0.10566000000E+00 0.  1.
          4    1    4    4  502    0 -0.41200432218E+02 -0.83861312956E+03 -0.40164143896E+03  0.93074448812E+03  0.00000000000E+00 0.  1.
         13    1    3    3    0    0  0.12306155322E+03  0.48826511226E+03  0.12677033621E+04  0.13640450107E+04  0.10566000000E+00 0. -1.
         -4    1    3    3    0  501 -0.63157108449E+03  0.50067657325E+03  0.48874353591E+03  0.94256528138E+03  0.00000000000E+00 0. -1.
<mgrwt>
<rscale>  0 0.14882039E+04</rscale>
<asrwt>0</asrwt>
<pdfrwt beam="2">  1        4 0.27771122E+00 0.14813326E+04</pdfrwt>
<pdfrwt beam="1">  1       -4 0.36770342E+00 0.14951071E+04</pdfrwt>
<totfact> 0.39001058E-02</totfact>
</mgrwt>
</event>
<event>
 8    1  0.3025584E-006  0.2030839E+04  0.7818608E-02  0.8156496E-01
         -4   -1    0    0    0  501 -0.00000000000E+00  0.00000000000E+00  0.26681979548E+04  0.26681979548E+04  0.00000000000E+00 0. -1.
          4   -1    0    0  502    0  0.00000000000E+00 -0.00000000000E+00 -0.24032090276E+04  0.24032090276E+04  0.00000000000E+00 0.  1.
   -9000010    2    1    2    0  501 -0.68316622365E+03  0.16249517148E+04  0.16489279287E+04  0.26138487178E+04  0.10030242474E+04 0.  0.
    9000010    2    1    2  502    0  0.68316622365E+03 -0.16249517148E+04 -0.13839390015E+04  0.24575582646E+04  0.10085243179E+04 0.  0.
        -13    1    4    4    0    0  0.47479735836E+03 -0.11334761714E+04 -0.14708972114E+04  0.19167001279E+04  0.10566000000E+00 0.  1.
          4    1    4    4  502    0  0.20836886529E+03 -0.49147554339E+03  0.86958209950E+02  0.54085813672E+03  0.00000000000E+00 0.  1.
         13    1    3    3    0    0 -0.50210351737E+02 -0.12727988950E+03  0.24657891695E+03  0.28199720414E+03  0.10566000000E+00 0. -1.
         -4    1    3    3    0  501 -0.63295587191E+03  0.17522316043E+04  0.14023490118E+04  0.23318515136E+04  0.00000000000E+00 0. -1.
<mgrwt>
<rscale>  0 0.20294753E+04</rscale>
<asrwt>0</asrwt>
<pdfrwt beam="2">  1        4 0.36972447E+00 0.20308386E+04</pdfrwt>
<pdfrwt beam="1">  1       -4 0.41049199E+00 0.20281129E+04</pdfrwt>
<totfact> 0.13179953E-02</totfact>
</mgrwt>
</event>
<event>
 8    1  0.3025584E-006  0.1096442E+04  0.7818608E-02  0.8698081E-01
         -4   -1    0    0    0  501 -0.00000000000E+00  0.00000000000E+00  0.19247203137E+04  0.19247203137E+04  0.00000000000E+00 0. -1.
          4   -1    0    0  502    0  0.00000000000E+00 -0.00000000000E+00 -0.16931462976E+04  0.16931462976E+04  0.00000000000E+00 0.  1.
   -9000010    2    1    2    0  501 -0.36889998998E+03  0.79251551348E+02  0.15605978181E+04  0.18949360601E+04  0.10064537302E+04 0.  0.
    9000010    2    1    2  502    0  0.36889998998E+03 -0.79251551348E+02 -0.13290238020E+04  0.17229305512E+04  0.10294743353E+04 0.  0.
        -13    1    4    4    0    0  0.28179118809E+03 -0.53004355666E+03 -0.52706837912E+03  0.79884512458E+03  0.10566000000E+00 0.  1.
          4    1    4    4  502    0  0.87108801884E+02  0.45079200531E+03 -0.80195542288E+03  0.92408542662E+03  0.00000000000E+00 0.  1.
         13    1    3    3    0    0 -0.62181363543E+03  0.24728927358E+03  0.13993638254E+04  0.15511361349E+04  0.10566000000E+00 0. -1.
         -4    1    3    3    0  501  0.25291364545E+03 -0.16803772223E+03  0.16123399270E+03  0.34379992518E+03  0.00000000000E+00 0. -1.
<mgrwt>
<rscale>  0 0.10855958E+04</rscale>
<asrwt>0</asrwt>
<pdfrwt beam="2">  1        4 0.26048404E+00 0.10964422E+04</pdfrwt>
<pdfrwt beam="1">  1       -4 0.29611082E+00 0.10748568E+04</pdfrwt>
<totfact> 0.74099791E-02</totfact>
</mgrwt>
</event>
<event>
 8    1  0.3025584E-006  0.1213292E+04  0.7818608E-02  0.8606619E-01
          4   -1    0    0  502    0  0.00000000000E+00  0.00000000000E+00  0.24824830452E+04  0.24824830452E+04  0.00000000000E+00 0.  1.
         -4   -1    0    0    0  501 -0.00000000000E+00 -0.00000000000E+00 -0.16616644452E+04  0.16616644452E+04  0.00000000000E+00 0. -1.
   -9000010    2    1    2    0  501  0.32672765186E+03 -0.54146680333E+03 -0.12628763327E+04  0.17329520991E+04  0.10041559085E+04 0.  0.
    9000010    2    1    2  502    0 -0.32672765186E+03  0.54146680333E+03  0.20836949327E+04  0.24111953912E+04  0.10354426032E+04 0.  0.
        -13    1    4    4    0    0 -0.68497912120E+03  0.43994448867E+03  0.16476471281E+04  0.18377944987E+04  0.10566000000E+00 0.  1.
          4    1    4    4  502    0  0.35825146934E+03  0.10152231467E+03  0.43604780461E+03  0.57340089254E+03  0.00000000000E+00 0.  1.
         13    1    3    3    0    0 -0.12112513680E+02  0.14234941279E+03  0.97616906261E+02  0.17302930348E+03  0.10566000000E+00 0. -1.
         -4    1    3    3    0  501  0.33884016554E+03 -0.68381621612E+03 -0.13604932389E+04  0.15599227956E+04  0.00000000000E+00 0. -1.
<mgrwt>
<rscale>  0 0.11999246E+04</rscale>
<asrwt>0</asrwt>
<pdfrwt beam="1">  1        4 0.38192047E+00 0.12132925E+04</pdfrwt>
<pdfrwt beam="2">  1       -4 0.25564068E+00 0.11867040E+04</pdfrwt>
<totfact> 0.40159152E-02</totfact>
</mgrwt>
</event>
<event>
 8    1  0.3025584E-006  0.1633380E+04  0.7818608E-02  0.8346455E-01
          4   -1    0    0  502    0  0.00000000000E+00  0.00000000000E+00  0.14266423802E+04  0.14266423802E+04  0.00000000000E+00 0.  1.
         -4   -1    0    0    0  501 -0.00000000000E+00 -0.00000000000E+00 -0.19032970722E+04  0.19032970722E+04  0.00000000000E+00 0. -1.
   -9000010    2    1    2    0  501 -0.12987162319E+04 -0.12115629204E+02 -0.57323999083E+03  0.17310502980E+04  0.99051522339E+03 0.  0.
    9000010    2    1    2  502    0  0.12987162319E+04  0.12115629204E+02  0.96585298895E+02  0.15988891544E+04  0.92752744903E+03 0.  0.
        -13    1    4    4    0    0 -0.66608963194E+02 -0.14147548643E+03 -0.13376080145E+03  0.20577665175E+03  0.10566000000E+00 0.  1.
          4    1    4    4  502    0  0.13653251951E+04  0.15359111563E+03  0.23034610035E+03  0.13931125026E+04  0.00000000000E+00 0.  1.
         13    1    3    3    0    0 -0.10372823167E+04 -0.39265728937E+03 -0.17803720863E+03  0.11233127838E+04  0.10566000000E+00 0. -1.
         -4    1    3    3    0  501 -0.26143391519E+03  0.38054166017E+03 -0.39520278220E+03  0.60773751422E+03  0.00000000000E+00 0. -1.
<mgrwt>
<rscale>  0 0.16145664E+04</rscale>
<asrwt>0</asrwt>
<pdfrwt beam="1">  1        4 0.21948344E+00 0.15959692E+04</pdfrwt>
<pdfrwt beam="2">  1       -4 0.29281493E+00 0.16333803E+04</pdfrwt>
<totfact> 0.91658464E-02</totfact>
</mgrwt>
</event>
<event>
 8    1  0.3025584E-006  0.1246029E+04  0.7818608E-02  0.8575057E-01
         -4   -1    0    0    0  501 -0.00000000000E+00  0.00000000000E+00  0.90811783626E+03  0.90811783626E+03  0.00000000000E+00 0. -1.
          4   -1    0    0  502    0  0.00000000000E+00 -0.00000000000E+00 -0.25917213327E+04  0.25917213327E+04  0.00000000000E+00 0.  1.
   -9000010    2    1    2    0  501 -0.60215273080E+02  0.73410438071E+03  0.18572530229E+03  0.12532910588E+04  0.99684977269E+03 0.  0.
    9000010    2    1    2  502    0  0.60215273080E+02 -0.73410438071E+03 -0.18693287988E+04  0.22465481102E+04  0.10050139962E+04 0.  0.
        -13    1    4    4    0    0  0.22503673483E+02  0.66467140791E+02 -0.12008546605E+04  0.12029032476E+04  0.10566000000E+00 0.  1.
          4    1    4    4  502    0  0.37711599597E+02 -0.80057152150E+03 -0.66847413823E+03  0.10436448626E+04  0.00000000000E+00 0.  1.
         13    1    3    3    0    0  0.24252424715E+03 -0.95371602253E+02  0.25880161293E+03  0.36727651571E+03  0.10566000000E+00 0. -1.
         -4    1    3    3    0  501 -0.30273952023E+03  0.82947598296E+03 -0.73076310637E+02  0.88601454310E+03  0.00000000000E+00 0. -1.
<mgrwt>
<rscale>  0 0.12427368E+04</rscale>
<asrwt>0</asrwt>
<pdfrwt beam="2">  1        4 0.39872635E+00 0.12460290E+04</pdfrwt>
<pdfrwt beam="1">  1       -4 0.13971044E+00 0.12394533E+04</pdfrwt>
<totfact> 0.78914642E-02</totfact>
</mgrwt>
</event>
<event>
 8    1  0.3025584E-006  0.1157600E+04  0.7818608E-02  0.8641469E-01
         -4   -1    0    0    0  501 -0.00000000000E+00  0.00000000000E+00  0.21998795044E+04  0.21998795044E+04  0.00000000000E+00 0. -1.
          4   -1    0    0  502    0  0.00000000000E+00 -0.00000000000E+00 -0.25490829759E+04  0.25490829759E+04  0.00000000000E+00 0.  1.
   -9000010    2    1    2    0  501 -0.57314160482E+03  0.11172857802E+03  0.18985529280E+04  0.22206337042E+04  0.99284251174E+03 0.  0.
    9000010    2    1    2  502    0  0.57314160482E+03 -0.11172857802E+03 -0.22477563995E+04  0.25283287761E+04  0.99953138737E+03 0.  0.
        -13    1    4    4    0    0  0.10307522742E+03  0.30325284801E+03 -0.17960356676E+03  0.36721144411E+03  0.10566000000E+00 0.  1.
          4    1    4    4  502    0  0.47006637740E+03 -0.41498142603E+03 -0.20681528327E+04  0.21611173320E+04  0.00000000000E+00 0.  1.
         13    1    3    3    0    0  0.23251876126E+03 -0.13224839247E+03  0.75260849735E+03  0.79873285465E+03  0.10566000000E+00 0. -1.
         -4    1    3    3    0  501 -0.80566036607E+03  0.24397697049E+03  0.11459444307E+04  0.14219008495E+04  0.00000000000E+00 0. -1.
<mgrwt>
<rscale>  0 0.11547110E+04</rscale>
<asrwt>0</asrwt>
<pdfrwt beam="2">  1        4 0.39216661E+00 0.11575999E+04</pdfrwt>
<pdfrwt beam="1">  1       -4 0.33844300E+00 0.11518293E+04</pdfrwt>
<totfact> 0.22264549E-02</totfact>
</mgrwt>
</event>
<event>
 8    1  0.3025584E-006  0.1242655E+04  0.7818608E-02  0.8590414E-01
          4   -1    0    0  502    0  0.00000000000E+00  0.00000000000E+00  0.63595406844E+03  0.63595406844E+03  0.00000000000E+00 0.  1.
         -4   -1    0    0    0  501 -0.00000000000E+00 -0.00000000000E+00 -0.23925942729E+04  0.23925942729E+04  0.00000000000E+00 0. -1.
   -9000010    2    1    2    0  501  0.33426231719E+03 -0.60366394428E+03 -0.10714035661E+04  0.16094848335E+04  0.98305359641E+03 0.  0.
    9000010    2    1    2  502    0 -0.33426231719E+03  0.60366394428E+03 -0.68523663832E+03  0.14190635078E+04  0.10334653039E+04 0.  0.
        -13    1    4    4    0    0  0.30018234971E+03 -0.48221153502E+02 -0.46534533001E+02  0.30757144966E+03  0.10566000000E+00 0.  1.
          4    1    4    4  502    0 -0.63444466689E+03  0.65188509778E+03 -0.63870210532E+03  0.11114920582E+04  0.00000000000E+00 0.  1.
         13    1    3    3    0    0  0.60515579420E+03 -0.14746831428E+03 -0.35152779519E+03  0.71521482153E+03  0.10566000000E+00 0. -1.
         -4    1    3    3    0  501 -0.27089347702E+03 -0.45619563000E+03 -0.71987577093E+03  0.89427001196E+03  0.00000000000E+00 0. -1.
<mgrwt>
<rscale>  0 0.12216786E+04</rscale>
<asrwt>0</asrwt>
<pdfrwt beam="1">  1        4 0.97839087E-01 0.12426552E+04</pdfrwt>
<pdfrwt beam="2">  1       -4 0.36809143E+00 0.12010561E+04</pdfrwt>
<totfact> 0.19183791E-01</totfact>
</mgrwt>
</event>
<event>
 8    1  0.3025584E-006  0.1343844E+04  0.7818608E-02  0.8507940E-01
          4   -1    0    0  502    0  0.00000000000E+00  0.00000000000E+00  0.15559422837E+04  0.15559422837E+04  0.00000000000E+00 0.  1.
         -4   -1    0    0    0  501 -0.00000000000E+00 -0.00000000000E+00 -0.14024834871E+04  0.14024834871E+04  0.00000000000E+00 0. -1.
   -9000010    2    1    2    0  501  0.42606109244E+03 -0.77195510227E+03 -0.54586093242E+03  0.14435115998E+04  0.10041508088E+04 0.  0.
    9000010    2    1    2  502    0 -0.42606109244E+03  0.77195510227E+03  0.69931972895E+03  0.15149141710E+04  0.10141371346E+04 0.  0.
        -13    1    4    4    0    0 -0.68151424595E+02 -0.13631606212E+03 -0.15519412116E+03  0.21751301541E+03  0.10566000000E+00 0.  1.
          4    1    4    4  502    0 -0.35790966784E+03  0.90827116439E+03  0.85451385012E+03  0.12974011556E+04  0.00000000000E+00 0.  1.
         13    1    3    3    0    0  0.18003494984E+02  0.21609516342E+03  0.45908317209E+02  0.22165024303E+03  0.10566000000E+00 0. -1.
         -4    1    3    3    0  501  0.40805759745E+03 -0.98805026569E+03 -0.59176924963E+03  0.12218613568E+04  0.00000000000E+00 0. -1.
<mgrwt>
<rscale>  0 0.13400787E+04</rscale>
<asrwt>0</asrwt>
<pdfrwt beam="1">  1        4 0.23937573E+00 0.13438441E+04</pdfrwt>
<pdfrwt beam="2">  1       -4 0.21576669E+00 0.13363239E+04</pdfrwt>
<totfact> 0.12919638E-01</totfact>
</mgrwt>
</event>
<event>
 8    1  0.3025584E-006  0.1204986E+04  0.7818608E-02  0.8628204E-01
          4   -1    0    0  502    0  0.00000000000E+00  0.00000000000E+00  0.82025873617E+03  0.82025873617E+03  0.00000000000E+00 0.  1.
         -4   -1    0    0    0  501 -0.00000000000E+00 -0.00000000000E+00 -0.17417224394E+04  0.17417224394E+04  0.00000000000E+00 0. -1.
   -9000010    2    1    2    0  501 -0.47496732048E+03  0.39160600849E+03 -0.72386281525E+03  0.14056913776E+04  0.10358772380E+04 0.  0.
    9000010    2    1    2  502    0  0.47496732048E+03 -0.39160600849E+03 -0.19760088795E+03  0.11562897980E+04  0.95865049133E+03 0.  0.
        -13    1    4    4    0    0  0.64285949347E+03 -0.51586512984E+03 -0.35228482204E+03  0.89637590749E+03  0.10566000000E+00 0.  1.
          4    1    4    4  502    0 -0.16789217299E+03  0.12425912136E+03  0.15468393409E+03  0.25991389046E+03  0.00000000000E+00 0.  1.
         13    1    3    3    0    0 -0.19220474544E+03  0.22277114998E+03 -0.95764011686E+03  0.10018204700E+04  0.10566000000E+00 0. -1.
         -4    1    3    3    0  501 -0.28276257504E+03  0.16883485851E+03  0.23377730160E+03  0.40387090764E+03  0.00000000000E+00 0. -1.
<mgrwt>
<rscale>  0 0.11716727E+04</rscale>
<asrwt>0</asrwt>
<pdfrwt beam="1">  1        4 0.12619365E+00 0.11392805E+04</pdfrwt>
<pdfrwt beam="2">  1       -4 0.26795730E+00 0.12049858E+04</pdfrwt>
<totfact> 0.23919645E-01</totfact>
</mgrwt>
</event>
<event>
 8    1  0.3025584E-006  0.1495803E+04  0.7818608E-02  0.8412494E-01
         -4   -1    0    0    0  501 -0.00000000000E+00  0.00000000000E+00  0.14618073609E+04  0.14618073609E+04  0.00000000000E+00 0. -1.
          4   -1    0    0  502    0  0.00000000000E+00 -0.00000000000E+00 -0.17225992926E+04  0.17225992926E+04  0.00000000000E+00 0.  1.
   -9000010    2    1    2    0  501  0.10561519005E+04  0.33746749544E+03  0.40407142266E+03  0.15474984420E+04  0.10010677130E+04 0.  0.
    9000010    2    1    2  502    0 -0.10561519005E+04 -0.33746749544E+03 -0.66486335440E+03  0.16369082115E+04  0.10040338966E+04 0.  0.
        -13    1    4    4    0    0  0.18812688474E+03 -0.12795938693E+03 -0.15858312596E+03  0.27733364107E+03  0.10566000000E+00 0.  1.
          4    1    4    4  502    0 -0.12442787852E+04 -0.20950810852E+03 -0.50628022843E+03  0.13595745704E+04  0.00000000000E+00 0.  1.
         13    1    3    3    0    0  0.47325304975E+03  0.75054656902E+02  0.69580258505E+03  0.84483305993E+03  0.10566000000E+00 0. -1.
         -4    1    3    3    0  501  0.58289885071E+03  0.26241283854E+03 -0.29173116239E+03  0.70266538202E+03  0.00000000000E+00 0. -1.
<mgrwt>
<rscale>  0 0.14948075E+04</rscale>
<asrwt>0</asrwt>
<pdfrwt beam="2">  1        4 0.26501527E+00 0.14958025E+04</pdfrwt>
<pdfrwt beam="1">  1       -4 0.22489344E+00 0.14938131E+04</pdfrwt>
<totfact> 0.10540229E-01</totfact>
</mgrwt>
</event>
<event>
 8    1  0.3025584E-006  0.1091468E+04  0.7818608E-02  0.8704815E-01
          4   -1    0    0  502    0  0.00000000000E+00  0.00000000000E+00  0.96661300245E+03  0.96661300245E+03  0.00000000000E+00 0.  1.
         -4   -1    0    0    0  501 -0.00000000000E+00 -0.00000000000E+00 -0.16412550571E+04  0.16412550571E+04  0.00000000000E+00 0. -1.
   -9000010    2    1    2    0  501 -0.27882766506E+03 -0.33991307379E+03 -0.10088887765E+04  0.14663675915E+04  0.96906737920E+03 0.  0.
    9000010    2    1    2  502    0  0.27882766506E+03  0.33991307379E+03  0.33424672181E+03  0.11415004681E+04  0.99900784939E+03 0.  0.
        -13    1    4    4    0    0  0.61425647566E+03  0.20240997415E+03 -0.24393443994E+01  0.64675093900E+03  0.10566000000E+00 0.  1.
          4    1    4    4  502    0 -0.33542881060E+03  0.13750309964E+03  0.33668606620E+03  0.49474952913E+03  0.00000000000E+00 0.  1.
         13    1    3    3    0    0 -0.58107393514E+03 -0.42029727702E+03 -0.86061261459E+03  0.11202458671E+04  0.10566000000E+00 0. -1.
         -4    1    3    3    0  501  0.30224627007E+03  0.80384203221E+02 -0.14827616189E+03  0.34612172437E+03  0.00000000000E+00 0. -1.
<mgrwt>
<rscale>  0 0.10777134E+04</rscale>
<asrwt>0</asrwt>
<pdfrwt beam="1">  1        4 0.14870969E+00 0.10914680E+04</pdfrwt>
<pdfrwt beam="2">  1       -4 0.25250078E+00 0.10641322E+04</pdfrwt>
<totfact> 0.20254267E-01</totfact>
</mgrwt>
</event>
<event>
 8    1  0.3025584E-006  0.1110005E+04  0.7818608E-02  0.8683251E-01
          4   -1    0    0  502    0  0.00000000000E+00  0.00000000000E+00  0.28787401744E+04  0.28787401744E+04  0.00000000000E+00 0.  1.
         -4   -1    0    0    0  501 -0.00000000000E+00 -0.00000000000E+00 -0.25597579781E+04  0.25597579781E+04  0.00000000000E+00 0. -1.
   -9000010    2    1    2    0  501  0.16477747151E+03 -0.42309036296E+03 -0.23248941963E+04  0.25762848820E+04  0.10128937253E+04 0.  0.
    9000010    2    1    2  502    0 -0.16477747151E+03  0.42309036296E+03  0.26438763926E+04  0.28622132705E+04  0.99801069937E+03 0.  0.
        -13    1    4    4    0    0 -0.22915219420E+03 -0.68336905802E+02  0.81937403677E+02  0.25277343627E+03  0.10566000000E+00 0.  1.
          4    1    4    4  502    0  0.64374722686E+02  0.49142726876E+03  0.25619389889E+04  0.26094398342E+04  0.00000000000E+00 0.  1.
         13    1    3    3    0    0  0.58320588661E+03 -0.20526261718E+03 -0.15544377089E+04  0.16728832745E+04  0.10566000000E+00 0. -1.
         -4    1    3    3    0  501 -0.41842841509E+03 -0.21782774577E+03 -0.77045648745E+03  0.90340160750E+03  0.00000000000E+00 0. -1.
<mgrwt>
<rscale>  0 0.11032020E+04</rscale>
<asrwt>0</asrwt>
<pdfrwt beam="1">  1        4 0.44288311E+00 0.10964408E+04</pdfrwt>
<pdfrwt beam="2">  1       -4 0.39380892E+00 0.11100049E+04</pdfrwt>
<totfact> 0.87285696E-03</totfact>
</mgrwt>
</event>
<event>
 8    1  0.3025584E-006  0.1086164E+04  0.7818608E-02  0.8698505E-01
          4   -1    0    0  502    0  0.00000000000E+00  0.00000000000E+00  0.29944135701E+04  0.29944135701E+04  0.00000000000E+00 0.  1.
         -4   -1    0    0    0  501 -0.00000000000E+00 -0.00000000000E+00 -0.10697507401E+04  0.10697507401E+04  0.00000000000E+00 0. -1.
   -9000010    2    1    2    0  501  0.21334844375E+03 -0.39485876905E+03 -0.65333976571E+03  0.12675194429E+04  0.98910145224E+03 0.  0.
    9000010    2    1    2  502    0 -0.21334844375E+03  0.39485876905E+03  0.25780025956E+04  0.27966448673E+04  0.98675940557E+03 0.  0.
        -13    1    4    4    0    0  0.27340869125E+03 -0.71488529359E+02  0.26499213354E+03  0.38740645876E+03  0.10566000000E+00 0.  1.
          4    1    4    4  502    0 -0.48675713500E+03  0.46634729841E+03  0.23130104621E+04  0.24092384085E+04  0.00000000000E+00 0.  1.
         13    1    3    3    0    0 -0.56400210201E+02  0.21413634314E+03  0.11594276271E+03  0.24995618127E+03  0.10566000000E+00 0. -1.
         -4    1    3    3    0  501  0.26974865395E+03 -0.60899511219E+03 -0.76928252842E+03  0.10175632617E+04  0.00000000000E+00 0. -1.
<mgrwt>
<rscale>  0 0.10850975E+04</rscale>
<asrwt>0</asrwt>
<pdfrwt beam="1">  1        4 0.46067901E+00 0.10840319E+04</pdfrwt>
<pdfrwt beam="2">  1       -4 0.16457704E+00 0.10861642E+04</pdfrwt>
<totfact> 0.33772064E-02</totfact>
</mgrwt>
</event>
<event>
 8    1  0.3025584E-006  0.1016181E+04  0.7818608E-02  0.8761169E-01
         -4   -1    0    0    0  501 -0.00000000000E+00  0.00000000000E+00  0.18864735501E+04  0.18864735501E+04  0.00000000000E+00 0. -1.
          4   -1    0    0  502    0  0.00000000000E+00 -0.00000000000E+00 -0.24341098354E+04  0.24341098354E+04  0.00000000000E+00 0.  1.
   -9000010    2    1    2    0  501 -0.22679031255E+03 -0.76663311899E+02  0.16291882916E+04  0.19182536274E+04  0.98393667489E+03 0.  0.
    9000010    2    1    2  502    0  0.22679031255E+03  0.76663311899E+02 -0.21768245769E+04  0.24023297582E+04  0.98757881670E+03 0.  0.
        -13    1    4    4    0    0  0.18106707609E+03 -0.44489381566E+03 -0.12287822624E+04  0.13193262117E+04  0.10566000000E+00 0.  1.
          4    1    4    4  502    0  0.45723236451E+02  0.52155712756E+03 -0.94804231448E+03  0.10830035465E+04  0.00000000000E+00 0.  1.
         13    1    3    3    0    0 -0.12394288556E+03  0.74610847233E+02  0.17115423340E+04  0.17176454203E+04  0.10566000000E+00 0. -1.
         -4    1    3    3    0  501 -0.10284742698E+03 -0.15127415913E+03 -0.82354042427E+02  0.20060820711E+03  0.00000000000E+00 0. -1.
<mgrwt>
<rscale>  0 0.10144094E+04</rscale>
<asrwt>0</asrwt>
<pdfrwt beam="2">  1        4 0.37447843E+00 0.10161806E+04</pdfrwt>
<pdfrwt beam="1">  1       -4 0.29022670E+00 0.10126413E+04</pdfrwt>
<totfact> 0.36160452E-02</totfact>
</mgrwt>
</event>
<event>
 8    1  0.3025584E-006  0.1117313E+04  0.7818608E-02  0.8672607E-01
          4   -1    0    0  502    0  0.00000000000E+00  0.00000000000E+00  0.63814929806E+03  0.63814929806E+03  0.00000000000E+00 0.  1.
         -4   -1    0    0    0  501 -0.00000000000E+00 -0.00000000000E+00 -0.22038341448E+04  0.22038341448E+04  0.00000000000E+00 0. -1.
   -9000010    2    1    2    0  501 -0.26376457279E+03 -0.38740751840E+03 -0.12625458078E+04  0.16842776792E+04  0.10114905085E+04 0.  0.
    9000010    2    1    2  502    0  0.26376457279E+03  0.38740751840E+03 -0.30313903895E+03  0.11577057637E+04  0.10142647697E+04 0.  0.
        -13    1    4    4    0    0 -0.22197473557E+03  0.54608824667E+03 -0.26190939920E+03  0.64504395271E+03  0.10566000000E+00 0.  1.
          4    1    4    4  502    0  0.48573930836E+03 -0.15868072827E+03 -0.41229639748E+02  0.51266181094E+03  0.00000000000E+00 0.  1.
         13    1    3    3    0    0 -0.30633604877E+03  0.20025288026E+03 -0.97547247329E+02  0.37875911534E+03  0.10566000000E+00 0. -1.
         -4    1    3    3    0  501  0.42571475982E+02 -0.58766039865E+03 -0.11649985605E+04  0.13055185639E+04  0.00000000000E+00 0. -1.
<mgrwt>
<rscale>  0 0.11160539E+04</rscale>
<asrwt>0</asrwt>
<pdfrwt beam="1">  1        4 0.98176815E-01 0.11173135E+04</pdfrwt>
<pdfrwt beam="2">  1       -4 0.33905141E+00 0.11147957E+04</pdfrwt>
<totfact> 0.24090698E-01</totfact>
</mgrwt>
</event>
<event>
 8    1  0.3025584E-006  0.1153412E+04  0.7818608E-02  0.8653285E-01
          4   -1    0    0  502    0  0.00000000000E+00  0.00000000000E+00  0.49911233773E+04  0.49911233773E+04  0.00000000000E+00 0.  1.
         -4   -1    0    0    0  501 -0.00000000000E+00 -0.00000000000E+00 -0.26138611390E+03  0.26138611390E+03  0.00000000000E+00 0. -1.
   -9000010    2    1    2    0  501  0.22556215978E+03 -0.49553826349E+03  0.25579364469E+04  0.28059576032E+04  0.10168199181E+04 0.  0.
    9000010    2    1    2  502    0 -0.22556215978E+03  0.49553826349E+03  0.21718008165E+04  0.24465518880E+04  0.98613431936E+03 0.  0.
        -13    1    4    4    0    0 -0.38226209919E+03  0.68371093701E+03  0.11207810166E+04  0.13673825566E+04  0.10566000000E+00 0.  1.
          4    1    4    4  502    0  0.15669993941E+03 -0.18817267352E+03  0.10510197999E+04  0.10791693314E+04  0.00000000000E+00 0.  1.
         13    1    3    3    0    0  0.50414934998E+03 -0.45268836422E+02  0.63833122506E+03  0.81466717050E+03  0.10566000000E+00 0. -1.
         -4    1    3    3    0  501 -0.27858719020E+03 -0.45026942707E+03  0.19196052218E+04  0.19912904327E+04  0.00000000000E+00 0. -1.
<mgrwt>
<rscale>  0 0.11398530E+04</rscale>
<asrwt>0</asrwt>
<pdfrwt beam="1">  1        4 0.76786506E+00 0.11264534E+04</pdfrwt>
<pdfrwt beam="2">  1       -4 0.40213252E-01 0.11534120E+04</pdfrwt>
<totfact> 0.12111654E-02</totfact>
</mgrwt>
</event>
<event>
 8    1  0.3025584E-006  0.1243673E+04  0.7818608E-02  0.8579286E-01
          4   -1    0    0  502    0  0.00000000000E+00  0.00000000000E+00  0.11800017773E+04  0.11800017773E+04  0.00000000000E+00 0.  1.
         -4   -1    0    0    0  501 -0.00000000000E+00 -0.00000000000E+00 -0.17748861351E+04  0.17748861351E+04  0.00000000000E+00 0. -1.
   -9000010    2    1    2    0  501 -0.34953828049E+03  0.64057073360E+03 -0.10656004671E+04  0.16377505611E+04  0.10070822562E+04 0.  0.
    9000010    2    1    2  502    0  0.34953828049E+03 -0.64057073360E+03  0.47071610928E+03  0.13171373513E+04  0.99033795872E+03 0.  0.
        -13    1    4    4    0    0 -0.84647664718E+02 -0.16775485543E+03 -0.27507529589E+03  0.33312662493E+03  0.10566000000E+00 0.  1.
          4    1    4    4  502    0  0.43418594521E+03 -0.47281587817E+03  0.74579140517E+03  0.98401072641E+03  0.00000000000E+00 0.  1.
         13    1    3    3    0    0 -0.70194806225E+03  0.34169714247E+03 -0.63916427096E+03  0.10089692739E+04  0.10566000000E+00 0. -1.
         -4    1    3    3    0  501  0.35240978176E+03  0.29887359114E+03 -0.42643619610E+03  0.62878128717E+03  0.00000000000E+00 0. -1.
<mgrwt>
<rscale>  0 0.12368947E+04</rscale>
<asrwt>0</asrwt>
<pdfrwt beam="1">  1        4 0.18153874E+00 0.12301533E+04</pdfrwt>
<pdfrwt beam="2">  1       -4 0.27305940E+00 0.12436730E+04</pdfrwt>
<totfact> 0.13557806E-01</totfact>
</mgrwt>
</event>
<event>
 8    1  0.3025584E-006  0.1044351E+04  0.7818608E-02  0.8738956E-01
         -4   -1    0    0    0  501 -0.00000000000E+00  0.00000000000E+00  0.57221225825E+03  0.57221225825E+03  0.00000000000E+00 0. -1.
          4   -1    0    0  502    0  0.00000000000E+00 -0.00000000000E+00 -0.25063875735E+04  0.25063875735E+04  0.00000000000E+00 0.  1.
   -9000010    2    1    2    0  501  0.23564584015E+03 -0.87143456798E+02 -0.19736216824E+03  0.10519798396E+04  0.10022907829E+04 0.  0.
    9000010    2    1    2  502    0 -0.23564584015E+03  0.87143456798E+02 -0.17368131470E+04  0.20266199921E+04  0.10136793087E+04 0.  0.
        -13    1    4    4    0    0 -0.51128228652E+03 -0.15871636530E+03 -0.14877451829E+04  0.15811344666E+04  0.10566000000E+00 0.  1.
          4    1    4    4  502    0  0.27563644637E+03  0.24585982210E+03 -0.24906796413E+03  0.44548552552E+03  0.00000000000E+00 0.  1.
         13    1    3    3    0    0  0.13451604245E+03  0.21231107681E+03 -0.53401507450E+03  0.59020561669E+03  0.10566000000E+00 0. -1.
         -4    1    3    3    0  501  0.10112979770E+03 -0.29945453361E+03  0.33665290626E+03  0.46177422294E+03  0.00000000000E+00 0. -1.
<mgrwt>
<rscale>  0 0.10388109E+04</rscale>
<asrwt>0</asrwt>
<pdfrwt beam="2">  1        4 0.38559809E+00 0.10443508E+04</pdfrwt>
<pdfrwt beam="1">  1       -4 0.88032655E-01 0.10333004E+04</pdfrwt>
<totfact> 0.20543725E-01</totfact>
</mgrwt>
</event>
<event>
 8    1  0.3025584E-006  0.1305239E+04  0.7818608E-02  0.8533061E-01
          4   -1    0    0  502    0  0.00000000000E+00  0.00000000000E+00  0.29693322596E+04  0.29693322596E+04  0.00000000000E+00 0.  1.
         -4   -1    0    0    0  501 -0.00000000000E+00 -0.00000000000E+00 -0.63689729322E+03  0.63689729322E+03  0.00000000000E+00 0. -1.
   -9000010    2    1    2    0  501 -0.14701594366E+02  0.82263248867E+03  0.58603267078E+03  0.14259613673E+04  0.10064746304E+04 0.  0.
    9000010    2    1    2  502    0  0.14701594366E+02 -0.82263248867E+03  0.17464022956E+04  0.21802681855E+04  0.10132660235E+04 0.  0.
        -13    1    4    4    0    0  0.45891370578E+03 -0.20289626123E+03  0.43869671355E+03  0.66650093759E+03  0.10566000000E+00 0.  1.
          4    1    4    4  502    0 -0.44421211141E+03 -0.61973622744E+03  0.13077055821E+04  0.15137672479E+04  0.00000000000E+00 0.  1.
         13    1    3    3    0    0 -0.22284483043E+03 -0.69218626418E+02  0.44072487785E+03  0.49868774379E+03  0.10566000000E+00 0. -1.
         -4    1    3    3    0  501  0.20814323606E+03  0.89185111509E+03  0.14530779294E+03  0.92727362353E+03  0.00000000000E+00 0. -1.
<mgrwt>
<rscale>  0 0.13026036E+04</rscale>
<asrwt>0</asrwt>
<pdfrwt beam="1">  1        4 0.45682034E+00 0.13052388E+04</pdfrwt>
<pdfrwt beam="2">  1       -4 0.97984201E-01 0.12999737E+04</pdfrwt>
<totfact> 0.80960965E-02</totfact>
</mgrwt>
</event>
<event>
 8    1  0.3025584E-006  0.1063358E+04  0.7818608E-02  0.8727052E-01
          4   -1    0    0  502    0  0.00000000000E+00  0.00000000000E+00  0.13970695835E+04  0.13970695835E+04  0.00000000000E+00 0.  1.
         -4   -1    0    0    0  501 -0.00000000000E+00 -0.00000000000E+00 -0.11889738966E+04  0.11889738966E+04  0.00000000000E+00 0. -1.
   -9000010    2    1    2    0  501 -0.48904377975E+02 -0.36352645721E+03 -0.64184168164E+03  0.12420512504E+04  0.99809190012E+03 0.  0.
    9000010    2    1    2  502    0  0.48904377975E+02  0.36352645721E+03  0.84993736856E+03  0.13439922297E+04  0.97436053884E+03 0.  0.
        -13    1    4    4    0    0  0.49772396577E+03  0.27793665601E+03  0.58025276417E+03  0.81343175027E+03  0.10566000000E+00 0.  1.
          4    1    4    4  502    0 -0.44881958779E+03  0.85589801198E+02  0.26968460439E+03  0.53056047940E+03  0.00000000000E+00 0.  1.
         13    1    3    3    0    0 -0.30741566510E+03 -0.56725238614E+03 -0.17082159166E+03  0.66742766505E+03  0.10566000000E+00 0. -1.
         -4    1    3    3    0  501  0.25851128712E+03  0.20372592893E+03 -0.47102008999E+03  0.57462358537E+03  0.00000000000E+00 0. -1.
<mgrwt>
<rscale>  0 0.10521781E+04</rscale>
<asrwt>0</asrwt>
<pdfrwt beam="1">  1        4 0.21493378E+00 0.10411155E+04</pdfrwt>
<pdfrwt beam="2">  1       -4 0.18291906E+00 0.10633582E+04</pdfrwt>
<totfact> 0.18700081E-01</totfact>
</mgrwt>
</event>
<event>
 8    1  0.3025584E-006  0.1495335E+04  0.7818608E-02  0.8412305E-01
          4   -1    0    0  502    0  0.00000000000E+00  0.00000000000E+00  0.27195147952E+04  0.27195147952E+04  0.00000000000E+00 0.  1.
         -4   -1    0    0    0  501 -0.00000000000E+00 -0.00000000000E+00 -0.89098649617E+03  0.89098649617E+03  0.00000000000E+00 0. -1.
   -9000010    2    1    2    0  501  0.21392574090E+03 -0.10856179171E+04  0.41180099676E+03  0.15506120038E+04  0.10052298448E+04 0.  0.
    9000010    2    1    2  502    0 -0.21392574090E+03  0.10856179171E+04  0.14167273023E+04  0.20598892876E+04  0.10058315682E+04 0.  0.
        -13    1    4    4    0    0 -0.15823764180E+03  0.50709373571E+03  0.28503547583E+01  0.53121685192E+03  0.10566000000E+00 0.  1.
          4    1    4    4  502    0 -0.55688099107E+02  0.57852418140E+03  0.14138769475E+04  0.15286724356E+04  0.00000000000E+00 0.  1.
         13    1    3    3    0    0  0.27117951499E+03 -0.16029571350E+03 -0.25774891797E+03  0.40702280157E+03  0.10566000000E+00 0. -1.
         -4    1    3    3    0  501 -0.57253774088E+02 -0.92532220361E+03  0.66954991473E+03  0.11435892022E+04  0.00000000000E+00 0. -1.
<mgrwt>
<rscale>  0 0.14951329E+04</rscale>
<asrwt>0</asrwt>
<pdfrwt beam="1">  1        4 0.41838689E+00 0.14953353E+04</pdfrwt>
<pdfrwt beam="2">  1       -4 0.13707485E+00 0.14949306E+04</pdfrwt>
<totfact> 0.66291902E-02</totfact>
</mgrwt>
</event>
<event>
 8    1  0.3025584E-006  0.1096422E+04  0.7818608E-02  0.8697761E-01
          4   -1    0    0  502    0  0.00000000000E+00  0.00000000000E+00  0.26468847541E+04  0.26468847541E+04  0.00000000000E+00 0.  1.
         -4   -1    0    0    0  501 -0.00000000000E+00 -0.00000000000E+00 -0.63002281775E+03  0.63002281775E+03  0.00000000000E+00 0. -1.
   -9000010    2    1    2    0  501 -0.87254170747E+01 -0.38023504246E+03  0.11515302954E+03  0.10817680992E+04  0.10061347722E+04 0.  0.
    9000010    2    1    2  502    0  0.87254170747E+01  0.38023504246E+03  0.19017089068E+04  0.21951394727E+04  0.10283412458E+04 0.  0.
        -13    1    4    4    0    0  0.50111007742E+02 -0.17340732107E+02 -0.12163422333E+03  0.13269027672E+03  0.10566000000E+00 0.  1.
          4    1    4    4  502    0 -0.41385590667E+02  0.39757577456E+03  0.20233431301E+04  0.20624491960E+04  0.00000000000E+00 0.  1.
         13    1    3    3    0    0  0.10428812849E+03 -0.25121235429E+03  0.55040183714E+03  0.61394287534E+03  0.10566000000E+00 0. -1.
         -4    1    3    3    0  501 -0.11301354557E+03 -0.12902268817E+03 -0.43524880760E+03  0.46782522384E+03  0.00000000000E+00 0. -1.
<mgrwt>
<rscale>  0 0.10859719E+04</rscale>
<asrwt>0</asrwt>
<pdfrwt beam="1">  1        4 0.40721303E+00 0.10964217E+04</pdfrwt>
<pdfrwt beam="2">  1       -4 0.96926589E-01 0.10756217E+04</pdfrwt>
<totfact> 0.13905545E-01</totfact>
</mgrwt>
</event>
<event>
 8    1  0.3025584E-006  0.1582977E+04  0.7818608E-02  0.8366890E-01
         -4   -1    0    0    0  501 -0.00000000000E+00  0.00000000000E+00  0.11327506436E+04  0.11327506436E+04  0.00000000000E+00 0. -1.
          4   -1    0    0  502    0  0.00000000000E+00 -0.00000000000E+00 -0.27921488463E+04  0.27921488463E+04  0.00000000000E+00 0.  1.
   -9000010    2    1    2    0  501 -0.11350939201E+04 -0.44419514212E+03  0.76165851255E+02  0.15848083072E+04  0.10099844562E+04 0.  0.
    9000010    2    1    2  502    0  0.11350939201E+04  0.44419514212E+03 -0.17355640540E+04  0.23400911827E+04  0.98898767747E+03 0.  0.
        -13    1    4    4    0    0  0.78813683201E+03 -0.10177668443E+03 -0.14037132990E+04  0.16130496571E+04  0.10566000000E+00 0.  1.
          4    1    4    4  502    0  0.34695708806E+03  0.54597182655E+03 -0.33185075508E+03  0.72704152563E+03  0.00000000000E+00 0.  1.
         13    1    3    3    0    0 -0.97968572644E+03  0.74870662469E+02  0.25346073216E+03  0.10147078854E+04  0.10566000000E+00 0. -1.
         -4    1    3    3    0  501 -0.15540819363E+03 -0.51906580459E+03 -0.17729488090E+03  0.57010042180E+03  0.00000000000E+00 0. -1.
<mgrwt>
<rscale>  0 0.15763063E+04</rscale>
<asrwt>0</asrwt>
<pdfrwt beam="2">  1        4 0.42956136E+00 0.15696637E+04</pdfrwt>
<pdfrwt beam="1">  1       -4 0.17426933E+00 0.15829770E+04</pdfrwt>
<totfact> 0.41537856E-02</totfact>
</mgrwt>
</event>
<event>
 8    1  0.3025584E-006  0.1045454E+04  0.7818608E-02  0.8734834E-01
         -4   -1    0    0    0  501 -0.00000000000E+00  0.00000000000E+00  0.11621431307E+04  0.11621431307E+04  0.00000000000E+00 0. -1.
          4   -1    0    0  502    0  0.00000000000E+00 -0.00000000000E+00 -0.15167918657E+04  0.15167918657E+04  0.00000000000E+00 0.  1.
   -9000010    2    1    2    0  501 -0.10726946223E+03 -0.28454095897E+03  0.65115723128E+03  0.12282040159E+04  0.99599652107E+03 0.  0.
    9000010    2    1    2  502    0  0.10726946223E+03  0.28454095897E+03 -0.10058059663E+04  0.14507309805E+04  0.10002521887E+04 0.  0.
        -13    1    4    4    0    0  0.41575833674E+03 -0.20286221253E+03 -0.52553708639E+03  0.70014092308E+03  0.10566000000E+00 0.  1.
          4    1    4    4  502    0 -0.30848887450E+03  0.48740317151E+03 -0.48026887987E+03  0.75059005740E+03  0.00000000000E+00 0.  1.
         13    1    3    3    0    0 -0.51886087867E+03  0.81217186380E+01  0.21798802288E+03  0.56285110199E+03  0.10566000000E+00 0. -1.
         -4    1    3    3    0  501  0.41159141644E+03 -0.29266267761E+03  0.43316920840E+03  0.66535291392E+03  0.00000000000E+00 0. -1.
<mgrwt>
<rscale>  0 0.10434169E+04</rscale>
<asrwt>0</asrwt>
<pdfrwt beam="2">  1        4 0.23335259E+00 0.10454543E+04</pdfrwt>
<pdfrwt beam="1">  1       -4 0.17879125E+00 0.10413834E+04</pdfrwt>
<totfact> 0.17347458E-01</totfact>
</mgrwt>
</event>
<event>
 8    1  0.3025584E-006  0.1147655E+04  0.7818608E-02  0.8653620E-01
          4   -1    0    0  502    0  0.00000000000E+00  0.00000000000E+00  0.16917910826E+04  0.16917910826E+04  0.00000000000E+00 0.  1.
         -4   -1    0    0    0  501 -0.00000000000E+00 -0.00000000000E+00 -0.15247487537E+04  0.15247487537E+04  0.00000000000E+00 0. -1.
   -9000010    2    1    2    0  501  0.16938661384E+03  0.50411192652E+03 -0.10501869545E+04  0.15435904387E+04  0.99847791347E+03 0.  0.
    9000010    2    1    2  502    0 -0.16938661384E+03 -0.50411192652E+03  0.12172292834E+04  0.16729493976E+04  0.10170014253E+04 0.  0.
        -13    1    4    4    0    0  0.15698314862E+03 -0.59859660341E+03  0.28611577046E+03  0.68177991158E+03  0.10566000000E+00 0.  1.
          4    1    4    4  502    0 -0.32636976246E+03  0.94484676892E+02  0.93111351294E+03  0.99116948601E+03  0.00000000000E+00 0.  1.
         13    1    3    3    0    0  0.54198379856E+03  0.43802892863E+03 -0.89571007516E+03  0.11348622516E+04  0.10566000000E+00 0. -1.
         -4    1    3    3    0  501 -0.37259718472E+03  0.66082997894E+02 -0.15447687929E+03  0.40872818707E+03  0.00000000000E+00 0. -1.
<mgrwt>
<rscale>  0 0.11394347E+04</rscale>
<asrwt>0</asrwt>
<pdfrwt beam="1">  1        4 0.26027555E+00 0.11476552E+04</pdfrwt>
<pdfrwt beam="2">  1       -4 0.23457673E+00 0.11312731E+04</pdfrwt>
<totfact> 0.10435499E-01</totfact>
</mgrwt>
</event>
<event>
 8    1  0.3025584E-006  0.1699304E+04  0.7818608E-02  0.8324559E-01
          4   -1    0    0  502    0  0.00000000000E+00  0.00000000000E+00  0.38702245789E+04  0.38702245789E+04  0.00000000000E+00 0.  1.
         -4   -1    0    0    0  501 -0.00000000000E+00 -0.00000000000E+00 -0.76319417467E+03  0.76319417467E+03  0.00000000000E+00 0. -1.
   -9000010    2    1    2    0  501 -0.10169467385E+04  0.91358536221E+03  0.97705947864E+03  0.19601734001E+04  0.10093639832E+04 0.  0.
    9000010    2    1    2  502    0  0.10169467385E+04 -0.91358536221E+03  0.21299709256E+04  0.26732453535E+04  0.86060774622E+03 0.  0.
        -13    1    4    4    0    0  0.11368477125E+04 -0.94730770445E+03  0.20372199239E+04  0.25179514765E+04  0.10566000000E+00 0.  1.
          4    1    4    4  502    0 -0.11990097394E+03  0.33722342240E+02  0.92751001673E+02  0.15529387699E+03  0.00000000000E+00 0.  1.
         13    1    3    3    0    0 -0.72426567425E+03  0.97593251618E+03  0.34895615790E+03  0.12644269272E+04  0.10566000000E+00 0. -1.
         -4    1    3    3    0  501 -0.29268106429E+03 -0.62347153967E+02  0.62810332074E+03  0.69574647288E+03  0.00000000000E+00 0. -1.
<mgrwt>
<rscale>  0 0.16568127E+04</rscale>
<asrwt>0</asrwt>
<pdfrwt beam="1">  1        4 0.59541916E+00 0.16153837E+04</pdfrwt>
<pdfrwt beam="2">  1       -4 0.11741449E+00 0.16993041E+04</pdfrwt>
<totfact> 0.11617384E-02</totfact>
</mgrwt>
</event>
<event>
 8    1  0.3025584E-006  0.1482805E+04  0.7818608E-02  0.8425667E-01
         -4   -1    0    0    0  501 -0.00000000000E+00  0.00000000000E+00  0.24561302037E+04  0.24561302037E+04  0.00000000000E+00 0. -1.
          4   -1    0    0  502    0  0.00000000000E+00 -0.00000000000E+00 -0.11192418660E+04  0.11192418660E+04  0.00000000000E+00 0.  1.
   -9000010    2    1    2    0  501 -0.96191930136E+03  0.48599079258E+03  0.14868214531E+04  0.20850062575E+04  0.98749038867E+03 0.  0.
    9000010    2    1    2  502    0  0.96191930136E+03 -0.48599079258E+03 -0.14993311548E+03  0.14903658122E+04  0.10184471131E+04 0.  0.
        -13    1    4    4    0    0  0.65224770108E+03 -0.14107586836E+02 -0.50371841348E+03  0.82423196906E+03  0.10566000000E+00 0.  1.
          4    1    4    4  502    0  0.30967160028E+03 -0.47188320575E+03  0.35378529801E+03  0.66613384314E+03  0.00000000000E+00 0.  1.
         13    1    3    3    0    0 -0.25136897563E+03  0.44792413591E+01  0.11263253677E+04  0.11540430107E+04  0.10566000000E+00 0. -1.
         -4    1    3    3    0  501 -0.71055032573E+03  0.48151155122E+03  0.36049608545E+03  0.93096324685E+03  0.00000000000E+00 0. -1.
<mgrwt>
<rscale>  0 0.14722226E+04</rscale>
<asrwt>0</asrwt>
<pdfrwt beam="2">  1        4 0.17219106E+00 0.14828049E+04</pdfrwt>
<pdfrwt beam="1">  1       -4 0.37786618E+00 0.14617158E+04</pdfrwt>
<totfact> 0.68985466E-02</totfact>
</mgrwt>
</event>
<event>
 8    1  0.3025584E-006  0.1123153E+04  0.7818608E-02  0.8667226E-01
          4   -1    0    0  502    0  0.00000000000E+00  0.00000000000E+00  0.58683834375E+03  0.58683834375E+03  0.00000000000E+00 0.  1.
         -4   -1    0    0    0  501 -0.00000000000E+00 -0.00000000000E+00 -0.26427071656E+04  0.26427071656E+04  0.00000000000E+00 0. -1.
   -9000010    2    1    2    0  501 -0.37046619057E+03 -0.30328689181E+03 -0.17264917599E+04  0.20590914281E+04  0.10148180009E+04 0.  0.
    9000010    2    1    2  502    0  0.37046619057E+03  0.30328689181E+03 -0.32937706194E+03  0.11704540813E+04  0.10159947689E+04 0.  0.
        -13    1    4    4    0    0  0.32575390553E+03 -0.31656936625E+03 -0.30763267568E+03  0.54860700408E+03  0.10566000000E+00 0.  1.
          4    1    4    4  502    0  0.44712285039E+02  0.61985625806E+03 -0.21744386260E+02  0.62184707720E+03  0.00000000000E+00 0.  1.
         13    1    3    3    0    0 -0.28434099768E+03 -0.17669186595E+03 -0.18389138873E+04  0.18691372648E+04  0.10566000000E+00 0. -1.
         -4    1    3    3    0  501 -0.86125192889E+02 -0.12659502586E+03  0.11242212740E+03  0.18995416329E+03  0.00000000000E+00 0. -1.
<mgrwt>
<rscale>  0 0.11226211E+04</rscale>
<asrwt>0</asrwt>
<pdfrwt beam="1">  1        4 0.90282824E-01 0.11231534E+04</pdfrwt>
<pdfrwt beam="2">  1       -4 0.40657032E+00 0.11220890E+04</pdfrwt>
<totfact> 0.16055806E-01</totfact>
</mgrwt>
</event>
<event>
 8    1  0.3025584E-006  0.1320633E+04  0.7818608E-02  0.8522703E-01
          4   -1    0    0  502    0  0.00000000000E+00  0.00000000000E+00  0.12239127324E+04  0.12239127324E+04  0.00000000000E+00 0.  1.
         -4   -1    0    0    0  501 -0.00000000000E+00 -0.00000000000E+00 -0.14305414502E+04  0.14305414502E+04  0.00000000000E+00 0. -1.
   -9000010    2    1    2    0  501  0.85990744647E+03 -0.95416680191E+02 -0.22173753681E+03  0.13337351706E+04  0.99052350337E+03 0.  0.
    9000010    2    1    2  502    0 -0.85990744647E+03  0.95416680191E+02  0.15108818989E+02  0.13207190120E+04  0.99776012795E+03 0.  0.
        -13    1    4    4    0    0 -0.87730464097E+03  0.40814964217E+03 -0.12859922653E+03  0.97610826024E+03  0.10566000000E+00 0.  1.
          4    1    4    4  502    0  0.17397194507E+02 -0.31273296198E+03  0.14370804552E+03  0.34461075177E+03  0.00000000000E+00 0.  1.
         13    1    3    3    0    0  0.13366742303E+03  0.14043285870E+03 -0.48797146420E+03  0.52507573628E+03  0.10566000000E+00 0. -1.
         -4    1    3    3    0  501  0.72624002343E+03 -0.23584953889E+03  0.26623392739E+03  0.80865943433E+03  0.00000000000E+00 0. -1.
<mgrwt>
<rscale>  0 0.13179003E+04</rscale>
<asrwt>0</asrwt>
<pdfrwt beam="1">  1        4 0.18829427E+00 0.13206326E+04</pdfrwt>
<pdfrwt beam="2">  1       -4 0.22008330E+00 0.13151737E+04</pdfrwt>
<totfact> 0.17272993E-01</totfact>
</mgrwt>
</event>
<event>
 8    1  0.3025584E-006  0.1279619E+04  0.7818608E-02  0.8599728E-01
          4   -1    0    0  502    0  0.00000000000E+00  0.00000000000E+00  0.59985853796E+03  0.59985853796E+03  0.00000000000E+00 0.  1.
         -4   -1    0    0    0  501 -0.00000000000E+00 -0.00000000000E+00 -0.25671618249E+04  0.25671618249E+04  0.00000000000E+00 0. -1.
   -9000010    2    1    2    0  501 -0.47899798074E+03  0.59793368118E+03 -0.12754897594E+04  0.17123623835E+04  0.84755356972E+03 0.  0.
    9000010    2    1    2  502    0  0.47899798074E+03 -0.59793368118E+03 -0.69181352756E+03  0.14546579793E+04  0.10249195711E+04 0.  0.
        -13    1    4    4    0    0 -0.95485914205E+02  0.24057892435E+03 -0.19010346739E+03  0.32114656799E+03  0.10566000000E+00 0.  1.
          4    1    4    4  502    0  0.57448389495E+03 -0.83851260552E+03 -0.50171006016E+03  0.11335114113E+04  0.00000000000E+00 0.  1.
         13    1    3    3    0    0 -0.98266837086E+02  0.56150953017E+03 -0.25866426784E+03  0.62598445537E+03  0.10566000000E+00 0. -1.
         -4    1    3    3    0  501 -0.38073114366E+03  0.36424151009E+02 -0.10168254915E+04  0.10863779281E+04  0.00000000000E+00 0. -1.
<mgrwt>
<rscale>  0 0.12091182E+04</rscale>
<asrwt>0</asrwt>
<pdfrwt beam="1">  1        4 0.92285929E-01 0.12796186E+04</pdfrwt>
<pdfrwt beam="2">  1       -4 0.39494797E+00 0.11425020E+04</pdfrwt>
<totfact> 0.17096626E-01</totfact>
</mgrwt>
</event>
<event>
 8    1  0.3025584E-006  0.1068276E+04  0.7818608E-02  0.8726563E-01
         -4   -1    0    0    0  501 -0.00000000000E+00  0.00000000000E+00  0.90361334665E+03  0.90361334665E+03  0.00000000000E+00 0. -1.
          4   -1    0    0  502    0  0.00000000000E+00 -0.00000000000E+00 -0.23490534993E+04  0.23490534993E+04  0.00000000000E+00 0.  1.
   -9000010    2    1    2    0  501 -0.26601394367E+03  0.90441694479E+02  0.40689769365E+03  0.11143567501E+04  0.99864013294E+03 0.  0.
    9000010    2    1    2  502    0  0.26601394367E+03 -0.90441694479E+02 -0.18523378463E+04  0.21383100958E+04  0.10306655377E+04 0.  0.
        -13    1    4    4    0    0  0.64535418394E+02 -0.50471801491E+03 -0.14126201830E+04  0.15014662459E+04  0.10566000000E+00 0.  1.
          4    1    4    4  502    0  0.20147852528E+03  0.41427632043E+03 -0.43971766325E+03  0.63684384993E+03  0.00000000000E+00 0.  1.
         13    1    3    3    0    0 -0.43759956871E+03  0.31514131417E+03  0.57267574489E+03  0.78661613916E+03  0.10566000000E+00 0. -1.
         -4    1    3    3    0  501  0.17158562504E+03 -0.22469961969E+03 -0.16577805123E+03  0.32774061097E+03  0.00000000000E+00 0. -1.
<mgrwt>
<rscale>  0 0.10527315E+04</rscale>
<asrwt>0</asrwt>
<pdfrwt beam="2">  1        4 0.36139285E+00 0.10682764E+04</pdfrwt>
<pdfrwt beam="1">  1       -4 0.13901744E+00 0.10374128E+04</pdfrwt>
<totfact> 0.11159929E-01</totfact>
</mgrwt>
</event>
<event>
 8    1  0.3025584E-006  0.1203273E+04  0.7818608E-02  0.8622067E-01
          4   -1    0    0  502    0  0.00000000000E+00  0.00000000000E+00  0.88717603713E+03  0.88717603713E+03  0.00000000000E+00 0.  1.
         -4   -1    0    0    0  501 -0.00000000000E+00 -0.00000000000E+00 -0.16561217715E+04  0.16561217715E+04  0.00000000000E+00 0. -1.
   -9000010    2    1    2    0  501 -0.15029181405E+03 -0.65066458653E+03 -0.68316634554E+03  0.13836840352E+04  0.10009561529E+04 0.  0.
    9000010    2    1    2  502    0  0.15029181405E+03  0.65066458653E+03 -0.85779388859E+02  0.11596137735E+04  0.94413662494E+03 0.  0.
        -13    1    4    4    0    0  0.22991904857E+03 -0.17847565444E+03  0.97078992118E+02  0.30682351605E+03  0.10566000000E+00 0.  1.
          4    1    4    4  502    0 -0.79627234528E+02  0.82914024097E+03 -0.18285838098E+03  0.85279025743E+03  0.00000000000E+00 0.  1.
         13    1    3    3    0    0 -0.22960391948E+03 -0.37991039466E+03 -0.91599415407E+03  0.10178876015E+04  0.10566000000E+00 0. -1.
         -4    1    3    3    0  501  0.79312105435E+02 -0.27075419187E+03  0.23282780852E+03  0.36579643369E+03  0.00000000000E+00 0. -1.
<mgrwt>
<rscale>  0 0.11796223E+04</rscale>
<asrwt>0</asrwt>
<pdfrwt beam="1">  1        4 0.13648862E+00 0.11564368E+04</pdfrwt>
<pdfrwt beam="2">  1       -4 0.25478796E+00 0.12032727E+04</pdfrwt>
<totfact> 0.22634279E-01</totfact>
</mgrwt>
</event>
<event>
 8    1  0.3025584E-006  0.1373092E+04  0.7818608E-02  0.8529388E-01
         -4   -1    0    0    0  501 -0.00000000000E+00  0.00000000000E+00  0.22090192738E+04  0.22090192738E+04  0.00000000000E+00 0. -1.
          4   -1    0    0  502    0  0.00000000000E+00 -0.00000000000E+00 -0.10463425505E+04  0.10463425505E+04  0.00000000000E+00 0.  1.
   -9000010    2    1    2    0  501  0.31602124650E+03 -0.42305953672E+03  0.13865428416E+04  0.18641399311E+04  0.11285689307E+04 0.  0.
    9000010    2    1    2  502    0 -0.31602124650E+03  0.42305953672E+03 -0.22386611828E+03  0.13912218932E+04  0.12674910324E+04 0.  0.
        -13    1    4    4    0    0 -0.33263153444E+03  0.74226593443E+03 -0.51180682857E+03  0.96101440991E+03  0.10566000000E+00 0.  1.
          4    1    4    4  502    0  0.16610287937E+02 -0.31920639771E+03  0.28794071029E+03  0.43020748325E+03  0.00000000000E+00 0.  1.
         13    1    3    3    0    0 -0.14044716350E+03  0.22841734558E+02  0.11870785462E+04  0.11955762781E+04  0.10566000000E+00 0. -1.
         -4    1    3    3    0  501  0.45646841001E+03 -0.44590127128E+03  0.19946429538E+03  0.66856365306E+03  0.00000000000E+00 0. -1.
<mgrwt>
<rscale>  0 0.13080035E+04</rscale>
<asrwt>0</asrwt>
<pdfrwt beam="2">  1        4 0.16097578E+00 0.13730922E+04</pdfrwt>
<pdfrwt beam="1">  1       -4 0.33984912E+00 0.12460003E+04</pdfrwt>
<totfact> 0.10486226E-01</totfact>
</mgrwt>
</event>
<event>
 8    1  0.3025584E-006  0.1126154E+04  0.7818608E-02  0.8677474E-01
          4   -1    0    0  502    0  0.00000000000E+00  0.00000000000E+00  0.12870823862E+04  0.12870823862E+04  0.00000000000E+00 0.  1.
         -4   -1    0    0    0  501 -0.00000000000E+00 -0.00000000000E+00 -0.26831427193E+04  0.26831427193E+04  0.00000000000E+00 0. -1.
   -9000010    2    1    2    0  501 -0.17474191871E+03 -0.43101394000E+03 -0.22862784481E+04  0.25347076926E+04  0.99063928340E+03 0.  0.
    9000010    2    1    2  502    0  0.17474191871E+03  0.43101394000E+03  0.89021811499E+03  0.14355174129E+04  0.10256286832E+04 0.  0.
        -13    1    4    4    0    0  0.25349435205E+03 -0.22553791872E+03  0.16402046703E+02  0.33969954019E+03  0.10566000000E+00 0.  1.
          4    1    4    4  502    0 -0.78752433343E+02  0.65655185872E+03  0.87381606829E+03  0.10958178727E+04  0.00000000000E+00 0.  1.
         13    1    3    3    0    0  0.31490919731E+03 -0.29801634909E+02 -0.14596639436E+04  0.14935443681E+04  0.10566000000E+00 0. -1.
         -4    1    3    3    0  501 -0.48965111602E+03 -0.40121230509E+03 -0.82661450448E+03  0.10411633245E+04  0.00000000000E+00 0. -1.
<mgrwt>
<rscale>  0 0.11101546E+04</rscale>
<asrwt>0</asrwt>
<pdfrwt beam="1">  1        4 0.19801268E+00 0.11261536E+04</pdfrwt>
<pdfrwt beam="2">  1       -4 0.41279118E+00 0.10943829E+04</pdfrwt>
<totfact> 0.42952891E-02</totfact>
</mgrwt>
</event>
<event>
 8    1  0.3025584E-006  0.1328821E+04  0.7818608E-02  0.8598944E-01
         -4   -1    0    0    0  501 -0.00000000000E+00  0.00000000000E+00  0.23333941632E+04  0.23333941632E+04  0.00000000000E+00 0. -1.
          4   -1    0    0  502    0  0.00000000000E+00 -0.00000000000E+00 -0.88954752890E+03  0.88954752890E+03  0.00000000000E+00 0.  1.
   -9000010    2    1    2    0  501 -0.31111151909E+03 -0.37691388191E+03  0.16323400113E+04  0.21048276414E+04  0.12356824171E+04 0.  0.
    9000010    2    1    2  502    0  0.31111151909E+03  0.37691388191E+03 -0.18849337701E+03  0.11181140507E+04  0.98782327644E+03 0.  0.
        -13    1    4    4    0    0  0.63593105547E+03  0.79413793363E+02 -0.21728580365E+03  0.67670376792E+03  0.10566000000E+00 0.  1.
          4    1    4    4  502    0 -0.32481953638E+03  0.29750008855E+03  0.28792426636E+02  0.44141028276E+03  0.00000000000E+00 0.  1.
         13    1    3    3    0    0  0.39297083864E+03 -0.44582001352E+03  0.95871636902E+03  0.11279710333E+04  0.10566000000E+00 0. -1.
         -4    1    3    3    0  501 -0.70408235773E+03  0.68906131610E+02  0.67362364231E+03  0.97685660816E+03  0.00000000000E+00 0. -1.
<mgrwt>
<rscale>  0 0.12101689E+04</rscale>
<asrwt>0</asrwt>
<pdfrwt beam="2">  1        4 0.13685347E+00 0.11021113E+04</pdfrwt>
<pdfrwt beam="1">  1       -4 0.35898372E+00 0.13288211E+04</pdfrwt>
<totfact> 0.11441132E-01</totfact>
</mgrwt>
</event>
<event>
 8    1  0.3025584E-006  0.1206042E+04  0.7818608E-02  0.8604125E-01
         -4   -1    0    0    0  501 -0.00000000000E+00  0.00000000000E+00  0.37218862330E+04  0.37218862330E+04  0.00000000000E+00 0. -1.
          4   -1    0    0  502    0  0.00000000000E+00 -0.00000000000E+00 -0.58455375412E+03  0.58455375412E+03  0.00000000000E+00 0.  1.
   -9000010    2    1    2    0  501 -0.58786846053E+03  0.28068689660E+03  0.28116514295E+04  0.30571978404E+04  0.10083156318E+04 0.  0.
    9000010    2    1    2  502    0  0.58786846053E+03 -0.28068689660E+03  0.32568104937E+03  0.12492421467E+04  0.10149696224E+04 0.  0.
        -13    1    4    4    0    0  0.14666831692E+03 -0.59076075354E+03 -0.19427646156E+02  0.60900517872E+03  0.10566000000E+00 0.  1.
          4    1    4    4  502    0  0.44120014360E+03  0.31007385694E+03  0.34510869553E+03  0.64023696801E+03  0.00000000000E+00 0.  1.
         13    1    3    3    0    0 -0.76760106562E+03  0.44333571907E+03  0.25539387897E+04  0.27033981040E+04  0.10566000000E+00 0. -1.
         -4    1    3    3    0  501  0.17973260509E+03 -0.16264882247E+03  0.25771263981E+03  0.35379973644E+03  0.00000000000E+00 0. -1.
<mgrwt>
<rscale>  0 0.12032417E+04</rscale>
<asrwt>0</asrwt>
<pdfrwt beam="2">  1        4 0.89931349E-01 0.12060422E+04</pdfrwt>
<pdfrwt beam="1">  1       -4 0.57259787E+00 0.12004478E+04</pdfrwt>
<totfact> 0.26247060E-02</totfact>
</mgrwt>
</event>
<event>
 8    1  0.3025584E-006  0.1062200E+04  0.7818608E-02  0.8723580E-01
         -4   -1    0    0    0  501 -0.00000000000E+00  0.00000000000E+00  0.82266141309E+03  0.82266141309E+03  0.00000000000E+00 0. -1.
          4   -1    0    0  502    0  0.00000000000E+00 -0.00000000000E+00 -0.14234271590E+04  0.14234271590E+04  0.00000000000E+00 0.  1.
   -9000010    2    1    2    0  501 -0.32234508776E+03  0.14671128061E+03 -0.54072291401E+02  0.10514582379E+04  0.98853935579E+03 0.  0.
    9000010    2    1    2  502    0  0.32234508776E+03 -0.14671128061E+03 -0.54669345447E+03  0.11946303341E+04  0.10014176684E+04 0.  0.
        -13    1    4    4    0    0  0.57297337265E+03  0.93938547895E+02 -0.42323701062E+02  0.58216341639E+03  0.10566000000E+00 0.  1.
          4    1    4    4  502    0 -0.25062828489E+03 -0.24064982851E+03 -0.50436975341E+03  0.61246691772E+03  0.00000000000E+00 0.  1.
         13    1    3    3    0    0  0.15935062283E+03 -0.27186632718E+03  0.19028728378E+03  0.36812115177E+03  0.10566000000E+00 0. -1.
         -4    1    3    3    0  501 -0.48169571059E+03  0.41857760779E+03 -0.24435957518E+03  0.68333708616E+03  0.00000000000E+00 0. -1.
<mgrwt>
<rscale>  0 0.10561158E+04</rscale>
<asrwt>0</asrwt>
<pdfrwt beam="2">  1        4 0.21898879E+00 0.10621996E+04</pdfrwt>
<pdfrwt beam="1">  1       -4 0.12656329E+00 0.10500670E+04</pdfrwt>
<totfact> 0.31352690E-01</totfact>
</mgrwt>
</event>
<event>
 8    1  0.3025584E-006  0.1036276E+04  0.7818608E-02  0.8741937E-01
          4   -1    0    0  502    0  0.00000000000E+00  0.00000000000E+00  0.48962262438E+04  0.48962262438E+04  0.00000000000E+00 0.  1.
         -4   -1    0    0    0  501 -0.00000000000E+00 -0.00000000000E+00 -0.27316904100E+04  0.27316904100E+04  0.00000000000E+00 0. -1.
   -9000010    2    1    2    0  501 -0.22791210300E+03 -0.16767827167E+03 -0.25756827618E+04  0.27757479612E+04  0.99527640641E+03 0.  0.
    9000010    2    1    2  502    0  0.22791210300E+03  0.16767827167E+03  0.47402185956E+04  0.48521686927E+04  0.99689957272E+03 0.  0.
        -13    1    4    4    0    0  0.28193476844E+03  0.21744157292E+03  0.47622071611E+04  0.47754984146E+04  0.10566000000E+00 0.  1.
          4    1    4    4  502    0 -0.54022665442E+02 -0.49763301258E+02 -0.21988565439E+02  0.76670278098E+02  0.00000000000E+00 0.  1.
         13    1    3    3    0    0  0.22775973232E+03 -0.26460648995E+03 -0.20230357108E+04  0.20529404737E+04  0.10566000000E+00 0. -1.
         -4    1    3    3    0  501 -0.45567183532E+03  0.96928218279E+02 -0.55264705097E+03  0.72280748747E+03  0.00000000000E+00 0. -1.
<mgrwt>
<rscale>  0 0.10354954E+04</rscale>
<asrwt>0</asrwt>
<pdfrwt beam="1">  1        4 0.75326557E+00 0.10362764E+04</pdfrwt>
<pdfrwt beam="2">  1       -4 0.42026006E+00 0.10347150E+04</pdfrwt>
<totfact> 0.17985034E-04</totfact>
</mgrwt>
</event>
<event>
 8    1  0.3025584E-006  0.1144398E+04  0.7818608E-02  0.8653959E-01
         -4   -1    0    0    0  501 -0.00000000000E+00  0.00000000000E+00  0.23563785118E+04  0.23563785118E+04  0.00000000000E+00 0. -1.
          4   -1    0    0  502    0  0.00000000000E+00 -0.00000000000E+00 -0.12866681649E+04  0.12866681649E+04  0.00000000000E+00 0.  1.
   -9000010    2    1    2    0  501  0.37161587658E+02  0.55862029899E+03  0.19115051138E+04  0.22223904091E+04  0.98576351535E+03 0.  0.
    9000010    2    1    2  502    0 -0.37161587658E+02 -0.55862029899E+03 -0.84179476687E+03  0.14206562677E+04  0.99810228903E+03 0.  0.
        -13    1    4    4    0    0 -0.13127681974E+03 -0.67512662674E+02  0.20962384511E+03  0.25638590177E+03  0.10566000000E+00 0.  1.
          4    1    4    4  502    0  0.94115232078E+02 -0.49110763632E+03 -0.10514186120E+04  0.11642703659E+04  0.00000000000E+00 0.  1.
         13    1    3    3    0    0  0.25297551868E+03  0.37064389449E+03  0.18818995742E+04  0.19346626394E+04  0.10566000000E+00 0. -1.
         -4    1    3    3    0  501 -0.21581393102E+03  0.18797640450E+03  0.29605539556E+02  0.28772776968E+03  0.00000000000E+00 0. -1.
<mgrwt>
<rscale>  0 0.11390122E+04</rscale>
<asrwt>0</asrwt>
<pdfrwt beam="2">  1        4 0.19794895E+00 0.11443976E+04</pdfrwt>
<pdfrwt beam="1">  1       -4 0.36251977E+00 0.11336522E+04</pdfrwt>
<totfact> 0.66826347E-02</totfact>
</mgrwt>
</event>
<event>
 8    1  0.3025584E-006  0.1255628E+04  0.7818608E-02  0.8570008E-01
         -4   -1    0    0    0  501 -0.00000000000E+00  0.00000000000E+00  0.13929992604E+04  0.13929992604E+04  0.00000000000E+00 0. -1.
          4   -1    0    0  502    0  0.00000000000E+00 -0.00000000000E+00 -0.28712593577E+04  0.28712593577E+04  0.00000000000E+00 0.  1.
   -9000010    2    1    2    0  501 -0.28159001295E+03 -0.69849449274E+03  0.92405460377E+03  0.15589989817E+04  0.10046956864E+04 0.  0.
    9000010    2    1    2  502    0  0.28159001295E+03  0.69849449274E+03 -0.24023147010E+04  0.27052596365E+04  0.99001327580E+03 0.  0.
        -13    1    4    4    0    0  0.25208341262E+03  0.68313635419E+03 -0.72475777883E+03  0.10273729481E+04  0.10566000000E+00 0.  1.
          4    1    4    4  502    0  0.29506600328E+02  0.15358138548E+02 -0.16775569222E+04  0.16778866884E+04  0.00000000000E+00 0.  1.
         13    1    3    3    0    0 -0.49670262930E+02  0.11023471512E+03 -0.15127400962E+03  0.19365604713E+03  0.10566000000E+00 0. -1.
         -4    1    3    3    0  501 -0.23191975002E+03 -0.80872920786E+03  0.10753286134E+04  0.13653429345E+04  0.00000000000E+00 0. -1.
<mgrwt>
<rscale>  0 0.12497555E+04</rscale>
<asrwt>0</asrwt>
<pdfrwt beam="2">  1        4 0.44173221E+00 0.12439107E+04</pdfrwt>
<pdfrwt beam="1">  1       -4 0.21430758E+00 0.12556277E+04</pdfrwt>
<totfact> 0.28634001E-02</totfact>
</mgrwt>
</event>
<event>
 8    1  0.3025584E-006  0.1186043E+04  0.7818608E-02  0.8760893E-01
         -4   -1    0    0    0  501 -0.00000000000E+00  0.00000000000E+00  0.10586263907E+04  0.10586263907E+04  0.00000000000E+00 0. -1.
          4   -1    0    0  502    0  0.00000000000E+00 -0.00000000000E+00 -0.11336739915E+04  0.11336739915E+04  0.00000000000E+00 0.  1.
   -9000010    2    1    2    0  501 -0.27740181507E+03 -0.23900591833E+03  0.34486643043E+03  0.93411696720E+03  0.78712518545E+03 0.  0.
    9000010    2    1    2  502    0  0.27740181507E+03  0.23900591833E+03 -0.41991403120E+03  0.12581834150E+04  0.11281055430E+04 0.  0.
        -13    1    4    4    0    0 -0.27930856286E+03  0.46693460733E+03 -0.37560486510E+02  0.54539160437E+03  0.10566000000E+00 0.  1.
          4    1    4    4  502    0  0.55671037792E+03 -0.22792868899E+03 -0.38235354469E+03  0.71279181062E+03  0.00000000000E+00 0.  1.
         13    1    3    3    0    0  0.23861925524E+03  0.80056275169E+02  0.39043344879E+02  0.25470090323E+03  0.10566000000E+00 0. -1.
         -4    1    3    3    0  501 -0.51602107030E+03 -0.31906219350E+03  0.30582308555E+03  0.67941606397E+03  0.00000000000E+00 0. -1.
<mgrwt>
<rscale>  0 0.10147088E+04</rscale>
<asrwt>0</asrwt>
<pdfrwt beam="2">  1        4 0.17441138E+00 0.11860429E+04</pdfrwt>
<pdfrwt beam="1">  1       -4 0.16286560E+00 0.86812537E+03</pdfrwt>
<totfact> 0.28922424E-01</totfact>
</mgrwt>
</event>
<event>
 8    1  0.3025584E-006  0.1294616E+04  0.7818608E-02  0.8549506E-01
          4   -1    0    0  502    0  0.00000000000E+00  0.00000000000E+00  0.13556682973E+04  0.13556682973E+04  0.00000000000E+00 0.  1.
         -4   -1    0    0    0  501 -0.00000000000E+00 -0.00000000000E+00 -0.16478112410E+04  0.16478112410E+04  0.00000000000E+00 0. -1.
   -9000010    2    1    2    0  501  0.75875131232E+03 -0.30634353684E+03 -0.92197343056E+03  0.15637858073E+04  0.96220638528E+03 0.  0.
    9000010    2    1    2  502    0 -0.75875131232E+03  0.30634353684E+03  0.62983048685E+03  0.14396937311E+04  0.10032356057E+04 0.  0.
        -13    1    4    4    0    0 -0.48644928205E+03  0.18248438099E+03  0.89830994737E+03  0.10377351425E+04  0.10566000000E+00 0.  1.
          4    1    4    4  502    0 -0.27230203028E+03  0.12385915585E+03 -0.26847946052E+03  0.40195858854E+03  0.00000000000E+00 0.  1.
         13    1    3    3    0    0  0.37239559584E+03 -0.46974139035E+03 -0.56615822377E+02  0.60211362393E+03  0.10566000000E+00 0. -1.
         -4    1    3    3    0  501  0.38635571648E+03  0.16339785351E+03 -0.86535760818E+03  0.96167218335E+03  0.00000000000E+00 0. -1.
<mgrwt>
<rscale>  0 0.12787550E+04</rscale>
<asrwt>0</asrwt>
<pdfrwt beam="1">  1        4 0.20856435E+00 0.12946164E+04</pdfrwt>
<pdfrwt beam="2">  1       -4 0.25350942E+00 0.12630879E+04</pdfrwt>
<totfact> 0.12516275E-01</totfact>
</mgrwt>
</event>
<event>
 8    1  0.3025584E-006  0.1137625E+04  0.7818608E-02  0.8658347E-01
          4   -1    0    0  502    0  0.00000000000E+00  0.00000000000E+00  0.19342020299E+04  0.19342020299E+04  0.00000000000E+00 0.  1.
         -4   -1    0    0    0  501 -0.00000000000E+00 -0.00000000000E+00 -0.66508519574E+03  0.66508519574E+03  0.00000000000E+00 0. -1.
   -9000010    2    1    2    0  501  0.43431274263E+03  0.33797575758E+03  0.59340455563E+03  0.12830898970E+04  0.99565834804E+03 0.  0.
    9000010    2    1    2  502    0 -0.43431274263E+03 -0.33797575758E+03  0.67571227851E+03  0.13161973286E+04  0.98637373922E+03 0.  0.
        -13    1    4    4    0    0 -0.55255697850E+03  0.18580240554E+03  0.26599818487E+03  0.64077827204E+03  0.10566000000E+00 0.  1.
          4    1    4    4  502    0  0.11824423587E+03 -0.52377816312E+03  0.40971409364E+03  0.67541905659E+03  0.00000000000E+00 0.  1.
         13    1    3    3    0    0  0.63669176486E+02 -0.14591188390E+03 -0.21694696519E+03  0.26909113468E+03  0.10566000000E+00 0. -1.
         -4    1    3    3    0  501  0.37064356615E+03  0.48388764147E+03  0.81035152081E+03  0.10139987623E+04  0.00000000000E+00 0. -1.
<mgrwt>
<rscale>  0 0.11335593E+04</rscale>
<asrwt>0</asrwt>
<pdfrwt beam="1">  1        4 0.29756954E+00 0.11295080E+04</pdfrwt>
<pdfrwt beam="2">  1       -4 0.10232080E+00 0.11376250E+04</pdfrwt>
<totfact> 0.29091677E-01</totfact>
</mgrwt>
</event>
<event>
 8    1  0.3025584E-006  0.1386562E+04  0.7818608E-02  0.8478684E-01
         -4   -1    0    0    0  501 -0.00000000000E+00  0.00000000000E+00  0.16778258576E+04  0.16778258576E+04  0.00000000000E+00 0. -1.
          4   -1    0    0  502    0  0.00000000000E+00 -0.00000000000E+00 -0.25045271794E+04  0.25045271794E+04  0.00000000000E+00 0.  1.
   -9000010    2    1    2    0  501 -0.85328650802E+03 -0.45881319099E+03  0.11281503703E+04  0.17856890398E+04  0.98861250227E+03 0.  0.
    9000010    2    1    2  502    0  0.85328650802E+03  0.45881319099E+03 -0.19548516921E+04  0.23966639972E+04  0.99194040567E+03 0.  0.
        -13    1    4    4    0    0  0.63452802027E+03  0.19787133725E+03 -0.34052653838E+03  0.74681805623E+03  0.10566000000E+00 0.  1.
          4    1    4    4  502    0  0.21875848775E+03  0.26094185374E+03 -0.16143251537E+04  0.16498459410E+04  0.00000000000E+00 0.  1.
         13    1    3    3    0    0 -0.56949092716E+03 -0.66582349274E+03  0.11356397180E+04  0.14343355325E+04  0.10566000000E+00 0. -1.
         -4    1    3    3    0  501 -0.28379558086E+03  0.20701030175E+03 -0.74893476236E+01  0.35135350727E+03  0.00000000000E+00 0. -1.
<mgrwt>
<rscale>  0 0.13853717E+04</rscale>
<asrwt>0</asrwt>
<pdfrwt beam="2">  1        4 0.38531187E+00 0.13865616E+04</pdfrwt>
<pdfrwt beam="1">  1       -4 0.25812706E+00 0.13841828E+04</pdfrwt>
<totfact> 0.37695531E-02</totfact>
</mgrwt>
</event>
<event>
 8    1  0.3025584E-006  0.1330287E+04  0.7818608E-02  0.8518643E-01
         -4   -1    0    0    0  501 -0.00000000000E+00  0.00000000000E+00  0.21100948968E+04  0.21100948968E+04  0.00000000000E+00 0. -1.
          4   -1    0    0  502    0  0.00000000000E+00 -0.00000000000E+00 -0.17403718847E+04  0.17403718847E+04  0.00000000000E+00 0.  1.
   -9000010    2    1    2    0  501  0.82351859135E+03  0.29225071090E+03  0.15763072643E+04  0.20544967683E+04  0.98621449545E+03 0.  0.
    9000010    2    1    2  502    0 -0.82351859135E+03 -0.29225071090E+03 -0.12065842522E+04  0.17959700132E+04  0.10030301004E+04 0.  0.
        -13    1    4    4    0    0 -0.79879395325E+03 -0.26379398128E+03 -0.13812655570E+04  0.16172673232E+04  0.10566000000E+00 0.  1.
          4    1    4    4  502    0 -0.24724638097E+02 -0.28456729621E+02  0.17468130480E+03  0.17870269007E+03  0.00000000000E+00 0.  1.
         13    1    3    3    0    0  0.77694058204E+03 -0.16274063473E+03  0.12907370570E+04  0.15152964541E+04  0.10566000000E+00 0. -1.
         -4    1    3    3    0  501  0.46578009308E+02  0.45499134564E+03  0.28557020733E+03  0.53920031423E+03  0.00000000000E+00 0. -1.
<mgrwt>
<rscale>  0 0.13239553E+04</rscale>
<asrwt>0</asrwt>
<pdfrwt beam="2">  1        4 0.26774952E+00 0.13302867E+04</pdfrwt>
<pdfrwt beam="1">  1       -4 0.32462999E+00 0.13176541E+04</pdfrwt>
<totfact> 0.58105879E-02</totfact>
</mgrwt>
</event>
<event>
 8    1  0.3025584E-006  0.1074373E+04  0.7818608E-02  0.8735585E-01
         -4   -1    0    0    0  501 -0.00000000000E+00  0.00000000000E+00  0.23184007118E+04  0.23184007118E+04  0.00000000000E+00 0. -1.
          4   -1    0    0  502    0  0.00000000000E+00 -0.00000000000E+00 -0.37947770150E+04  0.37947770150E+04  0.00000000000E+00 0.  1.
   -9000010    2    1    2    0  501 -0.22552971390E+03  0.30279384245E+03  0.21202748592E+04  0.23769399068E+04  0.10058479404E+04 0.  0.
    9000010    2    1    2  502    0  0.22552971390E+03 -0.30279384245E+03 -0.35966511625E+04  0.37362378200E+04  0.93862969270E+03 0.  0.
        -13    1    4    4    0    0 -0.32466908551E+03  0.45875144104E+02 -0.16864801626E+04  0.17180599215E+04  0.10566000000E+00 0.  1.
          4    1    4    4  502    0  0.55019879941E+03 -0.34866898656E+03 -0.19101709999E+04  0.20181778985E+04  0.00000000000E+00 0.  1.
         13    1    3    3    0    0 -0.60677382446E+03  0.34746437009E+02  0.12380079238E+04  0.13791466273E+04  0.10566000000E+00 0. -1.
         -4    1    3    3    0  501  0.38124411056E+03  0.26804740544E+03  0.88226693540E+03  0.99779327954E+03  0.00000000000E+00 0. -1.
<mgrwt>
<rscale>  0 0.10425751E+04</rscale>
<asrwt>0</asrwt>
<pdfrwt beam="2">  1        4 0.58381184E+00 0.10117181E+04</pdfrwt>
<pdfrwt beam="1">  1       -4 0.35667704E+00 0.10743732E+04</pdfrwt>
<totfact> 0.24781534E-03</totfact>
</mgrwt>
</event>
<event>
 8    1  0.3025584E-006  0.1145327E+04  0.7818608E-02  0.8664269E-01
          4   -1    0    0  502    0  0.00000000000E+00  0.00000000000E+00  0.49016404589E+04  0.49016404589E+04  0.00000000000E+00 0.  1.
         -4   -1    0    0    0  501 -0.00000000000E+00 -0.00000000000E+00 -0.48092819267E+03  0.48092819267E+03  0.00000000000E+00 0. -1.
   -9000010    2    1    2    0  501 -0.15803180779E+02 -0.42137162337E+03  0.40165491615E+03  0.12137135899E+04  0.10648803788E+04 0.  0.
    9000010    2    1    2  502    0  0.15803180779E+02  0.42137162337E+03  0.40190573501E+04  0.41688550617E+04  0.10240736090E+04 0.  0.
        -13    1    4    4    0    0  0.12214219940E+03  0.32691882865E+02 -0.31811920714E+01  0.12648164779E+03  0.10566000000E+00 0.  1.
          4    1    4    4  502    0 -0.10633901862E+03  0.38867974051E+03  0.40222385421E+04  0.40423734139E+04  0.00000000000E+00 0.  1.
         13    1    3    3    0    0 -0.50728340979E+03 -0.33860929312E+02  0.26404882928E+03  0.57289162657E+03  0.10566000000E+00 0. -1.
         -4    1    3    3    0  501  0.49148022901E+03 -0.38751069406E+03  0.13760608688E+03  0.64082196331E+03  0.00000000000E+00 0. -1.
<mgrwt>
<rscale>  0 0.11262488E+04</rscale>
<asrwt>0</asrwt>
<pdfrwt beam="1">  1        4 0.75409850E+00 0.11074884E+04</pdfrwt>
<pdfrwt beam="2">  1       -4 0.73988956E-01 0.11453270E+04</pdfrwt>
<totfact> 0.43167381E-03</totfact>
</mgrwt>
</event>
<event>
 8    1  0.3025584E-006  0.1349875E+04  0.7818608E-02  0.8516285E-01
         -4   -1    0    0    0  501 -0.00000000000E+00  0.00000000000E+00  0.85355919765E+03  0.85355919765E+03  0.00000000000E+00 0. -1.
          4   -1    0    0  502    0  0.00000000000E+00 -0.00000000000E+00 -0.24821337334E+04  0.24821337334E+04  0.00000000000E+00 0.  1.
   -9000010    2    1    2    0  501  0.32654060470E+02 -0.83353669986E+03 -0.14208500634E+03  0.13573318540E+04  0.10612784250E+04 0.  0.
    9000010    2    1    2  502    0 -0.32654060470E+02  0.83353669986E+03 -0.14864895294E+04  0.19783610770E+04  0.10041970485E+04 0.  0.
        -13    1    4    4    0    0 -0.11564743243E+03 -0.18481437621E+03 -0.64480406810E+02  0.22735086608E+03  0.10566000000E+00 0.  1.
          4    1    4    4  502    0  0.82993371964E+02  0.10183510761E+04 -0.14220091226E+04  0.17510102109E+04  0.00000000000E+00 0.  1.
         13    1    3    3    0    0  0.16289542718E+03 -0.43126965418E+03 -0.58511810887E+03  0.74491049617E+03  0.10566000000E+00 0. -1.
         -4    1    3    3    0  501 -0.13024136671E+03 -0.40226704568E+03  0.44303310253E+03  0.61242135788E+03  0.00000000000E+00 0. -1.
<mgrwt>
<rscale>  0 0.13274885E+04</rscale>
<asrwt>0</asrwt>
<pdfrwt beam="2">  1        4 0.38186673E+00 0.13054736E+04</pdfrwt>
<pdfrwt beam="1">  1       -4 0.13131680E+00 0.13498747E+04</pdfrwt>
<totfact> 0.10068403E-01</totfact>
</mgrwt>
</event>
<event>
 8    1  0.3025584E-006  0.1157691E+04  0.7818608E-02  0.8648428E-01
         -4   -1    0    0    0  501 -0.00000000000E+00  0.00000000000E+00  0.36040397852E+04  0.36040397852E+04  0.00000000000E+00 0. -1.
          4   -1    0    0  502    0  0.00000000000E+00 -0.00000000000E+00 -0.65882402196E+03  0.65882402196E+03  0.00000000000E+00 0.  1.
   -9000010    2    1    2    0  501 -0.41765648735E+03  0.34524256253E+03  0.28891258784E+04  0.31038150224E+04  0.99648882770E+03 0.  0.
    9000010    2    1    2  502    0  0.41765648735E+03 -0.34524256253E+03  0.56089884794E+02  0.11590487847E+04  0.10230438122E+04 0.  0.
        -13    1    4    4    0    0  0.69039059948E+03 -0.48512630492E+03 -0.16903933468E+02  0.84396236036E+03  0.10566000000E+00 0.  1.
          4    1    4    4  502    0 -0.27273411213E+03  0.13988374238E+03  0.72993818263E+02  0.31508642434E+03  0.00000000000E+00 0.  1.
         13    1    3    3    0    0 -0.62990054971E+03  0.54174197678E+03  0.19102800137E+04  0.20831295720E+04  0.10566000000E+00 0. -1.
         -4    1    3    3    0  501  0.21224406235E+03 -0.19649941425E+03  0.97884586474E+03  0.10206854504E+04  0.00000000000E+00 0. -1.
<mgrwt>
<rscale>  0 0.11459319E+04</rscale>
<asrwt>0</asrwt>
<pdfrwt beam="2">  1        4 0.10135754E+00 0.11576908E+04</pdfrwt>
<pdfrwt beam="1">  1       -4 0.55446765E+00 0.11342924E+04</pdfrwt>
<totfact> 0.26455236E-02</totfact>
</mgrwt>
</event>
<event>
 8    1  0.3025584E-006  0.1659140E+04  0.7818608E-02  0.8365329E-01
         -4   -1    0    0    0  501 -0.00000000000E+00  0.00000000000E+00  0.29152803483E+04  0.29152803483E+04  0.00000000000E+00 0. -1.
          4   -1    0    0  502    0  0.00000000000E+00 -0.00000000000E+00 -0.14630059437E+04  0.14630059437E+04  0.00000000000E+00 0.  1.
   -9000010    2    1    2    0  501 -0.11040096352E+04 -0.72675291147E+03  0.21544546950E+04  0.27192686109E+04  0.10028657320E+04 0.  0.
    9000010    2    1    2  502    0  0.11040096352E+04  0.72675291147E+03 -0.70218029043E+03  0.16590176811E+04  0.71573419451E+03 0.  0.
        -13    1    4    4    0    0  0.88843582822E+03  0.28823111156E+03 -0.70523447507E+03  0.11703636488E+04  0.10566000000E+00 0.  1.
          4    1    4    4  502    0  0.21557380695E+03  0.43852179991E+03  0.30541846398E+01  0.48865403230E+03  0.00000000000E+00 0.  1.
         13    1    3    3    0    0 -0.86860385582E+03 -0.32827809836E+03  0.20416651586E+04  0.22429078892E+04  0.10566000000E+00 0. -1.
         -4    1    3    3    0  501 -0.23540577934E+03 -0.39847481311E+03  0.11278953634E+03  0.47636072166E+03  0.00000000000E+00 0. -1.
<mgrwt>
<rscale>  0 0.15791893E+04</rscale>
<asrwt>0</asrwt>
<pdfrwt beam="2">  1        4 0.22507784E+00 0.15030910E+04</pdfrwt>
<pdfrwt beam="1">  1       -4 0.44850467E+00 0.16591404E+04</pdfrwt>
<totfact> 0.24049779E-02</totfact>
</mgrwt>
</event>
<event>
 8    1  0.3025584E-006  0.1139535E+04  0.7818608E-02  0.8654525E-01
          4   -1    0    0  502    0  0.00000000000E+00  0.00000000000E+00  0.18824683573E+04  0.18824683573E+04  0.00000000000E+00 0.  1.
         -4   -1    0    0    0  501 -0.00000000000E+00 -0.00000000000E+00 -0.19274296426E+04  0.19274296426E+04  0.00000000000E+00 0. -1.
   -9000010    2    1    2    0  501  0.20434154710E+03  0.48693761545E+03 -0.15498744125E+04  0.19237077994E+04  0.10097907178E+04 0.  0.
    9000010    2    1    2  502    0 -0.20434154710E+03 -0.48693761545E+03  0.15049131273E+04  0.18861902004E+04  0.10070184915E+04 0.  0.
        -13    1    4    4    0    0 -0.36910982198E+03 -0.72800555127E+03  0.12778872218E+04  0.15163211752E+04  0.10566000000E+00 0.  1.
          4    1    4    4  502    0  0.16476827488E+03  0.24106793582E+03  0.22702590547E+03  0.36986902525E+03  0.00000000000E+00 0.  1.
         13    1    3    3    0    0 -0.24015696160E+02 -0.30453119865E+03 -0.31072982564E+03  0.43573964740E+03  0.10566000000E+00 0. -1.
         -4    1    3    3    0  501  0.22835724326E+03  0.79146881410E+03 -0.12391445869E+04  0.14879681520E+04  0.00000000000E+00 0. -1.
<mgrwt>
<rscale>  0 0.11383068E+04</rscale>
<asrwt>0</asrwt>
<pdfrwt beam="1">  1        4 0.28961052E+00 0.11370796E+04</pdfrwt>
<pdfrwt beam="2">  1       -4 0.29652764E+00 0.11395354E+04</pdfrwt>
<totfact> 0.62329464E-02</totfact>
</mgrwt>
</event>
<event>
 8    1  0.3025584E-006  0.1050550E+04  0.7818608E-02  0.8741369E-01
          4   -1    0    0  502    0  0.00000000000E+00  0.00000000000E+00  0.14326382105E+04  0.14326382105E+04  0.00000000000E+00 0.  1.
         -4   -1    0    0    0  501 -0.00000000000E+00 -0.00000000000E+00 -0.23528384800E+04  0.23528384800E+04  0.00000000000E+00 0. -1.
   -9000010    2    1    2    0  501 -0.21991613529E+03 -0.87297607521E+02 -0.20245318637E+04  0.22808736281E+04  0.10235581377E+04 0.  0.
    9000010    2    1    2  502    0  0.21991613529E+03  0.87297607521E+02  0.11043315941E+04  0.15046030624E+04  0.99413184578E+03 0.  0.
        -13    1    4    4    0    0 -0.43413048493E+01 -0.63136710757E+02  0.12121740837E+04  0.12138249922E+04  0.10566000000E+00 0.  1.
          4    1    4    4  502    0  0.22425744014E+03  0.15043431828E+03 -0.10784248960E+03  0.29077807025E+03  0.00000000000E+00 0.  1.
         13    1    3    3    0    0 -0.29135610318E+03 -0.10844608164E+03 -0.21295436834E+04  0.21521164564E+04  0.10566000000E+00 0. -1.
         -4    1    3    3    0  501  0.71439967885E+02  0.21148474123E+02  0.10501181971E+03  0.12875717163E+03  0.00000000000E+00 0. -1.
<mgrwt>
<rscale>  0 0.10361266E+04</rscale>
<asrwt>0</asrwt>
<pdfrwt beam="1">  1        4 0.22040588E+00 0.10219012E+04</pdfrwt>
<pdfrwt beam="2">  1       -4 0.36197515E+00 0.10505500E+04</pdfrwt>
<totfact> 0.59103738E-02</totfact>
</mgrwt>
</event>
<event>
 8    1  0.3025584E-006  0.1097076E+04  0.7818608E-02  0.8698613E-01
         -4   -1    0    0    0  501 -0.00000000000E+00  0.00000000000E+00  0.44069734899E+04  0.44069734899E+04  0.00000000000E+00 0. -1.
          4   -1    0    0  502    0  0.00000000000E+00 -0.00000000000E+00 -0.21180370563E+04  0.21180370563E+04  0.00000000000E+00 0.  1.
   -9000010    2    1    2    0  501  0.37332506412E+03  0.59019781283E+02  0.41958706475E+04  0.43369235838E+04  0.10299129783E+04 0.  0.
    9000010    2    1    2  502    0 -0.37332506412E+03 -0.59019781283E+02 -0.19069342139E+04  0.21880869624E+04  0.10042268274E+04 0.  0.
        -13    1    4    4    0    0 -0.64457428397E+03  0.11829033058E+03 -0.16472234499E+04  0.17727982725E+04  0.10566000000E+00 0.  1.
          4    1    4    4  502    0  0.27124921985E+03 -0.17731011186E+03 -0.25971076398E+03  0.41528868990E+03  0.00000000000E+00 0.  1.
         13    1    3    3    0    0  0.61624393212E+02  0.28133292426E+03  0.27765578831E+03  0.40004815718E+03  0.10566000000E+00 0. -1.
         -4    1    3    3    0  501  0.31170067091E+03 -0.22231314298E+03  0.39182148592E+04  0.39368754266E+04  0.00000000000E+00 0. -1.
<mgrwt>
<rscale>  0 0.10849706E+04</rscale>
<asrwt>0</asrwt>
<pdfrwt beam="2">  1        4 0.32585186E+00 0.10729988E+04</pdfrwt>
<pdfrwt beam="1">  1       -4 0.67799592E+00 0.10970760E+04</pdfrwt>
<totfact> 0.95629905E-04</totfact>
</mgrwt>
</event>
<event>
 8    1  0.3025584E-006  0.1416202E+04  0.7818608E-02  0.8460811E-01
         -4   -1    0    0    0  501 -0.00000000000E+00  0.00000000000E+00  0.82270456877E+03  0.82270456877E+03  0.00000000000E+00 0. -1.
          4   -1    0    0  502    0  0.00000000000E+00 -0.00000000000E+00 -0.29374334765E+04  0.29374334765E+04  0.00000000000E+00 0.  1.
   -9000010    2    1    2    0  501 -0.54301056511E+01  0.99967458289E+03 -0.27742228433E+03  0.14431189178E+04  0.10031202966E+04 0.  0.
    9000010    2    1    2  502    0  0.54301056511E+01 -0.99967458289E+03 -0.18373066234E+04  0.23170191275E+04  0.99674633228E+03 0.  0.
        -13    1    4    4    0    0 -0.27587755216E+03 -0.92773578906E+03 -0.85079433305E+03  0.12886633100E+04  0.10566000000E+00 0.  1.
          4    1    4    4  502    0  0.28130765781E+03 -0.71938793830E+02 -0.98651229037E+03  0.10283558175E+04  0.00000000000E+00 0.  1.
         13    1    3    3    0    0  0.32963015338E+03  0.10126750012E+04 -0.30183323503E+03  0.11069191519E+04  0.10566000000E+00 0. -1.
         -4    1    3    3    0  501 -0.33506025903E+03 -0.13000418267E+02  0.24410950703E+02  0.33619976587E+03  0.00000000000E+00 0. -1.
<mgrwt>
<rscale>  0 0.14139467E+04</rscale>
<asrwt>0</asrwt>
<pdfrwt beam="2">  1        4 0.45191285E+00 0.14116947E+04</pdfrwt>
<pdfrwt beam="1">  1       -4 0.12656993E+00 0.14162023E+04</pdfrwt>
<totfact> 0.53683535E-02</totfact>
</mgrwt>
</event>
<event>
 8    1  0.3025584E-006  0.1102486E+04  0.7818608E-02  0.8717188E-01
         -4   -1    0    0    0  501 -0.00000000000E+00  0.00000000000E+00  0.15919942830E+04  0.15919942830E+04  0.00000000000E+00 0. -1.
          4   -1    0    0  502    0  0.00000000000E+00 -0.00000000000E+00 -0.11612211080E+04  0.11612211080E+04  0.00000000000E+00 0.  1.
   -9000010    2    1    2    0  501 -0.26647822702E+03 -0.14957811951E+00  0.10672074462E+04  0.14802174697E+04  0.99050560647E+03 0.  0.
    9000010    2    1    2  502    0  0.26647822702E+03  0.14957811951E+00 -0.63643427113E+03  0.12729979213E+04  0.10697964565E+04 0.  0.
        -13    1    4    4    0    0  0.59277277321E+03  0.28501654551E+03 -0.47253135380E+03  0.80987646179E+03  0.10566000000E+00 0.  1.
          4    1    4    4  502    0 -0.32629454619E+03 -0.28486696740E+03 -0.16390291733E+03  0.46312145955E+03  0.00000000000E+00 0.  1.
         13    1    3    3    0    0 -0.19973327588E+03  0.17973689333E+03  0.12109965933E+04  0.12404481015E+04  0.10566000000E+00 0. -1.
         -4    1    3    3    0  501 -0.66744951137E+02 -0.17988647145E+03 -0.14378914708E+03  0.23976936821E+03  0.00000000000E+00 0. -1.
<mgrwt>
<rscale>  0 0.10634131E+04</rscale>
<asrwt>0</asrwt>
<pdfrwt beam="2">  1        4 0.17864940E+00 0.11024859E+04</pdfrwt>
<pdfrwt beam="1">  1       -4 0.24492220E+00 0.10257251E+04</pdfrwt>
<totfact> 0.16323800E-01</totfact>
</mgrwt>
</event>
<event>
 8    1  0.3025584E-006  0.1359933E+04  0.7818608E-02  0.8496483E-01
          4   -1    0    0  502    0  0.00000000000E+00  0.00000000000E+00  0.26546695848E+04  0.26546695848E+04  0.00000000000E+00 0.  1.
         -4   -1    0    0    0  501 -0.00000000000E+00 -0.00000000000E+00 -0.95832819431E+03  0.95832819431E+03  0.00000000000E+00 0. -1.
   -9000010    2    1    2    0  501  0.55252257376E+03 -0.73521943933E+03 -0.10113085307E+03  0.13590401813E+04  0.99545665219E+03 0.  0.
    9000010    2    1    2  502    0 -0.55252257376E+03  0.73521943933E+03  0.17974722436E+04  0.22539575978E+04  0.10017931763E+04 0.  0.
        -13    1    4    4    0    0 -0.26265863943E+03  0.81117412923E+03  0.17552031513E+04  0.19513408575E+04  0.10566000000E+00 0.  1.
          4    1    4    4  502    0 -0.28986393433E+03 -0.75954689903E+02  0.42269092257E+02  0.30261674029E+03  0.00000000000E+00 0.  1.
         13    1    3    3    0    0  0.14232150216E+03  0.11215669069E+03  0.28806951491E+03  0.34032130381E+03  0.10566000000E+00 0. -1.
         -4    1    3    3    0  501  0.41020107160E+03 -0.84737613002E+03 -0.38920036798E+03  0.10187188775E+04  0.00000000000E+00 0. -1.
<mgrwt>
<rscale>  0 0.13576007E+04</rscale>
<asrwt>0</asrwt>
<pdfrwt beam="1">  1        4 0.40841070E+00 0.13599332E+04</pdfrwt>
<pdfrwt beam="2">  1       -4 0.14743511E+00 0.13552722E+04</pdfrwt>
<totfact> 0.65933373E-02</totfact>
</mgrwt>
</event>
<event>
 8    1  0.3025584E-006  0.1093044E+04  0.7818608E-02  0.8692073E-01
          4   -1    0    0  502    0  0.00000000000E+00  0.00000000000E+00  0.60792673717E+03  0.60792673717E+03  0.00000000000E+00 0.  1.
         -4   -1    0    0    0  501 -0.00000000000E+00 -0.00000000000E+00 -0.23742589026E+04  0.23742589026E+04  0.00000000000E+00 0. -1.
   -9000010    2    1    2    0  501  0.22316105274E+03 -0.31792181303E+03 -0.15027574014E+04  0.18578116854E+04  0.10209355104E+04 0.  0.
    9000010    2    1    2  502    0 -0.22316105274E+03  0.31792181303E+03 -0.26357476406E+03  0.11243739543E+04  0.10216995636E+04 0.  0.
        -13    1    4    4    0    0 -0.18249854203E+03  0.31645903368E+03 -0.64474116251E+03  0.74104197967E+03  0.10566000000E+00 0.  1.
          4    1    4    4  502    0 -0.40662510706E+02  0.14627793508E+01  0.38116639845E+03  0.38333197467E+03  0.00000000000E+00 0.  1.
         13    1    3    3    0    0 -0.35608902968E+03 -0.35835554058E+03 -0.59899228321E+03  0.78358781067E+03  0.10566000000E+00 0. -1.
         -4    1    3    3    0  501  0.57925008241E+03  0.40433727553E+02 -0.90376511818E+03  0.10742238748E+04  0.00000000000E+00 0. -1.
<mgrwt>
<rscale>  0 0.10926868E+04</rscale>
<asrwt>0</asrwt>
<pdfrwt beam="1">  1        4 0.93527188E-01 0.10930440E+04</pdfrwt>
<pdfrwt beam="2">  1       -4 0.36527061E+00 0.10923298E+04</pdfrwt>
<totfact> 0.21578542E-01</totfact>
</mgrwt>
</event>
<event>
 8    1  0.3025584E-006  0.1367906E+04  0.7818608E-02  0.8499286E-01
         -4   -1    0    0    0  501 -0.00000000000E+00  0.00000000000E+00  0.20311585172E+04  0.20311585172E+04  0.00000000000E+00 0. -1.
          4   -1    0    0  502    0  0.00000000000E+00 -0.00000000000E+00 -0.24720660189E+04  0.24720660189E+04  0.00000000000E+00 0.  1.
   -9000010    2    1    2    0  501  0.59166114443E+03 -0.76106791050E+03  0.15749274986E+04  0.20670886865E+04  0.92907036224E+03 0.  0.
    9000010    2    1    2  502    0 -0.59166114443E+03  0.76106791050E+03 -0.20158350002E+04  0.24361358495E+04  0.97050494853E+03 0.  0.
        -13    1    4    4    0    0 -0.82339951447E+03  0.62104738686E+03 -0.12311734828E+04  0.16060743361E+04  0.10566000000E+00 0.  1.
          4    1    4    4  502    0  0.23173837004E+03  0.14002052364E+03 -0.78466151741E+03  0.83006151344E+03  0.00000000000E+00 0.  1.
         13    1    3    3    0    0  0.48263217250E+03 -0.12545578271E+03  0.12482482809E+04  0.13441713987E+04  0.10566000000E+00 0. -1.
         -4    1    3    3    0  501  0.10902897193E+03 -0.63561212778E+03  0.32667921773E+03  0.72291728780E+03  0.00000000000E+00 0. -1.
<mgrwt>
<rscale>  0 0.13532887E+04</rscale>
<asrwt>0</asrwt>
<pdfrwt beam="2">  1        4 0.38031785E+00 0.13679061E+04</pdfrwt>
<pdfrwt beam="1">  1       -4 0.31248593E+00 0.13388275E+04</pdfrwt>
<totfact> 0.28549871E-02</totfact>
</mgrwt>
</event>
<event>
 8    1  0.3025584E-006  0.1065907E+04  0.7818608E-02  0.8725979E-01
          4   -1    0    0  502    0  0.00000000000E+00  0.00000000000E+00  0.78453216126E+03  0.78453216126E+03  0.00000000000E+00 0.  1.
         -4   -1    0    0    0  501 -0.00000000000E+00 -0.00000000000E+00 -0.22467087433E+04  0.22467087433E+04  0.00000000000E+00 0. -1.
   -9000010    2    1    2    0  501  0.25211444008E+02  0.36821421998E+03 -0.16479909252E+04  0.19492595053E+04  0.97340700672E+03 0.  0.
    9000010    2    1    2  502    0 -0.25211444008E+02 -0.36821421998E+03  0.18581434319E+03  0.10819813992E+04  0.99996972426E+03 0.  0.
        -13    1    4    4    0    0  0.48358046417E+03 -0.23746123972E+03  0.62260192542E+02  0.54232301116E+03  0.10566000000E+00 0.  1.
          4    1    4    4  502    0 -0.50879190817E+03 -0.13075298026E+03  0.12355415065E+03  0.53965838807E+03  0.00000000000E+00 0.  1.
         13    1    3    3    0    0  0.47910712944E+03  0.31500820349E+03 -0.77708192071E+03  0.96572777344E+03  0.10566000000E+00 0. -1.
         -4    1    3    3    0  501 -0.45389568544E+03  0.53206016489E+02 -0.87090900452E+03  0.98353173187E+03  0.00000000000E+00 0. -1.
<mgrwt>
<rscale>  0 0.10533936E+04</rscale>
<asrwt>0</asrwt>
<pdfrwt beam="1">  1        4 0.12069726E+00 0.10659066E+04</pdfrwt>
<pdfrwt beam="2">  1       -4 0.34564750E+00 0.10410276E+04</pdfrwt>
<totfact> 0.15918232E-01</totfact>
</mgrwt>
</event>
<event>
 8    1  0.3025584E-006  0.1097793E+04  0.7818608E-02  0.8744229E-01
          4   -1    0    0  502    0  0.00000000000E+00  0.00000000000E+00  0.10819413527E+04  0.10819413527E+04  0.00000000000E+00 0.  1.
         -4   -1    0    0    0  501 -0.00000000000E+00 -0.00000000000E+00 -0.33656515939E+04  0.33656515939E+04  0.00000000000E+00 0. -1.
   -9000010    2    1    2    0  501  0.14091441860E+03  0.11242904221E+03 -0.30296410264E+04  0.32224020239E+04  0.10828909879E+04 0.  0.
    9000010    2    1    2  502    0 -0.14091441860E+03 -0.11242904221E+03  0.74593078521E+03  0.12251909227E+04  0.95508266546E+03 0.  0.
        -13    1    4    4    0    0 -0.68970309976E+02  0.19897719817E+03 -0.16003634518E+03  0.26450041965E+03  0.10566000000E+00 0.  1.
          4    1    4    4  502    0 -0.71944108625E+02 -0.31140624038E+03  0.90596713040E+03  0.96069050306E+03  0.00000000000E+00 0.  1.
         13    1    3    3    0    0  0.17992160075E+03 -0.47251804178E+03 -0.12373203896E+04  0.13366401310E+04  0.10566000000E+00 0. -1.
         -4    1    3    3    0  501 -0.39007182149E+02  0.58494708399E+03 -0.17923206369E+04  0.18857618929E+04  0.00000000000E+00 0. -1.
<mgrwt>
<rscale>  0 0.10329552E+04</rscale>
<asrwt>0</asrwt>
<pdfrwt beam="1">  1        4 0.16645252E+00 0.97194653E+03</pdfrwt>
<pdfrwt beam="2">  1       -4 0.51779255E+00 0.10977933E+04</pdfrwt>
<totfact> 0.17975915E-02</totfact>
</mgrwt>
</event>
<event>
 8    1  0.3025584E-006  0.1013341E+04  0.7818608E-02  0.8771947E-01
         -4   -1    0    0    0  501 -0.00000000000E+00  0.00000000000E+00  0.11701408683E+04  0.11701408683E+04  0.00000000000E+00 0. -1.
          4   -1    0    0  502    0  0.00000000000E+00 -0.00000000000E+00 -0.27724120560E+04  0.27724120560E+04  0.00000000000E+00 0.  1.
   -9000010    2    1    2    0  501  0.88844841274E+01  0.16779744294E+03  0.83368002919E+03  0.13122054141E+04  0.99931263466E+03 0.  0.
    9000010    2    1    2  502    0 -0.88844841274E+01 -0.16779744294E+03 -0.24359512169E+04  0.26303475103E+04  0.97807708177E+03 0.  0.
        -13    1    4    4    0    0 -0.28707723491E+03 -0.42795193824E+03 -0.80730382744E+03  0.95775554355E+03  0.10566000000E+00 0.  1.
          4    1    4    4  502    0  0.27819275078E+03  0.26015449530E+03 -0.16286473894E+04  0.16725919667E+04  0.00000000000E+00 0.  1.
         13    1    3    3    0    0 -0.40984410079E+01  0.15465972967E+03  0.10669985599E+04  0.10781569306E+04  0.10566000000E+00 0. -1.
         -4    1    3    3    0  501  0.12982925135E+02  0.13137713264E+02 -0.23331853066E+03  0.23404848345E+03  0.00000000000E+00 0. -1.
<mgrwt>
<rscale>  0 0.10028190E+04</rscale>
<asrwt>0</asrwt>
<pdfrwt beam="2">  1        4 0.42652493E+00 0.99240601E+03</pdfrwt>
<pdfrwt beam="1">  1       -4 0.18002167E+00 0.10133413E+04</pdfrwt>
<totfact> 0.43264303E-02</totfact>
</mgrwt>
</event>
<event>
 8    1  0.3025584E-006  0.1291243E+04  0.7818608E-02  0.8576781E-01
          4   -1    0    0  502    0  0.00000000000E+00  0.00000000000E+00  0.22400096074E+04  0.22400096074E+04  0.00000000000E+00 0.  1.
         -4   -1    0    0    0  501 -0.00000000000E+00 -0.00000000000E+00 -0.13687991227E+04  0.13687991227E+04  0.00000000000E+00 0. -1.
   -9000010    2    1    2    0  501 -0.21718698746E+03 -0.61712363792E+03 -0.84529173703E+03  0.14608587353E+04  0.99578027280E+03 0.  0.
    9000010    2    1    2  502    0  0.21718698746E+03  0.61712363792E+03  0.17165022217E+04  0.21479499948E+04  0.11132374100E+04 0.  0.
        -13    1    4    4    0    0 -0.14972998611E+03 -0.14240636301E+02 -0.10639187621E+03  0.18423112373E+03  0.10566000000E+00 0.  1.
          4    1    4    4  502    0  0.36691697358E+03  0.63136427422E+03  0.18228940980E+04  0.19637188711E+04  0.00000000000E+00 0.  1.
         13    1    3    3    0    0  0.36719554390E+03 -0.19576419342E+03 -0.10777515817E+03  0.42985076802E+03  0.10566000000E+00 0. -1.
         -4    1    3    3    0  501 -0.58438253136E+03 -0.42135944449E+03 -0.73751657886E+03  0.10310079672E+04  0.00000000000E+00 0. -1.
<mgrwt>
<rscale>  0 0.12403515E+04</rscale>
<asrwt>0</asrwt>
<pdfrwt beam="1">  1        4 0.34461686E+00 0.12912433E+04</pdfrwt>
<pdfrwt beam="2">  1       -4 0.21058448E+00 0.11914655E+04</pdfrwt>
<totfact> 0.70340242E-02</totfact>
</mgrwt>
</event>
<event>
 8    1  0.3025584E-006  0.1098050E+04  0.7818608E-02  0.8690328E-01
         -4   -1    0    0    0  501 -0.00000000000E+00  0.00000000000E+00  0.29302449221E+04  0.29302449221E+04  0.00000000000E+00 0. -1.
          4   -1    0    0  502    0  0.00000000000E+00 -0.00000000000E+00 -0.52715458983E+03  0.52715458983E+03  0.00000000000E+00 0.  1.
   -9000010    2    1    2    0  501  0.36296301537E+03 -0.26257725646E+03  0.20171214500E+04  0.22934896828E+04  0.99530247424E+03 0.  0.
    9000010    2    1    2  502    0 -0.36296301537E+03  0.26257725646E+03  0.38596888228E+03  0.11639098291E+04  0.10025094244E+04 0.  0.
        -13    1    4    4    0    0 -0.44800846437E+03  0.40094277034E+03 -0.13671925361E+03  0.61657023502E+03  0.10566000000E+00 0.  1.
          4    1    4    4  502    0  0.85045449004E+02 -0.13836551388E+03  0.52268813589E+03  0.54733959406E+03  0.00000000000E+00 0.  1.
         13    1    3    3    0    0  0.23023346036E+03 -0.47852420650E+03  0.42182348663E+03  0.67817986369E+03  0.10566000000E+00 0. -1.
         -4    1    3    3    0  501  0.13272955501E+03  0.21594695004E+03  0.15952979634E+04  0.16153098192E+04  0.00000000000E+00 0. -1.
<mgrwt>
<rscale>  0 0.10947572E+04</rscale>
<asrwt>0</asrwt>
<pdfrwt beam="2">  1        4 0.81100708E-01 0.10980501E+04</pdfrwt>
<pdfrwt beam="1">  1       -4 0.45080690E+00 0.10914742E+04</pdfrwt>
<totfact> 0.12880966E-01</totfact>
</mgrwt>
</event>
<event>
 8    1  0.3025584E-006  0.1270790E+04  0.7818608E-02  0.8555517E-01
          4   -1    0    0  502    0  0.00000000000E+00  0.00000000000E+00  0.18939792067E+04  0.18939792067E+04  0.00000000000E+00 0.  1.
         -4   -1    0    0    0  501 -0.00000000000E+00 -0.00000000000E+00 -0.17049241398E+04  0.17049241398E+04  0.00000000000E+00 0. -1.
   -9000010    2    1    2    0  501 -0.65437216300E+03  0.41878716343E+03 -0.11783788330E+04  0.17321463722E+04  0.10040760752E+04 0.  0.
    9000010    2    1    2  502    0  0.65437216300E+03 -0.41878716343E+03  0.13674338999E+04  0.18667569743E+04  0.10056443280E+04 0.  0.
        -13    1    4    4    0    0  0.62675954930E+03  0.45905071966E+02  0.12302263118E+04  0.13814454740E+04  0.10566000000E+00 0.  1.
          4    1    4    4  502    0  0.27612613700E+02 -0.46469223539E+03  0.13720758814E+03  0.48531150029E+03  0.00000000000E+00 0.  1.
         13    1    3    3    0    0  0.51514477920E+02 -0.17379715674E+03  0.57751247939E+02  0.19024828758E+03  0.10566000000E+00 0. -1.
         -4    1    3    3    0  501 -0.70588664092E+03  0.59258432017E+03 -0.12361300809E+04  0.15418980846E+04  0.00000000000E+00 0. -1.
<mgrwt>
<rscale>  0 0.12701691E+04</rscale>
<asrwt>0</asrwt>
<pdfrwt beam="1">  1        4 0.29138142E+00 0.12707896E+04</pdfrwt>
<pdfrwt beam="2">  1       -4 0.26229602E+00 0.12695489E+04</pdfrwt>
<totfact> 0.74299908E-02</totfact>
</mgrwt>
</event>
<event>
 8    1  0.3025584E-006  0.1062784E+04  0.7818608E-02  0.8718568E-01
         -4   -1    0    0    0  501 -0.00000000000E+00  0.00000000000E+00  0.16194361725E+04  0.16194361725E+04  0.00000000000E+00 0. -1.
          4   -1    0    0  502    0  0.00000000000E+00 -0.00000000000E+00 -0.88905131250E+03  0.88905131250E+03  0.00000000000E+00 0.  1.
   -9000010    2    1    2    0  501  0.27785161931E+03 -0.23524687156E+03  0.94905791881E+03  0.14234400151E+04  0.99645769118E+03 0.  0.
    9000010    2    1    2  502    0 -0.27785161931E+03  0.23524687156E+03 -0.21867305881E+03  0.10850474699E+04  0.99848259495E+03 0.  0.
        -13    1    4    4    0    0 -0.31291774336E+03  0.61040721939E+03 -0.14606932443E+03  0.70132071572E+03  0.10566000000E+00 0.  1.
          4    1    4    4  502    0  0.35066124053E+02 -0.37516034784E+03 -0.72603734389E+02  0.38372675420E+03  0.00000000000E+00 0.  1.
         13    1    3    3    0    0  0.60282630680E+03 -0.69456728354E+02  0.85186105118E+03  0.10458924682E+04  0.10566000000E+00 0. -1.
         -4    1    3    3    0  501 -0.32497468750E+03 -0.16579014320E+03  0.97196867634E+02  0.37754754691E+03  0.00000000000E+00 0. -1.
<mgrwt>
<rscale>  0 0.10618326E+04</rscale>
<asrwt>0</asrwt>
<pdfrwt beam="2">  1        4 0.13677713E+00 0.10627841E+04</pdfrwt>
<pdfrwt beam="1">  1       -4 0.24914403E+00 0.10608820E+04</pdfrwt>
<totfact> 0.23409153E-01</totfact>
</mgrwt>
</event>
<event>
 8    1  0.3025584E-006  0.1100780E+04  0.7818608E-02  0.8689355E-01
          4   -1    0    0  502    0  0.00000000000E+00  0.00000000000E+00  0.23965427222E+04  0.23965427222E+04  0.00000000000E+00 0.  1.
         -4   -1    0    0    0  501 -0.00000000000E+00 -0.00000000000E+00 -0.67530691990E+03  0.67530691990E+03  0.00000000000E+00 0. -1.
   -9000010    2    1    2    0  501 -0.76395189676E+01 -0.43957838418E+03  0.83483526196E+02  0.11039410312E+04  0.10091723258E+04 0.  0.
    9000010    2    1    2  502    0  0.76395189676E+01  0.43957838418E+03  0.16377522762E+04  0.19679086109E+04  0.99857111159E+03 0.  0.
        -13    1    4    4    0    0  0.33637794432E+03  0.56448980926E+03  0.13907091851E+04  0.15381387827E+04  0.10566000000E+00 0.  1.
          4    1    4    4  502    0 -0.32873842536E+03 -0.12491142508E+03  0.24704309104E+03  0.42976982823E+03  0.00000000000E+00 0.  1.
         13    1    3    3    0    0 -0.58889920280E+02  0.32584605043E+03 -0.90063612156E+01  0.33124733508E+03  0.10566000000E+00 0. -1.
         -4    1    3    3    0  501  0.51250401312E+02 -0.76542443461E+03  0.92489887412E+02  0.77269369611E+03  0.00000000000E+00 0. -1.
<mgrwt>
<rscale>  0 0.10959137E+04</rscale>
<asrwt>0</asrwt>
<pdfrwt beam="1">  1        4 0.36869888E+00 0.10910691E+04</pdfrwt>
<pdfrwt beam="2">  1       -4 0.10389337E+00 0.11007799E+04</pdfrwt>
<totfact> 0.17149405E-01</totfact>
</mgrwt>
</event>
<event>
 8    1  0.3025584E-006  0.1025664E+04  0.7818608E-02  0.8774896E-01
         -4   -1    0    0    0  501 -0.00000000000E+00  0.00000000000E+00  0.19125610283E+04  0.19125610283E+04  0.00000000000E+00 0. -1.
          4   -1    0    0  502    0  0.00000000000E+00 -0.00000000000E+00 -0.92779907372E+03  0.92779907372E+03  0.00000000000E+00 0.  1.
   -9000010    2    1    2    0  501  0.10489674413E+03  0.10787600385E+03  0.14233158499E+04  0.17248705905E+04  0.96265777226E+03 0.  0.
    9000010    2    1    2  502    0 -0.10489674413E+03 -0.10787600385E+03 -0.43855389524E+03  0.11154895115E+04  0.10145672832E+04 0.  0.
        -13    1    4    4    0    0 -0.40775311415E+03  0.40847208422E+02  0.15057611177E+03  0.43658249294E+03  0.10566000000E+00 0.  1.
          4    1    4    4  502    0  0.30285637002E+03 -0.14872321227E+03 -0.58913000701E+03  0.67890701859E+03  0.00000000000E+00 0.  1.
         13    1    3    3    0    0  0.46954393834E+01 -0.10159242615E+03  0.14819060228E+04  0.14853917125E+04  0.10566000000E+00 0. -1.
         -4    1    3    3    0  501  0.10020130475E+03  0.20946843000E+03 -0.58590172916E+02  0.23947887799E+03  0.00000000000E+00 0. -1.
<mgrwt>
<rscale>  0 0.99967603E+03</rscale>
<asrwt>0</asrwt>
<pdfrwt beam="2">  1        4 0.14273832E+00 0.10256643E+04</pdfrwt>
<pdfrwt beam="1">  1       -4 0.29424016E+00 0.97434621E+03</pdfrwt>
<totfact> 0.17092183E-01</totfact>
</mgrwt>
</event>
<event>
 8    1  0.3025584E-006  0.1450924E+04  0.7818608E-02  0.8439405E-01
         -4   -1    0    0    0  501 -0.00000000000E+00  0.00000000000E+00  0.12777020254E+04  0.12777020254E+04  0.00000000000E+00 0. -1.
          4   -1    0    0  502    0  0.00000000000E+00 -0.00000000000E+00 -0.19730373900E+04  0.19730373900E+04  0.00000000000E+00 0.  1.
   -9000010    2    1    2    0  501  0.10290536327E+04 -0.16855277595E+03  0.31621946127E+03  0.14849829385E+04  0.10088697451E+04 0.  0.
    9000010    2    1    2  502    0 -0.10290536327E+04  0.16855277595E+03 -0.10115548259E+04  0.17657564769E+04  0.10036390551E+04 0.  0.
        -13    1    4    4    0    0 -0.17199584122E+03 -0.12788769116E+03  0.17192612491E+03  0.27476614518E+03  0.10566000000E+00 0.  1.
          4    1    4    4  502    0 -0.85705779144E+03  0.29644046711E+03 -0.11834809508E+04  0.14909903318E+04  0.00000000000E+00 0.  1.
         13    1    3    3    0    0  0.18486317638E+03  0.38753041608E+03  0.17757192527E+03  0.46463535937E+03  0.10566000000E+00 0. -1.
         -4    1    3    3    0  501  0.84419045628E+03 -0.55608319203E+03  0.13864753600E+03  0.10203475791E+04  0.00000000000E+00 0. -1.
<mgrwt>
<rscale>  0 0.14491065E+04</rscale>
<asrwt>0</asrwt>
<pdfrwt beam="2">  1        4 0.30354421E+00 0.14472915E+04</pdfrwt>
<pdfrwt beam="1">  1       -4 0.19656954E+00 0.14509237E+04</pdfrwt>
<totfact> 0.99841424E-02</totfact>
</mgrwt>
</event>
<event>
 8    1  0.3025584E-006  0.1310058E+04  0.7818608E-02  0.8531336E-01
         -4   -1    0    0    0  501 -0.00000000000E+00  0.00000000000E+00  0.16483604311E+04  0.16483604311E+04  0.00000000000E+00 0. -1.
          4   -1    0    0  502    0  0.00000000000E+00 -0.00000000000E+00 -0.16302802247E+04  0.16302802247E+04  0.00000000000E+00 0.  1.
   -9000010    2    1    2    0  501  0.48049972333E+03 -0.69062321564E+03  0.10009379665E+04  0.16408798501E+04  0.99134729524E+03 0.  0.
    9000010    2    1    2  502    0 -0.48049972333E+03  0.69062321564E+03 -0.98285776003E+03  0.16377608057E+04  0.10041965296E+04 0.  0.
        -13    1    4    4    0    0 -0.63835743528E+02  0.83850018281E+03 -0.79549951997E+03  0.11575737800E+04  0.10566000000E+00 0.  1.
          4    1    4    4  502    0 -0.41666397980E+03 -0.14787696717E+03 -0.18735824005E+03  0.48018702565E+03  0.00000000000E+00 0.  1.
         13    1    3    3    0    0 -0.22528223616E+03 -0.53068404395E+03  0.44983601041E+03  0.73125241050E+03  0.10566000000E+00 0. -1.
         -4    1    3    3    0  501  0.70578195949E+03 -0.15993917169E+03  0.55110195607E+03  0.90962743965E+03  0.00000000000E+00 0. -1.
<mgrwt>
<rscale>  0 0.13051369E+04</rscale>
<asrwt>0</asrwt>
<pdfrwt beam="2">  1        4 0.25081234E+00 0.13100577E+04</pdfrwt>
<pdfrwt beam="1">  1       -4 0.25359391E+00 0.13002345E+04</pdfrwt>
<totfact> 0.97941427E-02</totfact>
</mgrwt>
</event>
<event>
 8    1  0.3025584E-006  0.1012975E+04  0.7818608E-02  0.8767024E-01
          4   -1    0    0  502    0  0.00000000000E+00  0.00000000000E+00  0.18401395647E+04  0.18401395647E+04  0.00000000000E+00 0.  1.
         -4   -1    0    0    0  501 -0.00000000000E+00 -0.00000000000E+00 -0.28877755614E+04  0.28877755614E+04  0.00000000000E+00 0. -1.
   -9000010    2    1    2    0  501 -0.15148245026E+03 -0.11981438934E+03 -0.26492510298E+04  0.28328454134E+04  0.98446924623E+03 0.  0.
    9000010    2    1    2  502    0  0.15148245026E+03  0.11981438934E+03  0.16016150330E+04  0.18950697127E+04  0.99439231765E+03 0.  0.
        -13    1    4    4    0    0 -0.14530998120E+03 -0.34357757418E+02 -0.87565179047E+02  0.17309857850E+03  0.10566000000E+00 0.  1.
          4    1    4    4  502    0  0.29679243147E+03  0.15417214676E+03  0.16891802121E+04  0.17219711342E+04  0.00000000000E+00 0.  1.
         13    1    3    3    0    0 -0.33616033406E+03 -0.44175759080E+03 -0.10140255223E+04  0.11560282480E+04  0.10566000000E+00 0. -1.
         -4    1    3    3    0  501  0.18467788379E+03  0.32194320146E+03 -0.16352255075E+04  0.16768171653E+04  0.00000000000E+00 0. -1.
<mgrwt>
<rscale>  0 0.10080937E+04</rscale>
<asrwt>0</asrwt>
<pdfrwt beam="1">  1        4 0.28309839E+00 0.10129751E+04</pdfrwt>
<pdfrwt beam="2">  1       -4 0.44427316E+00 0.10032358E+04</pdfrwt>
<totfact> 0.19620143E-02</totfact>
</mgrwt>
</event>
<event>
 8    1  0.3025584E-006  0.1022348E+04  0.7818608E-02  0.8760482E-01
         -4   -1    0    0    0  501 -0.00000000000E+00  0.00000000000E+00  0.18000490102E+04  0.18000490102E+04  0.00000000000E+00 0. -1.
          4   -1    0    0  502    0  0.00000000000E+00 -0.00000000000E+00 -0.17307002262E+04  0.17307002262E+04  0.00000000000E+00 0.  1.
   -9000010    2    1    2    0  501 -0.11750618732E+03  0.16408066263E+03  0.14787285934E+04  0.17896152884E+04  0.98760035423E+03 0.  0.
    9000010    2    1    2  502    0  0.11750618732E+03 -0.16408066263E+03 -0.14093798094E+04  0.17411339479E+04  0.10022304173E+04 0.  0.
        -13    1    4    4    0    0 -0.42480044435E+03  0.42443685879E+02 -0.74806898866E+03  0.86131533538E+03  0.10566000000E+00 0.  1.
          4    1    4    4  502    0  0.54230663168E+03 -0.20652434851E+03 -0.66131082076E+03  0.87981861252E+03  0.00000000000E+00 0.  1.
         13    1    3    3    0    0 -0.21328815913E+03 -0.27409812259E+03  0.12271535114E+04  0.12753538220E+04  0.10566000000E+00 0. -1.
         -4    1    3    3    0  501  0.95781971810E+02  0.43817878522E+03  0.25157508201E+03  0.51426146641E+03  0.00000000000E+00 0. -1.
<mgrwt>
<rscale>  0 0.10151539E+04</rscale>
<asrwt>0</asrwt>
<pdfrwt beam="2">  1        4 0.26626157E+00 0.10223483E+04</pdfrwt>
<pdfrwt beam="1">  1       -4 0.27693062E+00 0.10080102E+04</pdfrwt>
<totfact> 0.81325500E-02</totfact>
</mgrwt>
</event>
<event>
 8    1  0.3025584E-006  0.1226747E+04  0.7818608E-02  0.8596863E-01
          4   -1    0    0  502    0  0.00000000000E+00  0.00000000000E+00  0.36193276841E+04  0.36193276841E+04  0.00000000000E+00 0.  1.
         -4   -1    0    0    0  501 -0.00000000000E+00 -0.00000000000E+00 -0.12460033082E+04  0.12460033082E+04  0.00000000000E+00 0. -1.
   -9000010    2    1    2    0  501  0.10038586674E+03 -0.71966411862E+03 -0.80564842020E+03  0.14676436149E+04  0.98838992178E+03 0.  0.
    9000010    2    1    2  502    0 -0.10038586674E+03  0.71966411862E+03  0.31789727961E+04  0.33976873774E+04  0.95415811623E+03 0.  0.
        -13    1    4    4    0    0  0.16442570085E+03  0.66157140755E+03  0.29912125477E+04  0.30679089059E+04  0.10566000000E+00 0.  1.
          4    1    4    4  502    0 -0.26481156760E+03  0.58092711067E+02  0.18776024841E+03  0.32977847154E+03  0.00000000000E+00 0.  1.
         13    1    3    3    0    0 -0.31987208672E+03 -0.72548716857E+03 -0.62753402828E+03  0.10111620797E+04  0.10566000000E+00 0. -1.
         -4    1    3    3    0  501  0.42025795346E+03  0.58230499514E+01 -0.17811439192E+03  0.45648153518E+03  0.00000000000E+00 0. -1.
<mgrwt>
<rscale>  0 0.12129651E+04</rscale>
<asrwt>0</asrwt>
<pdfrwt beam="1">  1        4 0.55681964E+00 0.11993379E+04</pdfrwt>
<pdfrwt beam="2">  1       -4 0.19169282E+00 0.12267471E+04</pdfrwt>
<totfact> 0.93955889E-03</totfact>
</mgrwt>
</event>
<event>
 8    1  0.3025584E-006  0.1156565E+04  0.7818608E-02  0.8747654E-01
          4   -1    0    0  502    0  0.00000000000E+00  0.00000000000E+00  0.10138182156E+04  0.10138182156E+04  0.00000000000E+00 0.  1.
         -4   -1    0    0    0  501 -0.00000000000E+00 -0.00000000000E+00 -0.16300729250E+04  0.16300729250E+04  0.00000000000E+00 0. -1.
   -9000010    2    1    2    0  501  0.26108099397E+03  0.52322501839E+03 -0.10638448946E+04  0.14037377721E+04  0.70483052411E+03 0.  0.
    9000010    2    1    2  502    0 -0.26108099397E+03 -0.52322501839E+03  0.44759018520E+03  0.12401533684E+04  0.99785554972E+03 0.  0.
        -13    1    4    4    0    0 -0.26480791607E+03 -0.51667355278E+03  0.74395858763E+03  0.94368913517E+03  0.10566000000E+00 0.  1.
          4    1    4    4  502    0  0.37269221044E+01 -0.65514656065E+01 -0.29636840243E+03  0.29646423328E+03  0.00000000000E+00 0.  1.
         13    1    3    3    0    0 -0.14489215314E+03  0.28821269710E+03 -0.11006322696E+03  0.34084339499E+03  0.10566000000E+00 0. -1.
         -4    1    3    3    0  501  0.40597314711E+03  0.23501232128E+03 -0.95378166766E+03  0.10628943771E+04  0.00000000000E+00 0. -1.
<mgrwt>
<rscale>  0 0.10291733E+04</rscale>
<asrwt>0</asrwt>
<pdfrwt beam="1">  1        4 0.15597203E+00 0.11565653E+04</pdfrwt>
<pdfrwt beam="2">  1       -4 0.25078045E+00 0.91581318E+03</pdfrwt>
<totfact> 0.19194651E-01</totfact>
</mgrwt>
</event>
<event>
 8    1  0.3025584E-006  0.1087817E+04  0.7818608E-02  0.8699838E-01
         -4   -1    0    0    0  501 -0.00000000000E+00  0.00000000000E+00  0.52179097950E+03  0.52179097950E+03  0.00000000000E+00 0. -1.
          4   -1    0    0  502    0  0.00000000000E+00 -0.00000000000E+00 -0.25727198377E+04  0.25727198377E+04  0.00000000000E+00 0.  1.
   -9000010    2    1    2    0  501  0.24843515752E+03  0.32711508929E+03 -0.47398010836E+03  0.11787568899E+04  0.99804125831E+03 0.  0.
    9000010    2    1    2  502    0 -0.24843515752E+03 -0.32711508929E+03 -0.15769487499E+04  0.19157539273E+04  0.10072841908E+04 0.  0.
        -13    1    4    4    0    0 -0.46447116815E+03 -0.50047967154E+03 -0.14662873770E+04  0.16174708810E+04  0.10566000000E+00 0.  1.
          4    1    4    4  502    0  0.21603601063E+03  0.17336458225E+03 -0.11066137281E+03  0.29828304629E+03  0.00000000000E+00 0.  1.
         13    1    3    3    0    0  0.19591359409E+02  0.43077110209E+03  0.18821927234E+03  0.47050405886E+03  0.10566000000E+00 0. -1.
         -4    1    3    3    0  501  0.22884379811E+03 -0.10365601280E+03 -0.66219938069E+03  0.70825283107E+03  0.00000000000E+00 0. -1.
<mgrwt>
<rscale>  0 0.10835320E+04</rscale>
<asrwt>0</asrwt>
<pdfrwt beam="2">  1        4 0.39580304E+00 0.10878170E+04</pdfrwt>
<pdfrwt beam="1">  1       -4 0.80275537E-01 0.10792639E+04</pdfrwt>
<totfact> 0.22588675E-01</totfact>
</mgrwt>
</event>
<event>
 8    1  0.3025584E-006  0.1019895E+04  0.7818608E-02  0.8757179E-01
         -4   -1    0    0    0  501 -0.00000000000E+00  0.00000000000E+00  0.26897484861E+04  0.26897484861E+04  0.00000000000E+00 0. -1.
          4   -1    0    0  502    0  0.00000000000E+00 -0.00000000000E+00 -0.98857487425E+03  0.98857487425E+03  0.00000000000E+00 0.  1.
   -9000010    2    1    2    0  501  0.81430491499E+02 -0.17267129076E+03  0.22870306050E+04  0.25041355999E+04  0.10018681625E+04 0.  0.
    9000010    2    1    2  502    0 -0.81430491499E+02  0.17267129076E+03 -0.58585699314E+03  0.11741877604E+04  0.99952097563E+03 0.  0.
        -13    1    4    4    0    0  0.26047695462E+03 -0.12397829124E+02  0.17892853942E+03  0.31625525045E+03  0.10566000000E+00 0.  1.
          4    1    4    4  502    0 -0.34190744612E+03  0.18506911988E+03 -0.76478553256E+03  0.85793250997E+03  0.00000000000E+00 0.  1.
         13    1    3    3    0    0  0.48718571164E+03 -0.32468948328E+03  0.13721836545E+04  0.14918649976E+04  0.10566000000E+00 0. -1.
         -4    1    3    3    0  501 -0.40575522014E+03  0.15201819252E+03  0.91484695044E+03  0.10122706023E+04  0.00000000000E+00 0. -1.
<mgrwt>
<rscale>  0 0.10187417E+04</rscale>
<asrwt>0</asrwt>
<pdfrwt beam="2">  1        4 0.15208844E+00 0.10175895E+04</pdfrwt>
<pdfrwt beam="1">  1       -4 0.41380745E+00 0.10198951E+04</pdfrwt>
<totfact> 0.61721367E-02</totfact>
</mgrwt>
</event>
<event>
 8    1  0.3025584E-006  0.1280237E+04  0.7818608E-02  0.8587983E-01
          4   -1    0    0  502    0  0.00000000000E+00  0.00000000000E+00  0.78086402649E+03  0.78086402649E+03  0.00000000000E+00 0.  1.
         -4   -1    0    0    0  501 -0.00000000000E+00 -0.00000000000E+00 -0.24158928718E+04  0.24158928718E+04  0.00000000000E+00 0. -1.
   -9000010    2    1    2    0  501 -0.69050406732E+03  0.17869141647E+03 -0.15658596361E+04  0.20226033359E+04  0.10631469160E+04 0.  0.
    9000010    2    1    2  502    0  0.69050406732E+03 -0.17869141647E+03 -0.69169209206E+02  0.11741535624E+04  0.93012134659E+03 0.  0.
        -13    1    4    4    0    0  0.41711108102E+03 -0.10169558335E+03  0.42504166252E+03  0.60413911612E+03  0.10566000000E+00 0.  1.
          4    1    4    4  502    0  0.27339298630E+03 -0.76995833125E+02 -0.49421087173E+03  0.57001444632E+03  0.00000000000E+00 0.  1.
         13    1    3    3    0    0 -0.91667598818E+02  0.23548572311E+03 -0.13653551214E+04  0.13885427948E+04  0.10566000000E+00 0. -1.
         -4    1    3    3    0  501 -0.59883646850E+03 -0.56794306640E+02 -0.20050451476E+03  0.63406054104E+03  0.00000000000E+00 0. -1.
<mgrwt>
<rscale>  0 0.12249836E+04</rscale>
<asrwt>0</asrwt>
<pdfrwt beam="1">  1        4 0.12013293E+00 0.11721144E+04</pdfrwt>
<pdfrwt beam="2">  1       -4 0.37167583E+00 0.12802374E+04</pdfrwt>
<totfact> 0.12743554E-01</totfact>
</mgrwt>
</event>
<event>
 8    1  0.3025584E-006  0.1521024E+04  0.7818608E-02  0.8400770E-01
          4   -1    0    0  502    0  0.00000000000E+00  0.00000000000E+00  0.18031799107E+04  0.18031799107E+04  0.00000000000E+00 0.  1.
         -4   -1    0    0    0  501 -0.00000000000E+00 -0.00000000000E+00 -0.18382079731E+04  0.18382079731E+04  0.00000000000E+00 0. -1.
   -9000010    2    1    2    0  501  0.25983516218E+03  0.10987729336E+04 -0.10268442111E+04  0.18351904346E+04  0.10191656521E+04 0.  0.
    9000010    2    1    2  502    0 -0.25983516218E+03 -0.10987729336E+04  0.99181614869E+03  0.18061974492E+04  0.10019150071E+04 0.  0.
        -13    1    4    4    0    0 -0.51925303259E+03 -0.33590517194E+03  0.73484426703E+03  0.96044370180E+03  0.10566000000E+00 0.  1.
          4    1    4    4  502    0  0.25941787041E+03 -0.76286776162E+03  0.25697188167E+03  0.84575374736E+03  0.00000000000E+00 0.  1.
         13    1    3    3    0    0  0.48286942119E+03  0.83512117166E+03 -0.26760042899E+03  0.10010995205E+04  0.10566000000E+00 0. -1.
         -4    1    3    3    0  501 -0.22303425902E+03  0.26365176190E+03 -0.75924378210E+03  0.83409091405E+03  0.00000000000E+00 0. -1.
<mgrwt>
<rscale>  0 0.15152611E+04</rscale>
<asrwt>0</asrwt>
<pdfrwt beam="1">  1        4 0.27741230E+00 0.15095198E+04</pdfrwt>
<pdfrwt beam="2">  1       -4 0.28280123E+00 0.15210243E+04</pdfrwt>
<totfact> 0.70645545E-02</totfact>
</mgrwt>
</event>
<event>
 8    1  0.3025584E-006  0.1312933E+04  0.7818608E-02  0.8529709E-01
         -4   -1    0    0    0  501 -0.00000000000E+00  0.00000000000E+00  0.19538680015E+04  0.19538680015E+04  0.00000000000E+00 0. -1.
          4   -1    0    0  502    0  0.00000000000E+00 -0.00000000000E+00 -0.18935440100E+04  0.18935440100E+04  0.00000000000E+00 0.  1.
   -9000010    2    1    2    0  501 -0.13693382448E+03 -0.83392250778E+03  0.14409707496E+04  0.19421614896E+04  0.99066489238E+03 0.  0.
    9000010    2    1    2  502    0  0.13693382448E+03  0.83392250778E+03 -0.13806467581E+04  0.19052505219E+04  0.10047967254E+04 0.  0.
        -13    1    4    4    0    0 -0.15839143415E+03  0.65556192958E+03 -0.14059256239E+04  0.15593191338E+04  0.10566000000E+00 0.  1.
          4    1    4    4  502    0  0.29532525863E+03  0.17836057820E+03  0.25278865804E+02  0.34593138814E+03  0.00000000000E+00 0.  1.
         13    1    3    3    0    0  0.36277447993E+03 -0.61875003474E+03  0.57419120666E+03  0.91877771074E+03  0.10566000000E+00 0. -1.
         -4    1    3    3    0  501 -0.49970830441E+03 -0.21517247304E+03  0.86677954299E+03  0.10233837788E+04  0.00000000000E+00 0. -1.
<mgrwt>
<rscale>  0 0.13075306E+04</rscale>
<asrwt>0</asrwt>
<pdfrwt beam="2">  1        4 0.29131446E+00 0.13129334E+04</pdfrwt>
<pdfrwt beam="1">  1       -4 0.30059508E+00 0.13021500E+04</pdfrwt>
<totfact> 0.59092731E-02</totfact>
</mgrwt>
</event>
<event>
 8    1  0.3025584E-006  0.1034364E+04  0.7818608E-02  0.8749795E-01
          4   -1    0    0  502    0  0.00000000000E+00  0.00000000000E+00  0.15015659856E+04  0.15015659856E+04  0.00000000000E+00 0.  1.
         -4   -1    0    0    0  501 -0.00000000000E+00 -0.00000000000E+00 -0.21191675668E+04  0.21191675668E+04  0.00000000000E+00 0. -1.
   -9000010    2    1    2    0  501  0.10631029840E+03 -0.24562270059E+03 -0.17898820257E+04  0.20672656570E+04  0.99913824861E+03 0.  0.
    9000010    2    1    2  502    0 -0.10631029840E+03  0.24562270059E+03  0.11722804445E+04  0.15534678954E+04  0.98355918533E+03 0.  0.
        -13    1    4    4    0    0 -0.17673778407E+03  0.51825045002E+03  0.27439105659E+03  0.61246243669E+03  0.10566000000E+00 0.  1.
          4    1    4    4  502    0  0.70427485675E+02 -0.27262774942E+03  0.89788938789E+03  0.94100545874E+03  0.00000000000E+00 0.  1.
         13    1    3    3    0    0  0.80581779562E+02  0.33538193055E+03 -0.11589262346E+04  0.12091668582E+04  0.10566000000E+00 0. -1.
         -4    1    3    3    0  501  0.25728518835E+02 -0.58100463114E+03 -0.63095579110E+03  0.85809879875E+03  0.00000000000E+00 0. -1.
<mgrwt>
<rscale>  0 0.10268166E+04</rscale>
<asrwt>0</asrwt>
<pdfrwt beam="1">  1        4 0.23101015E+00 0.10193238E+04</pdfrwt>
<pdfrwt beam="2">  1       -4 0.32602578E+00 0.10343644E+04</pdfrwt>
<totfact> 0.72383350E-02</totfact>
</mgrwt>
</event>
<event>
 8    1  0.3025584E-006  0.1362689E+04  0.7818608E-02  0.8498179E-01
          4   -1    0    0  502    0  0.00000000000E+00  0.00000000000E+00  0.19799410211E+04  0.19799410211E+04  0.00000000000E+00 0.  1.
         -4   -1    0    0    0  501 -0.00000000000E+00 -0.00000000000E+00 -0.13164665107E+04  0.13164665107E+04  0.00000000000E+00 0. -1.
   -9000010    2    1    2    0  501 -0.32143193667E+03  0.87301358359E+03 -0.56567800754E+03  0.14612680084E+04  0.97459805933E+03 0.  0.
    9000010    2    1    2  502    0  0.32143193667E+03 -0.87301358359E+03  0.12291525180E+04  0.18351395233E+04  0.99571579802E+03 0.  0.
        -13    1    4    4    0    0  0.31196999454E+03 -0.10953616299E+04  0.10562008155E+04  0.15532876590E+04  0.10566000000E+00 0.  1.
          4    1    4    4  502    0  0.94619421284E+01  0.22234804627E+03  0.17295170245E+03  0.28185186430E+03  0.00000000000E+00 0.  1.
         13    1    3    3    0    0  0.17729975365E+03  0.81943101770E+03 -0.42690170781E+03  0.94082276477E+03  0.10566000000E+00 0. -1.
         -4    1    3    3    0  501 -0.49873169032E+03  0.53582565894E+02 -0.13877629973E+03  0.52044524368E+03  0.00000000000E+00 0. -1.
<mgrwt>
<rscale>  0 0.13549904E+04</rscale>
<asrwt>0</asrwt>
<pdfrwt beam="1">  1        4 0.30460631E+00 0.13626889E+04</pdfrwt>
<pdfrwt beam="2">  1       -4 0.20253331E+00 0.13473354E+04</pdfrwt>
<totfact> 0.95857164E-02</totfact>
</mgrwt>
</event>
<event>
 8    1  0.3025584E-006  0.1088233E+04  0.7818608E-02  0.8706495E-01
          4   -1    0    0  502    0  0.00000000000E+00  0.00000000000E+00  0.10030413961E+04  0.10030413961E+04  0.00000000000E+00 0.  1.
         -4   -1    0    0    0  501 -0.00000000000E+00 -0.00000000000E+00 -0.14950388646E+04  0.14950388646E+04  0.00000000000E+00 0. -1.
   -9000010    2    1    2    0  501 -0.37590195772E+03 -0.12834330879E+03 -0.84480165294E+03  0.13776574611E+04  0.10131514994E+04 0.  0.
    9000010    2    1    2  502    0  0.37590195772E+03  0.12834330879E+03  0.35280418443E+03  0.11204227996E+04  0.98645941149E+03 0.  0.
        -13    1    4    4    0    0 -0.21884775497E+03  0.30960242274E+03 -0.45751068372E+02  0.38189157026E+03  0.10566000000E+00 0.  1.
          4    1    4    4  502    0  0.59474971269E+03 -0.18125911394E+03  0.39855525280E+03  0.73853122931E+03  0.00000000000E+00 0.  1.
         13    1    3    3    0    0  0.12221056650E+03  0.26173750839E+03  0.38215505928E+02  0.29138013302E+03  0.10566000000E+00 0. -1.
         -4    1    3    3    0  501 -0.49811252422E+03 -0.39008081718E+03 -0.88301715887E+03  0.10862773281E+04  0.00000000000E+00 0. -1.
<mgrwt>
<rscale>  0 0.10757582E+04</rscale>
<asrwt>0</asrwt>
<pdfrwt beam="1">  1        4 0.15431406E+00 0.10634268E+04</pdfrwt>
<pdfrwt beam="2">  1       -4 0.23000598E+00 0.10882326E+04</pdfrwt>
<totfact> 0.21690978E-01</totfact>
</mgrwt>
</event>
<event>
 8    1  0.3025584E-006  0.1066870E+04  0.7818608E-02  0.8719570E-01
         -4   -1    0    0    0  501 -0.00000000000E+00  0.00000000000E+00  0.52813103950E+03  0.52813103950E+03  0.00000000000E+00 0. -1.
          4   -1    0    0  502    0  0.00000000000E+00 -0.00000000000E+00 -0.23073273596E+04  0.23073273596E+04  0.00000000000E+00 0.  1.
   -9000010    2    1    2    0  501 -0.42795698914E+02  0.33705385797E+03 -0.50171489530E+03  0.11789530517E+04  0.10113237300E+04 0.  0.
    9000010    2    1    2  502    0  0.42795698914E+02 -0.33705385797E+03 -0.12774814248E+04  0.16565053474E+04  0.99830576492E+03 0.  0.
        -13    1    4    4    0    0  0.22477835144E+03  0.17417487712E+01  0.85355927452E+02  0.24044539188E+03  0.10566000000E+00 0.  1.
          4    1    4    4  502    0 -0.18198265252E+03 -0.33879560674E+03 -0.13628373522E+04  0.14160599555E+04  0.00000000000E+00 0.  1.
         13    1    3    3    0    0 -0.45464578328E+03  0.43619327278E+03 -0.38950044113E+03  0.74072799615E+03  0.10566000000E+00 0. -1.
         -4    1    3    3    0  501  0.41185008437E+03 -0.99139414817E+02 -0.11221445416E+03  0.43822505552E+03  0.00000000000E+00 0. -1.
<mgrwt>
<rscale>  0 0.10606865E+04</rscale>
<asrwt>0</asrwt>
<pdfrwt beam="2">  1        4 0.35497345E+00 0.10545384E+04</pdfrwt>
<pdfrwt beam="1">  1       -4 0.81250927E-01 0.10668704E+04</pdfrwt>
<totfact> 0.31351155E-01</totfact>
</mgrwt>
</event>
<event>
 8    1  0.3025584E-006  0.1276095E+04  0.7818608E-02  0.8558554E-01
          4   -1    0    0  502    0  0.00000000000E+00  0.00000000000E+00  0.21235918258E+04  0.21235918258E+04  0.00000000000E+00 0.  1.
         -4   -1    0    0    0  501 -0.00000000000E+00 -0.00000000000E+00 -0.80728119042E+03  0.80728119042E+03  0.00000000000E+00 0. -1.
   -9000010    2    1    2    0  501  0.80491936585E+03  0.12098946172E+02  0.27892119460E+03  0.12863076882E+04  0.96371617502E+03 0.  0.
    9000010    2    1    2  502    0 -0.80491936585E+03 -0.12098946172E+02  0.10373894407E+04  0.16445653279E+04  0.99013973563E+03 0.  0.
        -13    1    4    4    0    0 -0.91739453823E+02  0.20886702633E+03  0.84261651272E+03  0.87295140802E+03  0.10566000000E+00 0.  1.
          4    1    4    4  502    0 -0.71317991203E+03 -0.22096597250E+03  0.19477292801E+03  0.77161391992E+03  0.00000000000E+00 0.  1.
         13    1    3    3    0    0  0.88721649478E+03 -0.49514146990E+02 -0.99518611992E+02  0.89415251756E+03  0.10566000000E+00 0. -1.
         -4    1    3    3    0  501 -0.82297128929E+02  0.61613093162E+02  0.37843980659E+03  0.39215517068E+03  0.00000000000E+00 0. -1.
<mgrwt>
<rscale>  0 0.12658580E+04</rscale>
<asrwt>0</asrwt>
<pdfrwt beam="1">  1        4 0.32670643E+00 0.12760949E+04</pdfrwt>
<pdfrwt beam="2">  1       -4 0.12419711E+00 0.12557032E+04</pdfrwt>
<totfact> 0.17015017E-01</totfact>
</mgrwt>
</event>
<event>
 8    1  0.3025584E-006  0.1399095E+04  0.7818608E-02  0.8473720E-01
         -4   -1    0    0    0  501 -0.00000000000E+00  0.00000000000E+00  0.17622443604E+04  0.17622443604E+04  0.00000000000E+00 0. -1.
          4   -1    0    0  502    0  0.00000000000E+00 -0.00000000000E+00 -0.14925049370E+04  0.14925049370E+04  0.00000000000E+00 0.  1.
   -9000010    2    1    2    0  501  0.96932172126E+03  0.12086480778E+03  0.96738023229E+03  0.16913657158E+04  0.98524137635E+03 0.  0.
    9000010    2    1    2  502    0 -0.96932172126E+03 -0.12086480778E+03 -0.69764080892E+03  0.15633835816E+04  0.10016349753E+04 0.  0.
        -13    1    4    4    0    0 -0.23933196011E+03 -0.39209035244E+03 -0.63278333773E+03  0.78193950871E+03  0.10566000000E+00 0.  1.
          4    1    4    4  502    0 -0.72998976115E+03  0.27122554466E+03 -0.64857471190E+02  0.78144407288E+03  0.00000000000E+00 0.  1.
         13    1    3    3    0    0  0.11368407744E+04  0.12053765030E+03  0.10021493648E+04  0.15202761697E+04  0.10566000000E+00 0. -1.
         -4    1    3    3    0  501 -0.16751905318E+03  0.32715747235E+00 -0.34769132522E+02  0.17108954610E+03  0.00000000000E+00 0. -1.
<mgrwt>
<rscale>  0 0.13932377E+04</rscale>
<asrwt>0</asrwt>
<pdfrwt beam="2">  1        4 0.22961614E+00 0.13990945E+04</pdfrwt>
<pdfrwt beam="1">  1       -4 0.27111452E+00 0.13874053E+04</pdfrwt>
<totfact> 0.99705518E-02</totfact>
</mgrwt>
</event>
<event>
 8    1  0.3025584E-006  0.1846972E+04  0.7818608E-02  0.8234573E-01
         -4   -1    0    0    0  501 -0.00000000000E+00  0.00000000000E+00  0.24547078412E+04  0.24547078412E+04  0.00000000000E+00 0. -1.
          4   -1    0    0  502    0  0.00000000000E+00 -0.00000000000E+00 -0.20074299099E+04  0.20074299099E+04  0.00000000000E+00 0.  1.
   -9000010    2    1    2    0  501  0.94226170853E+03  0.12348223392E+04  0.14640037512E+04  0.23538125252E+04  0.99221120927E+03 0.  0.
    9000010    2    1    2  502    0 -0.94226170853E+03 -0.12348223392E+04 -0.10167258199E+04  0.21083252258E+04  0.99933003980E+03 0.  0.
        -13    1    4    4    0    0 -0.17913708618E+03 -0.97143885037E+03 -0.80350692283E+03  0.12733447773E+04  0.10566000000E+00 0.  1.
          4    1    4    4  502    0 -0.76312462234E+03 -0.26338348880E+03 -0.21321889705E+03  0.83498044855E+03  0.00000000000E+00 0.  1.
         13    1    3    3    0    0  0.68961788881E+03  0.13860911895E+04  0.12497644638E+04  0.19896564639E+04  0.10566000000E+00 0. -1.
         -4    1    3    3    0  501  0.25264381971E+03 -0.15126885037E+03  0.21423928739E+03  0.36415606131E+03  0.00000000000E+00 0. -1.
<mgrwt>
<rscale>  0 0.18450495E+04</rscale>
<asrwt>0</asrwt>
<pdfrwt beam="2">  1        4 0.30883537E+00 0.18469715E+04</pdfrwt>
<pdfrwt beam="1">  1       -4 0.37764736E+00 0.18431295E+04</pdfrwt>
<totfact> 0.28480179E-02</totfact>
</mgrwt>
</event>
<event>
 8    1  0.3025584E-006  0.1197035E+04  0.7818608E-02  0.8612991E-01
          4   -1    0    0  502    0  0.00000000000E+00  0.00000000000E+00  0.10646585042E+04  0.10646585042E+04  0.00000000000E+00 0.  1.
         -4   -1    0    0    0  501 -0.00000000000E+00 -0.00000000000E+00 -0.14781678889E+04  0.14781678889E+04  0.00000000000E+00 0. -1.
   -9000010    2    1    2    0  501  0.32553497479E+03 -0.57444475404E+03 -0.60366161571E+03  0.13307821509E+04  0.98519743791E+03 0.  0.
    9000010    2    1    2  502    0 -0.32553497479E+03  0.57444475404E+03  0.19015223100E+03  0.12120442423E+04  0.99846561231E+03 0.  0.
        -13    1    4    4    0    0  0.29537403689E+03  0.41785406798E+03  0.24884548962E+03  0.56900960683E+03  0.10566000000E+00 0.  1.
          4    1    4    4  502    0 -0.62090901168E+03  0.15659068606E+03 -0.58693258618E+02  0.64303463542E+03  0.00000000000E+00 0.  1.
         13    1    3    3    0    0 -0.15368297211E+03 -0.27089265517E+03 -0.68994935350E+03  0.75698838043E+03  0.10566000000E+00 0. -1.
         -4    1    3    3    0  501  0.47921794690E+03 -0.30355209888E+03  0.86287737789E+02  0.57379377049E+03  0.00000000000E+00 0. -1.
<mgrwt>
<rscale>  0 0.11915001E+04</rscale>
<asrwt>0</asrwt>
<pdfrwt beam="1">  1        4 0.16379362E+00 0.11970352E+04</pdfrwt>
<pdfrwt beam="2">  1       -4 0.22741044E+00 0.11859906E+04</pdfrwt>
<totfact> 0.20158421E-01</totfact>
</mgrwt>
</event>
<event>
 8    1  0.3025584E-006  0.1032423E+04  0.7818608E-02  0.8753124E-01
         -4   -1    0    0    0  501 -0.00000000000E+00  0.00000000000E+00  0.31109992433E+04  0.31109992433E+04  0.00000000000E+00 0. -1.
          4   -1    0    0  502    0  0.00000000000E+00 -0.00000000000E+00 -0.22822048213E+04  0.22822048213E+04  0.00000000000E+00 0.  1.
   -9000010    2    1    2    0  501  0.18300893810E+02  0.21750707292E+03  0.29036885465E+04  0.30756443148E+04  0.99022044346E+03 0.  0.
    9000010    2    1    2  502    0 -0.18300893810E+02 -0.21750707292E+03 -0.20748941245E+04  0.23175597498E+04  0.10090853861E+04 0.  0.
        -13    1    4    4    0    0  0.46263229596E+02 -0.36187884536E+03 -0.16375881119E+03  0.39989191607E+03  0.10566000000E+00 0.  1.
          4    1    4    4  502    0 -0.64564123406E+02  0.14437177244E+03 -0.19111353133E+04  0.19176678337E+04  0.00000000000E+00 0.  1.
         13    1    3    3    0    0  0.30415884355E+03 -0.29623407764E+03  0.11358536128E+04  0.12126131583E+04  0.10566000000E+00 0. -1.
         -4    1    3    3    0  501 -0.28585794974E+03  0.51374115056E+03  0.17678349337E+04  0.18630311565E+04  0.00000000000E+00 0. -1.
<mgrwt>
<rscale>  0 0.10231663E+04</rscale>
<asrwt>0</asrwt>
<pdfrwt beam="2">  1        4 0.35110843E+00 0.10324232E+04</pdfrwt>
<pdfrwt beam="1">  1       -4 0.47861527E+00 0.10139925E+04</pdfrwt>
<totfact> 0.86375437E-03</totfact>
</mgrwt>
</event>
<event>
 8    1  0.3025584E-006  0.1060791E+04  0.7818608E-02  0.8739477E-01
          4   -1    0    0  502    0  0.00000000000E+00  0.00000000000E+00  0.29545621135E+04  0.29545621135E+04  0.00000000000E+00 0.  1.
         -4   -1    0    0    0  501 -0.00000000000E+00 -0.00000000000E+00 -0.24501113027E+04  0.24501113027E+04  0.00000000000E+00 0. -1.
   -9000010    2    1    2    0  501 -0.20432014890E+02  0.26682881619E+03 -0.22398164135E+04  0.24783167819E+04  0.10264801123E+04 0.  0.
    9000010    2    1    2  502    0  0.20432014890E+02 -0.26682881619E+03  0.27442672243E+04  0.29263566343E+04  0.98027826073E+03 0.  0.
        -13    1    4    4    0    0 -0.19050719653E+03 -0.10948498345E+03  0.26304970065E+04  0.26396580206E+04  0.10566000000E+00 0.  1.
          4    1    4    4  502    0  0.21093921142E+03 -0.15734383274E+03  0.11377021776E+03  0.28669861364E+03  0.00000000000E+00 0.  1.
         13    1    3    3    0    0  0.47094112112E+02 -0.38918488617E+03 -0.68169628431E+03  0.78637940349E+03  0.10566000000E+00 0. -1.
         -4    1    3    3    0  501 -0.67526127002E+02  0.65601370237E+03 -0.15581201291E+04  0.16919373784E+04  0.00000000000E+00 0. -1.
<mgrwt>
<rscale>  0 0.10382303E+04</rscale>
<asrwt>0</asrwt>
<pdfrwt beam="1">  1        4 0.45454802E+00 0.10161499E+04</pdfrwt>
<pdfrwt beam="2">  1       -4 0.37694020E+00 0.10607905E+04</pdfrwt>
<totfact> 0.90396645E-03</totfact>
</mgrwt>
</event>
<event>
 8    1  0.3025584E-006  0.1318568E+04  0.7818608E-02  0.8526436E-01
         -4   -1    0    0    0  501 -0.00000000000E+00  0.00000000000E+00  0.80535123674E+03  0.80535123674E+03  0.00000000000E+00 0.  1.
          4   -1    0    0  502    0  0.00000000000E+00 -0.00000000000E+00 -0.23293404681E+04  0.23293404681E+04  0.00000000000E+00 0. -1.
   -9000010    2    1    2    0  501 -0.83017550117E+03  0.17035075158E+03 -0.31680600341E+03  0.13560931693E+04  0.10101543935E+04 0.  0.
    9000010    2    1    2  502    0  0.83017550117E+03 -0.17035075158E+03 -0.12071832279E+04  0.17785985355E+04  0.99393695149E+03 0.  0.
        -13    1    4    4    0    0  0.75382608954E+03  0.29747541103E+03 -0.91268409257E+03  0.12205480971E+04  0.10566000000E+00 0.  1.
          4    1    4    4  502    0  0.76349411631E+02 -0.46782616260E+03 -0.29449913534E+03  0.55805043839E+03  0.00000000000E+00 0.  1.
         13    1    3    3    0    0  0.97084440638E+02  0.30391886390E+03 -0.27022183578E+03  0.41810514962E+03  0.10566000000E+00 0. -1.
         -4    1    3    3    0  501 -0.92725994181E+03 -0.13356811232E+03 -0.46584167627E+02  0.93798801964E+03  0.00000000000E+00 0. -1.
<mgrwt>
<rscale>  0 0.13123625E+04</rscale>
<asrwt>0</asrwt>
<pdfrwt beam="2">  1        4 0.35836007E+00 0.13061858E+04</pdfrwt>
<pdfrwt beam="1">  1       -4 0.12390019E+00 0.13185684E+04</pdfrwt>
<totfact> 0.13527952E-01</totfact>
</mgrwt>
</event>
<event>
 8    1  0.3025584E-006  0.1205603E+04  0.7818608E-02  0.8622256E-01
         -4   -1    0    0    0  501 -0.00000000000E+00  0.00000000000E+00  0.17556858003E+04  0.17556858003E+04  0.00000000000E+00 0. -1.
          4   -1    0    0  502    0  0.00000000000E+00 -0.00000000000E+00 -0.11488582502E+04  0.11488582502E+04  0.00000000000E+00 0.  1.
   -9000010    2    1    2    0  501  0.65284119423E+03 -0.33100955358E+02  0.11165702606E+04  0.16432308095E+04  0.10130059468E+04 0.  0.
    9000010    2    1    2  502    0 -0.65284119423E+03  0.33100955358E+02 -0.50974271049E+03  0.12613132410E+04  0.95067142743E+03 0.  0.
        -13    1    4    4    0    0 -0.28951618886E+03  0.39326127445E+03 -0.56495241002E+03  0.74675651343E+03  0.10566000000E+00 0.  1.
          4    1    4    4  502    0 -0.36332500538E+03 -0.36016031909E+03  0.55209699534E+02  0.51455672759E+03  0.00000000000E+00 0.  1.
         13    1    3    3    0    0  0.12369411914E+02 -0.44048319358E+03  0.33331956523E+03  0.55252184564E+03  0.10566000000E+00 0. -1.
         -4    1    3    3    0  501  0.64047178232E+03  0.40738223822E+03  0.78325069541E+03  0.10907089639E+04  0.00000000000E+00 0. -1.
<mgrwt>
<rscale>  0 0.11793770E+04</rscale>
<asrwt>0</asrwt>
<pdfrwt beam="2">  1        4 0.17674742E+00 0.11537216E+04</pdfrwt>
<pdfrwt beam="1">  1       -4 0.27010551E+00 0.12056029E+04</pdfrwt>
<totfact> 0.14347702E-01</totfact>
</mgrwt>
</event>
<event>
 8    1  0.3025584E-006  0.1088873E+04  0.7818608E-02  0.8698636E-01
          4   -1    0    0  502    0  0.00000000000E+00  0.00000000000E+00  0.81120267031E+03  0.81120267031E+03  0.00000000000E+00 0.  1.
         -4   -1    0    0    0  501 -0.00000000000E+00 -0.00000000000E+00 -0.14717910422E+04  0.14717910422E+04  0.00000000000E+00 0. -1.
   -9000010    2    1    2    0  501  0.36718183088E+03 -0.22601079315E+03 -0.46454325885E+03  0.11766135445E+04  0.99132013906E+03 0.  0.
    9000010    2    1    2  502    0 -0.36718183088E+03  0.22601079315E+03 -0.19604511300E+03  0.11063801680E+04  0.99986999871E+03 0.  0.
        -13    1    4    4    0    0  0.29765908663E+03  0.14985498061E+03  0.13527646226E+03  0.35966259115E+03  0.10566000000E+00 0.  1.
          4    1    4    4  502    0 -0.66484091751E+03  0.76155812547E+02 -0.33132157526E+03  0.74671757688E+03  0.00000000000E+00 0.  1.
         13    1    3    3    0    0  0.38464491347E+03  0.33594154891E+03 -0.14944105638E+03  0.53211002080E+03  0.10566000000E+00 0. -1.
         -4    1    3    3    0  501 -0.17463082592E+02 -0.56195234206E+03 -0.31510220248E+03  0.64450352366E+03  0.00000000000E+00 0. -1.
<mgrwt>
<rscale>  0 0.10849426E+04</rscale>
<asrwt>0</asrwt>
<pdfrwt beam="1">  1        4 0.12480041E+00 0.10888725E+04</pdfrwt>
<pdfrwt beam="2">  1       -4 0.22642939E+00 0.10810268E+04</pdfrwt>
<totfact> 0.30708486E-01</totfact>
</mgrwt>
</event>
<event>
 8    1  0.3025584E-006  0.1135247E+04  0.7818608E-02  0.8666336E-01
          4   -1    0    0  502    0  0.00000000000E+00  0.00000000000E+00  0.12749285822E+04  0.12749285822E+04  0.00000000000E+00 0.  1.
         -4   -1    0    0    0  501 -0.00000000000E+00 -0.00000000000E+00 -0.21814639333E+04  0.21814639333E+04  0.00000000000E+00 0. -1.
   -9000010    2    1    2    0  501 -0.62467085829E+02  0.51832182008E+03 -0.17280516472E+04  0.20550810937E+04  0.98215892818E+03 0.  0.
    9000010    2    1    2  502    0  0.62467085829E+02 -0.51832182008E+03  0.82151629611E+03  0.14013114219E+04  0.10080798730E+04 0.  0.
        -13    1    4    4    0    0  0.41000731235E+03  0.93200984905E+02  0.40533733964E+03  0.58402978506E+03  0.10566000000E+00 0.  1.
          4    1    4    4  502    0 -0.34754022652E+03 -0.61152280498E+03  0.41617895647E+03  0.81728163681E+03  0.00000000000E+00 0.  1.
         13    1    3    3    0    0 -0.37873931427E+03  0.47673889439E+03 -0.50478303499E+03  0.79090414411E+03  0.10566000000E+00 0. -1.
         -4    1    3    3    0  501  0.31627222844E+03  0.41582925693E+02 -0.12232686122E+04  0.12641769495E+04  0.00000000000E+00 0. -1.
<mgrwt>
<rscale>  0 0.11237112E+04</rscale>
<asrwt>0</asrwt>
<pdfrwt beam="1">  1        4 0.19614286E+00 0.11352465E+04</pdfrwt>
<pdfrwt beam="2">  1       -4 0.33560983E+00 0.11122930E+04</pdfrwt>
<totfact> 0.83193794E-02</totfact>
</mgrwt>
</event>
<event>
 8    1  0.3025584E-006  0.1450697E+04  0.7818608E-02  0.8482235E-01
          4   -1    0    0  502    0  0.00000000000E+00  0.00000000000E+00  0.22120508320E+04  0.22120508320E+04  0.00000000000E+00 0.  1.
         -4   -1    0    0    0  501 -0.00000000000E+00 -0.00000000000E+00 -0.13209135828E+04  0.13209135828E+04  0.00000000000E+00 0. -1.
   -9000010    2    1    2    0  501 -0.80760959409E+03  0.22470412764E+03 -0.57929586806E+03  0.15620838453E+04  0.11839750992E+04 0.  0.
    9000010    2    1    2  502    0  0.80760959409E+03 -0.22470412764E+03  0.14704331173E+04  0.19708805695E+04  0.10096887963E+04 0.  0.
        -13    1    4    4    0    0  0.91518174376E+03  0.12804259472E+03  0.88858104377E+03  0.12820018770E+04  0.10566000000E+00 0.  1.
          4    1    4    4  502    0 -0.10757214966E+03 -0.35274672236E+03  0.58185207348E+03  0.68887869246E+03  0.00000000000E+00 0.  1.
         13    1    3    3    0    0 -0.82096238844E+02  0.49046602641E+03  0.12916697687E+03  0.51379065247E+03  0.10566000000E+00 0. -1.
         -4    1    3    3    0  501 -0.72551335525E+03 -0.26576189877E+03 -0.70846284493E+03  0.10482931928E+04  0.00000000000E+00 0. -1.
<mgrwt>
<rscale>  0 0.13797775E+04</rscale>
<asrwt>0</asrwt>
<pdfrwt beam="1">  1        4 0.34031551E+00 0.13123249E+04</pdfrwt>
<pdfrwt beam="2">  1       -4 0.20321748E+00 0.14506972E+04</pdfrwt>
<totfact> 0.75523609E-02</totfact>
</mgrwt>
</event>
<event>
 8    1  0.3025584E-006  0.1073020E+04  0.7818608E-02  0.8716900E-01
         -4   -1    0    0    0  501 -0.00000000000E+00  0.00000000000E+00  0.79842208887E+03  0.79842208887E+03  0.00000000000E+00 0. -1.
          4   -1    0    0  502    0  0.00000000000E+00 -0.00000000000E+00 -0.32320372413E+04  0.32320372413E+04  0.00000000000E+00 0.  1.
   -9000010    2    1    2    0  501  0.33893212245E+03  0.33047874982E+02  0.28857449111E+03  0.11111463238E+04  0.10175479204E+04 0.  0.
    9000010    2    1    2  502    0 -0.33893212245E+03 -0.33047874982E+02 -0.27221896436E+04  0.29193130064E+04  0.99805051372E+03 0.  0.
        -13    1    4    4    0    0  0.20271484389E+03  0.59729017847E+02 -0.88857355599E+02  0.22925205411E+03  0.10566000000E+00 0.  1.
          4    1    4    4  502    0 -0.54164696634E+03 -0.92776892829E+02 -0.26333322880E+04  0.26900609523E+04  0.00000000000E+00 0.  1.
         13    1    3    3    0    0  0.68058179945E+03  0.16938745416E+03  0.23352611650E+03  0.73920102382E+03  0.10566000000E+00 0. -1.
         -4    1    3    3    0  501 -0.34164967701E+03 -0.13633957917E+03  0.55048374611E+02  0.37194530000E+03  0.00000000000E+00 0. -1.
<mgrwt>
<rscale>  0 0.10637438E+04</rscale>
<asrwt>0</asrwt>
<pdfrwt beam="2">  1        4 0.49723651E+00 0.10545482E+04</pdfrwt>
<pdfrwt beam="1">  1       -4 0.12283417E+00 0.10730195E+04</pdfrwt>
<totfact> 0.35635884E-02</totfact>
</mgrwt>
</event>
<event>
 8    1  0.3025584E-006  0.1811939E+04  0.7818608E-02  0.8249738E-01
         -4   -1    0    0    0  501 -0.00000000000E+00  0.00000000000E+00  0.29253867673E+04  0.29253867673E+04  0.00000000000E+00 0. -1.
          4   -1    0    0  502    0  0.00000000000E+00 -0.00000000000E+00 -0.21107813179E+04  0.21107813179E+04  0.00000000000E+00 0.  1.
   -9000010    2    1    2    0  501  0.13060340146E+04  0.76272011222E+03  0.21309172615E+04  0.27971293858E+04  0.99782644204E+03 0.  0.
    9000010    2    1    2  502    0 -0.13060340146E+04 -0.76272011222E+03 -0.13163118122E+04  0.22390386994E+04  0.99656946252E+03 0.  0.
        -13    1    4    4    0    0 -0.67080771002E+03  0.15491420908E+03 -0.40962943576E+03  0.80111028068E+03  0.10566000000E+00 0.  1.
          4    1    4    4  502    0 -0.63522630459E+03 -0.91763432130E+03 -0.90668237646E+03  0.14379284187E+04  0.00000000000E+00 0.  1.
         13    1    3    3    0    0  0.29860350868E+03  0.67160013949E+03  0.12767216751E+04  0.14731697287E+04  0.10566000000E+00 0. -1.
         -4    1    3    3    0  501  0.10074305059E+04  0.91119972731E+02  0.85419558648E+03  0.13239596571E+04  0.00000000000E+00 0. -1.
<mgrwt>
<rscale>  0 0.18115934E+04</rscale>
<asrwt>0</asrwt>
<pdfrwt beam="2">  1        4 0.32473559E+00 0.18112475E+04</pdfrwt>
<pdfrwt beam="1">  1       -4 0.45005950E+00 0.18119394E+04</pdfrwt>
<totfact> 0.12728832E-02</totfact>
</mgrwt>
</event>
<event>
 8    1  0.3025584E-006  0.1281492E+04  0.7818608E-02  0.8556642E-01
         -4   -1    0    0    0  501 -0.00000000000E+00  0.00000000000E+00  0.15075361237E+04  0.15075361237E+04  0.00000000000E+00 0. -1.
          4   -1    0    0  502    0  0.00000000000E+00 -0.00000000000E+00 -0.14086115602E+04  0.14086115602E+04  0.00000000000E+00 0.  1.
   -9000010    2    1    2    0  501 -0.67979382470E+03  0.33980513908E+03  0.76647380143E+03  0.14712101964E+04  0.99969504209E+03 0.  0.
    9000010    2    1    2  502    0  0.67979382470E+03 -0.33980513908E+03 -0.66754923787E+03  0.14449374875E+04  0.10318116015E+04 0.  0.
        -13    1    4    4    0    0 -0.19023509386E+03 -0.94904169223E+02 -0.47558223070E+03  0.52093633162E+03  0.10566000000E+00 0.  1.
          4    1    4    4  502    0  0.87002891857E+03 -0.24490096985E+03 -0.19196700717E+03  0.92400115585E+03  0.00000000000E+00 0.  1.
         13    1    3    3    0    0 -0.68797909938E+03  0.55083486700E+03  0.25441715217E+03  0.91731259142E+03  0.10566000000E+00 0. -1.
         -4    1    3    3    0  501  0.81852746757E+01 -0.21102972793E+03  0.51205664926E+03  0.55389760502E+03  0.00000000000E+00 0. -1.
<mgrwt>
<rscale>  0 0.12685698E+04</rscale>
<asrwt>0</asrwt>
<pdfrwt beam="2">  1        4 0.21670947E+00 0.12814922E+04</pdfrwt>
<pdfrwt beam="1">  1       -4 0.23192863E+00 0.12557776E+04</pdfrwt>
<totfact> 0.13438937E-01</totfact>
</mgrwt>
</event>
<event>
 8    1  0.3025584E-006  0.1204377E+04  0.7818608E-02  0.8609233E-01
         -4   -1    0    0    0  501 -0.00000000000E+00  0.00000000000E+00  0.28912048499E+04  0.28912048499E+04  0.00000000000E+00 0. -1.
          4   -1    0    0  502    0  0.00000000000E+00 -0.00000000000E+00 -0.50740581182E+03  0.50740581182E+03  0.00000000000E+00 0.  1.
   -9000010    2    1    2    0  501  0.42114697315E+03 -0.53544798503E+03  0.14636723654E+04  0.18954846015E+04  0.99320479433E+03 0.  0.
    9000010    2    1    2  502    0 -0.42114697315E+03  0.53544798503E+03  0.92012667265E+03  0.15031260602E+04  0.97400489813E+03 0.  0.
        -13    1    4    4    0    0 -0.38596418155E+03  0.44765372295E+03  0.13133369207E+02  0.59121459865E+03  0.10566000000E+00 0.  1.
          4    1    4    4  502    0 -0.35182791603E+02  0.87794262084E+02  0.90699330345E+03  0.91191146159E+03  0.00000000000E+00 0.  1.
         13    1    3    3    0    0 -0.18948757578E+03 -0.15338803122E+03 -0.21619510057E+02  0.24474648899E+03  0.10566000000E+00 0. -1.
         -4    1    3    3    0  501  0.61063454893E+03 -0.38205995381E+03  0.14852918755E+04  0.16507381125E+04  0.00000000000E+00 0. -1.
<mgrwt>
<rscale>  0 0.11964595E+04</rscale>
<asrwt>0</asrwt>
<pdfrwt beam="2">  1        4 0.78062435E-01 0.11885936E+04</pdfrwt>
<pdfrwt beam="1">  1       -4 0.44480073E+00 0.12043775E+04</pdfrwt>
<totfact> 0.14721382E-01</totfact>
</mgrwt>
</event>
<event>
 8    1  0.3025584E-006  0.1165458E+04  0.7818608E-02  0.8649763E-01
         -4   -1    0    0    0  501 -0.00000000000E+00  0.00000000000E+00  0.12548365635E+04  0.12548365635E+04  0.00000000000E+00 0. -1.
          4   -1    0    0  502    0  0.00000000000E+00 -0.00000000000E+00 -0.23559699486E+04  0.23559699486E+04  0.00000000000E+00 0.  1.
   -9000010    2    1    2    0  501  0.52597950239E+03 -0.26400714593E+02  0.80118604607E+03  0.13798626736E+04  0.99235602626E+03 0.  0.
    9000010    2    1    2  502    0 -0.52597950239E+03  0.26400714593E+02 -0.19023194311E+04  0.22309438385E+04  0.10396825274E+04 0.  0.
        -13    1    4    4    0    0  0.26055654294E+03 -0.12148847378E+03 -0.20100081180E+03  0.35078554537E+03  0.10566000000E+00 0.  1.
          4    1    4    4  502    0 -0.78653604533E+03  0.14788918837E+03 -0.17013186193E+04  0.18801582931E+04  0.00000000000E+00 0.  1.
         13    1    3    3    0    0 -0.13425335138E+03 -0.18648990047E+03 -0.10057366395E+03  0.25083364683E+03  0.10566000000E+00 0. -1.
         -4    1    3    3    0  501  0.66023285377E+03  0.16008918588E+03  0.90175971002E+03  0.11290290268E+04  0.00000000000E+00 0. -1.
<mgrwt>
<rscale>  0 0.11442569E+04</rscale>
<asrwt>0</asrwt>
<pdfrwt beam="2">  1        4 0.36245691E+00 0.11654575E+04</pdfrwt>
<pdfrwt beam="1">  1       -4 0.19305178E+00 0.11234420E+04</pdfrwt>
<totfact> 0.68935464E-02</totfact>
</mgrwt>
</event>
<event>
 8    1  0.3025584E-006  0.1396640E+04  0.7818608E-02  0.8475724E-01
         -4   -1    0    0    0  501 -0.00000000000E+00  0.00000000000E+00  0.19268962630E+04  0.19268962630E+04  0.00000000000E+00 0. -1.
          4   -1    0    0  502    0  0.00000000000E+00 -0.00000000000E+00 -0.10056848364E+04  0.10056848364E+04  0.00000000000E+00 0.  1.
   -9000010    2    1    2    0  501 -0.51492184930E+03 -0.81930563431E+03  0.38430468334E+03  0.14485488160E+04  0.10070736563E+04 0.  0.
    9000010    2    1    2  502    0  0.51492184930E+03  0.81930563431E+03  0.53690674319E+03  0.14840322834E+04  0.98877537087E+03 0.  0.
        -13    1    4    4    0    0  0.46805524335E+03 -0.16960596112E+02 -0.35246283004E+02  0.46968679381E+03  0.10566000000E+00 0.  1.
          4    1    4    4  502    0  0.46866605942E+02  0.83626623043E+03  0.57215302620E+03  0.10143454896E+04  0.00000000000E+00 0.  1.
         13    1    3    3    0    0 -0.53340133854E+03 -0.90759737807E+01  0.34869109275E+03  0.63732632974E+03  0.10566000000E+00 0. -1.
         -4    1    3    3    0  501  0.18479489238E+02 -0.81022966053E+03  0.35613590587E+02  0.81122248623E+03  0.00000000000E+00 0. -1.
<mgrwt>
<rscale>  0 0.13900565E+04</rscale>
<asrwt>0</asrwt>
<pdfrwt beam="2">  1        4 0.15472074E+00 0.13835039E+04</pdfrwt>
<pdfrwt beam="1">  1       -4 0.29644558E+00 0.13966401E+04</pdfrwt>
<totfact> 0.14623691E-01</totfact>
</mgrwt>
</event>
<event>
 8    1  0.3025584E-006  0.1045466E+04  0.7818608E-02  0.8733955E-01
          4   -1    0    0  502    0  0.00000000000E+00  0.00000000000E+00  0.21527176762E+04  0.21527176762E+04  0.00000000000E+00 0.  1.
         -4   -1    0    0    0  501 -0.00000000000E+00 -0.00000000000E+00 -0.14150967801E+04  0.14150967801E+04  0.00000000000E+00 0. -1.
   -9000010    2    1    2    0  501  0.14162423807E+03  0.24273345389E+03 -0.10603361236E+04  0.14890638371E+04  0.10069863263E+04 0.  0.
    9000010    2    1    2  502    0 -0.14162423807E+03 -0.24273345389E+03  0.17979570198E+04  0.20787506193E+04  0.10047774568E+04 0.  0.
        -13    1    4    4    0    0 -0.18503700089E+03  0.10663563417E+02  0.18118321920E+04  0.18212875408E+04  0.10566000000E+00 0.  1.
          4    1    4    4  502    0  0.43412762816E+02 -0.25339701731E+03 -0.13875172223E+02  0.25746307844E+03  0.00000000000E+00 0.  1.
         13    1    3    3    0    0  0.55447925170E+03  0.17554929770E+03 -0.82413938222E+03  0.10086974417E+04  0.10566000000E+00 0. -1.
         -4    1    3    3    0  501 -0.41285501362E+03  0.67184156188E+02 -0.23619674140E+03  0.48036639533E+03  0.00000000000E+00 0. -1.
<mgrwt>
<rscale>  0 0.10444014E+04</rscale>
<asrwt>0</asrwt>
<pdfrwt beam="1">  1        4 0.33118734E+00 0.10433382E+04</pdfrwt>
<pdfrwt beam="2">  1       -4 0.21770719E+00 0.10454656E+04</pdfrwt>
<totfact> 0.75471432E-02</totfact>
</mgrwt>
</event>
<event>
 8    1  0.3025584E-006  0.1270991E+04  0.7818608E-02  0.8570911E-01
          4   -1    0    0  502    0  0.00000000000E+00  0.00000000000E+00  0.25591047520E+04  0.25591047520E+04  0.00000000000E+00 0.  1.
         -4   -1    0    0    0  501 -0.00000000000E+00 -0.00000000000E+00 -0.67542305744E+03  0.67542305744E+03  0.00000000000E+00 0. -1.
   -9000010    2    1    2    0  501  0.76183642230E+03  0.11893985390E+03  0.45103145883E+03  0.13486461163E+04  0.10103838612E+04 0.  0.
    9000010    2    1    2  502    0 -0.76183642230E+03 -0.11893985390E+03  0.14326502357E+04  0.18858816931E+04  0.95368843938E+03 0.  0.
        -13    1    4    4    0    0  0.13845201824E+02 -0.18587468946E+03 -0.65451842811E+02  0.19754757575E+03  0.10566000000E+00 0.  1.
          4    1    4    4  502    0 -0.77568162412E+03  0.66934835555E+02  0.14981020786E+04  0.16883341174E+04  0.00000000000E+00 0.  1.
         13    1    3    3    0    0  0.91830325001E+03  0.83018270533E+02  0.62346454018E+03  0.11130502847E+04  0.10566000000E+00 0. -1.
         -4    1    3    3    0  501 -0.15646682771E+03  0.35921583367E+02 -0.17243308136E+03  0.23559583161E+03  0.00000000000E+00 0. -1.
<mgrwt>
<rscale>  0 0.12484975E+04</rscale>
<asrwt>0</asrwt>
<pdfrwt beam="1">  1        4 0.39370842E+00 0.12264025E+04</pdfrwt>
<pdfrwt beam="2">  1       -4 0.10391124E+00 0.12709905E+04</pdfrwt>
<totfact> 0.13662398E-01</totfact>
</mgrwt>
</event>
<event>
 8    1  0.3025584E-006  0.1430600E+04  0.7818608E-02  0.8458654E-01
         -4   -1    0    0    0  501 -0.00000000000E+00  0.00000000000E+00  0.21126795877E+04  0.21126795877E+04  0.00000000000E+00 0. -1.
          4   -1    0    0  502    0  0.00000000000E+00 -0.00000000000E+00 -0.29017320461E+04  0.29017320461E+04  0.00000000000E+00 0.  1.
   -9000010    2    1    2    0  501  0.92383518280E+03  0.42042278618E+03  0.16599129803E+04  0.21913299022E+04  0.10081611350E+04 0.  0.
    9000010    2    1    2  502    0 -0.92383518280E+03 -0.42042278618E+03 -0.24489654387E+04  0.28230817316E+04  0.97063483289E+03 0.  0.
        -13    1    4    4    0    0 -0.52371031057E+03 -0.53507361624E+03 -0.22309074577E+04  0.23531945012E+04  0.10566000000E+00 0.  1.
          4    1    4    4  502    0 -0.40012487222E+03  0.11465083006E+03 -0.21805798101E+03  0.46988723039E+03  0.00000000000E+00 0.  1.
         13    1    3    3    0    0  0.19223069097E+03  0.87995334521E+02  0.12890853650E+04  0.13063065899E+04  0.10566000000E+00 0. -1.
         -4    1    3    3    0  501  0.73160449183E+03  0.33242745166E+03  0.37082761529E+03  0.88502331232E+03  0.00000000000E+00 0. -1.
<mgrwt>
<rscale>  0 0.14174428E+04</rscale>
<asrwt>0</asrwt>
<pdfrwt beam="2">  1        4 0.44642032E+00 0.14044069E+04</pdfrwt>
<pdfrwt beam="1">  1       -4 0.32502763E+00 0.14305997E+04</pdfrwt>
<totfact> 0.13837635E-02</totfact>
</mgrwt>
</event>
<event>
 8    1  0.3025584E-006  0.1027150E+04  0.7818608E-02  0.8755790E-01
         -4   -1    0    0    0  501 -0.00000000000E+00  0.00000000000E+00  0.18627063798E+04  0.18627063798E+04  0.00000000000E+00 0. -1.
          4   -1    0    0  502    0  0.00000000000E+00 -0.00000000000E+00 -0.16954891665E+04  0.16954891665E+04  0.00000000000E+00 0.  1.
   -9000010    2    1    2    0  501  0.16689532133E+03 -0.38723174735E+01  0.15404636866E+04  0.18515036647E+04  0.10134931708E+04 0.  0.
    9000010    2    1    2  502    0 -0.16689532133E+03  0.38723174735E+01 -0.13732464734E+04  0.17066918816E+04  0.99956103306E+03 0.  0.
        -13    1    4    4    0    0  0.24801329955E+03 -0.33225284197E+03 -0.31272112624E+03  0.51932365796E+03  0.10566000000E+00 0.  1.
          4    1    4    4  502    0 -0.41490862088E+03  0.33612515945E+03 -0.10605253472E+04  0.11873682236E+04  0.00000000000E+00 0.  1.
         13    1    3    3    0    0  0.17449808263E+03 -0.49566800332E+03  0.66764610646E+03  0.84963973836E+03  0.10566000000E+00 0. -1.
         -4    1    3    3    0  501 -0.76027613049E+01  0.49179568585E+03  0.87281758019E+03  0.10018639263E+04  0.00000000000E+00 0. -1.
<mgrwt>
<rscale>  0 0.10202548E+04</rscale>
<asrwt>0</asrwt>
<pdfrwt beam="2">  1        4 0.26084449E+00 0.10134058E+04</pdfrwt>
<pdfrwt beam="1">  1       -4 0.28657021E+00 0.10271502E+04</pdfrwt>
<totfact> 0.78919824E-02</totfact>
</mgrwt>
</event>
<event>
 8    1  0.3025584E-006  0.1100173E+04  0.7818608E-02  0.8690331E-01
          4   -1    0    0  502    0  0.00000000000E+00  0.00000000000E+00  0.26123999514E+04  0.26123999514E+04  0.00000000000E+00 0.  1.
         -4   -1    0    0    0  501 -0.00000000000E+00 -0.00000000000E+00 -0.15371417555E+04  0.15371417555E+04  0.00000000000E+00 0. -1.
   -9000010    2    1    2    0  501 -0.44243164976E+03 -0.85494456612E+02 -0.12009399116E+04  0.16214082764E+04  0.99179285179E+03 0.  0.
    9000010    2    1    2  502    0  0.44243164976E+03  0.85494456612E+02  0.22761981076E+04  0.25281334305E+04  0.10036561914E+04 0.  0.
        -13    1    4    4    0    0  0.55572639864E+03  0.30681386598E+03  0.21643141089E+04  0.22554871207E+04  0.10566000000E+00 0.  1.
          4    1    4    4  502    0 -0.11329474888E+03 -0.22131940937E+03  0.11188399870E+03  0.27264630981E+03  0.00000000000E+00 0.  1.
         13    1    3    3    0    0  0.53546242644E+02  0.39472384376E+03 -0.46672526805E+03  0.61360133633E+03  0.10566000000E+00 0. -1.
         -4    1    3    3    0  501 -0.49597789240E+03 -0.48021830038E+03 -0.73421464353E+03  0.10078069401E+04  0.00000000000E+00 0. -1.
<mgrwt>
<rscale>  0 0.10947539E+04</rscale>
<asrwt>0</asrwt>
<pdfrwt beam="1">  1        4 0.40190768E+00 0.11001731E+04</pdfrwt>
<pdfrwt beam="2">  1       -4 0.23648335E+00 0.10893613E+04</pdfrwt>
<totfact> 0.37798803E-02</totfact>
</mgrwt>
</event>
<event>
 8    1  0.3025584E-006  0.1226369E+04  0.7818608E-02  0.8588371E-01
         -4   -1    0    0    0  501 -0.00000000000E+00  0.00000000000E+00  0.17364870207E+04  0.17364870207E+04  0.00000000000E+00 0. -1.
          4   -1    0    0  502    0  0.00000000000E+00 -0.00000000000E+00 -0.19083270125E+04  0.19083270125E+04  0.00000000000E+00 0.  1.
   -9000010    2    1    2    0  501 -0.37809754502E+03  0.58990640697E+03  0.12626694687E+04  0.17575411639E+04  0.10018330366E+04 0.  0.
    9000010    2    1    2  502    0  0.37809754502E+03 -0.58990640697E+03 -0.14345094605E+04  0.18872728692E+04  0.10064959851E+04 0.  0.
        -13    1    4    4    0    0  0.39026954376E+03 -0.62669461939E+03 -0.37683988859E+03  0.82889370583E+03  0.10566000000E+00 0.  1.
          4    1    4    4  502    0 -0.12171998740E+02  0.36788212421E+02 -0.10576695719E+04  0.10583791634E+04  0.00000000000E+00 0.  1.
         13    1    3    3    0    0  0.27102958974E+03  0.30953504048E+03  0.83584713251E+03  0.93161656269E+03  0.10566000000E+00 0. -1.
         -4    1    3    3    0  501 -0.64912713477E+03  0.28037136649E+03  0.42682233620E+03  0.82592460123E+03  0.00000000000E+00 0. -1.
<mgrwt>
<rscale>  0 0.12244557E+04</rscale>
<asrwt>0</asrwt>
<pdfrwt beam="2">  1        4 0.29358877E+00 0.12263692E+04</pdfrwt>
<pdfrwt beam="1">  1       -4 0.26715185E+00 0.12225452E+04</pdfrwt>
<totfact> 0.71747184E-02</totfact>
</mgrwt>
</event>
<event>
 8    1  0.3025584E-006  0.1042347E+04  0.7818608E-02  0.8736224E-01
          4   -1    0    0  502    0  0.00000000000E+00  0.00000000000E+00  0.13470669904E+04  0.13470669904E+04  0.00000000000E+00 0.  1.
         -4   -1    0    0    0  501 -0.00000000000E+00 -0.00000000000E+00 -0.15216336463E+04  0.15216336463E+04  0.00000000000E+00 0. -1.
   -9000010    2    1    2    0  501  0.26694027342E+03  0.10870083939E+03 -0.10710567108E+04  0.14938619356E+04  0.10006937707E+04 0.  0.
    9000010    2    1    2  502    0 -0.26694027342E+03 -0.10870083939E+03  0.89649005493E+03  0.13748387012E+04  0.10017055723E+04 0.  0.
        -13    1    4    4    0    0 -0.43407242730E+03 -0.37025334546E+03  0.18695472885E+03  0.60038195656E+03  0.10566000000E+00 0.  1.
          4    1    4    4  502    0  0.16713215388E+03  0.26155250607E+03  0.70953532608E+03  0.77445674460E+03  0.00000000000E+00 0.  1.
         13    1    3    3    0    0  0.61996743123E+03  0.14003787817E+03 -0.89608751332E+03  0.10986096057E+04  0.10566000000E+00 0. -1.
         -4    1    3    3    0  501 -0.35302715781E+03 -0.31337038778E+02 -0.17496919750E+03  0.39525232982E+03  0.00000000000E+00 0. -1.
<mgrwt>
<rscale>  0 0.10418606E+04</rscale>
<asrwt>0</asrwt>
<pdfrwt beam="1">  1        4 0.20724108E+00 0.10423469E+04</pdfrwt>
<pdfrwt beam="2">  1       -4 0.23409748E+00 0.10413746E+04</pdfrwt>
<totfact> 0.14217220E-01</totfact>
</mgrwt>
</event>
<event>
 8    1  0.3025584E-006  0.1130865E+04  0.7818608E-02  0.8660624E-01
         -4   -1    0    0    0  501 -0.00000000000E+00  0.00000000000E+00  0.40700385280E+03  0.40700385280E+03  0.00000000000E+00 0. -1.
          4   -1    0    0  502    0  0.00000000000E+00 -0.00000000000E+00 -0.32025719486E+04  0.32025719486E+04  0.00000000000E+00 0.  1.
   -9000010    2    1    2    0  501 -0.13897038990E+03  0.51528747174E+03 -0.11485719057E+04  0.16118542702E+04  0.99700692977E+03 0.  0.
    9000010    2    1    2  502    0  0.13897038990E+03 -0.51528747174E+03 -0.16469961901E+04  0.19977215312E+04  0.99672509661E+03 0.  0.
        -13    1    4    4    0    0  0.42553405702E+03 -0.89681233993E+02 -0.13187862076E+04  0.13886392728E+04  0.10566000000E+00 0.  1.
          4    1    4    4  502    0 -0.28656366712E+03 -0.42560623775E+03 -0.32820998256E+03  0.60908225847E+03  0.00000000000E+00 0.  1.
         13    1    3    3    0    0 -0.80584280578E+02  0.74874558349E+03 -0.46001430665E+03  0.88245506887E+03  0.10566000000E+00 0. -1.
         -4    1    3    3    0  501 -0.58386109320E+02 -0.23345811175E+03 -0.68855759906E+03  0.72939920135E+03  0.00000000000E+00 0. -1.
<mgrwt>
<rscale>  0 0.11307413E+04</rscale>
<asrwt>0</asrwt>
<pdfrwt beam="2">  1        4 0.49270336E+00 0.11306170E+04</pdfrwt>
<pdfrwt beam="1">  1       -4 0.62615979E-01 0.11308655E+04</pdfrwt>
<totfact> 0.13984429E-01</totfact>
</mgrwt>
</event>
<event>
 8    1  0.3025584E-006  0.1300688E+04  0.7818608E-02  0.8537473E-01
         -4   -1    0    0    0  501 -0.00000000000E+00  0.00000000000E+00  0.18808021383E+04  0.18808021383E+04  0.00000000000E+00 0. -1.
          4   -1    0    0  502    0  0.00000000000E+00 -0.00000000000E+00 -0.13952355298E+04  0.13952355298E+04  0.00000000000E+00 0.  1.
   -9000010    2    1    2    0  501 -0.76831941319E+03  0.33186633007E+03  0.12258378586E+04  0.17873073624E+04  0.99566016805E+03 0.  0.
    9000010    2    1    2  502    0  0.76831941319E+03 -0.33186633007E+03 -0.74027125013E+03  0.14887303057E+04  0.98380202151E+03 0.  0.
        -13    1    4    4    0    0  0.88555328088E+03 -0.44261026811E+03 -0.84065315100E+03  0.12987710322E+04  0.10566000000E+00 0.  1.
          4    1    4    4  502    0 -0.11723386768E+03  0.11074393804E+03  0.10038190087E+03  0.18995927344E+03  0.00000000000E+00 0.  1.
         13    1    3    3    0    0 -0.99711901865E+03  0.32123558845E+03  0.85855520170E+03  0.13544577093E+04  0.10566000000E+00 0. -1.
         -4    1    3    3    0  501  0.22879960546E+03  0.10630741620E+02  0.36728265693E+03  0.43284965312E+03  0.00000000000E+00 0. -1.
<mgrwt>
<rscale>  0 0.12961527E+04</rscale>
<asrwt>0</asrwt>
<pdfrwt beam="2">  1        4 0.21465162E+00 0.12916332E+04</pdfrwt>
<pdfrwt beam="1">  1       -4 0.28935418E+00 0.13006880E+04</pdfrwt>
<totfact> 0.98295811E-02</totfact>
</mgrwt>
</event>
<event>
 8    1  0.3025584E-006  0.1153035E+04  0.7818608E-02  0.8642928E-01
          4   -1    0    0  502    0  0.00000000000E+00  0.00000000000E+00  0.23734372620E+04  0.23734372620E+04  0.00000000000E+00 0.  1.
         -4   -1    0    0    0  501 -0.00000000000E+00 -0.00000000000E+00 -0.17063392739E+04  0.17063392739E+04  0.00000000000E+00 0. -1.
   -9000010    2    1    2    0  501  0.55065271798E+03  0.28932540209E+03 -0.13384203715E+04  0.17665954819E+04  0.97085678746E+03 0.  0.
    9000010    2    1    2  502    0 -0.55065271798E+03 -0.28932540209E+03  0.20055183595E+04  0.23131810540E+04  0.97045097451E+03 0.  0.
        -13    1    4    4    0    0 -0.73483114977E+03 -0.11881041719E+03  0.19005506085E+04  0.20411235535E+04  0.10566000000E+00 0.  1.
          4    1    4    4  502    0  0.18417843179E+03 -0.17051498490E+03  0.10496775099E+03  0.27205750046E+03  0.00000000000E+00 0.  1.
         13    1    3    3    0    0  0.91392171510E+02  0.59431038803E+03 -0.72245059210E+03  0.93994267673E+03  0.10566000000E+00 0. -1.
         -4    1    3    3    0  501  0.45926054647E+03 -0.30498498594E+03 -0.61596977939E+03  0.82665280518E+03  0.00000000000E+00 0. -1.
<mgrwt>
<rscale>  0 0.11528645E+04</rscale>
<asrwt>0</asrwt>
<pdfrwt beam="1">  1        4 0.36514420E+00 0.11526937E+04</pdfrwt>
<pdfrwt beam="2">  1       -4 0.26251373E+00 0.11530353E+04</pdfrwt>
<totfact> 0.44958769E-02</totfact>
</mgrwt>
</event>
<event>
 8    1  0.3025584E-006  0.1350737E+04  0.7818608E-02  0.8595549E-01
         -4   -1    0    0    0  501 -0.00000000000E+00  0.00000000000E+00  0.38390263261E+04  0.38390263261E+04  0.00000000000E+00 0. -1.
          4   -1    0    0  502    0  0.00000000000E+00 -0.00000000000E+00 -0.10460304845E+04  0.10460304845E+04  0.00000000000E+00 0.  1.
   -9000010    2    1    2    0  501  0.42203837116E+03 -0.60696917153E+01  0.33835685496E+04  0.36432163784E+04  0.12830963415E+04 0.  0.
    9000010    2    1    2  502    0 -0.42203837116E+03  0.60696917153E+01 -0.59057270799E+03  0.12418404322E+04  0.10075903472E+04 0.  0.
        -13    1    4    4    0    0  0.84013334517E+02  0.35053869992E+03  0.40382245295E+02  0.36272077059E+03  0.10566000000E+00 0.  1.
          4    1    4    4  502    0 -0.50605170568E+03 -0.34446900821E+03 -0.63095495329E+03  0.87911966166E+03  0.00000000000E+00 0.  1.
         13    1    3    3    0    0  0.57970797188E+02 -0.42819907348E+03  0.34222887117E+03  0.55121290921E+03  0.10566000000E+00 0. -1.
         -4    1    3    3    0  501  0.36406757397E+03  0.42212938177E+03  0.30413396785E+04  0.30920034692E+04  0.00000000000E+00 0. -1.
<mgrwt>
<rscale>  0 0.12147337E+04</rscale>
<asrwt>0</asrwt>
<pdfrwt beam="2">  1        4 0.16092777E+00 0.10924246E+04</pdfrwt>
<pdfrwt beam="1">  1       -4 0.59061943E+00 0.13507366E+04</pdfrwt>
<totfact> 0.77027890E-03</totfact>
</mgrwt>
</event>
<event>
 8    1  0.3025584E-006  0.1173959E+04  0.7818608E-02  0.8633301E-01
         -4   -1    0    0    0  501 -0.00000000000E+00  0.00000000000E+00  0.12742815952E+04  0.12742815952E+04  0.00000000000E+00 0. -1.
          4   -1    0    0  502    0  0.00000000000E+00 -0.00000000000E+00 -0.14658552474E+04  0.14658552474E+04  0.00000000000E+00 0.  1.
   -9000010    2    1    2    0  501 -0.56132355214E+03 -0.20879759839E+03  0.61979802969E+03  0.13275273778E+04  0.10097023195E+04 0.  0.
    9000010    2    1    2  502    0  0.56132355214E+03  0.20879759839E+03 -0.81137168190E+03  0.14126094648E+04  0.98917183875E+03 0.  0.
        -13    1    4    4    0    0 -0.33804734414E+02  0.38028073181E+03  0.12405719499E+02  0.38198181644E+03  0.10566000000E+00 0.  1.
          4    1    4    4  502    0  0.59512828655E+03 -0.17148313342E+03 -0.82377740140E+03  0.10306276484E+04  0.00000000000E+00 0.  1.
         13    1    3    3    0    0 -0.41469516300E+03 -0.23238727160E+03  0.89579324626E+03  0.10141111741E+04  0.10566000000E+00 0. -1.
         -4    1    3    3    0  501 -0.14662838914E+03  0.23589673216E+02 -0.27599521657E+03  0.31341620372E+03  0.00000000000E+00 0. -1.
<mgrwt>
<rscale>  0 0.11651203E+04</rscale>
<asrwt>0</asrwt>
<pdfrwt beam="2">  1        4 0.22551619E+00 0.11563483E+04</pdfrwt>
<pdfrwt beam="1">  1       -4 0.19604332E+00 0.11739588E+04</pdfrwt>
<totfact> 0.15960657E-01</totfact>
</mgrwt>
</event>
<event>
 8    1  0.3025584E-006  0.1234757E+04  0.7818608E-02  0.8621239E-01
         -4   -1    0    0    0  501 -0.00000000000E+00  0.00000000000E+00  0.16245594895E+04  0.16245594895E+04  0.00000000000E+00 0. -1.
          4   -1    0    0  502    0  0.00000000000E+00 -0.00000000000E+00 -0.87321707501E+03  0.87321707501E+03  0.00000000000E+00 0.  1.
   -9000010    2    1    2    0  501  0.10664598039E+03  0.51440507906E+03  0.54669236286E+03  0.13503697703E+04  0.11174256245E+04 0.  0.
    9000010    2    1    2  502    0 -0.10664598039E+03 -0.51440507906E+03  0.20465005167E+03  0.11474067943E+04  0.99933715903E+03 0.  0.
        -13    1    4    4    0    0  0.18618168998E+03 -0.25151145243E+03 -0.34861805019E+03  0.46846151226E+03  0.10566000000E+00 0.  1.
          4    1    4    4  502    0 -0.29282767037E+03 -0.26289362662E+03  0.55326810186E+03  0.67894528203E+03  0.00000000000E+00 0.  1.
         13    1    3    3    0    0  0.36068072903E+03  0.93164128036E+02 -0.22502296805E+03  0.43520741074E+03  0.10566000000E+00 0. -1.
         -4    1    3    3    0  501 -0.25403474864E+03  0.42124095102E+03  0.77171533091E+03  0.91516235953E+03  0.00000000000E+00 0. -1.
<mgrwt>
<rscale>  0 0.11806998E+04</rscale>
<asrwt>0</asrwt>
<pdfrwt beam="2">  1        4 0.13434109E+00 0.11290087E+04</pdfrwt>
<pdfrwt beam="1">  1       -4 0.24993223E+00 0.12347575E+04</pdfrwt>
<totfact> 0.23822227E-01</totfact>
</mgrwt>
</event>
<event>
 8    1  0.3025584E-006  0.1485173E+04  0.7818608E-02  0.8428349E-01
         -4   -1    0    0    0  501 -0.00000000000E+00  0.00000000000E+00  0.24983784668E+04  0.24983784668E+04  0.00000000000E+00 0.  1.
          4   -1    0    0  502    0  0.00000000000E+00 -0.00000000000E+00 -0.90175082402E+03  0.90175082402E+03  0.00000000000E+00 0. -1.
   -9000010    2    1    2    0  501 -0.77767668083E+03  0.74699229950E+03  0.11447941203E+04  0.18477465323E+04  0.96996657384E+03 0.  0.
    9000010    2    1    2  502    0  0.77767668083E+03 -0.74699229950E+03  0.45183352250E+03  0.15523827585E+04  0.10212542198E+04 0.  0.
        -13    1    4    4    0    0  0.21055948263E+03 -0.70962836101E+02 -0.31354222697E+03  0.38429124253E+03  0.10566000000E+00 0.  1.
          4    1    4    4  502    0  0.56711719821E+03 -0.67602946340E+03  0.76537574946E+03  0.11680915160E+04  0.00000000000E+00 0.  1.
         13    1    3    3    0    0 -0.21497927906E+03 -0.23236619008E+03  0.19349162822E+03  0.37101099454E+03  0.10566000000E+00 0. -1.
         -4    1    3    3    0  501 -0.56269740177E+03  0.97935848958E+03  0.95130249208E+03  0.14767355378E+04  0.00000000000E+00 0. -1.
<mgrwt>
<rscale>  0 0.14676754E+04</rscale>
<asrwt>0</asrwt>
<pdfrwt beam="2">  1        4 0.13873090E+00 0.14851730E+04</pdfrwt>
<pdfrwt beam="1">  1       -4 0.38436592E+00 0.14503840E+04</pdfrwt>
<totfact> 0.89427417E-02</totfact>
</mgrwt>
</event>
<event>
 8    1  0.3025584E-006  0.1177080E+04  0.7818608E-02  0.8633195E-01
          4   -1    0    0  502    0  0.00000000000E+00  0.00000000000E+00  0.12378039679E+04  0.12378039679E+04  0.00000000000E+00 0.  1.
         -4   -1    0    0    0  501 -0.00000000000E+00 -0.00000000000E+00 -0.13165286497E+04  0.13165286497E+04  0.00000000000E+00 0. -1.
   -9000010    2    1    2    0  501 -0.32516949252E+03  0.52740849093E+03 -0.56111585227E+03  0.13039816491E+04  0.10008107845E+04 0.  0.
    9000010    2    1    2  502    0  0.32516949252E+03 -0.52740849093E+03  0.48239117045E+03  0.12503509684E+04  0.97302692038E+03 0.  0.
        -13    1    4    4    0    0  0.59203704804E+03 -0.63125117053E+03  0.39186772531E+03  0.95002433224E+03  0.10566000000E+00 0.  1.
          4    1    4    4  502    0 -0.26686755552E+03  0.10384267960E+03  0.90523445141E+02  0.30032663620E+03  0.00000000000E+00 0.  1.
         13    1    3    3    0    0 -0.68474830105E+03  0.28521647239E+03 -0.31942724942E+03  0.80762766840E+03  0.10566000000E+00 0. -1.
         -4    1    3    3    0  501  0.35957880854E+03  0.24219201854E+03 -0.24168860284E+03  0.49635398068E+03  0.00000000000E+00 0. -1.
<mgrwt>
<rscale>  0 0.11652553E+04</rscale>
<asrwt>0</asrwt>
<pdfrwt beam="1">  1        4 0.19043138E+00 0.11535494E+04</pdfrwt>
<pdfrwt beam="2">  1       -4 0.20254287E+00 0.11770799E+04</pdfrwt>
<totfact> 0.19028742E-01</totfact>
</mgrwt>
</event>
<event>
 8    1  0.3025584E-006  0.1048081E+04  0.7818608E-02  0.8737419E-01
          4   -1    0    0  502    0  0.00000000000E+00  0.00000000000E+00  0.31370581720E+04  0.31370581720E+04  0.00000000000E+00 0.  1.
         -4   -1    0    0    0  501 -0.00000000000E+00 -0.00000000000E+00 -0.34690201546E+03  0.34690201546E+03  0.00000000000E+00 0. -1.
   -9000010    2    1    2    0  501 -0.47923750135E+02  0.27672256439E+03  0.15289815322E+04  0.18537148701E+04  0.10097535494E+04 0.  0.
    9000010    2    1    2  502    0  0.47923750135E+02 -0.27672256439E+03  0.12611746244E+04  0.16302453173E+04  0.99411583733E+03 0.  0.
        -13    1    4    4    0    0 -0.16218569417E+03 -0.19696721541E+03  0.13607298544E+04  0.13844443041E+04  0.10566000000E+00 0.  1.
          4    1    4    4  502    0  0.21010944431E+03 -0.79755348983E+02 -0.99555230022E+02  0.24580101323E+03  0.00000000000E+00 0.  1.
         13    1    3    3    0    0 -0.26603711800E+03 -0.28161088805E+03  0.31311224813E+03  0.49811618275E+03  0.10566000000E+00 0. -1.
         -4    1    3    3    0  501  0.21811336787E+03  0.55833345244E+03  0.12158692840E+04  0.13555986874E+04  0.00000000000E+00 0. -1.
<mgrwt>
<rscale>  0 0.10405253E+04</rscale>
<asrwt>0</asrwt>
<pdfrwt beam="1">  1        4 0.48262431E+00 0.10330239E+04</pdfrwt>
<pdfrwt beam="2">  1       -4 0.53369543E-01 0.10480812E+04</pdfrwt>
<totfact> 0.22050379E-01</totfact>
</mgrwt>
</event>
<event>
 8    1  0.3025584E-006  0.2324301E+04  0.7818608E-02  0.8073571E-01
          4   -1    0    0  502    0  0.00000000000E+00  0.00000000000E+00  0.49474146853E+04  0.49474146853E+04  0.00000000000E+00 0. -1.
         -4   -1    0    0    0  501 -0.00000000000E+00 -0.00000000000E+00 -0.11620579059E+04  0.11620579059E+04  0.00000000000E+00 0.  1.
   -9000010    2    1    2    0  501  0.88851519133E+02 -0.19355717229E+04  0.89584403687E+03  0.24909657154E+04  0.12837605579E+04 0.  0.
    9000010    2    1    2  502    0 -0.88851519133E+02  0.19355717229E+04  0.28895127425E+04  0.36185068758E+04  0.99497519243E+03 0.  0.
        -13    1    4    4    0    0  0.20552452050E+03  0.41022349337E+03  0.17533007654E+03  0.49118661417E+03  0.10566000000E+00 0.  1.
          4    1    4    4  502    0 -0.29437603963E+03  0.15253482296E+04  0.27141826660E+04  0.31273202616E+04  0.00000000000E+00 0.  1.
         13    1    3    3    0    0  0.33141264361E+03 -0.15161346171E+04  0.94852678460E+02  0.15548297525E+04  0.10566000000E+00 0. -1.
         -4    1    3    3    0  501 -0.24256112448E+03 -0.41943710590E+03  0.80099135841E+03  0.93613596297E+03  0.00000000000E+00 0. -1.
<mgrwt>
<rscale>  0 0.22500355E+04</rscale>
<asrwt>0</asrwt>
<pdfrwt beam="1">  1        4 0.76114071E+00 0.21781433E+04</pdfrwt>
<pdfrwt beam="2">  1       -4 0.17877814E+00 0.23243007E+04</pdfrwt>
<totfact> 0.71736425E-04</totfact>
</mgrwt>
</event>
<event>
 8    1  0.3025584E-006  0.1528525E+04  0.7818608E-02  0.8394621E-01
          4   -1    0    0  502    0  0.00000000000E+00  0.00000000000E+00  0.13194794498E+04  0.13194794498E+04  0.00000000000E+00 0.  1.
         -4   -1    0    0    0  501 -0.00000000000E+00 -0.00000000000E+00 -0.27169872849E+04  0.27169872849E+04  0.00000000000E+00 0. -1.
   -9000010    2    1    2    0  501 -0.91692015704E+03  0.69361749812E+03 -0.18926105324E+04  0.24297574938E+04  0.99994952036E+03 0.  0.
    9000010    2    1    2  502    0  0.91692015704E+03 -0.69361749812E+03  0.49510269735E+03  0.16067092408E+04  0.10072438114E+04 0.  0.
        -13    1    4    4    0    0 -0.88878140426E+02 -0.31111488269E+03  0.41699378178E+03  0.52780263289E+03  0.10566000000E+00 0.  1.
          4    1    4    4  502    0  0.10057982975E+04 -0.38250261543E+03  0.78108915568E+02  0.10789066080E+04  0.00000000000E+00 0.  1.
         13    1    3    3    0    0 -0.81974127835E+03  0.54431552532E+02 -0.13742067789E+04  0.16010567884E+04  0.10566000000E+00 0. -1.
         -4    1    3    3    0  501 -0.97178878683E+02  0.63918594559E+03 -0.51840375353E+03  0.82870070543E+03  0.00000000000E+00 0. -1.
<mgrwt>
<rscale>  0 0.15261245E+04</rscale>
<asrwt>0</asrwt>
<pdfrwt beam="1">  1        4 0.20299684E+00 0.15285247E+04</pdfrwt>
<pdfrwt beam="2">  1       -4 0.41799804E+00 0.15237279E+04</pdfrwt>
<totfact> 0.37937658E-02</totfact>
</mgrwt>
</event>
<event>
 8    1  0.3025584E-006  0.1187787E+04  0.7818608E-02  0.8668989E-01
         -4   -1    0    0    0  501 -0.00000000000E+00  0.00000000000E+00  0.12550573779E+04  0.12550573779E+04  0.00000000000E+00 0. -1.
          4   -1    0    0  502    0  0.00000000000E+00 -0.00000000000E+00 -0.26963812490E+04  0.26963812490E+04  0.00000000000E+00 0.  1.
   -9000010    2    1    2    0  501  0.20562337972E+03 -0.50095307158E+03  0.82809494001E+03  0.14479569096E+04  0.10571674552E+04 0.  0.
    9000010    2    1    2  502    0 -0.20562337972E+03  0.50095307158E+03 -0.22694188111E+04  0.25034817173E+04  0.90770260244E+03 0.  0.
        -13    1    4    4    0    0  0.22119442834E+03 -0.11474646547E+03 -0.98980813271E+03  0.10206928418E+04  0.10566000000E+00 0.  1.
          4    1    4    4  502    0 -0.42681780806E+03  0.61569953705E+03 -0.12796106784E+04  0.14827888755E+04  0.00000000000E+00 0.  1.
         13    1    3    3    0    0  0.50026899702E+03 -0.61316305549E+03  0.32770686693E+03  0.85652192254E+03  0.10566000000E+00 0. -1.
         -4    1    3    3    0  501 -0.29464561729E+03  0.11220998392E+03  0.50038807309E+03  0.59143498710E+03  0.00000000000E+00 0. -1.
<mgrwt>
<rscale>  0 0.11204643E+04</rscale>
<asrwt>0</asrwt>
<pdfrwt beam="2">  1        4 0.41482788E+00 0.10569574E+04</pdfrwt>
<pdfrwt beam="1">  1       -4 0.19308575E+00 0.11877870E+04</pdfrwt>
<totfact> 0.43655433E-02</totfact>
</mgrwt>
</event>
<event>
 8    1  0.3025584E-006  0.1045469E+04  0.7818608E-02  0.8766645E-01
          4   -1    0    0  502    0  0.00000000000E+00  0.00000000000E+00  0.10591654956E+04  0.10591654956E+04  0.00000000000E+00 0.  1.
         -4   -1    0    0    0  501 -0.00000000000E+00 -0.00000000000E+00 -0.20632898624E+04  0.20632898624E+04  0.00000000000E+00 0. -1.
   -9000010    2    1    2    0  501 -0.23283612625E+03 -0.20042177678E+03 -0.16510022451E+04  0.19541785922E+04  0.99931176655E+03 0.  0.
    9000010    2    1    2  502    0  0.23283612625E+03  0.20042177678E+03  0.64687787825E+03  0.11682767657E+04  0.92305907812E+03 0.  0.
        -13    1    4    4    0    0 -0.12739015676E+03 -0.48516171210E+02  0.71258014378E+03  0.72550158055E+03  0.10566000000E+00 0.  1.
          4    1    4    4  502    0  0.36022628300E+03  0.24893794799E+03 -0.65702265538E+02  0.44277518518E+03  0.00000000000E+00 0.  1.
         13    1    3    3    0    0 -0.37619153704E+03  0.26029043788E+03 -0.12353544574E+04  0.13173351249E+04  0.10566000000E+00 0. -1.
         -4    1    3    3    0  501  0.14335541079E+03 -0.46071221465E+03 -0.41564778767E+03  0.63684346737E+03  0.00000000000E+00 0. -1.
<mgrwt>
<rscale>  0 0.10085014E+04</rscale>
<asrwt>0</asrwt>
<pdfrwt beam="1">  1        4 0.16294854E+00 0.97284100E+03</pdfrwt>
<pdfrwt beam="2">  1       -4 0.31742921E+00 0.10454691E+04</pdfrwt>
<totfact> 0.12148547E-01</totfact>
</mgrwt>
</event>
<event>
 8    1  0.3025584E-006  0.1259490E+04  0.7818608E-02  0.8571703E-01
          4   -1    0    0  502    0  0.00000000000E+00  0.00000000000E+00  0.14613596594E+04  0.14613596594E+04  0.00000000000E+00 0.  1.
         -4   -1    0    0    0  501 -0.00000000000E+00 -0.00000000000E+00 -0.12051159515E+04  0.12051159515E+04  0.00000000000E+00 0. -1.
   -9000010    2    1    2    0  501 -0.77445166800E+03  0.34948077538E+02 -0.32560823405E+03  0.13008983119E+04  0.99263232948E+03 0.  0.
    9000010    2    1    2  502    0  0.77445166800E+03 -0.34948077538E+02  0.58185194201E+03  0.13655772991E+04  0.96190068254E+03 0.  0.
        -13    1    4    4    0    0  0.47831231998E+03  0.37706421773E+02  0.83913175225E+03  0.96661603467E+03  0.10566000000E+00 0.  1.
          4    1    4    4  502    0  0.29613934802E+03 -0.72654499311E+02 -0.25727981024E+03  0.39896126438E+03  0.00000000000E+00 0.  1.
         13    1    3    3    0    0 -0.92940122151E+03 -0.12876258558E+03 -0.42808475852E+02  0.93925449733E+03  0.10566000000E+00 0. -1.
         -4    1    3    3    0  501  0.15494955351E+03  0.16371066311E+03 -0.28279975820E+03  0.36164381453E+03  0.00000000000E+00 0. -1.
<mgrwt>
<rscale>  0 0.12473944E+04</rscale>
<asrwt>0</asrwt>
<pdfrwt beam="1">  1        4 0.22482456E+00 0.12354148E+04</pdfrwt>
<pdfrwt beam="2">  1       -4 0.18540245E+00 0.12594903E+04</pdfrwt>
<totfact> 0.17195515E-01</totfact>
</mgrwt>
</event>
<event>
 8    1  0.3025584E-006  0.1167002E+04  0.7818608E-02  0.8646944E-01
          4   -1    0    0  502    0  0.00000000000E+00  0.00000000000E+00  0.29933652240E+04  0.29933652240E+04  0.00000000000E+00 0.  1.
         -4   -1    0    0    0  501 -0.00000000000E+00 -0.00000000000E+00 -0.17080795454E+04  0.17080795454E+04  0.00000000000E+00 0. -1.
   -9000010    2    1    2    0  501  0.36897898681E+03 -0.48622948636E+03 -0.13797902492E+04  0.18071289630E+04  0.99465036630E+03 0.  0.
    9000010    2    1    2  502    0 -0.36897898681E+03  0.48622948636E+03  0.26650759277E+04  0.28943158063E+04  0.94966819485E+03 0.  0.
        -13    1    4    4    0    0 -0.36040601815E+03  0.27379949410E+03  0.26419714838E+04  0.26804611531E+04  0.10566000000E+00 0.  1.
          4    1    4    4  502    0 -0.85729686506E+01  0.21242999226E+03  0.23104443951E+02  0.21385465329E+03  0.00000000000E+00 0.  1.
         13    1    3    3    0    0  0.23972885804E+03  0.27564033452E+03 -0.26759921871E+03  0.45283205762E+03  0.10566000000E+00 0. -1.
         -4    1    3    3    0  501  0.12925012876E+03 -0.76186982088E+03 -0.11121910304E+04  0.13542969054E+04  0.00000000000E+00 0. -1.
<mgrwt>
<rscale>  0 0.11477973E+04</rscale>
<asrwt>0</asrwt>
<pdfrwt beam="1">  1        4 0.46051773E+00 0.11289084E+04</pdfrwt>
<pdfrwt beam="2">  1       -4 0.26278147E+00 0.11670021E+04</pdfrwt>
<totfact> 0.17994996E-02</totfact>
</mgrwt>
</event>
<event>
 8    1  0.3025584E-006  0.1081724E+04  0.7818608E-02  0.8706906E-01
         -4   -1    0    0    0  501 -0.00000000000E+00  0.00000000000E+00  0.12993072068E+04  0.12993072068E+04  0.00000000000E+00 0. -1.
          4   -1    0    0  502    0  0.00000000000E+00 -0.00000000000E+00 -0.15462000297E+04  0.15462000297E+04  0.00000000000E+00 0.  1.
   -9000010    2    1    2    0  501 -0.14366329127E+03  0.40635021392E+03  0.80389221866E+03  0.13374372560E+04  0.97812886514E+03 0.  0.
    9000010    2    1    2  502    0  0.14366329127E+03 -0.40635021392E+03 -0.10507850416E+04  0.15080699805E+04  0.99215231935E+03 0.  0.
        -13    1    4    4    0    0 -0.39310302555E+03  0.23120567632E+02 -0.40509086271E+03  0.56494527838E+03  0.10566000000E+00 0.  1.
          4    1    4    4  502    0  0.53676631682E+03 -0.42947078156E+03 -0.64569417885E+03  0.94312470209E+03  0.00000000000E+00 0.  1.
         13    1    3    3    0    0 -0.23933177645E+03  0.52268726152E+03  0.96098038470E+03  0.11198057794E+04  0.10566000000E+00 0. -1.
         -4    1    3    3    0  501  0.95668485183E+02 -0.11633704759E+03 -0.15708816604E+03  0.21763147660E+03  0.00000000000E+00 0. -1.
<mgrwt>
<rscale>  0 0.10752805E+04</rscale>
<asrwt>0</asrwt>
<pdfrwt beam="2">  1        4 0.23787693E+00 0.10817236E+04</pdfrwt>
<pdfrwt beam="1">  1       -4 0.19989342E+00 0.10688759E+04</pdfrwt>
<totfact> 0.14564900E-01</totfact>
</mgrwt>
</event>
<event>
 8    1  0.3025584E-006  0.1130805E+04  0.7818608E-02  0.8686623E-01
         -4   -1    0    0    0  501 -0.00000000000E+00  0.00000000000E+00  0.16806719530E+04  0.16806719530E+04  0.00000000000E+00 0. -1.
          4   -1    0    0  502    0  0.00000000000E+00 -0.00000000000E+00 -0.25229327786E+04  0.25229327786E+04  0.00000000000E+00 0.  1.
   -9000010    2    1    2    0  501 -0.35720750680E+03 -0.67936716191E+02  0.13591080740E+04  0.17287826994E+04  0.10046403659E+04 0.  0.
    9000010    2    1    2  502    0  0.35720750680E+03  0.67936716191E+02 -0.22013688996E+04  0.24748220322E+04  0.10707504184E+04 0.  0.
        -13    1    4    4    0    0 -0.82447401161E+02 -0.16274559236E+03  0.33480838540E+02  0.18548498457E+03  0.10566000000E+00 0.  1.
          4    1    4    4  502    0  0.43965490796E+03  0.23068230855E+03 -0.22348497381E+04  0.22893370476E+04  0.00000000000E+00 0.  1.
         13    1    3    3    0    0 -0.33083173513E+03  0.43079155230E+03  0.89544328370E+03  0.10473059171E+04  0.10566000000E+00 0. -1.
         -4    1    3    3    0  501 -0.26375771669E+02 -0.49872826849E+03  0.46366479027E+03  0.68147678233E+03  0.00000000000E+00 0. -1.
<mgrwt>
<rscale>  0 0.10991683E+04</rscale>
<asrwt>0</asrwt>
<pdfrwt beam="2">  1        4 0.38814350E+00 0.11308046E+04</pdfrwt>
<pdfrwt beam="1">  1       -4 0.25856492E+00 0.10684170E+04</pdfrwt>
<totfact> 0.37850680E-02</totfact>
</mgrwt>
</event>
<event>
 8    1  0.3025584E-006  0.1191042E+04  0.7818608E-02  0.8650261E-01
          4   -1    0    0  502    0  0.00000000000E+00  0.00000000000E+00  0.15280540415E+04  0.15280540415E+04  0.00000000000E+00 0.  1.
         -4   -1    0    0    0  501 -0.00000000000E+00 -0.00000000000E+00 -0.13250735983E+04  0.13250735983E+04  0.00000000000E+00 0. -1.
   -9000010    2    1    2    0  501 -0.32495291739E+03  0.33346565061E+03 -0.74295487041E+03  0.14037676004E+04  0.10962608257E+04 0.  0.
    9000010    2    1    2  502    0  0.32495291739E+03 -0.33346565061E+03  0.94593531365E+03  0.14493600394E+04  0.99451353307E+03 0.  0.
        -13    1    4    4    0    0  0.51645465612E+03  0.12945644730E+03  0.73071421554E+03  0.90411706074E+03  0.10566000000E+00 0.  1.
          4    1    4    4  502    0 -0.19150173873E+03 -0.46292209791E+03  0.21522109811E+03  0.54524297863E+03  0.00000000000E+00 0.  1.
         13    1    3    3    0    0  0.62592427986E+02 -0.15572229431E+03 -0.76112274004E+03  0.77940687805E+03  0.10566000000E+00 0. -1.
         -4    1    3    3    0  501 -0.38754534538E+03  0.48918794492E+03  0.18167869631E+02  0.62436072239E+03  0.00000000000E+00 0. -1.
<mgrwt>
<rscale>  0 0.11436338E+04</rscale>
<asrwt>0</asrwt>
<pdfrwt beam="1">  1        4 0.23508524E+00 0.10981124E+04</pdfrwt>
<pdfrwt beam="2">  1       -4 0.20385748E+00 0.11910422E+04</pdfrwt>
<totfact> 0.14371122E-01</totfact>
</mgrwt>
</event>
<event>
 8    1  0.3025584E-006  0.1023715E+04  0.7818608E-02  0.8762346E-01
         -4   -1    0    0    0  501 -0.00000000000E+00  0.00000000000E+00  0.57837766737E+03  0.57837766737E+03  0.00000000000E+00 0. -1.
          4   -1    0    0  502    0  0.00000000000E+00 -0.00000000000E+00 -0.35155304316E+04  0.35155304316E+04  0.00000000000E+00 0.  1.
   -9000010    2    1    2    0  501  0.15332545267E+03 -0.15645595036E+02 -0.35968679671E+02  0.10243463993E+04  0.10120466000E+04 0.  0.
    9000010    2    1    2  502    0 -0.15332545267E+03  0.15645595036E+02 -0.29011840846E+04  0.30695616997E+04  0.99075045134E+03 0.  0.
        -13    1    4    4    0    0  0.89823952097E+02 -0.87242054999E+02  0.28158553648E+02  0.12834497979E+03  0.10566000000E+00 0.  1.
          4    1    4    4  502    0 -0.24314940476E+03  0.10288765003E+03 -0.29293426382E+04  0.29412167199E+04  0.00000000000E+00 0.  1.
         13    1    3    3    0    0  0.42835450715E+03  0.41413138206E+02  0.34461954811E+03  0.55133045981E+03  0.10566000000E+00 0. -1.
         -4    1    3    3    0  501 -0.27502905448E+03 -0.57058733241E+02 -0.38058822778E+03  0.47301593945E+03  0.00000000000E+00 0. -1.
<mgrwt>
<rscale>  0 0.10131359E+04</rscale>
<asrwt>0</asrwt>
<pdfrwt beam="2">  1        4 0.54085085E+00 0.10026664E+04</pdfrwt>
<pdfrwt beam="1">  1       -4 0.88981177E-01 0.10237147E+04</pdfrwt>
<totfact> 0.40709648E-02</totfact>
</mgrwt>
</event>
<event>
 8    1  0.3025584E-006  0.1052285E+04  0.7818608E-02  0.8735852E-01
         -4   -1    0    0    0  501 -0.00000000000E+00  0.00000000000E+00  0.18047999923E+04  0.18047999923E+04  0.00000000000E+00 0. -1.
          4   -1    0    0  502    0  0.00000000000E+00 -0.00000000000E+00 -0.11909496595E+04  0.11909496595E+04  0.00000000000E+00 0.  1.
   -9000010    2    1    2    0  501 -0.30229366948E+03  0.10561215195E+02  0.13587814427E+04  0.17064764263E+04  0.98705713242E+03 0.  0.
    9000010    2    1    2  502    0  0.30229366948E+03 -0.10561215195E+02 -0.74493110991E+03  0.12892732255E+04  0.10078740445E+04 0.  0.
        -13    1    4    4    0    0 -0.28202625317E+03  0.27370563889E+03 -0.19866190575E+03  0.44036365449E+03  0.10566000000E+00 0.  1.
          4    1    4    4  502    0  0.58431992266E+03 -0.28426685408E+03 -0.54626920416E+03  0.84890957101E+03  0.00000000000E+00 0.  1.
         13    1    3    3    0    0 -0.95703804651E+02  0.47783363703E+03  0.44684380420E+03  0.66117592169E+03  0.10566000000E+00 0. -1.
         -4    1    3    3    0  501 -0.20658986483E+03 -0.46727242184E+03  0.91193763845E+03  0.10453005046E+04  0.00000000000E+00 0. -1.
<mgrwt>
<rscale>  0 0.10422766E+04</rscale>
<asrwt>0</asrwt>
<pdfrwt beam="2">  1        4 0.18322302E+00 0.10522847E+04</pdfrwt>
<pdfrwt beam="1">  1       -4 0.27766154E+00 0.10323637E+04</pdfrwt>
<totfact> 0.13197082E-01</totfact>
</mgrwt>
</event>
<event>
 8    1  0.3025584E-006  0.1099022E+04  0.7818608E-02  0.8691849E-01
          4   -1    0    0  502    0  0.00000000000E+00  0.00000000000E+00  0.45841455486E+03  0.45841455486E+03  0.00000000000E+00 0.  1.
         -4   -1    0    0    0  501 -0.00000000000E+00 -0.00000000000E+00 -0.30102785677E+04  0.30102785677E+04  0.00000000000E+00 0. -1.
   -9000010    2    1    2    0  501  0.34790381012E+03  0.23749630124E+03 -0.19054711342E+04  0.21936742959E+04  0.10019706177E+04 0.  0.
    9000010    2    1    2  502    0 -0.34790381012E+03 -0.23749630124E+03 -0.64639287863E+03  0.12750188267E+04  0.10150899964E+04 0.  0.
        -13    1    4    4    0    0  0.17841192522E+03  0.90886915700E+02 -0.62281921773E+03  0.65421329522E+03  0.10566000000E+00 0.  1.
          4    1    4    4  502    0 -0.52631573534E+03 -0.32838321694E+03 -0.23573660891E+02  0.62080553148E+03  0.00000000000E+00 0.  1.
         13    1    3    3    0    0  0.37651976366E+03  0.38427001484E+03 -0.37469573580E+03  0.65561229574E+03  0.10566000000E+00 0. -1.
         -4    1    3    3    0  501 -0.28615953539E+02 -0.14677371360E+03 -0.15307753984E+04  0.15380620001E+04  0.00000000000E+00 0. -1.
<mgrwt>
<rscale>  0 0.10929523E+04</rscale>
<asrwt>0</asrwt>
<pdfrwt beam="1">  1        4 0.70525315E-01 0.10990220E+04</pdfrwt>
<pdfrwt beam="2">  1       -4 0.46311978E+00 0.10869161E+04</pdfrwt>
<totfact> 0.14996038E-01</totfact>
</mgrwt>
</event>
<event>
 8    1  0.3025584E-006  0.1609121E+04  0.7818608E-02  0.8354507E-01
          4   -1    0    0  502    0  0.00000000000E+00  0.00000000000E+00  0.36401542084E+04  0.36401542084E+04  0.00000000000E+00 0.  1.
         -4   -1    0    0    0  501 -0.00000000000E+00 -0.00000000000E+00 -0.14295686457E+04  0.14295686457E+04  0.00000000000E+00 0. -1.
   -9000010    2    1    2    0  501 -0.82757048445E+03 -0.95819231491E+03 -0.69885460003E+03  0.17543281434E+04  0.99310828396E+03 0.  0.
    9000010    2    1    2  502    0  0.82757048445E+03  0.95819231491E+03  0.29094401628E+04  0.33153947107E+04  0.96124638241E+03 0.  0.
        -13    1    4    4    0    0  0.80026359562E+03  0.46317453331E+03  0.10886914038E+04  0.14283562072E+04  0.10566000000E+00 0.  1.
          4    1    4    4  502    0  0.27306888829E+02  0.49501778160E+03  0.18207487589E+04  0.18870385034E+04  0.00000000000E+00 0.  1.
         13    1    3    3    0    0 -0.56737894935E+03  0.18861541836E+02 -0.92029364357E+02  0.57510350807E+03  0.10566000000E+00 0. -1.
         -4    1    3    3    0  501 -0.26019153510E+03 -0.97705385675E+03 -0.60682523567E+03  0.11792246353E+04  0.00000000000E+00 0. -1.
<mgrwt>
<rscale>  0 0.15993578E+04</rscale>
<asrwt>0</asrwt>
<pdfrwt beam="1">  1        4 0.56002372E+00 0.15896541E+04</pdfrwt>
<pdfrwt beam="2">  1       -4 0.21993364E+00 0.16091207E+04</pdfrwt>
<totfact> 0.72044612E-03</totfact>
</mgrwt>
</event>
<event>
 8    1  0.3025584E-006  0.1048905E+04  0.7818608E-02  0.8732378E-01
          4   -1    0    0  502    0  0.00000000000E+00  0.00000000000E+00  0.17636221960E+04  0.17636221960E+04  0.00000000000E+00 0.  1.
         -4   -1    0    0    0  501 -0.00000000000E+00 -0.00000000000E+00 -0.29265702776E+04  0.29265702776E+04  0.00000000000E+00 0. -1.
   -9000010    2    1    2    0  501  0.16643422490E+03  0.10979908493E+03 -0.26628077217E+04  0.28599518265E+04  0.10242183833E+04 0.  0.
    9000010    2    1    2  502    0 -0.16643422490E+03 -0.10979908493E+03  0.14998596401E+04  0.18302406470E+04  0.10297794403E+04 0.  0.
        -13    1    4    4    0    0 -0.12288817606E+03 -0.69407654636E+02 -0.13440685828E+03  0.19489520531E+03  0.10566000000E+00 0.  1.
          4    1    4    4  502    0 -0.43546048840E+02 -0.40391430292E+02  0.16342664984E+04  0.16353454417E+04  0.00000000000E+00 0.  1.
         13    1    3    3    0    0 -0.32077166168E+03 -0.42981854174E+02 -0.19857107046E+04  0.20119117556E+04  0.10566000000E+00 0. -1.
         -4    1    3    3    0  501  0.48720588658E+03  0.15278093910E+03 -0.67709701709E+03  0.84804007089E+03  0.00000000000E+00 0. -1.
<mgrwt>
<rscale>  0 0.10461720E+04</rscale>
<asrwt>0</asrwt>
<pdfrwt beam="1">  1        4 0.27132649E+00 0.10489051E+04</pdfrwt>
<pdfrwt beam="2">  1       -4 0.45024158E+00 0.10434460E+04</pdfrwt>
<totfact> 0.19563977E-02</totfact>
</mgrwt>
</event>
<event>
 8    1  0.3025584E-006  0.1149046E+04  0.7818608E-02  0.8655524E-01
         -4   -1    0    0    0  501 -0.00000000000E+00  0.00000000000E+00  0.23528254099E+04  0.23528254099E+04  0.00000000000E+00 0. -1.
          4   -1    0    0  502    0  0.00000000000E+00 -0.00000000000E+00 -0.57794099940E+03  0.57794099940E+03  0.00000000000E+00 0.  1.
   -9000010    2    1    2    0  501  0.29550565219E+02  0.58780521567E+03  0.12032176743E+04  0.16473688860E+04  0.95901160960E+03 0.  0.
    9000010    2    1    2  502    0 -0.29550565219E+02 -0.58780521567E+03  0.57166673619E+03  0.12833975233E+04  0.98687290878E+03 0.  0.
        -13    1    4    4    0    0  0.21872415127E+03 -0.51585484442E+03  0.77372892685E+03  0.95530253756E+03  0.10566000000E+00 0.  1.
          4    1    4    4  502    0 -0.24827471649E+03 -0.71950371251E+02 -0.20206219066E+03  0.32809498574E+03  0.00000000000E+00 0.  1.
         13    1    3    3    0    0  0.84784166982E+02  0.16791417967E+03 -0.14288293008E+03  0.23621826682E+03  0.10566000000E+00 0. -1.
         -4    1    3    3    0  501 -0.55233601763E+02  0.41989103600E+03  0.13461006044E+04  0.14111506192E+04  0.00000000000E+00 0. -1.
<mgrwt>
<rscale>  0 0.11370641E+04</rscale>
<asrwt>0</asrwt>
<pdfrwt beam="2">  1        4 0.88914001E-01 0.11490458E+04</pdfrwt>
<pdfrwt beam="1">  1       -4 0.36197314E+00 0.11252073E+04</pdfrwt>
<totfact> 0.24503775E-01</totfact>
</mgrwt>
</event>
<event>
 8    1  0.3025584E-006  0.1248961E+04  0.7818608E-02  0.8575225E-01
         -4   -1    0    0    0  501 -0.00000000000E+00  0.00000000000E+00  0.11285589989E+04  0.11285589989E+04  0.00000000000E+00 0. -1.
          4   -1    0    0  502    0  0.00000000000E+00 -0.00000000000E+00 -0.13680244010E+04  0.13680244010E+04  0.00000000000E+00 0.  1.
   -9000010    2    1    2    0  501  0.41072177409E+03 -0.58869162588E+03 -0.12661151462E+03  0.12553617776E+04  0.10220824384E+04 0.  0.
    9000010    2    1    2  502    0 -0.41072177409E+03  0.58869162588E+03 -0.11285388743E+03  0.12412216224E+04  0.10063025936E+04 0.  0.
        -13    1    4    4    0    0 -0.66977822629E+02  0.40580308028E+03  0.41566840805E+03  0.58475841619E+03  0.10566000000E+00 0.  1.
          4    1    4    4  502    0 -0.34374395146E+03  0.18288854559E+03 -0.52852229548E+03  0.65646320620E+03  0.00000000000E+00 0.  1.
         13    1    3    3    0    0 -0.15115732122E+03 -0.50232667373E+03  0.24213438439E+03  0.57776266249E+03  0.10566000000E+00 0. -1.
         -4    1    3    3    0  501  0.56187909531E+03 -0.86364952146E+02 -0.36874589901E+03  0.67759911507E+03  0.00000000000E+00 0. -1.
<mgrwt>
<rscale>  0 0.12425039E+04</rscale>
<asrwt>0</asrwt>
<pdfrwt beam="2">  1        4 0.21046529E+00 0.12360805E+04</pdfrwt>
<pdfrwt beam="1">  1       -4 0.17362446E+00 0.12489607E+04</pdfrwt>
<totfact> 0.20513281E-01</totfact>
</mgrwt>
</event>
<event>
 8    1  0.3025584E-006  0.1121781E+04  0.7818608E-02  0.8675461E-01
         -4   -1    0    0    0  501 -0.00000000000E+00  0.00000000000E+00  0.31889813814E+04  0.31889813814E+04  0.00000000000E+00 0. -1.
          4   -1    0    0  502    0  0.00000000000E+00 -0.00000000000E+00 -0.10676544181E+04  0.10676544181E+04  0.00000000000E+00 0.  1.
   -9000010    2    1    2    0  501 -0.43897479754E+03  0.16380450327E+03  0.27616811032E+04  0.29808180357E+04  0.10192462205E+04 0.  0.
    9000010    2    1    2  502    0  0.43897479754E+03 -0.16380450327E+03 -0.64035413986E+03  0.12758177638E+04  0.99906293784E+03 0.  0.
        -13    1    4    4    0    0 -0.21004721997E+03 -0.21078378382E+03  0.76921926149E+02  0.30735424517E+03  0.10566000000E+00 0.  1.
          4    1    4    4  502    0  0.64902201751E+03  0.46979280546E+02 -0.71727606601E+03  0.96846351861E+03  0.00000000000E+00 0.  1.
         13    1    3    3    0    0 -0.14105335776E+01 -0.37350036724E+03  0.14502525460E+04  0.14975770339E+04  0.10566000000E+00 0. -1.
         -4    1    3    3    0  501 -0.43756426397E+03  0.53730487051E+03  0.13114285571E+04  0.14832410018E+04  0.00000000000E+00 0. -1.
<mgrwt>
<rscale>  0 0.11125907E+04</rscale>
<asrwt>0</asrwt>
<pdfrwt beam="2">  1        4 0.16425453E+00 0.11034752E+04</pdfrwt>
<pdfrwt beam="1">  1       -4 0.49061252E+00 0.11217815E+04</pdfrwt>
<totfact> 0.24432168E-02</totfact>
</mgrwt>
</event>
<event>
 8    1  0.3025584E-006  0.1018124E+04  0.7818608E-02  0.8767505E-01
         -4   -1    0    0    0  501 -0.00000000000E+00  0.00000000000E+00  0.33204171436E+03  0.33204171436E+03  0.00000000000E+00 0. -1.
          4   -1    0    0  502    0  0.00000000000E+00 -0.00000000000E+00 -0.34922124659E+04  0.34922124659E+04  0.00000000000E+00 0.  1.
   -9000010    2    1    2    0  501 -0.12613276348E+03 -0.14213301194E+03 -0.92013428616E+03  0.13723062048E+04  0.10002329470E+04 0.  0.
    9000010    2    1    2  502    0  0.12613276348E+03  0.14213301194E+03 -0.22400364654E+04  0.24519479755E+04  0.97886374988E+03 0.  0.
        -13    1    4    4    0    0 -0.13918828414E+03  0.49872170080E+03 -0.15200877245E+04  0.16058528621E+04  0.10566000000E+00 0.  1.
          4    1    4    4  502    0  0.26532104762E+03 -0.35658868886E+03 -0.71994874088E+03  0.84609511335E+03  0.00000000000E+00 0.  1.
         13    1    3    3    0    0 -0.54210874419E+03  0.44963934452E+02 -0.37095349425E+03  0.65841487832E+03  0.10566000000E+00 0. -1.
         -4    1    3    3    0  501  0.41597598071E+03 -0.18709694639E+03 -0.54918079191E+03  0.71389132652E+03  0.00000000000E+00 0. -1.
<mgrwt>
<rscale>  0 0.10075769E+04</rscale>
<asrwt>0</asrwt>
<pdfrwt beam="2">  1        4 0.53726346E+00 0.99713866E+03</pdfrwt>
<pdfrwt beam="1">  1       -4 0.51083340E-01 0.10181244E+04</pdfrwt>
<totfact> 0.13523998E-01</totfact>
</mgrwt>
</event>
<event>
 8    1  0.3025584E-006  0.1063620E+04  0.7818608E-02  0.8726692E-01
         -4   -1    0    0    0  501 -0.00000000000E+00  0.00000000000E+00  0.10239146966E+04  0.10239146966E+04  0.00000000000E+00 0. -1.
          4   -1    0    0  502    0  0.00000000000E+00 -0.00000000000E+00 -0.14638537187E+04  0.14638537187E+04  0.00000000000E+00 0.  1.
   -9000010    2    1    2    0  501  0.31228616236E+03 -0.71769561741E+02  0.41685412548E+03  0.11219781873E+04  0.99115799628E+03 0.  0.
    9000010    2    1    2  502    0 -0.31228616236E+03  0.71769561741E+02 -0.85679314760E+03  0.13657902281E+04  0.10142065530E+04 0.  0.
        -13    1    4    4    0    0 -0.54842736228E+03 -0.29762280818E+03 -0.47087463556E+03  0.78171276133E+03  0.10566000000E+00 0.  1.
          4    1    4    4  502    0  0.23614119992E+03  0.36939236992E+03 -0.38591851204E+03  0.58407746677E+03  0.00000000000E+00 0.  1.
         13    1    3    3    0    0  0.39466078158E+03  0.39217205108E+03  0.13358944456E+03  0.57219070337E+03  0.10566000000E+00 0. -1.
         -4    1    3    3    0  501 -0.82374619221E+02 -0.46394161282E+03  0.28326468092E+03  0.54978748390E+03  0.00000000000E+00 0. -1.
<mgrwt>
<rscale>  0 0.10525859E+04</rscale>
<asrwt>0</asrwt>
<pdfrwt beam="2">  1        4 0.22520826E+00 0.10636204E+04</pdfrwt>
<pdfrwt beam="1">  1       -4 0.15752534E+00 0.10416658E+04</pdfrwt>
<totfact> 0.21678075E-01</totfact>
</mgrwt>
</event>
<event>
 8    1  0.3025584E-006  0.1106336E+04  0.7818608E-02  0.8684437E-01
         -4   -1    0    0    0  501 -0.00000000000E+00  0.00000000000E+00  0.25049798965E+04  0.25049798965E+04  0.00000000000E+00 0. -1.
          4   -1    0    0  502    0  0.00000000000E+00 -0.00000000000E+00 -0.53206826199E+03  0.53206826199E+03  0.00000000000E+00 0.  1.
   -9000010    2    1    2    0  501 -0.37428772456E+02  0.46259696032E+03  0.14362547596E+04  0.18074226251E+04  0.99425949850E+03 0.  0.
    9000010    2    1    2  502    0  0.37428772456E+02 -0.46259696032E+03  0.53665687489E+03  0.12296255334E+04  0.10042815792E+04 0.  0.
        -13    1    4    4    0    0  0.12359314441E+03 -0.51350975098E+03 -0.13935252291E+03  0.54624780686E+03  0.10566000000E+00 0.  1.
          4    1    4    4  502    0 -0.86164371951E+02  0.50912790660E+02  0.67600939780E+03  0.68337772656E+03  0.00000000000E+00 0.  1.
         13    1    3    3    0    0  0.45859188955E+03  0.11293698970E+03  0.79362521869E+03  0.92352708878E+03  0.10566000000E+00 0. -1.
         -4    1    3    3    0  501 -0.49602066201E+03  0.34965997062E+03  0.64262954095E+03  0.88389553630E+03  0.00000000000E+00 0. -1.
<mgrwt>
<rscale>  0 0.11017814E+04</rscale>
<asrwt>0</asrwt>
<pdfrwt beam="2">  1        4 0.81856657E-01 0.11063356E+04</pdfrwt>
<pdfrwt beam="1">  1       -4 0.38538152E+00 0.10972460E+04</pdfrwt>
<totfact> 0.23806742E-01</totfact>
</mgrwt>
</event>
<event>
 8    1  0.3025584E-006  0.1071942E+04  0.7818608E-02  0.8715008E-01
          4   -1    0    0  502    0  0.00000000000E+00  0.00000000000E+00  0.96445887778E+03  0.96445887778E+03  0.00000000000E+00 0.  1.
         -4   -1    0    0    0  501 -0.00000000000E+00 -0.00000000000E+00 -0.19905898080E+04  0.19905898080E+04  0.00000000000E+00 0. -1.
   -9000010    2    1    2    0  501 -0.29542848907E+03  0.20362118965E+03 -0.14553127727E+04  0.18003814720E+04  0.99734577625E+03 0.  0.
    9000010    2    1    2  502    0  0.29542848907E+03 -0.20362118965E+03  0.42918184250E+03  0.11546672137E+04  0.10101087761E+04 0.  0.
        -13    1    4    4    0    0  0.44419460114E+03  0.28538869177E+02 -0.18454021500E+03  0.48184895233E+03  0.10566000000E+00 0.  1.
          4    1    4    4  502    0 -0.14876611207E+03 -0.23216005882E+03  0.61372205750E+03  0.67281826141E+03  0.00000000000E+00 0.  1.
         13    1    3    3    0    0  0.36996354147E+03  0.11644908742E+03 -0.57085342772E+03  0.69015002650E+03  0.10566000000E+00 0. -1.
         -4    1    3    3    0  501 -0.66539203054E+03  0.87172102224E+02 -0.88445934499E+03  0.11102314455E+04  0.00000000000E+00 0. -1.
<mgrwt>
<rscale>  0 0.10659158E+04</rscale>
<asrwt>0</asrwt>
<pdfrwt beam="1">  1        4 0.14837829E+00 0.10719418E+04</pdfrwt>
<pdfrwt beam="2">  1       -4 0.30624459E+00 0.10599237E+04</pdfrwt>
<totfact> 0.14889868E-01</totfact>
</mgrwt>
</event>
<event>
 8    1  0.3025584E-006  0.1255390E+04  0.7818608E-02  0.8570618E-01
         -4   -1    0    0    0  501 -0.00000000000E+00  0.00000000000E+00  0.12156602778E+04  0.12156602778E+04  0.00000000000E+00 0. -1.
          4   -1    0    0  502    0  0.00000000000E+00 -0.00000000000E+00 -0.14200227342E+04  0.14200227342E+04  0.00000000000E+00 0.  1.
   -9000010    2    1    2    0  501  0.72752597140E+03  0.18899036080E+03  0.30655915300E+03  0.12922779245E+04  0.10054811407E+04 0.  0.
    9000010    2    1    2  502    0 -0.72752597140E+03 -0.18899036080E+03 -0.51092160947E+03  0.13434050875E+04  0.98928506639E+03 0.  0.
        -13    1    4    4    0    0 -0.64088598242E+03 -0.51520351168E+03 -0.12671894532E+03  0.83200192499E+03  0.10566000000E+00 0.  1.
          4    1    4    4  502    0 -0.86639988973E+02  0.32621315088E+03 -0.38420266414E+03  0.51140316252E+03  0.00000000000E+00 0.  1.
         13    1    3    3    0    0  0.29614122824E+03  0.37568534536E+03 -0.26927545471E+03  0.54895208120E+03  0.10566000000E+00 0. -1.
         -4    1    3    3    0  501  0.43138474316E+03 -0.18669498456E+03  0.57583460771E+03  0.74332584331E+03  0.00000000000E+00 0. -1.
<mgrwt>
<rscale>  0 0.12489061E+04</rscale>
<asrwt>0</asrwt>
<pdfrwt beam="2">  1        4 0.21846504E+00 0.12424558E+04</pdfrwt>
<pdfrwt beam="1">  1       -4 0.18702466E+00 0.12553899E+04</pdfrwt>
<totfact> 0.17641164E-01</totfact>
</mgrwt>
</event>
<event>
 8    1  0.3025584E-006  0.1027291E+04  0.7818608E-02  0.8751660E-01
          4   -1    0    0  502    0  0.00000000000E+00  0.00000000000E+00  0.19868979515E+04  0.19868979515E+04  0.00000000000E+00 0.  1.
         -4   -1    0    0    0  501 -0.00000000000E+00 -0.00000000000E+00 -0.15590695606E+04  0.15590695606E+04  0.00000000000E+00 0. -1.
   -9000010    2    1    2    0  501  0.12183916012E+03 -0.18033666582E+03 -0.12273633859E+04  0.16005457595E+04  0.10039719883E+04 0.  0.
    9000010    2    1    2  502    0 -0.12183916012E+03  0.18033666582E+03  0.16551917767E+04  0.19454217526E+04  0.99881924483E+03 0.  0.
        -13    1    4    4    0    0 -0.12172249764E+03  0.59487890685E+03  0.10136233017E+04  0.11815792353E+04  0.10566000000E+00 0.  1.
          4    1    4    4  502    0 -0.11666248751E+00 -0.41454224103E+03  0.64156847502E+03  0.76384251737E+03  0.00000000000E+00 0.  1.
         13    1    3    3    0    0 -0.29052622426E+02 -0.44807807310E+03 -0.13962995381E+03  0.47022818889E+03  0.10566000000E+00 0. -1.
         -4    1    3    3    0  501  0.15089178255E+03  0.26774140728E+03 -0.10877334321E+04  0.11303175706E+04  0.00000000000E+00 0. -1.
<mgrwt>
<rscale>  0 0.10247698E+04</rscale>
<asrwt>0</asrwt>
<pdfrwt beam="1">  1        4 0.30567661E+00 0.10222553E+04</pdfrwt>
<pdfrwt beam="2">  1       -4 0.23985685E+00 0.10272905E+04</pdfrwt>
<totfact> 0.78562676E-02</totfact>
</mgrwt>
</event>
<event>
 8    1  0.3025584E-006  0.2275946E+04  0.7818608E-02  0.8066777E-01
         -4   -1    0    0    0  501 -0.00000000000E+00  0.00000000000E+00  0.20112170328E+04  0.20112170328E+04  0.00000000000E+00 0. -1.
          4   -1    0    0  502    0  0.00000000000E+00 -0.00000000000E+00 -0.30750657397E+04  0.30750657397E+04  0.00000000000E+00 0.  1.
   -9000010    2    1    2    0  501  0.42313751247E+03 -0.19908803909E+04  0.50952042028E+03  0.23194393504E+04  0.98870509063E+03 0.  0.
    9000010    2    1    2  502    0 -0.42313751247E+03  0.19908803909E+04 -0.15733691272E+04  0.27668434222E+04  0.10184704352E+04 0.  0.
        -13    1    4    4    0    0  0.33914416248E+03  0.56109021653E+03 -0.45893240979E+03  0.80028742458E+03  0.10566000000E+00 0.  1.
          4    1    4    4  502    0 -0.76228167495E+03  0.14297901743E+04 -0.11144367174E+04  0.19665559976E+04  0.00000000000E+00 0.  1.
         13    1    3    3    0    0 -0.15914037254E+03 -0.12801746791E+03 -0.15637104478E+03  0.25722761336E+03  0.10566000000E+00 0. -1.
         -4    1    3    3    0  501  0.58227788501E+03 -0.18628629230E+04  0.66589146506E+03  0.20622117370E+04  0.00000000000E+00 0. -1.
<mgrwt>
<rscale>  0 0.22693553E+04</rscale>
<asrwt>0</asrwt>
<pdfrwt beam="2">  1        4 0.47308703E+00 0.22759464E+04</pdfrwt>
<pdfrwt beam="1">  1       -4 0.30941801E+00 0.22627832E+04</pdfrwt>
<totfact> 0.10489170E-02</totfact>
</mgrwt>
</event>
<event>
 8    1  0.3025584E-006  0.1411119E+04  0.7818608E-02  0.8472650E-01
         -4   -1    0    0    0  501 -0.00000000000E+00  0.00000000000E+00  0.14075938417E+04  0.14075938417E+04  0.00000000000E+00 0. -1.
          4   -1    0    0  502    0  0.00000000000E+00 -0.00000000000E+00 -0.15692853020E+04  0.15692853020E+04  0.00000000000E+00 0.  1.
   -9000010    2    1    2    0  501  0.63027182871E+03 -0.76703696180E+03  0.43170033685E+03  0.14756770033E+04  0.10028305731E+04 0.  0.
    9000010    2    1    2  502    0 -0.63027182871E+03  0.76703696180E+03 -0.59339179706E+03  0.15012021404E+04  0.95702965619E+03 0.  0.
        -13    1    4    4    0    0 -0.46977975451E+02  0.73640402174E+03 -0.54057063966E+03  0.91472096348E+03  0.10566000000E+00 0.  1.
          4    1    4    4  502    0 -0.58329385325E+03  0.30632940064E+02 -0.52821157403E+02  0.58648117696E+03  0.00000000000E+00 0.  1.
         13    1    3    3    0    0  0.14716389080E+03  0.22740631427E+03 -0.39750270728E+02  0.27377168903E+03  0.10566000000E+00 0. -1.
         -4    1    3    3    0  501  0.48310793790E+03 -0.99444327607E+03  0.47145060758E+03  0.12019053142E+04  0.00000000000E+00 0. -1.
<mgrwt>
<rscale>  0 0.13949402E+04</rscale>
<asrwt>0</asrwt>
<pdfrwt beam="2">  1        4 0.24142851E+00 0.13789467E+04</pdfrwt>
<pdfrwt beam="1">  1       -4 0.21655290E+00 0.14111192E+04</pdfrwt>
<totfact> 0.12686357E-01</totfact>
</mgrwt>
</event>
<event>
 8    1  0.3025584E-006  0.1366238E+04  0.7818608E-02  0.8522814E-01
         -4   -1    0    0    0  501 -0.00000000000E+00  0.00000000000E+00  0.26167083457E+04  0.26167083457E+04  0.00000000000E+00 0. -1.
          4   -1    0    0  502    0  0.00000000000E+00 -0.00000000000E+00 -0.99128527961E+03  0.99128527961E+03  0.00000000000E+00 0.  1.
   -9000010    2    1    2    0  501  0.76361792817E+03  0.63973962778E+02  0.18284201521E+04  0.22267568362E+04  0.10139628922E+04 0.  0.
    9000010    2    1    2  502    0 -0.76361792817E+03 -0.63973962778E+02 -0.20299708600E+03  0.13812367891E+04  0.11311066451E+04 0.  0.
        -13    1    4    4    0    0 -0.58922707792E+03  0.47650091587E+03 -0.28054945919E+03  0.80805301955E+03  0.10566000000E+00 0.  1.
          4    1    4    4  502    0 -0.17439085026E+03 -0.54047487865E+03  0.77552373196E+02  0.57318376957E+03  0.00000000000E+00 0.  1.
         13    1    3    3    0    0  0.68040181973E+03  0.25147776830E+03  0.18801199891E+04  0.20152019474E+04  0.10566000000E+00 0. -1.
         -4    1    3    3    0  501  0.83216108446E+02 -0.18750380552E+03 -0.51699837073E+02  0.21155488872E+03  0.00000000000E+00 0. -1.
<mgrwt>
<rscale>  0 0.13177356E+04</rscale>
<asrwt>0</asrwt>
<pdfrwt beam="2">  1        4 0.15250543E+00 0.13662384E+04</pdfrwt>
<pdfrwt beam="1">  1       -4 0.40257051E+00 0.12709547E+04</pdfrwt>
<totfact> 0.66678123E-02</totfact>
</mgrwt>
</event>
<event>
 8    1  0.3025584E-006  0.1103927E+04  0.7818608E-02  0.8688821E-01
         -4   -1    0    0    0  501 -0.00000000000E+00  0.00000000000E+00  0.65400282422E+03  0.65400282422E+03  0.00000000000E+00 0. -1.
          4   -1    0    0  502    0  0.00000000000E+00 -0.00000000000E+00 -0.29348108616E+04  0.29348108616E+04  0.00000000000E+00 0.  1.
   -9000010    2    1    2    0  501 -0.40486833808E+03  0.15454486943E+03 -0.38971168675E+02  0.10899164546E+04  0.99929807274E+03 0.  0.
    9000010    2    1    2  502    0  0.40486833808E+03 -0.15454486943E+03 -0.22418368687E+04  0.24988972312E+04  0.10153089867E+04 0.  0.
        -13    1    4    4    0    0  0.21615609561E+03  0.31704465285E+03 -0.17509852298E+04  0.17925373234E+04  0.10566000000E+00 0.  1.
          4    1    4    4  502    0  0.18871224247E+03 -0.47158952227E+03 -0.49085163887E+03  0.70635990781E+03  0.00000000000E+00 0.  1.
         13    1    3    3    0    0 -0.61495960201E+03  0.17589996485E+03  0.28736852282E+03  0.70121094458E+03  0.10566000000E+00 0. -1.
         -4    1    3    3    0  501  0.21009126392E+03 -0.21355095424E+02 -0.32633969149E+03  0.38870551002E+03  0.00000000000E+00 0. -1.
<mgrwt>
<rscale>  0 0.10965486E+04</rscale>
<asrwt>0</asrwt>
<pdfrwt beam="2">  1        4 0.45150936E+00 0.11039270E+04</pdfrwt>
<pdfrwt beam="1">  1       -4 0.10061582E+00 0.10892195E+04</pdfrwt>
<totfact> 0.82985752E-02</totfact>
</mgrwt>
</event>
<event>
 8    1  0.3025584E-006  0.1626179E+04  0.7818608E-02  0.8401705E-01
         -4   -1    0    0    0  501 -0.00000000000E+00  0.00000000000E+00  0.15614282105E+04  0.15614282105E+04  0.00000000000E+00 0. -1.
          4   -1    0    0  502    0  0.00000000000E+00 -0.00000000000E+00 -0.15394841187E+04  0.15394841187E+04  0.00000000000E+00 0.  1.
   -9000010    2    1    2    0  501 -0.42005113826E+03 -0.89915384849E+03  0.32717274919E+03  0.14463360174E+04  0.99996263199E+03 0.  0.
    9000010    2    1    2  502    0  0.42005113826E+03  0.89915384849E+03 -0.30522865737E+03  0.16545763118E+04  0.12882304282E+04 0.  0.
        -13    1    4    4    0    0  0.69172390955E+03  0.39074133799E+03  0.27110389471E+03  0.83943915393E+03  0.10566000000E+00 0.  1.
          4    1    4    4  502    0 -0.27167277130E+03  0.50841251050E+03 -0.57633255208E+03  0.81513715784E+03  0.00000000000E+00 0.  1.
         13    1    3    3    0    0 -0.15971646743E+03  0.14988909174E+03 -0.14933411134E+03  0.26509767590E+03  0.10566000000E+00 0. -1.
         -4    1    3    3    0  501 -0.26033467082E+03 -0.10490429402E+04  0.47650686054E+03  0.11812383415E+04  0.00000000000E+00 0. -1.
<mgrwt>
<rscale>  0 0.15136166E+04</rscale>
<asrwt>0</asrwt>
<pdfrwt beam="2">  1        4 0.23684371E+00 0.16261790E+04</pdfrwt>
<pdfrwt beam="1">  1       -4 0.24021973E+00 0.14088456E+04</pdfrwt>
<totfact> 0.11268166E-01</totfact>
</mgrwt>
</event>
<event>
 8    1  0.3025584E-006  0.1899404E+04  0.7818608E-02  0.8223836E-01
          4   -1    0    0  502    0  0.00000000000E+00  0.00000000000E+00  0.22247255840E+04  0.22247255840E+04  0.00000000000E+00 0. -1.
         -4   -1    0    0    0  501 -0.00000000000E+00 -0.00000000000E+00 -0.16281310578E+04  0.16281310578E+04  0.00000000000E+00 0.  1.
   -9000010    2    1    2    0  501  0.14971940806E+03  0.15536762156E+04 -0.67549237891E+02  0.18406876700E+04  0.97326384638E+03 0.  0.
    9000010    2    1    2  502    0 -0.14971940806E+03 -0.15536762156E+04  0.66414376401E+03  0.20121689718E+04  0.10823175818E+04 0.  0.
        -13    1    4    4    0    0 -0.12866110246E+03 -0.67769838629E+03 -0.26137559485E+03  0.73766252095E+03  0.10566000000E+00 0.  1.
          4    1    4    4  502    0 -0.21058305599E+02 -0.87597782932E+03  0.92551935886E+03  0.12745064509E+04  0.00000000000E+00 0.  1.
         13    1    3    3    0    0  0.30165121560E+03  0.48202917879E+03  0.36433406169E+03  0.67534058426E+03  0.10566000000E+00 0. -1.
         -4    1    3    3    0  501 -0.15193180754E+03  0.10716470368E+04 -0.43188329958E+03  0.11653470857E+04  0.00000000000E+00 0. -1.
<mgrwt>
<rscale>  0 0.18691857E+04</rscale>
<asrwt>0</asrwt>
<pdfrwt beam="1">  1        4 0.34226547E+00 0.18994044E+04</pdfrwt>
<pdfrwt beam="2">  1       -4 0.25048170E+00 0.18394478E+04</pdfrwt>
<totfact> 0.54257317E-02</totfact>
</mgrwt>
</event>
<event>
 8    1  0.3025584E-006  0.1284704E+04  0.7818608E-02  0.8548908E-01
         -4   -1    0    0    0  501 -0.00000000000E+00  0.00000000000E+00  0.26139477887E+04  0.26139477887E+04  0.00000000000E+00 0. -1.
          4   -1    0    0  502    0  0.00000000000E+00 -0.00000000000E+00 -0.73452041897E+03  0.73452041897E+03  0.00000000000E+00 0.  1.
   -9000010    2    1    2    0  501  0.73465954306E+03 -0.32428446072E+03  0.15851711755E+04  0.20403999822E+04  0.10027858076E+04 0.  0.
    9000010    2    1    2  502    0 -0.73465954306E+03  0.32428446072E+03  0.29425619430E+03  0.13080682255E+04  0.98973265031E+03 0.  0.
        -13    1    4    4    0    0 -0.74022985383E+03 -0.86830684477E+02 -0.83192218256E+02  0.74993383749E+03  0.10566000000E+00 0.  1.
          4    1    4    4  502    0  0.55703107748E+01  0.41111514520E+03  0.37744841255E+03  0.55813438804E+03  0.00000000000E+00 0.  1.
         13    1    3    3    0    0 -0.24275959742E+03 -0.43493472847E+02  0.47261352664E+03  0.53309235696E+03  0.10566000000E+00 0. -1.
         -4    1    3    3    0  501  0.97741914048E+03 -0.28079098788E+03  0.11125576488E+04  0.15073076252E+04  0.00000000000E+00 0. -1.
<mgrwt>
<rscale>  0 0.12796126E+04</rscale>
<asrwt>0</asrwt>
<pdfrwt beam="2">  1        4 0.11300314E+00 0.12745414E+04</pdfrwt>
<pdfrwt beam="1">  1       -4 0.40214581E+00 0.12847040E+04</pdfrwt>
<totfact> 0.10812315E-01</totfact>
</mgrwt>
</event>
<event>
 8    1  0.3025584E-006  0.1032816E+04  0.7818608E-02  0.8748441E-01
         -4   -1    0    0    0  501 -0.00000000000E+00  0.00000000000E+00  0.98011579381E+03  0.98011579381E+03  0.00000000000E+00 0. -1.
          4   -1    0    0  502    0  0.00000000000E+00 -0.00000000000E+00 -0.28505166447E+04  0.28505166447E+04  0.00000000000E+00 0.  1.
   -9000010    2    1    2    0  501 -0.15745401963E+03  0.18791266676E+03  0.57320437079E+03  0.11812162651E+04  0.10032974014E+04 0.  0.
    9000010    2    1    2  502    0  0.15745401963E+03 -0.18791266676E+03 -0.24436052217E+04  0.26494161734E+04  0.99403050342E+03 0.  0.
        -13    1    4    4    0    0  0.53597790931E+02 -0.29928407820E+03 -0.12977984138E+03  0.33058508897E+03  0.10566000000E+00 0.  1.
          4    1    4    4  502    0  0.10385622870E+03  0.11137141144E+03 -0.23138253803E+04  0.23188310844E+04  0.00000000000E+00 0.  1.
         13    1    3    3    0    0  0.19589394375E+03  0.36588805144E+02 -0.22179171426E+03  0.29816900164E+03  0.10566000000E+00 0. -1.
         -4    1    3    3    0  501 -0.35334796338E+03  0.15132386161E+03  0.79499608505E+03  0.88304726350E+03  0.00000000000E+00 0. -1.
<mgrwt>
<rscale>  0 0.10283062E+04</rscale>
<asrwt>0</asrwt>
<pdfrwt beam="2">  1        4 0.43854101E+00 0.10238162E+04</pdfrwt>
<pdfrwt beam="1">  1       -4 0.15078705E+00 0.10328159E+04</pdfrwt>
<totfact> 0.48999900E-02</totfact>
</mgrwt>
</event>
<event>
 8    1  0.3025584E-006  0.1083636E+04  0.7818608E-02  0.8741415E-01
          4   -1    0    0  502    0  0.00000000000E+00  0.00000000000E+00  0.27245656052E+04  0.27245656052E+04  0.00000000000E+00 0.  1.
         -4   -1    0    0    0  501 -0.00000000000E+00 -0.00000000000E+00 -0.50270215507E+03  0.50270215507E+03  0.00000000000E+00 0. -1.
   -9000010    2    1    2    0  501  0.39617940437E+03 -0.15380813446E+03  0.32474563200E+03  0.10424742218E+04  0.89480596492E+03 0.  0.
    9000010    2    1    2  502    0 -0.39617940437E+03  0.15380813446E+03  0.18971178182E+04  0.21847935385E+04  0.99682081006E+03 0.  0.
        -13    1    4    4    0    0 -0.21213302115E+03  0.25626712277E+03  0.19412723876E+04  0.19695714638E+04  0.10566000000E+00 0.  1.
          4    1    4    4  502    0 -0.18404638322E+03 -0.10245898831E+03 -0.44154569442E+02  0.21522207476E+03  0.00000000000E+00 0.  1.
         13    1    3    3    0    0  0.50151903175E+03 -0.29855645692E+03 -0.90172524070E+02  0.59058309528E+03  0.10566000000E+00 0. -1.
         -4    1    3    3    0  501 -0.10533962738E+03  0.14474832246E+03  0.41491815607E+03  0.45189112648E+03  0.00000000000E+00 0. -1.
<mgrwt>
<rscale>  0 0.10360754E+04</rscale>
<asrwt>0</asrwt>
<pdfrwt beam="1">  1        4 0.41916393E+00 0.10836359E+04</pdfrwt>
<pdfrwt beam="2">  1       -4 0.77338795E-01 0.99060223E+03</pdfrwt>
<totfact> 0.19580090E-01</totfact>
</mgrwt>
</event>
<event>
 8    1  0.3025584E-006  0.1396294E+04  0.7818608E-02  0.8473173E-01
          4   -1    0    0  502    0  0.00000000000E+00  0.00000000000E+00  0.13089091580E+04  0.13089091580E+04  0.00000000000E+00 0.  1.
         -4   -1    0    0    0  501 -0.00000000000E+00 -0.00000000000E+00 -0.19133806343E+04  0.19133806343E+04  0.00000000000E+00 0. -1.
   -9000010    2    1    2    0  501  0.88323273836E+03 -0.39041124692E+03 -0.10650702824E+04  0.17561350386E+04  0.10085209743E+04 0.  0.
    9000010    2    1    2  502    0 -0.88323273836E+03  0.39041124692E+03  0.46059880606E+03  0.14661547536E+04  0.10024657050E+04 0.  0.
        -13    1    4    4    0    0 -0.74963423823E+03 -0.18340044254E+03  0.10725298367E+03  0.77916007798E+03  0.10566000000E+00 0.  1.
          4    1    4    4  502    0 -0.13359850013E+03  0.57381168946E+03  0.35334582238E+03  0.68699467567E+03  0.00000000000E+00 0.  1.
         13    1    3    3    0    0 -0.11027144509E+02 -0.38235771561E+03 -0.23389141307E+02  0.38323111004E+03  0.10566000000E+00 0. -1.
         -4    1    3    3    0  501  0.89425988287E+03 -0.80535313055E+01 -0.10416811410E+04  0.13729039286E+04  0.00000000000E+00 0. -1.
<mgrwt>
<rscale>  0 0.13941081E+04</rscale>
<asrwt>0</asrwt>
<pdfrwt beam="1">  1        4 0.20137064E+00 0.13919262E+04</pdfrwt>
<pdfrwt beam="2">  1       -4 0.29436625E+00 0.13962935E+04</pdfrwt>
<totfact> 0.10284910E-01</totfact>
</mgrwt>
</event>
<event>
 8    1  0.3025584E-006  0.1359117E+04  0.7818608E-02  0.8506890E-01
          4   -1    0    0  502    0  0.00000000000E+00  0.00000000000E+00  0.38650558795E+04  0.38650558795E+04  0.00000000000E+00 0.  1.
         -4   -1    0    0    0  501 -0.00000000000E+00 -0.00000000000E+00 -0.83192915403E+03  0.83192915403E+03  0.00000000000E+00 0. -1.
   -9000010    2    1    2    0  501  0.90414455322E+03 -0.12342292748E+03 -0.52291093936E+02  0.13254865327E+04  0.95993207977E+03 0.  0.
    9000010    2    1    2  502    0 -0.90414455322E+03  0.12342292748E+03  0.30854178194E+04  0.33714985008E+04  0.10072181633E+04 0.  0.
        -13    1    4    4    0    0 -0.65768621833E+03 -0.31327045135E+03  0.24831819395E+04  0.25878334748E+04  0.10566000000E+00 0.  1.
          4    1    4    4  502    0 -0.24645833489E+03  0.43669337883E+03  0.60223587988E+03  0.78366502600E+03  0.00000000000E+00 0.  1.
         13    1    3    3    0    0  0.93082939534E+03 -0.41886622722E+03 -0.97655066853E+02  0.10253920239E+04  0.10566000000E+00 0. -1.
         -4    1    3    3    0  501 -0.26684842122E+02  0.29544329973E+03  0.45363972917E+02  0.30009450877E+03  0.00000000000E+00 0. -1.
<mgrwt>
<rscale>  0 0.13416739E+04</rscale>
<asrwt>0</asrwt>
<pdfrwt beam="1">  1        4 0.59462397E+00 0.13591170E+04</pdfrwt>
<pdfrwt beam="2">  1       -4 0.12798910E+00 0.13244547E+04</pdfrwt>
<totfact> 0.10378047E-02</totfact>
</mgrwt>
</event>
<event>
 8    1  0.3025584E-006  0.1021201E+04  0.7818608E-02  0.8756982E-01
          4   -1    0    0  502    0  0.00000000000E+00  0.00000000000E+00  0.73902726841E+03  0.73902726841E+03  0.00000000000E+00 0.  1.
         -4   -1    0    0    0  501 -0.00000000000E+00 -0.00000000000E+00 -0.37941943541E+04  0.37941943541E+04  0.00000000000E+00 0. -1.
   -9000010    2    1    2    0  501  0.17202611809E+03 -0.71923569432E+02 -0.33250005829E+04  0.34769730686E+04  0.99947329050E+03 0.  0.
    9000010    2    1    2  502    0 -0.17202611809E+03  0.71923569432E+02  0.26983349722E+03  0.10562485539E+04  0.10040343153E+04 0.  0.
        -13    1    4    4    0    0 -0.27275176015E+03  0.35939200630E+03 -0.20224522084E+03  0.49442823278E+03  0.10566000000E+00 0.  1.
          4    1    4    4  502    0  0.10072564206E+03 -0.28746843687E+03  0.47207871806E+03  0.56182032111E+03  0.00000000000E+00 0.  1.
         13    1    3    3    0    0  0.51732422744E+03  0.56916492773E+00 -0.10053487927E+04  0.11306418029E+04  0.10566000000E+00 0. -1.
         -4    1    3    3    0  501 -0.34529810935E+03 -0.72492734360E+02 -0.23196517902E+04  0.23463312657E+04  0.00000000000E+00 0. -1.
<mgrwt>
<rscale>  0 0.10189562E+04</rscale>
<asrwt>0</asrwt>
<pdfrwt beam="1">  1        4 0.11369650E+00 0.10212007E+04</pdfrwt>
<pdfrwt beam="2">  1       -4 0.58372221E+00 0.10167167E+04</pdfrwt>
<totfact> 0.15001560E-02</totfact>
</mgrwt>
</event>
<event>
 8    1  0.3025584E-006  0.1177115E+04  0.7818608E-02  0.8642868E-01
         -4   -1    0    0    0  501 -0.00000000000E+00  0.00000000000E+00  0.10269068989E+04  0.10269068989E+04  0.00000000000E+00 0. -1.
          4   -1    0    0  502    0  0.00000000000E+00 -0.00000000000E+00 -0.26655227549E+04  0.26655227549E+04  0.00000000000E+00 0.  1.
   -9000010    2    1    2    0  501  0.15008130297E+03  0.49262054540E+03  0.49613143668E+03  0.12773982862E+04  0.10584897638E+04 0.  0.
    9000010    2    1    2  502    0 -0.15008130297E+03 -0.49262054540E+03 -0.21347472927E+04  0.24150313676E+04  0.10050030367E+04 0.  0.
        -13    1    4    4    0    0  0.12986125330E+03 -0.22282685110E+03 -0.19797615187E+04  0.19964897778E+04  0.10566000000E+00 0.  1.
          4    1    4    4  502    0 -0.27994255627E+03 -0.26979369431E+03 -0.15498577395E+03  0.41854158984E+03  0.00000000000E+00 0.  1.
         13    1    3    3    0    0 -0.35694542285E+03  0.34975308157E+03  0.55560088727E+03  0.74728147981E+03  0.10566000000E+00 0. -1.
         -4    1    3    3    0  501  0.50702672582E+03  0.14286746383E+03 -0.59469450592E+02  0.53011680644E+03  0.00000000000E+00 0. -1.
<mgrwt>
<rscale>  0 0.11529398E+04</rscale>
<asrwt>0</asrwt>
<pdfrwt beam="2">  1        4 0.41008042E+00 0.11292610E+04</pdfrwt>
<pdfrwt beam="1">  1       -4 0.15798568E+00 0.11771151E+04</pdfrwt>
<totfact> 0.59829892E-02</totfact>
</mgrwt>
</event>
<event>
 8    1  0.3025584E-006  0.1247717E+04  0.7818608E-02  0.8576947E-01
         -4   -1    0    0    0  501 -0.00000000000E+00  0.00000000000E+00  0.80908358451E+03  0.80908358451E+03  0.00000000000E+00 0. -1.
          4   -1    0    0  502    0  0.00000000000E+00 -0.00000000000E+00 -0.34043810395E+04  0.34043810395E+04  0.00000000000E+00 0.  1.
   -9000010    2    1    2    0  501  0.45653516703E+03 -0.57205444478E+03  0.97965172500E+02  0.12515565394E+04  0.10105077683E+04 0.  0.
    9000010    2    1    2  502    0 -0.45653516703E+03  0.57205444478E+03 -0.26932626274E+04  0.29619080846E+04  0.99174859447E+03 0.  0.
        -13    1    4    4    0    0  0.28967651629E+03  0.34924079975E+03 -0.10061317356E+04  0.11037131425E+04  0.10566000000E+00 0.  1.
          4    1    4    4  502    0 -0.74621168331E+03  0.22281364504E+03 -0.16871308918E+04  0.18581949421E+04  0.00000000000E+00 0.  1.
         13    1    3    3    0    0  0.52794976663E+03 -0.76919568890E+03  0.27981449633E+03  0.97400673890E+03  0.10566000000E+00 0. -1.
         -4    1    3    3    0  501 -0.71414599606E+02  0.19714124412E+03 -0.18184932383E+03  0.27754980048E+03  0.00000000000E+00 0. -1.
<mgrwt>
<rscale>  0 0.12401216E+04</rscale>
<asrwt>0</asrwt>
<pdfrwt beam="2">  1        4 0.52375093E+00 0.12325729E+04</pdfrwt>
<pdfrwt beam="1">  1       -4 0.12447440E+00 0.12477166E+04</pdfrwt>
<totfact> 0.25697346E-02</totfact>
</mgrwt>
</event>
<event>
 8    1  0.3025584E-006  0.1104390E+04  0.7818608E-02  0.8683656E-01
         -4   -1    0    0    0  501 -0.00000000000E+00  0.00000000000E+00  0.16926765218E+04  0.16926765218E+04  0.00000000000E+00 0. -1.
          4   -1    0    0  502    0  0.00000000000E+00 -0.00000000000E+00 -0.95811094364E+03  0.95811094364E+03  0.00000000000E+00 0.  1.
   -9000010    2    1    2    0  501  0.37302423660E+03  0.27527267629E+03  0.10306751560E+04  0.15106188482E+04  0.10023751293E+04 0.  0.
    9000010    2    1    2  502    0 -0.37302423660E+03 -0.27527267629E+03 -0.29610957778E+03  0.11401686173E+04  0.99868987500E+03 0.  0.
        -13    1    4    4    0    0  0.26467026449E+03 -0.13601577333E+03  0.16569881778E+03  0.34059763487E+03  0.10566000000E+00 0.  1.
          4    1    4    4  502    0 -0.63769450109E+03 -0.13925690296E+03 -0.46180839556E+03  0.79957098244E+03  0.00000000000E+00 0.  1.
         13    1    3    3    0    0  0.15216017537E+03  0.23609286913E+03 -0.14335904492E+03  0.31534804383E+03  0.10566000000E+00 0. -1.
         -4    1    3    3    0  501  0.22086406124E+03  0.39179807162E+02  0.11740342009E+04  0.11952708043E+04  0.00000000000E+00 0. -1.
<mgrwt>
<rscale>  0 0.11027172E+04</rscale>
<asrwt>0</asrwt>
<pdfrwt beam="2">  1        4 0.14740168E+00 0.11010466E+04</pdfrwt>
<pdfrwt beam="1">  1       -4 0.26041177E+00 0.11043903E+04</pdfrwt>
<totfact> 0.19620140E-01</totfact>
</mgrwt>
</event>
<event>
 8    1  0.3025584E-006  0.1198155E+04  0.7818608E-02  0.8682515E-01
         -4   -1    0    0    0  501 -0.00000000000E+00  0.00000000000E+00  0.14072682278E+04  0.14072682278E+04  0.00000000000E+00 0. -1.
          4   -1    0    0  502    0  0.00000000000E+00 -0.00000000000E+00 -0.15633806200E+04  0.15633806200E+04  0.00000000000E+00 0.  1.
   -9000010    2    1    2    0  501 -0.37012335507E+02 -0.16581331942E+03  0.90429000102E+03  0.15011050199E+04  0.11860488628E+04 0.  0.
    9000010    2    1    2  502    0  0.37012335507E+02  0.16581331942E+03 -0.10604023932E+04  0.14695438279E+04  0.10031160735E+04 0.  0.
        -13    1    4    4    0    0  0.17082442396E+01  0.37646425591E+03  0.11425638173E+02  0.37664148795E+03  0.10566000000E+00 0.  1.
          4    1    4    4  502    0  0.35304091268E+02 -0.21065093649E+03 -0.10718280313E+04  0.10929023399E+04  0.00000000000E+00 0.  1.
         13    1    3    3    0    0  0.22480975895E+03 -0.11660781860E+03 -0.22625236531E+03  0.33959822592E+03  0.10566000000E+00 0. -1.
         -4    1    3    3    0  501 -0.26182209445E+03 -0.49205500822E+02  0.11305423663E+04  0.11615067940E+04  0.00000000000E+00 0. -1.
<mgrwt>
<rscale>  0 0.11040856E+04</rscale>
<asrwt>0</asrwt>
<pdfrwt beam="2">  1        4 0.24052009E+00 0.10174015E+04</pdfrwt>
<pdfrwt beam="1">  1       -4 0.21650281E+00 0.11981552E+04</pdfrwt>
<totfact> 0.12961478E-01</totfact>
</mgrwt>
</event>
<event>
 8    1  0.3025584E-006  0.1250645E+04  0.7818608E-02  0.8584290E-01
         -4   -1    0    0    0  501 -0.00000000000E+00  0.00000000000E+00  0.11589669128E+04  0.11589669128E+04  0.00000000000E+00 0. -1.
          4   -1    0    0  502    0  0.00000000000E+00 -0.00000000000E+00 -0.15629502410E+04  0.15629502410E+04  0.00000000000E+00 0.  1.
   -9000010    2    1    2    0  501  0.73392201711E+03  0.81498737420E+01  0.35278554549E+03  0.12601336176E+04  0.96165021989E+03 0.  0.
    9000010    2    1    2  502    0 -0.73392201711E+03 -0.81498737420E+01 -0.75676887368E+03  0.14617835363E+04  0.10126223537E+04 0.  0.
        -13    1    4    4    0    0  0.11824804318E+03  0.10293334381E+03 -0.55815119838E+03  0.57975050185E+03  0.10566000000E+00 0.  1.
          4    1    4    4  502    0 -0.85217006028E+03 -0.11108321755E+03 -0.19861767530E+03  0.88203303442E+03  0.00000000000E+00 0.  1.
         13    1    3    3    0    0  0.19898292357E+03 -0.72798875067E+02  0.62108500268E+03  0.65623202588E+03  0.10566000000E+00 0. -1.
         -4    1    3    3    0  501  0.53493909353E+03  0.80948748809E+02 -0.26829945718E+03  0.60390159169E+03  0.00000000000E+00 0. -1.
<mgrwt>
<rscale>  0 0.12300240E+04</rscale>
<asrwt>0</asrwt>
<pdfrwt beam="2">  1        4 0.24045388E+00 0.12506446E+04</pdfrwt>
<pdfrwt beam="1">  1       -4 0.17830260E+00 0.12097434E+04</pdfrwt>
<totfact> 0.16613066E-01</totfact>
</mgrwt>
</event>
<event>
 8    1  0.3025584E-006  0.1312231E+04  0.7818608E-02  0.8527399E-01
         -4   -1    0    0    0  501 -0.00000000000E+00  0.00000000000E+00  0.17309109190E+04  0.17309109190E+04  0.00000000000E+00 0. -1.
          4   -1    0    0  502    0  0.00000000000E+00 -0.00000000000E+00 -0.99427915295E+03  0.99427915295E+03  0.00000000000E+00 0.  1.
   -9000010    2    1    2    0  501 -0.68577225706E+03  0.49303413687E+03  0.31731511470E+03  0.13500514017E+04  0.10042826577E+04 0.  0.
    9000010    2    1    2  502    0  0.68577225706E+03 -0.49303413687E+03  0.41931665139E+03  0.13751386703E+04  0.10009064191E+04 0.  0.
        -13    1    4    4    0    0  0.11949722066E+03 -0.46510558761E+03  0.61056930684E+03  0.77678676803E+03  0.10566000000E+00 0.  1.
          4    1    4    4  502    0  0.56627503640E+03 -0.27928549258E+02 -0.19125265545E+03  0.59835190225E+03  0.00000000000E+00 0.  1.
         13    1    3    3    0    0  0.21964448635E+03  0.18202292465E+03 -0.10462796443E+03  0.30384711219E+03  0.10566000000E+00 0. -1.
         -4    1    3    3    0  501 -0.90541674341E+03  0.31101121222E+03  0.42194307914E+03  0.10462042895E+04  0.00000000000E+00 0. -1.
<mgrwt>
<rscale>  0 0.13109392E+04</rscale>
<asrwt>0</asrwt>
<pdfrwt beam="2">  1        4 0.15296602E+00 0.13096488E+04</pdfrwt>
<pdfrwt beam="1">  1       -4 0.26629399E+00 0.13122309E+04</pdfrwt>
<totfact> 0.17862222E-01</totfact>
</mgrwt>
</event>
<event>
 8    1  0.3025584E-006  0.1057826E+04  0.7818608E-02  0.8722427E-01
         -4   -1    0    0    0  501 -0.00000000000E+00  0.00000000000E+00  0.19011696912E+04  0.19011696912E+04  0.00000000000E+00 0. -1.
          4   -1    0    0  502    0  0.00000000000E+00 -0.00000000000E+00 -0.79699636414E+03  0.79699636414E+03  0.00000000000E+00 0.  1.
   -9000010    2    1    2    0  501 -0.20612126053E+03 -0.26794729177E+03  0.12428536291E+04  0.16320789900E+04  0.10023547081E+04 0.  0.
    9000010    2    1    2  502    0  0.20612126053E+03  0.26794729177E+03 -0.13868030201E+03  0.10660870654E+04  0.10015126957E+04 0.  0.
        -13    1    4    4    0    0 -0.43284291686E+02  0.52171898331E+03  0.21357438593E+03  0.56540097006E+03  0.10566000000E+00 0.  1.
          4    1    4    4  502    0  0.24940555221E+03 -0.25377169154E+03 -0.35225468793E+03  0.50068609535E+03  0.00000000000E+00 0.  1.
         13    1    3    3    0    0 -0.37332638705E+03 -0.53800005976E+03  0.49914925140E+03  0.82338729764E+03  0.10566000000E+00 0. -1.
         -4    1    3    3    0  501  0.16720512652E+03  0.27005276799E+03  0.74370437768E+03  0.80869169231E+03  0.00000000000E+00 0. -1.
<mgrwt>
<rscale>  0 0.10574274E+04</rscale>
<asrwt>0</asrwt>
<pdfrwt beam="2">  1        4 0.12261483E+00 0.10570286E+04</pdfrwt>
<pdfrwt beam="1">  1       -4 0.29248764E+00 0.10578264E+04</pdfrwt>
<totfact> 0.21866800E-01</totfact>
</mgrwt>
</event>
<event>
 8    1  0.3025584E-006  0.2379036E+04  0.7818608E-02  0.8030949E-01
         -4   -1    0    0    0  501 -0.00000000000E+00  0.00000000000E+00  0.15084277625E+04  0.15084277625E+04  0.00000000000E+00 0. -1.
          4   -1    0    0  502    0  0.00000000000E+00 -0.00000000000E+00 -0.38499046778E+04  0.38499046778E+04  0.00000000000E+00 0.  1.
   -9000010    2    1    2    0  501 -0.17428728436E+04  0.13000152202E+04 -0.71209040110E+03  0.24748084324E+04  0.94337623260E+03 0.  0.
    9000010    2    1    2  502    0  0.17428728436E+04 -0.13000152202E+04 -0.16293865142E+04  0.28835240079E+04  0.96548690817E+03 0.  0.
        -13    1    4    4    0    0 -0.64366513375E+02  0.29247701733E+02 -0.22715624618E+03  0.23790428211E+03  0.10566000000E+00 0.  1.
          4    1    4    4  502    0  0.18072393570E+04 -0.13292629219E+04 -0.14022302680E+04  0.26456197258E+04  0.00000000000E+00 0.  1.
         13    1    3    3    0    0 -0.43860393752E+03 -0.63969327893E+02 -0.32159042494E+03  0.54761839040E+03  0.10566000000E+00 0. -1.
         -4    1    3    3    0  501 -0.13042689061E+04  0.13639845481E+04 -0.39049997616E+03  0.19271900421E+04  0.00000000000E+00 0. -1.
<mgrwt>
<rscale>  0 0.23745879E+04</rscale>
<asrwt>0</asrwt>
<pdfrwt beam="2">  1        4 0.59229303E+00 0.23790356E+04</pdfrwt>
<pdfrwt beam="1">  1       -4 0.23206581E+00 0.23701485E+04</pdfrwt>
<totfact> 0.41812956E-03</totfact>
</mgrwt>
</event>
<event>
 8    1  0.3025584E-006  0.1065059E+04  0.7818608E-02  0.8719726E-01
         -4   -1    0    0    0  501 -0.00000000000E+00  0.00000000000E+00  0.45991570398E+03  0.45991570398E+03  0.00000000000E+00 0. -1.
          4   -1    0    0  502    0  0.00000000000E+00 -0.00000000000E+00 -0.34473355631E+04  0.34473355631E+04  0.00000000000E+00 0.  1.
   -9000010    2    1    2    0  501  0.97948430545E+02  0.32888724595E+03 -0.43598203277E+03  0.11424391168E+04  0.99866214857E+03 0.  0.
    9000010    2    1    2  502    0 -0.97948430545E+02 -0.32888724595E+03 -0.25514378264E+04  0.27648121503E+04  0.10082611414E+04 0.  0.
        -13    1    4    4    0    0 -0.14292615186E+03 -0.66979372518E+03 -0.13311358493E+04  0.14969883699E+04  0.10566000000E+00 0.  1.
          4    1    4    4  502    0  0.44977721319E+02  0.34090647923E+03 -0.12203019771E+04  0.12678237804E+04  0.00000000000E+00 0.  1.
         13    1    3    3    0    0 -0.33572415929E+03  0.48551598921E+03 -0.29741060524E+03  0.66097622210E+03  0.10566000000E+00 0. -1.
         -4    1    3    3    0  501  0.43367258984E+03 -0.15662874326E+03 -0.13857142753E+03  0.48146289465E+03  0.00000000000E+00 0. -1.
<mgrwt>
<rscale>  0 0.10605083E+04</rscale>
<asrwt>0</asrwt>
<pdfrwt beam="2">  1        4 0.53035930E+00 0.10650593E+04</pdfrwt>
<pdfrwt beam="1">  1       -4 0.70756265E-01 0.10559767E+04</pdfrwt>
<totfact> 0.72406500E-02</totfact>
</mgrwt>
</event>
<event>
 8    1  0.3025584E-006  0.1278463E+04  0.7818608E-02  0.8551128E-01
          4   -1    0    0  502    0  0.00000000000E+00  0.00000000000E+00  0.15498557269E+04  0.15498557269E+04  0.00000000000E+00 0.  1.
         -4   -1    0    0    0  501 -0.00000000000E+00 -0.00000000000E+00 -0.19108975968E+04  0.19108975968E+04  0.00000000000E+00 0. -1.
   -9000010    2    1    2    0  501 -0.45999091967E+03  0.65558753843E+03 -0.13409632806E+04  0.18499417504E+04  0.99131997514E+03 0.  0.
    9000010    2    1    2  502    0  0.45999091967E+03 -0.65558753843E+03  0.97992141076E+03  0.16108115733E+04  0.99653463905E+03 0.  0.
        -13    1    4    4    0    0  0.22937518287E+03 -0.73712090262E+03  0.20577228669E+03  0.79893832348E+03  0.10566000000E+00 0.  1.
          4    1    4    4  502    0  0.23061573680E+03  0.81533364190E+02  0.77414912408E+03  0.81187324986E+03  0.00000000000E+00 0.  1.
         13    1    3    3    0    0 -0.24240663040E+03  0.30589277865E+02 -0.11288520130E+04  0.11549907172E+04  0.10566000000E+00 0. -1.
         -4    1    3    3    0  501 -0.21758428927E+03  0.62499826056E+03 -0.21211126758E+03  0.69495103315E+03  0.00000000000E+00 0. -1.
<mgrwt>
<rscale>  0 0.12764312E+04</rscale>
<asrwt>0</asrwt>
<pdfrwt beam="1">  1        4 0.23843934E+00 0.12784631E+04</pdfrwt>
<pdfrwt beam="2">  1       -4 0.29398425E+00 0.12744026E+04</pdfrwt>
<totfact> 0.83316333E-02</totfact>
</mgrwt>
</event>
<event>
 8    1  0.3025584E-006  0.1037540E+04  0.7818608E-02  0.8758586E-01
          4   -1    0    0  502    0  0.00000000000E+00  0.00000000000E+00  0.63902836156E+03  0.63902836156E+03  0.00000000000E+00 0.  1.
         -4   -1    0    0    0  501 -0.00000000000E+00 -0.00000000000E+00 -0.17781399299E+04  0.17781399299E+04  0.00000000000E+00 0. -1.
   -9000010    2    1    2    0  501  0.23903712504E+03 -0.12415961599E+03 -0.91983193666E+03  0.13567097698E+04  0.96021677255E+03 0.  0.
    9000010    2    1    2  502    0 -0.23903712504E+03  0.12415961599E+03 -0.21927963163E+03  0.10604585216E+04  0.10019652498E+04 0.  0.
        -13    1    4    4    0    0  0.38741478969E+03  0.11821409749E+03 -0.14205340328E+03  0.42923649968E+03  0.10566000000E+00 0.  1.
          4    1    4    4  502    0 -0.62645191473E+03  0.59455185047E+01 -0.77226228356E+02  0.63122202196E+03  0.00000000000E+00 0.  1.
         13    1    3    3    0    0 -0.60143223931E+02 -0.49193430862E+03 -0.62797374694E+03  0.79997975561E+03  0.10566000000E+00 0. -1.
         -4    1    3    3    0  501  0.29918034897E+03  0.36777469263E+03 -0.29185818972E+03  0.55673001415E+03  0.00000000000E+00 0. -1.
<mgrwt>
<rscale>  0 0.10172115E+04</rscale>
<asrwt>0</asrwt>
<pdfrwt beam="1">  1        4 0.98312056E-01 0.10375397E+04</pdfrwt>
<pdfrwt beam="2">  1       -4 0.27355999E+00 0.99728161E+03</pdfrwt>
<totfact> 0.36465440E-01</totfact>
</mgrwt>
</event>
<event>
 8    1  0.3025584E-006  0.1232423E+04  0.7818608E-02  0.8606747E-01
         -4   -1    0    0    0  501 -0.00000000000E+00  0.00000000000E+00  0.48621383158E+03  0.48621383158E+03  0.00000000000E+00 0. -1.
          4   -1    0    0  502    0  0.00000000000E+00 -0.00000000000E+00 -0.44975193158E+04  0.44975193158E+04  0.00000000000E+00 0.  1.
   -9000010    2    1    2    0  501  0.10351288259E+03  0.59078580449E+03 -0.51477713229E+03  0.12763652221E+04  0.10021825685E+04 0.  0.
    9000010    2    1    2  502    0 -0.10351288259E+03 -0.59078580449E+03 -0.34965283519E+04  0.37073679253E+04  0.10766260417E+04 0.  0.
        -13    1    4    4    0    0 -0.32981638086E+03  0.17068380714E+03 -0.17455422846E+04  0.17846091128E+04  0.10566000000E+00 0.  1.
          4    1    4    4  502    0  0.22630349827E+03 -0.76146961163E+03 -0.17509860673E+04  0.19227588124E+04  0.00000000000E+00 0.  1.
         13    1    3    3    0    0 -0.12120500536E+03  0.33497505115E+03 -0.77160752819E+03  0.84986888809E+03  0.10566000000E+00 0. -1.
         -4    1    3    3    0  501  0.22471788795E+03  0.25581075334E+03  0.25683039590E+03  0.42649633404E+03  0.00000000000E+00 0. -1.
<mgrwt>
<rscale>  0 0.11997547E+04</rscale>
<asrwt>0</asrwt>
<pdfrwt beam="2">  1        4 0.69192604E+00 0.12324230E+04</pdfrwt>
<pdfrwt beam="1">  1       -4 0.74802129E-01 0.11679523E+04</pdfrwt>
<totfact> 0.89100377E-03</totfact>
</mgrwt>
</event>
<event>
 8    1  0.3025584E-006  0.1114568E+04  0.7818608E-02  0.8674049E-01
         -4   -1    0    0    0  501 -0.00000000000E+00  0.00000000000E+00  0.13350386270E+04  0.13350386270E+04  0.00000000000E+00 0. -1.
          4   -1    0    0  502    0  0.00000000000E+00 -0.00000000000E+00 -0.12211560646E+04  0.12211560646E+04  0.00000000000E+00 0.  1.
   -9000010    2    1    2    0  501 -0.42883974571E+03  0.24530718450E+03  0.68096570392E+03  0.13061304988E+04  0.99909131100E+03 0.  0.
    9000010    2    1    2  502    0  0.42883974571E+03 -0.24530718450E+03 -0.56708314153E+03  0.12500641928E+04  0.99849789908E+03 0.  0.
        -13    1    4    4    0    0  0.63495174724E+03  0.20450943660E+02 -0.55323149802E+02  0.63768536480E+03  0.10566000000E+00 0.  1.
          4    1    4    4  502    0 -0.20611200152E+03 -0.26575812816E+03 -0.51175999172E+03  0.61237882800E+03  0.00000000000E+00 0.  1.
         13    1    3    3    0    0  0.17017288757E+01  0.37484719667E+03  0.76206452451E+03  0.84926772423E+03  0.10566000000E+00 0. -1.
         -4    1    3    3    0  501 -0.43054147459E+03 -0.12954001217E+03 -0.81098820587E+02  0.45686277458E+03  0.00000000000E+00 0. -1.
<mgrwt>
<rscale>  0 0.11143024E+04</rscale>
<asrwt>0</asrwt>
<pdfrwt beam="2">  1        4 0.18787016E+00 0.11140364E+04</pdfrwt>
<pdfrwt beam="1">  1       -4 0.20539056E+00 0.11145683E+04</pdfrwt>
<totfact> 0.19060066E-01</totfact>
</mgrwt>
</event>
<event>
 8    1  0.3025584E-006  0.1592814E+04  0.7818608E-02  0.8358728E-01
          4   -1    0    0  502    0  0.00000000000E+00  0.00000000000E+00  0.19138001185E+04  0.19138001185E+04  0.00000000000E+00 0.  1.
         -4   -1    0    0    0  501 -0.00000000000E+00 -0.00000000000E+00 -0.22155302077E+04  0.22155302077E+04  0.00000000000E+00 0. -1.
   -9000010    2    1    2    0  501 -0.11036182907E+04  0.55487734823E+03 -0.14609469666E+04  0.21593454805E+04  0.10012715225E+04 0.  0.
    9000010    2    1    2  502    0  0.11036182907E+04 -0.55487734823E+03  0.11592168773E+04  0.19699848457E+04  0.10055815833E+04 0.  0.
        -13    1    4    4    0    0  0.11015438171E+04 -0.76454030239E+02  0.90816770855E+03  0.14296896859E+04  0.10566000000E+00 0.  1.
          4    1    4    4  502    0  0.20744735474E+01 -0.47842331799E+03  0.25104916876E+03  0.54029515986E+03  0.00000000000E+00 0.  1.
         13    1    3    3    0    0 -0.71285345949E+03  0.80156913566E+03 -0.74063117670E+03  0.13035366067E+04  0.10566000000E+00 0. -1.
         -4    1    3    3    0  501 -0.39076483120E+03 -0.24669178743E+03 -0.72031578987E+03  0.85580887377E+03  0.00000000000E+00 0. -1.
<mgrwt>
<rscale>  0 0.15914547E+04</rscale>
<asrwt>0</asrwt>
<pdfrwt beam="1">  1        4 0.29443079E+00 0.15928140E+04</pdfrwt>
<pdfrwt beam="2">  1       -4 0.34085080E+00 0.15900965E+04</pdfrwt>
<totfact> 0.43285450E-02</totfact>
</mgrwt>
</event>
<event>
 8    1  0.3025584E-006  0.1212646E+04  0.7818608E-02  0.8608232E-01
         -4   -1    0    0    0  501 -0.00000000000E+00  0.00000000000E+00  0.22096982123E+04  0.22096982123E+04  0.00000000000E+00 0. -1.
          4   -1    0    0  502    0  0.00000000000E+00 -0.00000000000E+00 -0.25715309470E+04  0.25715309470E+04  0.00000000000E+00 0.  1.
   -9000010    2    1    2    0  501 -0.49734378333E+03  0.44601007626E+03  0.18864565539E+04  0.22267596820E+04  0.97645508073E+03 0.  0.
    9000010    2    1    2  502    0  0.49734378333E+03 -0.44601007626E+03 -0.22482892886E+04  0.25544694772E+04  0.10120443457E+04 0.  0.
        -13    1    4    4    0    0  0.51104440658E+03 -0.95476026900E+02 -0.21170051110E+04  0.21799065824E+04  0.10566000000E+00 0.  1.
          4    1    4    4  502    0 -0.13700623249E+02 -0.35053404936E+03 -0.13128417768E+03  0.37456289478E+03  0.00000000000E+00 0.  1.
         13    1    3    3    0    0 -0.74053518580E+03  0.11786505820E+03  0.14268902665E+04  0.16119244328E+04  0.10566000000E+00 0. -1.
         -4    1    3    3    0  501  0.24319140247E+03  0.32814501806E+03  0.45956628743E+03  0.61483524920E+03  0.00000000000E+00 0. -1.
<mgrwt>
<rscale>  0 0.11977849E+04</rscale>
<asrwt>0</asrwt>
<pdfrwt beam="2">  1        4 0.39562014E+00 0.12126457E+04</pdfrwt>
<pdfrwt beam="1">  1       -4 0.33995357E+00 0.11831062E+04</pdfrwt>
<totfact> 0.21219247E-02</totfact>
</mgrwt>
</event>
<event>
 8    1  0.3025584E-006  0.1063395E+04  0.7818608E-02  0.8734086E-01
         -4   -1    0    0    0  501 -0.00000000000E+00  0.00000000000E+00  0.93583810213E+03  0.93583810213E+03  0.00000000000E+00 0. -1.
          4   -1    0    0  502    0  0.00000000000E+00 -0.00000000000E+00 -0.13794688391E+04  0.13794688391E+04  0.00000000000E+00 0.  1.
   -9000010    2    1    2    0  501  0.36734482460E+03 -0.45123302582E+02  0.23052354808E+03  0.10880948824E+04  0.99691074543E+03 0.  0.
    9000010    2    1    2  502    0 -0.36734482460E+03  0.45123302582E+02 -0.67415428504E+03  0.12272120588E+04  0.95634047524E+03 0.  0.
        -13    1    4    4    0    0 -0.16420985620E+03  0.29232206684E+03 -0.81224781133E+03  0.87872839138E+03  0.10566000000E+00 0.  1.
          4    1    4    4  502    0 -0.20313496839E+03 -0.24719876426E+03  0.13809352630E+03  0.34848366740E+03  0.00000000000E+00 0.  1.
         13    1    3    3    0    0  0.13524586435E+03 -0.28600739957E+03  0.54422776184E+03  0.62950420519E+03  0.10566000000E+00 0. -1.
         -4    1    3    3    0  501  0.23209896025E+03  0.24088409698E+03 -0.31370421375E+03  0.45859067724E+03  0.00000000000E+00 0. -1.
<mgrwt>
<rscale>  0 0.10442547E+04</rscale>
<asrwt>0</asrwt>
<pdfrwt beam="2">  1        4 0.21222597E+00 0.10254586E+04</pdfrwt>
<pdfrwt beam="1">  1       -4 0.14397509E+00 0.10633952E+04</pdfrwt>
<totfact> 0.26690937E-01</totfact>
</mgrwt>
</event>
<event>
 8    1  0.3025584E-006  0.1331298E+04  0.7818608E-02  0.8615322E-01
         -4   -1    0    0    0  501 -0.00000000000E+00  0.00000000000E+00  0.15573910307E+04  0.15573910307E+04  0.00000000000E+00 0. -1.
          4   -1    0    0  502    0  0.00000000000E+00 -0.00000000000E+00 -0.17698475708E+04  0.17698475708E+04  0.00000000000E+00 0.  1.
   -9000010    2    1    2    0  501 -0.70518770202E+03  0.10783099733E+03  0.10374477238E+04  0.16877949458E+04  0.11240270373E+04 0.  0.
    9000010    2    1    2  502    0  0.70518770202E+03 -0.10783099733E+03 -0.12499042638E+04  0.16394436557E+04  0.78523729692E+03 0.  0.
        -13    1    4    4    0    0  0.58518610590E+03 -0.37080821558E+03 -0.55789561694E+03  0.88948807853E+03  0.10566000000E+00 0.  1.
          4    1    4    4  502    0  0.12000159613E+03  0.26297721825E+03 -0.69200864689E+03  0.74995557719E+03  0.00000000000E+00 0.  1.
         13    1    3    3    0    0  0.22606511846E+03  0.29677146215E+03  0.37846077092E+03  0.53142384668E+03  0.10566000000E+00 0. -1.
         -4    1    3    3    0  501 -0.93125282048E+03 -0.18894046482E+03  0.65898695284E+03  0.11563710991E+04  0.00000000000E+00 0. -1.
<mgrwt>
<rscale>  0 0.11884350E+04</rscale>
<asrwt>0</asrwt>
<pdfrwt beam="2">  1        4 0.27228424E+00 0.10609028E+04</pdfrwt>
<pdfrwt beam="1">  1       -4 0.23959862E+00 0.13312979E+04</pdfrwt>
<totfact> 0.95128327E-02</totfact>
</mgrwt>
</event>
<event>
 8    1  0.3025584E-006  0.1176945E+04  0.7818608E-02  0.8625234E-01
         -4   -1    0    0    0  501 -0.00000000000E+00  0.00000000000E+00  0.80827281564E+03  0.80827281564E+03  0.00000000000E+00 0. -1.
          4   -1    0    0  502    0  0.00000000000E+00 -0.00000000000E+00 -0.18453084205E+04  0.18453084205E+04  0.00000000000E+00 0.  1.
   -9000010    2    1    2    0  501  0.89146822181E+02  0.51479893142E+03 -0.15930797415E+03  0.11876775778E+04  0.10546250056E+04 0.  0.
    9000010    2    1    2  502    0 -0.89146822181E+02 -0.51479893142E+03 -0.87772763068E+03  0.14659036583E+04  0.10514288593E+04 0.  0.
        -13    1    4    4    0    0 -0.44236036724E+03  0.89647709515E+02 -0.20767209723E+03  0.49683711361E+03  0.10566000000E+00 0.  1.
          4    1    4    4  502    0  0.35321354506E+03 -0.60444664094E+03 -0.67005553345E+03  0.96906654470E+03  0.00000000000E+00 0.  1.
         13    1    3    3    0    0  0.20066879710E+03 -0.29647086380E+03 -0.53349449446E+02  0.36195181189E+03  0.10566000000E+00 0. -1.
         -4    1    3    3    0  501 -0.11152197492E+03  0.81126979522E+03 -0.10595852471E+03  0.82572576591E+03  0.00000000000E+00 0. -1.
<mgrwt>
<rscale>  0 0.11755123E+04</rscale>
<asrwt>0</asrwt>
<pdfrwt beam="2">  1        4 0.28389360E+00 0.11740817E+04</pdfrwt>
<pdfrwt beam="1">  1       -4 0.12434966E+00 0.11769448E+04</pdfrwt>
<totfact> 0.22390986E-01</totfact>
</mgrwt>
</event>
<event>
 8    1  0.3025584E-006  0.1084110E+04  0.7818608E-02  0.8703034E-01
          4   -1    0    0  502    0  0.00000000000E+00  0.00000000000E+00  0.20524743512E+04  0.20524743512E+04  0.00000000000E+00 0.  1.
         -4   -1    0    0    0  501 -0.00000000000E+00 -0.00000000000E+00 -0.19506475328E+04  0.19506475328E+04  0.00000000000E+00 0. -1.
   -9000010    2    1    2    0  501  0.35861415897E+03 -0.12980842258E+03 -0.16342305041E+04  0.19563709299E+04  0.10055961085E+04 0.  0.
    9000010    2    1    2  502    0 -0.35861415897E+03  0.12980842258E+03  0.17360573225E+04  0.20467509540E+04  0.10148103760E+04 0.  0.
        -13    1    4    4    0    0 -0.12840993275E+02  0.37765911482E+03  0.15325595007E+03  0.40777284793E+03  0.10566000000E+00 0.  1.
          4    1    4    4  502    0 -0.34577316570E+03 -0.24785069224E+03  0.15828013724E+04  0.16389781061E+04  0.00000000000E+00 0.  1.
         13    1    3    3    0    0  0.70321717389E+03 -0.16035353926E+03 -0.12135166531E+04  0.14116835091E+04  0.10566000000E+00 0. -1.
         -4    1    3    3    0  501 -0.34460301491E+03  0.30545116676E+02 -0.42071385098E+03  0.54468742086E+03  0.00000000000E+00 0. -1.
<mgrwt>
<rscale>  0 0.10797912E+04</rscale>
<asrwt>0</asrwt>
<pdfrwt beam="1">  1        4 0.31576528E+00 0.10841100E+04</pdfrwt>
<pdfrwt beam="2">  1       -4 0.30009962E+00 0.10754896E+04</pdfrwt>
<totfact> 0.52094503E-02</totfact>
</mgrwt>
</event>
<event>
 8    1  0.3025584E-006  0.1113558E+04  0.7818608E-02  0.8676352E-01
          4   -1    0    0  502    0  0.00000000000E+00  0.00000000000E+00  0.19217183221E+04  0.19217183221E+04  0.00000000000E+00 0.  1.
         -4   -1    0    0    0  501 -0.00000000000E+00 -0.00000000000E+00 -0.11260002885E+04  0.11260002885E+04  0.00000000000E+00 0. -1.
   -9000010    2    1    2    0  501  0.74966836242E+02 -0.47832367016E+03 -0.59987364413E+03  0.12648560497E+04  0.10027955312E+04 0.  0.
    9000010    2    1    2  502    0 -0.74966836242E+02  0.47832367016E+03  0.13955916777E+04  0.17828625609E+04  0.99825308426E+03 0.  0.
        -13    1    4    4    0    0  0.10518577661E+03 -0.44300438092E+02  0.11862832344E+04  0.11917610917E+04  0.10566000000E+00 0.  1.
          4    1    4    4  502    0 -0.18015261285E+03  0.52262410825E+03  0.20930844337E+03  0.59110146921E+03  0.00000000000E+00 0.  1.
         13    1    3    3    0    0 -0.27442290589E+02 -0.75827363237E+03 -0.59907945418E+03  0.96676169993E+03  0.10566000000E+00 0. -1.
         -4    1    3    3    0  501  0.10240912683E+03  0.27994996222E+03 -0.79418994989E+00  0.29809434973E+03  0.00000000000E+00 0. -1.
<mgrwt>
<rscale>  0 0.11115121E+04</rscale>
<asrwt>0</asrwt>
<pdfrwt beam="1">  1        4 0.29564897E+00 0.11094696E+04</pdfrwt>
<pdfrwt beam="2">  1       -4 0.17323081E+00 0.11135585E+04</pdfrwt>
<totfact> 0.12737843E-01</totfact>
</mgrwt>
</event>
<event>
 8    1  0.3025584E-006  0.1026961E+04  0.7818608E-02  0.8756519E-01
          4   -1    0    0  502    0  0.00000000000E+00  0.00000000000E+00  0.18648412351E+04  0.18648412351E+04  0.00000000000E+00 0.  1.
         -4   -1    0    0    0  501 -0.00000000000E+00 -0.00000000000E+00 -0.11802661407E+04  0.11802661407E+04  0.00000000000E+00 0. -1.
   -9000010    2    1    2    0  501  0.24714210927E+03  0.15889905766E+02 -0.76499717627E+03  0.12686194800E+04  0.98124563395E+03 0.  0.
    9000010    2    1    2  502    0 -0.24714210927E+03 -0.15889905766E+02  0.14495722707E+04  0.17764878958E+04  0.99665328202E+03 0.  0.
        -13    1    4    4    0    0 -0.56540836650E+03  0.15230974558E+03  0.12095237271E+04  0.13438126868E+04  0.10566000000E+00 0.  1.
          4    1    4    4  502    0  0.31826625723E+03 -0.16819965134E+03  0.24004854357E+03  0.43267520899E+03  0.00000000000E+00 0.  1.
         13    1    3    3    0    0  0.37324609479E+03  0.16432854687E+03  0.67740598268E+02  0.41340696464E+03  0.10566000000E+00 0. -1.
         -4    1    3    3    0  501 -0.12610398553E+03 -0.14843864110E+03 -0.83273777454E+03  0.85521251539E+03  0.00000000000E+00 0. -1.
<mgrwt>
<rscale>  0 0.10194608E+04</rscale>
<asrwt>0</asrwt>
<pdfrwt beam="1">  1        4 0.28689865E+00 0.10269613E+04</pdfrwt>
<pdfrwt beam="2">  1       -4 0.18157941E+00 0.10120152E+04</pdfrwt>
<totfact> 0.12661445E-01</totfact>
</mgrwt>
</event>
<event>
 8    1  0.3025584E-006  0.1090399E+04  0.7818608E-02  0.8697826E-01
          4   -1    0    0  502    0  0.00000000000E+00  0.00000000000E+00  0.19491519944E+04  0.19491519944E+04  0.00000000000E+00 0.  1.
         -4   -1    0    0    0  501 -0.00000000000E+00 -0.00000000000E+00 -0.14928082350E+04  0.14928082350E+04  0.00000000000E+00 0. -1.
   -9000010    2    1    2    0  501 -0.31767727659E+01  0.37211978252E+03 -0.10986505058E+04  0.15479029605E+04  0.10249328840E+04 0.  0.
    9000010    2    1    2  502    0  0.31767727659E+01 -0.37211978252E+03  0.15549942652E+04  0.18940572689E+04  0.10153632595E+04 0.  0.
        -13    1    4    4    0    0 -0.87701798438E+02  0.34631371814E+03  0.51625989772E+03  0.62781294187E+03  0.10566000000E+00 0.  1.
          4    1    4    4  502    0  0.90878571204E+02 -0.71843350066E+03  0.10387343675E+04  0.12662443270E+04  0.00000000000E+00 0.  1.
         13    1    3    3    0    0 -0.21357390577E+02  0.44403963996E+03 -0.12783775715E+04  0.13534683471E+04  0.10566000000E+00 0. -1.
         -4    1    3    3    0  501  0.18180617811E+02 -0.71919857435E+02  0.17972706570E+03  0.19443461344E+03  0.00000000000E+00 0. -1.
<mgrwt>
<rscale>  0 0.10858949E+04</rscale>
<asrwt>0</asrwt>
<pdfrwt beam="1">  1        4 0.29986954E+00 0.10814092E+04</pdfrwt>
<pdfrwt beam="2">  1       -4 0.22966280E+00 0.10903993E+04</pdfrwt>
<totfact> 0.85702156E-02</totfact>
</mgrwt>
</event>
<event>
 8    1  0.3025584E-006  0.1021023E+04  0.7818608E-02  0.8757599E-01
          4   -1    0    0  502    0  0.00000000000E+00  0.00000000000E+00  0.16202237677E+04  0.16202237677E+04  0.00000000000E+00 0.  1.
         -4   -1    0    0    0  501 -0.00000000000E+00 -0.00000000000E+00 -0.13954932223E+04  0.13954932223E+04  0.00000000000E+00 0. -1.
   -9000010    2    1    2    0  501 -0.12258919018E+03  0.21063345785E+02 -0.99724702615E+03  0.14233233633E+04  0.10079067374E+04 0.  0.
    9000010    2    1    2  502    0  0.12258919018E+03 -0.21063345785E+02  0.12219775716E+04  0.15923936267E+04  0.10134182270E+04 0.  0.
        -13    1    4    4    0    0  0.37085627405E+03 -0.19498781361E+03  0.12192708552E+04  0.12892540685E+04  0.10566000000E+00 0.  1.
          4    1    4    4  502    0 -0.24826708387E+03  0.17392446782E+03  0.27067163473E+01  0.30313955821E+03  0.00000000000E+00 0.  1.
         13    1    3    3    0    0 -0.38787539661E+03  0.25431769534E+03 -0.12216812404E+03  0.47963514795E+03  0.10566000000E+00 0. -1.
         -4    1    3    3    0  501  0.26528620644E+03 -0.23325434955E+03 -0.87507890211E+03  0.94368821537E+03  0.00000000000E+00 0. -1.
<mgrwt>
<rscale>  0 0.10182844E+04</rscale>
<asrwt>0</asrwt>
<pdfrwt beam="1">  1        4 0.24926519E+00 0.10210232E+04</pdfrwt>
<pdfrwt beam="2">  1       -4 0.21469127E+00 0.10155529E+04</pdfrwt>
<totfact> 0.12550713E-01</totfact>
</mgrwt>
</event>
<event>
 8    1  0.3025584E-006  0.1223876E+04  0.7818608E-02  0.8592526E-01
         -4   -1    0    0    0  501 -0.00000000000E+00  0.00000000000E+00  0.10540364932E+04  0.10540364932E+04  0.00000000000E+00 0. -1.
          4   -1    0    0  502    0  0.00000000000E+00 -0.00000000000E+00 -0.17838417103E+04  0.17838417103E+04  0.00000000000E+00 0.  1.
   -9000010    2    1    2    0  501  0.44573160053E+03  0.54293024287E+03  0.28401147196E+03  0.12563973478E+04  0.10022084968E+04 0.  0.
    9000010    2    1    2  502    0 -0.44573160053E+03 -0.54293024287E+03 -0.10138166891E+04  0.15814808557E+04  0.98985226646E+03 0.  0.
        -13    1    4    4    0    0  0.19852751473E+03  0.77595822136E+02 -0.51485054447E+03  0.55723009612E+03  0.10566000000E+00 0.  1.
          4    1    4    4  502    0 -0.64425911526E+03 -0.62052606501E+03 -0.49896614462E+03  0.10242507595E+04  0.00000000000E+00 0.  1.
         13    1    3    3    0    0  0.54642823671E+03  0.15078825383E+03 -0.22163210211E+03  0.60863923240E+03  0.10566000000E+00 0. -1.
         -4    1    3    3    0  501 -0.10069663618E+03  0.39214198904E+03  0.50564357407E+03  0.64775811543E+03  0.00000000000E+00 0. -1.
<mgrwt>
<rscale>  0 0.12188165E+04</rscale>
<asrwt>0</asrwt>
<pdfrwt beam="2">  1        4 0.27443718E+00 0.12137782E+04</pdfrwt>
<pdfrwt beam="1">  1       -4 0.16215946E+00 0.12238757E+04</pdfrwt>
<totfact> 0.15766332E-01</totfact>
</mgrwt>
</event>
<event>
 8    1  0.3025584E-006  0.1037928E+04  0.7818608E-02  0.8742292E-01
         -4   -1    0    0    0  501 -0.00000000000E+00  0.00000000000E+00  0.26150606715E+04  0.26150606715E+04  0.00000000000E+00 0. -1.
          4   -1    0    0  502    0  0.00000000000E+00 -0.00000000000E+00 -0.13876741822E+04  0.13876741822E+04  0.00000000000E+00 0.  1.
   -9000010    2    1    2    0  501  0.17516476905E+03 -0.18298853905E+03  0.22943127463E+04  0.25181669777E+04  0.10065418261E+04 0.  0.
    9000010    2    1    2  502    0 -0.17516476905E+03  0.18298853905E+03 -0.10669262571E+04  0.14845678760E+04  0.10007210594E+04 0.  0.
        -13    1    4    4    0    0 -0.67105431744E+02  0.28864833102E+03 -0.12282595015E+04  0.12635040215E+04  0.10566000000E+00 0.  1.
          4    1    4    4  502    0 -0.10805933730E+03 -0.10565979197E+03  0.16133324446E+03  0.22106385454E+03  0.00000000000E+00 0.  1.
         13    1    3    3    0    0 -0.28275388933E+03 -0.29837546543E+03  0.42959770950E+03  0.59458547197E+03  0.10566000000E+00 0. -1.
         -4    1    3    3    0  501  0.45791865838E+03  0.11538692639E+03  0.18647150368E+04  0.19235815057E+04  0.00000000000E+00 0. -1.
<mgrwt>
<rscale>  0 0.10351020E+04</rscale>
<asrwt>0</asrwt>
<pdfrwt beam="2">  1        4 0.21348834E+00 0.10322839E+04</pdfrwt>
<pdfrwt beam="1">  1       -4 0.40231703E+00 0.10379277E+04</pdfrwt>
<totfact> 0.43330321E-02</totfact>
</mgrwt>
</event>
<event>
 8    1  0.3025584E-006  0.1066047E+04  0.7818608E-02  0.8729159E-01
          4   -1    0    0  502    0  0.00000000000E+00  0.00000000000E+00  0.14507409235E+04  0.14507409235E+04  0.00000000000E+00 0.  1.
         -4   -1    0    0    0  501 -0.00000000000E+00 -0.00000000000E+00 -0.39229778204E+04  0.39229778204E+04  0.00000000000E+00 0. -1.
   -9000010    2    1    2    0  501 -0.78007769277E+02  0.35330417754E+03 -0.36523997573E+04  0.38047968781E+04  0.10027692865E+04 0.  0.
    9000010    2    1    2  502    0  0.78007769277E+02 -0.35330417754E+03  0.11801628604E+04  0.15689218659E+04  0.96841230383E+03 0.  0.
        -13    1    4    4    0    0 -0.83075077474E+02  0.21175547750E+03  0.88038372204E+03  0.90929497961E+03  0.10566000000E+00 0.  1.
          4    1    4    4  502    0  0.16108284675E+03 -0.56505965504E+03  0.29977913833E+03  0.65962688624E+03  0.00000000000E+00 0.  1.
         13    1    3    3    0    0  0.48300780653E+02  0.55560224091E+03 -0.10275852929E+04  0.11691699453E+04  0.10566000000E+00 0. -1.
         -4    1    3    3    0  501 -0.12630854993E+03 -0.20229806337E+03 -0.26248144644E+04  0.26356269328E+04  0.00000000000E+00 0. -1.
<mgrwt>
<rscale>  0 0.10497968E+04</rscale>
<asrwt>0</asrwt>
<pdfrwt beam="1">  1        4 0.22319091E+00 0.10337947E+04</pdfrwt>
<pdfrwt beam="2">  1       -4 0.60353504E+00 0.10660466E+04</pdfrwt>
<totfact> 0.44197749E-03</totfact>
</mgrwt>
</event>
<event>
 8    1  0.3025584E-006  0.1244251E+04  0.7818608E-02  0.8578525E-01
         -4   -1    0    0    0  501 -0.00000000000E+00  0.00000000000E+00  0.10307535688E+04  0.10307535688E+04  0.00000000000E+00 0. -1.
          4   -1    0    0  502    0  0.00000000000E+00 -0.00000000000E+00 -0.20677603201E+04  0.20677603201E+04  0.00000000000E+00 0.  1.
   -9000010    2    1    2    0  501  0.27686813099E+03  0.67944895723E+03  0.30077683100E+03  0.12800892506E+04  0.10049153895E+04 0.  0.
    9000010    2    1    2  502    0 -0.27686813099E+03 -0.67944895723E+03 -0.13377835822E+04  0.18184246383E+04  0.98929085961E+03 0.  0.
        -13    1    4    4    0    0 -0.11706267114E+03 -0.21055538905E+03 -0.12994204994E+04  0.13215638033E+04  0.10566000000E+00 0.  1.
          4    1    4    4  502    0 -0.15980545985E+03 -0.46889356817E+03 -0.38363082891E+02  0.49686083505E+03  0.00000000000E+00 0.  1.
         13    1    3    3    0    0  0.27661609728E+03  0.71494410898E+03 -0.18858111522E+03  0.78944562347E+03  0.10566000000E+00 0. -1.
         -4    1    3    3    0  501  0.25203370959E+00 -0.35495151755E+02  0.48935794622E+03  0.49064362714E+03  0.00000000000E+00 0. -1.
<mgrwt>
<rscale>  0 0.12379432E+04</rscale>
<asrwt>0</asrwt>
<pdfrwt beam="2">  1        4 0.31811697E+00 0.12316669E+04</pdfrwt>
<pdfrwt beam="1">  1       -4 0.15857748E+00 0.12442515E+04</pdfrwt>
<totfact> 0.12402949E-01</totfact>
</mgrwt>
</event>
<event>
 8    1  0.3025584E-006  0.1292613E+04  0.7818608E-02  0.8561864E-01
         -4   -1    0    0    0  501 -0.00000000000E+00  0.00000000000E+00  0.35137887854E+04  0.35137887854E+04  0.00000000000E+00 0. -1.
          4   -1    0    0  502    0  0.00000000000E+00 -0.00000000000E+00 -0.71321495119E+03  0.71321495119E+03  0.00000000000E+00 0.  1.
   -9000010    2    1    2    0  501 -0.11552833219E+03  0.72410715370E+03  0.26986851217E+04  0.29922814860E+04  0.10645041755E+04 0.  0.
    9000010    2    1    2  502    0  0.11552833219E+03 -0.72410715370E+03  0.10188871249E+03  0.12347222506E+04  0.98816990481E+03 0.  0.
        -13    1    4    4    0    0  0.53089949560E+03 -0.48204382505E+03 -0.78196639632E+02  0.72134267121E+03  0.10566000000E+00 0.  1.
          4    1    4    4  502    0 -0.41537116341E+03 -0.24206332865E+03  0.18008535212E+03  0.51337957937E+03  0.00000000000E+00 0.  1.
         13    1    3    3    0    0 -0.75266021466E+02  0.11735779384E+03 -0.71120542877E+02  0.15651187988E+03  0.10566000000E+00 0. -1.
         -4    1    3    3    0  501 -0.40262310724E+02  0.60674935986E+03  0.27698056646E+04  0.28357696061E+04  0.00000000000E+00 0. -1.
<mgrwt>
<rscale>  0 0.12611797E+04</rscale>
<asrwt>0</asrwt>
<pdfrwt beam="2">  1        4 0.10972538E+00 0.12305112E+04</pdfrwt>
<pdfrwt beam="1">  1       -4 0.54058288E+00 0.12926125E+04</pdfrwt>
<totfact> 0.26505018E-02</totfact>
</mgrwt>
</event>
<event>
 8    1  0.3025584E-006  0.1081027E+04  0.7818608E-02  0.8712997E-01
          4   -1    0    0  502    0  0.00000000000E+00  0.00000000000E+00  0.18216793560E+04  0.18216793560E+04  0.00000000000E+00 0.  1.
         -4   -1    0    0    0  501 -0.00000000000E+00 -0.00000000000E+00 -0.97574553566E+03  0.97574553566E+03  0.00000000000E+00 0. -1.
   -9000010    2    1    2    0  501 -0.11614696424E+02 -0.33540132937E+03 -0.41703850036E+03  0.11349812555E+04  0.10008158605E+04 0.  0.
    9000010    2    1    2  502    0  0.11614696424E+02  0.33540132937E+03  0.12629723207E+04  0.16624436361E+04  0.10276141336E+04 0.  0.
        -13    1    4    4    0    0  0.11088337850E+03  0.12017185049E+03  0.13858523244E+04  0.13954651817E+04  0.10566000000E+00 0.  1.
          4    1    4    4  502    0 -0.99268682081E+02  0.21522947888E+03 -0.12288000366E+03  0.26697845442E+03  0.00000000000E+00 0.  1.
         13    1    3    3    0    0  0.36369342631E+03  0.10570026220E+03  0.61494709636E+02  0.38370179078E+03  0.10566000000E+00 0. -1.
         -4    1    3    3    0  501 -0.37530812274E+03 -0.44110159157E+03 -0.47853321000E+03  0.75127946475E+03  0.00000000000E+00 0. -1.
<mgrwt>
<rscale>  0 0.10682307E+04</rscale>
<asrwt>0</asrwt>
<pdfrwt beam="1">  1        4 0.28025836E+00 0.10810272E+04</pdfrwt>
<pdfrwt beam="2">  1       -4 0.15011470E+00 0.10555858E+04</pdfrwt>
<totfact> 0.17152443E-01</totfact>
</mgrwt>
</event>
<event>
 8    1  0.3025584E-006  0.1408726E+04  0.7818608E-02  0.8530270E-01
          4   -1    0    0  502    0  0.00000000000E+00  0.00000000000E+00  0.25659072514E+04  0.25659072514E+04  0.00000000000E+00 0.  1.
         -4   -1    0    0    0  501 -0.00000000000E+00 -0.00000000000E+00 -0.19707225893E+04  0.19707225893E+04  0.00000000000E+00 0. -1.
   -9000010    2    1    2    0  501  0.55747004506E+03  0.44064932005E+03 -0.15364375418E+04  0.20845022717E+04  0.12163735966E+04 0.  0.
    9000010    2    1    2  502    0 -0.55747004506E+03 -0.44064932005E+03  0.21316222039E+04  0.24521275689E+04  0.98192246118E+03 0.  0.
        -13    1    4    4    0    0 -0.49308794800E+03 -0.60950155668E+03  0.84420488872E+03  0.11520893096E+04  0.10566000000E+00 0.  1.
          4    1    4    4  502    0 -0.64382097058E+02  0.16885223663E+03  0.12874173152E+04  0.13000382593E+04  0.00000000000E+00 0.  1.
         13    1    3    3    0    0  0.69614568659E+03 -0.18794556362E+03 -0.10669970680E+04  0.12877985503E+04  0.10566000000E+00 0. -1.
         -4    1    3    3    0  501 -0.13867564153E+03  0.62859488367E+03 -0.46944047382E+03  0.79670372146E+03  0.00000000000E+00 0. -1.
<mgrwt>
<rscale>  0 0.13067044E+04</rscale>
<asrwt>0</asrwt>
<pdfrwt beam="1">  1        4 0.39475496E+00 0.12120711E+04</pdfrwt>
<pdfrwt beam="2">  1       -4 0.30318809E+00 0.14087262E+04</pdfrwt>
<totfact> 0.26871181E-02</totfact>
</mgrwt>
</event>
<event>
 8    1  0.3025584E-006  0.1080379E+04  0.7818608E-02  0.8716910E-01
          4   -1    0    0  502    0  0.00000000000E+00  0.00000000000E+00  0.48663299939E+03  0.48663299939E+03  0.00000000000E+00 0.  1.
         -4   -1    0    0    0  501 -0.00000000000E+00 -0.00000000000E+00 -0.23759396669E+04  0.23759396669E+04  0.00000000000E+00 0. -1.
   -9000010    2    1    2    0  501  0.10415058078E+03  0.29381311268E+03 -0.11382490562E+04  0.15467815214E+04  0.99987432834E+03 0.  0.
    9000010    2    1    2  502    0 -0.10415058078E+03 -0.29381311268E+03 -0.75105761133E+03  0.13157911448E+04  0.10344299458E+04 0.  0.
        -13    1    4    4    0    0  0.17970145802E+03 -0.48443971983E+03 -0.81786129967E+03  0.96740455489E+03  0.10566000000E+00 0.  1.
          4    1    4    4  502    0 -0.28385203880E+03  0.19062660715E+03  0.66803688344E+02  0.34838658995E+03  0.00000000000E+00 0.  1.
         13    1    3    3    0    0 -0.43174029923E+03  0.26647943588E+03 -0.61549935548E+03  0.79765308467E+03  0.10566000000E+00 0. -1.
         -4    1    3    3    0  501  0.53589088001E+03  0.27333676798E+02 -0.52274970068E+03  0.74912843674E+03  0.00000000000E+00 0. -1.
<mgrwt>
<rscale>  0 0.10637315E+04</rscale>
<asrwt>0</asrwt>
<pdfrwt beam="1">  1        4 0.74866616E-01 0.10803790E+04</pdfrwt>
<pdfrwt beam="2">  1       -4 0.36552917E+00 0.10473405E+04</pdfrwt>
<totfact> 0.34019510E-01</totfact>
</mgrwt>
</event>
<event>
 8    1  0.3025584E-006  0.1062825E+04  0.7818608E-02  0.8861449E-01
          4   -1    0    0  502    0  0.00000000000E+00  0.00000000000E+00  0.29235336502E+04  0.29235336502E+04  0.00000000000E+00 0.  1.
         -4   -1    0    0    0  501 -0.00000000000E+00 -0.00000000000E+00 -0.36499298334E+03  0.36499298334E+03  0.00000000000E+00 0. -1.
   -9000010    2    1    2    0  501 -0.31025006350E+03  0.87161464512E+02  0.70277057978E+03  0.12741597761E+04  0.10127904149E+04 0.  0.
    9000010    2    1    2  502    0  0.31025006350E+03 -0.87161464512E+02  0.18557700871E+04  0.20143668574E+04  0.71410013117E+03 0.  0.
        -13    1    4    4    0    0 -0.18531110314E+03 -0.58323058698E+02  0.10510839254E+04  0.10688869040E+04  0.10566000000E+00 0.  1.
          4    1    4    4  502    0  0.49556116663E+03 -0.28838405814E+02  0.80468616171E+03  0.94547995345E+03  0.00000000000E+00 0.  1.
         13    1    3    3    0    0 -0.31085817686E+02 -0.80388119705E+02  0.89295033015E+03  0.89710026258E+03  0.10566000000E+00 0. -1.
         -4    1    3    3    0  501 -0.27916424581E+03  0.16754958422E+03 -0.19017975036E+03  0.37705951355E+03  0.00000000000E+00 0. -1.
<mgrwt>
<rscale>  0 0.91250660E+03</rscale>
<asrwt>0</asrwt>
<pdfrwt beam="1">  1        4 0.44977439E+00 0.78344829E+03</pdfrwt>
<pdfrwt beam="2">  1       -4 0.56152769E-01 0.10628248E+04</pdfrwt>
<totfact> 0.29274110E-01</totfact>
</mgrwt>
</event>
<event>
 8    1  0.3025584E-006  0.1087941E+04  0.7818608E-02  0.8699134E-01
          4   -1    0    0  502    0  0.00000000000E+00  0.00000000000E+00  0.19558519775E+04  0.19558519775E+04  0.00000000000E+00 0.  1.
         -4   -1    0    0    0  501 -0.00000000000E+00 -0.00000000000E+00 -0.14994657873E+04  0.14994657873E+04  0.00000000000E+00 0. -1.
   -9000010    2    1    2    0  501  0.40233722092E+03 -0.13874150953E+03 -0.11092973356E+04  0.15487554899E+04  0.99346793761E+03 0.  0.
    9000010    2    1    2  502    0 -0.40233722092E+03  0.13874150953E+03  0.15656835258E+04  0.19065622749E+04  0.10012444053E+04 0.  0.
        -13    1    4    4    0    0 -0.30111693165E+03 -0.38657217959E+03  0.10716579458E+04  0.11783718515E+04  0.10566000000E+00 0.  1.
          4    1    4    4  502    0 -0.10122028927E+03  0.52531368912E+03  0.49402558005E+03  0.72819042337E+03  0.00000000000E+00 0.  1.
         13    1    3    3    0    0  0.49529655414E+03 -0.49270026786E+03 -0.84991271897E+03  0.11001926520E+04  0.10566000000E+00 0. -1.
         -4    1    3    3    0  501 -0.92959333214E+02  0.35395875834E+03 -0.25938461660E+03  0.44856283792E+03  0.00000000000E+00 0. -1.
<mgrwt>
<rscale>  0 0.10843585E+04</rscale>
<asrwt>0</asrwt>
<pdfrwt beam="1">  1        4 0.30090030E+00 0.10879406E+04</pdfrwt>
<pdfrwt beam="2">  1       -4 0.23068705E+00 0.10807881E+04</pdfrwt>
<totfact> 0.84635302E-02</totfact>
</mgrwt>
</event>
<event>
 8    1  0.3025584E-006  0.1064675E+04  0.7818608E-02  0.8735858E-01
         -4   -1    0    0    0  501 -0.00000000000E+00  0.00000000000E+00  0.92090401798E+03  0.92090401798E+03  0.00000000000E+00 0. -1.
          4   -1    0    0  502    0  0.00000000000E+00 -0.00000000000E+00 -0.23377785428E+04  0.23377785428E+04  0.00000000000E+00 0.  1.
   -9000010    2    1    2    0  501 -0.79695742592E+02 -0.15710553370E+03  0.44558492281E+03  0.11133881493E+04  0.10050142723E+04 0.  0.
    9000010    2    1    2  502    0  0.79695742592E+02  0.15710553370E+03 -0.18624594477E+04  0.21452944115E+04  0.10499996942E+04 0.  0.
        -13    1    4    4    0    0  0.46673912985E+03  0.37933678426E+03 -0.87633806596E+03  0.10628782754E+04  0.10566000000E+00 0.  1.
          4    1    4    4  502    0 -0.38704338725E+03 -0.22223125055E+03 -0.98612138170E+03  0.10824161361E+04  0.00000000000E+00 0.  1.
         13    1    3    3    0    0 -0.10568172619E+03 -0.31891526388E+03 -0.23716465579E+03  0.41124525275E+03  0.10566000000E+00 0. -1.
         -4    1    3    3    0  501  0.25985983597E+02  0.16180973017E+03  0.68274957860E+03  0.70214289657E+03  0.00000000000E+00 0. -1.
<mgrwt>
<rscale>  0 0.10422702E+04</rscale>
<asrwt>0</asrwt>
<pdfrwt beam="2">  1        4 0.35965824E+00 0.10646750E+04</pdfrwt>
<pdfrwt beam="1">  1       -4 0.14167754E+00 0.10203368E+04</pdfrwt>
<totfact> 0.11004440E-01</totfact>
</mgrwt>
</event>
<event>
 8    1  0.3025584E-006  0.1327994E+04  0.7818608E-02  0.8517062E-01
         -4   -1    0    0    0  501 -0.00000000000E+00  0.00000000000E+00  0.12586712715E+04  0.12586712715E+04  0.00000000000E+00 0. -1.
          4   -1    0    0  502    0  0.00000000000E+00 -0.00000000000E+00 -0.19647615160E+04  0.19647615160E+04  0.00000000000E+00 0.  1.
   -9000010    2    1    2    0  501 -0.62289410524E+03 -0.60007113075E+03  0.51319963059E+03  0.14205914079E+04  0.10033063635E+04 0.  0.
    9000010    2    1    2  502    0  0.62289410524E+03  0.60007113075E+03 -0.12192898751E+04  0.18028413796E+04  0.10077136559E+04 0.  0.
        -13    1    4    4    0    0  0.28874843787E+03  0.25146919183E+03 -0.12612950776E+04  0.13181341733E+04  0.10566000000E+00 0.  1.
          4    1    4    4  502    0  0.33414566737E+03  0.34860193892E+03  0.42005202493E+02  0.48470720634E+03  0.00000000000E+00 0.  1.
         13    1    3    3    0    0  0.15735160152E+03 -0.50454396733E+03  0.29283525481E+03  0.60421572231E+03  0.10566000000E+00 0. -1.
         -4    1    3    3    0  501 -0.78024570676E+03 -0.95527163423E+02  0.22036437578E+03  0.81637568557E+03  0.00000000000E+00 0. -1.
<mgrwt>
<rscale>  0 0.13263228E+04</rscale>
<asrwt>0</asrwt>
<pdfrwt beam="2">  1        4 0.30227100E+00 0.13279944E+04</pdfrwt>
<pdfrwt beam="1">  1       -4 0.19364173E+00 0.13246532E+04</pdfrwt>
<totfact> 0.10342985E-01</totfact>
</mgrwt>
</event>
<event>
 8    1  0.3025584E-006  0.1793770E+04  0.7818608E-02  0.8265495E-01
          4   -1    0    0  502    0  0.00000000000E+00  0.00000000000E+00  0.20741602675E+04  0.20741602675E+04  0.00000000000E+00 0.  1.
         -4   -1    0    0    0  501 -0.00000000000E+00 -0.00000000000E+00 -0.20075644283E+04  0.20075644283E+04  0.00000000000E+00 0. -1.
   -9000010    2    1    2    0  501  0.14518313454E+04  0.30362405946E+03 -0.96851973024E+03  0.20385391143E+04  0.10087662898E+04 0.  0.
    9000010    2    1    2  502    0 -0.14518313454E+04 -0.30362405946E+03  0.10351155694E+04  0.20431855816E+04  0.95033744198E+03 0.  0.
        -13    1    4    4    0    0 -0.12216867129E+04 -0.31052838650E+03  0.33227589961E+03  0.13035925698E+04  0.10566000000E+00 0.  1.
          4    1    4    4  502    0 -0.23014463248E+03  0.69043270418E+01  0.70283966983E+03  0.73959301179E+03  0.00000000000E+00 0.  1.
         13    1    3    3    0    0  0.84161193308E+02  0.63073569548E+02 -0.58987658160E+03  0.59917925058E+03  0.10566000000E+00 0. -1.
         -4    1    3    3    0  501  0.13676701521E+04  0.24055048991E+03 -0.37864314863E+03  0.14393598637E+04  0.00000000000E+00 0. -1.
<mgrwt>
<rscale>  0 0.17775992E+04</rscale>
<asrwt>0</asrwt>
<pdfrwt beam="1">  1        4 0.31910158E+00 0.17615740E+04</pdfrwt>
<pdfrwt beam="2">  1       -4 0.30885606E+00 0.17937701E+04</pdfrwt>
<totfact> 0.45056293E-02</totfact>
</mgrwt>
</event>
<event>
 8    1  0.3025584E-006  0.1232751E+04  0.7818608E-02  0.8597704E-01
         -4   -1    0    0    0  501 -0.00000000000E+00  0.00000000000E+00  0.20138771938E+04  0.20138771938E+04  0.00000000000E+00 0. -1.
          4   -1    0    0  502    0  0.00000000000E+00 -0.00000000000E+00 -0.14935861495E+04  0.14935861495E+04  0.00000000000E+00 0.  1.
   -9000010    2    1    2    0  501 -0.31374750783E+03 -0.60764423760E+03  0.15166428142E+04  0.19544514226E+04  0.10256733980E+04 0.  0.
    9000010    2    1    2  502    0  0.31374750783E+03  0.60764423760E+03 -0.99635176998E+03  0.15530119207E+04  0.97542819222E+03 0.  0.
        -13    1    4    4    0    0 -0.34434550374E+03  0.95495961580E+02 -0.30428739576E+03  0.46934436718E+03  0.10566000000E+00 0.  1.
          4    1    4    4  502    0  0.65809301157E+03  0.51214827602E+03 -0.69206437422E+03  0.10836675535E+04  0.00000000000E+00 0.  1.
         13    1    3    3    0    0 -0.23564079291E+03 -0.49040894677E+02 -0.85889317770E+02  0.25555543177E+03  0.10566000000E+00 0. -1.
         -4    1    3    3    0  501 -0.78106714918E+02 -0.55860334293E+03  0.16025321320E+04  0.16988959909E+04  0.00000000000E+00 0. -1.
<mgrwt>
<rscale>  0 0.12118341E+04</rscale>
<asrwt>0</asrwt>
<pdfrwt beam="2">  1        4 0.22978249E+00 0.11912721E+04</pdfrwt>
<pdfrwt beam="1">  1       -4 0.30982726E+00 0.12327510E+04</pdfrwt>
<totfact> 0.79492966E-02</totfact>
</mgrwt>
</event>
<event>
 8    1  0.3025584E-006  0.1427565E+04  0.7818608E-02  0.8456529E-01
          4   -1    0    0  502    0  0.00000000000E+00  0.00000000000E+00  0.21563417702E+04  0.21563417702E+04  0.00000000000E+00 0.  1.
         -4   -1    0    0    0  501 -0.00000000000E+00 -0.00000000000E+00 -0.15768476339E+04  0.15768476339E+04  0.00000000000E+00 0. -1.
   -9000010    2    1    2    0  501 -0.63709909853E+03 -0.77446474596E+03 -0.90072655723E+03  0.16767373921E+04  0.99722066115E+03 0.  0.
    9000010    2    1    2  502    0  0.63709909853E+03  0.77446474596E+03  0.14802206935E+04  0.20564520120E+04  0.10159973780E+04 0.  0.
        -13    1    4    4    0    0  0.91492890740E+03  0.63342692498E+03  0.10977449385E+04  0.15631278054E+04  0.10566000000E+00 0.  1.
          4    1    4    4  502    0 -0.27782980887E+03  0.14103782098E+03  0.38247575500E+03  0.49332420658E+03  0.00000000000E+00 0.  1.
         13    1    3    3    0    0 -0.48489915835E+03 -0.10134694214E+04 -0.64753680830E+03  0.12967464637E+04  0.10566000000E+00 0. -1.
         -4    1    3    3    0  501 -0.15219994019E+03  0.23900467545E+03 -0.25318974893E+03  0.37999092837E+03  0.00000000000E+00 0. -1.
<mgrwt>
<rscale>  0 0.14208984E+04</rscale>
<asrwt>0</asrwt>
<pdfrwt beam="1">  1        4 0.33174489E+00 0.14275649E+04</pdfrwt>
<pdfrwt beam="2">  1       -4 0.24259194E+00 0.14142630E+04</pdfrwt>
<totfact> 0.63036782E-02</totfact>
</mgrwt>
</event>
<event>
 8    1  0.3025584E-006  0.1277666E+04  0.7818608E-02  0.8554400E-01
          4   -1    0    0  502    0  0.00000000000E+00  0.00000000000E+00  0.20765703073E+04  0.20765703073E+04  0.00000000000E+00 0.  1.
         -4   -1    0    0    0  501 -0.00000000000E+00 -0.00000000000E+00 -0.10648723873E+04  0.10648723873E+04  0.00000000000E+00 0. -1.
   -9000010    2    1    2    0  501  0.67890239781E+03 -0.38613711495E+03 -0.30643163996E+03  0.13138990487E+04  0.10111478738E+04 0.  0.
    9000010    2    1    2  502    0 -0.67890239781E+03  0.38613711495E+03  0.13181295600E+04  0.18275436460E+04  0.99621278034E+03 0.  0.
        -13    1    4    4    0    0 -0.28928982422E+03  0.64798854747E+03  0.44901835463E+03  0.83975904521E+03  0.10566000000E+00 0.  1.
          4    1    4    4  502    0 -0.38961257360E+03 -0.26185143253E+03  0.86911120537E+03  0.98778460077E+03  0.00000000000E+00 0.  1.
         13    1    3    3    0    0 -0.32525005181E+02 -0.27847831121E+03 -0.49605405369E+03  0.56980495007E+03  0.10566000000E+00 0. -1.
         -4    1    3    3    0  501  0.71142740300E+03 -0.10765880374E+03  0.18962241373E+03  0.74409409858E+03  0.00000000000E+00 0. -1.
<mgrwt>
<rscale>  0 0.12717590E+04</rscale>
<asrwt>0</asrwt>
<pdfrwt beam="1">  1        4 0.31947235E+00 0.12658792E+04</pdfrwt>
<pdfrwt beam="2">  1       -4 0.16382652E+00 0.12776660E+04</pdfrwt>
<totfact> 0.11713098E-01</totfact>
</mgrwt>
</event>
<event>
 8    1  0.3025584E-006  0.1298029E+04  0.7818608E-02  0.8550872E-01
         -4   -1    0    0    0  501 -0.00000000000E+00  0.00000000000E+00  0.12600007186E+04  0.12600007186E+04  0.00000000000E+00 0. -1.
          4   -1    0    0  502    0  0.00000000000E+00 -0.00000000000E+00 -0.25324591226E+04  0.25324591226E+04  0.00000000000E+00 0.  1.
   -9000010    2    1    2    0  501  0.81116257380E+02 -0.83223668181E+03  0.69500045253E+03  0.14353910139E+04  0.93708270281E+03 0.  0.
    9000010    2    1    2  502    0 -0.81116257380E+02  0.83223668181E+03 -0.19674588565E+04  0.23570688274E+04  0.99281486858E+03 0.  0.
        -13    1    4    4    0    0  0.72308598106E+02  0.26710869184E+03 -0.16838210815E+04  0.17064082256E+04  0.10566000000E+00 0.  1.
          4    1    4    4  502    0 -0.15342485549E+03  0.56512798997E+03 -0.28363777496E+03  0.65066060179E+03  0.00000000000E+00 0.  1.
         13    1    3    3    0    0 -0.11489355587E+03 -0.57966281565E+03  0.88449854900E+03  0.10637420756E+04  0.10566000000E+00 0. -1.
         -4    1    3    3    0  501  0.19600981325E+03 -0.25257386616E+03 -0.18949809647E+03  0.37164893828E+03  0.00000000000E+00 0. -1.
<mgrwt>
<rscale>  0 0.12767982E+04</rscale>
<asrwt>0</asrwt>
<pdfrwt beam="2">  1        4 0.38960910E+00 0.12980289E+04</pdfrwt>
<pdfrwt beam="1">  1       -4 0.19384626E+00 0.12559147E+04</pdfrwt>
<totfact> 0.53586332E-02</totfact>
</mgrwt>
</event>
<event>
 8    1  0.3025584E-006  0.1416977E+04  0.7818608E-02  0.8466520E-01
         -4   -1    0    0    0  501 -0.00000000000E+00  0.00000000000E+00  0.65251147205E+03  0.65251147205E+03  0.00000000000E+00 0. -1.
          4   -1    0    0  502    0  0.00000000000E+00 -0.00000000000E+00 -0.30789714973E+04  0.30789714973E+04  0.00000000000E+00 0.  1.
   -9000010    2    1    2    0  501 -0.99776405115E+03 -0.84877139795E+02 -0.97517900042E+03  0.17201156615E+04  0.10025400617E+04 0.  0.
    9000010    2    1    2  502    0  0.99776405115E+03  0.84877139795E+02 -0.14512810248E+04  0.20113673079E+04  0.96780401092E+03 0.  0.
        -13    1    4    4    0    0  0.80702514077E+03  0.30387227550E+03 -0.45782986372E+03  0.97633812428E+03  0.10566000000E+00 0.  1.
          4    1    4    4  502    0  0.19073891038E+03 -0.21899513571E+03 -0.99345116109E+03  0.10350291836E+04  0.00000000000E+00 0.  1.
         13    1    3    3    0    0 -0.68025922637E+03 -0.45505480813E+03 -0.26821941349E+03  0.86126021527E+03  0.10566000000E+00 0. -1.
         -4    1    3    3    0  501 -0.31750482478E+03  0.37017766834E+03 -0.70695958693E+03  0.85885544619E+03  0.00000000000E+00 0. -1.
<mgrwt>
<rscale>  0 0.14047441E+04</rscale>
<asrwt>0</asrwt>
<pdfrwt beam="2">  1        4 0.47368792E+00 0.13926169E+04</pdfrwt>
<pdfrwt beam="1">  1       -4 0.10038638E+00 0.14169770E+04</pdfrwt>
<totfact> 0.63798902E-02</totfact>
</mgrwt>
</event>
<event>
 8    1  0.3025584E-006  0.1122509E+04  0.7818608E-02  0.8679989E-01
          4   -1    0    0  502    0  0.00000000000E+00  0.00000000000E+00  0.23711128722E+04  0.23711128722E+04  0.00000000000E+00 0.  1.
         -4   -1    0    0    0  501 -0.00000000000E+00 -0.00000000000E+00 -0.23168885496E+04  0.23168885496E+04  0.00000000000E+00 0. -1.
   -9000010    2    1    2    0  501 -0.18016878161E+03 -0.40897352996E+03 -0.20387281796E+04  0.23273246265E+04  0.10297121874E+04 0.  0.
    9000010    2    1    2  502    0  0.18016878161E+03  0.40897352996E+03  0.20929525021E+04  0.23606767954E+04  0.99630548421E+03 0.  0.
        -13    1    4    4    0    0  0.53872486745E+03  0.44179721833E+03  0.10760161093E+04  0.12818814078E+04  0.10566000000E+00 0.  1.
          4    1    4    4  502    0 -0.35855608584E+03 -0.32823688370E+02  0.10169363928E+04  0.10787953876E+04  0.00000000000E+00 0.  1.
         13    1    3    3    0    0  0.41040091924E+03 -0.28580256893E+03 -0.11402306548E+04  0.12450855313E+04  0.10566000000E+00 0. -1.
         -4    1    3    3    0  501 -0.59056970084E+03 -0.12317096104E+03 -0.89849752475E+03  0.10822390952E+04  0.00000000000E+00 0. -1.
<mgrwt>
<rscale>  0 0.11071219E+04</rscale>
<asrwt>0</asrwt>
<pdfrwt beam="1">  1        4 0.36478659E+00 0.10919454E+04</pdfrwt>
<pdfrwt beam="2">  1       -4 0.35644439E+00 0.11225094E+04</pdfrwt>
<totfact> 0.24803836E-02</totfact>
</mgrwt>
</event>
<event>
 8    1  0.3025584E-006  0.1731330E+04  0.7818608E-02  0.8293767E-01
         -4   -1    0    0    0  501 -0.00000000000E+00  0.00000000000E+00  0.15285056179E+04  0.15285056179E+04  0.00000000000E+00 0. -1.
          4   -1    0    0  502    0  0.00000000000E+00 -0.00000000000E+00 -0.28365383555E+04  0.28365383555E+04  0.00000000000E+00 0.  1.
   -9000010    2    1    2    0  501  0.57902951634E+03  0.12611559231E+04  0.57496581715E+03  0.18243052142E+04  0.10352363888E+04 0.  0.
    9000010    2    1    2  502    0 -0.57902951634E+03 -0.12611559231E+04 -0.18829985547E+04  0.25407387592E+04  0.99190747683E+03 0.  0.
        -13    1    4    4    0    0 -0.73234850691E+02  0.13664726429E+02  0.10304784635E+03  0.12715713863E+03  0.10566000000E+00 0.  1.
          4    1    4    4  502    0 -0.50579466565E+03 -0.12748206495E+04 -0.19860464010E+04  0.24135816206E+04  0.00000000000E+00 0.  1.
         13    1    3    3    0    0 -0.20266001850E+03  0.28639319025E+03 -0.14795099002E+03  0.38076455865E+03  0.10566000000E+00 0. -1.
         -4    1    3    3    0  501  0.78168953484E+03  0.97476273281E+03  0.72291680717E+03  0.14435406556E+04  0.00000000000E+00 0. -1.
<mgrwt>
<rscale>  0 0.17185053E+04</rscale>
<asrwt>0</asrwt>
<pdfrwt beam="2">  1        4 0.43639052E+00 0.17057754E+04</pdfrwt>
<pdfrwt beam="1">  1       -4 0.23515471E+00 0.17313301E+04</pdfrwt>
<totfact> 0.25576666E-02</totfact>
</mgrwt>
</event>
<event>
 8    1  0.3025584E-006  0.1295861E+04  0.7818608E-02  0.8540555E-01
          4   -1    0    0  502    0  0.00000000000E+00  0.00000000000E+00  0.13839618834E+04  0.13839618834E+04  0.00000000000E+00 0.  1.
         -4   -1    0    0    0  501 -0.00000000000E+00 -0.00000000000E+00 -0.23472513868E+04  0.23472513868E+04  0.00000000000E+00 0. -1.
   -9000010    2    1    2    0  501 -0.78795127413E+03  0.17078335734E+03 -0.17835628501E+04  0.22046209029E+04  0.10145061458E+04 0.  0.
    9000010    2    1    2  502    0  0.78795127413E+03 -0.17078335734E+03  0.82027334671E+03  0.15265923674E+04  0.10037936676E+04 0.  0.
        -13    1    4    4    0    0 -0.29798029506E+02 -0.38837221373E+03  0.70156925905E+02  0.39578138457E+03  0.10566000000E+00 0.  1.
          4    1    4    4  502    0  0.81774930364E+03  0.21758885638E+03  0.75011642081E+03  0.11308109828E+04  0.00000000000E+00 0.  1.
         13    1    3    3    0    0 -0.37271390375E+03 -0.19806465768E+03 -0.10271775002E+03  0.43439177018E+03  0.10566000000E+00 0. -1.
         -4    1    3    3    0  501 -0.41523737038E+03  0.36884801502E+03 -0.16808451001E+04  0.17702291327E+04  0.00000000000E+00 0. -1.
<mgrwt>
<rscale>  0 0.12916700E+04</rscale>
<asrwt>0</asrwt>
<pdfrwt beam="1">  1        4 0.21291721E+00 0.12874921E+04</pdfrwt>
<pdfrwt beam="2">  1       -4 0.36111560E+00 0.12958614E+04</pdfrwt>
<totfact> 0.60624246E-02</totfact>
</mgrwt>
</event>
<event>
 8    1  0.3025584E-006  0.1398689E+04  0.7818608E-02  0.8471014E-01
          4   -1    0    0  502    0  0.00000000000E+00  0.00000000000E+00  0.10603181654E+04  0.10603181654E+04  0.00000000000E+00 0.  1.
         -4   -1    0    0    0  501 -0.00000000000E+00 -0.00000000000E+00 -0.46534738333E+04  0.46534738333E+04  0.00000000000E+00 0. -1.
   -9000010    2    1    2    0  501  0.75806665463E+03 -0.62472085900E+03 -0.40177564702E+04  0.42542563811E+04  0.99568524039E+03 0.  0.
    9000010    2    1    2  502    0 -0.75806665463E+03  0.62472085900E+03  0.42460080226E+03  0.14595356176E+04  0.99248031371E+03 0.  0.
        -13    1    4    4    0    0 -0.70897899944E+03  0.44700845045E+03  0.72425498252E+03  0.11077062189E+04  0.10566000000E+00 0.  1.
          4    1    4    4  502    0 -0.49087655195E+02  0.17771240854E+03 -0.29965418026E+03  0.35182939870E+03  0.00000000000E+00 0.  1.
         13    1    3    3    0    0  0.89176679472E+03 -0.75130920794E+03 -0.37657459706E+04  0.39421512234E+04  0.10566000000E+00 0. -1.
         -4    1    3    3    0  501 -0.13370014009E+03  0.12658834895E+03 -0.25201049957E+03  0.31210515767E+03  0.00000000000E+00 0. -1.
<mgrwt>
<rscale>  0 0.13975485E+04</rscale>
<asrwt>0</asrwt>
<pdfrwt beam="1">  1        4 0.16312587E+00 0.13964091E+04</pdfrwt>
<pdfrwt beam="2">  1       -4 0.71591906E+00 0.13986888E+04</pdfrwt>
<totfact> 0.17598276E-03</totfact>
</mgrwt>
</event>
<event>
 8    1  0.3025584E-006  0.1500211E+04  0.7818608E-02  0.8413214E-01
          4   -1    0    0  502    0  0.00000000000E+00  0.00000000000E+00  0.18386659789E+04  0.18386659789E+04  0.00000000000E+00 0.  1.
         -4   -1    0    0    0  501 -0.00000000000E+00 -0.00000000000E+00 -0.21227526179E+04  0.21227526179E+04  0.00000000000E+00 0. -1.
   -9000010    2    1    2    0  501  0.10887482165E+04  0.19307144265E+03 -0.14388955967E+04  0.20787141710E+04  0.10138948692E+04 0.  0.
    9000010    2    1    2  502    0 -0.10887482165E+04 -0.19307144265E+03  0.11548089577E+04  0.18827044258E+04  0.99415439699E+03 0.  0.
        -13    1    4    4    0    0  0.17647418078E+02 -0.33032724187E+03  0.94258443814E+02  0.34396538123E+03  0.10566000000E+00 0.  1.
          4    1    4    4  502    0 -0.11063956346E+04  0.13725579922E+03  0.10605505139E+04  0.15387390446E+04  0.00000000000E+00 0.  1.
         13    1    3    3    0    0  0.28765120123E+03  0.53459893916E+03 -0.77048918417E+03  0.98091428443E+03  0.10566000000E+00 0. -1.
         -4    1    3    3    0  501  0.80109701528E+03 -0.34152749651E+03 -0.66840641249E+03  0.10977998866E+04  0.00000000000E+00 0. -1.
<mgrwt>
<rscale>  0 0.14935609E+04</rscale>
<asrwt>0</asrwt>
<pdfrwt beam="1">  1        4 0.28287169E+00 0.14869406E+04</pdfrwt>
<pdfrwt beam="2">  1       -4 0.32657733E+00 0.15002107E+04</pdfrwt>
<totfact> 0.51705097E-02</totfact>
</mgrwt>
</event>
<event>
 8    1  0.3025584E-006  0.1142482E+04  0.7818608E-02  0.8659930E-01
          4   -1    0    0  502    0  0.00000000000E+00  0.00000000000E+00  0.12810664909E+04  0.12810664909E+04  0.00000000000E+00 0.  1.
         -4   -1    0    0    0  501 -0.00000000000E+00 -0.00000000000E+00 -0.17965181796E+04  0.17965181796E+04  0.00000000000E+00 0. -1.
   -9000010    2    1    2    0  501 -0.51255698355E+03  0.72158471439E+02 -0.12839075357E+04  0.17186285509E+04  0.10185008736E+04 0.  0.
    9000010    2    1    2  502    0  0.51255698355E+03 -0.72158471439E+02  0.76845584697E+03  0.13589561196E+04  0.99414075461E+03 0.  0.
        -13    1    4    4    0    0 -0.68034448290E+02  0.36396289699E+03  0.13115719722E+03  0.39281025710E+03  0.10566000000E+00 0.  1.
          4    1    4    4  502    0  0.58059143184E+03 -0.43612136843E+03  0.63729864974E+03  0.96614586253E+03  0.00000000000E+00 0.  1.
         13    1    3    3    0    0  0.23242342386E+03 -0.18784743593E+03 -0.61673429566E+03  0.68532365329E+03  0.10566000000E+00 0. -1.
         -4    1    3    3    0  501 -0.74498040741E+03  0.26000590737E+03 -0.66717324001E+03  0.10333048976E+04  0.00000000000E+00 0. -1.
<mgrwt>
<rscale>  0 0.11315992E+04</rscale>
<asrwt>0</asrwt>
<pdfrwt beam="1">  1        4 0.19708715E+00 0.11208199E+04</pdfrwt>
<pdfrwt beam="2">  1       -4 0.27638741E+00 0.11424822E+04</pdfrwt>
<totfact> 0.11993693E-01</totfact>
</mgrwt>
</event>
<event>
 8    1  0.3025584E-006  0.1410569E+04  0.7818608E-02  0.8468118E-01
         -4   -1    0    0    0  501 -0.00000000000E+00  0.00000000000E+00  0.38931686159E+04  0.38931686159E+04  0.00000000000E+00 0. -1.
          4   -1    0    0  502    0  0.00000000000E+00 -0.00000000000E+00 -0.13151673769E+04  0.13151673769E+04  0.00000000000E+00 0.  1.
   -9000010    2    1    2    0  501  0.93394818466E+03  0.32585812505E+03  0.33299219480E+04  0.36098710832E+04  0.98201136882E+03 0.  0.
    9000010    2    1    2  502    0 -0.93394818466E+03 -0.32585812505E+03 -0.75192070899E+03  0.15984649096E+04  0.10056155257E+04 0.  0.
        -13    1    4    4    0    0 -0.56946294680E+03 -0.17877914250E+02  0.14020300836E+03  0.58674062610E+03  0.10566000000E+00 0.  1.
          4    1    4    4  502    0 -0.36448523786E+03 -0.30798021080E+03 -0.89212371735E+03  0.10117242835E+04  0.00000000000E+00 0.  1.
         13    1    3    3    0    0  0.15717359589E+03  0.47607511994E+03  0.68310592630E+03  0.84733982367E+03  0.10566000000E+00 0. -1.
         -4    1    3    3    0  501  0.77677458877E+03 -0.15021699489E+03  0.26468160217E+04  0.27625312595E+04  0.00000000000E+00 0. -1.
<mgrwt>
<rscale>  0 0.14021795E+04</rscale>
<asrwt>0</asrwt>
<pdfrwt beam="2">  1        4 0.20233344E+00 0.14105691E+04</pdfrwt>
<pdfrwt beam="1">  1       -4 0.59894901E+00 0.13938397E+04</pdfrwt>
<totfact> 0.50599162E-03</totfact>
</mgrwt>
</event>
<event>
 8    1  0.3025584E-006  0.1047891E+04  0.7818608E-02  0.8743534E-01
         -4   -1    0    0    0  501 -0.00000000000E+00  0.00000000000E+00  0.24133002965E+04  0.24133002965E+04  0.00000000000E+00 0. -1.
          4   -1    0    0  502    0  0.00000000000E+00 -0.00000000000E+00 -0.24002397010E+04  0.24002397010E+04  0.00000000000E+00 0.  1.
   -9000010    2    1    2    0  501  0.14703187952E+03  0.16957493243E+03  0.21799284641E+04  0.24187109955E+04  0.10235725378E+04 0.  0.
    9000010    2    1    2  502    0 -0.14703187952E+03 -0.16957493243E+03 -0.21668678686E+04  0.23948290020E+04  0.99474396577E+03 0.  0.
        -13    1    4    4    0    0  0.14881449943E+02 -0.47105670118E+03 -0.19090655945E+04  0.19663792434E+04  0.10566000000E+00 0.  1.
          4    1    4    4  502    0 -0.16191332946E+03  0.30148176875E+03 -0.25780227405E+03  0.42844975861E+03  0.00000000000E+00 0.  1.
         13    1    3    3    0    0  0.15774471955E+03  0.21470898489E+03  0.22867676810E+04  0.23022358226E+04  0.10566000000E+00 0. -1.
         -4    1    3    3    0  501 -0.10712840032E+02 -0.45134052464E+02 -0.10683921693E+03  0.11647517293E+03  0.00000000000E+00 0. -1.
<mgrwt>
<rscale>  0 0.10337244E+04</rscale>
<asrwt>0</asrwt>
<pdfrwt beam="2">  1        4 0.36926765E+00 0.10197498E+04</pdfrwt>
<pdfrwt beam="1">  1       -4 0.37127697E+00 0.10478906E+04</pdfrwt>
<totfact> 0.21373954E-02</totfact>
</mgrwt>
</event>
<event>
 8    1  0.3025584E-006  0.1057910E+04  0.7818608E-02  0.8723550E-01
          4   -1    0    0  502    0  0.00000000000E+00  0.00000000000E+00  0.14617163826E+04  0.14617163826E+04  0.00000000000E+00 0.  1.
         -4   -1    0    0    0  501 -0.00000000000E+00 -0.00000000000E+00 -0.22972221954E+04  0.22972221954E+04  0.00000000000E+00 0. -1.
   -9000010    2    1    2    0  501  0.15730610268E+03  0.28952730438E+03 -0.19538789641E+04  0.22218947999E+04  0.10052871358E+04 0.  0.
    9000010    2    1    2  502    0 -0.15730610268E+03 -0.28952730438E+03  0.11183731512E+04  0.15370437781E+04  0.10015856431E+04 0.  0.
        -13    1    4    4    0    0 -0.52390465825E+03 -0.19178449476E+03  0.29644340310E+03  0.63177217870E+03  0.10566000000E+00 0.  1.
          4    1    4    4  502    0  0.36659855557E+03 -0.97742809621E+02  0.82192974814E+03  0.90527159939E+03  0.00000000000E+00 0.  1.
         13    1    3    3    0    0  0.20378005817E+03 -0.35315052120E+03 -0.87311312601E+03  0.96362240774E+03  0.10566000000E+00 0. -1.
         -4    1    3    3    0  501 -0.46473955492E+02  0.64267782558E+03 -0.10807658381E+04  0.12582723921E+04  0.00000000000E+00 0. -1.
<mgrwt>
<rscale>  0 0.10561501E+04</rscale>
<asrwt>0</asrwt>
<pdfrwt beam="1">  1        4 0.22487945E+00 0.10543932E+04</pdfrwt>
<pdfrwt beam="2">  1       -4 0.35341880E+00 0.10579100E+04</pdfrwt>
<totfact> 0.61641021E-02</totfact>
</mgrwt>
</event>
<event>
 8    1  0.3025584E-006  0.1088895E+04  0.7818608E-02  0.8743692E-01
         -4   -1    0    0    0  501 -0.00000000000E+00  0.00000000000E+00  0.20320796908E+04  0.20320796908E+04  0.00000000000E+00 0. -1.
          4   -1    0    0  502    0  0.00000000000E+00 -0.00000000000E+00 -0.13641533086E+04  0.13641533086E+04  0.00000000000E+00 0.  1.
   -9000010    2    1    2    0  501  0.10197353058E+03 -0.28880889338E+03  0.16701665793E+04  0.19937773340E+04  0.10449318050E+04 0.  0.
    9000010    2    1    2  502    0 -0.10197353058E+03  0.28880889338E+03 -0.10022401971E+04  0.14024556654E+04  0.93198031249E+03 0.  0.
        -13    1    4    4    0    0  0.40559713623E+03  0.20328109605E+03 -0.58217097322E+03  0.73807539870E+03  0.10566000000E+00 0.  1.
          4    1    4    4  502    0 -0.50757066682E+03  0.85527797332E+02 -0.42006922390E+03  0.66438026671E+03  0.00000000000E+00 0.  1.
         13    1    3    3    0    0  0.51769638021E+03  0.51241225252E+02  0.58419908848E+03  0.78225557932E+03  0.10566000000E+00 0. -1.
         -4    1    3    3    0  501 -0.41572284962E+03 -0.34005011863E+03  0.10859674908E+04  0.12115217547E+04  0.00000000000E+00 0. -1.
<mgrwt>
<rscale>  0 0.10335499E+04</rscale>
<asrwt>0</asrwt>
<pdfrwt beam="2">  1        4 0.20986974E+00 0.98101808E+03</pdfrwt>
<pdfrwt beam="1">  1       -4 0.31262764E+00 0.10888947E+04</pdfrwt>
<totfact> 0.89024966E-02</totfact>
</mgrwt>
</event>
<event>
 8    1  0.3025584E-006  0.1477934E+04  0.7818608E-02  0.8423672E-01
         -4   -1    0    0    0  501 -0.00000000000E+00  0.00000000000E+00  0.48810123739E+04  0.48810123739E+04  0.00000000000E+00 0. -1.
          4   -1    0    0  502    0  0.00000000000E+00 -0.00000000000E+00 -0.16332532325E+04  0.16332532325E+04  0.00000000000E+00 0.  1.
   -9000010    2    1    2    0  501 -0.82655686736E+03  0.69455021666E+03  0.44014797891E+04  0.46429853874E+04  0.10093030839E+04 0.  0.
    9000010    2    1    2  502    0  0.82655686736E+03 -0.69455021666E+03 -0.11537206476E+04  0.18712802191E+04  0.10025078888E+04 0.  0.
        -13    1    4    4    0    0  0.34933906804E+03 -0.86086430494E+03 -0.94289985261E+03  0.13237013557E+04  0.10566000000E+00 0.  1.
          4    1    4    4  502    0  0.47721779932E+03  0.16631408828E+03 -0.21082079500E+03  0.54757886331E+03  0.00000000000E+00 0.  1.
         13    1    3    3    0    0 -0.52848787270E+03  0.93680647965E+03  0.28963864930E+04  0.30896537896E+04  0.10566000000E+00 0. -1.
         -4    1    3    3    0  501 -0.29806899466E+03 -0.24225626299E+03  0.15050932961E+04  0.15533315977E+04  0.00000000000E+00 0. -1.
<mgrwt>
<rscale>  0 0.14756161E+04</rscale>
<asrwt>0</asrwt>
<pdfrwt beam="2">  1        4 0.25126973E+00 0.14733018E+04</pdfrwt>
<pdfrwt beam="1">  1       -4 0.75092497E+00 0.14779340E+04</pdfrwt>
<totfact> 0.58780317E-04</totfact>
</mgrwt>
</event>
<event>
 8    1  0.3025584E-006  0.1551734E+04  0.7818608E-02  0.8387375E-01
         -4   -1    0    0    0  501 -0.00000000000E+00  0.00000000000E+00  0.10182891515E+04  0.10182891515E+04  0.00000000000E+00 0. -1.
          4   -1    0    0  502    0  0.00000000000E+00 -0.00000000000E+00 -0.26368374770E+04  0.26368374770E+04  0.00000000000E+00 0.  1.
   -9000010    2    1    2    0  501 -0.11765420290E+04  0.10226094369E+03 -0.17623716136E+03  0.15366038735E+04  0.96715225288E+03 0.  0.
    9000010    2    1    2  502    0  0.11765420290E+04 -0.10226094369E+03 -0.14423111642E+04  0.21185227551E+04  0.10065628262E+04 0.  0.
        -13    1    4    4    0    0  0.10962676993E+04  0.78822832128E+02 -0.15444886406E+04  0.18956426560E+04  0.10566000000E+00 0.  1.
          4    1    4    4  502    0  0.80274329747E+02 -0.18108377582E+03  0.10217747642E+03  0.22288009909E+03  0.00000000000E+00 0.  1.
         13    1    3    3    0    0 -0.92444894817E+03  0.33851682860E+03 -0.46270380886E+03  0.10877933291E+04  0.10566000000E+00 0. -1.
         -4    1    3    3    0  501 -0.25209308084E+03 -0.23625588490E+03  0.28646664750E+03  0.44881054432E+03  0.00000000000E+00 0. -1.
<mgrwt>
<rscale>  0 0.15390469E+04</rscale>
<asrwt>0</asrwt>
<pdfrwt beam="2">  1        4 0.40566730E+00 0.15517336E+04</pdfrwt>
<pdfrwt beam="1">  1       -4 0.15665987E+00 0.15264639E+04</pdfrwt>
<totfact> 0.60999498E-02</totfact>
</mgrwt>
</event>
<event>
 8    1  0.3025584E-006  0.1131713E+04  0.7818608E-02  0.8679079E-01
          4   -1    0    0  502    0  0.00000000000E+00  0.00000000000E+00  0.20041297074E+04  0.20041297074E+04  0.00000000000E+00 0.  1.
         -4   -1    0    0    0  501 -0.00000000000E+00 -0.00000000000E+00 -0.23522205457E+04  0.23522205457E+04  0.00000000000E+00 0. -1.
   -9000010    2    1    2    0  501 -0.27314013829E+02 -0.43896063561E+03 -0.20478188917E+04  0.23397298299E+04  0.10427564284E+04 0.  0.
    9000010    2    1    2  502    0  0.27314013829E+02  0.43896063561E+03  0.16997280533E+04  0.20166204231E+04  0.99209373593E+03 0.  0.
        -13    1    4    4    0    0 -0.40604744220E+03  0.22927504991E+03  0.34836831574E+03  0.58206706521E+03  0.10566000000E+00 0.  1.
          4    1    4    4  502    0  0.43336145603E+03  0.20968558570E+03  0.13513597376E+04  0.14345533579E+04  0.00000000000E+00 0.  1.
         13    1    3    3    0    0 -0.90311701049E+02 -0.35213193552E+03 -0.21565568571E+04  0.21869820741E+04  0.10566000000E+00 0. -1.
         -4    1    3    3    0  501  0.62997687221E+02 -0.86828700091E+02  0.10873796549E+03  0.15274775577E+03  0.00000000000E+00 0. -1.
<mgrwt>
<rscale>  0 0.11082178E+04</rscale>
<asrwt>0</asrwt>
<pdfrwt beam="1">  1        4 0.30832765E+00 0.10852108E+04</pdfrwt>
<pdfrwt beam="2">  1       -4 0.36188008E+00 0.11317126E+04</pdfrwt>
<totfact> 0.35407007E-02</totfact>
</mgrwt>
</event>
<event>
 8    1  0.3025584E-006  0.1144095E+04  0.7818608E-02  0.8654086E-01
         -4   -1    0    0    0  501 -0.00000000000E+00  0.00000000000E+00  0.11169819066E+04  0.11169819066E+04  0.00000000000E+00 0. -1.
          4   -1    0    0  502    0  0.00000000000E+00 -0.00000000000E+00 -0.17644480768E+04  0.17644480768E+04  0.00000000000E+00 0.  1.
   -9000010    2    1    2    0  501  0.52072570209E+03  0.14170846860E+03  0.51965977210E+03  0.12470687025E+04  0.99694409227E+03 0.  0.
    9000010    2    1    2  502    0 -0.52072570209E+03 -0.14170846860E+03 -0.11671259423E+04  0.16343612809E+04  0.10088197483E+04 0.  0.
        -13    1    4    4    0    0  0.30269075701E+03 -0.79305280771E+02 -0.39415686923E+03  0.50326004279E+03  0.10566000000E+00 0.  1.
          4    1    4    4  502    0 -0.82341645910E+03 -0.62403187829E+02 -0.77296907308E+03  0.11311012381E+04  0.00000000000E+00 0.  1.
         13    1    3    3    0    0  0.70631935553E+03 -0.79834877275E+02  0.72314197343E+02  0.71448582486E+03  0.10566000000E+00 0. -1.
         -4    1    3    3    0  501 -0.18559365344E+03  0.22154334588E+03  0.44734557476E+03  0.53258287764E+03  0.00000000000E+00 0. -1.
<mgrwt>
<rscale>  0 0.11388544E+04</rscale>
<asrwt>0</asrwt>
<pdfrwt beam="2">  1        4 0.27145355E+00 0.11440952E+04</pdfrwt>
<pdfrwt beam="1">  1       -4 0.17184337E+00 0.11336375E+04</pdfrwt>
<totfact> 0.14854328E-01</totfact>
</mgrwt>
</event>
<event>
 8    1  0.3025584E-006  0.1389816E+04  0.7818608E-02  0.8480286E-01
          4   -1    0    0  502    0  0.00000000000E+00  0.00000000000E+00  0.16506499116E+04  0.16506499116E+04  0.00000000000E+00 0.  1.
         -4   -1    0    0    0  501 -0.00000000000E+00 -0.00000000000E+00 -0.11653806104E+04  0.11653806104E+04  0.00000000000E+00 0. -1.
   -9000010    2    1    2    0  501  0.38372853290E+03 -0.88026146680E+03  0.13337424667E+03  0.13823569946E+04  0.98540059567E+03 0.  0.
    9000010    2    1    2  502    0 -0.38372853290E+03  0.88026146680E+03  0.35189505452E+03  0.14336735275E+04  0.10047297234E+04 0.  0.
        -13    1    4    4    0    0 -0.15779474602E+03  0.13286521654E+03 -0.33520996995E+03  0.39359634494E+03  0.10566000000E+00 0.  1.
          4    1    4    4  502    0 -0.22593378688E+03  0.74739625025E+03  0.68710502447E+03  0.10400771825E+04  0.00000000000E+00 0.  1.
         13    1    3    3    0    0  0.66939246356E+03 -0.33202543810E+03 -0.11952718204E+02  0.74730853096E+03  0.10566000000E+00 0. -1.
         -4    1    3    3    0  501 -0.28566393066E+03 -0.54823602870E+03  0.14532696488E+03  0.63504846364E+03  0.00000000000E+00 0. -1.
<mgrwt>
<rscale>  0 0.13828446E+04</rscale>
<asrwt>0</asrwt>
<pdfrwt beam="1">  1        4 0.25394614E+00 0.13898164E+04</pdfrwt>
<pdfrwt beam="2">  1       -4 0.17928932E+00 0.13759078E+04</pdfrwt>
<totfact> 0.15197211E-01</totfact>
</mgrwt>
</event>
<event>
 8    1  0.3025584E-006  0.1225297E+04  0.7818608E-02  0.8594856E-01
         -4   -1    0    0    0  501 -0.00000000000E+00  0.00000000000E+00  0.26564532004E+04  0.26564532004E+04  0.00000000000E+00 0. -1.
          4   -1    0    0  502    0  0.00000000000E+00 -0.00000000000E+00 -0.13620690963E+04  0.13620690963E+04  0.00000000000E+00 0.  1.
   -9000010    2    1    2    0  501 -0.66463755608E+03  0.78083386560E+02  0.21946051875E+04  0.25134926412E+04  0.10264079268E+04 0.  0.
    9000010    2    1    2  502    0  0.66463755608E+03 -0.78083386560E+02 -0.90022108343E+03  0.15050296554E+04  0.10034321943E+04 0.  0.
        -13    1    4    4    0    0  0.31575219681E+03 -0.51951074452E+03 -0.64767245439E+03  0.88829639356E+03  0.10566000000E+00 0.  1.
          4    1    4    4  502    0  0.34888535927E+03  0.44142735796E+03 -0.25254862904E+03  0.61673326187E+03  0.00000000000E+00 0.  1.
         13    1    3    3    0    0 -0.90189791230E+03  0.22030989351E+01  0.12817536317E+04  0.15672642028E+04  0.10566000000E+00 0. -1.
         -4    1    3    3    0  501  0.23726035622E+03  0.75880287625E+02  0.91285155583E+03  0.94622843841E+03  0.00000000000E+00 0. -1.
<mgrwt>
<rscale>  0 0.12156689E+04</rscale>
<asrwt>0</asrwt>
<pdfrwt beam="2">  1        4 0.20954909E+00 0.12061162E+04</pdfrwt>
<pdfrwt beam="1">  1       -4 0.40868511E+00 0.12252972E+04</pdfrwt>
<totfact> 0.40934010E-02</totfact>
</mgrwt>
</event>
<event>
 8    1  0.3025584E-006  0.1062948E+04  0.7818608E-02  0.8721923E-01
         -4   -1    0    0    0  501 -0.00000000000E+00  0.00000000000E+00  0.27928841357E+04  0.27928841357E+04  0.00000000000E+00 0. -1.
          4   -1    0    0  502    0  0.00000000000E+00 -0.00000000000E+00 -0.64474102840E+03  0.64474102840E+03  0.00000000000E+00 0.  1.
   -9000010    2    1    2    0  501  0.31263748889E+03  0.14304366731E+03  0.21344276777E+04  0.23844579566E+04  0.10058103923E+04 0.  0.
    9000010    2    1    2  502    0 -0.31263748889E+03 -0.14304366731E+03  0.13715429559E+02  0.10531672074E+04  0.99537398178E+03 0.  0.
        -13    1    4    4    0    0 -0.31465853816E+03  0.73864618202E+01  0.47396530827E+03  0.56895314400E+03  0.10566000000E+00 0.  1.
          4    1    4    4  502    0  0.20210492771E+01 -0.15043012913E+03 -0.46024987871E+03  0.48421406345E+03  0.00000000000E+00 0.  1.
         13    1    3    3    0    0  0.10066879396E+03  0.56418354200E+03  0.13872031140E+04  0.15009229713E+04  0.10566000000E+00 0. -1.
         -4    1    3    3    0  501  0.21196869493E+03 -0.42113987469E+03  0.74722456371E+03  0.88353498532E+03  0.00000000000E+00 0. -1.
<mgrwt>
<rscale>  0 0.10580014E+04</rscale>
<asrwt>0</asrwt>
<pdfrwt beam="2">  1        4 0.99190929E-01 0.10530779E+04</pdfrwt>
<pdfrwt beam="1">  1       -4 0.42967447E+00 0.10629479E+04</pdfrwt>
<totfact> 0.10753772E-01</totfact>
</mgrwt>
</event>
<event>
 8    1  0.3025584E-006  0.1391397E+04  0.7818608E-02  0.8490807E-01
         -4   -1    0    0    0  501 -0.00000000000E+00  0.00000000000E+00  0.19773697310E+04  0.19773697310E+04  0.00000000000E+00 0. -1.
          4   -1    0    0  502    0  0.00000000000E+00 -0.00000000000E+00 -0.14652194736E+04  0.14652194736E+04  0.00000000000E+00 0.  1.
   -9000010    2    1    2    0  501  0.80987558515E+03  0.42645479665E+03  0.12851008522E+04  0.18940620849E+04  0.10479622245E+04 0.  0.
    9000010    2    1    2  502    0 -0.80987558515E+03 -0.42645479665E+03 -0.77295059476E+03  0.15485271197E+04  0.98118370428E+03 0.  0.
        -13    1    4    4    0    0 -0.10103506460E+04 -0.49931044384E+03 -0.67634275101E+03  0.13143663398E+04  0.10566000000E+00 0.  1.
          4    1    4    4  502    0  0.20047506088E+03  0.72855647190E+02 -0.96607843749E+02  0.23416077989E+03  0.00000000000E+00 0.  1.
         13    1    3    3    0    0  0.28964561975E+03  0.70011338927E+03  0.47891616750E+03  0.89633367087E+03  0.10566000000E+00 0. -1.
         -4    1    3    3    0  501  0.52022996540E+03 -0.27365859262E+03  0.80618468471E+03  0.99772841399E+03  0.00000000000E+00 0. -1.
<mgrwt>
<rscale>  0 0.13663844E+04</rscale>
<asrwt>0</asrwt>
<pdfrwt beam="2">  1        4 0.22541838E+00 0.13418210E+04</pdfrwt>
<pdfrwt beam="1">  1       -4 0.30421073E+00 0.13913975E+04</pdfrwt>
<totfact> 0.83542707E-02</totfact>
</mgrwt>
</event>
<event>
 8    1  0.3025584E-006  0.1137809E+04  0.7818608E-02  0.8670636E-01
          4   -1    0    0  502    0  0.00000000000E+00  0.00000000000E+00  0.32068846467E+04  0.32068846467E+04  0.00000000000E+00 0.  1.
         -4   -1    0    0    0  501 -0.00000000000E+00 -0.00000000000E+00 -0.75856623793E+03  0.75856623793E+03  0.00000000000E+00 0. -1.
   -9000010    2    1    2    0  501  0.46483229218E+03  0.22224659151E+03 -0.16822383861E+03  0.11122243488E+04  0.97122661354E+03 0.  0.
    9000010    2    1    2  502    0 -0.46483229218E+03 -0.22224659151E+03  0.26165422474E+04  0.28532265358E+04  0.10144681982E+04 0.  0.
        -13    1    4    4    0    0 -0.39879079971E+02  0.67869428307E+02  0.21714855682E+04  0.21729119136E+04  0.10566000000E+00 0.  1.
          4    1    4    4  502    0 -0.42495321221E+03 -0.29011601982E+03  0.44505667922E+03  0.68031462224E+03  0.00000000000E+00 0.  1.
         13    1    3    3    0    0  0.18241318436E+02  0.51916396210E+03  0.72260866470E+02  0.52448604293E+03  0.10566000000E+00 0. -1.
         -4    1    3    3    0  501  0.44659097375E+03 -0.29691737059E+03 -0.24048470508E+03  0.58773830585E+03  0.00000000000E+00 0. -1.
<mgrwt>
<rscale>  0 0.11184541E+04</rscale>
<asrwt>0</asrwt>
<pdfrwt beam="1">  1        4 0.49336686E+00 0.11378086E+04</pdfrwt>
<pdfrwt beam="2">  1       -4 0.11670250E+00 0.10994288E+04</pdfrwt>
<totfact> 0.40140693E-02</totfact>
</mgrwt>
</event>
<event>
 8    1  0.3025584E-006  0.1198370E+04  0.7818608E-02  0.8622085E-01
         -4   -1    0    0    0  501 -0.00000000000E+00  0.00000000000E+00  0.14645030120E+04  0.14645030120E+04  0.00000000000E+00 0. -1.
          4   -1    0    0  502    0  0.00000000000E+00 -0.00000000000E+00 -0.29229444617E+04  0.29229444617E+04  0.00000000000E+00 0.  1.
   -9000010    2    1    2    0  501  0.52689971863E+03  0.29896834797E+03  0.10765945053E+04  0.15834326795E+04  0.99055435744E+03 0.  0.
    9000010    2    1    2  502    0 -0.52689971863E+03 -0.29896834797E+03 -0.25350359550E+04  0.28040147942E+04  0.10339662890E+04 0.  0.
        -13    1    4    4    0    0 -0.80279255127E+03 -0.40937240786E+03 -0.19187014774E+04  0.21197823047E+04  0.10566000000E+00 0.  1.
          4    1    4    4  502    0  0.27589283264E+03  0.11040405989E+03 -0.61633447752E+03  0.68423248952E+03  0.00000000000E+00 0.  1.
         13    1    3    3    0    0 -0.72149597003E+02  0.34868582646E+03  0.88272207811E+03  0.95183278378E+03  0.10566000000E+00 0. -1.
         -4    1    3    3    0  501  0.59904931563E+03 -0.49717478487E+02  0.19387242716E+03  0.63159989569E+03  0.00000000000E+00 0. -1.
<mgrwt>
<rscale>  0 0.11795990E+04</rscale>
<asrwt>0</asrwt>
<pdfrwt beam="2">  1        4 0.44968376E+00 0.11983704E+04</pdfrwt>
<pdfrwt beam="1">  1       -4 0.22530816E+00 0.11611216E+04</pdfrwt>
<totfact> 0.24805830E-02</totfact>
</mgrwt>
</event>
<event>
 8    1  0.3025584E-006  0.1143986E+04  0.7818608E-02  0.8657825E-01
         -4   -1    0    0    0  501 -0.00000000000E+00  0.00000000000E+00  0.63250603164E+03  0.63250603164E+03  0.00000000000E+00 0. -1.
          4   -1    0    0  502    0  0.00000000000E+00 -0.00000000000E+00 -0.22559593982E+04  0.22559593982E+04  0.00000000000E+00 0.  1.
   -9000010    2    1    2    0  501 -0.50831480972E+03  0.24403482617E+03 -0.35245134839E+03  0.11784505969E+04  0.97292698301E+03 0.  0.
    9000010    2    1    2  502    0  0.50831480972E+03 -0.24403482617E+03 -0.12710020182E+04  0.17100148329E+04  0.99537312422E+03 0.  0.
        -13    1    4    4    0    0 -0.13804999495E+03 -0.70060885303E+01  0.10353608283E+03  0.17270384476E+03  0.10566000000E+00 0.  1.
          4    1    4    4  502    0  0.64636480467E+03 -0.23702873764E+03 -0.13745381010E+04  0.15373109882E+04  0.00000000000E+00 0.  1.
         13    1    3    3    0    0 -0.38526313144E+03 -0.14078196697E+03 -0.58334171287E+03  0.71311626528E+03  0.10566000000E+00 0. -1.
         -4    1    3    3    0  501 -0.12305167828E+03  0.38481679315E+03  0.23089036447E+03  0.46533433166E+03  0.00000000000E+00 0. -1.
<mgrwt>
<rscale>  0 0.11342066E+04</rscale>
<asrwt>0</asrwt>
<pdfrwt beam="2">  1        4 0.34707067E+00 0.11439863E+04</pdfrwt>
<pdfrwt beam="1">  1       -4 0.97308622E-01 0.11245105E+04</pdfrwt>
<totfact> 0.23080532E-01</totfact>
</mgrwt>
</event>
<event>
 8    1  0.3025584E-006  0.1278701E+04  0.7818608E-02  0.8551009E-01
         -4   -1    0    0    0  501 -0.00000000000E+00  0.00000000000E+00  0.27549447629E+04  0.27549447629E+04  0.00000000000E+00 0. -1.
          4   -1    0    0  502    0  0.00000000000E+00 -0.00000000000E+00 -0.96600974845E+03  0.96600974845E+03  0.00000000000E+00 0.  1.
   -9000010    2    1    2    0  501  0.66420370523E+03  0.43562642223E+03  0.20536919587E+04  0.24192412260E+04  0.10020681147E+04 0.  0.
    9000010    2    1    2  502    0 -0.66420370523E+03 -0.43562642223E+03 -0.26475694426E+03  0.13017132854E+04  0.99670672515E+03 0.  0.
        -13    1    4    4    0    0  0.17337347772E+03 -0.22004255914E+03 -0.33179676032E+03  0.43424208909E+03  0.10566000000E+00 0.  1.
          4    1    4    4  502    0 -0.83757718295E+03 -0.21558386309E+03  0.67039816064E+02  0.86747119627E+03  0.00000000000E+00 0.  1.
         13    1    3    3    0    0 -0.57877391470E+02 -0.97483944455E+02  0.11140543913E+04  0.11198080683E+04  0.10566000000E+00 0. -1.
         -4    1    3    3    0  501  0.72208109670E+03  0.53311036668E+03  0.93963756741E+03  0.12994331577E+04  0.00000000000E+00 0. -1.
<mgrwt>
<rscale>  0 0.12766012E+04</rscale>
<asrwt>0</asrwt>
<pdfrwt beam="2">  1        4 0.14861689E+00 0.12745043E+04</pdfrwt>
<pdfrwt beam="1">  1       -4 0.42383765E+00 0.12787015E+04</pdfrwt>
<totfact> 0.56559839E-02</totfact>
</mgrwt>
</event>
<event>
 8    1  0.3025584E-006  0.1087660E+04  0.7818608E-02  0.8697062E-01
          4   -1    0    0  502    0  0.00000000000E+00  0.00000000000E+00  0.11219232714E+04  0.11219232714E+04  0.00000000000E+00 0.  1.
         -4   -1    0    0    0  501 -0.00000000000E+00 -0.00000000000E+00 -0.11724166789E+04  0.11724166789E+04  0.00000000000E+00 0. -1.
   -9000010    2    1    2    0  501  0.49250207660E+02  0.35933882045E+03 -0.39174011336E+03  0.11560559575E+04  0.10254048419E+04 0.  0.
    9000010    2    1    2  502    0 -0.49250207660E+02 -0.35933882045E+03  0.34124670586E+03  0.11382839927E+04  0.10235678594E+04 0.  0.
        -13    1    4    4    0    0  0.45009478420E+03 -0.27365755176E+03  0.34847099698E+03  0.63158991228E+03  0.10566000000E+00 0.  1.
          4    1    4    4  502    0 -0.49934499186E+03 -0.85681268689E+02 -0.72242911177E+01  0.50669408037E+03  0.00000000000E+00 0.  1.
         13    1    3    3    0    0  0.43147655205E+03  0.25312991894E+03  0.11421432075E+03  0.51311956995E+03  0.10566000000E+00 0. -1.
         -4    1    3    3    0  501 -0.38222634439E+03  0.10620890150E+03 -0.50595443411E+03  0.64293638760E+03  0.00000000000E+00 0. -1.
<mgrwt>
<rscale>  0 0.10867942E+04</rscale>
<asrwt>0</asrwt>
<pdfrwt beam="1">  1        4 0.17260358E+00 0.10859287E+04</pdfrwt>
<pdfrwt beam="2">  1       -4 0.18037180E+00 0.10876604E+04</pdfrwt>
<totfact> 0.25459530E-01</totfact>
</mgrwt>
</event>
<event>
 8    1  0.3025584E-006  0.1407034E+04  0.7818608E-02  0.8473017E-01
          4   -1    0    0  502    0  0.00000000000E+00  0.00000000000E+00  0.15290070716E+04  0.15290070716E+04  0.00000000000E+00 0.  1.
         -4   -1    0    0    0  501 -0.00000000000E+00 -0.00000000000E+00 -0.16729828223E+04  0.16729828223E+04  0.00000000000E+00 0. -1.
   -9000010    2    1    2    0  501 -0.85058538029E+03  0.46975280191E+03 -0.85658677883E+03  0.16472659703E+04  0.10176350442E+04 0.  0.
    9000010    2    1    2  502    0  0.85058538029E+03 -0.46975280191E+03  0.71261102809E+03  0.15547239236E+04  0.98244023596E+03 0.  0.
        -13    1    4    4    0    0  0.87541051920E+03 -0.13336572647E+03  0.14909926969E+03  0.89797583348E+03  0.10566000000E+00 0.  1.
          4    1    4    4  502    0 -0.24825138909E+02 -0.33638707544E+03  0.56351175840E+03  0.65674809014E+03  0.00000000000E+00 0.  1.
         13    1    3    3    0    0 -0.17301773880E+03  0.61225980930E+03 -0.14126611018E+03  0.65173103123E+03  0.10566000000E+00 0. -1.
         -4    1    3    3    0  501 -0.67756764149E+03 -0.14250700739E+03 -0.71532066865E+03  0.99553493909E+03  0.00000000000E+00 0. -1.
<mgrwt>
<rscale>  0 0.13943563E+04</rscale>
<asrwt>0</asrwt>
<pdfrwt beam="1">  1        4 0.23523186E+00 0.13817930E+04</pdfrwt>
<pdfrwt beam="2">  1       -4 0.25738197E+00 0.14070339E+04</pdfrwt>
<totfact> 0.10388904E-01</totfact>
</mgrwt>
</event>
<event>
 8    1  0.3025584E-006  0.1389484E+04  0.7818608E-02  0.8487425E-01
         -4   -1    0    0    0  501 -0.00000000000E+00  0.00000000000E+00  0.14537591345E+04  0.14537591345E+04  0.00000000000E+00 0. -1.
          4   -1    0    0  502    0  0.00000000000E+00 -0.00000000000E+00 -0.13263341262E+04  0.13263341262E+04  0.00000000000E+00 0.  1.
   -9000010    2    1    2    0  501 -0.94645728926E+03  0.19992186957E+03  0.28020952614E+03  0.14174564474E+04  0.99745438356E+03 0.  0.
    9000010    2    1    2  502    0  0.94645728926E+03 -0.19992186957E+03 -0.15278451781E+03  0.13626368134E+04  0.94746283404E+03 0.  0.
        -13    1    4    4    0    0  0.29602547846E+03 -0.46616305711E+03  0.18564774977E+03  0.58258405219E+03  0.10566000000E+00 0.  1.
          4    1    4    4  502    0  0.65043181081E+03  0.26624118753E+03 -0.33843226758E+03  0.78005276116E+03  0.00000000000E+00 0.  1.
         13    1    3    3    0    0 -0.43731787721E+03  0.17339335254E+03  0.63938975662E+03  0.79380819627E+03  0.10566000000E+00 0. -1.
         -4    1    3    3    0  501 -0.50913941205E+03  0.26528517034E+02 -0.35918023048E+03  0.62364825108E+03  0.00000000000E+00 0. -1.
<mgrwt>
<rscale>  0 0.13716496E+04</rscale>
<asrwt>0</asrwt>
<pdfrwt beam="2">  1        4 0.20405140E+00 0.13540443E+04</pdfrwt>
<pdfrwt beam="1">  1       -4 0.22365525E+00 0.13894839E+04</pdfrwt>
<totfact> 0.15177602E-01</totfact>
</mgrwt>
</event>
<event>
 8    1  0.3025584E-006  0.1066185E+04  0.7818608E-02  0.8719431E-01
         -4   -1    0    0    0  501 -0.00000000000E+00  0.00000000000E+00  0.97962359583E+03  0.97962359583E+03  0.00000000000E+00 0. -1.
          4   -1    0    0  502    0  0.00000000000E+00 -0.00000000000E+00 -0.12328177457E+04  0.12328177457E+04  0.00000000000E+00 0.  1.
   -9000010    2    1    2    0  501 -0.19752789297E+03 -0.26441107390E+03  0.16272459347E+03  0.10680035093E+04  0.10026074596E+04 0.  0.
    9000010    2    1    2  502    0  0.19752789297E+03  0.26441107390E+03 -0.41591874332E+03  0.11444378322E+04  0.10138141181E+04 0.  0.
        -13    1    4    4    0    0 -0.31866739809E+02  0.54598868398E+03  0.55064893768E+02  0.54968289570E+03  0.10566000000E+00 0.  1.
          4    1    4    4  502    0  0.22939463278E+03 -0.28157761008E+03 -0.47098363709E+03  0.59475493646E+03  0.00000000000E+00 0.  1.
         13    1    3    3    0    0 -0.28923531568E+03 -0.46212249946E+03  0.45035290555E+03  0.70712942453E+03  0.10566000000E+00 0. -1.
         -4    1    3    3    0  501  0.91707422709E+02  0.19771142556E+03 -0.28762831208E+03  0.36087408481E+03  0.00000000000E+00 0. -1.
<mgrwt>
<rscale>  0 0.10608460E+04</rscale>
<asrwt>0</asrwt>
<pdfrwt beam="2">  1        4 0.18966427E+00 0.10661846E+04</pdfrwt>
<pdfrwt beam="1">  1       -4 0.15071132E+00 0.10555341E+04</pdfrwt>
<totfact> 0.28815834E-01</totfact>
</mgrwt>
</event>
<event>
 8    1  0.3025584E-006  0.1073228E+04  0.7818608E-02  0.8744042E-01
         -4   -1    0    0    0  501 -0.00000000000E+00  0.00000000000E+00  0.38054021786E+04  0.38054021786E+04  0.00000000000E+00 0. -1.
          4   -1    0    0  502    0  0.00000000000E+00 -0.00000000000E+00 -0.37037490128E+03  0.37037490128E+03  0.00000000000E+00 0.  1.
   -9000010    2    1    2    0  501 -0.23729406601E+03 -0.11017125817E+03  0.26935754636E+04  0.28713347031E+04  0.95956657870E+03 0.  0.
    9000010    2    1    2  502    0  0.23729406601E+03  0.11017125817E+03  0.74145181374E+03  0.13044423768E+04  0.10408520272E+04 0.  0.
        -13    1    4    4    0    0 -0.33550389416E+03 -0.21826238992E+03  0.18490998548E+03  0.44090026961E+03  0.10566000000E+00 0.  1.
          4    1    4    4  502    0  0.57279796017E+03  0.32843364809E+03  0.55654182826E+03  0.86354210724E+03  0.00000000000E+00 0.  1.
         13    1    3    3    0    0 -0.29007069301E+03 -0.50489121067E+03  0.13559751351E+04  0.14757115977E+04  0.10566000000E+00 0. -1.
         -4    1    3    3    0  501  0.52776627002E+02  0.39471995250E+03  0.13376003286E+04  0.13956231054E+04  0.00000000000E+00 0. -1.
<mgrwt>
<rscale>  0 0.10331626E+04</rscale>
<asrwt>0</asrwt>
<pdfrwt beam="2">  1        4 0.56980757E-01 0.10732284E+04</pdfrwt>
<pdfrwt beam="1">  1       -4 0.58544646E+00 0.99459248E+03</pdfrwt>
<totfact> 0.59439996E-02</totfact>
</mgrwt>
</event>
<event>
 8    1  0.3025584E-006  0.1208753E+04  0.7818608E-02  0.8604899E-01
          4   -1    0    0  502    0  0.00000000000E+00  0.00000000000E+00  0.20641074876E+04  0.20641074876E+04  0.00000000000E+00 0.  1.
         -4   -1    0    0    0  501 -0.00000000000E+00 -0.00000000000E+00 -0.94011178167E+03  0.94011178167E+03  0.00000000000E+00 0. -1.
   -9000010    2    1    2    0  501  0.63521579800E+03  0.18163890565E+03 -0.19448892143E+03  0.12242993983E+04  0.10122209611E+04 0.  0.
    9000010    2    1    2  502    0 -0.63521579800E+03 -0.18163890565E+03  0.13184846274E+04  0.17799198710E+04  0.99660485276E+03 0.  0.
        -13    1    4    4    0    0 -0.10329920641E+03  0.39621391966E+03  0.42026554200E+03  0.58675321314E+03  0.10566000000E+00 0.  1.
          4    1    4    4  502    0 -0.53191659159E+03 -0.57785282531E+03  0.89821908540E+03  0.11931666579E+04  0.00000000000E+00 0.  1.
         13    1    3    3    0    0  0.61081193533E+03 -0.14848615446E+03 -0.47701251938E+03  0.78910095249E+03  0.10566000000E+00 0. -1.
         -4    1    3    3    0  501  0.24403862672E+02  0.33012506011E+03  0.28252359795E+03  0.43519844580E+03  0.00000000000E+00 0. -1.
<mgrwt>
<rscale>  0 0.12022117E+04</rscale>
<asrwt>0</asrwt>
<pdfrwt beam="1">  1        4 0.31755500E+00 0.11957061E+04</pdfrwt>
<pdfrwt beam="2">  1       -4 0.14463258E+00 0.12087527E+04</pdfrwt>
<totfact> 0.14280527E-01</totfact>
</mgrwt>
</event>
<event>
 8    1  0.3025584E-006  0.1282478E+04  0.7818608E-02  0.8551519E-01
         -4   -1    0    0    0  501 -0.00000000000E+00  0.00000000000E+00  0.11630693160E+04  0.11630693160E+04  0.00000000000E+00 0.  1.
          4   -1    0    0  502    0  0.00000000000E+00 -0.00000000000E+00 -0.14531353868E+04  0.14531353868E+04  0.00000000000E+00 0. -1.
   -9000010    2    1    2    0  501 -0.13568744468E+03  0.78760518800E+03  0.10519909250E+03  0.12867854050E+04  0.10030038957E+04 0.  0.
    9000010    2    1    2  502    0  0.13568744468E+03 -0.78760518800E+03 -0.39526516323E+03  0.13294192978E+04  0.98609741166E+03 0.  0.
        -13    1    4    4    0    0 -0.38019850470E+03 -0.56885353516E+03 -0.34651603775E+03  0.76695412054E+03  0.10566000000E+00 0.  1.
          4    1    4    4  502    0  0.51588594938E+03 -0.21875165285E+03 -0.48749125473E+02  0.56246517725E+03  0.00000000000E+00 0.  1.
         13    1    3    3    0    0  0.24401622852E+03  0.27848659461E+03  0.43491380600E+03  0.57118187381E+03  0.10566000000E+00 0. -1.
         -4    1    3    3    0  501 -0.37970367320E+03  0.50911859340E+03 -0.32971471350E+03  0.71560353121E+03  0.00000000000E+00 0. -1.
<mgrwt>
<rscale>  0 0.12758717E+04</rscale>
<asrwt>0</asrwt>
<pdfrwt beam="2">  1        4 0.22355929E+00 0.12692995E+04</pdfrwt>
<pdfrwt beam="1">  1       -4 0.17893374E+00 0.12824780E+04</pdfrwt>
<totfact> 0.18180573E-01</totfact>
</mgrwt>
</event>
<event>
 8    1  0.3025584E-006  0.1279984E+04  0.7818608E-02  0.8554004E-01
         -4   -1    0    0    0  501 -0.00000000000E+00  0.00000000000E+00  0.21752677382E+04  0.21752677382E+04  0.00000000000E+00 0. -1.
          4   -1    0    0  502    0  0.00000000000E+00 -0.00000000000E+00 -0.14931048698E+04  0.14931048698E+04  0.00000000000E+00 0.  1.
   -9000010    2    1    2    0  501 -0.72356230824E+03  0.36155347478E+03  0.16410855070E+04  0.20812303756E+04  0.99201557737E+03 0.  0.
    9000010    2    1    2  502    0  0.72356230824E+03 -0.36155347478E+03 -0.95892263866E+03  0.15871422324E+04  0.97222657330E+03 0.  0.
        -13    1    4    4    0    0  0.84918674683E+03 -0.13322308681E+03 -0.35613118638E+03  0.93042783434E+03  0.10566000000E+00 0.  1.
          4    1    4    4  502    0 -0.12562443858E+03 -0.22833038796E+03 -0.60279145228E+03  0.65671439803E+03  0.00000000000E+00 0.  1.
         13    1    3    3    0    0 -0.33819904547E+03  0.47433894996E+03  0.25102943128E+03  0.63434361377E+03  0.10566000000E+00 0. -1.
         -4    1    3    3    0  501 -0.38536326278E+03 -0.11278547518E+03  0.13900560758E+04  0.14468867618E+04  0.00000000000E+00 0. -1.
<mgrwt>
<rscale>  0 0.12723232E+04</rscale>
<asrwt>0</asrwt>
<pdfrwt beam="2">  1        4 0.22970844E+00 0.12647086E+04</pdfrwt>
<pdfrwt beam="1">  1       -4 0.33465657E+00 0.12799837E+04</pdfrwt>
<totfact> 0.67253152E-02</totfact>
</mgrwt>
</event>
<event>
 8    1  0.3025584E-006  0.1065710E+04  0.7818608E-02  0.8727362E-01
          4   -1    0    0  502    0  0.00000000000E+00  0.00000000000E+00  0.17278702649E+04  0.17278702649E+04  0.00000000000E+00 0.  1.
         -4   -1    0    0    0  501 -0.00000000000E+00 -0.00000000000E+00 -0.17311344336E+04  0.17311344336E+04  0.00000000000E+00 0. -1.
   -9000010    2    1    2    0  501  0.36409755177E+03 -0.21775379341E+02 -0.13744048521E+04  0.17224089142E+04  0.97193753712E+03 0.  0.
    9000010    2    1    2  502    0 -0.36409755177E+03  0.21775379341E+02  0.13711406833E+04  0.17365957842E+04  0.10013475670E+04 0.  0.
        -13    1    4    4    0    0 -0.92350563741E+02 -0.35573093227E+03  0.96856166942E+02  0.38007137624E+03  0.10566000000E+00 0.  1.
          4    1    4    4  502    0 -0.27174698803E+03  0.37750631161E+03  0.12742845164E+04  0.13565244080E+04  0.00000000000E+00 0.  1.
         13    1    3    3    0    0  0.92962185001E+02  0.42423600173E+03 -0.29974535528E+03  0.52769824917E+03  0.10566000000E+00 0. -1.
         -4    1    3    3    0  501  0.27113536677E+03 -0.44601138107E+03 -0.10746594968E+04  0.11947106651E+04  0.00000000000E+00 0. -1.
<mgrwt>
<rscale>  0 0.10518272E+04</rscale>
<asrwt>0</asrwt>
<pdfrwt beam="1">  1        4 0.26582619E+00 0.10657102E+04</pdfrwt>
<pdfrwt beam="2">  1       -4 0.26632837E+00 0.10381251E+04</pdfrwt>
<totfact> 0.86101342E-02</totfact>
</mgrwt>
</event>
<event>
 8    1  0.3025584E-006  0.1071873E+04  0.7818608E-02  0.8711259E-01
          4   -1    0    0  502    0  0.00000000000E+00  0.00000000000E+00  0.15249883607E+04  0.15249883607E+04  0.00000000000E+00 0.  1.
         -4   -1    0    0    0  501 -0.00000000000E+00 -0.00000000000E+00 -0.97159572232E+03  0.97159572232E+03  0.00000000000E+00 0. -1.
   -9000010    2    1    2    0  501 -0.16792260103E+02 -0.36084875820E+03 -0.31830436197E+03  0.11150023471E+04  0.10056931743E+04 0.  0.
    9000010    2    1    2  502    0  0.16792260103E+02  0.36084875820E+03  0.87169700039E+03  0.13815817360E+04  0.10091672936E+04 0.  0.
        -13    1    4    4    0    0  0.13785813017E+03  0.68367603736E+03  0.42289567175E+03  0.81563383234E+03  0.10566000000E+00 0.  1.
          4    1    4    4  502    0 -0.12106587007E+03 -0.32282727916E+03  0.44880132864E+03  0.56594790366E+03  0.00000000000E+00 0.  1.
         13    1    3    3    0    0 -0.16264946569E+03 -0.39223172361E+03  0.27323816423E+03  0.50493532185E+03  0.10566000000E+00 0. -1.
         -4    1    3    3    0  501  0.14585720559E+03  0.31382965409E+02 -0.59154252620E+03  0.61006702521E+03  0.00000000000E+00 0. -1.
<mgrwt>
<rscale>  0 0.10702370E+04</rscale>
<asrwt>0</asrwt>
<pdfrwt beam="1">  1        4 0.23461359E+00 0.10718733E+04</pdfrwt>
<pdfrwt beam="2">  1       -4 0.14947627E+00 0.10686031E+04</pdfrwt>
<totfact> 0.22147024E-01</totfact>
</mgrwt>
</event>
<event>
 8    1  0.3025584E-006  0.1332634E+04  0.7818608E-02  0.8516416E-01
         -4   -1    0    0    0  501 -0.00000000000E+00  0.00000000000E+00  0.24309212639E+04  0.24309212639E+04  0.00000000000E+00 0. -1.
          4   -1    0    0  502    0  0.00000000000E+00 -0.00000000000E+00 -0.16845360086E+04  0.16845360086E+04  0.00000000000E+00 0.  1.
   -9000010    2    1    2    0  501  0.52163502069E+03  0.73890388740E+03  0.19257964184E+04  0.23358716281E+04  0.96411740383E+03 0.  0.
    9000010    2    1    2  502    0 -0.52163502069E+03 -0.73890388740E+03 -0.11794111630E+04  0.17795856444E+04  0.97868908477E+03 0.  0.
        -13    1    4    4    0    0 -0.74247781847E+03 -0.51619263310E+03 -0.50482829181E+03  0.10356542670E+04  0.10566000000E+00 0.  1.
          4    1    4    4  502    0  0.22084279778E+03 -0.22271125430E+03 -0.67458287123E+03  0.74393137740E+03  0.00000000000E+00 0.  1.
         13    1    3    3    0    0 -0.14003067598E+03  0.61370231816E+03  0.11290064055E+04  0.12926308833E+04  0.10566000000E+00 0. -1.
         -4    1    3    3    0  501  0.66166569667E+03  0.12520156924E+03  0.79679001282E+03  0.10432407448E+04  0.00000000000E+00 0. -1.
<mgrwt>
<rscale>  0 0.13272914E+04</rscale>
<asrwt>0</asrwt>
<pdfrwt beam="2">  1        4 0.25915939E+00 0.13326344E+04</pdfrwt>
<pdfrwt beam="1">  1       -4 0.37398789E+00 0.13219699E+04</pdfrwt>
<totfact> 0.41634495E-02</totfact>
</mgrwt>
</event>
<event>
 8    1  0.3025584E-006  0.1298641E+04  0.7818608E-02  0.8550121E-01
         -4   -1    0    0    0  501 -0.00000000000E+00  0.00000000000E+00  0.10501916525E+04  0.10501916525E+04  0.00000000000E+00 0.  1.
          4   -1    0    0  502    0  0.00000000000E+00 -0.00000000000E+00 -0.22486715797E+04  0.22486715797E+04  0.00000000000E+00 0. -1.
   -9000010    2    1    2    0  501 -0.24885544565E+03 -0.77532574301E+03  0.30989570476E+03  0.13351047944E+04  0.10116374961E+04 0.  0.
    9000010    2    1    2  502    0  0.24885544565E+03  0.77532574301E+03 -0.15083756319E+04  0.19637584378E+04  0.95817071268E+03 0.  0.
        -13    1    4    4    0    0 -0.31542998519E+03  0.14855074075E+03 -0.18554943568E+03  0.39495822865E+03  0.10566000000E+00 0.  1.
          4    1    4    4  502    0  0.56428543084E+03  0.62677500226E+03 -0.13228261962E+04  0.15688002092E+04  0.00000000000E+00 0.  1.
         13    1    3    3    0    0 -0.22623287794E+03 -0.41326074283E+02 -0.30174972631E+03  0.37939697939E+03  0.10566000000E+00 0. -1.
         -4    1    3    3    0  501 -0.22622567717E+02 -0.73399966873E+03  0.61164543107E+03  0.95570781498E+03  0.00000000000E+00 0. -1.
<mgrwt>
<rscale>  0 0.12778736E+04</rscale>
<asrwt>0</asrwt>
<pdfrwt beam="2">  1        4 0.34594947E+00 0.12574379E+04</pdfrwt>
<pdfrwt beam="1">  1       -4 0.16156795E+00 0.12986414E+04</pdfrwt>
<totfact> 0.99775814E-02</totfact>
</mgrwt>
</event>
<event>
 8    1  0.3025584E-006  0.1562541E+04  0.7818608E-02  0.8375760E-01
          4   -1    0    0  502    0  0.00000000000E+00  0.00000000000E+00  0.34693040407E+04  0.34693040407E+04  0.00000000000E+00 0.  1.
         -4   -1    0    0    0  501 -0.00000000000E+00 -0.00000000000E+00 -0.70660704560E+03  0.70660704560E+03  0.00000000000E+00 0. -1.
   -9000010    2    1    2    0  501  0.14673639350E+03  0.11951309898E+04  0.12017235452E+04  0.19672525799E+04  0.98796436277E+03 0.  0.
    9000010    2    1    2  502    0 -0.14673639350E+03 -0.11951309898E+04  0.15609734499E+04  0.22086585064E+04  0.99582359614E+03 0.  0.
        -13    1    4    4    0    0 -0.33852194085E+03 -0.10050649776E+04  0.16161626202E+04  0.19330634598E+04  0.10566000000E+00 0.  1.
          4    1    4    4  502    0  0.19178554735E+03 -0.19006601222E+03 -0.55189170306E+02  0.27559504657E+03  0.00000000000E+00 0.  1.
         13    1    3    3    0    0  0.14495271862E+03  0.10959127637E+04  0.42519641313E+03  0.11844104344E+04  0.10566000000E+00 0. -1.
         -4    1    3    3    0  501  0.17836748787E+01  0.99218226087E+02  0.77652713206E+03  0.78284214546E+03  0.00000000000E+00 0. -1.
<mgrwt>
<rscale>  0 0.15600405E+04</rscale>
<asrwt>0</asrwt>
<pdfrwt beam="1">  1        4 0.53373907E+00 0.15625410E+04</pdfrwt>
<pdfrwt beam="2">  1       -4 0.10870878E+00 0.15575440E+04</pdfrwt>
<totfact> 0.28411740E-02</totfact>
</mgrwt>
</event>
<event>
 8    1  0.3025584E-006  0.1082976E+04  0.7818608E-02  0.8702902E-01
          4   -1    0    0  502    0  0.00000000000E+00  0.00000000000E+00  0.64457630809E+03  0.64457630809E+03  0.00000000000E+00 0.  1.
         -4   -1    0    0    0  501 -0.00000000000E+00 -0.00000000000E+00 -0.24403028642E+04  0.24403028642E+04  0.00000000000E+00 0. -1.
   -9000010    2    1    2    0  501 -0.37976457831E+03 -0.15171906634E+03 -0.16802737541E+04  0.19957667040E+04  0.99625550842E+03 0.  0.
    9000010    2    1    2  502    0  0.37976457831E+03  0.15171906634E+03 -0.11545280198E+03  0.10891124683E+04  0.10027944999E+04 0.  0.
        -13    1    4    4    0    0  0.27631012380E+03 -0.41713364976E+03 -0.44365586742E+01  0.50036732557E+03  0.10566000000E+00 0.  1.
          4    1    4    4  502    0  0.10345445451E+03  0.56885271609E+03 -0.11101624330E+03  0.58874514269E+03  0.00000000000E+00 0.  1.
         13    1    3    3    0    0  0.15980933845E+03 -0.41004933343E+03 -0.45926907171E+03  0.63608770771E+03  0.10566000000E+00 0. -1.
         -4    1    3    3    0  501 -0.53957391676E+03  0.25833026710E+03 -0.12210046824E+04  0.13596789963E+04  0.00000000000E+00 0. -1.
<mgrwt>
<rscale>  0 0.10799456E+04</rscale>
<asrwt>0</asrwt>
<pdfrwt beam="1">  1        4 0.99165587E-01 0.10829758E+04</pdfrwt>
<pdfrwt beam="2">  1       -4 0.37543121E+00 0.10769238E+04</pdfrwt>
<totfact> 0.17704809E-01</totfact>
</mgrwt>
</event>
<event>
 8    1  0.3025584E-006  0.1277586E+04  0.7818608E-02  0.8552156E-01
          4   -1    0    0  502    0  0.00000000000E+00  0.00000000000E+00  0.19504902020E+04  0.19504902020E+04  0.00000000000E+00 0. -1.
         -4   -1    0    0    0  501 -0.00000000000E+00 -0.00000000000E+00 -0.96379055800E+03  0.96379055800E+03  0.00000000000E+00 0.  1.
   -9000010    2    1    2    0  501 -0.12039188891E+03 -0.78458897261E+03 -0.43492704323E+02  0.12730851333E+04  0.99437421450E+03 0.  0.
    9000010    2    1    2  502    0  0.12039188891E+03  0.78458897261E+03  0.10301923483E+04  0.16411956267E+04  0.10010757952E+04 0.  0.
        -13    1    4    4    0    0 -0.11870725055E+02 -0.24148937921E+03  0.22408918001E+03  0.32965740724E+03  0.10566000000E+00 0.  1.
          4    1    4    4  502    0  0.13226261397E+03  0.10260783518E+04  0.80610316828E+03  0.13115382194E+04  0.00000000000E+00 0.  1.
         13    1    3    3    0    0 -0.35126978157E+03 -0.90600811297E+03 -0.16446636222E+03  0.98554064132E+03  0.10566000000E+00 0. -1.
         -4    1    3    3    0  501  0.23087789266E+03  0.12141914037E+03  0.12097365790E+03  0.28754449199E+03  0.00000000000E+00 0. -1.
<mgrwt>
<rscale>  0 0.12749615E+04</rscale>
<asrwt>0</asrwt>
<pdfrwt beam="1">  1        4 0.30007542E+00 0.12775863E+04</pdfrwt>
<pdfrwt beam="2">  1       -4 0.14827547E+00 0.12723420E+04</pdfrwt>
<totfact> 0.15306767E-01</totfact>
</mgrwt>
</event>
<event>
 8    1  0.3025584E-006  0.1445858E+04  0.7818608E-02  0.8448511E-01
          4   -1    0    0  502    0  0.00000000000E+00  0.00000000000E+00  0.33663456237E+04  0.33663456237E+04  0.00000000000E+00 0.  1.
         -4   -1    0    0    0  501 -0.00000000000E+00 -0.00000000000E+00 -0.11959073796E+04  0.11959073796E+04  0.00000000000E+00 0. -1.
   -9000010    2    1    2    0  501  0.35273873015E+03  0.96549520441E+03 -0.51472818556E+03  0.15125606152E+04  0.98299995329E+03 0.  0.
    9000010    2    1    2  502    0 -0.35273873015E+03 -0.96549520441E+03  0.26851664296E+04  0.30496923880E+04  0.10168083916E+04 0.  0.
        -13    1    4    4    0    0  0.20683321222E+03 -0.12331609198E+03  0.77684733205E+02  0.25302522632E+03  0.10566000000E+00 0.  1.
          4    1    4    4  502    0 -0.55957194237E+03 -0.84217911244E+03  0.26074816964E+04  0.27966671617E+04  0.00000000000E+00 0.  1.
         13    1    3    3    0    0  0.38259109369E+03  0.10163516886E+04 -0.96567605429E+02  0.10902623600E+04  0.10566000000E+00 0. -1.
         -4    1    3    3    0  501 -0.29852363545E+02 -0.50856484234E+02 -0.41816058013E+03  0.42229825523E+03  0.00000000000E+00 0. -1.
<mgrwt>
<rscale>  0 0.14340230E+04</rscale>
<asrwt>0</asrwt>
<pdfrwt beam="1">  1        4 0.51789932E+00 0.14458578E+04</pdfrwt>
<pdfrwt beam="2">  1       -4 0.18398575E+00 0.14222850E+04</pdfrwt>
<totfact> 0.15013544E-02</totfact>
</mgrwt>
</event>
<event>
 8    1  0.3025584E-006  0.1116044E+04  0.7818608E-02  0.8681337E-01
          4   -1    0    0  502    0  0.00000000000E+00  0.00000000000E+00  0.16809742223E+04  0.16809742223E+04  0.00000000000E+00 0.  1.
         -4   -1    0    0    0  501 -0.00000000000E+00 -0.00000000000E+00 -0.10424159657E+04  0.10424159657E+04  0.00000000000E+00 0. -1.
   -9000010    2    1    2    0  501  0.23654410328E+03  0.43138222868E+03 -0.42749548136E+03  0.11951178352E+04  0.10017537190E+04 0.  0.
    9000010    2    1    2  502    0 -0.23654410328E+03 -0.43138222868E+03  0.10660537380E+04  0.15282723527E+04  0.97831593654E+03 0.  0.
        -13    1    4    4    0    0  0.19655188585E+03  0.22243046045E+03  0.18981771173E+03  0.35233326328E+03  0.10566000000E+00 0.  1.
          4    1    4    4  502    0 -0.43309598914E+03 -0.65381268913E+03  0.87623602624E+03  0.11759390894E+04  0.00000000000E+00 0.  1.
         13    1    3    3    0    0  0.60944041393E+03  0.38582960625E+03 -0.17422878658E+03  0.74204971830E+03  0.10566000000E+00 0. -1.
         -4    1    3    3    0  501 -0.37289631064E+03  0.45552622433E+02 -0.25326669478E+03  0.45306811694E+03  0.00000000000E+00 0. -1.
<mgrwt>
<rscale>  0 0.11054998E+04</rscale>
<asrwt>0</asrwt>
<pdfrwt beam="1">  1        4 0.25861142E+00 0.10950552E+04</pdfrwt>
<pdfrwt beam="2">  1       -4 0.16037169E+00 0.11160440E+04</pdfrwt>
<totfact> 0.17530457E-01</totfact>
</mgrwt>
</event>
<event>
 8    1  0.3025584E-006  0.1176894E+04  0.7818608E-02  0.8626025E-01
          4   -1    0    0  502    0  0.00000000000E+00  0.00000000000E+00  0.16683982459E+04  0.16683982459E+04  0.00000000000E+00 0.  1.
         -4   -1    0    0    0  501 -0.00000000000E+00 -0.00000000000E+00 -0.15182506566E+04  0.15182506566E+04  0.00000000000E+00 0. -1.
   -9000010    2    1    2    0  501  0.61879444289E+03  0.39427805750E+02 -0.10002686665E+04  0.15408851961E+04  0.99465002287E+03 0.  0.
    9000010    2    1    2  502    0 -0.61879444289E+03 -0.39427805750E+02  0.11504162557E+04  0.16457637064E+04  0.10003097027E+04 0.  0.
        -13    1    4    4    0    0 -0.25553232457E+03 -0.27052842627E+03  0.11567910032E+04  0.12151739935E+04  0.10566000000E+00 0.  1.
          4    1    4    4  502    0 -0.36326211832E+03  0.23110062052E+03 -0.63747474462E+01  0.43058971286E+03  0.00000000000E+00 0.  1.
         13    1    3    3    0    0  0.11666558070E+02  0.42624222979E+03 -0.22200943379E+03  0.48073563098E+03  0.10566000000E+00 0. -1.
         -4    1    3    3    0  501  0.60712788482E+03 -0.38681442404E+03 -0.77825923268E+03  0.10601495651E+04  0.00000000000E+00 0. -1.
<mgrwt>
<rscale>  0 0.11744887E+04</rscale>
<asrwt>0</asrwt>
<pdfrwt beam="1">  1        4 0.25667665E+00 0.11768945E+04</pdfrwt>
<pdfrwt beam="2">  1       -4 0.23357702E+00 0.11720878E+04</pdfrwt>
<totfact> 0.10673402E-01</totfact>
</mgrwt>
</event>
<event>
 8    1  0.3025584E-006  0.1491242E+04  0.7818608E-02  0.8415376E-01
         -4   -1    0    0    0  501 -0.00000000000E+00  0.00000000000E+00  0.33676492947E+04  0.33676492947E+04  0.00000000000E+00 0. -1.
          4   -1    0    0  502    0  0.00000000000E+00 -0.00000000000E+00 -0.22004137406E+04  0.22004137406E+04  0.00000000000E+00 0.  1.
   -9000010    2    1    2    0  501  0.59882352150E+03 -0.92720515629E+03  0.29135189602E+04  0.32716945930E+04  0.99854582592E+03 0.  0.
    9000010    2    1    2  502    0 -0.59882352150E+03  0.92720515629E+03 -0.17462834061E+04  0.22963684423E+04  0.10027478629E+04 0.  0.
        -13    1    4    4    0    0 -0.28955910615E+03  0.10396867555E+04 -0.96170514020E+03  0.14455690276E+04  0.10566000000E+00 0.  1.
          4    1    4    4  502    0 -0.30926441535E+03 -0.11248159923E+03 -0.78457826591E+03  0.85079941473E+03  0.00000000000E+00 0.  1.
         13    1    3    3    0    0 -0.82563258472E+02 -0.64374737661E+03  0.19680176661E+04  0.20722743355E+04  0.10566000000E+00 0. -1.
         -4    1    3    3    0  501  0.68138677997E+03 -0.28345777968E+03  0.94550129419E+03  0.11994202575E+04  0.00000000000E+00 0. -1.
<mgrwt>
<rscale>  0 0.14898300E+04</rscale>
<asrwt>0</asrwt>
<pdfrwt beam="2">  1        4 0.33852519E+00 0.14912419E+04</pdfrwt>
<pdfrwt beam="1">  1       -4 0.51809989E+00 0.14884196E+04</pdfrwt>
<totfact> 0.57403783E-03</totfact>
</mgrwt>
</event>
<event>
 8    1  0.3025584E-006  0.1413314E+04  0.7818608E-02  0.8463829E-01
         -4   -1    0    0    0  501 -0.00000000000E+00  0.00000000000E+00  0.11775749688E+04  0.11775749688E+04  0.00000000000E+00 0. -1.
          4   -1    0    0  502    0  0.00000000000E+00 -0.00000000000E+00 -0.16939921745E+04  0.16939921745E+04  0.00000000000E+00 0.  1.
   -9000010    2    1    2    0  501  0.88492374946E+03 -0.42080367395E+03 -0.16095456267E+03  0.14224494650E+04  0.10184745136E+04 0.  0.
    9000010    2    1    2  502    0 -0.88492374946E+03  0.42080367395E+03 -0.35546264307E+03  0.14491176783E+04  0.10066889195E+04 0.  0.
        -13    1    4    4    0    0 -0.48886743079E+02  0.50375465641E+03  0.63878606886E+02  0.51013640831E+03  0.10566000000E+00 0.  1.
          4    1    4    4  502    0 -0.83603700638E+03 -0.82950982461E+02 -0.41934124995E+03  0.93898127001E+03  0.00000000000E+00 0.  1.
         13    1    3    3    0    0  0.46386791756E+03  0.26830506960E+03 -0.28251957348E+03  0.60578740155E+03  0.10566000000E+00 0. -1.
         -4    1    3    3    0  501  0.42105583190E+03 -0.68910874355E+03  0.12156501081E+03  0.81666206344E+03  0.00000000000E+00 0. -1.
<mgrwt>
<rscale>  0 0.14090729E+04</rscale>
<asrwt>0</asrwt>
<pdfrwt beam="2">  1        4 0.26061418E+00 0.14048446E+04</pdfrwt>
<pdfrwt beam="1">  1       -4 0.18116538E+00 0.14133139E+04</pdfrwt>
<totfact> 0.14421140E-01</totfact>
</mgrwt>
</event>
<event>
 8    1  0.3025584E-006  0.1319325E+04  0.7818608E-02  0.8523930E-01
         -4   -1    0    0    0  501 -0.00000000000E+00  0.00000000000E+00  0.13531211531E+04  0.13531211531E+04  0.00000000000E+00 0. -1.
          4   -1    0    0  502    0  0.00000000000E+00 -0.00000000000E+00 -0.14474380383E+04  0.14474380383E+04  0.00000000000E+00 0.  1.
   -9000010    2    1    2    0  501 -0.18864923353E+03 -0.84195155752E+03  0.42912217221E+03  0.13811907979E+04  0.98948027926E+03 0.  0.
    9000010    2    1    2  502    0  0.18864923353E+03  0.84195155752E+03 -0.52343905742E+03  0.14193683935E+04  0.99807175645E+03 0.  0.
        -13    1    4    4    0    0 -0.14469393816E+02 -0.21198219313E+03  0.25170948959E+02  0.21396121470E+03  0.10566000000E+00 0.  1.
          4    1    4    4  502    0  0.20311862734E+03  0.10539337506E+04 -0.54861000638E+03  0.12054071788E+04  0.00000000000E+00 0.  1.
         13    1    3    3    0    0 -0.21984385088E+03  0.17641240693E+03  0.17741278167E+02  0.28243126634E+03  0.10566000000E+00 0. -1.
         -4    1    3    3    0  501  0.31194617356E+02 -0.10183639644E+04  0.41138089404E+03  0.10987595316E+04  0.00000000000E+00 0. -1.
<mgrwt>
<rscale>  0 0.13160772E+04</rscale>
<asrwt>0</asrwt>
<pdfrwt beam="2">  1        4 0.22268277E+00 0.13193249E+04</pdfrwt>
<pdfrwt beam="1">  1       -4 0.20817249E+00 0.13128375E+04</pdfrwt>
<totfact> 0.14908322E-01</totfact>
</mgrwt>
</event>
<event>
 8    1  0.3025584E-006  0.1761655E+04  0.7818608E-02  0.8280506E-01
         -4   -1    0    0    0  501 -0.00000000000E+00  0.00000000000E+00  0.32574896322E+04  0.32574896322E+04  0.00000000000E+00 0. -1.
          4   -1    0    0  502    0  0.00000000000E+00 -0.00000000000E+00 -0.17198694314E+04  0.17198694314E+04  0.00000000000E+00 0.  1.
   -9000010    2    1    2    0  501  0.65907344162E+03  0.12457442056E+04  0.24528253664E+04  0.30198973661E+04  0.10569632900E+04 0.  0.
    9000010    2    1    2  502    0 -0.65907344162E+03 -0.12457442056E+04 -0.91520516554E+03  0.19574616975E+04  0.10038921131E+04 0.  0.
        -13    1    4    4    0    0 -0.67667993869E+03 -0.60253422416E+03 -0.89240012828E+02  0.91044331057E+03  0.10566000000E+00 0.  1.
          4    1    4    4  502    0  0.17606497070E+02 -0.64320998148E+03 -0.82596515271E+03  0.10470183869E+04  0.00000000000E+00 0.  1.
         13    1    3    3    0    0 -0.46144155413E+02  0.56776629186E+03  0.27520039256E+03  0.63263189334E+03  0.10566000000E+00 0. -1.
         -4    1    3    3    0  501  0.70521759704E+03  0.67797791378E+03  0.21776249739E+04  0.23872654728E+04  0.00000000000E+00 0. -1.
<mgrwt>
<rscale>  0 0.17459242E+04</rscale>
<asrwt>0</asrwt>
<pdfrwt beam="2">  1        4 0.26459530E+00 0.17303340E+04</pdfrwt>
<pdfrwt beam="1">  1       -4 0.50115225E+00 0.17616549E+04</pdfrwt>
<totfact> 0.10687920E-02</totfact>
</mgrwt>
</event>
<event>
 8    1  0.3025584E-006  0.1219626E+04  0.7818608E-02  0.8624283E-01
          4   -1    0    0  502    0  0.00000000000E+00  0.00000000000E+00  0.98368027193E+03  0.98368027193E+03  0.00000000000E+00 0.  1.
         -4   -1    0    0    0  501 -0.00000000000E+00 -0.00000000000E+00 -0.26853206763E+04  0.26853206763E+04  0.00000000000E+00 0. -1.
   -9000010    2    1    2    0  501 -0.40133596914E+03  0.38180035876E+03 -0.21308577516E+04  0.24552071370E+04  0.10865750107E+04 0.  0.
    9000010    2    1    2  502    0  0.40133596914E+03 -0.38180035876E+03  0.42921734722E+03  0.12137938113E+04  0.99107306038E+03 0.  0.
        -13    1    4    4    0    0 -0.40447899496E+02  0.16704785518E+03  0.47758758351E+03  0.50757357061E+03  0.10566000000E+00 0.  1.
          4    1    4    4  502    0  0.44178386864E+03 -0.54884821394E+03 -0.48370236293E+02  0.70622024064E+03  0.00000000000E+00 0.  1.
         13    1    3    3    0    0 -0.24045174976E+03 -0.24991857064E+03 -0.16495112432E+03  0.38403804563E+03  0.10566000000E+00 0. -1.
         -4    1    3    3    0  501 -0.16088421939E+03  0.63171892940E+03 -0.19659066273E+04  0.20711690913E+04  0.00000000000E+00 0. -1.
<mgrwt>
<rscale>  0 0.11767447E+04</rscale>
<asrwt>0</asrwt>
<pdfrwt beam="1">  1        4 0.15133543E+00 0.11353713E+04</pdfrwt>
<pdfrwt beam="2">  1       -4 0.41312626E+00 0.12196259E+04</pdfrwt>
<totfact> 0.61378382E-02</totfact>
</mgrwt>
</event>
<event>
 8    1  0.3025584E-006  0.1193816E+04  0.7818608E-02  0.8620649E-01
         -4   -1    0    0    0  501 -0.00000000000E+00  0.00000000000E+00  0.73619342509E+03  0.73619342509E+03  0.00000000000E+00 0. -1.
          4   -1    0    0  502    0  0.00000000000E+00 -0.00000000000E+00 -0.20394227030E+04  0.20394227030E+04  0.00000000000E+00 0.  1.
   -9000010    2    1    2    0  501 -0.33515603561E+03 -0.55231774699E+03 -0.27764654514E+03  0.12017623984E+04  0.97455671787E+03 0.  0.
    9000010    2    1    2  502    0  0.33515603561E+03  0.55231774699E+03 -0.10255827328E+04  0.15738537297E+04  0.10038979823E+04 0.  0.
        -13    1    4    4    0    0  0.57704468816E+03  0.24463058033E+03 -0.19617839366E+03  0.65674246571E+03  0.10566000000E+00 0.  1.
          4    1    4    4  502    0 -0.24188865255E+03  0.30768716666E+03 -0.82940433911E+03  0.91711126396E+03  0.00000000000E+00 0.  1.
         13    1    3    3    0    0 -0.60186562586E+03 -0.63856363694E+03 -0.28112861930E+03  0.92143315643E+03  0.10566000000E+00 0. -1.
         -4    1    3    3    0  501  0.26670959025E+03  0.86245889956E+02  0.34820741601E+01  0.28032924197E+03  0.00000000000E+00 0. -1.
<mgrwt>
<rscale>  0 0.11814689E+04</rscale>
<asrwt>0</asrwt>
<pdfrwt beam="2">  1        4 0.31375733E+00 0.11938156E+04</pdfrwt>
<pdfrwt beam="1">  1       -4 0.11326053E+00 0.11692499E+04</pdfrwt>
<totfact> 0.21755127E-01</totfact>
</mgrwt>
</event>
<event>
 8    1  0.3025584E-006  0.1585990E+04  0.7818608E-02  0.8405842E-01
          4   -1    0    0  502    0  0.00000000000E+00  0.00000000000E+00  0.17842760297E+04  0.17842760297E+04  0.00000000000E+00 0.  1.
         -4   -1    0    0    0  501 -0.00000000000E+00 -0.00000000000E+00 -0.23510525065E+04  0.23510525065E+04  0.00000000000E+00 0. -1.
   -9000010    2    1    2    0  501  0.22512543928E+03 -0.12041979320E+04 -0.16732233289E+04  0.22015267784E+04  0.73910061888E+03 0.  0.
    9000010    2    1    2  502    0 -0.22512543928E+03  0.12041979320E+04  0.11064468522E+04  0.19338017578E+04  0.10072688216E+04 0.  0.
        -13    1    4    4    0    0 -0.33502536076E+03  0.12756848821E+04  0.11915715698E+04  0.17774860697E+04  0.10566000000E+00 0.  1.
          4    1    4    4  502    0  0.10989992147E+03 -0.71486950171E+02 -0.85124717636E+02  0.15631568807E+03  0.00000000000E+00 0.  1.
         13    1    3    3    0    0 -0.19692018219E+03 -0.19509513346E+03 -0.12058739560E+03  0.30229290497E+03  0.10566000000E+00 0. -1.
         -4    1    3    3    0  501  0.42204562147E+03 -0.10091027985E+04 -0.15526359333E+04  0.18992338734E+04  0.00000000000E+00 0. -1.
<mgrwt>
<rscale>  0 0.15063713E+04</rscale>
<asrwt>0</asrwt>
<pdfrwt beam="1">  1        4 0.27450400E+00 0.15859901E+04</pdfrwt>
<pdfrwt beam="2">  1       -4 0.36170039E+00 0.14307494E+04</pdfrwt>
<totfact> 0.41838020E-02</totfact>
</mgrwt>
</event>
<event>
 8    1  0.3025584E-006  0.1044117E+04  0.7818608E-02  0.8735228E-01
          4   -1    0    0  502    0  0.00000000000E+00  0.00000000000E+00  0.35120686122E+04  0.35120686122E+04  0.00000000000E+00 0. -1.
         -4   -1    0    0    0  501 -0.00000000000E+00 -0.00000000000E+00 -0.35897485261E+03  0.35897485261E+03  0.00000000000E+00 0.  1.
   -9000010    2    1    2    0  501 -0.15124434743E+03 -0.21218103990E+03  0.86116708201E+03  0.13534361364E+04  0.10110810976E+04 0.  0.
    9000010    2    1    2  502    0  0.15124434743E+03  0.21218103990E+03  0.22919266776E+04  0.25176073284E+04  0.10087235094E+04 0.  0.
        -13    1    4    4    0    0  0.51117312345E+03 -0.14716107786E+03  0.12344045264E+04  0.13441387172E+04  0.10566000000E+00 0.  1.
          4    1    4    4  502    0 -0.35992877602E+03  0.35934211775E+03  0.10575221512E+04  0.11734686113E+04  0.00000000000E+00 0.  1.
         13    1    3    3    0    0 -0.32618833697E+03 -0.45128529834E+03  0.89620366960E+03  0.10551010758E+04  0.10566000000E+00 0. -1.
         -4    1    3    3    0  501  0.17494398954E+03  0.23910425845E+03 -0.35036587593E+02  0.29833506055E+03  0.00000000000E+00 0. -1.
<mgrwt>
<rscale>  0 0.10429751E+04</rscale>
<asrwt>0</asrwt>
<pdfrwt beam="1">  1        4 0.54031822E+00 0.10418343E+04</pdfrwt>
<pdfrwt beam="2">  1       -4 0.55226903E-01 0.10441172E+04</pdfrwt>
<totfact> 0.11034706E-01</totfact>
</mgrwt>
</event>
<event>
 8    1  0.3025584E-006  0.1297505E+04  0.7818608E-02  0.8536624E-01
         -4   -1    0    0    0  501 -0.00000000000E+00  0.00000000000E+00  0.12182803492E+04  0.12182803492E+04  0.00000000000E+00 0. -1.
          4   -1    0    0  502    0  0.00000000000E+00 -0.00000000000E+00 -0.22424834337E+04  0.22424834337E+04  0.00000000000E+00 0.  1.
   -9000010    2    1    2    0  501  0.80824873782E+03  0.96138573260E+02  0.56003682805E+03  0.14130002601E+04  0.10101583236E+04 0.  0.
    9000010    2    1    2  502    0 -0.80824873782E+03 -0.96138573260E+02 -0.15842399126E+04  0.20477635229E+04  0.10104507397E+04 0.  0.
        -13    1    4    4    0    0 -0.46421168573E+03  0.13988290793E+03 -0.85848545166E+02  0.49237150706E+03  0.10566000000E+00 0.  1.
          4    1    4    4  502    0 -0.34403705209E+03 -0.23602148118E+03 -0.14983913674E+04  0.15553920158E+04  0.00000000000E+00 0.  1.
         13    1    3    3    0    0  0.56430676062E+03 -0.40431274280E+03  0.49471830732E+03  0.85244186243E+03  0.10566000000E+00 0. -1.
         -4    1    3    3    0  501  0.24394197720E+03  0.50045131606E+03  0.65318520737E+02  0.56055839762E+03  0.00000000000E+00 0. -1.
<mgrwt>
<rscale>  0 0.12973912E+04</rscale>
<asrwt>0</asrwt>
<pdfrwt beam="2">  1        4 0.34499745E+00 0.12975050E+04</pdfrwt>
<pdfrwt beam="1">  1       -4 0.18742775E+00 0.12972773E+04</pdfrwt>
<totfact> 0.81508821E-02</totfact>
</mgrwt>
</event>
<event>
 8    1  0.3025584E-006  0.1370154E+04  0.7818608E-02  0.8533902E-01
          4   -1    0    0  502    0  0.00000000000E+00  0.00000000000E+00  0.20389457887E+04  0.20389457887E+04  0.00000000000E+00 0.  1.
         -4   -1    0    0    0  501 -0.00000000000E+00 -0.00000000000E+00 -0.27719622045E+04  0.27719622045E+04  0.00000000000E+00 0. -1.
   -9000010    2    1    2    0  501 -0.86190596460E+02  0.72861616989E+03 -0.23719524796E+04  0.26746882736E+04  0.99473034208E+03 0.  0.
    9000010    2    1    2  502    0  0.86190596460E+02 -0.72861616989E+03  0.16389360637E+04  0.21362197196E+04  0.11571572614E+04 0.  0.
        -13    1    4    4    0    0 -0.69391153419E+02 -0.95162642779E+01 -0.16974205786E+03  0.18362480451E+03  0.10566000000E+00 0.  1.
          4    1    4    4  502    0  0.15558174988E+03 -0.71909990561E+03  0.18086781216E+04  0.19525949151E+04  0.00000000000E+00 0.  1.
         13    1    3    3    0    0  0.35279024921E+03 -0.30760384459E+02 -0.57960595862E+03  0.67922767878E+03  0.10566000000E+00 0. -1.
         -4    1    3    3    0  501 -0.43898084567E+03  0.75937655435E+03 -0.17923465210E+04  0.19954605948E+04  0.00000000000E+00 0. -1.
<mgrwt>
<rscale>  0 0.13013715E+04</rscale>
<asrwt>0</asrwt>
<pdfrwt beam="1">  1        4 0.31368397E+00 0.13701545E+04</pdfrwt>
<pdfrwt beam="2">  1       -4 0.42645572E+00 0.12360416E+04</pdfrwt>
<totfact> 0.18631916E-02</totfact>
</mgrwt>
</event>
<event>
 8    1  0.3025584E-006  0.1837212E+04  0.7818608E-02  0.8242387E-01
         -4   -1    0    0    0  501 -0.00000000000E+00  0.00000000000E+00  0.25619300675E+04  0.25619300675E+04  0.00000000000E+00 0. -1.
          4   -1    0    0  502    0  0.00000000000E+00 -0.00000000000E+00 -0.15064589656E+04  0.15064589656E+04  0.00000000000E+00 0.  1.
   -9000010    2    1    2    0  501 -0.14703950129E+04 -0.45315378579E+03  0.12711683329E+04  0.22185587911E+04  0.96887787238E+03 0.  0.
    9000010    2    1    2  502    0  0.14703950129E+04  0.45315378579E+03 -0.21569723102E+03  0.18498302419E+04  0.10039605475E+04 0.  0.
        -13    1    4    4    0    0  0.15440816372E+04  0.26136278132E+03 -0.34959421574E+03  0.16045917651E+04  0.10566000000E+00 0.  1.
          4    1    4    4  502    0 -0.73686624299E+02  0.19179100447E+03  0.13389698472E+03  0.24523847682E+03  0.00000000000E+00 0.  1.
         13    1    3    3    0    0 -0.36829567446E+03 -0.32786674588E+03  0.93916391095E+03  0.10607389734E+04  0.10566000000E+00 0. -1.
         -4    1    3    3    0  501 -0.11020993384E+04 -0.12528703991E+03  0.33200442196E+03  0.11578198177E+04  0.00000000000E+00 0. -1.
<mgrwt>
<rscale>  0 0.18277202E+04</rscale>
<asrwt>0</asrwt>
<pdfrwt beam="2">  1        4 0.23176292E+00 0.18372116E+04</pdfrwt>
<pdfrwt beam="1">  1       -4 0.39414309E+00 0.18182778E+04</pdfrwt>
<totfact> 0.38920407E-02</totfact>
</mgrwt>
</event>
<event>
 8    1  0.3025584E-006  0.1054760E+04  0.7818608E-02  0.8829197E-01
          4   -1    0    0  502    0  0.00000000000E+00  0.00000000000E+00  0.15224244374E+04  0.15224244374E+04  0.00000000000E+00 0.  1.
         -4   -1    0    0    0  501 -0.00000000000E+00 -0.00000000000E+00 -0.79144930346E+03  0.79144930346E+03  0.00000000000E+00 0. -1.
   -9000010    2    1    2    0  501 -0.89518807087E+02  0.36967489111E+03 -0.24227502931E+03  0.87869644290E+03  0.75414660843E+03 0.  0.
    9000010    2    1    2  502    0  0.89518807087E+02 -0.36967489111E+03  0.97325016322E+03  0.14351772979E+04  0.98379106233E+03 0.  0.
        -13    1    4    4    0    0  0.25425804499E+03 -0.40202173710E+03  0.11170584734E+04  0.12141203708E+04  0.10566000000E+00 0.  1.
          4    1    4    4  502    0 -0.16473923791E+03  0.32346845988E+02 -0.14380831020E+03  0.22105692714E+03  0.00000000000E+00 0.  1.
         13    1    3    3    0    0  0.26957641477E+03  0.39571882911E+03 -0.18886411767E+03  0.51471788508E+03  0.10566000000E+00 0. -1.
         -4    1    3    3    0  501 -0.35909522186E+03 -0.26043938005E+02 -0.53410911641E+02  0.36397855782E+03  0.00000000000E+00 0. -1.
<mgrwt>
<rscale>  0 0.94386873E+03</rscale>
<asrwt>0</asrwt>
<pdfrwt beam="1">  1        4 0.23421914E+00 0.10547597E+04</pdfrwt>
<pdfrwt beam="2">  1       -4 0.12176143E+00 0.84463616E+03</pdfrwt>
<totfact> 0.30532004E-01</totfact>
</mgrwt>
</event>
<event>
 8    1  0.3025584E-006  0.1015690E+04  0.7818608E-02  0.8779625E-01
         -4   -1    0    0    0  501 -0.00000000000E+00  0.00000000000E+00  0.69789127992E+03  0.69789127992E+03  0.00000000000E+00 0. -1.
          4   -1    0    0  502    0  0.00000000000E+00 -0.00000000000E+00 -0.24032161495E+04  0.24032161495E+04  0.00000000000E+00 0.  1.
   -9000010    2    1    2    0  501 -0.77362674765E+02 -0.13716087563E+03  0.12934617989E+03  0.10238926650E+04  0.10034080257E+04 0.  0.
    9000010    2    1    2  502    0  0.77362674765E+02  0.13716087563E+03 -0.18346710495E+04  0.20772147644E+04  0.96125190689E+03 0.  0.
        -13    1    4    4    0    0 -0.65472679539E+02  0.53869898475E+03 -0.11330093128E+04  0.12562616694E+04  0.10566000000E+00 0.  1.
          4    1    4    4  502    0  0.14283535430E+03 -0.40153810912E+03 -0.70166173670E+03  0.82095309505E+03  0.00000000000E+00 0.  1.
         13    1    3    3    0    0  0.27607727211E+03 -0.44113890437E+03  0.18953150782E+03  0.55384510176E+03  0.10566000000E+00 0. -1.
         -4    1    3    3    0  501 -0.35343994688E+03  0.30397802875E+03 -0.60185327925E+02  0.47004756324E+03  0.00000000000E+00 0. -1.
<mgrwt>
<rscale>  0 0.99465986E+03</rscale>
<asrwt>0</asrwt>
<pdfrwt beam="2">  1        4 0.36972555E+00 0.97406536E+03</pdfrwt>
<pdfrwt beam="1">  1       -4 0.10736789E+00 0.10156898E+04</pdfrwt>
<totfact> 0.16154478E-01</totfact>
</mgrwt>
</event>
<event>
 8    1  0.3025584E-006  0.1466004E+04  0.7818608E-02  0.8431262E-01
          4   -1    0    0  502    0  0.00000000000E+00  0.00000000000E+00  0.27360835734E+04  0.27360835734E+04  0.00000000000E+00 0.  1.
         -4   -1    0    0    0  501 -0.00000000000E+00 -0.00000000000E+00 -0.18458469538E+04  0.18458469538E+04  0.00000000000E+00 0. -1.
   -9000010    2    1    2    0  501 -0.77397523360E+03 -0.71620409220E+03 -0.12936904130E+04  0.19551987343E+04  0.10184209553E+04 0.  0.
    9000010    2    1    2  502    0  0.77397523360E+03  0.71620409220E+03  0.21839270326E+04  0.26267317929E+04  0.10090573146E+04 0.  0.
        -13    1    4    4    0    0  0.91603709623E+03  0.45180685822E+03  0.10959768949E+04  0.14981384329E+04  0.10566000000E+00 0.  1.
          4    1    4    4  502    0 -0.14206186263E+03  0.26439723398E+03  0.10879501376E+04  0.11285933599E+04  0.00000000000E+00 0.  1.
         13    1    3    3    0    0  0.22970583569E+03 -0.15768699211E+03 -0.45288205256E+03  0.53172560887E+03  0.10566000000E+00 0. -1.
         -4    1    3    3    0  501 -0.10036810693E+04 -0.55851710009E+03 -0.84080836044E+03  0.14234731255E+04  0.00000000000E+00 0. -1.
<mgrwt>
<rscale>  0 0.14627556E+04</rscale>
<asrwt>0</asrwt>
<pdfrwt beam="1">  1        4 0.42093593E+00 0.14595145E+04</pdfrwt>
<pdfrwt beam="2">  1       -4 0.28397645E+00 0.14660038E+04</pdfrwt>
<totfact> 0.23206682E-02</totfact>
</mgrwt>
</event>
<event>
 8    1  0.3025584E-006  0.1123644E+04  0.7818608E-02  0.8673214E-01
         -4   -1    0    0    0  501 -0.00000000000E+00  0.00000000000E+00  0.15038485563E+04  0.15038485563E+04  0.00000000000E+00 0. -1.
          4   -1    0    0  502    0  0.00000000000E+00 -0.00000000000E+00 -0.83788695604E+03  0.83788695604E+03  0.00000000000E+00 0.  1.
   -9000010    2    1    2    0  501 -0.45406834718E+03  0.18206931484E+03  0.46759346798E+03  0.12170538577E+04  0.10115577798E+04 0.  0.
    9000010    2    1    2  502    0  0.45406834718E+03 -0.18206931484E+03  0.19836813226E+03  0.11246816547E+04  0.99309194395E+03 0.  0.
        -13    1    4    4    0    0  0.44335289797E+03  0.31960842154E+03  0.28353428566E+03  0.61571343787E+03  0.10566000000E+00 0.  1.
          4    1    4    4  502    0  0.10715449207E+02 -0.50167773638E+03 -0.85166153404E+02  0.50896821681E+03  0.00000000000E+00 0.  1.
         13    1    3    3    0    0 -0.15894600630E+03 -0.78668429358E+02 -0.30333074564E+03  0.35137175059E+03  0.10566000000E+00 0. -1.
         -4    1    3    3    0  501 -0.29512234088E+03  0.26073774420E+03  0.77092421363E+03  0.86568210706E+03  0.00000000000E+00 0. -1.
<mgrwt>
<rscale>  0 0.11153161E+04</rscale>
<asrwt>0</asrwt>
<pdfrwt beam="2">  1        4 0.12890569E+00 0.11070496E+04</pdfrwt>
<pdfrwt beam="1">  1       -4 0.23136132E+00 0.11236443E+04</pdfrwt>
<totfact> 0.28266953E-01</totfact>
</mgrwt>
</event>
<event>
 8    1  0.3025584E-006  0.1080674E+04  0.7818608E-02  0.8705232E-01
          4   -1    0    0  502    0  0.00000000000E+00  0.00000000000E+00  0.16818975871E+04  0.16818975871E+04  0.00000000000E+00 0.  1.
         -4   -1    0    0    0  501 -0.00000000000E+00 -0.00000000000E+00 -0.10917737999E+04  0.10917737999E+04  0.00000000000E+00 0. -1.
   -9000010    2    1    2    0  501  0.41707400285E+03  0.95682794226E+01 -0.54568496663E+03  0.12106315513E+04  0.99690239960E+03 0.  0.
    9000010    2    1    2  502    0 -0.41707400285E+03 -0.95682794226E+01  0.11358087538E+04  0.15630398358E+04  0.98943909722E+03 0.  0.
        -13    1    4    4    0    0 -0.40299892347E+03  0.38285223898E+03  0.10061974890E+04  0.11495291937E+04  0.10566000000E+00 0.  1.
          4    1    4    4  502    0 -0.14075079381E+02 -0.39242051840E+03  0.12961126485E+03  0.41351064206E+03  0.00000000000E+00 0.  1.
         13    1    3    3    0    0 -0.13671461226E+03  0.22222365161E+03  0.14633965488E+03  0.29914802740E+03  0.10566000000E+00 0. -1.
         -4    1    3    3    0  501  0.55378861510E+03 -0.21265537219E+03 -0.69202462151E+03  0.91148352388E+03  0.00000000000E+00 0. -1.
<mgrwt>
<rscale>  0 0.10772282E+04</rscale>
<asrwt>0</asrwt>
<pdfrwt beam="1">  1        4 0.25875348E+00 0.10737933E+04</pdfrwt>
<pdfrwt beam="2">  1       -4 0.16796520E+00 0.10806742E+04</pdfrwt>
<totfact> 0.16443768E-01</totfact>
</mgrwt>
</event>
<event>
 8    1  0.3025584E-006  0.1315347E+04  0.7818608E-02  0.8553186E-01
         -4   -1    0    0    0  501 -0.00000000000E+00  0.00000000000E+00  0.15594593408E+04  0.15594593408E+04  0.00000000000E+00 0. -1.
          4   -1    0    0  502    0  0.00000000000E+00 -0.00000000000E+00 -0.20030437190E+04  0.20030437190E+04  0.00000000000E+00 0.  1.
   -9000010    2    1    2    0  501 -0.25029698965E+03  0.67054226027E+03  0.10085750327E+04  0.16575164857E+04  0.11035677587E+04 0.  0.
    9000010    2    1    2  502    0  0.25029698965E+03 -0.67054226027E+03 -0.14521594109E+04  0.19049865740E+04  0.10039578611E+04 0.  0.
        -13    1    4    4    0    0 -0.55118401599E+00 -0.89560187014E+03 -0.10752601331E+04  0.13993882158E+04  0.10566000000E+00 0.  1.
          4    1    4    4  502    0  0.25084817367E+03  0.22505960987E+03 -0.37689927785E+03  0.50559835826E+03  0.00000000000E+00 0.  1.
         13    1    3    3    0    0  0.21012011522E+03 -0.22527778923E+03  0.24374117207E+03  0.39282351669E+03  0.10566000000E+00 0. -1.
         -4    1    3    3    0  501 -0.46041710487E+03  0.89582004950E+03  0.76483386066E+03  0.12646929690E+04  0.00000000000E+00 0. -1.
<mgrwt>
<rscale>  0 0.12734908E+04</rscale>
<asrwt>0</asrwt>
<pdfrwt beam="2">  1        4 0.30816057E+00 0.12329667E+04</pdfrwt>
<pdfrwt beam="1">  1       -4 0.23991682E+00 0.13153468E+04</pdfrwt>
<totfact> 0.75645237E-02</totfact>
</mgrwt>
</event>
<event>
 8    1  0.3025584E-006  0.1057757E+04  0.7818608E-02  0.8751483E-01
         -4   -1    0    0    0  501 -0.00000000000E+00  0.00000000000E+00  0.59977184731E+03  0.59977184731E+03  0.00000000000E+00 0. -1.
          4   -1    0    0  502    0  0.00000000000E+00 -0.00000000000E+00 -0.28238962369E+04  0.28238962369E+04  0.00000000000E+00 0.  1.
   -9000010    2    1    2    0  501 -0.52042415836E+02  0.83308036170E+02 -0.36637017507E+02  0.99386328774E+03  0.98831843134E+03 0.  0.
    9000010    2    1    2  502    0  0.52042415836E+02 -0.83308036170E+02 -0.21874873721E+04  0.24298047965E+04  0.10531864526E+04 0.  0.
        -13    1    4    4    0    0 -0.32090015711E+03 -0.56374141702E+02 -0.19709879278E+04  0.19977358127E+04  0.10566000000E+00 0.  1.
          4    1    4    4  502    0  0.37294257294E+03 -0.26933894468E+02 -0.21649944435E+03  0.43206898383E+03  0.00000000000E+00 0.  1.
         13    1    3    3    0    0  0.33223078675E+03  0.38020553993E+03  0.17742763971E+02  0.50522110516E+03  0.10566000000E+00 0. -1.
         -4    1    3    3    0  501 -0.38427320258E+03 -0.29689750376E+03 -0.54379781478E+02  0.48864218258E+03  0.00000000000E+00 0. -1.
<mgrwt>
<rscale>  0 0.10249642E+04</rscale>
<asrwt>0</asrwt>
<pdfrwt beam="2">  1        4 0.43444557E+00 0.10577572E+04</pdfrwt>
<pdfrwt beam="1">  1       -4 0.92272592E-01 0.99318778E+03</pdfrwt>
<totfact> 0.11786970E-01</totfact>
</mgrwt>
</event>
<event>
 8    1  0.3025584E-006  0.1152949E+04  0.7818608E-02  0.8678608E-01
          4   -1    0    0  502    0  0.00000000000E+00  0.00000000000E+00  0.25074216582E+04  0.25074216582E+04  0.00000000000E+00 0.  1.
         -4   -1    0    0    0  501 -0.00000000000E+00 -0.00000000000E+00 -0.49288568421E+03  0.49288568421E+03  0.00000000000E+00 0. -1.
   -9000010    2    1    2    0  501  0.36791261611E+03 -0.21387260858E+02  0.87675752866E+03  0.13804829361E+04  0.10006059487E+04 0.  0.
    9000010    2    1    2  502    0 -0.36791261611E+03  0.21387260858E+02  0.11377784453E+04  0.16198244063E+04  0.10924624519E+04 0.  0.
        -13    1    4    4    0    0 -0.59427287843E+03 -0.29689845712E+03  0.10099931640E+04  0.12088817768E+04  0.10566000000E+00 0.  1.
          4    1    4    4  502    0  0.22636026233E+03  0.31828571798E+03  0.12778528133E+03  0.41094262952E+03  0.00000000000E+00 0.  1.
         13    1    3    3    0    0  0.23313091124E+03 -0.39787113777E+03  0.86521597429E+03  0.98043365781E+03  0.10566000000E+00 0. -1.
         -4    1    3    3    0  501  0.13478170487E+03  0.37648387691E+03  0.11541554371E+02  0.40004927824E+03  0.00000000000E+00 0. -1.
<mgrwt>
<rscale>  0 0.11087866E+04</rscale>
<asrwt>0</asrwt>
<pdfrwt beam="1">  1        4 0.38575717E+00 0.11529490E+04</pdfrwt>
<pdfrwt beam="2">  1       -4 0.75828568E-01 0.10663158E+04</pdfrwt>
<totfact> 0.27598259E-01</totfact>
</mgrwt>
</event>
<event>
 8    1  0.3025584E-006  0.1164533E+04  0.7818608E-02  0.8666654E-01
         -4   -1    0    0    0  501 -0.00000000000E+00  0.00000000000E+00  0.26361879226E+04  0.26361879226E+04  0.00000000000E+00 0. -1.
          4   -1    0    0  502    0  0.00000000000E+00 -0.00000000000E+00 -0.12031935458E+04  0.12031935458E+04  0.00000000000E+00 0.  1.
   -9000010    2    1    2    0  501 -0.45796655424E+03 -0.37993761682E+03  0.22154269559E+04  0.25028489490E+04  0.10010246287E+04 0.  0.
    9000010    2    1    2  502    0  0.45796655424E+03  0.37993761682E+03 -0.78243257908E+03  0.13365325194E+04  0.90555644613E+03 0.  0.
        -13    1    4    4    0    0  0.57093765594E+03  0.60473424007E+03 -0.58705804075E+03  0.10179933509E+04  0.10566000000E+00 0.  1.
          4    1    4    4  502    0 -0.11297110170E+03 -0.22479662325E+03 -0.19537453833E+03  0.31853916851E+03  0.00000000000E+00 0.  1.
         13    1    3    3    0    0 -0.16794564515E+03 -0.57556374554E+03  0.20092120828E+04  0.20967624018E+04  0.10566000000E+00 0. -1.
         -4    1    3    3    0  501 -0.29002090909E+03  0.19562612872E+03  0.20621487316E+03  0.40608654725E+03  0.00000000000E+00 0. -1.
<mgrwt>
<rscale>  0 0.11233208E+04</rscale>
<asrwt>0</asrwt>
<pdfrwt beam="2">  1        4 0.18510670E+00 0.10835675E+04</pdfrwt>
<pdfrwt beam="1">  1       -4 0.40556737E+00 0.11645326E+04</pdfrwt>
<totfact> 0.49938310E-02</totfact>
</mgrwt>
</event>
<event>
 8    1  0.3025584E-006  0.1186490E+04  0.7818608E-02  0.8663138E-01
          4   -1    0    0  502    0  0.00000000000E+00  0.00000000000E+00  0.22348178995E+04  0.22348178995E+04  0.00000000000E+00 0.  1.
         -4   -1    0    0    0  501 -0.00000000000E+00 -0.00000000000E+00 -0.87082226724E+03  0.87082226724E+03  0.00000000000E+00 0. -1.
   -9000010    2    1    2    0  501 -0.19611169624E+03 -0.56637824866E+03 -0.20649376806E+03  0.12043251810E+04  0.10239703841E+04 0.  0.
    9000010    2    1    2  502    0  0.19611169624E+03  0.56637824866E+03  0.15704894003E+04  0.19013149857E+04  0.88843547909E+03 0.  0.
        -13    1    4    4    0    0 -0.23786448107E+03  0.54315991999E+03  0.62940424522E+03  0.86472650307E+03  0.10566000000E+00 0.  1.
          4    1    4    4  502    0  0.43397617731E+03  0.23218328670E+02  0.94108515507E+03  0.10365884826E+04  0.00000000000E+00 0.  1.
         13    1    3    3    0    0  0.41012227619E+03 -0.32920410172E+03 -0.16397491433E+02  0.52616015708E+03  0.10566000000E+00 0. -1.
         -4    1    3    3    0  501 -0.60623397242E+03 -0.23717414694E+03 -0.19009627662E+03  0.67816502393E+03  0.00000000000E+00 0. -1.
<mgrwt>
<rscale>  0 0.11276406E+04</rscale>
<asrwt>0</asrwt>
<pdfrwt beam="1">  1        4 0.34381814E+00 0.10717097E+04</pdfrwt>
<pdfrwt beam="2">  1       -4 0.13397266E+00 0.11864904E+04</pdfrwt>
<totfact> 0.13589468E-01</totfact>
</mgrwt>
</event>
<event>
 8    1  0.3025584E-006  0.1180163E+04  0.7818608E-02  0.8624553E-01
          4   -1    0    0  502    0  0.00000000000E+00  0.00000000000E+00  0.98112497597E+03  0.98112497597E+03  0.00000000000E+00 0.  1.
         -4   -1    0    0    0  501 -0.00000000000E+00 -0.00000000000E+00 -0.15065436433E+04  0.15065436433E+04  0.00000000000E+00 0. -1.
   -9000010    2    1    2    0  501 -0.59347999388E+02  0.62794443400E+03 -0.57748279099E+03  0.13138765857E+04  0.99747125838E+03 0.  0.
    9000010    2    1    2  502    0  0.59347999388E+02 -0.62794443400E+03  0.52064123710E+02  0.11737920335E+04  0.98855483803E+03 0.  0.
        -13    1    4    4    0    0 -0.18339738173E+03 -0.30454797024E+03  0.47194420979E+03  0.59085989382E+03  0.10566000000E+00 0.  1.
          4    1    4    4  502    0  0.24274538112E+03 -0.32339646377E+03 -0.41988008608E+03  0.58293213972E+03  0.00000000000E+00 0.  1.
         13    1    3    3    0    0  0.35471411713E+03 -0.14450593346E+01  0.15602820801E+02  0.35506006853E+03  0.10566000000E+00 0. -1.
         -4    1    3    3    0  501 -0.41406211651E+03  0.62938949334E+03 -0.59308561179E+03  0.95881651716E+03  0.00000000000E+00 0. -1.
<mgrwt>
<rscale>  0 0.11763940E+04</rscale>
<asrwt>0</asrwt>
<pdfrwt beam="1">  1        4 0.15094231E+00 0.11726368E+04</pdfrwt>
<pdfrwt beam="2">  1       -4 0.23177594E+00 0.11801633E+04</pdfrwt>
<totfact> 0.22105034E-01</totfact>
</mgrwt>
</event>
<event>
 8    1  0.3025584E-006  0.1163388E+04  0.7818608E-02  0.8643540E-01
         -4   -1    0    0    0  501 -0.00000000000E+00  0.00000000000E+00  0.49827360553E+03  0.49827360553E+03  0.00000000000E+00 0. -1.
          4   -1    0    0  502    0  0.00000000000E+00 -0.00000000000E+00 -0.26674240142E+04  0.26674240142E+04  0.00000000000E+00 0.  1.
   -9000010    2    1    2    0  501 -0.47857713174E+03 -0.20723088410E+03 -0.11301050689E+04  0.16058624015E+04  0.10147294593E+04 0.  0.
    9000010    2    1    2  502    0  0.47857713174E+03  0.20723088410E+03 -0.10390453398E+04  0.15598352182E+04  0.10399471042E+04 0.  0.
        -13    1    4    4    0    0 -0.29970114338E+03 -0.11504133571E+03 -0.28790901934E+03  0.43121560599E+03  0.10566000000E+00 0.  1.
          4    1    4    4  502    0  0.77827827512E+03  0.32227221981E+03 -0.75113632044E+03  0.11286196122E+04  0.00000000000E+00 0.  1.
         13    1    3    3    0    0  0.21820855153E+02  0.24731160404E+02  0.18073197715E+03  0.18371673507E+03  0.10566000000E+00 0. -1.
         -4    1    3    3    0  501 -0.50039798690E+03 -0.23196204450E+03 -0.13108370460E+04  0.14221456665E+04  0.00000000000E+00 0. -1.
<mgrwt>
<rscale>  0 0.11520898E+04</rscale>
<asrwt>0</asrwt>
<pdfrwt beam="2">  1        4 0.41037292E+00 0.11633876E+04</pdfrwt>
<pdfrwt beam="1">  1       -4 0.76657479E-01 0.11409017E+04</pdfrwt>
<totfact> 0.21584993E-01</totfact>
</mgrwt>
</event>
<event>
 8    1  0.3025584E-006  0.1382014E+04  0.7818608E-02  0.8508787E-01
         -4   -1    0    0    0  501 -0.00000000000E+00  0.00000000000E+00  0.70165542911E+03  0.70165542911E+03  0.00000000000E+00 0. -1.
          4   -1    0    0  502    0  0.00000000000E+00 -0.00000000000E+00 -0.28605250642E+04  0.28605250642E+04  0.00000000000E+00 0.  1.
   -9000010    2    1    2    0  501 -0.76232616298E+03  0.52694981056E+03 -0.46894020073E+03  0.13791039655E+04  0.90730675865E+03 0.  0.
    9000010    2    1    2  502    0  0.76232616298E+03 -0.52694981056E+03 -0.16899294343E+04  0.21830765277E+04  0.10252533108E+04 0.  0.
        -13    1    4    4    0    0  0.33646046369E+03 -0.80346803033E+03 -0.11379598217E+04  0.14330802791E+04  0.10566000000E+00 0.  1.
          4    1    4    4  502    0  0.42586569929E+03  0.27651821978E+03 -0.55196961259E+03  0.74999624861E+03  0.00000000000E+00 0.  1.
         13    1    3    3    0    0 -0.88780507549E+03  0.60923268825E+03 -0.23644513975E+03  0.11023922332E+04  0.10566000000E+00 0. -1.
         -4    1    3    3    0  501  0.12547891251E+03 -0.82282877694E+02 -0.23249506098E+03  0.27671173236E+03  0.00000000000E+00 0. -1.
<mgrwt>
<rscale>  0 0.13387952E+04</rscale>
<asrwt>0</asrwt>
<pdfrwt beam="2">  1        4 0.44008077E+00 0.13820136E+04</pdfrwt>
<pdfrwt beam="1">  1       -4 0.10794699E+00 0.12969282E+04</pdfrwt>
<totfact> 0.80438724E-02</totfact>
</mgrwt>
</event>
<event>
 8    1  0.3025584E-006  0.1204492E+04  0.7818608E-02  0.8611177E-01
         -4   -1    0    0    0  501 -0.00000000000E+00  0.00000000000E+00  0.19955053518E+04  0.19955053518E+04  0.00000000000E+00 0. -1.
          4   -1    0    0  502    0  0.00000000000E+00 -0.00000000000E+00 -0.25999189286E+04  0.25999189286E+04  0.00000000000E+00 0.  1.
   -9000010    2    1    2    0  501  0.56187806390E+03 -0.36794487582E+03  0.16552639889E+04  0.20347712723E+04  0.97432277363E+03 0.  0.
    9000010    2    1    2  502    0 -0.56187806390E+03  0.36794487582E+03 -0.22596775656E+04  0.25606530082E+04  0.99985535818E+03 0.  0.
        -13    1    4    4    0    0 -0.68549716177E+03  0.56671053034E+03 -0.13159456234E+04  0.15883261878E+04  0.10566000000E+00 0.  1.
          4    1    4    4  502    0  0.12361909787E+03 -0.19876565452E+03 -0.94373194227E+03  0.97232682038E+03  0.00000000000E+00 0.  1.
         13    1    3    3    0    0  0.18337612458E+03  0.23610087190E+03  0.10744732837E+04  0.11152861845E+04  0.10566000000E+00 0. -1.
         -4    1    3    3    0  501  0.37850193932E+03 -0.60404574771E+03  0.58079070518E+03  0.91948508776E+03  0.00000000000E+00 0. -1.
<mgrwt>
<rscale>  0 0.11938909E+04</rscale>
<asrwt>0</asrwt>
<pdfrwt beam="2">  1        4 0.39998752E+00 0.12044921E+04</pdfrwt>
<pdfrwt beam="1">  1       -4 0.30700083E+00 0.11833830E+04</pdfrwt>
<totfact> 0.25313687E-02</totfact>
</mgrwt>
</event>
<event>
 8    1  0.3025584E-006  0.1042149E+04  0.7818608E-02  0.8737985E-01
         -4   -1    0    0    0  501 -0.00000000000E+00  0.00000000000E+00  0.26581749854E+04  0.26581749854E+04  0.00000000000E+00 0. -1.
          4   -1    0    0  502    0  0.00000000000E+00 -0.00000000000E+00 -0.19164349650E+04  0.19164349650E+04  0.00000000000E+00 0.  1.
   -9000010    2    1    2    0  501 -0.22652749097E+03 -0.14590518067E+03  0.24011089694E+04  0.26175177459E+04  0.10067133859E+04 0.  0.
    9000010    2    1    2  502    0  0.22652749097E+03  0.14590518067E+03 -0.16593689490E+04  0.19570922044E+04  0.10020486824E+04 0.  0.
        -13    1    4    4    0    0 -0.34846690359E+03 -0.15824590195E+03 -0.70393135584E+03  0.80124298017E+03  0.10566000000E+00 0.  1.
          4    1    4    4  502    0  0.57499439456E+03  0.30415108262E+03 -0.95543759314E+03  0.11558492243E+04  0.00000000000E+00 0.  1.
         13    1    3    3    0    0  0.35599996327E+03  0.61854731532E+02  0.48995574414E+03  0.60878454649E+03  0.10566000000E+00 0. -1.
         -4    1    3    3    0  501 -0.58252745425E+03 -0.20775991220E+03  0.19111532253E+04  0.20087331994E+04  0.00000000000E+00 0. -1.
<mgrwt>
<rscale>  0 0.10398940E+04</rscale>
<asrwt>0</asrwt>
<pdfrwt beam="2">  1        4 0.29483615E+00 0.10376438E+04</pdfrwt>
<pdfrwt beam="1">  1       -4 0.40895000E+00 0.10421492E+04</pdfrwt>
<totfact> 0.25749566E-02</totfact>
</mgrwt>
</event>
<event>
 8    1  0.3025584E-006  0.1191637E+04  0.7818608E-02  0.8613578E-01
         -4   -1    0    0    0  501 -0.00000000000E+00  0.00000000000E+00  0.95689498015E+03  0.95689498015E+03  0.00000000000E+00 0. -1.
          4   -1    0    0  502    0  0.00000000000E+00 -0.00000000000E+00 -0.24016731963E+04  0.24016731963E+04  0.00000000000E+00 0.  1.
   -9000010    2    1    2    0  501  0.50106300877E+03  0.39518919316E+03  0.31728393298E+03  0.12313959714E+04  0.10042053113E+04 0.  0.
    9000010    2    1    2  502    0 -0.50106300877E+03 -0.39518919316E+03 -0.17620621491E+04  0.21271722050E+04  0.10063597445E+04 0.  0.
        -13    1    4    4    0    0  0.11640964001E+03  0.31953131145E+02 -0.11559596457E+04  0.11622456369E+04  0.10566000000E+00 0.  1.
          4    1    4    4  502    0 -0.61747264878E+03 -0.42714232430E+03 -0.60610250345E+03  0.96492656813E+03  0.00000000000E+00 0.  1.
         13    1    3    3    0    0  0.37896942109E+03 -0.27276203832E+03  0.29441298363E+03  0.55199272437E+03  0.10566000000E+00 0. -1.
         -4    1    3    3    0  501  0.12209358768E+03  0.66795123147E+03  0.22870949359E+02  0.67940324705E+03  0.00000000000E+00 0. -1.
<mgrwt>
<rscale>  0 0.11907271E+04</rscale>
<asrwt>0</asrwt>
<pdfrwt beam="2">  1        4 0.36948818E+00 0.11916369E+04</pdfrwt>
<pdfrwt beam="1">  1       -4 0.14721461E+00 0.11898180E+04</pdfrwt>
<totfact> 0.94732326E-02</totfact>
</mgrwt>
</event>
<event>
 8    1  0.3025584E-006  0.1029163E+04  0.7818608E-02  0.8751111E-01
         -4   -1    0    0    0  501 -0.00000000000E+00  0.00000000000E+00  0.19912573564E+04  0.19912573564E+04  0.00000000000E+00 0. -1.
          4   -1    0    0  502    0  0.00000000000E+00 -0.00000000000E+00 -0.27657941330E+04  0.27657941330E+04  0.00000000000E+00 0.  1.
   -9000010    2    1    2    0  501 -0.56117460113E+01  0.24096578227E+03  0.17519302557E+04  0.20318551591E+04  0.10005397378E+04 0.  0.
    9000010    2    1    2  502    0  0.56117460113E+01 -0.24096578227E+03 -0.25264670323E+04  0.27251963302E+04  0.99275544470E+03 0.  0.
        -13    1    4    4    0    0 -0.22077613756E+03  0.33523283142E+03 -0.93209954807E+03  0.10148560158E+04  0.10566000000E+00 0.  1.
          4    1    4    4  502    0  0.22638788357E+03 -0.57619861369E+03 -0.15943674842E+04  0.17103403144E+04  0.00000000000E+00 0.  1.
         13    1    3    3    0    0 -0.13453258406E+03  0.40737880578E+03  0.17693569875E+04  0.18206264493E+04  0.10566000000E+00 0. -1.
         -4    1    3    3    0  501  0.12892083804E+03 -0.16641302351E+03 -0.17426731788E+02  0.21122870983E+03  0.00000000000E+00 0. -1.
<mgrwt>
<rscale>  0 0.10253726E+04</rscale>
<asrwt>0</asrwt>
<pdfrwt beam="2">  1        4 0.42550679E+00 0.10215965E+04</pdfrwt>
<pdfrwt beam="1">  1       -4 0.30634729E+00 0.10291627E+04</pdfrwt>
<totfact> 0.20509012E-02</totfact>
</mgrwt>
</event>
<event>
 8    1  0.3025584E-006  0.1115302E+04  0.7818608E-02  0.8679299E-01
         -4   -1    0    0    0  501 -0.00000000000E+00  0.00000000000E+00  0.87608953512E+03  0.87608953512E+03  0.00000000000E+00 0. -1.
          4   -1    0    0  502    0  0.00000000000E+00 -0.00000000000E+00 -0.16187400894E+04  0.16187400894E+04  0.00000000000E+00 0.  1.
   -9000010    2    1    2    0  501  0.13786856478E+03  0.44454496036E+03  0.88036772731E+02  0.11041678871E+04  0.99740076526E+03 0.  0.
    9000010    2    1    2  502    0 -0.13786856478E+03 -0.44454496036E+03 -0.83068732705E+03  0.13906617375E+04  0.10135436201E+04 0.  0.
        -13    1    4    4    0    0  0.29534976340E+03 -0.21163645754E+03  0.64709685346E+02  0.36906480114E+03  0.10566000000E+00 0.  1.
          4    1    4    4  502    0 -0.43321832818E+03 -0.23290850282E+03 -0.89539701239E+03  0.10215969363E+04  0.00000000000E+00 0.  1.
         13    1    3    3    0    0 -0.19415896728E+02  0.14632766730E+03 -0.44756854475E+03  0.47128163202E+03  0.10566000000E+00 0. -1.
         -4    1    3    3    0  501  0.15728446151E+03  0.29821729306E+03  0.53560531748E+03  0.63288625505E+03  0.00000000000E+00 0. -1.
<mgrwt>
<rscale>  0 0.11079531E+04</rscale>
<asrwt>0</asrwt>
<pdfrwt beam="2">  1        4 0.24903694E+00 0.11153020E+04</pdfrwt>
<pdfrwt beam="1">  1       -4 0.13478301E+00 0.11006526E+04</pdfrwt>
<totfact> 0.23919409E-01</totfact>
</mgrwt>
</event>
<event>
 8    1  0.3025584E-006  0.1136260E+04  0.7818608E-02  0.8670687E-01
         -4   -1    0    0    0  501 -0.00000000000E+00  0.00000000000E+00  0.18209939780E+04  0.18209939780E+04  0.00000000000E+00 0. -1.
          4   -1    0    0  502    0  0.00000000000E+00 -0.00000000000E+00 -0.91845461563E+03  0.91845461563E+03  0.00000000000E+00 0.  1.
   -9000010    2    1    2    0  501 -0.32395092428E+03 -0.37988495785E+03  0.11333821424E+04  0.15799765207E+04  0.98107794943E+03 0.  0.
    9000010    2    1    2  502    0  0.32395092428E+03  0.37988495785E+03 -0.23084278004E+03  0.11594720729E+04  0.10207008945E+04 0.  0.
        -13    1    4    4    0    0  0.47656731626E+03  0.63732025194E+03 -0.30315745364E+03  0.85158555843E+03  0.10566000000E+00 0.  1.
          4    1    4    4  502    0 -0.15261639199E+03 -0.25743529410E+03  0.72314673596E+02  0.30788651443E+03  0.00000000000E+00 0.  1.
         13    1    3    3    0    0 -0.16124000942E+03  0.38983120962E+01 -0.15630283022E+03  0.22459769227E+03  0.10566000000E+00 0. -1.
         -4    1    3    3    0  501 -0.16271091486E+03 -0.38378326994E+03  0.12896849726E+04  0.13553788285E+04  0.00000000000E+00 0. -1.
<mgrwt>
<rscale>  0 0.11183919E+04</rscale>
<asrwt>0</asrwt>
<pdfrwt beam="2">  1        4 0.14130071E+00 0.11362601E+04</pdfrwt>
<pdfrwt beam="1">  1       -4 0.28015292E+00 0.11008046E+04</pdfrwt>
<totfact> 0.18758970E-01</totfact>
</mgrwt>
</event>
<event>
 8    1  0.3025584E-006  0.1115054E+04  0.7818608E-02  0.8677937E-01
          4   -1    0    0  502    0  0.00000000000E+00  0.00000000000E+00  0.89124538749E+03  0.89124538749E+03  0.00000000000E+00 0.  1.
         -4   -1    0    0    0  501 -0.00000000000E+00 -0.00000000000E+00 -0.49780356002E+04  0.49780356002E+04  0.00000000000E+00 0. -1.
   -9000010    2    1    2    0  501  0.49894648177E+03 -0.48629571428E+02 -0.45405895299E+04  0.46754998811E+04  0.99600875109E+03 0.  0.
    9000010    2    1    2  502    0 -0.49894648177E+03  0.48629571428E+02  0.45379931724E+03  0.11937811065E+04  0.98380235978E+03 0.  0.
        -13    1    4    4    0    0  0.19043847771E+03  0.34677406905E+02 -0.17473724820E+03  0.26077280038E+03  0.10566000000E+00 0.  1.
          4    1    4    4  502    0 -0.68938495949E+03  0.13952164523E+02  0.62853656544E+03  0.93300830616E+03  0.00000000000E+00 0.  1.
         13    1    3    3    0    0  0.99960991709E+02 -0.49474630539E+03 -0.24194725574E+04  0.24715609589E+04  0.10566000000E+00 0. -1.
         -4    1    3    3    0  501  0.39898549006E+03  0.44611673396E+03 -0.21211169725E+04  0.22039389222E+04  0.00000000000E+00 0. -1.
<mgrwt>
<rscale>  0 0.11095960E+04</rscale>
<asrwt>0</asrwt>
<pdfrwt beam="1">  1        4 0.13711467E+00 0.11041646E+04</pdfrwt>
<pdfrwt beam="2">  1       -4 0.76585165E+00 0.11150542E+04</pdfrwt>
<totfact> 0.11066959E-03</totfact>
</mgrwt>
</event>
<event>
 8    1  0.3025584E-006  0.1062680E+04  0.7818608E-02  0.8764596E-01
          4   -1    0    0  502    0  0.00000000000E+00  0.00000000000E+00  0.30634068220E+04  0.30634068220E+04  0.00000000000E+00 0.  1.
         -4   -1    0    0    0  501 -0.00000000000E+00 -0.00000000000E+00 -0.96692487215E+03  0.96692487215E+03  0.00000000000E+00 0. -1.
   -9000010    2    1    2    0  501 -0.29380130361E+03 -0.12757309439E+03 -0.59920762681E+03  0.11327409683E+04  0.90634332389E+03 0.  0.
    9000010    2    1    2  502    0  0.29380130361E+03  0.12757309439E+03  0.26956895767E+04  0.28975907259E+04  0.10132598978E+04 0.  0.
        -13    1    4    4    0    0  0.24587499139E+03 -0.21500368359E+03  0.21079702280E+03  0.38873704652E+03  0.10566000000E+00 0.  1.
          4    1    4    4  502    0  0.47926312219E+02  0.34257677798E+03  0.24848925539E+04  0.25088536794E+04  0.00000000000E+00 0.  1.
         13    1    3    3    0    0 -0.20569972494E+03  0.12275041825E+03 -0.77715037071E+03  0.81322982722E+03  0.10566000000E+00 0. -1.
         -4    1    3    3    0  501 -0.88101578675E+02 -0.25032351264E+03  0.17794274390E+03  0.31951114105E+03  0.00000000000E+00 0. -1.
<mgrwt>
<rscale>  0 0.10107075E+04</rscale>
<asrwt>0</asrwt>
<pdfrwt beam="1">  1        4 0.47129335E+00 0.10626804E+04</pdfrwt>
<pdfrwt beam="2">  1       -4 0.14875767E+00 0.96127640E+03</pdfrwt>
<totfact> 0.34851519E-02</totfact>
</mgrwt>
</event>
<event>
 8    1  0.3025584E-006  0.1048374E+04  0.7818608E-02  0.8768712E-01
          4   -1    0    0  502    0  0.00000000000E+00  0.00000000000E+00  0.68180014357E+03  0.68180014357E+03  0.00000000000E+00 0.  1.
         -4   -1    0    0    0  501 -0.00000000000E+00 -0.00000000000E+00 -0.32852499981E+04  0.32852499981E+04  0.00000000000E+00 0. -1.
   -9000010    2    1    2    0  501 -0.30937082994E+03  0.10547971717E+03 -0.27925314200E+04  0.29828375964E+04  0.99611852399E+03 0.  0.
    9000010    2    1    2  502    0  0.30937082994E+03 -0.10547971717E+03  0.18908156544E+03  0.98421254526E+03  0.90889285106E+03 0.  0.
        -13    1    4    4    0    0  0.12678659101E+03 -0.49933381643E+03  0.19281524281E+03  0.55007892971E+03  0.10566000000E+00 0.  1.
          4    1    4    4  502    0  0.18258423894E+03  0.39385409926E+03 -0.37336773616E+01  0.43413361556E+03  0.00000000000E+00 0.  1.
         13    1    3    3    0    0 -0.16171564117E+03 -0.85508899642E+02 -0.30774248944E+01  0.18295683159E+03  0.10566000000E+00 0. -1.
         -4    1    3    3    0  501 -0.14765518877E+03  0.19098861681E+03 -0.27894539951E+04  0.27998807648E+04  0.00000000000E+00 0. -1.
<mgrwt>
<rscale>  0 0.10062816E+04</rscale>
<asrwt>0</asrwt>
<pdfrwt beam="1">  1        4 0.10489233E+00 0.96587913E+03</pdfrwt>
<pdfrwt beam="2">  1       -4 0.50542308E+00 0.10483742E+04</pdfrwt>
<totfact> 0.43013490E-02</totfact>
</mgrwt>
</event>
<event>
 8    1  0.3025584E-006  0.1355977E+04  0.7818608E-02  0.8500272E-01
         -4   -1    0    0    0  501 -0.00000000000E+00  0.00000000000E+00  0.28334478219E+04  0.28334478219E+04  0.00000000000E+00 0. -1.
          4   -1    0    0  502    0  0.00000000000E+00 -0.00000000000E+00 -0.11188095128E+04  0.11188095128E+04  0.00000000000E+00 0.  1.
   -9000010    2    1    2    0  501  0.82204270911E+01 -0.90944034182E+03  0.21418989541E+04  0.25305588771E+04  0.99440826134E+03 0.  0.
    9000010    2    1    2  502    0 -0.82204270911E+01  0.90944034182E+03 -0.42726064504E+03  0.14216984576E+04  0.10057462576E+04 0.  0.
        -13    1    4    4    0    0  0.12127459687E+03  0.45433893414E+03  0.29728478446E+03  0.55633591396E+03  0.10566000000E+00 0.  1.
          4    1    4    4  502    0 -0.12949502396E+03  0.45510140768E+03 -0.72454542949E+03  0.86536254362E+03  0.00000000000E+00 0.  1.
         13    1    3    3    0    0 -0.43447823428E+03 -0.75166826063E+03  0.12425908107E+04  0.15158523820E+04  0.10566000000E+00 0. -1.
         -4    1    3    3    0  501  0.44269866138E+03 -0.15777208119E+03  0.89930814341E+03  0.10147064951E+04  0.00000000000E+00 0. -1.
<mgrwt>
<rscale>  0 0.13517769E+04</rscale>
<asrwt>0</asrwt>
<pdfrwt beam="2">  1        4 0.17212454E+00 0.13559775E+04</pdfrwt>
<pdfrwt beam="1">  1       -4 0.43591505E+00 0.13475894E+04</pdfrwt>
<totfact> 0.40377007E-02</totfact>
</mgrwt>
</event>
<event>
 8    1  0.3025584E-006  0.1327459E+04  0.7818608E-02  0.8529276E-01
         -4   -1    0    0    0  501 -0.00000000000E+00  0.00000000000E+00  0.24253190355E+04  0.24253190355E+04  0.00000000000E+00 0. -1.
          4   -1    0    0  502    0  0.00000000000E+00 -0.00000000000E+00 -0.14400420712E+04  0.14400420712E+04  0.00000000000E+00 0.  1.
   -9000010    2    1    2    0  501 -0.28741316664E+03  0.81770914198E+03  0.18761874333E+04  0.22983092792E+04  0.10054310959E+04 0.  0.
    9000010    2    1    2  502    0  0.28741316664E+03 -0.81770914198E+03 -0.89091046904E+03  0.15670518275E+04  0.95429314001E+03 0.  0.
        -13    1    4    4    0    0 -0.89542513352E+02 -0.77956317857E+03 -0.25184200562E+03  0.82411226057E+03  0.10566000000E+00 0.  1.
          4    1    4    4  502    0  0.37695567999E+03 -0.38145963415E+02 -0.63906846343E+03  0.74293956695E+03  0.00000000000E+00 0.  1.
         13    1    3    3    0    0  0.37433265155E+03  0.34843875513E+03  0.63178683994E+03  0.81282785531E+03  0.10566000000E+00 0. -1.
         -4    1    3    3    0  501 -0.66174581818E+03  0.46927038685E+03  0.12444005934E+04  0.14854814238E+04  0.00000000000E+00 0. -1.
<mgrwt>
<rscale>  0 0.13081684E+04</rscale>
<asrwt>0</asrwt>
<pdfrwt beam="2">  1        4 0.22154494E+00 0.12891586E+04</pdfrwt>
<pdfrwt beam="1">  1       -4 0.37312600E+00 0.13274586E+04</pdfrwt>
<totfact> 0.51935120E-02</totfact>
</mgrwt>
</event>
<event>
 8    1  0.3025584E-006  0.1211716E+04  0.7818608E-02  0.8599545E-01
          4   -1    0    0  502    0  0.00000000000E+00  0.00000000000E+00  0.14090073287E+04  0.14090073287E+04  0.00000000000E+00 0.  1.
         -4   -1    0    0    0  501 -0.00000000000E+00 -0.00000000000E+00 -0.10453928717E+04  0.10453928717E+04  0.00000000000E+00 0. -1.
   -9000010    2    1    2    0  501  0.50199578648E+03 -0.42640026087E+03  0.28458818266E+03  0.12401098608E+04  0.10114667968E+04 0.  0.
    9000010    2    1    2  502    0 -0.50199578648E+03  0.42640026087E+03  0.79026274343E+02  0.12142903395E+04  0.10170737065E+04 0.  0.
        -13    1    4    4    0    0 -0.40685488147E+03  0.45820960378E+02  0.49508863742E+03  0.64245095147E+03  0.10566000000E+00 0.  1.
          4    1    4    4  502    0 -0.95140905016E+02  0.38057930049E+03 -0.41606236308E+03  0.57183938806E+03  0.00000000000E+00 0.  1.
         13    1    3    3    0    0  0.88888604906E+02 -0.48747285648E+03 -0.25542230360E+03  0.55746886391E+03  0.10566000000E+00 0. -1.
         -4    1    3    3    0  501  0.41310718158E+03  0.61072595611E+02  0.54001048626E+03  0.68264099692E+03  0.00000000000E+00 0. -1.
<mgrwt>
<rscale>  0 0.12093626E+04</rscale>
<asrwt>0</asrwt>
<pdfrwt beam="1">  1        4 0.21677036E+00 0.12117161E+04</pdfrwt>
<pdfrwt beam="2">  1       -4 0.16082967E+00 0.12070137E+04</pdfrwt>
<totfact> 0.22004355E-01</totfact>
</mgrwt>
</event>
<event>
 8    1  0.3025584E-006  0.1289638E+04  0.7818608E-02  0.8551168E-01
         -4   -1    0    0    0  501 -0.00000000000E+00  0.00000000000E+00  0.14767146532E+04  0.14767146532E+04  0.00000000000E+00 0.  1.
          4   -1    0    0  502    0  0.00000000000E+00 -0.00000000000E+00 -0.11749507573E+04  0.11749507573E+04  0.00000000000E+00 0. -1.
   -9000010    2    1    2    0  501 -0.52314445522E+03  0.62182144863E+03  0.47966945481E+03  0.13759535336E+04  0.10014106579E+04 0.  0.
    9000010    2    1    2  502    0  0.52314445522E+03 -0.62182144863E+03 -0.17790555889E+03  0.12757118769E+04  0.96718579909E+03 0.  0.
        -13    1    4    4    0    0  0.50188844997E+03 -0.11398976098E+03 -0.46356726315E+03  0.69266175039E+03  0.10566000000E+00 0.  1.
          4    1    4    4  502    0  0.21256005247E+02 -0.50783168765E+03  0.28566170425E+03  0.58305012651E+03  0.00000000000E+00 0.  1.
         13    1    3    3    0    0  0.24516467424E+03  0.32938114649E+03 -0.24925423959E+02  0.41136230391E+03  0.10566000000E+00 0. -1.
         -4    1    3    3    0  501 -0.76830912946E+03  0.29244030214E+03  0.50459487877E+03  0.96459122969E+03  0.00000000000E+00 0. -1.
<mgrwt>
<rscale>  0 0.12763736E+04</rscale>
<asrwt>0</asrwt>
<pdfrwt beam="2">  1        4 0.18076165E+00 0.12632460E+04</pdfrwt>
<pdfrwt beam="1">  1       -4 0.22718687E+00 0.12896377E+04</pdfrwt>
<totfact> 0.17534344E-01</totfact>
</mgrwt>
</event>
<event>
 8    1  0.3025584E-006  0.1310811E+04  0.7818608E-02  0.8530820E-01
          4   -1    0    0  502    0  0.00000000000E+00  0.00000000000E+00  0.12161221677E+04  0.12161221677E+04  0.00000000000E+00 0.  1.
         -4   -1    0    0    0  501 -0.00000000000E+00 -0.00000000000E+00 -0.26360173208E+04  0.26360173208E+04  0.00000000000E+00 0. -1.
   -9000010    2    1    2    0  501 -0.56403342291E+03 -0.60708576432E+03 -0.20290211511E+04  0.24156061537E+04  0.10156472965E+04 0.  0.
    9000010    2    1    2  502    0  0.56403342291E+03  0.60708576432E+03  0.60912599800E+03  0.14365333348E+04  0.10029490083E+04 0.  0.
        -13    1    4    4    0    0  0.81733438894E+03  0.28482066462E+03  0.54183702596E+03  0.10211491998E+04  0.10566000000E+00 0.  1.
          4    1    4    4  502    0 -0.25330096604E+03  0.32226509970E+03  0.67288972037E+02  0.41538413503E+03  0.00000000000E+00 0.  1.
         13    1    3    3    0    0 -0.62618939902E+03  0.65894541095E+02 -0.10875378441E+04  0.12566597899E+04  0.10566000000E+00 0. -1.
         -4    1    3    3    0  501  0.62155976116E+02 -0.67298030542E+03 -0.94148330700E+03  0.11589463638E+04  0.00000000000E+00 0. -1.
<mgrwt>
<rscale>  0 0.13058950E+04</rscale>
<asrwt>0</asrwt>
<pdfrwt beam="1">  1        4 0.18709572E+00 0.13009971E+04</pdfrwt>
<pdfrwt beam="2">  1       -4 0.40554112E+00 0.13108113E+04</pdfrwt>
<totfact> 0.48493405E-02</totfact>
</mgrwt>
</event>
<event>
 8    1  0.3025584E-006  0.1404178E+04  0.7818608E-02  0.8481384E-01
          4   -1    0    0  502    0  0.00000000000E+00  0.00000000000E+00  0.13154639692E+04  0.13154639692E+04  0.00000000000E+00 0.  1.
         -4   -1    0    0    0  501 -0.00000000000E+00 -0.00000000000E+00 -0.17512543913E+04  0.17512543913E+04  0.00000000000E+00 0. -1.
   -9000010    2    1    2    0  501 -0.45573621145E+03  0.79429814239E+03 -0.85631511710E+03  0.16446857651E+04  0.10644767037E+04 0.  0.
    9000010    2    1    2  502    0  0.45573621145E+03 -0.79429814239E+03  0.42052469504E+03  0.14220325954E+04  0.10033596812E+04 0.  0.
        -13    1    4    4    0    0  0.44917712544E+03 -0.55306022632E+03  0.73631013360E+03  0.10245917860E+04  0.10566000000E+00 0.  1.
          4    1    4    4  502    0  0.65590860051E+01 -0.24123791608E+03 -0.31578543856E+03  0.39744080939E+03  0.00000000000E+00 0.  1.
         13    1    3    3    0    0 -0.46730734019E+03  0.16945727336E+03 -0.88937707062E+03  0.10188638293E+04  0.10566000000E+00 0. -1.
         -4    1    3    3    0  501  0.11571128738E+02  0.62484086903E+03  0.33061953517E+02  0.62582193586E+03  0.00000000000E+00 0. -1.
<mgrwt>
<rscale>  0 0.13811152E+04</rscale>
<asrwt>0</asrwt>
<pdfrwt beam="1">  1        4 0.20237907E+00 0.13584313E+04</pdfrwt>
<pdfrwt beam="2">  1       -4 0.26942375E+00 0.14041779E+04</pdfrwt>
<totfact> 0.11874538E-01</totfact>
</mgrwt>
</event>
<event>
 8    1  0.3025584E-006  0.1146258E+04  0.7818608E-02  0.8649005E-01
          4   -1    0    0  502    0  0.00000000000E+00  0.00000000000E+00  0.19475632852E+04  0.19475632852E+04  0.00000000000E+00 0.  1.
         -4   -1    0    0    0  501 -0.00000000000E+00 -0.00000000000E+00 -0.19000454774E+04  0.19000454774E+04  0.00000000000E+00 0. -1.
   -9000010    2    1    2    0  501  0.41246058190E+02 -0.54644676920E+03 -0.15219762100E+04  0.19053393368E+04  0.10067775800E+04 0.  0.
    9000010    2    1    2  502    0 -0.41246058190E+02  0.54644676920E+03  0.15694940178E+04  0.19422694259E+04  0.10043872470E+04 0.  0.
        -13    1    4    4    0    0 -0.42900575991E+03  0.44533133968E+03  0.13511359182E+04  0.14859119169E+04  0.10566000000E+00 0.  1.
          4    1    4    4  502    0  0.38775970172E+03  0.10111542952E+03  0.21835809966E+03  0.45635750903E+03  0.00000000000E+00 0.  1.
         13    1    3    3    0    0  0.37234640651E+02 -0.48803651443E+03 -0.12238449894E+03  0.50452357192E+03  0.10566000000E+00 0. -1.
         -4    1    3    3    0  501  0.40114175397E+01 -0.58410254776E+02 -0.13995917111E+04  0.14008157649E+04  0.00000000000E+00 0. -1.
<mgrwt>
<rscale>  0 0.11452076E+04</rscale>
<asrwt>0</asrwt>
<pdfrwt beam="1">  1        4 0.29962512E+00 0.11441587E+04</pdfrwt>
<pdfrwt beam="2">  1       -4 0.29231469E+00 0.11462576E+04</pdfrwt>
<totfact> 0.60074112E-02</totfact>
</mgrwt>
</event>
<event>
 8    1  0.3025584E-006  0.1460889E+04  0.7818608E-02  0.8433731E-01
         -4   -1    0    0    0  501 -0.00000000000E+00  0.00000000000E+00  0.60001976535E+03  0.60001976535E+03  0.00000000000E+00 0. -1.
          4   -1    0    0  502    0  0.00000000000E+00 -0.00000000000E+00 -0.37962933036E+04  0.37962933036E+04  0.00000000000E+00 0.  1.
   -9000010    2    1    2    0  501  0.78070161873E+03  0.70166121508E+03 -0.21604946082E+04  0.26054939121E+04  0.10094741681E+04 0.  0.
    9000010    2    1    2  502    0 -0.78070161873E+03 -0.70166121508E+03 -0.10357789301E+04  0.17908191568E+04  0.10160569778E+04 0.  0.
        -13    1    4    4    0    0 -0.51374069815E+03 -0.77020867902E+03 -0.25129113401E+03  0.95932171839E+03  0.10566000000E+00 0.  1.
          4    1    4    4  502    0 -0.26696092058E+03  0.68547463938E+02 -0.78448779608E+03  0.83149743844E+03  0.00000000000E+00 0.  1.
         13    1    3    3    0    0  0.85740463293E+03  0.73643832229E+03 -0.22275162696E+04  0.24978616555E+04  0.10566000000E+00 0. -1.
         -4    1    3    3    0  501 -0.76703014204E+02 -0.34777107204E+02  0.67021661468E+02  0.10763225669E+03  0.00000000000E+00 0. -1.
<mgrwt>
<rscale>  0 0.14586014E+04</rscale>
<asrwt>0</asrwt>
<pdfrwt beam="2">  1        4 0.58404512E+00 0.14608885E+04</pdfrwt>
<pdfrwt beam="1">  1       -4 0.92310733E-01 0.14563178E+04</pdfrwt>
<totfact> 0.21102848E-02</totfact>
</mgrwt>
</event>
<event>
 8    1  0.3025584E-006  0.1117958E+04  0.7818608E-02  0.8676620E-01
         -4   -1    0    0    0  501 -0.00000000000E+00  0.00000000000E+00  0.17163993074E+04  0.17163993074E+04  0.00000000000E+00 0. -1.
          4   -1    0    0  502    0  0.00000000000E+00 -0.00000000000E+00 -0.19927482946E+04  0.19927482946E+04  0.00000000000E+00 0.  1.
   -9000010    2    1    2    0  501  0.33476064028E+03  0.35255699182E+03  0.13446059424E+04  0.17400550170E+04  0.99169814111E+03 0.  0.
    9000010    2    1    2  502    0 -0.33476064028E+03 -0.35255699182E+03 -0.16209549297E+04  0.19690925849E+04  0.10067122753E+04 0.  0.
        -13    1    4    4    0    0 -0.59503538514E+03  0.30312139790E+02 -0.12155606443E+04  0.13537258314E+04  0.10566000000E+00 0.  1.
          4    1    4    4  502    0  0.26027474486E+03 -0.38286913161E+03 -0.40539428532E+03  0.61536675351E+03  0.00000000000E+00 0.  1.
         13    1    3    3    0    0  0.35732669449E+03  0.67644211131E+03  0.10668049704E+04  0.13127563188E+04  0.10566000000E+00 0. -1.
         -4    1    3    3    0  501 -0.22566054213E+02 -0.32388511949E+03  0.27780097199E+03  0.42729869818E+03  0.00000000000E+00 0. -1.
<mgrwt>
<rscale>  0 0.11111874E+04</rscale>
<asrwt>0</asrwt>
<pdfrwt beam="2">  1        4 0.30657666E+00 0.11179583E+04</pdfrwt>
<pdfrwt beam="1">  1       -4 0.26406143E+00 0.11044575E+04</pdfrwt>
<totfact> 0.67918003E-02</totfact>
</mgrwt>
</event>
<event>
 8    1  0.3025584E-006  0.1111229E+04  0.7818608E-02  0.8679746E-01
         -4   -1    0    0    0  501 -0.00000000000E+00  0.00000000000E+00  0.80539277025E+03  0.80539277025E+03  0.00000000000E+00 0. -1.
          4   -1    0    0  502    0  0.00000000000E+00 -0.00000000000E+00 -0.20681292773E+04  0.20681292773E+04  0.00000000000E+00 0.  1.
   -9000010    2    1    2    0  501  0.11344472158E+03 -0.47592125040E+03  0.10486649771E+03  0.11161660968E+04  0.99772693252E+03 0.  0.
    9000010    2    1    2  502    0 -0.11344472158E+03  0.47592125040E+03 -0.13676030047E+04  0.17573559507E+04  0.98923769518E+03 0.  0.
        -13    1    4    4    0    0 -0.30896167057E+03  0.60476981077E+02 -0.12420762876E+04  0.12813540863E+04  0.10566000000E+00 0.  1.
          4    1    4    4  502    0  0.19551694899E+03  0.41544426932E+03 -0.12552671720E+03  0.47600186447E+03  0.00000000000E+00 0.  1.
         13    1    3    3    0    0  0.41359977264E+02  0.13459347865E+03  0.40736753551E+03  0.43101551291E+03  0.10566000000E+00 0. -1.
         -4    1    3    3    0  501  0.72084744320E+02 -0.61051472904E+03 -0.30250103780E+03  0.68515058390E+03  0.00000000000E+00 0. -1.
<mgrwt>
<rscale>  0 0.11074145E+04</rscale>
<asrwt>0</asrwt>
<pdfrwt beam="2">  1        4 0.31817374E+00 0.11036131E+04</pdfrwt>
<pdfrwt beam="1">  1       -4 0.12390658E+00 0.11112289E+04</pdfrwt>
<totfact> 0.18246924E-01</totfact>
</mgrwt>
</event>
<event>
 8    1  0.3025584E-006  0.1159637E+04  0.7818608E-02  0.8643886E-01
          4   -1    0    0  502    0  0.00000000000E+00  0.00000000000E+00  0.66085453874E+03  0.66085453874E+03  0.00000000000E+00 0.  1.
         -4   -1    0    0    0  501 -0.00000000000E+00 -0.00000000000E+00 -0.29782043206E+04  0.29782043206E+04  0.00000000000E+00 0. -1.
   -9000010    2    1    2    0  501  0.57466826193E+03  0.25185283777E+02 -0.21922888650E+04  0.24726979486E+04  0.98854780724E+03 0.  0.
    9000010    2    1    2  502    0 -0.57466826193E+03 -0.25185283777E+02 -0.12506091679E+03  0.11663609108E+04  0.10069159009E+04 0.  0.
        -13    1    4    4    0    0 -0.29797822276E+03  0.17088313583E+03 -0.53410364140E+03  0.63502659651E+03  0.10566000000E+00 0.  1.
          4    1    4    4  502    0 -0.27669003917E+03 -0.19606841961E+03  0.40904272461E+03  0.53133431425E+03  0.00000000000E+00 0.  1.
         13    1    3    3    0    0  0.35902825409E+03 -0.19986114342E+03 -0.21109569084E+04  0.21505777931E+04  0.10566000000E+00 0. -1.
         -4    1    3    3    0  501  0.21564000784E+03  0.22504642719E+03 -0.81331956633E+02  0.32212015544E+03  0.00000000000E+00 0. -1.
<mgrwt>
<rscale>  0 0.11516529E+04</rscale>
<asrwt>0</asrwt>
<pdfrwt beam="1">  1        4 0.10166993E+00 0.11596368E+04</pdfrwt>
<pdfrwt beam="2">  1       -4 0.45818529E+00 0.11437240E+04</pdfrwt>
<totfact> 0.75319381E-02</totfact>
</mgrwt>
</event>
<event>
 8    1  0.3025584E-006  0.1038107E+04  0.7818608E-02  0.8757288E-01
          4   -1    0    0  502    0  0.00000000000E+00  0.00000000000E+00  0.26910237881E+04  0.26910237881E+04  0.00000000000E+00 0.  1.
         -4   -1    0    0    0  501 -0.00000000000E+00 -0.00000000000E+00 -0.65905782750E+03  0.65905782750E+03  0.00000000000E+00 0. -1.
   -9000010    2    1    2    0  501  0.26942024517E+02 -0.20047024017E+03 -0.51383428915E+02  0.10393774373E+04  0.10182097085E+04 0.  0.
    9000010    2    1    2  502    0 -0.26942024517E+02  0.20047024017E+03  0.20833493895E+04  0.23107041783E+04  0.97882323782E+03 0.  0.
        -13    1    4    4    0    0  0.45382108305E+03  0.19807448301E+03  0.80691430952E+03  0.94673005144E+03  0.10566000000E+00 0.  1.
          4    1    4    4  502    0 -0.48076310757E+03  0.23957571648E+01  0.12764350800E+04  0.13639741268E+04  0.00000000000E+00 0.  1.
         13    1    3    3    0    0  0.33051005659E+03 -0.49467980483E+02  0.36996383893E+03  0.49855514427E+03  0.10566000000E+00 0. -1.
         -4    1    3    3    0  501 -0.30356803208E+03 -0.15100225969E+03 -0.42134726784E+03  0.54082229304E+03  0.00000000000E+00 0. -1.
<mgrwt>
<rscale>  0 0.10186226E+04</rscale>
<asrwt>0</asrwt>
<pdfrwt beam="1">  1        4 0.41400365E+00 0.99950444E+03</pdfrwt>
<pdfrwt beam="2">  1       -4 0.10139351E+00 0.10381065E+04</pdfrwt>
<totfact> 0.12078927E-01</totfact>
</mgrwt>
</event>
<event>
 8    1  0.3025584E-006  0.1131070E+04  0.7818608E-02  0.8670246E-01
          4   -1    0    0  502    0  0.00000000000E+00  0.00000000000E+00  0.10169428311E+04  0.10169428311E+04  0.00000000000E+00 0.  1.
         -4   -1    0    0    0  501 -0.00000000000E+00 -0.00000000000E+00 -0.15611052547E+04  0.15611052547E+04  0.00000000000E+00 0. -1.
   -9000010    2    1    2    0  501  0.91712692626E+02  0.48084706519E+03 -0.86222940151E+03  0.14031070368E+04  0.99279640302E+03 0.  0.
    9000010    2    1    2  502    0 -0.91712692626E+02 -0.48084706519E+03  0.31806697783E+03  0.11749410490E+04  0.10196542297E+04 0.  0.
        -13    1    4    4    0    0  0.12886825691E+03  0.29533081668E+03  0.59964755049E+02  0.32775463679E+03  0.10566000000E+00 0.  1.
          4    1    4    4  502    0 -0.22058094954E+03 -0.77617788187E+03  0.25810222278E+03  0.84718641220E+03  0.00000000000E+00 0.  1.
         13    1    3    3    0    0 -0.11664820096E+03  0.60852790786E+03 -0.95777570933E+03  0.11407222878E+04  0.10566000000E+00 0. -1.
         -4    1    3    3    0  501  0.20836089358E+03 -0.12768084267E+03  0.95546307813E+02  0.26238474898E+03  0.00000000000E+00 0. -1.
<mgrwt>
<rscale>  0 0.11189295E+04</rscale>
<asrwt>0</asrwt>
<pdfrwt beam="1">  1        4 0.15645274E+00 0.11310702E+04</pdfrwt>
<pdfrwt beam="2">  1       -4 0.24017004E+00 0.11069191E+04</pdfrwt>
<totfact> 0.20087869E-01</totfact>
</mgrwt>
</event>
<event>
 8    1  0.3025584E-006  0.1294528E+04  0.7818608E-02  0.8548322E-01
         -4   -1    0    0    0  501 -0.00000000000E+00  0.00000000000E+00  0.35849856840E+04  0.35849856840E+04  0.00000000000E+00 0.  1.
          4   -1    0    0  502    0  0.00000000000E+00 -0.00000000000E+00 -0.46684982357E+03  0.46684982357E+03  0.00000000000E+00 0. -1.
   -9000010    2    1    2    0  501 -0.24258064172E+03  0.77842573204E+03  0.12541034973E+04  0.17823821675E+04  0.96918451346E+03 0.  0.
    9000010    2    1    2  502    0  0.24258064172E+03 -0.77842573204E+03  0.18640323632E+04  0.22694533401E+04  0.10054898427E+04 0.  0.
        -13    1    4    4    0    0  0.52414846153E+03 -0.48965953808E+03  0.57654750773E+03  0.92027447687E+03  0.10566000000E+00 0.  1.
          4    1    4    4  502    0 -0.28156781981E+03 -0.28876619396E+03  0.12874848554E+04  0.13491788632E+04  0.00000000000E+00 0.  1.
         13    1    3    3    0    0 -0.41433893571E+03  0.81756395701E+03  0.13088895982E+04  0.15978984852E+04  0.10566000000E+00 0. -1.
         -4    1    3    3    0  501  0.17175829399E+03 -0.39138224975E+02 -0.54786100893E+02  0.18448368237E+03  0.00000000000E+00 0. -1.
<mgrwt>
<rscale>  0 0.12804548E+04</rscale>
<asrwt>0</asrwt>
<pdfrwt beam="2">  1        4 0.71823052E-01 0.12945276E+04</pdfrwt>
<pdfrwt beam="1">  1       -4 0.55153624E+00 0.12665349E+04</pdfrwt>
<totfact> 0.54306419E-02</totfact>
</mgrwt>
</event>
<event>
 8    1  0.3025584E-006  0.1131676E+04  0.7818608E-02  0.8672595E-01
         -4   -1    0    0    0  501 -0.00000000000E+00  0.00000000000E+00  0.37974713674E+03  0.37974713674E+03  0.00000000000E+00 0. -1.
          4   -1    0    0  502    0  0.00000000000E+00 -0.00000000000E+00 -0.38776563222E+04  0.38776563222E+04  0.00000000000E+00 0.  1.
   -9000010    2    1    2    0  501 -0.39494956204E+03  0.37056376241E+03 -0.93437529104E+03  0.14675655289E+04  0.99367436244E+03 0.  0.
    9000010    2    1    2  502    0  0.39494956204E+03 -0.37056376241E+03 -0.25635338944E+04  0.27898379300E+04  0.95822074151E+03 0.  0.
        -13    1    4    4    0    0 -0.67675302487E+02  0.28730720626E+03 -0.63049380566E+03  0.69616652281E+03  0.10566000000E+00 0.  1.
          4    1    4    4  502    0  0.46262486452E+03 -0.65787096867E+03 -0.19330400887E+04  0.20936714072E+04  0.00000000000E+00 0.  1.
         13    1    3    3    0    0 -0.11963571675E+03 -0.33614484470E+03 -0.42027383410E+03  0.55130406142E+03  0.10566000000E+00 0. -1.
         -4    1    3    3    0  501 -0.27531384529E+03  0.70670860711E+03 -0.51410145694E+03  0.91626146748E+03  0.00000000000E+00 0. -1.
<mgrwt>
<rscale>  0 0.11160690E+04</rscale>
<asrwt>0</asrwt>
<pdfrwt beam="2">  1        4 0.59656249E+00 0.11006769E+04</pdfrwt>
<pdfrwt beam="1">  1       -4 0.58422639E-01 0.11316764E+04</pdfrwt>
<totfact> 0.48743705E-02</totfact>
</mgrwt>
</event>
<event>
 8    1  0.3025584E-006  0.1150845E+04  0.7818608E-02  0.8646110E-01
         -4   -1    0    0    0  501 -0.00000000000E+00  0.00000000000E+00  0.14953319156E+04  0.14953319156E+04  0.00000000000E+00 0. -1.
          4   -1    0    0  502    0  0.00000000000E+00 -0.00000000000E+00 -0.12444022343E+04  0.12444022343E+04  0.00000000000E+00 0.  1.
   -9000010    2    1    2    0  501  0.50862577204E+03 -0.26789307165E+03  0.86420829336E+03  0.14392009918E+04  0.99698377446E+03 0.  0.
    9000010    2    1    2  502    0 -0.50862577204E+03  0.26789307165E+03 -0.61327861202E+03  0.13005331582E+04  0.99237541574E+03 0.  0.
        -13    1    4    4    0    0 -0.44020282824E+03 -0.26878590130E+03 -0.47892914023E+02  0.51799433695E+03  0.10566000000E+00 0.  1.
          4    1    4    4  502    0 -0.68422943797E+02  0.53667897295E+03 -0.56538569800E+03  0.78253882124E+03  0.00000000000E+00 0.  1.
         13    1    3    3    0    0  0.40262434706E+03 -0.64351496699E+03  0.60475002626E+03  0.97053618326E+03  0.10566000000E+00 0. -1.
         -4    1    3    3    0  501  0.10600142498E+03  0.37562189534E+03  0.25945826711E+03  0.46866480850E+03  0.00000000000E+00 0. -1.
<mgrwt>
<rscale>  0 0.11488480E+04</rscale>
<asrwt>0</asrwt>
<pdfrwt beam="2">  1        4 0.19144650E+00 0.11468548E+04</pdfrwt>
<pdfrwt beam="1">  1       -4 0.23005107E+00 0.11508447E+04</pdfrwt>
<totfact> 0.16038360E-01</totfact>
</mgrwt>
</event>
<event>
 8    1  0.3025584E-006  0.1446866E+04  0.7818608E-02  0.8442279E-01
          4   -1    0    0  502    0  0.00000000000E+00  0.00000000000E+00  0.34910192204E+04  0.34910192204E+04  0.00000000000E+00 0.  1.
         -4   -1    0    0    0  501 -0.00000000000E+00 -0.00000000000E+00 -0.22479037899E+04  0.22479037899E+04  0.00000000000E+00 0. -1.
   -9000010    2    1    2    0  501  0.98556303026E+03  0.34047053169E+03 -0.18368150538E+04  0.23382283938E+04  0.10030791644E+04 0.  0.
    9000010    2    1    2  502    0 -0.98556303026E+03 -0.34047053169E+03  0.30799304843E+04  0.34006946165E+04  0.99573963339E+03 0.  0.
        -13    1    4    4    0    0  0.35034670684E+02 -0.28811072646E+03  0.22157228588E+03  0.36514313342E+03  0.10566000000E+00 0.  1.
          4    1    4    4  502    0 -0.10205977009E+04 -0.52359805223E+02  0.28583581984E+04  0.30355514831E+04  0.00000000000E+00 0.  1.
         13    1    3    3    0    0  0.49730329193E+03  0.57801566536E+03 -0.15423589218E+04  0.17205475083E+04  0.10566000000E+00 0. -1.
         -4    1    3    3    0  501  0.48825973833E+03 -0.23754513367E+03 -0.29445613198E+03  0.61768088546E+03  0.00000000000E+00 0. -1.
<mgrwt>
<rscale>  0 0.14443249E+04</rscale>
<asrwt>0</asrwt>
<pdfrwt beam="1">  1        4 0.53707988E+00 0.14417878E+04</pdfrwt>
<pdfrwt beam="2">  1       -4 0.34583135E+00 0.14468664E+04</pdfrwt>
<totfact> 0.44669673E-03</totfact>
</mgrwt>
</event>
<event>
 8    1  0.3025584E-006  0.1063145E+04  0.7818608E-02  0.8735425E-01
          4   -1    0    0  502    0  0.00000000000E+00  0.00000000000E+00  0.57487859743E+03  0.57487859743E+03  0.00000000000E+00 0.  1.
         -4   -1    0    0    0  501 -0.00000000000E+00 -0.00000000000E+00 -0.35736096567E+04  0.35736096567E+04  0.00000000000E+00 0. -1.
   -9000010    2    1    2    0  501 -0.90316190946E+02 -0.34065323769E+03 -0.29066794929E+04  0.30813658308E+04  0.96011877691E+03 0.  0.
    9000010    2    1    2  502    0  0.90316190946E+02  0.34065323769E+03 -0.92051566332E+02  0.10671224233E+04  0.10030329670E+04 0.  0.
        -13    1    4    4    0    0 -0.43635225582E+03  0.26859540904E+03  0.55656936339E+02  0.51540711156E+03  0.10566000000E+00 0.  1.
          4    1    4    4  502    0  0.52666844677E+03  0.72057828647E+02 -0.14770850267E+03  0.55171531178E+03  0.00000000000E+00 0.  1.
         13    1    3    3    0    0 -0.19771028103E+03 -0.37750366441E+03 -0.44164230034E+03  0.61371516559E+03  0.10566000000E+00 0. -1.
         -4    1    3    3    0  501  0.10739409008E+03  0.36850426718E+02 -0.24650371926E+04  0.24676506652E+04  0.00000000000E+00 0. -1.
<mgrwt>
<rscale>  0 0.10427548E+04</rscale>
<asrwt>0</asrwt>
<pdfrwt beam="1">  1        4 0.88442865E-01 0.10631448E+04</pdfrwt>
<pdfrwt beam="2">  1       -4 0.54978608E+00 0.10227559E+04</pdfrwt>
<totfact> 0.37087673E-02</totfact>
</mgrwt>
</event>
<event>
 8    1  0.3025584E-006  0.1065289E+04  0.7818608E-02  0.8719773E-01
         -4   -1    0    0    0  501 -0.00000000000E+00  0.00000000000E+00  0.95552562159E+03  0.95552562159E+03  0.00000000000E+00 0. -1.
          4   -1    0    0  502    0  0.00000000000E+00 -0.00000000000E+00 -0.12131030290E+04  0.12131030290E+04  0.00000000000E+00 0.  1.
   -9000010    2    1    2    0  501 -0.34266291774E+03  0.55853200217E+02  0.59018373002E+02  0.10572900053E+04  0.99691601041E+03 0.  0.
    9000010    2    1    2  502    0  0.34266291774E+03 -0.55853200217E+02 -0.31659578040E+03  0.11113386453E+04  0.10071262290E+04 0.  0.
        -13    1    4    4    0    0  0.57858331652E+03 -0.35446606843E+03 -0.14486766285E+03  0.69382382399E+03  0.10566000000E+00 0.  1.
          4    1    4    4  502    0 -0.23592039878E+03  0.29861286822E+03 -0.17172811754E+03  0.41751482127E+03  0.00000000000E+00 0.  1.
         13    1    3    3    0    0  0.98050243411E+02 -0.28723204359E+03 -0.27242380611E+03  0.40783677911E+03  0.10566000000E+00 0. -1.
         -4    1    3    3    0  501 -0.44071316115E+03  0.34308524381E+03  0.33144217911E+03  0.64945322620E+03  0.00000000000E+00 0. -1.
<mgrwt>
<rscale>  0 0.10604543E+04</rscale>
<asrwt>0</asrwt>
<pdfrwt beam="2">  1        4 0.18663124E+00 0.10652890E+04</pdfrwt>
<pdfrwt beam="1">  1       -4 0.14700394E+00 0.10556415E+04</pdfrwt>
<totfact> 0.30537822E-01</totfact>
</mgrwt>
</event>
<event>
 8    1  0.3025584E-006  0.1258756E+04  0.7818608E-02  0.8588322E-01
          4   -1    0    0  502    0  0.00000000000E+00  0.00000000000E+00  0.16268250106E+04  0.16268250106E+04  0.00000000000E+00 0.  1.
         -4   -1    0    0    0  501 -0.00000000000E+00 -0.00000000000E+00 -0.24926329241E+04  0.24926329241E+04  0.00000000000E+00 0. -1.
   -9000010    2    1    2    0  501  0.25673500969E+03 -0.72035042773E+03 -0.20630480521E+04  0.23822617748E+04  0.91333799563E+03 0.  0.
    9000010    2    1    2  502    0 -0.25673500969E+03  0.72035042773E+03  0.11972401387E+04  0.17371961599E+04  0.99982445679E+03 0.  0.
        -13    1    4    4    0    0  0.63778178924E+02 -0.19806280270E+02 -0.15156454095E+03  0.16562537873E+03  0.10566000000E+00 0.  1.
          4    1    4    4  502    0 -0.32051318861E+03  0.74015670800E+03  0.13488046796E+04  0.15715707812E+04  0.00000000000E+00 0.  1.
         13    1    3    3    0    0 -0.11966730464E+03 -0.77672526960E+03 -0.11481527484E+04  0.13913580248E+04  0.10566000000E+00 0. -1.
         -4    1    3    3    0  501  0.37640231433E+03  0.56374841873E+02 -0.91489530370E+03  0.99090375000E+03  0.00000000000E+00 0. -1.
<mgrwt>
<rscale>  0 0.12245222E+04</rscale>
<asrwt>0</asrwt>
<pdfrwt beam="1">  1        4 0.25028077E+00 0.12587560E+04</pdfrwt>
<pdfrwt beam="2">  1       -4 0.38348199E+00 0.11912195E+04</pdfrwt>
<totfact> 0.40800603E-02</totfact>
</mgrwt>
</event>
<event>
 8    1  0.3025584E-006  0.1134783E+04  0.7818608E-02  0.8661525E-01
         -4   -1    0    0    0  501 -0.00000000000E+00  0.00000000000E+00  0.22076453991E+04  0.22076453991E+04  0.00000000000E+00 0. -1.
          4   -1    0    0  502    0  0.00000000000E+00 -0.00000000000E+00 -0.16117952120E+04  0.16117952120E+04  0.00000000000E+00 0.  1.
   -9000010    2    1    2    0  501  0.37695646245E+03 -0.38629095675E+03  0.18268490899E+04  0.21451974896E+04  0.98649774172E+03 0.  0.
    9000010    2    1    2  502    0 -0.37695646245E+03  0.38629095675E+03 -0.12309989028E+04  0.16742431215E+04  0.99820581714E+03 0.  0.
        -13    1    4    4    0    0 -0.39610625179E+03 -0.21659201104E+03 -0.23278307677E+03  0.50793723426E+03  0.10566000000E+00 0.  1.
          4    1    4    4  502    0  0.19149789342E+02  0.60288296779E+03 -0.99821582600E+03  0.11663058872E+04  0.00000000000E+00 0.  1.
         13    1    3    3    0    0 -0.32467156217E+03 -0.13968409766E+03  0.38362736797E+03  0.52162557361E+03  0.10566000000E+00 0. -1.
         -4    1    3    3    0  501  0.70162802462E+03 -0.24660685909E+03  0.14432217219E+04  0.16235719160E+04  0.00000000000E+00 0. -1.
<mgrwt>
<rscale>  0 0.11296284E+04</rscale>
<asrwt>0</asrwt>
<pdfrwt beam="2">  1        4 0.24796849E+00 0.11347827E+04</pdfrwt>
<pdfrwt beam="1">  1       -4 0.33963775E+00 0.11244975E+04</pdfrwt>
<totfact> 0.59684368E-02</totfact>
</mgrwt>
</event>
<event>
 8    1  0.3025584E-006  0.1427168E+04  0.7818608E-02  0.8454910E-01
         -4   -1    0    0    0  501 -0.00000000000E+00  0.00000000000E+00  0.24345040200E+04  0.24345040200E+04  0.00000000000E+00 0. -1.
          4   -1    0    0  502    0  0.00000000000E+00 -0.00000000000E+00 -0.13249569860E+04  0.13249569860E+04  0.00000000000E+00 0.  1.
   -9000010    2    1    2    0  501  0.99017269111E+03  0.21000520867E+03  0.17017671659E+04  0.22209950985E+04  0.10061131123E+04 0.  0.
    9000010    2    1    2  502    0 -0.99017269111E+03 -0.21000520867E+03 -0.59222013189E+03  0.15384659075E+04  0.99579541979E+03 0.  0.
        -13    1    4    4    0    0 -0.10837310390E+04  0.69135779664E+02 -0.30684898950E+03  0.11284542678E+04  0.10566000000E+00 0.  1.
          4    1    4    4  502    0  0.93558347881E+02 -0.27914098833E+03 -0.28537114239E+03  0.41001163976E+03  0.00000000000E+00 0.  1.
         13    1    3    3    0    0  0.29569333519E+03  0.32924352142E+03  0.13746516632E+04  0.14441270897E+04  0.10566000000E+00 0. -1.
         -4    1    3    3    0  501  0.69447935592E+03 -0.11923831275E+03  0.32711550274E+03  0.77686800884E+03  0.00000000000E+00 0. -1.
<mgrwt>
<rscale>  0 0.14235357E+04</rscale>
<asrwt>0</asrwt>
<pdfrwt beam="2">  1        4 0.20383954E+00 0.14199129E+04</pdfrwt>
<pdfrwt beam="1">  1       -4 0.37453908E+00 0.14271677E+04</pdfrwt>
<totfact> 0.56590595E-02</totfact>
</mgrwt>
</event>
<event>
 8    1  0.3025584E-006  0.1873723E+04  0.7818608E-02  0.8225221E-01
          4   -1    0    0  502    0  0.00000000000E+00  0.00000000000E+00  0.30275694538E+04  0.30275694538E+04  0.00000000000E+00 0.  1.
         -4   -1    0    0    0  501 -0.00000000000E+00 -0.00000000000E+00 -0.21382133644E+04  0.21382133644E+04  0.00000000000E+00 0. -1.
   -9000010    2    1    2    0  501  0.10579321131E+04 -0.11632290378E+04 -0.13120742409E+04  0.22749118113E+04  0.99063756488E+03 0.  0.
    9000010    2    1    2  502    0 -0.10579321131E+04  0.11632290378E+04  0.22014303303E+04  0.28908710070E+04  0.10190768025E+04 0.  0.
        -13    1    4    4    0    0  0.94488225557E+02 -0.94807982499E+02  0.45121846032E+02  0.14125356798E+03  0.10566000000E+00 0.  1.
          4    1    4    4  502    0 -0.11524203387E+04  0.12580370203E+04  0.21563084843E+04  0.27496174390E+04  0.00000000000E+00 0.  1.
         13    1    3    3    0    0  0.90221879960E+03 -0.61412140259E+03 -0.33203485566E+03  0.11407852629E+04  0.10566000000E+00 0. -1.
         -4    1    3    3    0  501  0.15571331351E+03 -0.54910763525E+03 -0.98003938527E+03  0.11341265484E+04  0.00000000000E+00 0. -1.
<mgrwt>
<rscale>  0 0.18660507E+04</rscale>
<asrwt>0</asrwt>
<pdfrwt beam="1">  1        4 0.46577991E+00 0.18737235E+04</pdfrwt>
<pdfrwt beam="2">  1       -4 0.32895590E+00 0.18584092E+04</pdfrwt>
<totfact> 0.10318962E-02</totfact>
</mgrwt>
</event>
<event>
 8    1  0.3025584E-006  0.1345267E+04  0.7818608E-02  0.8517546E-01
          4   -1    0    0  502    0  0.00000000000E+00  0.00000000000E+00  0.22336192248E+04  0.22336192248E+04  0.00000000000E+00 0.  1.
         -4   -1    0    0    0  501 -0.00000000000E+00 -0.00000000000E+00 -0.26201090829E+04  0.26201090829E+04  0.00000000000E+00 0. -1.
   -9000010    2    1    2    0  501  0.51561476180E+03  0.71834533772E+03 -0.22240251137E+04  0.25992366207E+04  0.10138366226E+04 0.  0.
    9000010    2    1    2  502    0 -0.51561476180E+03 -0.71834533772E+03  0.18375352556E+04  0.22544916869E+04  0.96141476180E+03 0.  0.
        -13    1    4    4    0    0 -0.76439150526E+02 -0.71804472169E+03  0.59185724119E+03  0.93366277166E+03  0.10566000000E+00 0.  1.
          4    1    4    4  502    0 -0.43917561127E+03 -0.30061602991E+00  0.12456780144E+04  0.13208289153E+04  0.00000000000E+00 0.  1.
         13    1    3    3    0    0 -0.15383686832E+03  0.45312847505E+03 -0.35362086049E+03  0.59501169828E+03  0.10566000000E+00 0. -1.
         -4    1    3    3    0  501  0.66945163012E+03  0.26521686267E+03 -0.18704042532E+04  0.20042249224E+04  0.00000000000E+00 0. -1.
<mgrwt>
<rscale>  0 0.13255971E+04</rscale>
<asrwt>0</asrwt>
<pdfrwt beam="1">  1        4 0.34363373E+00 0.13062147E+04</pdfrwt>
<pdfrwt beam="2">  1       -4 0.40309370E+00 0.13452670E+04</pdfrwt>
<totfact> 0.18951933E-02</totfact>
</mgrwt>
</event>
<event>
 8    1  0.3025584E-006  0.1041147E+04  0.7818608E-02  0.8737521E-01
          4   -1    0    0  502    0  0.00000000000E+00  0.00000000000E+00  0.47995810387E+03  0.47995810387E+03  0.00000000000E+00 0.  1.
         -4   -1    0    0    0  501 -0.00000000000E+00 -0.00000000000E+00 -0.35026574836E+04  0.35026574836E+04  0.00000000000E+00 0. -1.
   -9000010    2    1    2    0  501 -0.19481140616E+03 -0.20868995965E+03 -0.27003530060E+04  0.28941135633E+04  0.10012412183E+04 0.  0.
    9000010    2    1    2  502    0  0.19481140616E+03  0.20868995965E+03 -0.32234637373E+03  0.10885020242E+04  0.99971320322E+03 0.  0.
        -13    1    4    4    0    0  0.15808042614E+03 -0.24262668530E+03  0.23319311354E+03  0.37180124921E+03  0.10566000000E+00 0.  1.
          4    1    4    4  502    0  0.36730980015E+02  0.45131664495E+03 -0.55553948726E+03  0.71670077495E+03  0.00000000000E+00 0.  1.
         13    1    3    3    0    0 -0.41932438393E+03 -0.48695337169E+03 -0.13186501408E+04  0.14668997001E+04  0.10566000000E+00 0. -1.
         -4    1    3    3    0  501  0.22451297777E+03  0.27826341203E+03 -0.13817028651E+04  0.14272138631E+04  0.00000000000E+00 0. -1.
<mgrwt>
<rscale>  0 0.10404120E+04</rscale>
<asrwt>0</asrwt>
<pdfrwt beam="1">  1        4 0.73839710E-01 0.10396776E+04</pdfrwt>
<pdfrwt beam="2">  1       -4 0.53887037E+00 0.10411469E+04</pdfrwt>
<totfact> 0.60712701E-02</totfact>
</mgrwt>
</event>
<event>
 8    1  0.3025584E-006  0.1403308E+04  0.7818608E-02  0.8474779E-01
          4   -1    0    0  502    0  0.00000000000E+00  0.00000000000E+00  0.22967258184E+04  0.22967258184E+04  0.00000000000E+00 0.  1.
         -4   -1    0    0    0  501 -0.00000000000E+00 -0.00000000000E+00 -0.21470581697E+04  0.21470581697E+04  0.00000000000E+00 0. -1.
   -9000010    2    1    2    0  501 -0.60035347099E+03 -0.70410867004E+03 -0.16563798852E+04  0.21709137538E+04  0.10550255413E+04 0.  0.
    9000010    2    1    2  502    0  0.60035347099E+03  0.70410867004E+03  0.18060475340E+04  0.22728702343E+04  0.10236884769E+04 0.  0.
        -13    1    4    4    0    0  0.54567195373E+03 -0.11579289832E+03  0.70498831348E+03  0.89898521105E+03  0.10566000000E+00 0.  1.
          4    1    4    4  502    0  0.54681517261E+02  0.81990156836E+03  0.11010592205E+04  0.13738850233E+04  0.00000000000E+00 0.  1.
         13    1    3    3    0    0  0.25687716543E+03 -0.82891701138E+02 -0.67655570730E+03  0.72841234783E+03  0.10566000000E+00 0. -1.
         -4    1    3    3    0  501 -0.85723063641E+03 -0.62121696890E+03 -0.97982417792E+03  0.14425014059E+04  0.00000000000E+00 0. -1.
<mgrwt>
<rscale>  0 0.13915559E+04</rscale>
<asrwt>0</asrwt>
<pdfrwt beam="1">  1        4 0.35334243E+00 0.13799027E+04</pdfrwt>
<pdfrwt beam="2">  1       -4 0.33031664E+00 0.14033076E+04</pdfrwt>
<totfact> 0.31748864E-02</totfact>
</mgrwt>
</event>
<event>
 8    1  0.3025584E-006  0.1308907E+04  0.7818608E-02  0.8544957E-01
         -4   -1    0    0    0  501 -0.00000000000E+00  0.00000000000E+00  0.31914744125E+04  0.31914744125E+04  0.00000000000E+00 0.  1.
          4   -1    0    0  502    0  0.00000000000E+00 -0.00000000000E+00 -0.54178185283E+03  0.54178185283E+03  0.00000000000E+00 0. -1.
   -9000010    2    1    2    0  501  0.75750599676E+03  0.19736273841E+03  0.95521487783E+03  0.16203932460E+04  0.10490335663E+04 0.  0.
    9000010    2    1    2  502    0 -0.75750599676E+03 -0.19736273841E+03  0.16944776818E+04  0.21128630194E+04  0.99003441289E+03 0.  0.
        -13    1    4    4    0    0 -0.52788464776E+02  0.92583245931E+02  0.11994075217E+04  0.12041331710E+04  0.10566000000E+00 0.  1.
          4    1    4    4  502    0 -0.70471753199E+03 -0.28994598434E+03  0.49507016019E+03  0.90872984832E+03  0.00000000000E+00 0.  1.
         13    1    3    3    0    0 -0.78427440184E+01 -0.18087317002E+03  0.70919883091E+03  0.73194235100E+03  0.10566000000E+00 0. -1.
         -4    1    3    3    0  501  0.76534874078E+03  0.37823590843E+03  0.24601604692E+03  0.88845089497E+03  0.00000000000E+00 0. -1.
<mgrwt>
<rscale>  0 0.12852986E+04</rscale>
<asrwt>0</asrwt>
<pdfrwt beam="2">  1        4 0.83351056E-01 0.12621155E+04</pdfrwt>
<pdfrwt beam="1">  1       -4 0.49099605E+00 0.13089075E+04</pdfrwt>
<totfact> 0.77248927E-02</totfact>
</mgrwt>
</event>
<event>
 8    1  0.3025584E-006  0.1108765E+04  0.7818608E-02  0.8685128E-01
          4   -1    0    0  502    0  0.00000000000E+00  0.00000000000E+00  0.19570832775E+04  0.19570832775E+04  0.00000000000E+00 0.  1.
         -4   -1    0    0    0  501 -0.00000000000E+00 -0.00000000000E+00 -0.70810981701E+03  0.70810981701E+03  0.00000000000E+00 0. -1.
   -9000010    2    1    2    0  501 -0.45530089283E+03  0.24476209488E+02  0.15661579760E+03  0.11197715429E+04  0.10106739396E+04 0.  0.
    9000010    2    1    2  502    0  0.45530089283E+03 -0.24476209488E+02  0.10923576629E+04  0.15454215516E+04  0.99357159823E+03 0.  0.
        -13    1    4    4    0    0  0.73314496162E+03  0.12526258443E+03  0.92891196658E+03  0.11899872699E+04  0.10566000000E+00 0.  1.
          4    1    4    4  502    0 -0.27784406879E+03 -0.14973879392E+03  0.16344569630E+03  0.35543428170E+03  0.00000000000E+00 0.  1.
         13    1    3    3    0    0 -0.77556917651E+03  0.12377239885E+02  0.33340748679E+02  0.77638415769E+03  0.10566000000E+00 0. -1.
         -4    1    3    3    0  501  0.32026828369E+03  0.12098969602E+02  0.12327504892E+03  0.34338738516E+03  0.00000000000E+00 0. -1.
<mgrwt>
<rscale>  0 0.11009541E+04</rscale>
<asrwt>0</asrwt>
<pdfrwt beam="1">  1        4 0.30108973E+00 0.10931983E+04</pdfrwt>
<pdfrwt beam="2">  1       -4 0.10893997E+00 0.11087650E+04</pdfrwt>
<totfact> 0.25394891E-01</totfact>
</mgrwt>
</event>
<event>
 8    1  0.3025584E-006  0.1079214E+04  0.7818608E-02  0.8733827E-01
         -4   -1    0    0    0  501 -0.00000000000E+00  0.00000000000E+00  0.27833085242E+04  0.27833085242E+04  0.00000000000E+00 0. -1.
          4   -1    0    0  502    0  0.00000000000E+00 -0.00000000000E+00 -0.11451401945E+04  0.11451401945E+04  0.00000000000E+00 0.  1.
   -9000010    2    1    2    0  501  0.30477955813E+03  0.33213547390E+03  0.24204469219E+04  0.26501447404E+04  0.98056070241E+03 0.  0.
    9000010    2    1    2  502    0 -0.30477955813E+03 -0.33213547390E+03 -0.78227859223E+03  0.12783039784E+04  0.90492912051E+03 0.  0.
        -13    1    4    4    0    0 -0.54480454827E+03 -0.17713370218E+03 -0.16193821570E+03  0.59532540777E+03  0.10566000000E+00 0.  1.
          4    1    4    4  502    0  0.24002499015E+03 -0.15500177172E+03 -0.62034037653E+03  0.68297857059E+03  0.00000000000E+00 0.  1.
         13    1    3    3    0    0  0.52134438150E+03 -0.33824908668E+02  0.67454590693E+03  0.85320353978E+03  0.10566000000E+00 0. -1.
         -4    1    3    3    0  501 -0.21656482337E+03  0.36596038257E+03  0.17459010150E+04  0.17969412006E+04  0.00000000000E+00 0. -1.
<mgrwt>
<rscale>  0 0.10445455E+04</rscale>
<asrwt>0</asrwt>
<pdfrwt beam="2">  1        4 0.17617542E+00 0.10109902E+04</pdfrwt>
<pdfrwt beam="1">  1       -4 0.42820131E+00 0.10792145E+04</pdfrwt>
<totfact> 0.43450198E-02</totfact>
</mgrwt>
</event>
<event>
 8    1  0.3025584E-006  0.1319609E+04  0.7818608E-02  0.8521672E-01
         -4   -1    0    0    0  501 -0.00000000000E+00  0.00000000000E+00  0.13340465254E+04  0.13340465254E+04  0.00000000000E+00 0. -1.
          4   -1    0    0  502    0  0.00000000000E+00 -0.00000000000E+00 -0.17938092621E+04  0.17938092621E+04  0.00000000000E+00 0.  1.
   -9000010    2    1    2    0  501 -0.85101079416E+03  0.68306676979E+02  0.58649992506E+03  0.14440741675E+04  0.10062220756E+04 0.  0.
    9000010    2    1    2  502    0  0.85101079416E+03 -0.68306676979E+02 -0.10462626618E+04  0.16837816200E+04  0.10057682698E+04 0.  0.
        -13    1    4    4    0    0  0.27869945234E+03 -0.47471373953E+03 -0.20326509502E+03  0.58680765950E+03  0.10566000000E+00 0.  1.
          4    1    4    4  502    0  0.57231134183E+03  0.40640706255E+03 -0.84299756677E+03  0.10969739605E+04  0.00000000000E+00 0.  1.
         13    1    3    3    0    0 -0.37617946227E+03 -0.46831018138E+03  0.31078990390E+03  0.67632520975E+03  0.10566000000E+00 0. -1.
         -4    1    3    3    0  501 -0.47483133190E+03  0.53661685836E+03  0.27571002116E+03  0.76774895779E+03  0.00000000000E+00 0. -1.
<mgrwt>
<rscale>  0 0.13194360E+04</rscale>
<asrwt>0</asrwt>
<pdfrwt beam="2">  1        4 0.27597066E+00 0.13192630E+04</pdfrwt>
<pdfrwt beam="1">  1       -4 0.20523793E+00 0.13196090E+04</pdfrwt>
<totfact> 0.11273498E-01</totfact>
</mgrwt>
</event>
<event>
 8    1  0.3025584E-006  0.1167556E+04  0.7818608E-02  0.8631543E-01
         -4   -1    0    0    0  501 -0.00000000000E+00  0.00000000000E+00  0.16084542151E+04  0.16084542151E+04  0.00000000000E+00 0. -1.
          4   -1    0    0  502    0  0.00000000000E+00 -0.00000000000E+00 -0.18158481958E+04  0.18158481958E+04  0.00000000000E+00 0.  1.
   -9000010    2    1    2    0  501 -0.58309785684E+03  0.12322126812E+03  0.11467673640E+04  0.16365399236E+04  0.10039925014E+04 0.  0.
    9000010    2    1    2  502    0  0.58309785684E+03 -0.12322126812E+03 -0.13541613448E+04  0.17877624873E+04  0.10035712091E+04 0.  0.
        -13    1    4    4    0    0  0.53874432494E+03 -0.51714689631E+03 -0.70414563826E+03  0.10264051106E+04  0.10566000000E+00 0.  1.
          4    1    4    4  502    0  0.44353531904E+02  0.39392562819E+03 -0.65001570653E+03  0.76135737671E+03  0.00000000000E+00 0.  1.
         13    1    3    3    0    0 -0.29383840026E+03  0.30281640951E+02  0.12735247744E+04  0.13073344428E+04  0.10566000000E+00 0. -1.
         -4    1    3    3    0  501 -0.28925945659E+03  0.92939627172E+02 -0.12675741034E+03  0.32920548082E+03  0.00000000000E+00 0. -1.
<mgrwt>
<rscale>  0 0.11673751E+04</rscale>
<asrwt>0</asrwt>
<pdfrwt beam="2">  1        4 0.27936126E+00 0.11671940E+04</pdfrwt>
<pdfrwt beam="1">  1       -4 0.24745449E+00 0.11675562E+04</pdfrwt>
<totfact> 0.87496682E-02</totfact>
</mgrwt>
</event>
<event>
 8    1  0.3025584E-006  0.1107422E+04  0.7818608E-02  0.8699796E-01
          4   -1    0    0  502    0  0.00000000000E+00  0.00000000000E+00  0.29174427019E+04  0.29174427019E+04  0.00000000000E+00 0.  1.
         -4   -1    0    0    0  501 -0.00000000000E+00 -0.00000000000E+00 -0.53862199388E+03  0.53862199388E+03  0.00000000000E+00 0. -1.
   -9000010    2    1    2    0  501 -0.26807779247E+03  0.39018093392E+03  0.34067910822E+03  0.11586400141E+04  0.10011381341E+04 0.  0.
    9000010    2    1    2  502    0  0.26807779247E+03 -0.39018093392E+03  0.20381415998E+04  0.22974246817E+04  0.94870022829E+03 0.  0.
        -13    1    4    4    0    0  0.26189592866E+02  0.30705754336E+03  0.44087473000E+03  0.53790405132E+03  0.10566000000E+00 0.  1.
          4    1    4    4  502    0  0.24188819960E+03 -0.69723847729E+03  0.15972668698E+04  0.17595206304E+04  0.00000000000E+00 0.  1.
         13    1    3    3    0    0  0.36754561543E+03  0.30003282353E+02  0.18109562794E+03  0.41083526382E+03  0.10566000000E+00 0. -1.
         -4    1    3    3    0  501 -0.63562340789E+03  0.36017765157E+03  0.15958348028E+03  0.74780475027E+03  0.00000000000E+00 0. -1.
<mgrwt>
<rscale>  0 0.10835817E+04</rscale>
<asrwt>0</asrwt>
<pdfrwt beam="1">  1        4 0.44883733E+00 0.10602542E+04</pdfrwt>
<pdfrwt beam="2">  1       -4 0.82864924E-01 0.11074224E+04</pdfrwt>
<totfact> 0.12639089E-01</totfact>
</mgrwt>
</event>
<event>
 8    1  0.3025584E-006  0.1254618E+04  0.7818608E-02  0.8571219E-01
          4   -1    0    0  502    0  0.00000000000E+00  0.00000000000E+00  0.17135635432E+04  0.17135635432E+04  0.00000000000E+00 0.  1.
         -4   -1    0    0    0  501 -0.00000000000E+00 -0.00000000000E+00 -0.12122739258E+04  0.12122739258E+04  0.00000000000E+00 0. -1.
   -9000010    2    1    2    0  501 -0.73286581992E+03 -0.11351442695E+03 -0.48001054900E+03  0.13433080516E+04  0.10119726079E+04 0.  0.
    9000010    2    1    2  502    0  0.73286581992E+03  0.11351442695E+03  0.98130016638E+03  0.15825294175E+04  0.99572662189E+03 0.  0.
        -13    1    4    4    0    0  0.62546936246E+03 -0.36560747867E+03  0.42260873926E+03  0.83873649587E+03  0.10566000000E+00 0.  1.
          4    1    4    4  502    0  0.10739645746E+03  0.47912190561E+03  0.55869142712E+03  0.74379292162E+03  0.00000000000E+00 0.  1.
         13    1    3    3    0    0 -0.43330826673E+01  0.35156445217E+03  0.61354091547E+01  0.35164469858E+03  0.10566000000E+00 0. -1.
         -4    1    3    3    0  501 -0.72853273726E+03 -0.46507887911E+03 -0.48614595816E+03  0.99166335300E+03  0.00000000000E+00 0. -1.
<mgrwt>
<rscale>  0 0.12480675E+04</rscale>
<asrwt>0</asrwt>
<pdfrwt beam="1">  1        4 0.26362516E+00 0.12415512E+04</pdfrwt>
<pdfrwt beam="2">  1       -4 0.18650368E+00 0.12546180E+04</pdfrwt>
<totfact> 0.13745101E-01</totfact>
</mgrwt>
</event>
<event>
 8    1  0.3025584E-006  0.1115000E+04  0.7818608E-02  0.8679089E-01
          4   -1    0    0  502    0  0.00000000000E+00  0.00000000000E+00  0.14346620676E+04  0.14346620676E+04  0.00000000000E+00 0.  1.
         -4   -1    0    0    0  501 -0.00000000000E+00 -0.00000000000E+00 -0.16013058762E+04  0.16013058762E+04  0.00000000000E+00 0. -1.
   -9000010    2    1    2    0  501 -0.28085707143E+03  0.40046537580E+03 -0.11191494769E+04  0.15797846251E+04  0.10019833822E+04 0.  0.
    9000010    2    1    2  502    0  0.28085707143E+03 -0.40046537580E+03  0.95250566826E+03  0.14561833187E+04  0.98688884768E+03 0.  0.
        -13    1    4    4    0    0  0.44276800632E+03 -0.54733040840E+03  0.29502819797E+03  0.76331889282E+03  0.10566000000E+00 0.  1.
          4    1    4    4  502    0 -0.16191093488E+03  0.14686503261E+03  0.65747747029E+03  0.69286442583E+03  0.00000000000E+00 0.  1.
         13    1    3    3    0    0 -0.13541427015E+03 -0.15105726278E+03  0.10561888345E+03  0.22871528349E+03  0.10566000000E+00 0. -1.
         -4    1    3    3    0  501 -0.14544280129E+03  0.55152263858E+03 -0.12247683603E+04  0.13510693416E+04  0.00000000000E+00 0. -1.
<mgrwt>
<rscale>  0 0.11082065E+04</rscale>
<asrwt>0</asrwt>
<pdfrwt beam="1">  1        4 0.22071724E+00 0.11014549E+04</pdfrwt>
<pdfrwt beam="2">  1       -4 0.24635475E+00 0.11149995E+04</pdfrwt>
<totfact> 0.12245620E-01</totfact>
</mgrwt>
</event>
<event>
 8    1  0.3025584E-006  0.1122131E+04  0.7818608E-02  0.8684133E-01
         -4   -1    0    0    0  501 -0.00000000000E+00  0.00000000000E+00  0.44990815431E+03  0.44990815431E+03  0.00000000000E+00 0. -1.
          4   -1    0    0  502    0  0.00000000000E+00 -0.00000000000E+00 -0.37323843114E+04  0.37323843114E+04  0.00000000000E+00 0.  1.
   -9000010    2    1    2    0  501 -0.19508067706E+03  0.38402031463E+03 -0.56334320993E+03  0.12556008359E+04  0.10361707457E+04 0.  0.
    9000010    2    1    2  502    0  0.19508067706E+03 -0.38402031463E+03 -0.27191329471E+04  0.29266916298E+04  0.99313233726E+03 0.  0.
        -13    1    4    4    0    0 -0.20418689935E+03 -0.43251543576E+03 -0.58811636004E+03  0.75805194819E+03  0.10566000000E+00 0.  1.
          4    1    4    4  502    0  0.39926757641E+03  0.48495121125E+02 -0.21310165871E+04  0.21686396816E+04  0.00000000000E+00 0.  1.
         13    1    3    3    0    0  0.41685753298E+03  0.11506928703E+03 -0.34243623838E+03  0.55161012694E+03  0.10566000000E+00 0. -1.
         -4    1    3    3    0  501 -0.61193821004E+03  0.26895102761E+03 -0.22090697155E+03  0.70399070892E+03  0.00000000000E+00 0. -1.
<mgrwt>
<rscale>  0 0.11021453E+04</rscale>
<asrwt>0</asrwt>
<pdfrwt beam="2">  1        4 0.57421298E+00 0.10825155E+04</pdfrwt>
<pdfrwt beam="1">  1       -4 0.69216638E-01 0.11221310E+04</pdfrwt>
<totfact> 0.44689804E-02</totfact>
</mgrwt>
</event>
<event>
 8    1  0.3025584E-006  0.1098888E+04  0.7818608E-02  0.8693277E-01
         -4   -1    0    0    0  501 -0.00000000000E+00  0.00000000000E+00  0.13974324709E+04  0.13974324709E+04  0.00000000000E+00 0. -1.
          4   -1    0    0  502    0  0.00000000000E+00 -0.00000000000E+00 -0.30562558643E+04  0.30562558643E+04  0.00000000000E+00 0.  1.
   -9000010    2    1    2    0  501  0.17120793874E+03  0.39897914342E+03  0.10632448480E+04  0.15181799411E+04  0.99291702148E+03 0.  0.
    9000010    2    1    2  502    0 -0.17120793874E+03 -0.39897914342E+03 -0.27220682414E+04  0.29355083942E+04  0.10094837820E+04 0.  0.
        -13    1    4    4    0    0  0.45720250905E+01 -0.27492165710E+03 -0.82335697425E+02  0.28702264578E+03  0.10566000000E+00 0.  1.
          4    1    4    4  502    0 -0.17577996383E+03 -0.12405748632E+03 -0.26397325440E+04  0.26484857484E+04  0.00000000000E+00 0.  1.
         13    1    3    3    0    0  0.50830745402E+03  0.45089622950E+03  0.44540070827E+03  0.81244426251E+03  0.10566000000E+00 0. -1.
         -4    1    3    3    0  501 -0.33709951528E+03 -0.51917086077E+02  0.61784413969E+03  0.70573567855E+03  0.00000000000E+00 0. -1.
<mgrwt>
<rscale>  0 0.10912616E+04</rscale>
<asrwt>0</asrwt>
<pdfrwt beam="2">  1        4 0.47019320E+00 0.10988876E+04</pdfrwt>
<pdfrwt beam="1">  1       -4 0.21498961E+00 0.10836885E+04</pdfrwt>
<totfact> 0.21268348E-02</totfact>
</mgrwt>
</event>
<event>
 8    1  0.3025584E-006  0.1185841E+04  0.7818608E-02  0.8620997E-01
          4   -1    0    0  502    0  0.00000000000E+00  0.00000000000E+00  0.25330559621E+04  0.25330559621E+04  0.00000000000E+00 0.  1.
         -4   -1    0    0    0  501 -0.00000000000E+00 -0.00000000000E+00 -0.10261440324E+04  0.10261440324E+04  0.00000000000E+00 0. -1.
   -9000010    2    1    2    0  501  0.40071476129E+02 -0.63287968701E+03 -0.45960006498E+03  0.12628143213E+04  0.99061867990E+03 0.  0.
    9000010    2    1    2  502    0 -0.40071476129E+02  0.63287968701E+03  0.19665119947E+04  0.22963856731E+04  0.10020355848E+04 0.  0.
        -13    1    4    4    0    0 -0.18575631009E+03 -0.23839203996E+03  0.48077526934E+03  0.56787414294E+03  0.10566000000E+00 0.  1.
          4    1    4    4  502    0  0.14568483396E+03  0.87127172697E+03  0.14857367253E+04  0.17285115302E+04  0.00000000000E+00 0.  1.
         13    1    3    3    0    0 -0.27583108975E+03 -0.72171645420E+03 -0.10510252991E+03  0.77974610181E+03  0.10566000000E+00 0. -1.
         -4    1    3    3    0  501  0.31590256588E+03  0.88836767186E+02 -0.35449753506E+03  0.48306821951E+03  0.00000000000E+00 0. -1.
<mgrwt>
<rscale>  0 0.11810150E+04</rscale>
<asrwt>0</asrwt>
<pdfrwt beam="1">  1        4 0.38970092E+00 0.11858405E+04</pdfrwt>
<pdfrwt beam="2">  1       -4 0.15786831E+00 0.11762091E+04</pdfrwt>
<totfact> 0.71798713E-02</totfact>
</mgrwt>
</event>
<event>
 8    1  0.3025584E-006  0.1228467E+04  0.7818608E-02  0.8668918E-01
          4   -1    0    0  502    0  0.00000000000E+00  0.00000000000E+00  0.10417148769E+04  0.10417148769E+04  0.00000000000E+00 0.  1.
         -4   -1    0    0    0  501 -0.00000000000E+00 -0.00000000000E+00 -0.19858248979E+04  0.19858248979E+04  0.00000000000E+00 0. -1.
   -9000010    2    1    2    0  501  0.64096623318E+03 -0.32586353697E+03 -0.14388906243E+04  0.18919664550E+04  0.99604522041E+03 0.  0.
    9000010    2    1    2  502    0 -0.64096623318E+03  0.32586353697E+03  0.49478060333E+03  0.11355733199E+04  0.72642560707E+03 0.  0.
        -13    1    4    4    0    0 -0.44419956063E+03  0.28887700059E+02  0.61535076125E+03  0.75947634553E+03  0.10566000000E+00 0.  1.
          4    1    4    4  502    0 -0.19676667255E+03  0.29697583691E+03 -0.12057015793E+03  0.37609697436E+03  0.00000000000E+00 0.  1.
         13    1    3    3    0    0  0.27486630148E+03 -0.39647461324E+03 -0.87781341266E+02  0.49035617430E+03  0.10566000000E+00 0. -1.
         -4    1    3    3    0  501  0.36609993170E+03  0.70611076266E+02 -0.13511092831E+04  0.14016102807E+04  0.00000000000E+00 0. -1.
<mgrwt>
<rscale>  0 0.11205509E+04</rscale>
<asrwt>0</asrwt>
<pdfrwt beam="1">  1        4 0.16026383E+00 0.10221149E+04</pdfrwt>
<pdfrwt beam="2">  1       -4 0.30551152E+00 0.12284669E+04</pdfrwt>
<totfact> 0.13253556E-01</totfact>
</mgrwt>
</event>
<event>
 8    1  0.3025584E-006  0.1152681E+04  0.7818608E-02  0.8644300E-01
         -4   -1    0    0    0  501 -0.00000000000E+00  0.00000000000E+00  0.23995472798E+04  0.23995472798E+04  0.00000000000E+00 0. -1.
          4   -1    0    0  502    0  0.00000000000E+00 -0.00000000000E+00 -0.99247282877E+03  0.99247282877E+03  0.00000000000E+00 0.  1.
   -9000010    2    1    2    0  501 -0.12306619400E+02 -0.57436339314E+03  0.18325843861E+04  0.21633084794E+04  0.99573755818E+03 0.  0.
    9000010    2    1    2  502    0  0.12306619400E+02  0.57436339314E+03 -0.42550993503E+03  0.12287116292E+04  0.99931416611E+03 0.  0.
        -13    1    4    4    0    0 -0.10592486789E+03  0.60622385967E+03 -0.69765036161E+03  0.93029214975E+03  0.10566000000E+00 0.  1.
          4    1    4    4  502    0  0.11823148729E+03 -0.31860466537E+02  0.27214042658E+03  0.29841947942E+03  0.00000000000E+00 0.  1.
         13    1    3    3    0    0  0.11083254847E+03 -0.65878256174E+03  0.53148483289E+03  0.85367116398E+03  0.10566000000E+00 0. -1.
         -4    1    3    3    0  501 -0.12313916786E+03  0.84419168604E+02  0.13010995532E+04  0.13096373154E+04  0.00000000000E+00 0. -1.
<mgrwt>
<rscale>  0 0.11511303E+04</rscale>
<asrwt>0</asrwt>
<pdfrwt beam="2">  1        4 0.15268813E+00 0.11526810E+04</pdfrwt>
<pdfrwt beam="1">  1       -4 0.36916112E+00 0.11495817E+04</pdfrwt>
<totfact> 0.90322386E-02</totfact>
</mgrwt>
</event>
<event>
 8    1  0.3025584E-006  0.1134211E+04  0.7818608E-02  0.8658385E-01
          4   -1    0    0  502    0  0.00000000000E+00  0.00000000000E+00  0.36102869100E+04  0.36102869100E+04  0.00000000000E+00 0.  1.
         -4   -1    0    0    0  501 -0.00000000000E+00 -0.00000000000E+00 -0.11767293223E+04  0.11767293223E+04  0.00000000000E+00 0. -1.
   -9000010    2    1    2    0  501  0.51863818108E+03  0.13677713692E+03 -0.78205883492E+03  0.13776972762E+04  0.99936990925E+03 0.  0.
    9000010    2    1    2  502    0 -0.51863818108E+03 -0.13677713692E+03  0.32156164226E+04  0.34093189561E+04  0.99778415441E+03 0.  0.
        -13    1    4    4    0    0 -0.78868469903E+03 -0.21407867496E+03  0.27144846583E+04  0.28348333646E+04  0.10566000000E+00 0.  1.
          4    1    4    4  502    0  0.27004651795E+03  0.77301538042E+02  0.50113176433E+03  0.57448559152E+03  0.00000000000E+00 0.  1.
         13    1    3    3    0    0  0.70159790144E+03  0.11181712101E+03 -0.15923749145E+03  0.72807916720E+03  0.10566000000E+00 0. -1.
         -4    1    3    3    0  501 -0.18295972036E+03  0.24960015910E+02 -0.62282134347E+03  0.64961810900E+03  0.00000000000E+00 0. -1.
<mgrwt>
<rscale>  0 0.11335119E+04</rscale>
<asrwt>0</asrwt>
<pdfrwt beam="1">  1        4 0.55542875E+00 0.11328137E+04</pdfrwt>
<pdfrwt beam="2">  1       -4 0.18103528E+00 0.11342106E+04</pdfrwt>
<totfact> 0.10427352E-02</totfact>
</mgrwt>
</event>
<event>
 8    1  0.3025584E-006  0.1168242E+04  0.7818608E-02  0.8667891E-01
         -4   -1    0    0    0  501 -0.00000000000E+00  0.00000000000E+00  0.15819935800E+04  0.15819935800E+04  0.00000000000E+00 0. -1.
          4   -1    0    0  502    0  0.00000000000E+00 -0.00000000000E+00 -0.14687422123E+04  0.14687422123E+04  0.00000000000E+00 0.  1.
   -9000010    2    1    2    0  501 -0.26849126774E+03  0.31784533284E+03  0.10891505955E+04  0.15971968295E+04  0.10916388946E+04 0.  0.
    9000010    2    1    2  502    0  0.26849126774E+03 -0.31784533284E+03 -0.97589922782E+03  0.14535389628E+04  0.99362115368E+03 0.  0.
        -13    1    4    4    0    0  0.13107689228E+03  0.23853238351E+03 -0.81358019242E+03  0.85789952229E+03  0.10566000000E+00 0.  1.
          4    1    4    4  502    0  0.13741437546E+03 -0.55637771635E+03 -0.16231903540E+03  0.59563944050E+03  0.00000000000E+00 0.  1.
         13    1    3    3    0    0 -0.63537002459E+03  0.63885261421E+02  0.92023414554E+03  0.11200925357E+04  0.10566000000E+00 0. -1.
         -4    1    3    3    0  501  0.36687875685E+03  0.25396007141E+03  0.16891644993E+03  0.47710429380E+03  0.00000000000E+00 0. -1.
<mgrwt>
<rscale>  0 0.11218064E+04</rscale>
<asrwt>0</asrwt>
<pdfrwt beam="2">  1        4 0.22596034E+00 0.10772169E+04</pdfrwt>
<pdfrwt beam="1">  1       -4 0.24338363E+00 0.11682417E+04</pdfrwt>
<totfact> 0.12052732E-01</totfact>
</mgrwt>
</event>
<event>
 8    1  0.3025584E-006  0.1085386E+04  0.7818608E-02  0.8732908E-01
         -4   -1    0    0    0  501 -0.00000000000E+00  0.00000000000E+00  0.23034617097E+04  0.23034617097E+04  0.00000000000E+00 0. -1.
          4   -1    0    0  502    0  0.00000000000E+00 -0.00000000000E+00 -0.64155128264E+03  0.64155128264E+03  0.00000000000E+00 0.  1.
   -9000010    2    1    2    0  501 -0.41601197373E+03 -0.31336486446E+02  0.15572425405E+04  0.18545914546E+04  0.91676452585E+03 0.  0.
    9000010    2    1    2  502    0  0.41601197373E+03  0.31336486446E+02  0.10466788656E+03  0.10904215377E+04  0.10020059011E+04 0.  0.
        -13    1    4    4    0    0  0.10881580170E+03  0.48026260447E+03 -0.11179103406E+03  0.50496563686E+03  0.10566000000E+00 0.  1.
          4    1    4    4  502    0  0.30719617204E+03 -0.44892611802E+03  0.21645892062E+03  0.58545590088E+03  0.00000000000E+00 0.  1.
         13    1    3    3    0    0  0.16812463000E+03 -0.30279571350E+03  0.71315093272E+03  0.79280224478E+03  0.10566000000E+00 0. -1.
         -4    1    3    3    0  501 -0.58413660373E+03  0.27145922705E+03  0.84409160782E+03  0.10617892099E+04  0.00000000000E+00 0. -1.
<mgrwt>
<rscale>  0 0.10455764E+04</rscale>
<asrwt>0</asrwt>
<pdfrwt beam="2">  1        4 0.98700198E-01 0.10853865E+04</pdfrwt>
<pdfrwt beam="1">  1       -4 0.35437872E+00 0.10072265E+04</pdfrwt>
<totfact> 0.21423365E-01</totfact>
</mgrwt>
</event>
<event>
 8    1  0.3025584E-006  0.1209970E+04  0.7818608E-02  0.8603207E-01
          4   -1    0    0  502    0  0.00000000000E+00  0.00000000000E+00  0.99661113320E+03  0.99661113320E+03  0.00000000000E+00 0.  1.
         -4   -1    0    0    0  501 -0.00000000000E+00 -0.00000000000E+00 -0.26316387803E+04  0.26316387803E+04  0.00000000000E+00 0. -1.
   -9000010    2    1    2    0  501 -0.50432209500E+03  0.37055495515E+03 -0.20322494793E+04  0.23651778423E+04  0.10355561451E+04 0.  0.
    9000010    2    1    2  502    0  0.50432209500E+03 -0.37055495515E+03  0.39722183219E+03  0.12630720711E+04  0.10226994293E+04 0.  0.
        -13    1    4    4    0    0  0.80561108960E+03 -0.37857292856E+03  0.35681232471E+03  0.95897952854E+03  0.10566000000E+00 0.  1.
          4    1    4    4  502    0 -0.30128899460E+03  0.80179734118E+01  0.40409507479E+02  0.30409254260E+03  0.00000000000E+00 0.  1.
         13    1    3    3    0    0  0.29908719328E+03  0.25576035114E+03 -0.76594603707E+03  0.86112708079E+03  0.10566000000E+00 0. -1.
         -4    1    3    3    0  501 -0.80340928828E+03  0.11479460401E+03 -0.12663034422E+04  0.15040507615E+04  0.00000000000E+00 0. -1.
<mgrwt>
<rscale>  0 0.12044653E+04</rscale>
<asrwt>0</asrwt>
<pdfrwt beam="1">  1        4 0.15332479E+00 0.11989854E+04</pdfrwt>
<pdfrwt beam="2">  1       -4 0.40486749E+00 0.12099704E+04</pdfrwt>
<totfact> 0.65127416E-02</totfact>
</mgrwt>
</event>
<event>
 8    1  0.3025584E-006  0.1013483E+04  0.7818608E-02  0.8766312E-01
         -4   -1    0    0    0  501 -0.00000000000E+00  0.00000000000E+00  0.18666519483E+04  0.18666519483E+04  0.00000000000E+00 0. -1.
          4   -1    0    0  502    0  0.00000000000E+00 -0.00000000000E+00 -0.22367462804E+04  0.22367462804E+04  0.00000000000E+00 0.  1.
   -9000010    2    1    2    0  501  0.46869298929E+01 -0.68008609679E+02  0.15989236949E+04  0.18930677587E+04  0.10111881223E+04 0.  0.
    9000010    2    1    2  502    0 -0.46869298929E+01  0.68008609679E+02 -0.19690180270E+04  0.22103304700E+04  0.10019389491E+04 0.  0.
        -13    1    4    4    0    0 -0.26080918468E+03 -0.38944695435E+03 -0.76580428244E+03  0.89785665406E+03  0.10566000000E+00 0.  1.
          4    1    4    4  502    0  0.25612225479E+03  0.45745556403E+03 -0.12032137445E+04  0.13124738159E+04  0.00000000000E+00 0.  1.
         13    1    3    3    0    0  0.40392584885E+03  0.27265165118E+03  0.81825899664E+03  0.95238795194E+03  0.10566000000E+00 0. -1.
         -4    1    3    3    0  501 -0.39923891895E+03 -0.34066026086E+03  0.78066469826E+03  0.94067980676E+03  0.00000000000E+00 0. -1.
<mgrwt>
<rscale>  0 0.10088588E+04</rscale>
<asrwt>0</asrwt>
<pdfrwt beam="2">  1        4 0.34411481E+00 0.10042553E+04</pdfrwt>
<pdfrwt beam="1">  1       -4 0.28717722E+00 0.10134834E+04</pdfrwt>
<totfact> 0.47195375E-02</totfact>
</mgrwt>
</event>
<event>
 8    1  0.3025584E-006  0.1192565E+04  0.7818608E-02  0.8622365E-01
          4   -1    0    0  502    0  0.00000000000E+00  0.00000000000E+00  0.68044623778E+03  0.68044623778E+03  0.00000000000E+00 0.  1.
         -4   -1    0    0    0  501 -0.00000000000E+00 -0.00000000000E+00 -0.35310188380E+04  0.35310188380E+04  0.00000000000E+00 0. -1.
   -9000010    2    1    2    0  501  0.41391367141E+03 -0.43694532803E+03 -0.28010575759E+04  0.30443610239E+04  0.10295458964E+04 0.  0.
    9000010    2    1    2  502    0 -0.41391367141E+03  0.43694532803E+03 -0.49515024279E+02  0.11671040519E+04  0.99871636781E+03 0.  0.
        -13    1    4    4    0    0 -0.25065692451E+03  0.52760656472E+03 -0.44197008685E+03  0.73248559697E+03  0.10566000000E+00 0.  1.
          4    1    4    4  502    0 -0.16325674690E+03 -0.90661236689E+02  0.39245506257E+03  0.43461845495E+03  0.00000000000E+00 0.  1.
         13    1    3    3    0    0  0.39097193234E+03 -0.51070524491E+03 -0.28697790422E+04  0.29409710405E+04  0.10566000000E+00 0. -1.
         -4    1    3    3    0  501  0.22941739066E+02  0.73759916879E+02  0.68721466255E+02  0.10338998333E+03  0.00000000000E+00 0. -1.
<mgrwt>
<rscale>  0 0.11792344E+04</rscale>
<asrwt>0</asrwt>
<pdfrwt beam="1">  1        4 0.10468404E+00 0.11660532E+04</pdfrwt>
<pdfrwt beam="2">  1       -4 0.54323366E+00 0.11925647E+04</pdfrwt>
<totfact> 0.28310021E-02</totfact>
</mgrwt>
</event>
<event>
 8    1  0.3025584E-006  0.1281532E+04  0.7818608E-02  0.8549797E-01
          4   -1    0    0  502    0  0.00000000000E+00  0.00000000000E+00  0.11281240052E+04  0.11281240052E+04  0.00000000000E+00 0.  1.
         -4   -1    0    0    0  501 -0.00000000000E+00 -0.00000000000E+00 -0.14670826351E+04  0.14670826351E+04  0.00000000000E+00 0. -1.
   -9000010    2    1    2    0  501  0.62121856305E+03  0.48798113576E+03 -0.31569235306E+03  0.13198435663E+04  0.10091022177E+04 0.  0.
    9000010    2    1    2  502    0 -0.62121856305E+03 -0.48798113576E+03 -0.23266276806E+02  0.12753630740E+04  0.10009852941E+04 0.  0.
        -13    1    4    4    0    0 -0.27948094823E+03 -0.73728665286E+03 -0.20542130544E+03  0.81480005695E+03  0.10566000000E+00 0.  1.
          4    1    4    4  502    0 -0.34173761482E+03  0.24930551710E+03  0.18215502863E+03  0.46056301707E+03  0.00000000000E+00 0.  1.
         13    1    3    3    0    0 -0.18485787590E+03 -0.43111327371E+01  0.17576612311E+03  0.25511715219E+03  0.10566000000E+00 0. -1.
         -4    1    3    3    0  501  0.80607643895E+03  0.49229226849E+03 -0.49145847617E+03  0.10647264141E+04  0.00000000000E+00 0. -1.
<mgrwt>
<rscale>  0 0.12783377E+04</rscale>
<asrwt>0</asrwt>
<pdfrwt beam="1">  1        4 0.17355754E+00 0.12751508E+04</pdfrwt>
<pdfrwt beam="2">  1       -4 0.22570502E+00 0.12815324E+04</pdfrwt>
<totfact> 0.18732569E-01</totfact>
</mgrwt>
</event>
<event>
 8    1  0.3025584E-006  0.1276352E+04  0.7818608E-02  0.8554625E-01
          4   -1    0    0  502    0  0.00000000000E+00  0.00000000000E+00  0.21300474366E+04  0.21300474366E+04  0.00000000000E+00 0.  1.
         -4   -1    0    0    0  501 -0.00000000000E+00 -0.00000000000E+00 -0.19781056389E+04  0.19781056389E+04  0.00000000000E+00 0. -1.
   -9000010    2    1    2    0  501 -0.75601257111E+03  0.10463506468E+03 -0.15367238105E+04  0.19913946959E+04  0.10107567761E+04 0.  0.
    9000010    2    1    2  502    0  0.75601257111E+03 -0.10463506468E+03  0.16886656082E+04  0.21167583796E+04  0.10230205261E+04 0.  0.
        -13    1    4    4    0    0  0.39243190279E+03 -0.20763008867E+03  0.63806250544E+02  0.44853572971E+03  0.10566000000E+00 0.  1.
          4    1    4    4  502    0  0.36358066832E+03  0.10299502399E+03  0.16248593577E+04  0.16682226499E+04  0.00000000000E+00 0.  1.
         13    1    3    3    0    0  0.43259595886E+02  0.34492399824E+03 -0.82233531127E+03  0.89279299534E+03  0.10566000000E+00 0. -1.
         -4    1    3    3    0  501 -0.79927216700E+03 -0.24028893356E+03 -0.71438849925E+03  0.10986017005E+04  0.00000000000E+00 0. -1.
<mgrwt>
<rscale>  0 0.12714384E+04</rscale>
<asrwt>0</asrwt>
<pdfrwt beam="1">  1        4 0.32769961E+00 0.12763520E+04</pdfrwt>
<pdfrwt beam="2">  1       -4 0.30432394E+00 0.12665436E+04</pdfrwt>
<totfact> 0.45852477E-02</totfact>
</mgrwt>
</event>
<event>
 8    1  0.3025584E-006  0.1371474E+04  0.7818608E-02  0.8488396E-01
          4   -1    0    0  502    0  0.00000000000E+00  0.00000000000E+00  0.15981178558E+04  0.15981178558E+04  0.00000000000E+00 0.  1.
         -4   -1    0    0    0  501 -0.00000000000E+00 -0.00000000000E+00 -0.11783985315E+04  0.11783985315E+04  0.00000000000E+00 0. -1.
   -9000010    2    1    2    0  501 -0.49338874452E+03  0.79988525735E+03  0.13204334977E+03  0.13778155163E+04  0.99884496931E+03 0.  0.
    9000010    2    1    2  502    0  0.49338874452E+03 -0.79988525735E+03  0.28767597451E+03  0.13987008710E+04  0.99516721318E+03 0.  0.
        -13    1    4    4    0    0 -0.22591002656E+02  0.20621977211E+03  0.15763206763E+03  0.26054716985E+03  0.10566000000E+00 0.  1.
          4    1    4    4  502    0  0.51597974717E+03 -0.10061050295E+04  0.13004390689E+03  0.11381537012E+04  0.00000000000E+00 0.  1.
         13    1    3    3    0    0 -0.18312782539E+03  0.97381528693E+03  0.21186587888E+03  0.10132813900E+04  0.10566000000E+00 0. -1.
         -4    1    3    3    0  501 -0.31026091913E+03 -0.17393002958E+03 -0.79822529108E+02  0.36453412636E+03  0.00000000000E+00 0. -1.
<mgrwt>
<rscale>  0 0.13701350E+04</rscale>
<asrwt>0</asrwt>
<pdfrwt beam="1">  1        4 0.24586429E+00 0.13687975E+04</pdfrwt>
<pdfrwt beam="2">  1       -4 0.18129208E+00 0.13714737E+04</pdfrwt>
<totfact> 0.15675762E-01</totfact>
</mgrwt>
</event>
<event>
 8    1  0.3025584E-006  0.1064598E+04  0.7818608E-02  0.8751017E-01
         -4   -1    0    0    0  501 -0.00000000000E+00  0.00000000000E+00  0.60646118937E+03  0.60646118937E+03  0.00000000000E+00 0. -1.
          4   -1    0    0  502    0  0.00000000000E+00 -0.00000000000E+00 -0.25919908178E+04  0.25919908178E+04  0.00000000000E+00 0.  1.
   -9000010    2    1    2    0  501  0.19770011554E+03 -0.29012921827E+03 -0.99287887393E+02  0.10692181971E+04  0.10050418745E+04 0.  0.
    9000010    2    1    2  502    0 -0.19770011554E+03  0.29012921827E+03 -0.18862417410E+04  0.21292338100E+04  0.92329216022E+03 0.  0.
        -13    1    4    4    0    0  0.11569023317E+03  0.11327797927E+03  0.42347817919E+02  0.16736032829E+03  0.10566000000E+00 0.  1.
          4    1    4    4  502    0 -0.31339034871E+03  0.17685123900E+03 -0.19285895589E+04  0.19618734817E+04  0.00000000000E+00 0.  1.
         13    1    3    3    0    0 -0.33282415099E+03 -0.25599135568E+03  0.19347389102E+03  0.46231552790E+03  0.10566000000E+00 0. -1.
         -4    1    3    3    0  501  0.53052426653E+03 -0.34137862591E+02 -0.29276177841E+03  0.60690266925E+03  0.00000000000E+00 0. -1.
<mgrwt>
<rscale>  0 0.10254752E+04</rscale>
<asrwt>0</asrwt>
<pdfrwt beam="2">  1        4 0.39876781E+00 0.98778981E+03</pdfrwt>
<pdfrwt beam="1">  1       -4 0.93301723E-01 0.10645983E+04</pdfrwt>
<totfact> 0.16353838E-01</totfact>
</mgrwt>
</event>
<event>
 8    1  0.3025584E-006  0.1060733E+04  0.7818608E-02  0.8757808E-01
         -4   -1    0    0    0  501 -0.00000000000E+00  0.00000000000E+00  0.19047598076E+04  0.19047598076E+04  0.00000000000E+00 0. -1.
          4   -1    0    0  502    0  0.00000000000E+00 -0.00000000000E+00 -0.20587730135E+04  0.20587730135E+04  0.00000000000E+00 0.  1.
   -9000010    2    1    2    0  501 -0.24642432334E+03 -0.14033667436E+03  0.16227568097E+04  0.18942174718E+04  0.93504055409E+03 0.  0.
    9000010    2    1    2  502    0  0.24642432334E+03  0.14033667436E+03 -0.17767700156E+04  0.20693153493E+04  0.10221227897E+04 0.  0.
        -13    1    4    4    0    0  0.45352846098E+03 -0.13079151274E+03 -0.31311855015E+03  0.56642538991E+03  0.10566000000E+00 0.  1.
          4    1    4    4  502    0 -0.20710413765E+03  0.27112818710E+03 -0.14636514654E+04  0.15028899594E+04  0.00000000000E+00 0.  1.
         13    1    3    3    0    0  0.11381518199E+03 -0.29501775917E+02  0.14899763751E+04  0.14946082631E+04  0.10566000000E+00 0. -1.
         -4    1    3    3    0  501 -0.36023950533E+03 -0.11083489845E+03  0.13278043459E+03  0.39960920876E+03  0.00000000000E+00 0. -1.
<mgrwt>
<rscale>  0 0.10180569E+04</rscale>
<asrwt>0</asrwt>
<pdfrwt beam="2">  1        4 0.31673431E+00 0.10607329E+04</pdfrwt>
<pdfrwt beam="1">  1       -4 0.29303997E+00 0.97709783E+03</pdfrwt>
<totfact> 0.54507948E-02</totfact>
</mgrwt>
</event>
<event>
 8    1  0.3025584E-006  0.1325840E+04  0.7818608E-02  0.8519878E-01
         -4   -1    0    0    0  501 -0.00000000000E+00  0.00000000000E+00  0.12922052123E+04  0.12922052123E+04  0.00000000000E+00 0. -1.
          4   -1    0    0  502    0  0.00000000000E+00 -0.00000000000E+00 -0.30095577341E+04  0.30095577341E+04  0.00000000000E+00 0.  1.
   -9000010    2    1    2    0  501 -0.83372984458E+03 -0.23114650947E+03  0.73613197783E+03  0.15164900599E+04  0.10046480232E+04 0.  0.
    9000010    2    1    2  502    0  0.83372984458E+03  0.23114650947E+03 -0.24534844996E+04  0.27852728865E+04  0.99479882368E+03 0.  0.
        -13    1    4    4    0    0  0.65669510245E+03  0.24331986872E+03 -0.59678184078E+03  0.92010955475E+03  0.10566000000E+00 0.  1.
          4    1    4    4  502    0  0.17703474213E+03 -0.12173359255E+02 -0.18567026589E+04  0.18651633317E+04  0.00000000000E+00 0.  1.
         13    1    3    3    0    0 -0.92456352789E+03 -0.48795438132E+03  0.64900071331E+03  0.12304954825E+04  0.10566000000E+00 0. -1.
         -4    1    3    3    0  501  0.90833683312E+02  0.25680787186E+03  0.87131264520E+02  0.28599457745E+03  0.00000000000E+00 0. -1.
<mgrwt>
<rscale>  0 0.13221110E+04</rscale>
<asrwt>0</asrwt>
<pdfrwt beam="2">  1        4 0.46300888E+00 0.13183925E+04</pdfrwt>
<pdfrwt beam="1">  1       -4 0.19880080E+00 0.13258400E+04</pdfrwt>
<totfact> 0.24781917E-02</totfact>
</mgrwt>
</event>
<event>
 8    1  0.3025584E-006  0.1071900E+04  0.7818608E-02  0.8713422E-01
         -4   -1    0    0    0  501 -0.00000000000E+00  0.00000000000E+00  0.12525696545E+04  0.12525696545E+04  0.00000000000E+00 0. -1.
          4   -1    0    0  502    0  0.00000000000E+00 -0.00000000000E+00 -0.21494358925E+04  0.21494358925E+04  0.00000000000E+00 0.  1.
   -9000010    2    1    2    0  501 -0.33547602783E+03  0.13512853998E+03  0.84387644147E+03  0.13577072704E+04  0.10002188241E+04 0.  0.
    9000010    2    1    2  502    0  0.33547602783E+03 -0.13512853998E+03 -0.17407426794E+04  0.20442982766E+04  0.10090423580E+04 0.  0.
        -13    1    4    4    0    0  0.24805888992E+03 -0.30025849994E+01 -0.18404584763E+04  0.18571024857E+04  0.10566000000E+00 0.  1.
          4    1    4    4  502    0  0.87417137914E+02 -0.13212595498E+03  0.99715796885E+02  0.18719579090E+03  0.00000000000E+00 0.  1.
         13    1    3    3    0    0 -0.26560771156E+03 -0.22932753443E+03 -0.81885291025E+02  0.36033843333E+03  0.10566000000E+00 0. -1.
         -4    1    3    3    0  501 -0.69868316273E+02  0.36445607441E+03  0.92576173250E+03  0.99736883707E+03  0.00000000000E+00 0. -1.
<mgrwt>
<rscale>  0 0.10677413E+04</rscale>
<asrwt>0</asrwt>
<pdfrwt beam="2">  1        4 0.33068245E+00 0.10719004E+04</pdfrwt>
<pdfrwt beam="1">  1       -4 0.19270302E+00 0.10635984E+04</pdfrwt>
<totfact> 0.88305261E-02</totfact>
</mgrwt>
</event>
<event>
 8    1  0.3025584E-006  0.1077839E+04  0.7818608E-02  0.8705016E-01
         -4   -1    0    0    0  501 -0.00000000000E+00  0.00000000000E+00  0.43993026280E+03  0.43993026280E+03  0.00000000000E+00 0. -1.
          4   -1    0    0  502    0  0.00000000000E+00 -0.00000000000E+00 -0.26997159418E+04  0.26997159418E+04  0.00000000000E+00 0.  1.
   -9000010    2    1    2    0  501 -0.34186764124E+03  0.20585098342E+03 -0.89403901512E+03  0.13998183645E+04  0.10004686809E+04 0.  0.
    9000010    2    1    2  502    0  0.34186764124E+03 -0.20585098342E+03 -0.13657466638E+04  0.17398278400E+04  0.10012436525E+04 0.  0.
        -13    1    4    4    0    0  0.38865155301E+03  0.24951870002E+03 -0.11388011422E+04  0.12288928610E+04  0.10566000000E+00 0.  1.
          4    1    4    4  502    0 -0.46783911777E+02 -0.45536968343E+03 -0.22694552168E+03  0.51093497904E+03  0.00000000000E+00 0.  1.
         13    1    3    3    0    0  0.11029224689E+03  0.38602831413E+03 -0.81253014451E+03  0.90630430096E+03  0.10566000000E+00 0. -1.
         -4    1    3    3    0  501 -0.45215988813E+03 -0.18017733072E+03 -0.81508870613E+02  0.49351406355E+03  0.00000000000E+00 0. -1.
<mgrwt>
<rscale>  0 0.10774790E+04</rscale>
<asrwt>0</asrwt>
<pdfrwt beam="2">  1        4 0.41534092E+00 0.10778390E+04</pdfrwt>
<pdfrwt beam="1">  1       -4 0.67681578E-01 0.10771192E+04</pdfrwt>
<totfact> 0.26881544E-01</totfact>
</mgrwt>
</event>
<event>
 8    1  0.3025584E-006  0.1131704E+04  0.7818608E-02  0.8665070E-01
         -4   -1    0    0    0  501 -0.00000000000E+00  0.00000000000E+00  0.13887311571E+04  0.13887311571E+04  0.00000000000E+00 0. -1.
          4   -1    0    0  502    0  0.00000000000E+00 -0.00000000000E+00 -0.12242187763E+04  0.12242187763E+04  0.00000000000E+00 0.  1.
   -9000010    2    1    2    0  501 -0.13388703260E+03  0.49832944709E+03  0.74257960779E+03  0.13535798610E+04  0.10072219174E+04 0.  0.
    9000010    2    1    2  502    0  0.13388703260E+03 -0.49832944709E+03 -0.57806722702E+03  0.12593700724E+04  0.99277050975E+03 0.  0.
        -13    1    4    4    0    0  0.45341274946E+03 -0.35053522233E+03 -0.68339500931E+03  0.89190067462E+03  0.10566000000E+00 0.  1.
          4    1    4    4  502    0 -0.31952571686E+03 -0.14779422475E+03  0.10532778229E+03  0.36746939781E+03  0.00000000000E+00 0.  1.
         13    1    3    3    0    0  0.82520671643E+02  0.77423143927E+03  0.47028352036E+03  0.90962112085E+03  0.10566000000E+00 0. -1.
         -4    1    3    3    0  501 -0.21640770425E+03 -0.27590199219E+03  0.27229608743E+03  0.44395874018E+03  0.00000000000E+00 0. -1.
<mgrwt>
<rscale>  0 0.11252645E+04</rscale>
<asrwt>0</asrwt>
<pdfrwt beam="2">  1        4 0.18834135E+00 0.11188616E+04</pdfrwt>
<pdfrwt beam="1">  1       -4 0.21365095E+00 0.11317040E+04</pdfrwt>
<totfact> 0.18057197E-01</totfact>
</mgrwt>
</event>
<event>
 8    1  0.3025584E-006  0.1291113E+04  0.7818608E-02  0.8550446E-01
         -4   -1    0    0    0  501 -0.00000000000E+00  0.00000000000E+00  0.80223841449E+03  0.80223841449E+03  0.00000000000E+00 0.  1.
          4   -1    0    0  502    0  0.00000000000E+00 -0.00000000000E+00 -0.29155643448E+04  0.29155643448E+04  0.00000000000E+00 0. -1.
   -9000010    2    1    2    0  501  0.34618232527E+03  0.73648529537E+03 -0.26816539514E+02  0.12641332362E+04  0.96698548045E+03 0.  0.
    9000010    2    1    2  502    0 -0.34618232527E+03 -0.73648529537E+03 -0.20865093908E+04  0.24536695231E+04  0.10023571709E+04 0.  0.
        -13    1    4    4    0    0 -0.98453231212E+02 -0.93695583704E+03 -0.17666222659E+04  0.20021322436E+04  0.10566000000E+00 0.  1.
          4    1    4    4  502    0 -0.24772909405E+03  0.20047054167E+03 -0.31988712489E+03  0.45153727951E+03  0.00000000000E+00 0.  1.
         13    1    3    3    0    0  0.59801512572E+03  0.72080853531E+03 -0.20051371230E+03  0.95780624092E+03  0.10566000000E+00 0. -1.
         -4    1    3    3    0  501 -0.25183280045E+03  0.15676760067E+02  0.17369717279E+03  0.30632699526E+03  0.00000000000E+00 0. -1.
<mgrwt>
<rscale>  0 0.12774081E+04</rscale>
<asrwt>0</asrwt>
<pdfrwt beam="2">  1        4 0.44854836E+00 0.12911130E+04</pdfrwt>
<pdfrwt beam="1">  1       -4 0.12342129E+00 0.12638488E+04</pdfrwt>
<totfact> 0.58629128E-02</totfact>
</mgrwt>
</event>
<event>
 8    1  0.3025584E-006  0.1320019E+04  0.7818608E-02  0.8553017E-01
          4   -1    0    0  502    0  0.00000000000E+00  0.00000000000E+00  0.13062826883E+04  0.13062826883E+04  0.00000000000E+00 0.  1.
         -4   -1    0    0    0  501 -0.00000000000E+00 -0.00000000000E+00 -0.15203958198E+04  0.15203958198E+04  0.00000000000E+00 0. -1.
   -9000010    2    1    2    0  501  0.68955282293E+03 -0.26330243373E+03 -0.71293673123E+03  0.15002426978E+04  0.10943665302E+04 0.  0.
    9000010    2    1    2  502    0 -0.68955282293E+03  0.26330243373E+03  0.49882359978E+03  0.13264358103E+04  0.98274905641E+03 0.  0.
        -13    1    4    4    0    0 -0.71617054346E+03 -0.21073153004E+03  0.37675930358E+03  0.83621504953E+03  0.10566000000E+00 0.  1.
          4    1    4    4  502    0  0.26617720527E+02  0.47403396377E+03  0.12206429620E+03  0.49022076074E+03  0.00000000000E+00 0.  1.
         13    1    3    3    0    0  0.36941373577E+03 -0.35593550867E+03  0.18274577801E+03  0.54456645605E+03  0.10566000000E+00 0. -1.
         -4    1    3    3    0  501  0.32013908716E+03  0.92633074943E+02 -0.89568250924E+03  0.95567624176E+03  0.00000000000E+00 0. -1.
<mgrwt>
<rscale>  0 0.12737316E+04</rscale>
<asrwt>0</asrwt>
<pdfrwt beam="1">  1        4 0.20096657E+00 0.12290675E+04</pdfrwt>
<pdfrwt beam="2">  1       -4 0.23390705E+00 0.13200187E+04</pdfrwt>
<totfact> 0.14631606E-01</totfact>
</mgrwt>
</event>
<event>
 8    1  0.3025584E-006  0.1108168E+04  0.7818608E-02  0.8690947E-01
         -4   -1    0    0    0  501 -0.00000000000E+00  0.00000000000E+00  0.19490566216E+04  0.19490566216E+04  0.00000000000E+00 0. -1.
          4   -1    0    0  502    0  0.00000000000E+00 -0.00000000000E+00 -0.96443168462E+03  0.96443168462E+03  0.00000000000E+00 0.  1.
   -9000010    2    1    2    0  501 -0.32040475621E+03 -0.27432141198E+03  0.13661176642E+04  0.17414927989E+04  0.99428781123E+03 0.  0.
    9000010    2    1    2  502    0  0.32040475621E+03  0.27432141198E+03 -0.38149272713E+03  0.11719955073E+04  0.10247562264E+04 0.  0.
        -13    1    4    4    0    0  0.27704461029E+03  0.29052740231E+03 -0.72320886447E+03  0.82715836476E+03  0.10566000000E+00 0.  1.
          4    1    4    4  502    0  0.43360145927E+02 -0.16205990331E+02  0.34171613733E+03  0.34483714256E+03  0.00000000000E+00 0.  1.
         13    1    3    3    0    0 -0.49875396741E+02 -0.10123565893E+03 -0.15225850355E+03  0.18952276092E+03  0.10566000000E+00 0. -1.
         -4    1    3    3    0  501 -0.27052935947E+03 -0.17308575305E+03  0.15183761677E+04  0.15519700380E+04  0.00000000000E+00 0. -1.
<mgrwt>
<rscale>  0 0.10940215E+04</rscale>
<asrwt>0</asrwt>
<pdfrwt beam="2">  1        4 0.14837411E+00 0.11081682E+04</pdfrwt>
<pdfrwt beam="1">  1       -4 0.29985486E+00 0.10800554E+04</pdfrwt>
<totfact> 0.15482441E-01</totfact>
</mgrwt>
</event>
<event>
 8    1  0.3025584E-006  0.1066835E+04  0.7818608E-02  0.8714293E-01
         -4   -1    0    0    0  501 -0.00000000000E+00  0.00000000000E+00  0.34145078105E+04  0.34145078105E+04  0.00000000000E+00 0. -1.
          4   -1    0    0  502    0  0.00000000000E+00 -0.00000000000E+00 -0.74852091199E+03  0.74852091199E+03  0.00000000000E+00 0.  1.
   -9000010    2    1    2    0  501  0.28290002113E+03 -0.26809795665E+03  0.28834205662E+04  0.30744511838E+04  0.99308961516E+03 0.  0.
    9000010    2    1    2  502    0 -0.28290002113E+03  0.26809795665E+03 -0.21743366766E+03  0.10885775387E+04  0.99288202806E+03 0.  0.
        -13    1    4    4    0    0  0.13582859955E+03  0.41122354624E+03  0.20290093206E+03  0.47824994807E+03  0.10566000000E+00 0.  1.
          4    1    4    4  502    0 -0.41872862069E+03 -0.14312558959E+03 -0.42033459972E+03  0.61032759064E+03  0.00000000000E+00 0.  1.
         13    1    3    3    0    0 -0.85762849810E+02  0.34276709705E+03  0.96149009655E+03  0.10243572454E+04  0.10566000000E+00 0. -1.
         -4    1    3    3    0  501  0.36866287094E+03 -0.61086505370E+03  0.19219304696E+04  0.20500939384E+04  0.00000000000E+00 0. -1.
<mgrwt>
<rscale>  0 0.10667379E+04</rscale>
<asrwt>0</asrwt>
<pdfrwt beam="2">  1        4 0.11515707E+00 0.10666413E+04</pdfrwt>
<pdfrwt beam="1">  1       -4 0.52530889E+00 0.10668345E+04</pdfrwt>
<totfact> 0.29313050E-02</totfact>
</mgrwt>
</event>
<event>
 8    1  0.3025584E-006  0.1362080E+04  0.7818608E-02  0.8500614E-01
          4   -1    0    0  502    0  0.00000000000E+00  0.00000000000E+00  0.25907116243E+04  0.25907116243E+04  0.00000000000E+00 0.  1.
         -4   -1    0    0    0  501 -0.00000000000E+00 -0.00000000000E+00 -0.87773368864E+03  0.87773368864E+03  0.00000000000E+00 0. -1.
   -9000010    2    1    2    0  501 -0.78572800969E+03  0.46913485420E+03  0.81299485804E+02  0.13429720613E+04  0.97954496290E+03 0.  0.
    9000010    2    1    2  502    0  0.78572800969E+03 -0.46913485420E+03  0.16316784498E+04  0.21254732516E+04  0.10088636990E+04 0.  0.
        -13    1    4    4    0    0  0.63190741121E+03 -0.39811916220E+03  0.33634239016E+03  0.81910442450E+03  0.10566000000E+00 0.  1.
          4    1    4    4  502    0  0.15382059848E+03 -0.71015691997E+02  0.12953360597E+04  0.13063688271E+04  0.00000000000E+00 0.  1.
         13    1    3    3    0    0 -0.19855155156E+03 -0.15140503396E+03  0.36548498431E+03  0.44263471153E+03  0.10566000000E+00 0. -1.
         -4    1    3    3    0  501 -0.58717645814E+03  0.62053988816E+03 -0.28418549850E+03  0.90033734975E+03  0.00000000000E+00 0. -1.
<mgrwt>
<rscale>  0 0.13512515E+04</rscale>
<asrwt>0</asrwt>
<pdfrwt beam="1">  1        4 0.39857102E+00 0.13620800E+04</pdfrwt>
<pdfrwt beam="2">  1       -4 0.13503595E+00 0.13405090E+04</pdfrwt>
<totfact> 0.82590850E-02</totfact>
</mgrwt>
</event>
<event>
 8    1  0.3025584E-006  0.1180054E+04  0.7818608E-02  0.8622390E-01
          4   -1    0    0  502    0  0.00000000000E+00  0.00000000000E+00  0.12292867771E+04  0.12292867771E+04  0.00000000000E+00 0.  1.
         -4   -1    0    0    0  501 -0.00000000000E+00 -0.00000000000E+00 -0.29919172326E+04  0.29919172326E+04  0.00000000000E+00 0. -1.
   -9000010    2    1    2    0  501 -0.59111833702E+03  0.18686503941E+03 -0.25460275843E+04  0.28062045892E+04  0.10040858058E+04 0.  0.
    9000010    2    1    2  502    0  0.59111833702E+03 -0.18686503941E+03  0.78339712881E+03  0.14149994205E+04  0.10020842615E+04 0.  0.
        -13    1    4    4    0    0  0.81481996644E+03 -0.29377393690E+03  0.38982192257E+03  0.94983990556E+03  0.10566000000E+00 0.  1.
          4    1    4    4  502    0 -0.22370162942E+03  0.10690889749E+03  0.39357520624E+03  0.46515951493E+03  0.00000000000E+00 0.  1.
         13    1    3    3    0    0 -0.42675799524E+03 -0.37160364882E+03 -0.15805792743E+04  0.16788217630E+04  0.10566000000E+00 0. -1.
         -4    1    3    3    0  501 -0.16436034178E+03  0.55846868823E+03 -0.96544831000E+03  0.11273828263E+04  0.00000000000E+00 0. -1.
<mgrwt>
<rscale>  0 0.11792025E+04</rscale>
<asrwt>0</asrwt>
<pdfrwt beam="1">  1        4 0.18912104E+00 0.11783515E+04</pdfrwt>
<pdfrwt beam="2">  1       -4 0.46029495E+00 0.11800541E+04</pdfrwt>
<totfact> 0.27696391E-02</totfact>
</mgrwt>
</event>
<event>
 8    1  0.3025584E-006  0.1104018E+04  0.7818608E-02  0.8715859E-01
         -4   -1    0    0    0  501 -0.00000000000E+00  0.00000000000E+00  0.23428905115E+04  0.23428905115E+04  0.00000000000E+00 0. -1.
          4   -1    0    0  502    0  0.00000000000E+00 -0.00000000000E+00 -0.13634673338E+04  0.13634673338E+04  0.00000000000E+00 0.  1.
   -9000010    2    1    2    0  501  0.16704741535E+03 -0.43475791588E+03  0.19708657365E+04  0.22225069221E+04  0.91559051063E+03 0.  0.
    9000010    2    1    2  502    0 -0.16704741535E+03  0.43475791588E+03 -0.99144255879E+03  0.14838509232E+04  0.10009674972E+04 0.  0.
        -13    1    4    4    0    0 -0.25527916915E+03  0.61482156262E+03 -0.10767629746E+04  0.12659350389E+04  0.10566000000E+00 0.  1.
          4    1    4    4  502    0  0.88231753804E+02 -0.18006364674E+03  0.85320415840E+02  0.21791588426E+03  0.00000000000E+00 0.  1.
         13    1    3    3    0    0 -0.26091177668E+03  0.15053749196E+03  0.53566745769E+03  0.61455360066E+03  0.10566000000E+00 0. -1.
         -4    1    3    3    0  501  0.42795919203E+03 -0.58529540784E+03  0.14351982788E+04  0.16079533215E+04  0.00000000000E+00 0. -1.
<mgrwt>
<rscale>  0 0.10649380E+04</rscale>
<asrwt>0</asrwt>
<pdfrwt beam="2">  1        4 0.20976421E+00 0.11040178E+04</pdfrwt>
<pdfrwt beam="1">  1       -4 0.36044469E+00 0.10272416E+04</pdfrwt>
<totfact> 0.63692949E-02</totfact>
</mgrwt>
</event>
<event>
 8    1  0.3025584E-006  0.1103300E+04  0.7818608E-02  0.8736118E-01
          4   -1    0    0  502    0  0.00000000000E+00  0.00000000000E+00  0.31134440896E+04  0.31134440896E+04  0.00000000000E+00 0.  1.
         -4   -1    0    0    0  501 -0.00000000000E+00 -0.00000000000E+00 -0.11412264412E+04  0.11412264412E+04  0.00000000000E+00 0. -1.
   -9000010    2    1    2    0  501 -0.16538037327E+03  0.15070980835E+03 -0.80176230312E+03  0.12693337649E+04  0.95829082314E+03 0.  0.
    9000010    2    1    2  502    0  0.16538037327E+03 -0.15070980835E+03  0.27739799515E+04  0.29853367659E+04  0.10803734170E+04 0.  0.
        -13    1    4    4    0    0 -0.39554943262E+02 -0.60383106495E+03  0.15812206521E+04  0.16930550228E+04  0.10566000000E+00 0.  1.
          4    1    4    4  502    0  0.20493531653E+03  0.45312125659E+03  0.11927592995E+04  0.12922817431E+04  0.00000000000E+00 0.  1.
         13    1    3    3    0    0 -0.41212356180E+03  0.25660581701E+03 -0.86640789480E+03  0.99315408012E+03  0.10566000000E+00 0. -1.
         -4    1    3    3    0  501  0.24674318854E+03 -0.10589600866E+03  0.64645591681E+02  0.27617968474E+03  0.00000000000E+00 0. -1.
<mgrwt>
<rscale>  0 0.10419788E+04</rscale>
<asrwt>0</asrwt>
<pdfrwt beam="1">  1        4 0.47899139E+00 0.11033000E+04</pdfrwt>
<pdfrwt beam="2">  1       -4 0.17557330E+00 0.98406576E+03</pdfrwt>
<totfact> 0.25304577E-02</totfact>
</mgrwt>
</event>
<event>
 8    1  0.3025584E-006  0.1058966E+04  0.7818608E-02  0.8726572E-01
         -4   -1    0    0    0  501 -0.00000000000E+00  0.00000000000E+00  0.14999885477E+04  0.14999885477E+04  0.00000000000E+00 0. -1.
          4   -1    0    0  502    0  0.00000000000E+00 -0.00000000000E+00 -0.14369639184E+04  0.14369639184E+04  0.00000000000E+00 0.  1.
   -9000010    2    1    2    0  501  0.11993550533E+03 -0.30832916444E+03  0.10551468744E+04  0.14949059020E+04  0.10059608990E+04 0.  0.
    9000010    2    1    2  502    0 -0.11993550533E+03  0.30832916444E+03 -0.99212224504E+03  0.14420465641E+04  0.99284457233E+03 0.  0.
        -13    1    4    4    0    0 -0.49545819206E+03  0.24021990638E+03 -0.24413024579E+03  0.60231554154E+03  0.10566000000E+00 0.  1.
          4    1    4    4  502    0  0.37552268673E+03  0.68109258056E+02 -0.74799199925E+03  0.83973102255E+03  0.00000000000E+00 0.  1.
         13    1    3    3    0    0 -0.38863227035E+03 -0.21040363550E+03  0.17833344719E+03  0.47655803523E+03  0.10566000000E+00 0. -1.
         -4    1    3    3    0  501  0.50856777567E+03 -0.97925528937E+02  0.87681342719E+03  0.10183478668E+04  0.00000000000E+00 0. -1.
<mgrwt>
<rscale>  0 0.10527216E+04</rscale>
<asrwt>0</asrwt>
<pdfrwt beam="2">  1        4 0.22107137E+00 0.10465141E+04</pdfrwt>
<pdfrwt beam="1">  1       -4 0.23076747E+00 0.10589659E+04</pdfrwt>
<totfact> 0.13346450E-01</totfact>
</mgrwt>
</event>
<event>
 8    1  0.3025584E-006  0.1181613E+04  0.7818608E-02  0.8621140E-01
         -4   -1    0    0    0  501 -0.00000000000E+00  0.00000000000E+00  0.17955361025E+04  0.17955361025E+04  0.00000000000E+00 0. -1.
          4   -1    0    0  502    0  0.00000000000E+00 -0.00000000000E+00 -0.11824287038E+04  0.11824287038E+04  0.00000000000E+00 0.  1.
   -9000010    2    1    2    0  501  0.43548656555E+03  0.45937415542E+03  0.11790347524E+04  0.16692311895E+04  0.99776583086E+03 0.  0.
    9000010    2    1    2  502    0 -0.43548656555E+03 -0.45937415542E+03 -0.56592735376E+03  0.13087336168E+04  0.99591000922E+03 0.  0.
        -13    1    4    4    0    0 -0.35268440228E+03  0.11109458506E+03  0.14173659244E+03  0.39600197884E+03  0.10566000000E+00 0.  1.
          4    1    4    4  502    0 -0.82802163266E+02 -0.57046874048E+03 -0.70766394620E+03  0.91273163792E+03  0.00000000000E+00 0.  1.
         13    1    3    3    0    0  0.25705593249E+03  0.18893084834E+02  0.11656368580E+04  0.11937939508E+04  0.10566000000E+00 0. -1.
         -4    1    3    3    0  501  0.17843063306E+03  0.44048107059E+03  0.13397894381E+02  0.47543723869E+03  0.00000000000E+00 0. -1.
<mgrwt>
<rscale>  0 0.11808296E+04</rscale>
<asrwt>0</asrwt>
<pdfrwt beam="2">  1        4 0.18191211E+00 0.11800466E+04</pdfrwt>
<pdfrwt beam="1">  1       -4 0.27623632E+00 0.11816132E+04</pdfrwt>
<totfact> 0.13317675E-01</totfact>
</mgrwt>
</event>
<event>
 8    1  0.3025584E-006  0.1191267E+04  0.7818608E-02  0.8614686E-01
         -4   -1    0    0    0  501 -0.00000000000E+00  0.00000000000E+00  0.26225307172E+04  0.26225307172E+04  0.00000000000E+00 0. -1.
          4   -1    0    0  502    0  0.00000000000E+00 -0.00000000000E+00 -0.16813130781E+04  0.16813130781E+04  0.00000000000E+00 0.  1.
   -9000010    2    1    2    0  501 -0.13121517617E+03 -0.64102621122E+03  0.22443773309E+04  0.25409341041E+04  0.99548204001E+03 0.  0.
    9000010    2    1    2  502    0  0.13121517617E+03  0.64102621122E+03 -0.13031596919E+04  0.17629096912E+04  0.99070347271E+03 0.  0.
        -13    1    4    4    0    0 -0.85008909902E+02  0.53513172277E+03 -0.11930487471E+03  0.55482081772E+03  0.10566000000E+00 0.  1.
          4    1    4    4  502    0  0.21622408607E+03  0.10589448845E+03 -0.11838548172E+04  0.12080888735E+04  0.00000000000E+00 0.  1.
         13    1    3    3    0    0  0.39933930333E+03 -0.11843978805E+03  0.54834805490E+03  0.68861125685E+03  0.10566000000E+00 0. -1.
         -4    1    3    3    0  501 -0.53055447950E+03 -0.52258642317E+03  0.16960292760E+04  0.18523228473E+04  0.00000000000E+00 0. -1.
<mgrwt>
<rscale>  0 0.11892699E+04</rscale>
<asrwt>0</asrwt>
<pdfrwt beam="2">  1        4 0.25866355E+00 0.11872765E+04</pdfrwt>
<pdfrwt beam="1">  1       -4 0.40346627E+00 0.11912668E+04</pdfrwt>
<totfact> 0.32611816E-02</totfact>
</mgrwt>
</event>
<event>
 8    1  0.3025584E-006  0.1104140E+04  0.7818608E-02  0.8689344E-01
          4   -1    0    0  502    0  0.00000000000E+00  0.00000000000E+00  0.37048862533E+03  0.37048862533E+03  0.00000000000E+00 0.  1.
         -4   -1    0    0    0  501 -0.00000000000E+00 -0.00000000000E+00 -0.35108656982E+04  0.35108656982E+04  0.00000000000E+00 0. -1.
   -9000010    2    1    2    0  501 -0.26028765832E+03 -0.35177720074E+03 -0.20964020461E+04  0.23618119289E+04  0.99587006391E+03 0.  0.
    9000010    2    1    2  502    0  0.26028765832E+03  0.35177720074E+03 -0.10439750267E+04  0.15195423947E+04  0.10137200643E+04 0.  0.
        -13    1    4    4    0    0  0.29702736980E+03  0.26236863696E+03 -0.12395608992E+04  0.13013738103E+04  0.10566000000E+00 0.  1.
          4    1    4    4  502    0 -0.36739711480E+02  0.89408563778E+02  0.19558587251E+03  0.21816858436E+03  0.00000000000E+00 0.  1.
         13    1    3    3    0    0 -0.37122788503E+03  0.26808229295E+03 -0.86271485675E+03  0.97670629856E+03  0.10566000000E+00 0. -1.
         -4    1    3    3    0  501  0.11094022671E+03 -0.61985949369E+03 -0.12336871894E+04  0.13851056303E+04  0.00000000000E+00 0. -1.
<mgrwt>
<rscale>  0 0.10959269E+04</rscale>
<asrwt>0</asrwt>
<pdfrwt beam="1">  1        4 0.56998253E-01 0.11041400E+04</pdfrwt>
<pdfrwt beam="2">  1       -4 0.54013316E+00 0.10877748E+04</pdfrwt>
<totfact> 0.10298602E-01</totfact>
</mgrwt>
</event>
<event>
 8    1  0.3025584E-006  0.1286651E+04  0.7818608E-02  0.8545625E-01
         -4   -1    0    0    0  501 -0.00000000000E+00  0.00000000000E+00  0.18113845764E+04  0.18113845764E+04  0.00000000000E+00 0. -1.
          4   -1    0    0  502    0  0.00000000000E+00 -0.00000000000E+00 -0.18026558359E+04  0.18026558359E+04  0.00000000000E+00 0.  1.
   -9000010    2    1    2    0  501  0.33621884317E+03  0.74081216070E+03  0.12754958191E+04  0.18084461944E+04  0.99082908999E+03 0.  0.
    9000010    2    1    2  502    0 -0.33621884317E+03 -0.74081216070E+03 -0.12667670786E+04  0.18055942178E+04  0.99680784500E+03 0.  0.
        -13    1    4    4    0    0 -0.52022478813E+03 -0.57100590144E+03 -0.33710693327E+03  0.84280642219E+03  0.10566000000E+00 0.  1.
          4    1    4    4  502    0  0.18400594496E+03 -0.16980625926E+03 -0.92966014537E+03  0.96278779559E+03  0.00000000000E+00 0.  1.
         13    1    3    3    0    0  0.45851289414E+03  0.16552823846E+03  0.10523473188E+03  0.49870635827E+03  0.10566000000E+00 0. -1.
         -4    1    3    3    0  501 -0.12229405097E+03  0.57528392225E+03  0.11702610872E+04  0.13097398362E+04  0.00000000000E+00 0. -1.
<mgrwt>
<rscale>  0 0.12843361E+04</rscale>
<asrwt>0</asrwt>
<pdfrwt beam="2">  1        4 0.27733167E+00 0.12866513E+04</pdfrwt>
<pdfrwt beam="1">  1       -4 0.27867455E+00 0.12820250E+04</pdfrwt>
<totfact> 0.73788989E-02</totfact>
</mgrwt>
</event>
<event>
 8    1  0.3025584E-006  0.1049472E+04  0.7818608E-02  0.8733497E-01
         -4   -1    0    0    0  501 -0.00000000000E+00  0.00000000000E+00  0.36034537808E+04  0.36034537808E+04  0.00000000000E+00 0. -1.
          4   -1    0    0  502    0  0.00000000000E+00 -0.00000000000E+00 -0.14820649945E+04  0.14820649945E+04  0.00000000000E+00 0.  1.
   -9000010    2    1    2    0  501 -0.28124547457E+01 -0.27952560641E+03  0.33277269553E+04  0.34865678393E+04  0.10021208182E+04 0.  0.
    9000010    2    1    2  502    0  0.28124547457E+01  0.27952560641E+03 -0.12063381690E+04  0.15989509361E+04  0.10115581265E+04 0.  0.
        -13    1    4    4    0    0 -0.34527005162E+03  0.38404435036E+03 -0.11080054837E+04  0.12224473955E+04  0.10566000000E+00 0.  1.
          4    1    4    4  502    0  0.34808250637E+03 -0.10451874395E+03 -0.98332685312E+02  0.37650354059E+03  0.00000000000E+00 0.  1.
         13    1    3    3    0    0  0.44107030747E+03 -0.10943628952E+03  0.24159276234E+04  0.24582972990E+04  0.10566000000E+00 0. -1.
         -4    1    3    3    0  501 -0.44388276222E+03 -0.17008931689E+03  0.91179933191E+03  0.10282705403E+04  0.00000000000E+00 0. -1.
<mgrwt>
<rscale>  0 0.10449158E+04</rscale>
<asrwt>0</asrwt>
<pdfrwt beam="2">  1        4 0.22801000E+00 0.10494724E+04</pdfrwt>
<pdfrwt beam="1">  1       -4 0.55437750E+00 0.10403791E+04</pdfrwt>
<totfact> 0.79324063E-03</totfact>
</mgrwt>
</event>
<event>
 8    1  0.3025584E-006  0.1287320E+04  0.7818608E-02  0.8548614E-01
         -4   -1    0    0    0  501 -0.00000000000E+00  0.00000000000E+00  0.14843027931E+04  0.14843027931E+04  0.00000000000E+00 0. -1.
          4   -1    0    0  502    0  0.00000000000E+00 -0.00000000000E+00 -0.16139122833E+04  0.16139122833E+04  0.00000000000E+00 0.  1.
   -9000010    2    1    2    0  501  0.21957436586E+03  0.76629410494E+03  0.80574981397E+03  0.15186922895E+04  0.10108283485E+04 0.  0.
    9000010    2    1    2  502    0 -0.21957436586E+03 -0.76629410494E+03 -0.93535930423E+03  0.15795227869E+04  0.99225785405E+03 0.  0.
        -13    1    4    4    0    0  0.29675206074E+03 -0.25124326053E+03  0.58035157642E+01  0.38886842695E+03  0.10566000000E+00 0.  1.
          4    1    4    4  502    0 -0.51632642661E+03 -0.51505084440E+03 -0.94116281999E+03  0.11906543600E+04  0.00000000000E+00 0.  1.
         13    1    3    3    0    0 -0.13557231660E+03 -0.69022284950E-01  0.64472602789E+03  0.65882586470E+03  0.10566000000E+00 0. -1.
         -4    1    3    3    0  501  0.35514668247E+03  0.76636312722E+03  0.16102378608E+03  0.85986642481E+03  0.00000000000E+00 0. -1.
<mgrwt>
<rscale>  0 0.12800347E+04</rscale>
<asrwt>0</asrwt>
<pdfrwt beam="2">  1        4 0.24829420E+00 0.12727903E+04</pdfrwt>
<pdfrwt beam="1">  1       -4 0.22835428E+00 0.12873203E+04</pdfrwt>
<totfact> 0.11459339E-01</totfact>
</mgrwt>
</event>
<event>
 8    1  0.3025584E-006  0.1073610E+04  0.7818608E-02  0.8710724E-01
          4   -1    0    0  502    0  0.00000000000E+00  0.00000000000E+00  0.18186317085E+04  0.18186317085E+04  0.00000000000E+00 0.  1.
         -4   -1    0    0    0  501 -0.00000000000E+00 -0.00000000000E+00 -0.86140707702E+03  0.86140707702E+03  0.00000000000E+00 0. -1.
   -9000010    2    1    2    0  501  0.26402534263E+03 -0.28264140839E+03 -0.21599715950E+03  0.10897284923E+04  0.99561933831E+03 0.  0.
    9000010    2    1    2  502    0 -0.26402534263E+03  0.28264140839E+03  0.11732217909E+04  0.15903102931E+04  0.10015198003E+04 0.  0.
        -13    1    4    4    0    0 -0.22561655210E+03  0.16702039964E+03  0.13481895743E+04  0.13771034028E+04  0.10566000000E+00 0.  1.
          4    1    4    4  502    0 -0.38408790535E+02  0.11562100875E+03 -0.17496778341E+03  0.21320689034E+03  0.00000000000E+00 0.  1.
         13    1    3    3    0    0  0.52636856826E+02  0.36376008335E+03  0.24512746056E+02  0.36836520305E+03  0.10566000000E+00 0. -1.
         -4    1    3    3    0  501  0.21138848580E+03 -0.64640149174E+03 -0.24050990555E+03  0.72136328928E+03  0.00000000000E+00 0. -1.
<mgrwt>
<rscale>  0 0.10708549E+04</rscale>
<asrwt>0</asrwt>
<pdfrwt beam="1">  1        4 0.27978949E+00 0.10736095E+04</pdfrwt>
<pdfrwt beam="2">  1       -4 0.13252417E+00 0.10681074E+04</pdfrwt>
<totfact> 0.20788228E-01</totfact>
</mgrwt>
</event>
<event>
 8    1  0.3025584E-006  0.1203702E+04  0.7818608E-02  0.8604779E-01
          4   -1    0    0  502    0  0.00000000000E+00  0.00000000000E+00  0.19867484597E+04  0.19867484597E+04  0.00000000000E+00 0.  1.
         -4   -1    0    0    0  501 -0.00000000000E+00 -0.00000000000E+00 -0.91110481018E+03  0.91110481018E+03  0.00000000000E+00 0. -1.
   -9000010    2    1    2    0  501  0.23427873273E+01  0.70364751409E+03 -0.11183572560E+03  0.12088863207E+04  0.97661332882E+03 0.  0.
    9000010    2    1    2  502    0 -0.23427873273E+01 -0.70364751409E+03  0.11874793752E+04  0.16889669492E+04  0.97333281897E+03 0.  0.
        -13    1    4    4    0    0  0.39799082064E+03 -0.25054994369E+03  0.15994127908E+03  0.49674258074E+03  0.10566000000E+00 0.  1.
          4    1    4    4  502    0 -0.40033360797E+03 -0.45309757040E+03  0.10275380961E+04  0.11922243685E+04  0.00000000000E+00 0.  1.
         13    1    3    3    0    0  0.10788346972E+03  0.66032681966E+03 -0.48000041377E+03  0.82345052079E+03  0.10566000000E+00 0. -1.
         -4    1    3    3    0  501 -0.10554068240E+03  0.43320694426E+02  0.36816468817E+03  0.38543579987E+03  0.00000000000E+00 0. -1.
<mgrwt>
<rscale>  0 0.12023714E+04</rscale>
<asrwt>0</asrwt>
<pdfrwt beam="1">  1        4 0.30565361E+00 0.12010421E+04</pdfrwt>
<pdfrwt beam="2">  1       -4 0.14016997E+00 0.12037022E+04</pdfrwt>
<totfact> 0.16137978E-01</totfact>
</mgrwt>
</event>
<event>
 8    1  0.3025584E-006  0.1097957E+04  0.7818608E-02  0.8693260E-01
         -4   -1    0    0    0  501 -0.00000000000E+00  0.00000000000E+00  0.15932465133E+04  0.15932465133E+04  0.00000000000E+00 0. -1.
          4   -1    0    0  502    0  0.00000000000E+00 -0.00000000000E+00 -0.15943510586E+04  0.15943510586E+04  0.00000000000E+00 0.  1.
   -9000010    2    1    2    0  501 -0.37334566549E+03  0.24974496423E+03  0.11610136684E+04  0.15888393492E+04  0.98726805187E+03 0.  0.
    9000010    2    1    2  502    0  0.37334566549E+03 -0.24974496423E+03 -0.11621182137E+04  0.15987582227E+04  0.10018730353E+04 0.  0.
        -13    1    4    4    0    0 -0.28798390083E+03 -0.13435171532E+03 -0.74104839792E+03  0.80631126109E+03  0.10566000000E+00 0.  1.
          4    1    4    4  502    0  0.66132956632E+03 -0.11539324891E+03 -0.42106981578E+03  0.79244696160E+03  0.00000000000E+00 0.  1.
         13    1    3    3    0    0 -0.19683302999E+03 -0.24132099184E+03 -0.49245586859E+01  0.31145356836E+03  0.10566000000E+00 0. -1.
         -4    1    3    3    0  501 -0.17651263550E+03  0.49106595607E+03  0.11659382271E+04  0.12773857809E+04  0.00000000000E+00 0. -1.
<mgrwt>
<rscale>  0 0.10912813E+04</rscale>
<asrwt>0</asrwt>
<pdfrwt beam="2">  1        4 0.24528478E+00 0.10979568E+04</pdfrwt>
<pdfrwt beam="1">  1       -4 0.24511485E+00 0.10846464E+04</pdfrwt>
<totfact> 0.10753367E-01</totfact>
</mgrwt>
</event>
<event>
 8    1  0.3025584E-006  0.1344174E+04  0.7818608E-02  0.8542257E-01
         -4   -1    0    0    0  501 -0.00000000000E+00  0.00000000000E+00  0.43007801709E+04  0.43007801709E+04  0.00000000000E+00 0. -1.
          4   -1    0    0  502    0  0.00000000000E+00 -0.00000000000E+00 -0.21257279972E+04  0.21257279972E+04  0.00000000000E+00 0.  1.
   -9000010    2    1    2    0  501  0.59816086248E+03 -0.37763796201E+03  0.40013017608E+04  0.42210447619E+04  0.11429769261E+04 0.  0.
    9000010    2    1    2  502    0 -0.59816086248E+03  0.37763796201E+03 -0.18262495870E+04  0.22054634062E+04  0.10141372858E+04 0.  0.
        -13    1    4    4    0    0 -0.83330435384E+02 -0.24983036447E+03 -0.10494592992E+04  0.10820000020E+04  0.10566000000E+00 0.  1.
          4    1    4    4  502    0 -0.51483042710E+03  0.62746832648E+03 -0.77679028778E+03  0.11234634042E+04  0.00000000000E+00 0.  1.
         13    1    3    3    0    0  0.46349385286E+03 -0.10816674138E+03  0.38583603742E+04  0.38876048390E+04  0.10566000000E+00 0. -1.
         -4    1    3    3    0  501  0.13466700963E+03 -0.26947122063E+03  0.14294138658E+03  0.33343992296E+03  0.00000000000E+00 0. -1.
<mgrwt>
<rscale>  0 0.12892025E+04</rscale>
<asrwt>0</asrwt>
<pdfrwt beam="2">  1        4 0.32703508E+00 0.12364794E+04</pdfrwt>
<pdfrwt beam="1">  1       -4 0.66165848E+00 0.13441738E+04</pdfrwt>
<totfact> 0.11122301E-03</totfact>
</mgrwt>
</event>
<event>
 8    1  0.3025584E-006  0.1123887E+04  0.7818608E-02  0.8668155E-01
         -4   -1    0    0    0  501 -0.00000000000E+00  0.00000000000E+00  0.66608234594E+03  0.66608234594E+03  0.00000000000E+00 0. -1.
          4   -1    0    0  502    0  0.00000000000E+00 -0.00000000000E+00 -0.29757813272E+04  0.29757813272E+04  0.00000000000E+00 0.  1.
   -9000010    2    1    2    0  501  0.12046409127E+03  0.51158847989E+03 -0.52468628102E+02  0.11203144388E+04  0.98798639409E+03 0.  0.
    9000010    2    1    2  502    0 -0.12046409127E+03 -0.51158847989E+03 -0.22572303532E+04  0.25215492343E+04  0.99342201693E+03 0.  0.
        -13    1    4    4    0    0  0.22435701161E+03 -0.39909926495E+03 -0.33991103431E+03  0.57022435440E+03  0.10566000000E+00 0.  1.
          4    1    4    4  502    0 -0.34482110288E+03 -0.11248921494E+03 -0.19173193189E+04  0.19513248799E+04  0.00000000000E+00 0.  1.
         13    1    3    3    0    0 -0.74471200385E+02  0.69288154713E+03  0.22838742771E+03  0.73334277548E+03  0.10566000000E+00 0. -1.
         -4    1    3    3    0  501  0.19493529166E+03 -0.18129306725E+03 -0.28085605581E+03  0.38697166337E+03  0.00000000000E+00 0. -1.
<mgrwt>
<rscale>  0 0.11214834E+04</rscale>
<asrwt>0</asrwt>
<pdfrwt beam="2">  1        4 0.45781250E+00 0.11238869E+04</pdfrwt>
<pdfrwt beam="1">  1       -4 0.10247421E+00 0.11190851E+04</pdfrwt>
<totfact> 0.74632816E-02</totfact>
</mgrwt>
</event>
<event>
 8    1  0.3025584E-006  0.1078692E+04  0.7818608E-02  0.8731256E-01
         -4   -1    0    0    0  501 -0.00000000000E+00  0.00000000000E+00  0.14547162923E+04  0.14547162923E+04  0.00000000000E+00 0. -1.
          4   -1    0    0  502    0  0.00000000000E+00 -0.00000000000E+00 -0.11727000818E+04  0.11727000818E+04  0.00000000000E+00 0.  1.
   -9000010    2    1    2    0  501 -0.19899515400E+03  0.19461801111E+03  0.92765429649E+03  0.14227154493E+04  0.10421619425E+04 0.  0.
    9000010    2    1    2  502    0  0.19899515400E+03 -0.19461801111E+03 -0.64563808602E+03  0.12047009248E+04  0.97825382112E+03 0.  0.
        -13    1    4    4    0    0 -0.93606274202E+02  0.36688712955E+03 -0.30175480473E+03  0.48417380531E+03  0.10566000000E+00 0.  1.
          4    1    4    4  502    0  0.29260142821E+03 -0.56150514066E+03 -0.34388328129E+03  0.72052711950E+03  0.00000000000E+00 0.  1.
         13    1    3    3    0    0 -0.51510205712E+03  0.44040614337E+03  0.60525232070E+03  0.90863528615E+03  0.10566000000E+00 0. -1.
         -4    1    3    3    0  501  0.31610690312E+03 -0.24578813226E+03  0.32240197579E+03  0.51408016316E+03  0.00000000000E+00 0. -1.
<mgrwt>
<rscale>  0 0.10474342E+04</rscale>
<asrwt>0</asrwt>
<pdfrwt beam="2">  1        4 0.18041540E+00 0.10170820E+04</pdfrwt>
<pdfrwt beam="1">  1       -4 0.22380251E+00 0.10786922E+04</pdfrwt>
<totfact> 0.18096548E-01</totfact>
</mgrwt>
</event>
<event>
 8    1  0.3025584E-006  0.1417991E+04  0.7818608E-02  0.8458613E-01
         -4   -1    0    0    0  501 -0.00000000000E+00  0.00000000000E+00  0.20947983609E+04  0.20947983609E+04  0.00000000000E+00 0. -1.
          4   -1    0    0  502    0  0.00000000000E+00 -0.00000000000E+00 -0.12889150108E+04  0.12889150108E+04  0.00000000000E+00 0.  1.
   -9000010    2    1    2    0  501 -0.97907748542E+03  0.22523803577E+03  0.12587405401E+04  0.18960817505E+04  0.10006864454E+04 0.  0.
    9000010    2    1    2  502    0  0.97907748542E+03 -0.22523803577E+03 -0.45285719004E+03  0.14876316212E+04  0.99932142512E+03 0.  0.
        -13    1    4    4    0    0  0.11669195778E+04 -0.24416122190E+03 -0.26497464679E+03  0.12212811215E+04  0.10566000000E+00 0.  1.
          4    1    4    4  502    0 -0.18784209234E+03  0.18923186130E+02 -0.18788254325E+03  0.26635049969E+03  0.00000000000E+00 0.  1.
         13    1    3    3    0    0 -0.48946987057E+03  0.35939513524E+03  0.12484769729E+04  0.13883228661E+04  0.10566000000E+00 0. -1.
         -4    1    3    3    0  501 -0.48960761485E+03 -0.13415709947E+03  0.10263567176E+02  0.50775888438E+03  0.00000000000E+00 0. -1.
<mgrwt>
<rscale>  0 0.14175094E+04</rscale>
<asrwt>0</asrwt>
<pdfrwt beam="2">  1        4 0.19829462E+00 0.14170279E+04</pdfrwt>
<pdfrwt beam="1">  1       -4 0.32227667E+00 0.14179909E+04</pdfrwt>
<totfact> 0.87613999E-02</totfact>
</mgrwt>
</event>
<event>
 8    1  0.3025584E-006  0.1785626E+04  0.7818608E-02  0.8272631E-01
         -4   -1    0    0    0  501 -0.00000000000E+00  0.00000000000E+00  0.21233558036E+04  0.21233558036E+04  0.00000000000E+00 0. -1.
          4   -1    0    0  502    0  0.00000000000E+00 -0.00000000000E+00 -0.15194634973E+04  0.15194634973E+04  0.00000000000E+00 0.  1.
   -9000010    2    1    2    0  501 -0.12636107291E+04  0.64936678524E+03 -0.44886629575E+02  0.17861899910E+04  0.10816980069E+04 0.  0.
    9000010    2    1    2  502    0  0.12636107291E+04 -0.64936678524E+03  0.64877893585E+03  0.18566293099E+04  0.10038769797E+04 0.  0.
        -13    1    4    4    0    0  0.89579852185E+03  0.49217224456E+02  0.57068966291E+03  0.10632798453E+04  0.10566000000E+00 0.  1.
          4    1    4    4  502    0  0.36781220722E+03 -0.69858400970E+03  0.78089272940E+02  0.79334946457E+03  0.00000000000E+00 0.  1.
         13    1    3    3    0    0 -0.50714437682E+03  0.84662146828E+03  0.97020789856E+02  0.99165335391E+03  0.10566000000E+00 0. -1.
         -4    1    3    3    0  501 -0.75646635225E+03 -0.19725468304E+03 -0.14190741943E+03  0.79453663714E+03  0.00000000000E+00 0. -1.
<mgrwt>
<rscale>  0 0.17624555E+04</rscale>
<asrwt>0</asrwt>
<pdfrwt beam="2">  1        4 0.23376361E+00 0.17395857E+04</pdfrwt>
<pdfrwt beam="1">  1       -4 0.32667013E+00 0.17856259E+04</pdfrwt>
<totfact> 0.66873051E-02</totfact>
</mgrwt>
</event>
<event>
 8    1  0.3025584E-006  0.1200570E+04  0.7818608E-02  0.8613615E-01
         -4   -1    0    0    0  501 -0.00000000000E+00  0.00000000000E+00  0.18751373905E+04  0.18751373905E+04  0.00000000000E+00 0. -1.
          4   -1    0    0  502    0  0.00000000000E+00 -0.00000000000E+00 -0.15620865155E+04  0.15620865155E+04  0.00000000000E+00 0.  1.
   -9000010    2    1    2    0  501  0.54209678394E+03  0.37613104642E+03  0.13916173482E+04  0.18379247515E+04  0.10030080066E+04 0.  0.
    9000010    2    1    2  502    0 -0.54209678394E+03 -0.37613104642E+03 -0.10785664731E+04  0.15992991544E+04  0.97934093197E+03 0.  0.
        -13    1    4    4    0    0 -0.37543704929E+03  0.14741433852E+03 -0.95423279581E+03  0.10359750021E+04  0.10566000000E+00 0.  1.
          4    1    4    4  502    0 -0.16665973465E+03 -0.52354538495E+03 -0.12433367732E+03  0.56332415230E+03  0.00000000000E+00 0.  1.
         13    1    3    3    0    0  0.18583938797E+03  0.59311183150E+03  0.12524398154E+04  0.13981857620E+04  0.10566000000E+00 0. -1.
         -4    1    3    3    0  501  0.35625739597E+03 -0.21698078507E+03  0.13917753276E+03  0.43973898952E+03  0.00000000000E+00 0. -1.
<mgrwt>
<rscale>  0 0.11906789E+04</rscale>
<asrwt>0</asrwt>
<pdfrwt beam="2">  1        4 0.24032100E+00 0.11808692E+04</pdfrwt>
<pdfrwt beam="1">  1       -4 0.28848268E+00 0.12005701E+04</pdfrwt>
<totfact> 0.85904945E-02</totfact>
</mgrwt>
</event>
<event>
 8    1  0.3025584E-006  0.1080712E+04  0.7818608E-02  0.8708982E-01
          4   -1    0    0  502    0  0.00000000000E+00  0.00000000000E+00  0.19121895673E+04  0.19121895673E+04  0.00000000000E+00 0.  1.
         -4   -1    0    0    0  501 -0.00000000000E+00 -0.00000000000E+00 -0.12067240686E+04  0.12067240686E+04  0.00000000000E+00 0. -1.
   -9000010    2    1    2    0  501  0.40959760703E+03 -0.53898202099E+02 -0.74992893959E+03  0.13154210599E+04  0.99863103023E+03 0.  0.
    9000010    2    1    2  502    0 -0.40959760703E+03  0.53898202099E+02  0.14553944383E+04  0.18034925759E+04  0.98170121961E+03 0.  0.
        -13    1    4    4    0    0 -0.33300938170E+03  0.50503762454E+03  0.88987865139E+03  0.10760307969E+04  0.10566000000E+00 0.  1.
          4    1    4    4  502    0 -0.76588225337E+02 -0.45113942244E+03  0.56551578691E+03  0.72746177906E+03  0.00000000000E+00 0.  1.
         13    1    3    3    0    0 -0.20808301892E+03 -0.23373926358E+03  0.18206310318E+02  0.31347099866E+03  0.10566000000E+00 0. -1.
         -4    1    3    3    0  501  0.61768062596E+03  0.17984106148E+03 -0.76813524991E+03  0.10019500612E+04  0.00000000000E+00 0. -1.
<mgrwt>
<rscale>  0 0.10728717E+04</rscale>
<asrwt>0</asrwt>
<pdfrwt beam="1">  1        4 0.29418301E+00 0.10650880E+04</pdfrwt>
<pdfrwt beam="2">  1       -4 0.18564986E+00 0.10807123E+04</pdfrwt>
<totfact> 0.11711663E-01</totfact>
</mgrwt>
</event>
<event>
 8    1  0.3025584E-006  0.1214196E+04  0.7818608E-02  0.8600039E-01
          4   -1    0    0  502    0  0.00000000000E+00  0.00000000000E+00  0.64338477714E+03  0.64338477714E+03  0.00000000000E+00 0.  1.
         -4   -1    0    0    0  501 -0.00000000000E+00 -0.00000000000E+00 -0.26925281281E+04  0.26925281281E+04  0.00000000000E+00 0. -1.
   -9000010    2    1    2    0  501  0.36747465712E+03 -0.58276359190E+03 -0.16807744198E+04  0.20670674597E+04  0.98646551118E+03 0.  0.
    9000010    2    1    2  502    0 -0.36747465712E+03  0.58276359190E+03 -0.36836893108E+03  0.12688454455E+04  0.99981101593E+03 0.  0.
        -13    1    4    4    0    0 -0.23479746459E+03  0.84648304732E+02 -0.63944765628E+03  0.68643171631E+03  0.10566000000E+00 0.  1.
          4    1    4    4  502    0 -0.13267719253E+03  0.49811528717E+03  0.27107872519E+03  0.58241372922E+03  0.00000000000E+00 0.  1.
         13    1    3    3    0    0  0.29905080374E+03 -0.16093183802E+03 -0.15955706571E+04  0.16313111820E+04  0.10566000000E+00 0. -1.
         -4    1    3    3    0  501  0.68423853379E+02 -0.42183175389E+03 -0.85203762737E+02  0.43575627762E+03  0.00000000000E+00 0. -1.
<mgrwt>
<rscale>  0 0.12087014E+04</rscale>
<asrwt>0</asrwt>
<pdfrwt beam="1">  1        4 0.98982273E-01 0.12141965E+04</pdfrwt>
<pdfrwt beam="2">  1       -4 0.41423510E+00 0.12032312E+04</pdfrwt>
<totfact> 0.12402319E-01</totfact>
</mgrwt>
</event>
<event>
 8    1  0.3025584E-006  0.1037897E+04  0.7818608E-02  0.8753165E-01
         -4   -1    0    0    0  501 -0.00000000000E+00  0.00000000000E+00  0.23935240353E+04  0.23935240353E+04  0.00000000000E+00 0. -1.
          4   -1    0    0  502    0  0.00000000000E+00 -0.00000000000E+00 -0.74414289133E+03  0.74414289133E+03  0.00000000000E+00 0.  1.
   -9000010    2    1    2    0  501 -0.20150879766E+03  0.19935038809E+03  0.18387817205E+04  0.21114799100E+04  0.99844019449E+03 0.  0.
    9000010    2    1    2  502    0  0.20150879766E+03 -0.19935038809E+03 -0.18940057656E+03  0.10261870166E+04  0.96790538888E+03 0.  0.
        -13    1    4    4    0    0 -0.23280041497E+03  0.26226979016E+03  0.38170255836E+02  0.35275835303E+03  0.10566000000E+00 0.  1.
          4    1    4    4  502    0  0.43430921262E+03 -0.46162017824E+03 -0.22757083240E+03  0.67342866355E+03  0.00000000000E+00 0.  1.
         13    1    3    3    0    0 -0.57578389985E+03  0.12436671365E+03  0.14571568973E+04  0.15717189358E+04  0.10566000000E+00 0. -1.
         -4    1    3    3    0  501  0.37427510219E+03  0.74983674442E+02  0.38162482322E+03  0.53976097419E+03  0.00000000000E+00 0. -1.
<mgrwt>
<rscale>  0 0.10231216E+04</rscale>
<asrwt>0</asrwt>
<pdfrwt beam="2">  1        4 0.11448352E+00 0.10085570E+04</pdfrwt>
<pdfrwt beam="1">  1       -4 0.36823446E+00 0.10378965E+04</pdfrwt>
<totfact> 0.14500586E-01</totfact>
</mgrwt>
</event>
<event>
 8    1  0.3025584E-006  0.1034117E+04  0.7818608E-02  0.8792712E-01
          4   -1    0    0  502    0  0.00000000000E+00  0.00000000000E+00  0.11469529470E+04  0.11469529470E+04  0.00000000000E+00 0.  1.
         -4   -1    0    0    0  501 -0.00000000000E+00 -0.00000000000E+00 -0.11267198490E+04  0.11267198490E+04  0.00000000000E+00 0. -1.
   -9000010    2    1    2    0  501 -0.19773177446E+03 -0.59564358866E+02 -0.56187537934E+03  0.10869767838E+04  0.90728651430E+03 0.  0.
    9000010    2    1    2  502    0  0.19773177446E+03  0.59564358866E+02  0.58210847739E+03  0.11866960123E+04  0.10132874116E+04 0.  0.
        -13    1    4    4    0    0  0.61410728245E+03  0.30315269382E+02  0.38144435720E+03  0.72356518622E+03  0.10566000000E+00 0.  1.
          4    1    4    4  502    0 -0.41637550799E+03  0.29249089485E+02  0.20066412019E+03  0.46313082603E+03  0.00000000000E+00 0.  1.
         13    1    3    3    0    0  0.32371059688E+03 -0.18681367283E+03 -0.34312394844E+03  0.50736767146E+03  0.10566000000E+00 0. -1.
         -4    1    3    3    0  501 -0.52144237134E+03  0.12724931396E+03 -0.21875143091E+03  0.57960911229E+03  0.00000000000E+00 0. -1.
<mgrwt>
<rscale>  0 0.98093669E+03</rscale>
<asrwt>0</asrwt>
<pdfrwt beam="1">  1        4 0.17645430E+00 0.10341166E+04</pdfrwt>
<pdfrwt beam="2">  1       -4 0.17334152E+00 0.93049158E+03</pdfrwt>
<totfact> 0.26159791E-01</totfact>
</mgrwt>
</event>
<event>
 8    1  0.3025584E-006  0.1055779E+04  0.7818608E-02  0.8729013E-01
         -4   -1    0    0    0  501 -0.00000000000E+00  0.00000000000E+00  0.61148229827E+03  0.61148229827E+03  0.00000000000E+00 0. -1.
          4   -1    0    0  502    0  0.00000000000E+00 -0.00000000000E+00 -0.25480134080E+04  0.25480134080E+04  0.00000000000E+00 0.  1.
   -9000010    2    1    2    0  501  0.12527165524E+03 -0.26044769752E+03 -0.11022424557E+03  0.10499778603E+04  0.10033833425E+04 0.  0.
    9000010    2    1    2  502    0 -0.12527165524E+03  0.26044769752E+03 -0.18263068641E+04  0.21095178459E+04  0.10154520124E+04 0.  0.
        -13    1    4    4    0    0 -0.90518638435E+02  0.44037357274E+03 -0.18682038192E+04  0.19215379332E+04  0.10566000000E+00 0.  1.
          4    1    4    4  502    0 -0.34753016806E+02 -0.17992587522E+03  0.41896955064E+02  0.18797991274E+03  0.00000000000E+00 0.  1.
         13    1    3    3    0    0  0.53524598874E+03 -0.31059778425E+03  0.12948992341E+02  0.61897248695E+03  0.10566000000E+00 0. -1.
         -4    1    3    3    0  501 -0.40997433350E+03  0.50150086726E+02 -0.12317323792E+03  0.43100537336E+03  0.00000000000E+00 0. -1.
<mgrwt>
<rscale>  0 0.10499615E+04</rscale>
<asrwt>0</asrwt>
<pdfrwt beam="2">  1        4 0.39200206E+00 0.10557788E+04</pdfrwt>
<pdfrwt beam="1">  1       -4 0.94074200E-01 0.10441763E+04</pdfrwt>
<totfact> 0.16978206E-01</totfact>
</mgrwt>
</event>
<event>
 8    1  0.3025584E-006  0.1114349E+04  0.7818608E-02  0.8757999E-01
          4   -1    0    0  502    0  0.00000000000E+00  0.00000000000E+00  0.12674092023E+04  0.12674092023E+04  0.00000000000E+00 0.  1.
         -4   -1    0    0    0  501 -0.00000000000E+00 -0.00000000000E+00 -0.20332075586E+04  0.20332075586E+04  0.00000000000E+00 0. -1.
   -9000010    2    1    2    0  501  0.19206827804E+02 -0.44423248674E+03 -0.16674276303E+04  0.20055143861E+04  0.10217933481E+04 0.  0.
    9000010    2    1    2  502    0 -0.19206827804E+02  0.44423248674E+03  0.90162927396E+03  0.12951023748E+04  0.81648233840E+03 0.  0.
        -13    1    4    4    0    0 -0.26264263303E+03  0.28402692607E+03  0.44036991345E+02  0.38934780748E+03  0.10566000000E+00 0.  1.
          4    1    4    4  502    0  0.24343580523E+03  0.16020556066E+03  0.85759228261E+03  0.90575456727E+03  0.00000000000E+00 0.  1.
         13    1    3    3    0    0  0.23043361610E+03 -0.68823926547E+03 -0.80090641306E+03  0.10808441292E+04  0.10566000000E+00 0. -1.
         -4    1    3    3    0  501 -0.21122678830E+03  0.24400677873E+03 -0.86652121720E+03  0.92467025691E+03  0.00000000000E+00 0. -1.
<mgrwt>
<rscale>  0 0.10178495E+04</rscale>
<asrwt>0</asrwt>
<pdfrwt beam="1">  1        4 0.19498603E+00 0.92970684E+03</pdfrwt>
<pdfrwt beam="2">  1       -4 0.31280116E+00 0.11143487E+04</pdfrwt>
<totfact> 0.97689187E-02</totfact>
</mgrwt>
</event>
<event>
 8    1  0.3025584E-006  0.1291731E+04  0.7818608E-02  0.8542300E-01
         -4   -1    0    0    0  501 -0.00000000000E+00  0.00000000000E+00  0.12546374581E+04  0.12546374581E+04  0.00000000000E+00 0. -1.
          4   -1    0    0  502    0  0.00000000000E+00 -0.00000000000E+00 -0.21733667169E+04  0.21733667169E+04  0.00000000000E+00 0.  1.
   -9000010    2    1    2    0  501  0.66834740821E+03 -0.46914284683E+03  0.61119673145E+03  0.14290312035E+04  0.10008923356E+04 0.  0.
    9000010    2    1    2  502    0 -0.66834740821E+03  0.46914284683E+03 -0.15299259903E+04  0.19989729715E+04  0.99420125549E+03 0.  0.
        -13    1    4    4    0    0 -0.54080219305E+03  0.77267263578E+03 -0.99586371242E+03  0.13715810435E+04  0.10566000000E+00 0.  1.
          4    1    4    4  502    0 -0.12754521515E+03 -0.30352978896E+03 -0.53406227785E+03  0.62739192800E+03  0.00000000000E+00 0.  1.
         13    1    3    3    0    0 -0.84731752405E+02 -0.34419515718E+03  0.56151784264E+03  0.66404222370E+03  0.10566000000E+00 0. -1.
         -4    1    3    3    0  501  0.75307916061E+03 -0.12494768965E+03  0.49678888811E+02  0.76498897985E+03  0.00000000000E+00 0. -1.
<mgrwt>
<rscale>  0 0.12891395E+04</rscale>
<asrwt>0</asrwt>
<pdfrwt beam="2">  1        4 0.33436411E+00 0.12865533E+04</pdfrwt>
<pdfrwt beam="1">  1       -4 0.19302115E+00 0.12917309E+04</pdfrwt>
<totfact> 0.84470494E-02</totfact>
</mgrwt>
</event>
<event>
 8    1  0.3025584E-006  0.1282405E+04  0.7818608E-02  0.8571053E-01
          4   -1    0    0  502    0  0.00000000000E+00  0.00000000000E+00  0.29601519948E+04  0.29601519948E+04  0.00000000000E+00 0.  1.
         -4   -1    0    0    0  501 -0.00000000000E+00 -0.00000000000E+00 -0.56219404390E+03  0.56219404390E+03  0.00000000000E+00 0. -1.
   -9000010    2    1    2    0  501 -0.13172320939E+03  0.68917205110E+03  0.78745674738E+03  0.15048753763E+04  0.10734303187E+04 0.  0.
    9000010    2    1    2  502    0  0.13172320939E+03 -0.68917205110E+03  0.16105012035E+04  0.20174706624E+04  0.99205071814E+03 0.  0.
        -13    1    4    4    0    0  0.16931649186E+03  0.23229431004E+03  0.30532458406E+03  0.41934691330E+03  0.10566000000E+00 0.  1.
          4    1    4    4  502    0 -0.37593282474E+02 -0.92146636115E+03  0.13051766194E+04  0.15981237491E+04  0.00000000000E+00 0.  1.
         13    1    3    3    0    0  0.43138248003E+03  0.22130713208E+03  0.55455211485E+03  0.73661098963E+03  0.10566000000E+00 0. -1.
         -4    1    3    3    0  501 -0.56310568942E+03  0.46786491902E+03  0.23290463253E+03  0.76826438663E+03  0.00000000000E+00 0. -1.
<mgrwt>
<rscale>  0 0.12483000E+04</rscale>
<asrwt>0</asrwt>
<pdfrwt beam="1">  1        4 0.45540799E+00 0.12151024E+04</pdfrwt>
<pdfrwt beam="2">  1       -4 0.86491393E-01 0.12824047E+04</pdfrwt>
<totfact> 0.10631755E-01</totfact>
</mgrwt>
</event>
<event>
 8    1  0.3025584E-006  0.1086469E+04  0.7818608E-02  0.8716152E-01
         -4   -1    0    0    0  501 -0.00000000000E+00  0.00000000000E+00  0.22759327530E+04  0.22759327530E+04  0.00000000000E+00 0. -1.
          4   -1    0    0  502    0  0.00000000000E+00 -0.00000000000E+00 -0.13558486565E+04  0.13558486565E+04  0.00000000000E+00 0.  1.
   -9000010    2    1    2    0  501  0.27387174403E+02 -0.30284568567E+03  0.19007429196E+04  0.21681874568E+04  0.99787155222E+03 0.  0.
    9000010    2    1    2  502    0 -0.27387174403E+02  0.30284568567E+03 -0.98065882315E+03  0.14635939527E+04  0.10430483998E+04 0.  0.
        -13    1    4    4    0    0 -0.45769165509E+03  0.36730293242E+02 -0.80735593953E+03  0.92879189802E+03  0.10566000000E+00 0.  1.
          4    1    4    4  502    0  0.43030448069E+03  0.26611539243E+03 -0.17330288362E+03  0.53480205465E+03  0.00000000000E+00 0.  1.
         13    1    3    3    0    0 -0.17502482049E+03 -0.61588532820E+03  0.14370224258E+04  0.15732075161E+04  0.10566000000E+00 0. -1.
         -4    1    3    3    0  501  0.20241199489E+03  0.31303964252E+03  0.46372049384E+03  0.59497994073E+03  0.00000000000E+00 0. -1.
<mgrwt>
<rscale>  0 0.10646019E+04</rscale>
<asrwt>0</asrwt>
<pdfrwt beam="2">  1        4 0.20859210E+00 0.10864693E+04</pdfrwt>
<pdfrwt beam="1">  1       -4 0.35014350E+00 0.10431746E+04</pdfrwt>
<totfact> 0.69638250E-02</totfact>
</mgrwt>
</event>
<event>
 8    1  0.3025584E-006  0.1023117E+04  0.7818608E-02  0.8754101E-01
          4   -1    0    0  502    0  0.00000000000E+00  0.00000000000E+00  0.25872909049E+04  0.25872909049E+04  0.00000000000E+00 0.  1.
         -4   -1    0    0    0  501 -0.00000000000E+00 -0.00000000000E+00 -0.12644463778E+04  0.12644463778E+04  0.00000000000E+00 0. -1.
   -9000010    2    1    2    0  501  0.21056756085E+03 -0.68141824279E+02 -0.92768176597E+03  0.13795647526E+04  0.99680662202E+03 0.  0.
    9000010    2    1    2  502    0 -0.21056756085E+03  0.68141824279E+02  0.22505262930E+04  0.24721725302E+04  0.99889259553E+03 0.  0.
        -13    1    4    4    0    0 -0.32412482647E+03 -0.36578981538E+03  0.16609841587E+04  0.17313946629E+04  0.10566000000E+00 0.  1.
          4    1    4    4  502    0  0.11355726561E+03  0.43393163966E+03  0.58954213435E+03  0.74077786728E+03  0.00000000000E+00 0.  1.
         13    1    3    3    0    0 -0.12135997555E+03  0.41066615532E+02  0.17837767575E+03  0.21962084816E+03  0.10566000000E+00 0. -1.
         -4    1    3    3    0  501  0.33192753641E+03 -0.10920843981E+03 -0.11060594417E+04  0.11599439044E+04  0.00000000000E+00 0. -1.
<mgrwt>
<rscale>  0 0.10220983E+04</rscale>
<asrwt>0</asrwt>
<pdfrwt beam="1">  1        4 0.39804475E+00 0.10231170E+04</pdfrwt>
<pdfrwt beam="2">  1       -4 0.19453021E+00 0.10210805E+04</pdfrwt>
<totfact> 0.50842908E-02</totfact>
</mgrwt>
</event>
<event>
 8    1  0.3025584E-006  0.1100386E+04  0.7818608E-02  0.8687476E-01
          4   -1    0    0  502    0  0.00000000000E+00  0.00000000000E+00  0.67111685042E+03  0.67111685042E+03  0.00000000000E+00 0.  1.
         -4   -1    0    0    0  501 -0.00000000000E+00 -0.00000000000E+00 -0.28035095988E+04  0.28035095988E+04  0.00000000000E+00 0. -1.
   -9000010    2    1    2    0  501  0.18773592458E+03  0.38280685023E+03 -0.21058138692E+04  0.23739196245E+04  0.10095823245E+04 0.  0.
    9000010    2    1    2  502    0 -0.18773592458E+03 -0.38280685023E+03 -0.26578879139E+02  0.11007068247E+04  0.10144275308E+04 0.  0.
        -13    1    4    4    0    0 -0.16035455988E+03 -0.13591016144E+03 -0.51307210136E+03  0.55446203586E+03  0.10566000000E+00 0.  1.
          4    1    4    4  502    0 -0.27381364699E+02 -0.24689668880E+03  0.48649322222E+03  0.54624478884E+03  0.00000000000E+00 0.  1.
         13    1    3    3    0    0 -0.30194486068E+03  0.96067668288E+02 -0.17611009713E+03  0.36251134225E+03  0.10566000000E+00 0. -1.
         -4    1    3    3    0  501  0.48968078527E+03  0.28673918194E+03 -0.19297037721E+04  0.20114082823E+04  0.00000000000E+00 0. -1.
<mgrwt>
<rscale>  0 0.10981511E+04</rscale>
<asrwt>0</asrwt>
<pdfrwt beam="1">  1        4 0.10324874E+00 0.11003859E+04</pdfrwt>
<pdfrwt beam="2">  1       -4 0.43130918E+00 0.10959208E+04</pdfrwt>
<totfact> 0.97795899E-02</totfact>
</mgrwt>
</event>
<event>
 8    1  0.3025584E-006  0.1980697E+04  0.7818608E-02  0.8176388E-01
          4   -1    0    0  502    0  0.00000000000E+00  0.00000000000E+00  0.20756912072E+04  0.20756912072E+04  0.00000000000E+00 0.  1.
         -4   -1    0    0    0  501 -0.00000000000E+00 -0.00000000000E+00 -0.25747135265E+04  0.25747135265E+04  0.00000000000E+00 0. -1.
   -9000010    2    1    2    0  501  0.64213422921E+03  0.15899429190E+04 -0.14489446790E+04  0.24540990062E+04  0.99141635814E+03 0.  0.
    9000010    2    1    2  502    0 -0.64213422921E+03 -0.15899429190E+04  0.94992235976E+03  0.21963057275E+04  0.99053092077E+03 0.  0.
        -13    1    4    4    0    0  0.47319755795E+02 -0.77736345253E+03  0.80630914703E+03  0.11210118413E+04  0.10566000000E+00 0.  1.
          4    1    4    4  502    0 -0.68945398501E+03 -0.81257946645E+03  0.14361321273E+03  0.10752938862E+04  0.00000000000E+00 0.  1.
         13    1    3    3    0    0  0.21208854989E+03  0.63135834869E+02 -0.63251047306E+03  0.67010237750E+03  0.10566000000E+00 0. -1.
         -4    1    3    3    0  501  0.43004567932E+03  0.15268070841E+04 -0.81643420599E+03  0.17839966287E+04  0.00000000000E+00 0. -1.
<mgrwt>
<rscale>  0 0.19804756E+04</rscale>
<asrwt>0</asrwt>
<pdfrwt beam="1">  1        4 0.31933711E+00 0.19802541E+04</pdfrwt>
<pdfrwt beam="2">  1       -4 0.39610977E+00 0.19806972E+04</pdfrwt>
<totfact> 0.22264406E-02</totfact>
</mgrwt>
</event>
<event>
 8    1  0.3025584E-006  0.1038335E+04  0.7818608E-02  0.8820979E-01
          4   -1    0    0  502    0  0.00000000000E+00  0.00000000000E+00  0.29246564912E+04  0.29246564912E+04  0.00000000000E+00 0.  1.
         -4   -1    0    0    0  501 -0.00000000000E+00 -0.00000000000E+00 -0.10558503516E+04  0.10558503516E+04  0.00000000000E+00 0. -1.
   -9000010    2    1    2    0  501 -0.21779397989E+03 -0.16336965329E+03 -0.71005241236E+03  0.12579008167E+04  0.10020060753E+04 0.  0.
    9000010    2    1    2  502    0  0.21779397989E+03  0.16336965329E+03  0.25788585520E+04  0.27226060261E+04  0.82942647701E+03 0.  0.
        -13    1    4    4    0    0  0.18444317266E+03 -0.14711864140E+03  0.22739641574E+04  0.22861706365E+04  0.10566000000E+00 0.  1.
          4    1    4    4  502    0  0.33350807230E+02  0.31048829468E+03  0.30489439458E+03  0.43643538964E+03  0.00000000000E+00 0.  1.
         13    1    3    3    0    0 -0.39497634264E+03  0.32052343399E+03 -0.45701251136E+03  0.68381432398E+03  0.10566000000E+00 0. -1.
         -4    1    3    3    0  501  0.17718236275E+03 -0.48389308728E+03 -0.25303990101E+03  0.57408649269E+03  0.00000000000E+00 0. -1.
<mgrwt>
<rscale>  0 0.95206766E+03</rscale>
<asrwt>0</asrwt>
<pdfrwt beam="1">  1        4 0.44994715E+00 0.87296743E+03</pdfrwt>
<pdfrwt beam="2">  1       -4 0.16243852E+00 0.10383352E+04</pdfrwt>
<totfact> 0.39753778E-02</totfact>
</mgrwt>
</event>
<event>
 8    1  0.3025584E-006  0.1264828E+04  0.7818608E-02  0.8590370E-01
          4   -1    0    0  502    0  0.00000000000E+00  0.00000000000E+00  0.21603318454E+04  0.21603318454E+04  0.00000000000E+00 0.  1.
         -4   -1    0    0    0  501 -0.00000000000E+00 -0.00000000000E+00 -0.81007156587E+03  0.81007156587E+03  0.00000000000E+00 0. -1.
   -9000010    2    1    2    0  501  0.28788762137E+03 -0.56229938498E+03  0.87862464615E+02  0.11833842830E+04  0.99680422732E+03 0.  0.
    9000010    2    1    2  502    0 -0.28788762137E+03  0.56229938498E+03  0.12623978149E+04  0.17870191283E+04  0.10957779159E+04 0.  0.
        -13    1    4    4    0    0 -0.75708871664E+02  0.12811271842E+02 -0.19796736052E+03  0.21233711153E+03  0.10566000000E+00 0.  1.
          4    1    4    4  502    0 -0.21217874971E+03  0.54948811314E+03  0.14603651754E+04  0.15746820168E+04  0.00000000000E+00 0.  1.
         13    1    3    3    0    0  0.24063215092E+03 -0.87551634515E+01 -0.38482333615E+03  0.45394878142E+03  0.10566000000E+00 0. -1.
         -4    1    3    3    0  501  0.47255470454E+02 -0.55354422153E+03  0.47268580077E+03  0.72943550155E+03  0.00000000000E+00 0. -1.
<mgrwt>
<rscale>  0 0.12217389E+04</rscale>
<asrwt>0</asrwt>
<pdfrwt beam="1">  1        4 0.33235874E+00 0.12648277E+04</pdfrwt>
<pdfrwt beam="2">  1       -4 0.12462640E+00 0.11801180E+04</pdfrwt>
<totfact> 0.16290512E-01</totfact>
</mgrwt>
</event>
<event>
 8    1  0.3025584E-006  0.1136001E+04  0.7818608E-02  0.8657616E-01
         -4   -1    0    0    0  501 -0.00000000000E+00  0.00000000000E+00  0.10601414582E+04  0.10601414582E+04  0.00000000000E+00 0. -1.
          4   -1    0    0  502    0  0.00000000000E+00 -0.00000000000E+00 -0.22709695195E+04  0.22709695195E+04  0.00000000000E+00 0.  1.
   -9000010    2    1    2    0  501 -0.39496340698E+03  0.34238126921E+03  0.53130042309E+03  0.12513247757E+04  0.10051430388E+04 0.  0.
    9000010    2    1    2  502    0  0.39496340698E+03 -0.34238126921E+03 -0.17421284844E+04  0.20797862020E+04  0.10086019847E+04 0.  0.
        -13    1    4    4    0    0  0.39824186994E+03 -0.47909475939E+02 -0.17396416206E+04  0.17852856590E+04  0.10566000000E+00 0.  1.
          4    1    4    4  502    0 -0.32784629627E+01 -0.29447179327E+03 -0.24868638215E+01  0.29450054303E+03  0.00000000000E+00 0.  1.
         13    1    3    3    0    0 -0.15759260821E+03  0.31128190006E+03 -0.25321003720E+03  0.43109997167E+03  0.10566000000E+00 0. -1.
         -4    1    3    3    0  501 -0.23737079877E+03  0.31099369146E+02  0.78451046029E+03  0.82022480405E+03  0.00000000000E+00 0. -1.
<mgrwt>
<rscale>  0 0.11344653E+04</rscale>
<asrwt>0</asrwt>
<pdfrwt beam="2">  1        4 0.34937993E+00 0.11360013E+04</pdfrwt>
<pdfrwt beam="1">  1       -4 0.16309869E+00 0.11329314E+04</pdfrwt>
<totfact> 0.96803242E-02</totfact>
</mgrwt>
</event>
<event>
 8    1  0.3025584E-006  0.1082203E+04  0.7818608E-02  0.8701392E-01
          4   -1    0    0  502    0  0.00000000000E+00  0.00000000000E+00  0.24113503691E+04  0.24113503691E+04  0.00000000000E+00 0.  1.
         -4   -1    0    0    0  501 -0.00000000000E+00 -0.00000000000E+00 -0.69504914666E+03  0.69504914666E+03  0.00000000000E+00 0. -1.
   -9000010    2    1    2    0  501 -0.10319940487E+03 -0.41429823286E+03  0.50779256824E+01  0.10822153370E+04  0.99441998539E+03 0.  0.
    9000010    2    1    2  502    0  0.10319940487E+03  0.41429823286E+03  0.17112232968E+04  0.20241841788E+04  0.99334952328E+03 0.  0.
        -13    1    4    4    0    0  0.12189646728E+03  0.57494320330E+03  0.17597753937E+04  0.18553241990E+04  0.10566000000E+00 0.  1.
          4    1    4    4  502    0 -0.18697062410E+02 -0.16064497044E+03 -0.48552096957E+02  0.16885997983E+03  0.00000000000E+00 0.  1.
         13    1    3    3    0    0 -0.14996861038E+03 -0.54769750996E+03 -0.37244059371E+03  0.67909878039E+03  0.10566000000E+00 0. -1.
         -4    1    3    3    0  501  0.46769205516E+02  0.13339927710E+03  0.37751851939E+03  0.40311655659E+03  0.00000000000E+00 0. -1.
<mgrwt>
<rscale>  0 0.10817115E+04</rscale>
<asrwt>0</asrwt>
<pdfrwt beam="1">  1        4 0.37097698E+00 0.10812199E+04</pdfrwt>
<pdfrwt beam="2">  1       -4 0.10693064E+00 0.10822034E+04</pdfrwt>
<totfact> 0.15962253E-01</totfact>
</mgrwt>
</event>
<event>
 8    1  0.3025584E-006  0.1260877E+04  0.7818608E-02  0.8563284E-01
          4   -1    0    0  502    0  0.00000000000E+00  0.00000000000E+00  0.16926890002E+04  0.16926890002E+04  0.00000000000E+00 0.  1.
         -4   -1    0    0    0  501 -0.00000000000E+00 -0.00000000000E+00 -0.20011569797E+04  0.20011569797E+04  0.00000000000E+00 0. -1.
   -9000010    2    1    2    0  501 -0.59849695889E+03  0.46063342482E+03 -0.15011539760E+04  0.19582450059E+04  0.10054245281E+04 0.  0.
    9000010    2    1    2  502    0  0.59849695889E+03 -0.46063342482E+03  0.11926859965E+04  0.17356009740E+04  0.10096678132E+04 0.  0.
        -13    1    4    4    0    0 -0.24861273051E+03 -0.11222554998E+03  0.60683929435E+02  0.27943767516E+03  0.10566000000E+00 0.  1.
          4    1    4    4  502    0  0.84710968940E+03 -0.34840787484E+03  0.11320020671E+04  0.14561632989E+04  0.00000000000E+00 0.  1.
         13    1    3    3    0    0 -0.31095198638E+03  0.61781530772E+03 -0.14754690065E+04  0.16295384906E+04  0.10566000000E+00 0. -1.
         -4    1    3    3    0  501 -0.28754497251E+03 -0.15718188290E+03 -0.25684969563E+02  0.32870651528E+03  0.00000000000E+00 0. -1.
<mgrwt>
<rscale>  0 0.12591782E+04</rscale>
<asrwt>0</asrwt>
<pdfrwt beam="1">  1        4 0.26041369E+00 0.12608770E+04</pdfrwt>
<pdfrwt beam="2">  1       -4 0.30787031E+00 0.12574817E+04</pdfrwt>
<totfact> 0.67684039E-02</totfact>
</mgrwt>
</event>
<event>
 8    1  0.3025584E-006  0.1366419E+04  0.7818608E-02  0.8492187E-01
          4   -1    0    0  502    0  0.00000000000E+00  0.00000000000E+00  0.10329820816E+04  0.10329820816E+04  0.00000000000E+00 0.  1.
         -4   -1    0    0    0  501 -0.00000000000E+00 -0.00000000000E+00 -0.20115899727E+04  0.20115899727E+04  0.00000000000E+00 0. -1.
   -9000010    2    1    2    0  501  0.12461718741E+03 -0.91274422768E+03 -0.98028462524E+03  0.16781524588E+04  0.10032976926E+04 0.  0.
    9000010    2    1    2  502    0 -0.12461718741E+03  0.91274422768E+03  0.16767340748E+01  0.13664195955E+04  0.10091918703E+04 0.  0.
        -13    1    4    4    0    0 -0.27551938843E+03  0.84537961770E+03  0.36974229393E+03  0.96295742715E+03  0.10566000000E+00 0.  1.
          4    1    4    4  502    0  0.15090220102E+03  0.67364609982E+02 -0.36806555985E+03  0.40346216836E+03  0.00000000000E+00 0.  1.
         13    1    3    3    0    0 -0.23702718643E+03  0.16536891144E+02  0.51644781167E+02  0.24315129130E+03  0.10566000000E+00 0. -1.
         -4    1    3    3    0  501  0.36164437384E+03 -0.92928111883E+03 -0.10319294064E+04  0.14350011675E+04  0.00000000000E+00 0. -1.
<mgrwt>
<rscale>  0 0.13642431E+04</rscale>
<asrwt>0</asrwt>
<pdfrwt beam="1">  1        4 0.15892032E+00 0.13664186E+04</pdfrwt>
<pdfrwt beam="2">  1       -4 0.30947538E+00 0.13620711E+04</pdfrwt>
<totfact> 0.12966872E-01</totfact>
</mgrwt>
</event>
<event>
 8    1  0.3025584E-006  0.1385072E+04  0.7818608E-02  0.8488916E-01
         -4   -1    0    0    0  501 -0.00000000000E+00  0.00000000000E+00  0.15015991318E+04  0.15015991318E+04  0.00000000000E+00 0. -1.
          4   -1    0    0  502    0  0.00000000000E+00 -0.00000000000E+00 -0.33164136333E+04  0.33164136333E+04  0.00000000000E+00 0.  1.
   -9000010    2    1    2    0  501  0.87010795587E+03 -0.30405898614E+03  0.99073028136E+03  0.17029299182E+04  0.10338685090E+04 0.  0.
    9000010    2    1    2  502    0 -0.87010795587E+03  0.30405898614E+03 -0.28055447829E+04  0.31150828469E+04  0.99152402509E+03 0.  0.
        -13    1    4    4    0    0 -0.64299399196E+03 -0.14952820451E+03 -0.23229273711E+04  0.24149102551E+04  0.10566000000E+00 0.  1.
          4    1    4    4  502    0 -0.22711396392E+03  0.45358719065E+03 -0.48261741176E+03  0.70017259177E+03  0.00000000000E+00 0.  1.
         13    1    3    3    0    0  0.61385506003E+03 -0.52466799892E+03  0.10844191178E+04  0.13520574610E+04  0.10566000000E+00 0. -1.
         -4    1    3    3    0  501  0.25625289584E+03  0.22060901277E+03 -0.93688836390E+02  0.35087245718E+03  0.00000000000E+00 0. -1.
<mgrwt>
<rscale>  0 0.13693252E+04</rscale>
<asrwt>0</asrwt>
<pdfrwt beam="2">  1        4 0.51021748E+00 0.13537576E+04</pdfrwt>
<pdfrwt beam="1">  1       -4 0.23101525E+00 0.13850718E+04</pdfrwt>
<totfact> 0.12194976E-02</totfact>
</mgrwt>
</event>
<event>
 8    1  0.3025584E-006  0.1181820E+04  0.7818608E-02  0.8620503E-01
         -4   -1    0    0    0  501 -0.00000000000E+00  0.00000000000E+00  0.21245299006E+04  0.21245299006E+04  0.00000000000E+00 0. -1.
          4   -1    0    0  502    0  0.00000000000E+00 -0.00000000000E+00 -0.69053746251E+03  0.69053746251E+03  0.00000000000E+00 0.  1.
   -9000010    2    1    2    0  501 -0.58482976001E+03  0.20132072498E+03  0.10261876340E+04  0.15651708894E+04  0.10070466575E+04 0.  0.
    9000010    2    1    2  502    0  0.58482976001E+03 -0.20132072498E+03  0.40780480408E+03  0.12498964737E+04  0.10066680457E+04 0.  0.
        -13    1    4    4    0    0  0.62664600493E+03 -0.54777499072E+03  0.29823615401E+03  0.88413091263E+03  0.10566000000E+00 0.  1.
          4    1    4    4  502    0 -0.41816244917E+02  0.34645426574E+03  0.10956865007E+03  0.36576556107E+03  0.00000000000E+00 0.  1.
         13    1    3    3    0    0 -0.21392736523E+03 -0.15049903438E+03 -0.13651442933E+03  0.29504419588E+03  0.10566000000E+00 0. -1.
         -4    1    3    3    0  501 -0.37090239478E+03  0.35181975935E+03  0.11627020634E+04  0.12701266936E+04  0.00000000000E+00 0. -1.
<mgrwt>
<rscale>  0 0.11816588E+04</rscale>
<asrwt>0</asrwt>
<pdfrwt beam="2">  1        4 0.10623653E+00 0.11814975E+04</pdfrwt>
<pdfrwt beam="1">  1       -4 0.32685075E+00 0.11818201E+04</pdfrwt>
<totfact> 0.22435697E-01</totfact>
</mgrwt>
</event>
<event>
 8    1  0.3025584E-006  0.1170261E+04  0.7818608E-02  0.8640102E-01
          4   -1    0    0  502    0  0.00000000000E+00  0.00000000000E+00  0.17871412920E+04  0.17871412920E+04  0.00000000000E+00 0.  1.
         -4   -1    0    0    0  501 -0.00000000000E+00 -0.00000000000E+00 -0.20204809505E+04  0.20204809505E+04  0.00000000000E+00 0. -1.
   -9000010    2    1    2    0  501 -0.28634078580E+03 -0.43732599057E+03 -0.16277392028E+04  0.20047556702E+04  0.10470268943E+04 0.  0.
    9000010    2    1    2  502    0  0.28634078580E+03  0.43732599057E+03  0.13943995443E+04  0.18028665723E+04  0.10162345796E+04 0.  0.
        -13    1    4    4    0    0  0.15393969733E+03 -0.26010561645E+03  0.86796046350E+03  0.91907983303E+03  0.10566000000E+00 0.  1.
          4    1    4    4  502    0  0.13240108847E+03  0.69743160702E+03  0.52643908078E+03  0.88378673925E+03  0.00000000000E+00 0.  1.
         13    1    3    3    0    0 -0.47030719987E+03 -0.68900600702E+03 -0.13515009475E+04  0.15882295056E+04  0.10566000000E+00 0. -1.
         -4    1    3    3    0  501  0.18396641408E+03  0.25168001645E+03 -0.27623825527E+03  0.41652616468E+03  0.00000000000E+00 0. -1.
<mgrwt>
<rscale>  0 0.11564458E+04</rscale>
<asrwt>0</asrwt>
<pdfrwt beam="1">  1        4 0.27494481E+00 0.11427939E+04</pdfrwt>
<pdfrwt beam="2">  1       -4 0.31084322E+00 0.11702608E+04</pdfrwt>
<totfact> 0.62028610E-02</totfact>
</mgrwt>
</event>
<event>
 8    1  0.3025584E-006  0.1037691E+04  0.7818608E-02  0.8740193E-01
         -4   -1    0    0    0  501 -0.00000000000E+00  0.00000000000E+00  0.54952608002E+03  0.54952608002E+03  0.00000000000E+00 0. -1.
          4   -1    0    0  502    0  0.00000000000E+00 -0.00000000000E+00 -0.22723179794E+04  0.22723179794E+04  0.00000000000E+00 0.  1.
   -9000010    2    1    2    0  501 -0.10738654219E+03 -0.27319126205E+03 -0.33728134229E+03  0.10911287384E+04  0.99530793463E+03 0.  0.
    9000010    2    1    2  502    0  0.10738654219E+03  0.27319126205E+03 -0.13855105571E+04  0.17307153211E+04  0.99477167410E+03 0.  0.
        -13    1    4    4    0    0  0.22524562340E+03 -0.29006152297E+03 -0.91986229979E+03  0.99046349741E+03  0.10566000000E+00 0.  1.
          4    1    4    4  502    0 -0.11785908122E+03  0.56325278503E+03 -0.46564825731E+03  0.74025182364E+03  0.00000000000E+00 0.  1.
         13    1    3    3    0    0  0.17448866138E+02 -0.30321246445E+03 -0.66938832515E+03  0.73506666537E+03  0.10566000000E+00 0. -1.
         -4    1    3    3    0  501 -0.12483540832E+03  0.30021202404E+02  0.33210698286E+03  0.35606207300E+03  0.00000000000E+00 0. -1.
<mgrwt>
<rscale>  0 0.10374341E+04</rscale>
<asrwt>0</asrwt>
<pdfrwt beam="2">  1        4 0.34958737E+00 0.10371769E+04</pdfrwt>
<pdfrwt beam="1">  1       -4 0.84542475E-01 0.10376913E+04</pdfrwt>
<totfact> 0.30200558E-01</totfact>
</mgrwt>
</event>
<event>
 8    1  0.3025584E-006  0.1122261E+04  0.7818608E-02  0.8689102E-01
          4   -1    0    0  502    0  0.00000000000E+00  0.00000000000E+00  0.15961342455E+04  0.15961342455E+04  0.00000000000E+00 0.  1.
         -4   -1    0    0    0  501 -0.00000000000E+00 -0.00000000000E+00 -0.16608752298E+04  0.16608752298E+04  0.00000000000E+00 0. -1.
   -9000010    2    1    2    0  501 -0.30563391930E+03 -0.20200998860E+03 -0.12363935633E+04  0.16697720334E+04  0.10607777674E+04 0.  0.
    9000010    2    1    2  502    0  0.30563391930E+03  0.20200998860E+03  0.11716525790E+04  0.15872374419E+04  0.10061475055E+04 0.  0.
        -13    1    4    4    0    0  0.13076471955E+03  0.59703192158E+03  0.50486360287E+03  0.79273816354E+03  0.10566000000E+00 0.  1.
          4    1    4    4  502    0  0.17486919974E+03 -0.39502193297E+03  0.66678897617E+03  0.79449927835E+03  0.00000000000E+00 0.  1.
         13    1    3    3    0    0  0.11799679680E+03  0.13191038618E+03  0.11746046871E+03  0.21241602320E+03  0.10566000000E+00 0. -1.
         -4    1    3    3    0  501 -0.42363071610E+03 -0.33392037478E+03 -0.13538540320E+04  0.14573560102E+04  0.00000000000E+00 0. -1.
<mgrwt>
<rscale>  0 0.10962143E+04</rscale>
<asrwt>0</asrwt>
<pdfrwt beam="1">  1        4 0.24555912E+00 0.10707721E+04</pdfrwt>
<pdfrwt beam="2">  1       -4 0.25551927E+00 0.11222609E+04</pdfrwt>
<totfact> 0.10126898E-01</totfact>
</mgrwt>
</event>
<event>
 8    1  0.3025584E-006  0.1281382E+04  0.7818608E-02  0.8568568E-01
          4   -1    0    0  502    0  0.00000000000E+00  0.00000000000E+00  0.11537186491E+04  0.11537186491E+04  0.00000000000E+00 0.  1.
         -4   -1    0    0    0  501 -0.00000000000E+00 -0.00000000000E+00 -0.15597233398E+04  0.15597233398E+04  0.00000000000E+00 0. -1.
   -9000010    2    1    2    0  501 -0.96199691227E+02  0.70488431075E+03 -0.68558986844E+03  0.14019131025E+04  0.99459067309E+03 0.  0.
    9000010    2    1    2  502    0  0.96199691227E+02 -0.70488431075E+03  0.27958517773E+03  0.13115288865E+04  0.10657503818E+04 0.  0.
        -13    1    4    4    0    0  0.37775214017E+03 -0.84606752506E+03  0.61852582875E+02  0.92862946837E+03  0.10566000000E+00 0.  1.
          4    1    4    4  502    0 -0.28155244894E+03  0.14118321430E+03  0.21773259486E+03  0.38289941808E+03  0.00000000000E+00 0.  1.
         13    1    3    3    0    0 -0.39781715281E+03  0.72398412357E+03 -0.23410783406E+03  0.85861399207E+03  0.10566000000E+00 0. -1.
         -4    1    3    3    0  501  0.30161746159E+03 -0.19099812814E+02 -0.45148203438E+03  0.54329911039E+03  0.00000000000E+00 0. -1.
<mgrwt>
<rscale>  0 0.12517666E+04</rscale>
<asrwt>0</asrwt>
<pdfrwt beam="1">  1        4 0.17749518E+00 0.12813821E+04</pdfrwt>
<pdfrwt beam="2">  1       -4 0.23995744E+00 0.12228356E+04</pdfrwt>
<totfact> 0.16765042E-01</totfact>
</mgrwt>
</event>
<event>
 8    1  0.3025584E-006  0.1289960E+04  0.7818608E-02  0.8577658E-01
         -4   -1    0    0    0  501 -0.00000000000E+00  0.00000000000E+00  0.23133439426E+04  0.23133439426E+04  0.00000000000E+00 0. -1.
          4   -1    0    0  502    0  0.00000000000E+00 -0.00000000000E+00 -0.10021662560E+04  0.10021662560E+04  0.00000000000E+00 0.  1.
   -9000010    2    1    2    0  501 -0.66395402155E+03 -0.59108083827E+01  0.15994152263E+04  0.19937391374E+04  0.98792550406E+03 0.  0.
    9000010    2    1    2  502    0  0.66395402155E+03  0.59108083827E+01 -0.28823753972E+03  0.13217710611E+04  0.11059511645E+04 0.  0.
        -13    1    4    4    0    0  0.66063117337E+03  0.38458695280E+03 -0.47453564017E+03  0.89973593707E+03  0.10566000000E+00 0.  1.
          4    1    4    4  502    0  0.33228481861E+01 -0.37867614442E+03  0.18629810046E+03  0.42203512402E+03  0.00000000000E+00 0.  1.
         13    1    3    3    0    0  0.24634697128E+03 -0.46269236085E+02  0.54684231020E+03  0.60155149061E+03  0.10566000000E+00 0. -1.
         -4    1    3    3    0  501 -0.91030099283E+03  0.40358427702E+02  0.10525729161E+04  0.13921876468E+04  0.00000000000E+00 0. -1.
<mgrwt>
<rscale>  0 0.12391402E+04</rscale>
<asrwt>0</asrwt>
<pdfrwt beam="2">  1        4 0.15417942E+00 0.12899604E+04</pdfrwt>
<pdfrwt beam="1">  1       -4 0.35589907E+00 0.11903221E+04</pdfrwt>
<totfact> 0.99108332E-02</totfact>
</mgrwt>
</event>
<event>
 8    1  0.3025584E-006  0.1131940E+04  0.7818608E-02  0.8662170E-01
          4   -1    0    0  502    0  0.00000000000E+00  0.00000000000E+00  0.13048807060E+04  0.13048807060E+04  0.00000000000E+00 0.  1.
         -4   -1    0    0    0  501 -0.00000000000E+00 -0.00000000000E+00 -0.14860454479E+04  0.14860454479E+04  0.00000000000E+00 0. -1.
   -9000010    2    1    2    0  501 -0.50648899070E+03  0.15906311766E+03 -0.90751601574E+03  0.14459822691E+04  0.99269694807E+03 0.  0.
    9000010    2    1    2  502    0  0.50648899070E+03 -0.15906311766E+03  0.72635127381E+03  0.13449438848E+04  0.99972781655E+03 0.  0.
        -13    1    4    4    0    0  0.44012770054E+03  0.30772481638E+03  0.77074376256E+02  0.54253794894E+03  0.10566000000E+00 0.  1.
          4    1    4    4  502    0  0.66361290158E+02 -0.46678793404E+03  0.64927689755E+03  0.80240593585E+03  0.00000000000E+00 0.  1.
         13    1    3    3    0    0 -0.61624456889E+03  0.48054170186E+03 -0.57118367296E+03  0.96795066782E+03  0.10566000000E+00 0. -1.
         -4    1    3    3    0  501  0.10975557819E+03 -0.32147858421E+03 -0.33633234278E+03  0.47803160131E+03  0.00000000000E+00 0. -1.
<mgrwt>
<rscale>  0 0.11288332E+04</rscale>
<asrwt>0</asrwt>
<pdfrwt beam="1">  1        4 0.20075088E+00 0.11319399E+04</pdfrwt>
<pdfrwt beam="2">  1       -4 0.22862238E+00 0.11257351E+04</pdfrwt>
<totfact> 0.15216911E-01</totfact>
</mgrwt>
</event>
<event>
 8    1  0.3025584E-006  0.1156614E+04  0.7818608E-02  0.8648951E-01
         -4   -1    0    0    0  501 -0.00000000000E+00  0.00000000000E+00  0.11531466009E+04  0.11531466009E+04  0.00000000000E+00 0. -1.
          4   -1    0    0  502    0  0.00000000000E+00 -0.00000000000E+00 -0.11726377270E+04  0.11726377270E+04  0.00000000000E+00 0.  1.
   -9000010    2    1    2    0  501  0.53780099134E+03 -0.16801508352E+03  0.19144173898E+03  0.11500932879E+04  0.98417765519E+03 0.  0.
    9000010    2    1    2  502    0 -0.53780099134E+03  0.16801508352E+03 -0.21093286513E+03  0.11756910400E+04  0.10100979028E+04 0.  0.
        -13    1    4    4    0    0 -0.66195769203E+02  0.50596687665E+03  0.96128000070E+02  0.51925423801E+03  0.10566000000E+00 0.  1.
          4    1    4    4  502    0 -0.47160522214E+03 -0.33795179313E+03 -0.30706086520E+03  0.65643680196E+03  0.00000000000E+00 0.  1.
         13    1    3    3    0    0  0.28531434598E+03  0.41053007731E+03  0.44065637061E+02  0.50187748698E+03  0.10566000000E+00 0. -1.
         -4    1    3    3    0  501  0.25248664536E+03 -0.57854516084E+03  0.14737610192E+03  0.64821580097E+03  0.00000000000E+00 0. -1.
<mgrwt>
<rscale>  0 0.11452755E+04</rscale>
<asrwt>0</asrwt>
<pdfrwt beam="2">  1        4 0.18040580E+00 0.11566143E+04</pdfrwt>
<pdfrwt beam="1">  1       -4 0.17740717E+00 0.11340479E+04</pdfrwt>
<totfact> 0.24461591E-01</totfact>
</mgrwt>
</event>
<event>
 8    1  0.3025584E-006  0.1120037E+04  0.7818608E-02  0.8671785E-01
         -4   -1    0    0    0  501 -0.00000000000E+00  0.00000000000E+00  0.36494446470E+04  0.36494446470E+04  0.00000000000E+00 0. -1.
          4   -1    0    0  502    0  0.00000000000E+00 -0.00000000000E+00 -0.12495482055E+04  0.12495482055E+04  0.00000000000E+00 0.  1.
   -9000010    2    1    2    0  501  0.35227428413E+03 -0.36174799002E+03  0.32867038679E+04  0.34703883686E+04  0.99308324643E+03 0.  0.
    9000010    2    1    2  502    0 -0.35227428413E+03  0.36174799002E+03 -0.88680742637E+03  0.14286044839E+04  0.99976226192E+03 0.  0.
        -13    1    4    4    0    0  0.11765622497E+03  0.55947840868E+03 -0.28170400301E+03  0.63735095005E+03  0.10566000000E+00 0.  1.
          4    1    4    4  502    0 -0.46993050910E+03 -0.19773041866E+03 -0.60510342336E+03  0.79125353383E+03  0.00000000000E+00 0.  1.
         13    1    3    3    0    0 -0.12783637928E+03  0.23492594304E+03  0.15416243024E+04  0.15646526258E+04  0.10566000000E+00 0. -1.
         -4    1    3    3    0  501  0.48011066341E+03 -0.59667393305E+03  0.17450795655E+04  0.19057357428E+04  0.00000000000E+00 0. -1.
<mgrwt>
<rscale>  0 0.11170544E+04</rscale>
<asrwt>0</asrwt>
<pdfrwt beam="2">  1        4 0.19223819E+00 0.11200372E+04</pdfrwt>
<pdfrwt beam="1">  1       -4 0.56145302E+00 0.11140795E+04</pdfrwt>
<totfact> 0.89232062E-03</totfact>
</mgrwt>
</event>
<event>
 8    1  0.3025584E-006  0.1545153E+04  0.7818608E-02  0.8384145E-01
         -4   -1    0    0    0  501 -0.00000000000E+00  0.00000000000E+00  0.14958094576E+04  0.14958094576E+04  0.00000000000E+00 0. -1.
          4   -1    0    0  502    0  0.00000000000E+00 -0.00000000000E+00 -0.16627681177E+04  0.16627681177E+04  0.00000000000E+00 0.  1.
   -9000010    2    1    2    0  501  0.87038662598E+03  0.79643922800E+03  0.23418717880E+03  0.15622021892E+04  0.99686695329E+03 0.  0.
    9000010    2    1    2  502    0 -0.87038662598E+03 -0.79643922800E+03 -0.40114583886E+03  0.15963753862E+04  0.99780161707E+03 0.  0.
        -13    1    4    4    0    0 -0.50304829331E+03  0.15403817378E+03 -0.13012053027E+03  0.54195637089E+03  0.10566000000E+00 0.  1.
          4    1    4    4  502    0 -0.36733833267E+03 -0.95047740178E+03 -0.27102530859E+03  0.10544190153E+04  0.00000000000E+00 0.  1.
         13    1    3    3    0    0  0.32707697407E+03 -0.65728181191E+02  0.40945832285E+03  0.52816254135E+03  0.10566000000E+00 0. -1.
         -4    1    3    3    0  501  0.54330965190E+03  0.86216740919E+03 -0.17527114405E+03  0.10340396478E+04  0.00000000000E+00 0. -1.
<mgrwt>
<rscale>  0 0.15448508E+04</rscale>
<asrwt>0</asrwt>
<pdfrwt beam="2">  1        4 0.25581048E+00 0.15451525E+04</pdfrwt>
<pdfrwt beam="1">  1       -4 0.23012453E+00 0.15445491E+04</pdfrwt>
<totfact> 0.10708299E-01</totfact>
</mgrwt>
</event>
<event>
 8    1  0.3025584E-006  0.1063373E+04  0.7818608E-02  0.8722742E-01
         -4   -1    0    0    0  501 -0.00000000000E+00  0.00000000000E+00  0.44091591832E+03  0.44091591832E+03  0.00000000000E+00 0. -1.
          4   -1    0    0  502    0  0.00000000000E+00 -0.00000000000E+00 -0.28480680221E+04  0.28480680221E+04  0.00000000000E+00 0.  1.
   -9000010    2    1    2    0  501 -0.30930248922E+03 -0.18114769382E+03 -0.65142546857E+03  0.12363423540E+04  0.98777768666E+03 0.  0.
    9000010    2    1    2  502    0  0.30930248922E+03  0.18114769382E+03 -0.17557266352E+04  0.20526415865E+04  0.10011388256E+04 0.  0.
        -13    1    4    4    0    0 -0.14940479458E+02  0.29853334156E+03 -0.16710326343E+04  0.16975557281E+04  0.10566000000E+00 0.  1.
          4    1    4    4  502    0  0.32424296868E+03 -0.11738564774E+03 -0.84694000931E+02  0.35508585839E+03  0.00000000000E+00 0.  1.
         13    1    3    3    0    0  0.19649199950E+03  0.20242339339E+03  0.54133871817E+02  0.28725393522E+03  0.10566000000E+00 0. -1.
         -4    1    3    3    0  501 -0.50579448872E+03 -0.38357108721E+03 -0.70555934039E+03  0.94908841873E+03  0.00000000000E+00 0. -1.
<mgrwt>
<rscale>  0 0.10570692E+04</rscale>
<asrwt>0</asrwt>
<pdfrwt beam="2">  1        4 0.43816430E+00 0.10633727E+04</pdfrwt>
<pdfrwt beam="1">  1       -4 0.67833221E-01 0.10508032E+04</pdfrwt>
<totfact> 0.21387427E-01</totfact>
</mgrwt>
</event>
<event>
 8    1  0.3025584E-006  0.1049906E+04  0.7818608E-02  0.8750458E-01
          4   -1    0    0  502    0  0.00000000000E+00  0.00000000000E+00  0.97268002738E+03  0.97268002738E+03  0.00000000000E+00 0.  1.
         -4   -1    0    0    0  501 -0.00000000000E+00 -0.00000000000E+00 -0.29883065874E+04  0.29883065874E+04  0.00000000000E+00 0. -1.
   -9000010    2    1    2    0  501  0.11142698354E+03 -0.21458250084E+03 -0.25806883242E+04  0.27686792077E+04  0.97322695509E+03 0.  0.
    9000010    2    1    2  502    0 -0.11142698354E+03  0.21458250084E+03  0.56506176423E+03  0.11923074070E+04  0.10216851439E+04 0.  0.
        -13    1    4    4    0    0  0.33238858564E+03  0.22985451228E+03 -0.77239904081E+02  0.41143806657E+03  0.10566000000E+00 0.  1.
          4    1    4    4  502    0 -0.44381556917E+03 -0.15272011438E+02  0.64230166832E+03  0.78086934048E+03  0.00000000000E+00 0.  1.
         13    1    3    3    0    0  0.42753144536E+03 -0.40080832440E+03 -0.19791250753E+04  0.20640655330E+04  0.10566000000E+00 0. -1.
         -4    1    3    3    0  501 -0.31610446182E+03  0.18622582356E+03 -0.60156324893E+03  0.70461367472E+03  0.00000000000E+00 0. -1.
<mgrwt>
<rscale>  0 0.10260889E+04</rscale>
<asrwt>0</asrwt>
<pdfrwt beam="1">  1        4 0.14964308E+00 0.10499058E+04</pdfrwt>
<pdfrwt beam="2">  1       -4 0.45973948E+00 0.10028122E+04</pdfrwt>
<totfact> 0.39478967E-02</totfact>
</mgrwt>
</event>
<event>
 8    1  0.3025584E-006  0.1209313E+04  0.7818608E-02  0.8618448E-01
          4   -1    0    0  502    0  0.00000000000E+00  0.00000000000E+00  0.19189410188E+04  0.19189410188E+04  0.00000000000E+00 0.  1.
         -4   -1    0    0    0  501 -0.00000000000E+00 -0.00000000000E+00 -0.11245495933E+04  0.11245495933E+04  0.00000000000E+00 0. -1.
   -9000010    2    1    2    0  501 -0.35251938734E+03 -0.43382999042E+03 -0.49720101947E+03  0.13075348887E+04  0.10723619969E+04 0.  0.
    9000010    2    1    2  502    0  0.35251938734E+03  0.43382999042E+03  0.12915924450E+04  0.17359557234E+04  0.10162936832E+04 0.  0.
        -13    1    4    4    0    0  0.55401841083E+03  0.27763303278E+03  0.25777640189E+03  0.67116703209E+03  0.10566000000E+00 0.  1.
          4    1    4    4  502    0 -0.20149902349E+03  0.15619695764E+03  0.10338160431E+04  0.10647886913E+04  0.00000000000E+00 0.  1.
         13    1    3    3    0    0 -0.72832729143E+03 -0.21216446796E+03 -0.21710631306E+03  0.78905612427E+03  0.10566000000E+00 0. -1.
         -4    1    3    3    0  501  0.37580790409E+03 -0.22166552246E+03 -0.28009470641E+03  0.51847876445E+03  0.00000000000E+00 0. -1.
<mgrwt>
<rscale>  0 0.11843409E+04</rscale>
<asrwt>0</asrwt>
<pdfrwt beam="1">  1        4 0.29522169E+00 0.11598841E+04</pdfrwt>
<pdfrwt beam="2">  1       -4 0.17300763E+00 0.12093133E+04</pdfrwt>
<totfact> 0.12746819E-01</totfact>
</mgrwt>
</event>
<event>
 8    1  0.3025584E-006  0.1461296E+04  0.7818608E-02  0.8446106E-01
         -4   -1    0    0    0  501 -0.00000000000E+00  0.00000000000E+00  0.13112706687E+04  0.13112706687E+04  0.00000000000E+00 0. -1.
          4   -1    0    0  502    0  0.00000000000E+00 -0.00000000000E+00 -0.16349399245E+04  0.16349399245E+04  0.00000000000E+00 0.  1.
   -9000010    2    1    2    0  501 -0.91074077764E+03 -0.59696013720E+03  0.11207057819E+03  0.14655876454E+04  0.97446249928E+03 0.  0.
    9000010    2    1    2  502    0  0.91074077764E+03  0.59696013720E+03 -0.43573983402E+03  0.14806229478E+04  0.90363982931E+03 0.  0.
        -13    1    4    4    0    0  0.10775865199E+04  0.57229967363E+03 -0.47176557270E+03  0.13081599256E+04  0.10566000000E+00 0.  1.
          4    1    4    4  502    0 -0.16684574224E+03  0.24660463571E+02  0.36025738677E+02  0.17246302217E+03  0.00000000000E+00 0.  1.
         13    1    3    3    0    0 -0.10942682131E+03 -0.33330825225E+03 -0.35687776537E+03  0.50043018576E+03  0.10566000000E+00 0. -1.
         -4    1    3    3    0  501 -0.80131395633E+03 -0.26365188495E+03  0.46894834356E+03  0.96515745967E+03  0.00000000000E+00 0. -1.
<mgrwt>
<rscale>  0 0.14379889E+04</rscale>
<asrwt>0</asrwt>
<pdfrwt beam="2">  1        4 0.25152922E+00 0.14150530E+04</pdfrwt>
<pdfrwt beam="1">  1       -4 0.20173395E+00 0.14612965E+04</pdfrwt>
<totfact> 0.13119586E-01</totfact>
</mgrwt>
</event>
<event>
 8    1  0.3025584E-006  0.1270377E+04  0.7818608E-02  0.8567184E-01
         -4   -1    0    0    0  501 -0.00000000000E+00  0.00000000000E+00  0.19459770164E+04  0.19459770164E+04  0.00000000000E+00 0. -1.
          4   -1    0    0  502    0  0.00000000000E+00 -0.00000000000E+00 -0.29883035644E+04  0.29883035644E+04  0.00000000000E+00 0.  1.
   -9000010    2    1    2    0  501  0.16162076282E+03  0.73051944093E+03  0.15880896487E+04  0.20131597331E+04  0.98539507508E+03 0.  0.
    9000010    2    1    2  502    0 -0.16162076282E+03 -0.73051944093E+03 -0.26304161967E+04  0.29211208477E+04  0.10266828696E+04 0.  0.
        -13    1    4    4    0    0  0.30082354317E+03 -0.44990387221E+03 -0.55037212309E+03  0.77189233924E+03  0.10566000000E+00 0.  1.
          4    1    4    4  502    0 -0.46244430599E+03 -0.28061556873E+03 -0.20800440736E+04  0.21492285085E+04  0.00000000000E+00 0.  1.
         13    1    3    3    0    0 -0.32896407309E+03  0.39360469983E+03  0.30006695286E+03  0.59429134982E+03  0.10566000000E+00 0. -1.
         -4    1    3    3    0  501  0.49058483590E+03  0.33691474111E+03  0.12880226958E+04  0.14188683833E+04  0.00000000000E+00 0. -1.
<mgrwt>
<rscale>  0 0.12537032E+04</rscale>
<asrwt>0</asrwt>
<pdfrwt beam="2">  1        4 0.45973901E+00 0.12703770E+04</pdfrwt>
<pdfrwt beam="1">  1       -4 0.29938108E+00 0.12372483E+04</pdfrwt>
<totfact> 0.14397505E-02</totfact>
</mgrwt>
</event>
<event>
 8    1  0.3025584E-006  0.1125473E+04  0.7818608E-02  0.8665872E-01
         -4   -1    0    0    0  501 -0.00000000000E+00  0.00000000000E+00  0.13822678899E+04  0.13822678899E+04  0.00000000000E+00 0. -1.
          4   -1    0    0  502    0  0.00000000000E+00 -0.00000000000E+00 -0.13333895808E+04  0.13333895808E+04  0.00000000000E+00 0.  1.
   -9000010    2    1    2    0  501 -0.20839254500E+03 -0.46282411992E+03  0.78552745139E+03  0.13705401388E+04  0.10018449362E+04 0.  0.
    9000010    2    1    2  502    0  0.20839254500E+03  0.46282411992E+03 -0.73664914234E+03  0.13451173319E+04  0.10045173263E+04 0.  0.
        -13    1    4    4    0    0 -0.34466852670E+03 -0.75653461633E+02 -0.20933303842E+03  0.41029278776E+03  0.10566000000E+00 0.  1.
          4    1    4    4  502    0  0.55306107170E+03  0.53847758155E+03 -0.52731610392E+03  0.93482454414E+03  0.00000000000E+00 0.  1.
         13    1    3    3    0    0  0.20731933857E+02 -0.41690589232E+03  0.98085133209E+03  0.10659782751E+04  0.10566000000E+00 0. -1.
         -4    1    3    3    0  501 -0.22912447886E+03 -0.45918227604E+02 -0.19532388069E+03  0.30456186368E+03  0.00000000000E+00 0. -1.
<mgrwt>
<rscale>  0 0.11242797E+04</rscale>
<asrwt>0</asrwt>
<pdfrwt beam="2">  1        4 0.20513686E+00 0.11254726E+04</pdfrwt>
<pdfrwt beam="1">  1       -4 0.21265660E+00 0.11230881E+04</pdfrwt>
<totfact> 0.16249355E-01</totfact>
</mgrwt>
</event>
<event>
 8    1  0.3025584E-006  0.1076087E+04  0.7818608E-02  0.8707725E-01
          4   -1    0    0  502    0  0.00000000000E+00  0.00000000000E+00  0.27794062558E+04  0.27794062558E+04  0.00000000000E+00 0.  1.
         -4   -1    0    0    0  501 -0.00000000000E+00 -0.00000000000E+00 -0.26760241859E+04  0.26760241859E+04  0.00000000000E+00 0. -1.
   -9000010    2    1    2    0  501 -0.95015862642E+02 -0.35154428862E+03 -0.24554769478E+04  0.26795121763E+04  0.10088642431E+04 0.  0.
    9000010    2    1    2  502    0  0.95015862642E+02  0.35154428862E+03  0.25588590178E+04  0.27759182654E+04  0.10125963373E+04 0.  0.
        -13    1    4    4    0    0 -0.18348987506E+03  0.34857319252E+02  0.22385785695E+04  0.22463565145E+04  0.10566000000E+00 0.  1.
          4    1    4    4  502    0  0.27850573770E+03  0.31668696936E+03  0.32028044822E+03  0.52956175090E+03  0.00000000000E+00 0.  1.
         13    1    3    3    0    0  0.26869900067E+03 -0.57756292134E+03 -0.16186498646E+04  0.17394842558E+04  0.10566000000E+00 0. -1.
         -4    1    3    3    0  501 -0.36371486331E+03  0.22601863272E+03 -0.83682708322E+03  0.94002792051E+03  0.00000000000E+00 0. -1.
<mgrwt>
<rscale>  0 0.10743298E+04</rscale>
<asrwt>0</asrwt>
<pdfrwt beam="1">  1        4 0.42760096E+00 0.10760868E+04</pdfrwt>
<pdfrwt beam="2">  1       -4 0.41169603E+00 0.10725756E+04</pdfrwt>
<totfact> 0.87000473E-03</totfact>
</mgrwt>
</event>
<event>
 8    1  0.3025584E-006  0.1123994E+04  0.7818608E-02  0.8670904E-01
          4   -1    0    0  502    0  0.00000000000E+00  0.00000000000E+00  0.47040866024E+03  0.47040866024E+03  0.00000000000E+00 0.  1.
         -4   -1    0    0    0  501 -0.00000000000E+00 -0.00000000000E+00 -0.29910004991E+04  0.29910004991E+04  0.00000000000E+00 0. -1.
   -9000010    2    1    2    0  501 -0.37285129659E+03 -0.32283710404E+03 -0.18320992718E+04  0.21433106647E+04  0.99697090153E+03 0.  0.
    9000010    2    1    2  502    0  0.37285129659E+03  0.32283710404E+03 -0.68849256705E+03  0.13180984946E+04  0.10100097730E+04 0.  0.
        -13    1    4    4    0    0 -0.26595767812E+03  0.37337877704E+03 -0.15383743393E+03  0.48354024128E+03  0.10566000000E+00 0.  1.
          4    1    4    4  502    0  0.63880897471E+03 -0.50541673000E+02 -0.53465513312E+03  0.83455825337E+03  0.00000000000E+00 0.  1.
         13    1    3    3    0    0  0.21842246317E+03 -0.85685669908E+02 -0.35742570799E+02  0.23733509849E+03  0.10566000000E+00 0. -1.
         -4    1    3    3    0  501 -0.59127375976E+03 -0.23715143413E+03 -0.17963567010E+04  0.19059755662E+04  0.00000000000E+00 0. -1.
<mgrwt>
<rscale>  0 0.11181274E+04</rscale>
<asrwt>0</asrwt>
<pdfrwt beam="1">  1        4 0.72370564E-01 0.11239936E+04</pdfrwt>
<pdfrwt beam="2">  1       -4 0.46015392E+00 0.11122917E+04</pdfrwt>
<totfact> 0.14654564E-01</totfact>
</mgrwt>
</event>
<event>
 8    1  0.3025584E-006  0.1103667E+04  0.7818608E-02  0.8706383E-01
          4   -1    0    0  502    0  0.00000000000E+00  0.00000000000E+00  0.22630929168E+04  0.22630929168E+04  0.00000000000E+00 0.  1.
         -4   -1    0    0    0  501 -0.00000000000E+00 -0.00000000000E+00 -0.20317469401E+04  0.20317469401E+04  0.00000000000E+00 0. -1.
   -9000010    2    1    2    0  501  0.22495435745E+03 -0.29753075578E+03 -0.17407834344E+04  0.20611666463E+04  0.10387261260E+04 0.  0.
    9000010    2    1    2  502    0 -0.22495435745E+03  0.29753075578E+03  0.19721294111E+04  0.22336732105E+04  0.98024108448E+03 0.  0.
        -13    1    4    4    0    0 -0.27223038140E+03 -0.25028007019E+03  0.13666068443E+04  0.14157555482E+04  0.10566000000E+00 0.  1.
          4    1    4    4  502    0  0.47276023949E+02  0.54781082597E+03  0.60552256680E+03  0.81791766235E+03  0.00000000000E+00 0.  1.
         13    1    3    3    0    0 -0.69685914324E+02  0.34845184518E+03 -0.34550753738E+03  0.49563119818E+03  0.10566000000E+00 0. -1.
         -4    1    3    3    0  501  0.29464027177E+03 -0.64598260096E+03 -0.13952758970E+04  0.15655354481E+04  0.00000000000E+00 0. -1.
<mgrwt>
<rscale>  0 0.10758888E+04</rscale>
<asrwt>0</asrwt>
<pdfrwt beam="1">  1        4 0.34816814E+00 0.10488096E+04</pdfrwt>
<pdfrwt beam="2">  1       -4 0.31257645E+00 0.11036671E+04</pdfrwt>
<totfact> 0.38725549E-02</totfact>
</mgrwt>
</event>
<event>
 8    1  0.3025584E-006  0.1293169E+04  0.7818608E-02  0.8545843E-01
         -4   -1    0    0    0  501 -0.00000000000E+00  0.00000000000E+00  0.28501462289E+04  0.28501462289E+04  0.00000000000E+00 0. -1.
          4   -1    0    0  502    0  0.00000000000E+00 -0.00000000000E+00 -0.98076161454E+03  0.98076161454E+03  0.00000000000E+00 0.  1.
   -9000010    2    1    2    0  501  0.80025778562E+03  0.70026525815E+02  0.21653130758E+04  0.25220756588E+04  0.10133946294E+04 0.  0.
    9000010    2    1    2  502    0 -0.80025778562E+03 -0.70026525815E+02 -0.29592846143E+03  0.13088321846E+04  0.99002615894E+03 0.  0.
        -13    1    4    4    0    0  0.22609102014E+03  0.15912599516E+02  0.29824650721E+02  0.22860420198E+03  0.10566000000E+00 0.  1.
          4    1    4    4  502    0 -0.10263488058E+04 -0.85939125332E+02 -0.32575311215E+03  0.10802279826E+04  0.00000000000E+00 0.  1.
         13    1    3    3    0    0 -0.81243943838E+02  0.35558563614E+03  0.67314595547E+03  0.76561557688E+03  0.10566000000E+00 0. -1.
         -4    1    3    3    0  501  0.88150172946E+03 -0.28555911033E+03  0.14921671203E+04  0.17564600820E+04  0.00000000000E+00 0. -1.
<mgrwt>
<rscale>  0 0.12840211E+04</rscale>
<asrwt>0</asrwt>
<pdfrwt beam="2">  1        4 0.15088640E+00 0.12749384E+04</pdfrwt>
<pdfrwt beam="1">  1       -4 0.43848403E+00 0.12931686E+04</pdfrwt>
<totfact> 0.47675072E-02</totfact>
</mgrwt>
</event>
<event>
 8    1  0.3025584E-006  0.1138636E+04  0.7818608E-02  0.8657315E-01
         -4   -1    0    0    0  501 -0.00000000000E+00  0.00000000000E+00  0.10540255016E+04  0.10540255016E+04  0.00000000000E+00 0. -1.
          4   -1    0    0  502    0  0.00000000000E+00 -0.00000000000E+00 -0.21480048822E+04  0.21480048822E+04  0.00000000000E+00 0.  1.
   -9000010    2    1    2    0  501  0.38001714051E+03  0.37394632928E+03  0.50532269959E+03  0.12388035477E+04  0.99751406745E+03 0.  0.
    9000010    2    1    2  502    0 -0.38001714051E+03 -0.37394632928E+03 -0.15993020802E+04  0.19632268361E+04  0.10061031666E+04 0.  0.
        -13    1    4    4    0    0 -0.48863273705E+03 -0.64192483125E+03 -0.13868112078E+04  0.16043923391E+04  0.10566000000E+00 0.  1.
          4    1    4    4  502    0  0.10861559653E+03  0.26797850197E+03 -0.21249087247E+03  0.35883449696E+03  0.00000000000E+00 0.  1.
         13    1    3    3    0    0 -0.13959199292E+03 -0.26953225163E+03  0.12042922658E+03  0.32655285780E+03  0.10566000000E+00 0. -1.
         -4    1    3    3    0  501  0.51960913344E+03  0.64347858091E+03  0.38489347301E+03  0.91225068989E+03  0.00000000000E+00 0. -1.
<mgrwt>
<rscale>  0 0.11348388E+04</rscale>
<asrwt>0</asrwt>
<pdfrwt beam="2">  1        4 0.33046229E+00 0.11386362E+04</pdfrwt>
<pdfrwt beam="1">  1       -4 0.16215777E+00 0.11310540E+04</pdfrwt>
<totfact> 0.11142748E-01</totfact>
</mgrwt>
</event>
<event>
 8    1  0.3025584E-006  0.1067207E+04  0.7818608E-02  0.8719963E-01
         -4   -1    0    0    0  501 -0.00000000000E+00  0.00000000000E+00  0.13499104862E+04  0.13499104862E+04  0.00000000000E+00 0. -1.
          4   -1    0    0  502    0  0.00000000000E+00 -0.00000000000E+00 -0.23404241248E+04  0.23404241248E+04  0.00000000000E+00 0.  1.
   -9000010    2    1    2    0  501  0.25864835057E+03 -0.16683950840E+03  0.98452800236E+03  0.14519731129E+04  0.10218591597E+04 0.  0.
    9000010    2    1    2  502    0 -0.25864835057E+03  0.16683950840E+03 -0.19750416409E+04  0.22383614981E+04  0.10073422071E+04 0.  0.
        -13    1    4    4    0    0 -0.88737016022E+02  0.53560666945E+03 -0.15847586080E+04  0.16751742056E+04  0.10566000000E+00 0.  1.
          4    1    4    4  502    0 -0.16991133455E+03 -0.36876716105E+03 -0.39028303289E+03  0.56318729250E+03  0.00000000000E+00 0.  1.
         13    1    3    3    0    0  0.14620027623E+03 -0.43278097731E+03  0.10593958977E+04  0.11536869482E+04  0.10566000000E+00 0. -1.
         -4    1    3    3    0  501  0.11244807435E+03  0.26594146890E+03 -0.74867895369E+02  0.29828616472E+03  0.00000000000E+00 0. -1.
<mgrwt>
<rscale>  0 0.10602382E+04</rscale>
<asrwt>0</asrwt>
<pdfrwt beam="2">  1        4 0.36006525E+00 0.10533151E+04</pdfrwt>
<pdfrwt beam="1">  1       -4 0.20767854E+00 0.10672069E+04</pdfrwt>
<totfact> 0.64623492E-02</totfact>
</mgrwt>
</event>
<event>
 8    1  0.3025584E-006  0.1172564E+04  0.7818608E-02  0.8630083E-01
         -4   -1    0    0    0  501 -0.00000000000E+00  0.00000000000E+00  0.15705607830E+04  0.15705607830E+04  0.00000000000E+00 0. -1.
          4   -1    0    0  502    0  0.00000000000E+00 -0.00000000000E+00 -0.13808954256E+04  0.13808954256E+04  0.00000000000E+00 0.  1.
   -9000010    2    1    2    0  501  0.32821996984E+03  0.51294597019E+03  0.99218643912E+03  0.15360143431E+04  0.10020300471E+04 0.  0.
    9000010    2    1    2  502    0 -0.32821996984E+03 -0.51294597019E+03 -0.80252108172E+03  0.14154418655E+04  0.99428047905E+03 0.  0.
        -13    1    4    4    0    0  0.10266211352E+02  0.13881491010E+03  0.15524661015E+03  0.20851018078E+03  0.10566000000E+00 0.  1.
          4    1    4    4  502    0 -0.33848618119E+03 -0.65176088029E+03 -0.95776769187E+03  0.12069316847E+04  0.00000000000E+00 0.  1.
         13    1    3    3    0    0  0.55056144063E+03  0.32344934872E+02  0.20726843843E+03  0.58917256508E+03  0.10566000000E+00 0. -1.
         -4    1    3    3    0  501 -0.22234147079E+03  0.48060103532E+03  0.78491800070E+03  0.94684177801E+03  0.00000000000E+00 0. -1.
<mgrwt>
<rscale>  0 0.11692515E+04</rscale>
<asrwt>0</asrwt>
<pdfrwt beam="2">  1        4 0.21244545E+00 0.11659484E+04</pdfrwt>
<pdfrwt beam="1">  1       -4 0.24162474E+00 0.11725639E+04</pdfrwt>
<totfact> 0.13134415E-01</totfact>
</mgrwt>
</event>
<event>
 8    1  0.3025584E-006  0.1329951E+04  0.7818608E-02  0.8517453E-01
          4   -1    0    0  502    0  0.00000000000E+00  0.00000000000E+00  0.10076866997E+04  0.10076866997E+04  0.00000000000E+00 0.  1.
         -4   -1    0    0    0  501 -0.00000000000E+00 -0.00000000000E+00 -0.20956722316E+04  0.20956722316E+04  0.00000000000E+00 0. -1.
   -9000010    2    1    2    0  501 -0.87217059716E+03 -0.19015081491E+02 -0.11780203583E+04  0.17703638554E+04  0.99267975308E+03 0.  0.
    9000010    2    1    2  502    0  0.87217059716E+03  0.19015081491E+02  0.90034826382E+02  0.13329950759E+04  0.10038558056E+04 0.  0.
        -13    1    4    4    0    0  0.23426768626E+02 -0.14542082521E+03 -0.33771226428E+03  0.36843671709E+03  0.10566000000E+00 0.  1.
          4    1    4    4  502    0  0.84874382853E+03  0.16443590670E+03  0.42774709067E+03  0.96455835876E+03  0.00000000000E+00 0.  1.
         13    1    3    3    0    0  0.14942547326E+02  0.33134655313E+03 -0.50048738169E+03  0.60041772824E+03  0.10566000000E+00 0. -1.
         -4    1    3    3    0  501 -0.88711314448E+03 -0.35036163462E+03 -0.67753297657E+03  0.11699461272E+04  0.00000000000E+00 0. -1.
<mgrwt>
<rscale>  0 0.13257366E+04</rscale>
<asrwt>0</asrwt>
<pdfrwt beam="1">  1        4 0.15502872E+00 0.13299510E+04</pdfrwt>
<pdfrwt beam="2">  1       -4 0.32241111E+00 0.13215356E+04</pdfrwt>
<totfact> 0.12391579E-01</totfact>
</mgrwt>
</event>
<event>
 8    1  0.3025584E-006  0.1261339E+04  0.7818608E-02  0.8564100E-01
          4   -1    0    0  502    0  0.00000000000E+00  0.00000000000E+00  0.49833864461E+03  0.49833864461E+03  0.00000000000E+00 0.  1.
         -4   -1    0    0    0  501 -0.00000000000E+00 -0.00000000000E+00 -0.32348070118E+04  0.32348070118E+04  0.00000000000E+00 0. -1.
   -9000010    2    1    2    0  501  0.76177239412E+03  0.59227658187E+02 -0.16237426160E+04  0.20560921875E+04  0.10035785492E+04 0.  0.
    9000010    2    1    2  502    0 -0.76177239412E+03 -0.59227658187E+02 -0.11127257512E+04  0.16770534689E+04  0.99526109358E+03 0.  0.
        -13    1    4    4    0    0  0.13501770263E+03  0.21434244958E+03 -0.47078718821E+02  0.25766040178E+03  0.10566000000E+00 0.  1.
          4    1    4    4  502    0 -0.89679009675E+03 -0.27357010777E+03 -0.10656470324E+04  0.14193930671E+04  0.00000000000E+00 0.  1.
         13    1    3    3    0    0  0.99188953228E+03 -0.61383264912E+02 -0.11889106861E+04  0.15495552201E+04  0.10566000000E+00 0. -1.
         -4    1    3    3    0  501 -0.23011713816E+03  0.12061092310E+03 -0.43483192996E+03  0.50653696742E+03  0.00000000000E+00 0. -1.
<mgrwt>
<rscale>  0 0.12580304E+04</rscale>
<asrwt>0</asrwt>
<pdfrwt beam="1">  1        4 0.76667481E-01 0.12547309E+04</pdfrwt>
<pdfrwt beam="2">  1       -4 0.49766263E+00 0.12613386E+04</pdfrwt>
<totfact> 0.85652887E-02</totfact>
</mgrwt>
</event>
<event>
 8    1  0.3025584E-006  0.1094286E+04  0.7818608E-02  0.8695315E-01
          4   -1    0    0  502    0  0.00000000000E+00  0.00000000000E+00  0.21762506501E+04  0.21762506501E+04  0.00000000000E+00 0.  1.
         -4   -1    0    0    0  501 -0.00000000000E+00 -0.00000000000E+00 -0.15169825596E+04  0.15169825596E+04  0.00000000000E+00 0. -1.
   -9000010    2    1    2    0  501 -0.32797322504E+03 -0.27519506844E+03 -0.11492382940E+04  0.15794315130E+04  0.99526704239E+03 0.  0.
    9000010    2    1    2  502    0  0.32797322504E+03  0.27519506844E+03  0.18085063846E+04  0.21138016968E+04  0.10070568545E+04 0.  0.
        -13    1    4    4    0    0  0.22066206264E+03  0.22350603590E+03  0.13000861500E+02  0.31434968989E+03  0.10566000000E+00 0.  1.
          4    1    4    4  502    0  0.10731116240E+03  0.51689032544E+02  0.17955055231E+04  0.17994520069E+04  0.00000000000E+00 0.  1.
         13    1    3    3    0    0  0.22603506506E+03 -0.31719274012E+02  0.52247388778E+02  0.23415329120E+03  0.10566000000E+00 0. -1.
         -4    1    3    3    0  501 -0.55400829010E+03 -0.24347579443E+03 -0.12014856828E+04  0.13452782218E+04  0.00000000000E+00 0. -1.
<mgrwt>
<rscale>  0 0.10888526E+04</rscale>
<asrwt>0</asrwt>
<pdfrwt beam="1">  1        4 0.33480779E+00 0.10942862E+04</pdfrwt>
<pdfrwt beam="2">  1       -4 0.23338193E+00 0.10834460E+04</pdfrwt>
<totfact> 0.66948356E-02</totfact>
</mgrwt>
</event>
<event>
 8    1  0.3025584E-006  0.1126372E+04  0.7818608E-02  0.8666655E-01
         -4   -1    0    0    0  501 -0.00000000000E+00  0.00000000000E+00  0.18841682168E+04  0.18841682168E+04  0.00000000000E+00 0. -1.
          4   -1    0    0  502    0  0.00000000000E+00 -0.00000000000E+00 -0.12697933064E+04  0.12697933064E+04  0.00000000000E+00 0.  1.
   -9000010    2    1    2    0  501 -0.50246116855E+03  0.75699723412E+02  0.13908316834E+04  0.17858972060E+04  0.99840792507E+03 0.  0.
    9000010    2    1    2  502    0  0.50246116855E+03 -0.75699723412E+02 -0.77645677303E+03  0.13680643171E+04  0.10052448365E+04 0.  0.
        -13    1    4    4    0    0  0.77384555055E+03 -0.19691431146E+03 -0.41439889568E+03  0.89963250167E+03  0.10566000000E+00 0.  1.
          4    1    4    4  502    0 -0.27138438200E+03  0.12121458805E+03 -0.36205787735E+03  0.46843181542E+03  0.00000000000E+00 0.  1.
         13    1    3    3    0    0 -0.75976327588E+03 -0.14513717668E+03  0.86692269866E+03  0.11618347611E+04  0.10566000000E+00 0. -1.
         -4    1    3    3    0  501  0.25730210733E+03  0.22083690009E+03  0.52390898476E+03  0.62406244495E+03  0.00000000000E+00 0. -1.
<mgrwt>
<rscale>  0 0.11233196E+04</rscale>
<asrwt>0</asrwt>
<pdfrwt beam="2">  1        4 0.19535282E+00 0.11263724E+04</pdfrwt>
<pdfrwt beam="1">  1       -4 0.28987203E+00 0.11202750E+04</pdfrwt>
<totfact> 0.11203774E-01</totfact>
</mgrwt>
</event>
<event>
 8    1  0.3025584E-006  0.1065631E+04  0.7818608E-02  0.8724103E-01
          4   -1    0    0  502    0  0.00000000000E+00  0.00000000000E+00  0.21599396605E+04  0.21599396605E+04  0.00000000000E+00 0.  1.
         -4   -1    0    0    0  501 -0.00000000000E+00 -0.00000000000E+00 -0.15951430642E+04  0.15951430642E+04  0.00000000000E+00 0. -1.
   -9000010    2    1    2    0  501  0.30222469444E+03 -0.15528378785E+03 -0.12628405870E+04  0.16394677973E+04  0.98875451432E+03 0.  0.
    9000010    2    1    2  502    0 -0.30222469444E+03  0.15528378785E+03  0.18276371833E+04  0.21156149273E+04  0.10100079337E+04 0.  0.
        -13    1    4    4    0    0 -0.48419042602E+03 -0.30381570742E+03  0.96170175717E+03  0.11187558418E+04  0.10566000000E+00 0.  1.
          4    1    4    4  502    0  0.18196573158E+03  0.45909949527E+03  0.86593542616E+03  0.99685908548E+03  0.00000000000E+00 0.  1.
         13    1    3    3    0    0 -0.29801358660E+03  0.18761590250E+03 -0.47586750900E+03  0.59199807597E+03  0.10566000000E+00 0. -1.
         -4    1    3    3    0  501  0.60023828103E+03 -0.34289969035E+03 -0.78697307802E+03  0.10474697214E+04  0.00000000000E+00 0. -1.
<mgrwt>
<rscale>  0 0.10555217E+04</rscale>
<asrwt>0</asrwt>
<pdfrwt beam="1">  1        4 0.33229841E+00 0.10656307E+04</pdfrwt>
<pdfrwt beam="2">  1       -4 0.24540663E+00 0.10455086E+04</pdfrwt>
<totfact> 0.64028210E-02</totfact>
</mgrwt>
</event>
<event>
 8    1  0.3025584E-006  0.1215778E+04  0.7818608E-02  0.8595038E-01
          4   -1    0    0  502    0  0.00000000000E+00  0.00000000000E+00  0.11186145392E+04  0.11186145392E+04  0.00000000000E+00 0.  1.
         -4   -1    0    0    0  501 -0.00000000000E+00 -0.00000000000E+00 -0.13390272032E+04  0.13390272032E+04  0.00000000000E+00 0. -1.
   -9000010    2    1    2    0  501  0.84984965472E+02  0.67717726760E+03  0.33871047731E+02  0.12162498265E+04  0.10061435765E+04 0.  0.
    9000010    2    1    2  502    0 -0.84984965472E+02 -0.67717726760E+03 -0.25428371171E+03  0.12413919159E+04  0.10052871166E+04 0.  0.
        -13    1    4    4    0    0  0.18323371302E+02 -0.53412311382E+03  0.33197657943E+03  0.62915157721E+03  0.10566000000E+00 0.  1.
          4    1    4    4  502    0 -0.10330833677E+03 -0.14305415378E+03 -0.58626029114E+03  0.61224033870E+03  0.00000000000E+00 0.  1.
         13    1    3    3    0    0  0.17327467574E+03  0.14903064836E+03  0.47196939553E+03  0.52439428762E+03  0.10566000000E+00 0. -1.
         -4    1    3    3    0  501 -0.88289710267E+02  0.52814661924E+03 -0.43809834780E+03  0.69185553889E+03  0.00000000000E+00 0. -1.
<mgrwt>
<rscale>  0 0.12154237E+04</rscale>
<asrwt>0</asrwt>
<pdfrwt beam="1">  1        4 0.17209454E+00 0.12150694E+04</pdfrwt>
<pdfrwt beam="2">  1       -4 0.20600419E+00 0.12157781E+04</pdfrwt>
<totfact> 0.21365929E-01</totfact>
</mgrwt>
</event>
<event>
 8    1  0.3025584E-006  0.1115302E+04  0.7818608E-02  0.8739519E-01
          4   -1    0    0  502    0  0.00000000000E+00  0.00000000000E+00  0.18810944425E+04  0.18810944425E+04  0.00000000000E+00 0.  1.
         -4   -1    0    0    0  501 -0.00000000000E+00 -0.00000000000E+00 -0.18405651780E+04  0.18405651780E+04  0.00000000000E+00 0. -1.
   -9000010    2    1    2    0  501  0.14439782326E+03 -0.21386403384E+03 -0.15214158802E+04  0.18023962234E+04  0.93130945941E+03 0.  0.
    9000010    2    1    2  502    0 -0.14439782326E+03  0.21386403384E+03  0.15619451448E+04  0.19192633971E+04  0.10850395366E+04 0.  0.
        -13    1    4    4    0    0  0.28267175543E+03  0.50931087969E+03  0.67605357098E+03  0.89238407398E+03  0.10566000000E+00 0.  1.
          4    1    4    4  502    0 -0.42706957869E+03 -0.29544684585E+03  0.88589157380E+03  0.10268793231E+04  0.00000000000E+00 0.  1.
         13    1    3    3    0    0  0.28462382089E+03 -0.13626481179E+03 -0.15950923540E+04  0.16260069026E+04  0.10566000000E+00 0. -1.
         -4    1    3    3    0  501 -0.14022599763E+03 -0.77599222057E+02  0.73676473835E+02  0.17638932074E+03  0.00000000000E+00 0. -1.
<mgrwt>
<rscale>  0 0.10381842E+04</rscale>
<asrwt>0</asrwt>
<pdfrwt beam="1">  1        4 0.28939915E+00 0.11153024E+04</pdfrwt>
<pdfrwt beam="2">  1       -4 0.28316387E+00 0.96639840E+03</pdfrwt>
<totfact> 0.68460281E-02</totfact>
</mgrwt>
</event>
<event>
 8    1  0.3025584E-006  0.1021810E+04  0.7818608E-02  0.8756752E-01
         -4   -1    0    0    0  501 -0.00000000000E+00  0.00000000000E+00  0.10018898241E+04  0.10018898241E+04  0.00000000000E+00 0. -1.
          4   -1    0    0  502    0  0.00000000000E+00 -0.00000000000E+00 -0.19876697131E+04  0.19876697131E+04  0.00000000000E+00 0.  1.
   -9000010    2    1    2    0  501 -0.30951702118E+01 -0.18603057900E+03  0.54030589007E+03  0.11558659550E+04  0.10047281696E+04 0.  0.
    9000010    2    1    2  502    0  0.30951702118E+01  0.18603057900E+03 -0.15260857790E+04  0.18336935821E+04  0.99943853834E+03 0.  0.
        -13    1    4    4    0    0  0.34218793840E+03 -0.63101165206E+02 -0.12329588030E+03  0.36915610181E+03  0.10566000000E+00 0.  1.
          4    1    4    4  502    0 -0.33909276819E+03  0.24913174421E+03 -0.14027898987E+04  0.14645374803E+04  0.00000000000E+00 0.  1.
         13    1    3    3    0    0 -0.19540330580E+03  0.22065372495E+03  0.63146385130E+03  0.69686234288E+03  0.10566000000E+00 0. -1.
         -4    1    3    3    0  501  0.19230813559E+03 -0.40668430395E+03 -0.91157961231E+02  0.45900361217E+03  0.00000000000E+00 0. -1.
<mgrwt>
<rscale>  0 0.10192063E+04</rscale>
<asrwt>0</asrwt>
<pdfrwt beam="2">  1        4 0.30579534E+00 0.10166092E+04</pdfrwt>
<pdfrwt beam="1">  1       -4 0.15413690E+00 0.10218100E+04</pdfrwt>
<totfact> 0.14164693E-01</totfact>
</mgrwt>
</event>
<event>
 8    1  0.3025584E-006  0.1046217E+04  0.7818608E-02  0.8735201E-01
          4   -1    0    0  502    0  0.00000000000E+00  0.00000000000E+00  0.80503726989E+03  0.80503726989E+03  0.00000000000E+00 0.  1.
         -4   -1    0    0    0  501 -0.00000000000E+00 -0.00000000000E+00 -0.28647898234E+04  0.28647898234E+04  0.00000000000E+00 0. -1.
   -9000010    2    1    2    0  501  0.31374308551E+03  0.44197368874E+02 -0.23650572051E+04  0.25861294789E+04  0.99708673989E+03 0.  0.
    9000010    2    1    2  502    0 -0.31374308551E+03 -0.44197368874E+02  0.30530465161E+03  0.10836976144E+04  0.99035420840E+03 0.  0.
        -13    1    4    4    0    0 -0.34881601180E+03 -0.42465512922E+03 -0.62831421769E+02  0.55312963000E+03  0.10566000000E+00 0.  1.
          4    1    4    4  502    0  0.35072926290E+02  0.38045776035E+03  0.36813607338E+03  0.53056798442E+03  0.00000000000E+00 0.  1.
         13    1    3    3    0    0  0.75815318534E+02 -0.37935027614E+03 -0.17993107459E+04  0.18404276041E+04  0.10566000000E+00 0. -1.
         -4    1    3    3    0  501  0.23792776697E+03  0.42354764502E+03 -0.56574645926E+03  0.74570187479E+03  0.00000000000E+00 0. -1.
<mgrwt>
<rscale>  0 0.10430049E+04</rscale>
<asrwt>0</asrwt>
<pdfrwt beam="1">  1        4 0.12385189E+00 0.10398027E+04</pdfrwt>
<pdfrwt beam="2">  1       -4 0.44073690E+00 0.10462170E+04</pdfrwt>
<totfact> 0.64816722E-02</totfact>
</mgrwt>
</event>
<event>
 8    1  0.3025584E-006  0.1086473E+04  0.7818608E-02  0.8701705E-01
         -4   -1    0    0    0  501 -0.00000000000E+00  0.00000000000E+00  0.82144245141E+03  0.82144245141E+03  0.00000000000E+00 0. -1.
          4   -1    0    0  502    0  0.00000000000E+00 -0.00000000000E+00 -0.15089245958E+04  0.15089245958E+04  0.00000000000E+00 0.  1.
   -9000010    2    1    2    0  501  0.77985645343E+02 -0.39275621592E+03 -0.68061095768E+02  0.10886029948E+04  0.10099925551E+04 0.  0.
    9000010    2    1    2  502    0 -0.77985645343E+02  0.39275621592E+03 -0.61942104858E+03  0.12417640524E+04  0.99897763758E+03 0.  0.
        -13    1    4    4    0    0  0.36234592182E+03  0.23291149068E+03 -0.64161154118E+03  0.77279215219E+03  0.10566000000E+00 0.  1.
          4    1    4    4  502    0 -0.44033156716E+03  0.15984472524E+03  0.22190492602E+02  0.46897190021E+03  0.00000000000E+00 0.  1.
         13    1    3    3    0    0  0.19136434174E+03 -0.64773875944E+03 -0.28704952779E+03  0.73388231641E+03  0.10566000000E+00 0. -1.
         -4    1    3    3    0  501 -0.11337869640E+03  0.25498254352E+03  0.21898843203E+03  0.35472067836E+03  0.00000000000E+00 0. -1.
<mgrwt>
<rscale>  0 0.10813452E+04</rscale>
<asrwt>0</asrwt>
<pdfrwt beam="2">  1        4 0.23214224E+00 0.10762414E+04</pdfrwt>
<pdfrwt beam="1">  1       -4 0.12637576E+00 0.10864733E+04</pdfrwt>
<totfact> 0.29100825E-01</totfact>
</mgrwt>
</event>
<event>
 8    1  0.3025584E-006  0.1072236E+04  0.7818608E-02  0.8713875E-01
          4   -1    0    0  502    0  0.00000000000E+00  0.00000000000E+00  0.12647824206E+04  0.12647824206E+04  0.00000000000E+00 0.  1.
         -4   -1    0    0    0  501 -0.00000000000E+00 -0.00000000000E+00 -0.15652441892E+04  0.15652441892E+04  0.00000000000E+00 0. -1.
   -9000010    2    1    2    0  501  0.34957500339E+03 -0.16159460287E+03 -0.10727451789E+04  0.15167307965E+04  0.10006870598E+04 0.  0.
    9000010    2    1    2  502    0 -0.34957500339E+03  0.16159460287E+03  0.77228341023E+03  0.13132958133E+04  0.98995390235E+03 0.  0.
        -13    1    4    4    0    0  0.46066479915E+02  0.27767513089E+03  0.84852151747E+03  0.89398790577E+03  0.10566000000E+00 0.  1.
          4    1    4    4  502    0 -0.39564148331E+03 -0.11608052802E+03 -0.76238107244E+02  0.41930790750E+03  0.00000000000E+00 0.  1.
         13    1    3    3    0    0 -0.11079963914E+03  0.31729675476E+03 -0.64304825929E+03  0.72557898643E+03  0.10566000000E+00 0. -1.
         -4    1    3    3    0  501  0.46037464253E+03 -0.47889135762E+03 -0.42969691958E+03  0.79115181008E+03  0.00000000000E+00 0. -1.
<mgrwt>
<rscale>  0 0.10672193E+04</rscale>
<asrwt>0</asrwt>
<pdfrwt beam="1">  1        4 0.19458191E+00 0.10622261E+04</pdfrwt>
<pdfrwt beam="2">  1       -4 0.24080680E+00 0.10722360E+04</pdfrwt>
<totfact> 0.14858538E-01</totfact>
</mgrwt>
</event>
<event>
 8    1  0.3025584E-006  0.1130493E+04  0.7818608E-02  0.8743583E-01
         -4   -1    0    0    0  501 -0.00000000000E+00  0.00000000000E+00  0.53516863515E+03  0.53516863515E+03  0.00000000000E+00 0. -1.
          4   -1    0    0  502    0  0.00000000000E+00 -0.00000000000E+00 -0.25369010629E+04  0.25369010629E+04  0.00000000000E+00 0.  1.
   -9000010    2    1    2    0  501 -0.44830698902E+03  0.26343444921E+03 -0.37566609515E+03  0.11912764319E+04  0.10038115643E+04 0.  0.
    9000010    2    1    2  502    0  0.44830698902E+03 -0.26343444921E+03 -0.16260663326E+04  0.18807932662E+04  0.78924947044E+03 0.  0.
        -13    1    4    4    0    0  0.52412217805E+03  0.13309729959E+03 -0.89584004669E+03  0.10463977968E+04  0.10566000000E+00 0.  1.
          4    1    4    4  502    0 -0.75815189031E+02 -0.39653174880E+03 -0.73022628592E+03  0.83439546939E+03  0.00000000000E+00 0.  1.
         13    1    3    3    0    0 -0.57161451790E+03 -0.19584939195E+03 -0.33008734879E+02  0.60513612447E+03  0.10566000000E+00 0. -1.
         -4    1    3    3    0  501  0.12330752887E+03  0.45928384116E+03 -0.34265736027E+03  0.58614030741E+03  0.00000000000E+00 0. -1.
<mgrwt>
<rscale>  0 0.10336708E+04</rscale>
<asrwt>0</asrwt>
<pdfrwt beam="2">  1        4 0.39029247E+00 0.94514104E+03</pdfrwt>
<pdfrwt beam="1">  1       -4 0.82333636E-01 0.11304930E+04</pdfrwt>
<totfact> 0.22874471E-01</totfact>
</mgrwt>
</event>
<event>
 8    1  0.3025584E-006  0.1104149E+04  0.7818608E-02  0.8689877E-01
          4   -1    0    0  502    0  0.00000000000E+00  0.00000000000E+00  0.21588632413E+04  0.21588632413E+04  0.00000000000E+00 0.  1.
         -4   -1    0    0    0  501 -0.00000000000E+00 -0.00000000000E+00 -0.24048436596E+04  0.24048436596E+04  0.00000000000E+00 0. -1.
   -9000010    2    1    2    0  501 -0.25605627057E+03  0.32622710910E+03 -0.21236500474E+04  0.23854534559E+04  0.10042458495E+04 0.  0.
    9000010    2    1    2  502    0  0.25605627057E+03 -0.32622710910E+03  0.18776696291E+04  0.21782534450E+04  0.10233063539E+04 0.  0.
        -13    1    4    4    0    0 -0.21336936695E+03  0.58223751640E+02  0.17771779246E+02  0.22188361659E+03  0.10566000000E+00 0.  1.
          4    1    4    4  502    0  0.46942563752E+03 -0.38445086074E+03  0.18598978499E+04  0.19563698284E+04  0.00000000000E+00 0.  1.
         13    1    3    3    0    0 -0.42567303271E+03 -0.24460144652E+03 -0.97278763579E+03  0.10896527859E+04  0.10566000000E+00 0. -1.
         -4    1    3    3    0  501  0.16961676214E+03  0.57082855562E+03 -0.11508624116E+04  0.12958006700E+04  0.00000000000E+00 0. -1.
<mgrwt>
<rscale>  0 0.10952927E+04</rscale>
<asrwt>0</asrwt>
<pdfrwt beam="1">  1        4 0.33213281E+00 0.11041489E+04</pdfrwt>
<pdfrwt beam="2">  1       -4 0.36997595E+00 0.10865076E+04</pdfrwt>
<totfact> 0.28420217E-02</totfact>
</mgrwt>
</event>
<event>
 8    1  0.3025584E-006  0.1075277E+04  0.7818608E-02  0.8708033E-01
         -4   -1    0    0    0  501 -0.00000000000E+00  0.00000000000E+00  0.17611963553E+04  0.17611963553E+04  0.00000000000E+00 0. -1.
          4   -1    0    0  502    0  0.00000000000E+00 -0.00000000000E+00 -0.88398211985E+03  0.88398211985E+03  0.00000000000E+00 0.  1.
   -9000010    2    1    2    0  501  0.19400412292E+03 -0.32421661538E+03  0.11122769255E+04  0.15470552496E+04  0.10067104712E+04 0.  0.
    9000010    2    1    2  502    0 -0.19400412292E+03  0.32421661538E+03 -0.23506269007E+03  0.10981232256E+04  0.10039253642E+04 0.  0.
        -13    1    4    4    0    0 -0.19074278903E+02  0.19435825325E+03 -0.62316722448E+03  0.65305157495E+03  0.10566000000E+00 0.  1.
          4    1    4    4  502    0 -0.17492984402E+03  0.12985836214E+03  0.38810453441E+03  0.44507165061E+03  0.00000000000E+00 0.  1.
         13    1    3    3    0    0 -0.20029972808E+03 -0.24530519496E+03 -0.46866252418E+02  0.32014227544E+03  0.10566000000E+00 0. -1.
         -4    1    3    3    0  501  0.39430385100E+03 -0.78911420421E+02  0.11591431779E+04  0.12269129741E+04  0.00000000000E+00 0. -1.
<mgrwt>
<rscale>  0 0.10739724E+04</rscale>
<asrwt>0</asrwt>
<pdfrwt beam="2">  1        4 0.13599725E+00 0.10726696E+04</pdfrwt>
<pdfrwt beam="1">  1       -4 0.27095329E+00 0.10752767E+04</pdfrwt>
<totfact> 0.20999458E-01</totfact>
</mgrwt>
</event>
<event>
 8    1  0.3025584E-006  0.1345853E+04  0.7818608E-02  0.8515489E-01
         -4   -1    0    0    0  501 -0.00000000000E+00  0.00000000000E+00  0.22047444482E+04  0.22047444482E+04  0.00000000000E+00 0. -1.
          4   -1    0    0  502    0  0.00000000000E+00 -0.00000000000E+00 -0.14317074523E+04  0.14317074523E+04  0.00000000000E+00 0.  1.
   -9000010    2    1    2    0  501  0.34161675357E+03  0.75861653010E+03  0.15961711338E+04  0.20878415368E+04  0.10578841847E+04 0.  0.
    9000010    2    1    2  502    0 -0.34161675357E+03 -0.75861653010E+03 -0.82313413787E+03  0.15486103637E+04  0.10141218879E+04 0.  0.
        -13    1    4    4    0    0  0.16195291551E+03 -0.18133953416E+03 -0.73898485760E+03  0.77795334335E+03  0.10566000000E+00 0.  1.
          4    1    4    4  502    0 -0.50356966907E+03 -0.57727699594E+03 -0.84149280269E+02  0.77065702035E+03  0.00000000000E+00 0.  1.
         13    1    3    3    0    0 -0.17705620708E+03 -0.18783344295E+03  0.40687641869E+03  0.48184928557E+03  0.10566000000E+00 0. -1.
         -4    1    3    3    0  501  0.51867296065E+03  0.94644997306E+03  0.11892947151E+04  0.16059922512E+04  0.00000000000E+00 0. -1.
<mgrwt>
<rscale>  0 0.13286836E+04</rscale>
<asrwt>0</asrwt>
<pdfrwt beam="2">  1        4 0.22026269E+00 0.13117333E+04</pdfrwt>
<pdfrwt beam="1">  1       -4 0.33919145E+00 0.13458529E+04</pdfrwt>
<totfact> 0.68646907E-02</totfact>
</mgrwt>
</event>
<event>
 8    1  0.3025584E-006  0.1183708E+04  0.7818608E-02  0.8635161E-01
          4   -1    0    0  502    0  0.00000000000E+00  0.00000000000E+00  0.10064214747E+04  0.10064214747E+04  0.00000000000E+00 0.  1.
         -4   -1    0    0    0  501 -0.00000000000E+00 -0.00000000000E+00 -0.23938598976E+04  0.23938598976E+04  0.00000000000E+00 0. -1.
   -9000010    2    1    2    0  501 -0.10680427874E+03  0.63302242820E+03 -0.18126879408E+04  0.21425048370E+04  0.94465065349E+03 0.  0.
    9000010    2    1    2  502    0  0.10680427874E+03 -0.63302242820E+03  0.42524951793E+03  0.12577765353E+04  0.99450495812E+03 0.  0.
        -13    1    4    4    0    0  0.41033778841E+03 -0.43994968929E+03  0.60709529016E+03  0.85469148364E+03  0.10566000000E+00 0.  1.
          4    1    4    4  502    0 -0.30353350968E+03 -0.19307273891E+03 -0.18184577223E+03  0.40308505167E+03  0.00000000000E+00 0.  1.
         13    1    3    3    0    0 -0.37395742503E+03  0.39367251792E+03 -0.16707248083E+04  0.17567423270E+04  0.10566000000E+00 0. -1.
         -4    1    3    3    0  501  0.26715314630E+03  0.23934991028E+03 -0.14196313248E+03  0.38576250998E+03  0.00000000000E+00 0. -1.
<mgrwt>
<rscale>  0 0.11627395E+04</rscale>
<asrwt>0</asrwt>
<pdfrwt beam="1">  1        4 0.15483407E+00 0.11837080E+04</pdfrwt>
<pdfrwt beam="2">  1       -4 0.36828614E+00 0.11421425E+04</pdfrwt>
<totfact> 0.89206740E-02</totfact>
</mgrwt>
</event>
<event>
 8    1  0.3025584E-006  0.1121037E+04  0.7818608E-02  0.8675785E-01
         -4   -1    0    0    0  501 -0.00000000000E+00  0.00000000000E+00  0.19811981704E+04  0.19811981704E+04  0.00000000000E+00 0. -1.
          4   -1    0    0  502    0  0.00000000000E+00 -0.00000000000E+00 -0.12833351020E+04  0.12833351020E+04  0.00000000000E+00 0.  1.
   -9000010    2    1    2    0  501  0.28608182565E+03  0.39165290191E+03  0.15198702317E+04  0.18885786287E+04  0.10106873449E+04 0.  0.
    9000010    2    1    2  502    0 -0.28608182565E+03 -0.39165290191E+03 -0.82200716327E+03  0.13759546437E+04  0.99112087987E+03 0.  0.
        -13    1    4    4    0    0 -0.30017866429E+03 -0.58345718155E+03 -0.14475566637E+03  0.67192538820E+03  0.10566000000E+00 0.  1.
          4    1    4    4  502    0  0.14096838637E+02  0.19180427964E+03 -0.67725149690E+03  0.70402925550E+03  0.00000000000E+00 0.  1.
         13    1    3    3    0    0  0.56792086542E+03  0.28883887244E+03  0.45678718435E+03  0.78397483796E+03  0.10566000000E+00 0. -1.
         -4    1    3    3    0  501 -0.28183903976E+03  0.10281402947E+03  0.10630830474E+04  0.11046037908E+04  0.00000000000E+00 0. -1.
<mgrwt>
<rscale>  0 0.11121981E+04</rscale>
<asrwt>0</asrwt>
<pdfrwt beam="2">  1        4 0.19743617E+00 0.11034289E+04</pdfrwt>
<pdfrwt beam="1">  1       -4 0.30479972E+00 0.11210369E+04</pdfrwt>
<totfact> 0.10069676E-01</totfact>
</mgrwt>
</event>
<event>
 8    1  0.3025584E-006  0.1026349E+04  0.7818608E-02  0.8753137E-01
         -4   -1    0    0    0  501 -0.00000000000E+00  0.00000000000E+00  0.56516886157E+03  0.56516886157E+03  0.00000000000E+00 0. -1.
          4   -1    0    0  502    0  0.00000000000E+00 -0.00000000000E+00 -0.29827918638E+04  0.29827918638E+04  0.00000000000E+00 0.  1.
   -9000010    2    1    2    0  501  0.20915226619E+03  0.63279415786E+02 -0.11902559707E+03  0.10332274660E+04  0.10028175053E+04 0.  0.
    9000010    2    1    2  502    0 -0.20915226619E+03 -0.63279415786E+02 -0.22985974051E+04  0.25147332593E+04  0.99628529031E+03 0.  0.
        -13    1    4    4    0    0 -0.32238906753E+03  0.10654063107E+03 -0.22850874129E+04  0.23101753424E+04  0.10566000000E+00 0.  1.
          4    1    4    4  502    0  0.11323680135E+03 -0.16982004686E+03 -0.13509992284E+02  0.20455791695E+03  0.00000000000E+00 0.  1.
         13    1    3    3    0    0  0.10162492686E+03  0.10418758181E+03 -0.55942583775E+03  0.57804840375E+03  0.10566000000E+00 0. -1.
         -4    1    3    3    0  501  0.10752733933E+03 -0.40908166028E+02  0.44040024068E+03  0.45517906228E+03  0.00000000000E+00 0. -1.
<mgrwt>
<rscale>  0 0.10231531E+04</rscale>
<asrwt>0</asrwt>
<pdfrwt beam="2">  1        4 0.45889107E+00 0.10199673E+04</pdfrwt>
<pdfrwt beam="1">  1       -4 0.86949053E-01 0.10263488E+04</pdfrwt>
<totfact> 0.10281827E-01</totfact>
</mgrwt>
</event>
<event>
 8    1  0.3025584E-006  0.1138907E+04  0.7818608E-02  0.8667802E-01
          4   -1    0    0  502    0  0.00000000000E+00  0.00000000000E+00  0.36828858540E+04  0.36828858540E+04  0.00000000000E+00 0. -1.
         -4   -1    0    0    0  501 -0.00000000000E+00 -0.00000000000E+00 -0.34269311762E+03  0.34269311762E+03  0.00000000000E+00 0.  1.
   -9000010    2    1    2    0  501  0.11824048202E+03 -0.50770882100E+03  0.17952246998E+04  0.21260154188E+04  0.10126009974E+04 0.  0.
    9000010    2    1    2  502    0 -0.11824048202E+03  0.50770882100E+03  0.15449680366E+04  0.18995635528E+04  0.97450828550E+03 0.  0.
        -13    1    4    4    0    0 -0.24761987409E+03  0.16157965623E+03 -0.15363737026E+02  0.29607371199E+03  0.10566000000E+00 0.  1.
          4    1    4    4  502    0  0.12937939207E+03  0.34612916477E+03  0.15603317736E+04  0.16034898408E+04  0.00000000000E+00 0.  1.
         13    1    3    3    0    0 -0.18969531919E+03 -0.26284599219E+03  0.39260515909E+02  0.32651757841E+03  0.10566000000E+00 0. -1.
         -4    1    3    3    0  501  0.30793580121E+03 -0.24486282880E+03  0.17559641839E+04  0.17994978404E+04  0.00000000000E+00 0. -1.
<mgrwt>
<rscale>  0 0.11219152E+04</rscale>
<asrwt>0</asrwt>
<pdfrwt beam="1">  1        4 0.56659779E+00 0.11051767E+04</pdfrwt>
<pdfrwt beam="2">  1       -4 0.52722021E-01 0.11389073E+04</pdfrwt>
<totfact> 0.87560936E-02</totfact>
</mgrwt>
</event>
<event>
 8    1  0.3025584E-006  0.1484544E+04  0.7818608E-02  0.8423559E-01
          4   -1    0    0  502    0  0.00000000000E+00  0.00000000000E+00  0.21630072848E+04  0.21630072848E+04  0.00000000000E+00 0.  1.
         -4   -1    0    0    0  501 -0.00000000000E+00 -0.00000000000E+00 -0.10555163856E+04  0.10555163856E+04  0.00000000000E+00 0. -1.
   -9000010    2    1    2    0  501 -0.10329040269E+04 -0.28777361862E+03  0.21174974526E+03  0.14995693732E+04  0.10267258476E+04 0.  0.
    9000010    2    1    2  502    0  0.10329040269E+04  0.28777361862E+03  0.89574115400E+03  0.17189542972E+04  0.10013726962E+04 0.  0.
        -13    1    4    4    0    0  0.80767546670E+03  0.29678859749E+03  0.70363278956E+02  0.86335052748E+03  0.10566000000E+00 0.  1.
          4    1    4    4  502    0  0.22522856017E+03 -0.90149788676E+01  0.82537787505E+03  0.85560376973E+03  0.00000000000E+00 0.  1.
         13    1    3    3    0    0 -0.85271374351E+03  0.26353429370E+03  0.34865120856E+02  0.89318902822E+03  0.10566000000E+00 0. -1.
         -4    1    3    3    0  501 -0.18019028337E+03 -0.55130791232E+03  0.17688462441E+03  0.60638034496E+03  0.00000000000E+00 0. -1.
<mgrwt>
<rscale>  0 0.14758080E+04</rscale>
<asrwt>0</asrwt>
<pdfrwt beam="1">  1        4 0.33277035E+00 0.14671236E+04</pdfrwt>
<pdfrwt beam="2">  1       -4 0.16238714E+00 0.14845438E+04</pdfrwt>
<totfact> 0.10715981E-01</totfact>
</mgrwt>
</event>
<event>
 8    1  0.3025584E-006  0.1093511E+04  0.7818608E-02  0.8707962E-01
         -4   -1    0    0    0  501 -0.00000000000E+00  0.00000000000E+00  0.19027211628E+04  0.19027211628E+04  0.00000000000E+00 0. -1.
          4   -1    0    0  502    0  0.00000000000E+00 -0.00000000000E+00 -0.19654006215E+04  0.19654006215E+04  0.00000000000E+00 0.  1.
   -9000010    2    1    2    0  501 -0.50399124287E+03 -0.61832864251E+02  0.15766116151E+04  0.19187155694E+04  0.96847032753E+03 0.  0.
    9000010    2    1    2  502    0  0.50399124287E+03  0.61832864251E+02 -0.16392910739E+04  0.19494062149E+04  0.92470475821E+03 0.  0.
        -13    1    4    4    0    0 -0.10573052620E+03 -0.28591192062E+03 -0.79504409859E+03  0.85148088669E+03  0.10566000000E+00 0.  1.
          4    1    4    4  502    0  0.60972176907E+03  0.34774478488E+03 -0.84424697530E+03  0.10979253282E+04  0.00000000000E+00 0.  1.
         13    1    3    3    0    0 -0.33024637451E+03 -0.31006349864E+03  0.17644939600E+03  0.48614446575E+03  0.10566000000E+00 0. -1.
         -4    1    3    3    0  501 -0.17374486837E+03  0.24823063439E+03  0.14001622191E+04  0.14325711037E+04  0.00000000000E+00 0. -1.
<mgrwt>
<rscale>  0 0.10740548E+04</rscale>
<asrwt>0</asrwt>
<pdfrwt beam="2">  1        4 0.30236933E+00 0.10549452E+04</pdfrwt>
<pdfrwt beam="1">  1       -4 0.29272633E+00 0.10935105E+04</pdfrwt>
<totfact> 0.59374891E-02</totfact>
</mgrwt>
</event>
<event>
 8    1  0.3025584E-006  0.1643731E+04  0.7818608E-02  0.8332171E-01
          4   -1    0    0  502    0  0.00000000000E+00  0.00000000000E+00  0.14451196110E+04  0.14451196110E+04  0.00000000000E+00 0.  1.
         -4   -1    0    0    0  501 -0.00000000000E+00 -0.00000000000E+00 -0.18661623820E+04  0.18661623820E+04  0.00000000000E+00 0. -1.
   -9000010    2    1    2    0  501  0.93560851552E+03 -0.90047554229E+03 -0.18334680316E+03  0.16539247129E+04  0.10077853983E+04 0.  0.
    9000010    2    1    2  502    0 -0.93560851552E+03  0.90047554229E+03 -0.23769596788E+03  0.16573572801E+04  0.10020550306E+04 0.  0.
        -13    1    4    4    0    0 -0.27853291451E+02 -0.70194152396E+02 -0.31712617167E+03  0.32599393369E+03  0.10566000000E+00 0.  1.
          4    1    4    4  502    0 -0.90775522407E+03  0.97066969469E+03  0.79430203790E+02  0.13313633465E+04  0.00000000000E+00 0.  1.
         13    1    3    3    0    0  0.55265240494E+03  0.92508025368E+02 -0.18360174251E+03  0.58965415836E+03  0.10566000000E+00 0. -1.
         -4    1    3    3    0  501  0.38295611058E+03 -0.99298356766E+03  0.25493935401E+00  0.10642705545E+04  0.00000000000E+00 0. -1.
<mgrwt>
<rscale>  0 0.16419763E+04</rscale>
<asrwt>0</asrwt>
<pdfrwt beam="1">  1        4 0.22232609E+00 0.16402237E+04</pdfrwt>
<pdfrwt beam="2">  1       -4 0.28710191E+00 0.16437308E+04</pdfrwt>
<totfact> 0.93296719E-02</totfact>
</mgrwt>
</event>
<event>
 8    1  0.3025584E-006  0.1049645E+04  0.7818608E-02  0.8734167E-01
          4   -1    0    0  502    0  0.00000000000E+00  0.00000000000E+00  0.34212215729E+04  0.34212215729E+04  0.00000000000E+00 0.  1.
         -4   -1    0    0    0  501 -0.00000000000E+00 -0.00000000000E+00 -0.72869051979E+03  0.72869051979E+03  0.00000000000E+00 0. -1.
   -9000010    2    1    2    0  501 -0.15639604884E+03  0.26461032921E+03 -0.21323794915E+03  0.10603734285E+04  0.99219102725E+03 0.  0.
    9000010    2    1    2  502    0  0.15639604884E+03 -0.26461032921E+03  0.29057690023E+04  0.30895386642E+04  0.10036320603E+04 0.  0.
        -13    1    4    4    0    0  0.37281457766E+03 -0.51177136562E+03  0.24315993300E+04  0.25126830188E+04  0.10566000000E+00 0.  1.
          4    1    4    4  502    0 -0.21641852882E+03  0.24716103640E+03  0.47416967227E+03  0.57685564540E+03  0.00000000000E+00 0.  1.
         13    1    3    3    0    0  0.13569064260E+03 -0.26833473994E+03  0.16653990440E+03  0.34373104903E+03  0.10566000000E+00 0. -1.
         -4    1    3    3    0  501 -0.29208669144E+03  0.53294506915E+03 -0.37977785354E+03  0.71664237950E+03  0.00000000000E+00 0. -1.
<mgrwt>
<rscale>  0 0.10441641E+04</rscale>
<asrwt>0</asrwt>
<pdfrwt beam="1">  1        4 0.52634177E+00 0.10496455E+04</pdfrwt>
<pdfrwt beam="2">  1       -4 0.11210624E+00 0.10387114E+04</pdfrwt>
<totfact> 0.30442874E-02</totfact>
</mgrwt>
</event>
<event>
 8    1  0.3025584E-006  0.1037343E+04  0.7818608E-02  0.8751128E-01
         -4   -1    0    0    0  501 -0.00000000000E+00  0.00000000000E+00  0.20246385938E+04  0.20246385938E+04  0.00000000000E+00 0. -1.
          4   -1    0    0  502    0  0.00000000000E+00 -0.00000000000E+00 -0.10748669174E+04  0.10748669174E+04  0.00000000000E+00 0.  1.
   -9000010    2    1    2    0  501  0.20700150975E+02 -0.30830119580E+03  0.15916438704E+04  0.18998449839E+04  0.99025382064E+03 0.  0.
    9000010    2    1    2  502    0 -0.20700150975E+02  0.30830119580E+03 -0.64187219403E+03  0.11996605272E+04  0.96524988656E+03 0.  0.
        -13    1    4    4    0    0  0.34522489339E+03  0.47585374881E+03 -0.25299831187E+03  0.64001966708E+03  0.10566000000E+00 0.  1.
          4    1    4    4  502    0 -0.36592504436E+03 -0.16755255301E+03 -0.38887388216E+03  0.55964086014E+03  0.00000000000E+00 0.  1.
         13    1    3    3    0    0 -0.47709121819E+03 -0.20232581427E+03  0.93559091565E+03  0.10695242579E+04  0.10566000000E+00 0. -1.
         -4    1    3    3    0  501  0.49779136916E+03 -0.10597538153E+03  0.65605295474E+03  0.83032072606E+03  0.00000000000E+00 0. -1.
<mgrwt>
<rscale>  0 0.10253531E+04</rscale>
<asrwt>0</asrwt>
<pdfrwt beam="2">  1        4 0.16536414E+00 0.10135016E+04</pdfrwt>
<pdfrwt beam="1">  1       -4 0.31148286E+00 0.10373431E+04</pdfrwt>
<totfact> 0.12360684E-01</totfact>
</mgrwt>
</event>
<event>
 8    1  0.3025584E-006  0.1144629E+04  0.7818608E-02  0.8666264E-01
         -4   -1    0    0    0  501 -0.00000000000E+00  0.00000000000E+00  0.15736150792E+04  0.15736150792E+04  0.00000000000E+00 0. -1.
          4   -1    0    0  502    0  0.00000000000E+00 -0.00000000000E+00 -0.14126932186E+04  0.14126932186E+04  0.00000000000E+00 0.  1.
   -9000010    2    1    2    0  501 -0.30538007821E+03 -0.48641985993E+03  0.10622668479E+04  0.15615971386E+04  0.99010781983E+03 0.  0.
    9000010    2    1    2  502    0  0.30538007821E+03  0.48641985993E+03 -0.90134498728E+03  0.14247111592E+04  0.94208164648E+03 0.  0.
        -13    1    4    4    0    0  0.13773980289E+03  0.38824627838E+03  0.83970355521E+02  0.42042651884E+03  0.10566000000E+00 0.  1.
          4    1    4    4  502    0  0.16764027532E+03  0.98173581547E+02 -0.98531534280E+03  0.10042846403E+04  0.00000000000E+00 0.  1.
         13    1    3    3    0    0  0.19154224699E+03 -0.49961186846E+03  0.20970059425E+03  0.57469539921E+03  0.10566000000E+00 0. -1.
         -4    1    3    3    0  501 -0.49692232520E+03  0.13192008529E+02  0.85256625366E+03  0.98690173941E+03  0.00000000000E+00 0. -1.
<mgrwt>
<rscale>  0 0.11237993E+04</rscale>
<asrwt>0</asrwt>
<pdfrwt beam="2">  1        4 0.21733742E+00 0.11033490E+04</pdfrwt>
<pdfrwt beam="1">  1       -4 0.24209463E+00 0.11446287E+04</pdfrwt>
<totfact> 0.12763961E-01</totfact>
</mgrwt>
</event>
<event>
 8    1  0.3025584E-006  0.1215075E+04  0.7818608E-02  0.8660389E-01
         -4   -1    0    0    0  501 -0.00000000000E+00  0.00000000000E+00  0.29342924748E+04  0.29342924748E+04  0.00000000000E+00 0. -1.
          4   -1    0    0  502    0  0.00000000000E+00 -0.00000000000E+00 -0.13358303312E+04  0.13358303312E+04  0.00000000000E+00 0.  1.
   -9000010    2    1    2    0  501  0.66175735342E+03 -0.14419245338E+03  0.25291813590E+04  0.27395526210E+04  0.80602478748E+03 0.  0.
    9000010    2    1    2  502    0 -0.66175735342E+03  0.14419245338E+03 -0.93071921546E+03  0.15305701850E+04  0.10088075014E+04 0.  0.
        -13    1    4    4    0    0 -0.43865726160E+03  0.42776541734E+03 -0.94653767874E+02  0.61996999312E+03  0.10566000000E+00 0.  1.
          4    1    4    4  502    0 -0.22310009182E+03 -0.28357296396E+03 -0.83606544759E+03  0.91060019191E+03  0.00000000000E+00 0.  1.
         13    1    3    3    0    0  0.60118382903E+03 -0.44372326092E+03  0.17983975673E+04  0.19474460583E+04  0.10566000000E+00 0. -1.
         -4    1    3    3    0  501  0.60573524392E+02  0.29953080753E+03  0.73078379169E+03  0.79210656272E+03  0.00000000000E+00 0. -1.
<mgrwt>
<rscale>  0 0.11310315E+04</rscale>
<asrwt>0</asrwt>
<pdfrwt beam="2">  1        4 0.20551236E+00 0.12150748E+04</pdfrwt>
<pdfrwt beam="1">  1       -4 0.45142961E+00 0.10528011E+04</pdfrwt>
<totfact> 0.27767162E-02</totfact>
</mgrwt>
</event>
<event>
 8    1  0.3025584E-006  0.1064909E+04  0.7818608E-02  0.8731000E-01
         -4   -1    0    0    0  501 -0.00000000000E+00  0.00000000000E+00  0.18552702191E+04  0.18552702191E+04  0.00000000000E+00 0. -1.
          4   -1    0    0  502    0  0.00000000000E+00 -0.00000000000E+00 -0.11537785960E+04  0.11537785960E+04  0.00000000000E+00 0.  1.
   -9000010    2    1    2    0  501  0.86715070099E+02 -0.35684180285E+03  0.14035898407E+04  0.17618444651E+04  0.99958786641E+03 0.  0.
    9000010    2    1    2  502    0 -0.86715070099E+02  0.35684180285E+03 -0.70209821762E+03  0.12472043500E+04  0.96318285275E+03 0.  0.
        -13    1    4    4    0    0 -0.38722374614E+03 -0.15625239618E+03 -0.40812389349E+03  0.58388540356E+03  0.10566000000E+00 0.  1.
          4    1    4    4  502    0  0.30050867605E+03  0.51309419903E+03 -0.29397432413E+03  0.66331894644E+03  0.00000000000E+00 0.  1.
         13    1    3    3    0    0  0.34661432115E+03 -0.50489590183E+03  0.13138301068E+04  0.14495554215E+04  0.10566000000E+00 0. -1.
         -4    1    3    3    0  501 -0.25989925105E+03  0.14805409898E+03  0.89759733876E+02  0.31228904359E+03  0.00000000000E+00 0. -1.
<mgrwt>
<rscale>  0 0.10477227E+04</rscale>
<asrwt>0</asrwt>
<pdfrwt beam="2">  1        4 0.17750440E+00 0.10308137E+04</pdfrwt>
<pdfrwt beam="1">  1       -4 0.28542619E+00 0.10649091E+04</pdfrwt>
<totfact> 0.13152337E-01</totfact>
</mgrwt>
</event>
<event>
 8    1  0.3025584E-006  0.1094213E+04  0.7818608E-02  0.8706407E-01
         -4   -1    0    0    0  501 -0.00000000000E+00  0.00000000000E+00  0.14656369725E+04  0.14656369725E+04  0.00000000000E+00 0. -1.
          4   -1    0    0  502    0  0.00000000000E+00 -0.00000000000E+00 -0.16361022484E+04  0.16361022484E+04  0.00000000000E+00 0.  1.
   -9000010    2    1    2    0  501  0.28958068583E+03  0.34604651542E+03  0.10292885250E+04  0.15022440273E+04  0.99684356118E+03 0.  0.
    9000010    2    1    2  502    0 -0.28958068583E+03 -0.34604651542E+03 -0.11997538009E+04  0.15994951936E+04  0.95674998152E+03 0.  0.
        -13    1    4    4    0    0 -0.13302796481E+03  0.10256413330E+03  0.11363516238E+03  0.20280237216E+03  0.10566000000E+00 0.  1.
          4    1    4    4  502    0 -0.15655272102E+03 -0.44861064872E+03 -0.13133889633E+04  0.13966928214E+04  0.00000000000E+00 0.  1.
         13    1    3    3    0    0  0.24015930833E+03 -0.33439741387E+03  0.37111197705E+03  0.55427631598E+03  0.10566000000E+00 0. -1.
         -4    1    3    3    0  501  0.49421377498E+02  0.68044392929E+03  0.65817654794E+03  0.94796771133E+03  0.00000000000E+00 0. -1.
<mgrwt>
<rscale>  0 0.10758609E+04</rscale>
<asrwt>0</asrwt>
<pdfrwt beam="2">  1        4 0.25170804E+00 0.10578165E+04</pdfrwt>
<pdfrwt beam="1">  1       -4 0.22548261E+00 0.10942131E+04</pdfrwt>
<totfact> 0.11584098E-01</totfact>
</mgrwt>
</event>
<event>
 8    1  0.3025584E-006  0.1043205E+04  0.7818608E-02  0.8745169E-01
          4   -1    0    0  502    0  0.00000000000E+00  0.00000000000E+00  0.11146947679E+04  0.11146947679E+04  0.00000000000E+00 0.  1.
         -4   -1    0    0    0  501 -0.00000000000E+00 -0.00000000000E+00 -0.18056806096E+04  0.18056806096E+04  0.00000000000E+00 0. -1.
   -9000010    2    1    2    0  501 -0.17945410044E+03  0.24271170926E+03 -0.13454778987E+04  0.16888569866E+04  0.97509712197E+03 0.  0.
    9000010    2    1    2  502    0  0.17945410044E+03 -0.24271170926E+03  0.65449205708E+03  0.12315183909E+04  0.99858146705E+03 0.  0.
        -13    1    4    4    0    0  0.54959059192E+02  0.39181748061E+03  0.27375646385E+03  0.48112789252E+03  0.10566000000E+00 0.  1.
          4    1    4    4  502    0  0.12449504125E+03 -0.63452918987E+03  0.38073559323E+03  0.75039049837E+03  0.00000000000E+00 0.  1.
         13    1    3    3    0    0  0.33126494829E+03 -0.98937179092E+02 -0.22969671654E+03  0.41507303469E+03  0.10566000000E+00 0. -1.
         -4    1    3    3    0  501 -0.51071904873E+03  0.34164888835E+03 -0.11157811822E+04  0.12737839519E+04  0.00000000000E+00 0. -1.
<mgrwt>
<rscale>  0 0.10319158E+04</rscale>
<asrwt>0</asrwt>
<pdfrwt beam="1">  1        4 0.17149150E+00 0.10432055E+04</pdfrwt>
<pdfrwt beam="2">  1       -4 0.27779702E+00 0.10207483E+04</pdfrwt>
<totfact> 0.14466489E-01</totfact>
</mgrwt>
</event>
<event>
 8    1  0.3025584E-006  0.1296038E+04  0.7818608E-02  0.8542248E-01
         -4   -1    0    0    0  501 -0.00000000000E+00  0.00000000000E+00  0.15197784968E+04  0.15197784968E+04  0.00000000000E+00 0.  1.
          4   -1    0    0  502    0  0.00000000000E+00 -0.00000000000E+00 -0.11192720767E+04  0.11192720767E+04  0.00000000000E+00 0. -1.
   -9000010    2    1    2    0  501  0.80172642073E+03 -0.13426276942E+03 -0.38077080491E+00  0.12824282288E+04  0.99188218666E+03 0.  0.
    9000010    2    1    2  502    0 -0.80172642073E+03  0.13426276942E+03  0.40088719092E+03  0.13566223446E+04  0.10094166142E+04 0.  0.
        -13    1    4    4    0    0  0.71598472366E+02 -0.25852232682E+03 -0.86867639736E+02  0.28196831862E+03  0.10566000000E+00 0.  1.
          4    1    4    4  502    0 -0.87332489309E+03  0.39278509623E+03  0.48775483066E+03  0.10746540260E+04  0.00000000000E+00 0.  1.
         13    1    3    3    0    0 -0.21911862707E+03 -0.74119802041E+02 -0.10585981986E+03  0.25438755946E+03  0.10566000000E+00 0. -1.
         -4    1    3    3    0  501  0.10208450478E+04 -0.60142967378E+02  0.10547904906E+03  0.10280406694E+04  0.00000000000E+00 0. -1.
<mgrwt>
<rscale>  0 0.12892150E+04</rscale>
<asrwt>0</asrwt>
<pdfrwt beam="2">  1        4 0.17219570E+00 0.12960377E+04</pdfrwt>
<pdfrwt beam="1">  1       -4 0.23381208E+00 0.12824282E+04</pdfrwt>
<totfact> 0.18057011E-01</totfact>
</mgrwt>
</event>
<event>
 8    1  0.3025584E-006  0.1815840E+04  0.7818608E-02  0.8250108E-01
          4   -1    0    0  502    0  0.00000000000E+00  0.00000000000E+00  0.99162891687E+03  0.99162891687E+03  0.00000000000E+00 0.  1.
         -4   -1    0    0    0  501 -0.00000000000E+00 -0.00000000000E+00 -0.33255217220E+04  0.33255217220E+04  0.00000000000E+00 0. -1.
   -9000010    2    1    2    0  501 -0.87629182156E+02 -0.15136304302E+04 -0.10011389175E+04  0.20647058166E+04  0.98080325462E+03 0.  0.
    9000010    2    1    2  502    0  0.87629182156E+02  0.15136304302E+04 -0.13327538876E+04  0.22524448223E+04  0.99925912542E+03 0.  0.
        -13    1    4    4    0    0  0.84500128720E+02  0.15678433976E+04 -0.14411287437E+04  0.21312262335E+04  0.10566000000E+00 0.  1.
          4    1    4    4  502    0  0.31290534361E+01 -0.54212967492E+02  0.10837485611E+03  0.12121858874E+03  0.00000000000E+00 0.  1.
         13    1    3    3    0    0  0.42208410005E+03 -0.91760515768E+03 -0.67801442583E+03  0.12164940549E+04  0.10566000000E+00 0. -1.
         -4    1    3    3    0  501 -0.50971328220E+03 -0.59602527247E+03 -0.32312449169E+03  0.84821176165E+03  0.00000000000E+00 0. -1.
<mgrwt>
<rscale>  0 0.18107877E+04</rscale>
<asrwt>0</asrwt>
<pdfrwt beam="1">  1        4 0.15255829E+00 0.18158400E+04</pdfrwt>
<pdfrwt beam="2">  1       -4 0.51161873E+00 0.18057494E+04</pdfrwt>
<totfact> 0.20383871E-02</totfact>
</mgrwt>
</event>
<event>
 8    1  0.3025584E-006  0.1021711E+04  0.7818608E-02  0.8756559E-01
         -4   -1    0    0    0  501 -0.00000000000E+00  0.00000000000E+00  0.14269551338E+04  0.14269551338E+04  0.00000000000E+00 0. -1.
          4   -1    0    0  502    0  0.00000000000E+00 -0.00000000000E+00 -0.20864643093E+04  0.20864643093E+04  0.00000000000E+00 0.  1.
   -9000010    2    1    2    0  501 -0.19771861059E+03 -0.63144213275E+02  0.10873276757E+04  0.14920368717E+04  0.10004062732E+04 0.  0.
    9000010    2    1    2  502    0  0.19771861059E+03  0.63144213275E+02 -0.17468368512E+04  0.20213825714E+04  0.99572520026E+03 0.  0.
        -13    1    4    4    0    0  0.40184030140E+03  0.29529133554E+03 -0.39928148755E+03  0.63882573378E+03  0.10566000000E+00 0.  1.
          4    1    4    4  502    0 -0.20412169080E+03 -0.23214712226E+03 -0.13475553637E+04  0.13825568376E+04  0.00000000000E+00 0.  1.
         13    1    3    3    0    0  0.33464613792E+03 -0.79170956391E+02  0.83427974536E+03  0.90237397050E+03  0.10566000000E+00 0. -1.
         -4    1    3    3    0  501 -0.53236474852E+03  0.16026743116E+02  0.25304793035E+03  0.58966290117E+03  0.00000000000E+00 0. -1.
<mgrwt>
<rscale>  0 0.10194165E+04</rscale>
<asrwt>0</asrwt>
<pdfrwt beam="2">  1        4 0.32099451E+00 0.10171276E+04</pdfrwt>
<pdfrwt beam="1">  1       -4 0.21953156E+00 0.10217106E+04</pdfrwt>
<totfact> 0.80094807E-02</totfact>
</mgrwt>
</event>
<event>
 8    1  0.3025584E-006  0.1381607E+04  0.7818608E-02  0.8483675E-01
          4   -1    0    0  502    0  0.00000000000E+00  0.00000000000E+00  0.30412291618E+04  0.30412291618E+04  0.00000000000E+00 0.  1.
         -4   -1    0    0    0  501 -0.00000000000E+00 -0.00000000000E+00 -0.16766308902E+04  0.16766308902E+04  0.00000000000E+00 0. -1.
   -9000010    2    1    2    0  501 -0.73275989281E+02  0.95459791807E+03 -0.11876050220E+04  0.18156920347E+04  0.98473616823E+03 0.  0.
    9000010    2    1    2  502    0  0.73275989281E+02 -0.95459791807E+03  0.25522032936E+04  0.29021680172E+04  0.99609788314E+03 0.  0.
        -13    1    4    4    0    0 -0.85604911673E+02 -0.44959239563E+03  0.22427076003E+04  0.22889296439E+04  0.10566000000E+00 0.  1.
          4    1    4    4  502    0  0.15888090095E+03 -0.50500552244E+03  0.30949569326E+03  0.61323837334E+03  0.00000000000E+00 0.  1.
         13    1    3    3    0    0 -0.52530291235E+03  0.58036946868E+03 -0.61144745126E+03  0.99329747142E+03  0.10566000000E+00 0. -1.
         -4    1    3    3    0  501  0.45202692307E+03  0.37422844939E+03 -0.57615757069E+03  0.82239456332E+03  0.00000000000E+00 0. -1.
<mgrwt>
<rscale>  0 0.13775164E+04</rscale>
<asrwt>0</asrwt>
<pdfrwt beam="1">  1        4 0.46788141E+00 0.13816069E+04</pdfrwt>
<pdfrwt beam="2">  1       -4 0.25794321E+00 0.13734380E+04</pdfrwt>
<totfact> 0.16497501E-02</totfact>
</mgrwt>
</event>
<event>
 8    1  0.3025584E-006  0.1031130E+04  0.7818608E-02  0.8746085E-01
         -4   -1    0    0    0  501 -0.00000000000E+00  0.00000000000E+00  0.24920600027E+04  0.24920600027E+04  0.00000000000E+00 0. -1.
          4   -1    0    0  502    0  0.00000000000E+00 -0.00000000000E+00 -0.91516656998E+03  0.91516656998E+03  0.00000000000E+00 0.  1.
   -9000010    2    1    2    0  501 -0.86147189268E+02  0.28741413446E+03  0.20334592992E+04  0.22799528621E+04  0.98650905172E+03 0.  0.
    9000010    2    1    2  502    0  0.86147189268E+02 -0.28741413446E+03 -0.45656586648E+03  0.11272737106E+04  0.98603519469E+03 0.  0.
        -13    1    4    4    0    0  0.21394704655E+03 -0.17338287477E+02  0.26809239193E+03  0.34343485076E+03  0.10566000000E+00 0.  1.
          4    1    4    4  502    0 -0.12779985728E+03 -0.27007584698E+03 -0.72465825841E+03  0.78383885980E+03  0.00000000000E+00 0.  1.
         13    1    3    3    0    0 -0.35036097015E+03  0.40346352069E+03  0.18772284529E+04  0.19517997585E+04  0.10566000000E+00 0. -1.
         -4    1    3    3    0  501  0.26421378089E+03 -0.11604938623E+03  0.15623084630E+03  0.32815310358E+03  0.00000000000E+00 0. -1.
<mgrwt>
<rscale>  0 0.10309029E+04</rscale>
<asrwt>0</asrwt>
<pdfrwt beam="2">  1        4 0.14079486E+00 0.10306763E+04</pdfrwt>
<pdfrwt beam="1">  1       -4 0.38339384E+00 0.10311296E+04</pdfrwt>
<totfact> 0.91093152E-02</totfact>
</mgrwt>
</event>
<event>
 8    1  0.3025584E-006  0.1803610E+04  0.7818608E-02  0.8266073E-01
         -4   -1    0    0    0  501 -0.00000000000E+00  0.00000000000E+00  0.28700910610E+04  0.28700910610E+04  0.00000000000E+00 0. -1.
          4   -1    0    0  502    0  0.00000000000E+00 -0.00000000000E+00 -0.11058090617E+04  0.11058090617E+04  0.00000000000E+00 0.  1.
   -9000010    2    1    2    0  501 -0.80425595556E+02  0.14990856236E+04  0.10166599125E+04  0.20234794450E+04  0.89841288014E+03 0.  0.
    9000010    2    1    2  502    0  0.80425595556E+02 -0.14990856236E+04  0.74762208677E+03  0.19524206777E+04  0.99964080284E+03 0.  0.
        -13    1    4    4    0    0  0.19394488780E+03 -0.54982086868E+03  0.80582610664E+03  0.99462220589E+03  0.10566000000E+00 0.  1.
          4    1    4    4  502    0 -0.11351929225E+03 -0.94926475491E+03 -0.58204019868E+02  0.95779847179E+03  0.00000000000E+00 0.  1.
         13    1    3    3    0    0 -0.37658514557E+03  0.22654207909E+03  0.31252883714E+03  0.53926984959E+03  0.10566000000E+00 0. -1.
         -4    1    3    3    0  501  0.29615955001E+03  0.12725435445E+04  0.70413107540E+03  0.14842095954E+04  0.00000000000E+00 0. -1.
<mgrwt>
<rscale>  0 0.17763664E+04</rscale>
<asrwt>0</asrwt>
<pdfrwt beam="2">  1        4 0.17012447E+00 0.18036096E+04</pdfrwt>
<pdfrwt beam="1">  1       -4 0.44155247E+00 0.17495347E+04</pdfrwt>
<totfact> 0.37472762E-02</totfact>
</mgrwt>
</event>
<event>
 8    1  0.3025584E-006  0.1315057E+04  0.7818608E-02  0.8526462E-01
         -4   -1    0    0    0  501 -0.00000000000E+00  0.00000000000E+00  0.24839149734E+04  0.24839149734E+04  0.00000000000E+00 0. -1.
          4   -1    0    0  502    0  0.00000000000E+00 -0.00000000000E+00 -0.22836851186E+04  0.22836851186E+04  0.00000000000E+00 0.  1.
   -9000010    2    1    2    0  501 -0.20401685451E+03 -0.82599692140E+03  0.20894623865E+04  0.24688513887E+04  0.10027364179E+04 0.  0.
    9000010    2    1    2  502    0  0.20401685451E+03  0.82599692140E+03 -0.18892325317E+04  0.22987487033E+04  0.99556629661E+03 0.  0.
        -13    1    4    4    0    0 -0.14991322919E+03 -0.80002550702E+02  0.43239118184E+01  0.16997968050E+03  0.10566000000E+00 0.  1.
          4    1    4    4  502    0  0.35393008370E+03  0.90599947210E+03 -0.18935564435E+04  0.21287690228E+04  0.00000000000E+00 0.  1.
         13    1    3    3    0    0 -0.10896730532E+03 -0.60126440334E+03  0.33374705121E+03  0.69626134583E+03  0.10566000000E+00 0. -1.
         -4    1    3    3    0  501 -0.95049549194E+02 -0.22473251806E+03  0.17557153353E+04  0.17725900429E+04  0.00000000000E+00 0. -1.
<mgrwt>
<rscale>  0 0.13123243E+04</rscale>
<asrwt>0</asrwt>
<pdfrwt beam="2">  1        4 0.35133617E+00 0.13095977E+04</pdfrwt>
<pdfrwt beam="1">  1       -4 0.38214077E+00 0.13150567E+04</pdfrwt>
<totfact> 0.21604134E-02</totfact>
</mgrwt>
</event>
<event>
 8    1  0.3025584E-006  0.1018126E+04  0.7818608E-02  0.8793199E-01
         -4   -1    0    0    0  501 -0.00000000000E+00  0.00000000000E+00  0.20026506400E+04  0.20026506400E+04  0.00000000000E+00 0. -1.
          4   -1    0    0  502    0  0.00000000000E+00 -0.00000000000E+00 -0.86481649377E+03  0.86481649377E+03  0.00000000000E+00 0.  1.
   -9000010    2    1    2    0  501 -0.16828830817E+03 -0.83964509328E+02  0.15121699627E+04  0.17827056485E+04  0.92520832232E+03 0.  0.
    9000010    2    1    2  502    0  0.16828830817E+03  0.83964509328E+02 -0.37433581640E+03  0.10847614853E+04  0.10006044089E+04 0.  0.
        -13    1    4    4    0    0  0.18730117500E+03 -0.31710750015E+03  0.17222063925E+03  0.40656962080E+03  0.10566000000E+00 0.  1.
          4    1    4    4  502    0 -0.19012866826E+02  0.40107200948E+03 -0.54655645565E+03  0.67819186452E+03  0.00000000000E+00 0.  1.
         13    1    3    3    0    0 -0.31980264854E+03 -0.11177926303E+03  0.87716061181E+02  0.34994636190E+03  0.10566000000E+00 0. -1.
         -4    1    3    3    0  501  0.15151434037E+03  0.27814753699E+02  0.14244539015E+04  0.14327592866E+04  0.00000000000E+00 0. -1.
<mgrwt>
<rscale>  0 0.98043007E+03</rscale>
<asrwt>0</asrwt>
<pdfrwt beam="2">  1        4 0.13304869E+00 0.10181258E+04</pdfrwt>
<pdfrwt beam="1">  1       -4 0.30810010E+00 0.94412999E+03</pdfrwt>
<totfact> 0.17503203E-01</totfact>
</mgrwt>
</event>
<event>
 8    1  0.3025584E-006  0.1311039E+04  0.7818608E-02  0.8537856E-01
         -4   -1    0    0    0  501 -0.00000000000E+00  0.00000000000E+00  0.15292115884E+04  0.15292115884E+04  0.00000000000E+00 0. -1.
          4   -1    0    0  502    0  0.00000000000E+00 -0.00000000000E+00 -0.17876411535E+04  0.17876411535E+04  0.00000000000E+00 0.  1.
   -9000010    2    1    2    0  501  0.38455979601E+03  0.76318688470E+03  0.90000485677E+03  0.15902304898E+04  0.99422523145E+03 0.  0.
    9000010    2    1    2  502    0 -0.38455979601E+03 -0.76318688470E+03 -0.11584344218E+04  0.17266222520E+04  0.95336962082E+03 0.  0.
        -13    1    4    4    0    0 -0.31753316553E+03 -0.97095395291E+03 -0.76343584244E+03  0.12753090553E+04  0.10566000000E+00 0.  1.
          4    1    4    4  502    0 -0.67026630481E+02  0.20776706821E+03 -0.39499857938E+03  0.45131319672E+03  0.00000000000E+00 0.  1.
         13    1    3    3    0    0  0.56959697003E+03  0.34045735280E+03  0.91289644921E+03  0.11285972955E+04  0.10566000000E+00 0. -1.
         -4    1    3    3    0  501 -0.18503717402E+03  0.42272953190E+03 -0.12891592444E+02  0.46163319428E+03  0.00000000000E+00 0. -1.
<mgrwt>
<rscale>  0 0.12955955E+04</rscale>
<asrwt>0</asrwt>
<pdfrwt beam="2">  1        4 0.27502171E+00 0.12803336E+04</pdfrwt>
<pdfrwt beam="1">  1       -4 0.23526332E+00 0.13110394E+04</pdfrwt>
<totfact> 0.94984904E-02</totfact>
</mgrwt>
</event>
<event>
 8    1  0.3025584E-006  0.1396158E+04  0.7818608E-02  0.8477189E-01
          4   -1    0    0  502    0  0.00000000000E+00  0.00000000000E+00  0.88356180121E+03  0.88356180121E+03  0.00000000000E+00 0.  1.
         -4   -1    0    0    0  501 -0.00000000000E+00 -0.00000000000E+00 -0.29175107185E+04  0.29175107185E+04  0.00000000000E+00 0. -1.
   -9000010    2    1    2    0  501 -0.33375800299E+03 -0.92047453477E+03 -0.19773174077E+04  0.24205456396E+04  0.99528352183E+03 0.  0.
    9000010    2    1    2  502    0  0.33375800299E+03  0.92047453477E+03 -0.56631509555E+02  0.13805268801E+04  0.97158610790E+03 0.  0.
        -13    1    4    4    0    0  0.49690667085E+03  0.67237311022E+02  0.56033862737E+02  0.50455614204E+03  0.10566000000E+00 0.  1.
          4    1    4    4  502    0 -0.16314866786E+03  0.85323722375E+03 -0.11266537229E+03  0.87597073806E+03  0.00000000000E+00 0.  1.
         13    1    3    3    0    0  0.24407859515E+03  0.23577541551E+02 -0.16035123019E+03  0.29298940128E+03  0.10566000000E+00 0. -1.
         -4    1    3    3    0  501 -0.57783659814E+03 -0.94405207632E+03 -0.18169661775E+04  0.21275562383E+04  0.00000000000E+00 0. -1.
<mgrwt>
<rscale>  0 0.13877360E+04</rscale>
<asrwt>0</asrwt>
<pdfrwt beam="1">  1        4 0.13593259E+00 0.13793648E+04</pdfrwt>
<pdfrwt beam="2">  1       -4 0.44884780E+00 0.13961580E+04</pdfrwt>
<totfact> 0.49556908E-02</totfact>
</mgrwt>
</event>
<event>
 8    1  0.3025584E-006  0.1064688E+04  0.7818608E-02  0.8722869E-01
         -4   -1    0    0    0  501 -0.00000000000E+00  0.00000000000E+00  0.54901966645E+03  0.54901966645E+03  0.00000000000E+00 0. -1.
          4   -1    0    0  502    0  0.00000000000E+00 -0.00000000000E+00 -0.23393981828E+04  0.23393981828E+04  0.00000000000E+00 0.  1.
   -9000010    2    1    2    0  501 -0.68536143057E+02 -0.31729372520E+03 -0.37978210981E+03  0.11303956899E+04  0.10139957860E+04 0.  0.
    9000010    2    1    2  502    0  0.68536143057E+02  0.31729372520E+03 -0.14105964066E+04  0.17580221593E+04  0.99774103834E+03 0.  0.
        -13    1    4    4    0    0  0.13279543210E+03  0.19239747820E+03  0.90268734878E+02  0.25059902647E+03  0.10566000000E+00 0.  1.
          4    1    4    4  502    0 -0.64259289043E+02  0.12489624700E+03 -0.15008651414E+04  0.15074231329E+04  0.00000000000E+00 0.  1.
         13    1    3    3    0    0 -0.12140141424E+03 -0.30513630489E+03 -0.71711275492E+03  0.78873137530E+03  0.10566000000E+00 0. -1.
         -4    1    3    3    0  501  0.52865271188E+02 -0.12157420305E+02  0.33733064511E+03  0.34166431464E+03  0.00000000000E+00 0. -1.
<mgrwt>
<rscale>  0 0.10569249E+04</rscale>
<asrwt>0</asrwt>
<pdfrwt beam="2">  1        4 0.35990741E+00 0.10492186E+04</pdfrwt>
<pdfrwt beam="1">  1       -4 0.84464566E-01 0.10646877E+04</pdfrwt>
<totfact> 0.27833951E-01</totfact>
</mgrwt>
</event>
<event>
 8    1  0.3025584E-006  0.1058164E+04  0.7818608E-02  0.8737787E-01
         -4   -1    0    0    0  501 -0.00000000000E+00  0.00000000000E+00  0.23207525157E+04  0.23207525157E+04  0.00000000000E+00 0. -1.
          4   -1    0    0  502    0  0.00000000000E+00 -0.00000000000E+00 -0.31116643752E+04  0.31116643752E+04  0.00000000000E+00 0.  1.
   -9000010    2    1    2    0  501 -0.33390795354E+03 -0.77418281121E+02  0.21099428453E+04  0.23445910288E+04  0.96320307841E+03 0.  0.
    9000010    2    1    2  502    0  0.33390795354E+03  0.77418281121E+02 -0.29008547048E+04  0.30878258621E+04  0.10011105956E+04 0.  0.
        -13    1    4    4    0    0  0.16354171138E+03  0.38383627640E+02  0.13228570684E+02  0.16850578767E+03  0.10566000000E+00 0.  1.
          4    1    4    4  502    0  0.17036624217E+03  0.39034653481E+02 -0.29140832754E+04  0.29193200744E+04  0.00000000000E+00 0.  1.
         13    1    3    3    0    0  0.13825671775E+03 -0.25033795440E+03  0.16111331089E+04  0.16363171811E+04  0.10566000000E+00 0. -1.
         -4    1    3    3    0  501 -0.47216467129E+03  0.17291967327E+03  0.49880973641E+03  0.70827384772E+03  0.00000000000E+00 0. -1.
<mgrwt>
<rscale>  0 0.10401149E+04</rscale>
<asrwt>0</asrwt>
<pdfrwt beam="2">  1        4 0.47871760E+00 0.10581638E+04</pdfrwt>
<pdfrwt beam="1">  1       -4 0.35703885E+00 0.10223738E+04</pdfrwt>
<totfact> 0.81928741E-03</totfact>
</mgrwt>
</event>
<event>
 8    1  0.3025584E-006  0.1338158E+04  0.7818608E-02  0.8524526E-01
          4   -1    0    0  502    0  0.00000000000E+00  0.00000000000E+00  0.24755376620E+04  0.24755376620E+04  0.00000000000E+00 0.  1.
         -4   -1    0    0    0  501 -0.00000000000E+00 -0.00000000000E+00 -0.17408371400E+04  0.17408371400E+04  0.00000000000E+00 0. -1.
   -9000010    2    1    2    0  501 -0.84449413240E+03  0.62667126433E+02 -0.12609565387E+04  0.18386619225E+04  0.10361316346E+04 0.  0.
    9000010    2    1    2  502    0  0.84449413240E+03 -0.62667126433E+02  0.19956570608E+04  0.23777128795E+04  0.97661349809E+03 0.  0.
        -13    1    4    4    0    0  0.14373909928E+03 -0.12195582649E+03 -0.65753179623E+02  0.19964379297E+03  0.10566000000E+00 0.  1.
          4    1    4    4  502    0  0.70075503312E+03  0.59288700055E+02  0.20614102404E+04  0.21780690865E+04  0.00000000000E+00 0.  1.
         13    1    3    3    0    0 -0.72694652573E+03  0.49650286139E+03 -0.92932881789E+03  0.12800853118E+04  0.10566000000E+00 0. -1.
         -4    1    3    3    0  501 -0.11754760667E+03 -0.43383573496E+03 -0.33162772085E+03  0.55857661068E+03  0.00000000000E+00 0. -1.
<mgrwt>
<rscale>  0 0.13151928E+04</rscale>
<asrwt>0</asrwt>
<pdfrwt beam="1">  1        4 0.38085195E+00 0.12926219E+04</pdfrwt>
<pdfrwt beam="2">  1       -4 0.26782110E+00 0.13381578E+04</pdfrwt>
<totfact> 0.37554377E-02</totfact>
</mgrwt>
</event>
<event>
 8    1  0.3025584E-006  0.1082356E+04  0.7818608E-02  0.8718238E-01
          4   -1    0    0  502    0  0.00000000000E+00  0.00000000000E+00  0.13562509493E+04  0.13562509493E+04  0.00000000000E+00 0.  1.
         -4   -1    0    0    0  501 -0.00000000000E+00 -0.00000000000E+00 -0.17429722170E+04  0.17429722170E+04  0.00000000000E+00 0. -1.
   -9000010    2    1    2    0  501  0.26480587140E+03 -0.19440867242E+03 -0.13116905123E+04  0.16754733015E+04  0.98932396242E+03 0.  0.
    9000010    2    1    2  502    0 -0.26480587140E+03  0.19440867242E+03  0.92496924459E+03  0.14237498648E+04  0.10312995164E+04 0.  0.
        -13    1    4    4    0    0  0.32000082849E+03  0.33838108493E+03  0.29026120658E+03  0.54877487924E+03  0.10566000000E+00 0.  1.
          4    1    4    4  502    0 -0.58480669988E+03 -0.14397241251E+03  0.63470803800E+03  0.87497498553E+03  0.00000000000E+00 0.  1.
         13    1    3    3    0    0  0.33701587867E+03 -0.11806749753E+03  0.24807084279E+01  0.35710754897E+03  0.10566000000E+00 0. -1.
         -4    1    3    3    0  501 -0.72210007277E+02 -0.76341174887E+02 -0.13141712207E+04  0.13183657525E+04  0.00000000000E+00 0. -1.
<mgrwt>
<rscale>  0 0.10622102E+04</rscale>
<asrwt>0</asrwt>
<pdfrwt beam="1">  1        4 0.20865399E+00 0.10823565E+04</pdfrwt>
<pdfrwt beam="2">  1       -4 0.26814957E+00 0.10424389E+04</pdfrwt>
<totfact> 0.11731176E-01</totfact>
</mgrwt>
</event>
<event>
 8    1  0.3025584E-006  0.1061699E+04  0.7818608E-02  0.8779568E-01
         -4   -1    0    0    0  501 -0.00000000000E+00  0.00000000000E+00  0.70704694865E+03  0.70704694865E+03  0.00000000000E+00 0. -1.
          4   -1    0    0  502    0  0.00000000000E+00 -0.00000000000E+00 -0.26039350746E+04  0.26039350746E+04  0.00000000000E+00 0.  1.
   -9000010    2    1    2    0  501 -0.20965047209E+03  0.31011727057E+03  0.20673543155E+03  0.95462124888E+03  0.85348470883E+03 0.  0.
    9000010    2    1    2  502    0  0.20965047209E+03 -0.31011727057E+03 -0.21036235575E+04  0.23563607744E+04  0.99351798442E+03 0.  0.
        -13    1    4    4    0    0  0.58701170078E+03 -0.31506828756E+03 -0.15414368063E+04  0.16792492970E+04  0.10566000000E+00 0.  1.
          4    1    4    4  502    0 -0.37736122869E+03  0.49510169922E+01 -0.56218675119E+03  0.67711147731E+03  0.00000000000E+00 0.  1.
         13    1    3    3    0    0  0.13263864998E+03  0.46932599008E+03 -0.61432419413E+02  0.49156266107E+03  0.10566000000E+00 0. -1.
         -4    1    3    3    0  501 -0.34228912207E+03 -0.15920871951E+03  0.26816785096E+03  0.46305858781E+03  0.00000000000E+00 0. -1.
<mgrwt>
<rscale>  0 0.99472003E+03</rscale>
<asrwt>0</asrwt>
<pdfrwt beam="2">  1        4 0.40060540E+00 0.10616987E+04</pdfrwt>
<pdfrwt beam="1">  1       -4 0.10877645E+00 0.93196684E+03</pdfrwt>
<totfact> 0.11923317E-01</totfact>
</mgrwt>
</event>
<event>
 8    1  0.3025584E-006  0.1105183E+04  0.7818608E-02  0.8681895E-01
          4   -1    0    0  502    0  0.00000000000E+00  0.00000000000E+00  0.50789447240E+03  0.50789447240E+03  0.00000000000E+00 0.  1.
         -4   -1    0    0    0  501 -0.00000000000E+00 -0.00000000000E+00 -0.24241718010E+04  0.24241718010E+04  0.00000000000E+00 0. -1.
   -9000010    2    1    2    0  501  0.34456719886E+03  0.34354694370E+03 -0.10937037745E+04  0.15543661117E+04  0.99152156096E+03 0.  0.
    9000010    2    1    2  502    0 -0.34456719886E+03 -0.34354694370E+03 -0.82257355405E+03  0.13777001617E+04  0.99231014635E+03 0.  0.
        -13    1    4    4    0    0 -0.65099218602E+03 -0.19335915172E+02 -0.40682710465E+03  0.76790169170E+03  0.10566000000E+00 0.  1.
          4    1    4    4  502    0  0.30642498716E+03 -0.32421102853E+03 -0.41574644940E+03  0.60979846996E+03  0.00000000000E+00 0.  1.
         13    1    3    3    0    0  0.50367254815E+03  0.40729640025E+03 -0.11921095011E+04  0.13567245362E+04  0.10566000000E+00 0. -1.
         -4    1    3    3    0  501 -0.15910534929E+03 -0.63749456551E+02  0.98405726507E+02  0.19764157557E+03  0.00000000000E+00 0. -1.
<mgrwt>
<rscale>  0 0.11048294E+04</rscale>
<asrwt>0</asrwt>
<pdfrwt beam="1">  1        4 0.78137612E-01 0.11051835E+04</pdfrwt>
<pdfrwt beam="2">  1       -4 0.37294951E+00 0.11044755E+04</pdfrwt>
<totfact> 0.29135369E-01</totfact>
</mgrwt>
</event>
<event>
 8    1  0.3025584E-006  0.1520427E+04  0.7818608E-02  0.8398540E-01
         -4   -1    0    0    0  501 -0.00000000000E+00  0.00000000000E+00  0.27478525833E+04  0.27478525833E+04  0.00000000000E+00 0.  1.
          4   -1    0    0  502    0  0.00000000000E+00 -0.00000000000E+00 -0.10211530992E+04  0.10211530992E+04  0.00000000000E+00 0. -1.
   -9000010    2    1    2    0  501  0.10403996862E+04 -0.47020798830E+03  0.16567073794E+04  0.22469686690E+04  0.10003308449E+04 0.  0.
    9000010    2    1    2  502    0 -0.10403996862E+04  0.47020798830E+03  0.69992104769E+02  0.15220370135E+04  0.10040770471E+04 0.  0.
        -13    1    4    4    0    0 -0.53667318447E+03 -0.28073254846E+02 -0.40161701314E+03  0.67089675135E+03  0.10566000000E+00 0.  1.
          4    1    4    4  502    0 -0.50372650172E+03  0.49828124314E+03  0.47160911791E+03  0.85114026218E+03  0.00000000000E+00 0.  1.
         13    1    3    3    0    0  0.32830436091E+03 -0.42714082952E+03  0.13806287491E+04  0.14820151132E+04  0.10566000000E+00 0. -1.
         -4    1    3    3    0  501  0.71209532528E+03 -0.43067158783E+02  0.27607863028E+03  0.76495355581E+03  0.00000000000E+00 0. -1.
<mgrwt>
<rscale>  0 0.15191907E+04</rscale>
<asrwt>0</asrwt>
<pdfrwt beam="2">  1        4 0.15710048E+00 0.15204268E+04</pdfrwt>
<pdfrwt beam="1">  1       -4 0.42274655E+00 0.15179555E+04</pdfrwt>
<totfact> 0.51684129E-02</totfact>
</mgrwt>
</event>
<event>
 8    1  0.3025584E-006  0.1129936E+04  0.7818608E-02  0.8663696E-01
         -4   -1    0    0    0  501 -0.00000000000E+00  0.00000000000E+00  0.39820157380E+04  0.39820157380E+04  0.00000000000E+00 0. -1.
          4   -1    0    0  502    0  0.00000000000E+00 -0.00000000000E+00 -0.89616844249E+03  0.89616844249E+03  0.00000000000E+00 0.  1.
   -9000010    2    1    2    0  501 -0.27273249130E+03  0.46141262156E+03  0.35018922682E+04  0.36796746157E+04  0.99472166956E+03 0.  0.
    9000010    2    1    2  502    0  0.27273249130E+03 -0.46141262156E+03 -0.41604497274E+03  0.11985095648E+04  0.98795097973E+03 0.  0.
        -13    1    4    4    0    0  0.23592128051E+03 -0.35066442325E+03  0.27071270596E+03  0.50190613531E+03  0.10566000000E+00 0.  1.
          4    1    4    4  502    0  0.36811210792E+02 -0.11074819831E+03 -0.68675767871E+03  0.69660342946E+03  0.00000000000E+00 0.  1.
         13    1    3    3    0    0  0.18455335549E+03 -0.14049257857E+03  0.18324448475E+04  0.18470658451E+04  0.10566000000E+00 0. -1.
         -4    1    3    3    0  501 -0.45728584679E+03  0.60190520014E+03  0.16694474207E+04  0.18326087706E+04  0.00000000000E+00 0. -1.
<mgrwt>
<rscale>  0 0.11269543E+04</rscale>
<asrwt>0</asrwt>
<pdfrwt beam="2">  1        4 0.13787207E+00 0.11239803E+04</pdfrwt>
<pdfrwt beam="1">  1       -4 0.61261779E+00 0.11299362E+04</pdfrwt>
<totfact> 0.75969297E-03</totfact>
</mgrwt>
</event>
<event>
 8    1  0.3025584E-006  0.1217670E+04  0.7818608E-02  0.8599032E-01
          4   -1    0    0  502    0  0.00000000000E+00  0.00000000000E+00  0.10942569163E+04  0.10942569163E+04  0.00000000000E+00 0.  1.
         -4   -1    0    0    0  501 -0.00000000000E+00 -0.00000000000E+00 -0.22037525831E+04  0.22037525831E+04  0.00000000000E+00 0. -1.
   -9000010    2    1    2    0  501 -0.87058845599E+02  0.68954501342E+03 -0.15860957221E+04  0.19903905402E+04  0.98127636013E+03 0.  0.
    9000010    2    1    2  502    0  0.87058845599E+02 -0.68954501342E+03  0.47660005525E+03  0.13076189592E+04  0.99983406711E+03 0.  0.
        -13    1    4    4    0    0 -0.25187177624E+03 -0.47067335451E+03  0.67290544184E+03  0.85893803218E+03  0.10566000000E+00 0.  1.
          4    1    4    4  502    0  0.33893062184E+03 -0.21887165892E+03 -0.19630538659E+03  0.44868092705E+03  0.00000000000E+00 0.  1.
         13    1    3    3    0    0 -0.16299026575E+02 -0.25330752654E+03 -0.27925171069E+03  0.37737499964E+03  0.10566000000E+00 0. -1.
         -4    1    3    3    0  501 -0.70759819024E+02  0.94285253996E+03 -0.13068440114E+04  0.16130155406E+04  0.00000000000E+00 0. -1.
<mgrwt>
<rscale>  0 0.12100504E+04</rscale>
<asrwt>0</asrwt>
<pdfrwt beam="1">  1        4 0.16834722E+00 0.12176698E+04</pdfrwt>
<pdfrwt beam="2">  1       -4 0.33903886E+00 0.12024786E+04</pdfrwt>
<totfact> 0.99430215E-02</totfact>
</mgrwt>
</event>
<event>
 8    1  0.3025584E-006  0.1191157E+04  0.7818608E-02  0.8613527E-01
         -4   -1    0    0    0  501 -0.00000000000E+00  0.00000000000E+00  0.17152212017E+04  0.17152212017E+04  0.00000000000E+00 0. -1.
          4   -1    0    0  502    0  0.00000000000E+00 -0.00000000000E+00 -0.16531590490E+04  0.16531590490E+04  0.00000000000E+00 0.  1.
   -9000010    2    1    2    0  501  0.64633591372E+03 -0.46569600689E+02  0.12218441222E+04  0.17063872408E+04  0.99946761603E+03 0.  0.
    9000010    2    1    2  502    0 -0.64633591372E+03  0.46569600689E+02 -0.11597819695E+04  0.16619930098E+04  0.99860287746E+03 0.  0.
        -13    1    4    4    0    0  0.16822180615E+03 -0.19521245559E+03 -0.57620602282E+03  0.63120509407E+03  0.10566000000E+00 0.  1.
          4    1    4    4  502    0 -0.81455771987E+03  0.24178205628E+03 -0.58357594671E+03  0.10307879158E+04  0.00000000000E+00 0.  1.
         13    1    3    3    0    0  0.82152179198E+02 -0.29966370287E+03  0.10036815059E+04  0.10506778250E+04  0.10566000000E+00 0. -1.
         -4    1    3    3    0  501  0.56418373452E+03  0.25309410218E+03  0.21816261627E+03  0.65570941582E+03  0.00000000000E+00 0. -1.
<mgrwt>
<rscale>  0 0.11907939E+04</rscale>
<asrwt>0</asrwt>
<pdfrwt beam="2">  1        4 0.25433216E+00 0.11904312E+04</pdfrwt>
<pdfrwt beam="1">  1       -4 0.26388018E+00 0.11911567E+04</pdfrwt>
<totfact> 0.91564068E-02</totfact>
</mgrwt>
</event>
<event>
 8    1  0.3025584E-006  0.1556601E+04  0.7818608E-02  0.8379199E-01
          4   -1    0    0  502    0  0.00000000000E+00  0.00000000000E+00  0.25150169263E+04  0.25150169263E+04  0.00000000000E+00 0.  1.
         -4   -1    0    0    0  501 -0.00000000000E+00 -0.00000000000E+00 -0.14769353973E+04  0.14769353973E+04  0.00000000000E+00 0. -1.
   -9000010    2    1    2    0  501  0.13671550144E+03 -0.11785326707E+04 -0.66126065083E+03  0.16912341421E+04  0.10076591143E+04 0.  0.
    9000010    2    1    2  502    0 -0.13671550144E+03  0.11785326707E+04  0.16993421798E+04  0.23007181816E+04  0.99895441471E+03 0.  0.
        -13    1    4    4    0    0 -0.17890379165E+03  0.53589710506E+03  0.15355654683E+04  0.16362009634E+04  0.10566000000E+00 0.  1.
          4    1    4    4  502    0  0.42188290205E+02  0.64263556565E+03  0.16377671151E+03  0.66451721822E+03  0.00000000000E+00 0.  1.
         13    1    3    3    0    0  0.10082628898E+02 -0.54454178693E+03  0.22913920159E+03  0.59087409995E+03  0.10566000000E+00 0. -1.
         -4    1    3    3    0  501  0.12663287255E+03 -0.63399088378E+03 -0.89039985242E+03  0.11003600421E+04  0.00000000000E+00 0. -1.
<mgrwt>
<rscale>  0 0.15537883E+04</rscale>
<asrwt>0</asrwt>
<pdfrwt beam="1">  1        4 0.38692568E+00 0.15509804E+04</pdfrwt>
<pdfrwt beam="2">  1       -4 0.22722083E+00 0.15566012E+04</pdfrwt>
<totfact> 0.43583066E-02</totfact>
</mgrwt>
</event>
<event>
 8    1  0.3025584E-006  0.1310902E+04  0.7818608E-02  0.8528162E-01
         -4   -1    0    0    0  501 -0.00000000000E+00  0.00000000000E+00  0.28221741111E+04  0.28221741111E+04  0.00000000000E+00 0. -1.
          4   -1    0    0  502    0  0.00000000000E+00 -0.00000000000E+00 -0.31841568410E+04  0.31841568410E+04  0.00000000000E+00 0.  1.
   -9000010    2    1    2    0  501 -0.42877510370E+03  0.71179993281E+03  0.25203014501E+04  0.28408418119E+04  0.10138814363E+04 0.  0.
    9000010    2    1    2  502    0  0.42877510370E+03 -0.71179993281E+03 -0.28822841800E+04  0.31654891403E+04  0.10110648688E+04 0.  0.
        -13    1    4    4    0    0 -0.88184423874E+02 -0.53303785506E+03 -0.23159193664E+04  0.23781060470E+04  0.10566000000E+00 0.  1.
          4    1    4    4  502    0  0.51695952757E+03 -0.17876207775E+03 -0.56636481356E+03  0.78738309331E+03  0.00000000000E+00 0.  1.
         13    1    3    3    0    0  0.66371129219E+02 -0.22885903810E+03  0.33982006183E+03  0.41504128915E+03  0.10566000000E+00 0. -1.
         -4    1    3    3    0  501 -0.49514623292E+03  0.94065897091E+03  0.21804813883E+04  0.24258005228E+04  0.00000000000E+00 0. -1.
<mgrwt>
<rscale>  0 0.13098125E+04</rscale>
<asrwt>0</asrwt>
<pdfrwt beam="2">  1        4 0.48987028E+00 0.13087243E+04</pdfrwt>
<pdfrwt beam="1">  1       -4 0.43418063E+00 0.13109015E+04</pdfrwt>
<totfact> 0.34335018E-03</totfact>
</mgrwt>
</event>
<event>
 8    1  0.3025584E-006  0.1232443E+04  0.7818608E-02  0.8586616E-01
          4   -1    0    0  502    0  0.00000000000E+00  0.00000000000E+00  0.10683405996E+04  0.10683405996E+04  0.00000000000E+00 0.  1.
         -4   -1    0    0    0  501 -0.00000000000E+00 -0.00000000000E+00 -0.25647815615E+04  0.25647815615E+04  0.00000000000E+00 0. -1.
   -9000010    2    1    2    0  501  0.68814340096E+03  0.47234698944E+02 -0.19658422438E+04  0.23143142223E+04  0.10078403321E+04 0.  0.
    9000010    2    1    2  502    0 -0.68814340096E+03 -0.47234698944E+02  0.46940128191E+03  0.13188079387E+04  0.10213443879E+04 0.  0.
        -13    1    4    4    0    0 -0.53453102230E+02  0.31950033806E+03 -0.15200693835E+03  0.35783211235E+03  0.10566000000E+00 0.  1.
          4    1    4    4  502    0 -0.63469029873E+03 -0.36673503700E+03  0.62140822026E+03  0.96097582637E+03  0.00000000000E+00 0.  1.
         13    1    3    3    0    0  0.79470593388E+03 -0.26602046859E+03 -0.10687308476E+04  0.13581274045E+04  0.10566000000E+00 0. -1.
         -4    1    3    3    0  501 -0.10656253292E+03  0.31325516753E+03 -0.89711139619E+03  0.95618681783E+03  0.00000000000E+00 0. -1.
<mgrwt>
<rscale>  0 0.12268469E+04</rscale>
<asrwt>0</asrwt>
<pdfrwt beam="1">  1        4 0.16436010E+00 0.12324434E+04</pdfrwt>
<pdfrwt beam="2">  1       -4 0.39458177E+00 0.12212758E+04</pdfrwt>
<totfact> 0.64700825E-02</totfact>
</mgrwt>
</event>
<event>
 8    1  0.3025584E-006  0.1045562E+04  0.7818608E-02  0.8759675E-01
         -4   -1    0    0    0  501 -0.00000000000E+00  0.00000000000E+00  0.21409404429E+04  0.21409404429E+04  0.00000000000E+00 0. -1.
          4   -1    0    0  502    0  0.00000000000E+00 -0.00000000000E+00 -0.13973197135E+04  0.13973197135E+04  0.00000000000E+00 0.  1.
   -9000010    2    1    2    0  501 -0.11634684951E+03 -0.27820228433E+03  0.18066887293E+04  0.20874203086E+04  0.10011324987E+04 0.  0.
    9000010    2    1    2  502    0  0.11634684951E+03  0.27820228433E+03 -0.10630679998E+04  0.14508398479E+04  0.94015402538E+03 0.  0.
        -13    1    4    4    0    0 -0.36745208054E+03  0.33868131312E+03 -0.53150120383E+03  0.72953382663E+03  0.10566000000E+00 0.  1.
          4    1    4    4  502    0  0.48379893005E+03 -0.60479028787E+02 -0.53156679601E+03  0.72130602123E+03  0.00000000000E+00 0.  1.
         13    1    3    3    0    0 -0.55996045148E+03 -0.18855944402E+03  0.95663035280E+03  0.11243896185E+04  0.10566000000E+00 0. -1.
         -4    1    3    3    0  501  0.44361360198E+03 -0.89642840309E+02  0.85005837645E+03  0.96303069009E+03  0.00000000000E+00 0. -1.
<mgrwt>
<rscale>  0 0.10160293E+04</rscale>
<asrwt>0</asrwt>
<pdfrwt beam="2">  1        4 0.21497226E+00 0.98733110E+03</pdfrwt>
<pdfrwt beam="1">  1       -4 0.32937545E+00 0.10455618E+04</pdfrwt>
<totfact> 0.77709457E-02</totfact>
</mgrwt>
</event>
<event>
 8    1  0.3025584E-006  0.1130334E+04  0.7818608E-02  0.8662800E-01
          4   -1    0    0  502    0  0.00000000000E+00  0.00000000000E+00  0.28834920477E+04  0.28834920477E+04  0.00000000000E+00 0.  1.
         -4   -1    0    0    0  501 -0.00000000000E+00 -0.00000000000E+00 -0.16803814913E+04  0.16803814913E+04  0.00000000000E+00 0. -1.
   -9000010    2    1    2    0  501  0.38587978093E+03 -0.30243839787E+03 -0.13576356580E+04  0.17665869564E+04  0.10184707678E+04 0.  0.
    9000010    2    1    2  502    0 -0.38587978093E+03  0.30243839787E+03  0.25607462144E+04  0.27972865826E+04  0.10134193903E+04 0.  0.
        -13    1    4    4    0    0 -0.53807067930E+03 -0.16146104278E+02  0.60454533999E+03  0.80947874084E+03  0.10566000000E+00 0.  1.
          4    1    4    4  502    0  0.15219089837E+03  0.31858450215E+03  0.19562008744E+04  0.19878078417E+04  0.00000000000E+00 0.  1.
         13    1    3    3    0    0  0.10997207002E+03 -0.63678015465E+03 -0.10576007376E+04  0.12393958822E+04  0.10566000000E+00 0. -1.
         -4    1    3    3    0  501  0.27590771092E+03  0.33434175678E+03 -0.30003492038E+03  0.52719107420E+03  0.00000000000E+00 0. -1.
<mgrwt>
<rscale>  0 0.11280570E+04</rscale>
<asrwt>0</asrwt>
<pdfrwt beam="1">  1        4 0.44361416E+00 0.11257846E+04</pdfrwt>
<pdfrwt beam="2">  1       -4 0.25852023E+00 0.11303340E+04</pdfrwt>
<totfact> 0.22193052E-02</totfact>
</mgrwt>
</event>
<event>
 8    1  0.3025584E-006  0.1139469E+04  0.7818608E-02  0.8656609E-01
         -4   -1    0    0    0  501 -0.00000000000E+00  0.00000000000E+00  0.18785811699E+04  0.18785811699E+04  0.00000000000E+00 0. -1.
          4   -1    0    0  502    0  0.00000000000E+00 -0.00000000000E+00 -0.18745844816E+04  0.18745844816E+04  0.00000000000E+00 0.  1.
   -9000010    2    1    2    0  501  0.31299481540E+03 -0.43388601691E+03  0.14958852970E+04  0.18804420240E+04  0.10060648854E+04 0.  0.
    9000010    2    1    2  502    0 -0.31299481540E+03  0.43388601691E+03 -0.14918886087E+04  0.18727236276E+04  0.99756670673E+03 0.  0.
        -13    1    4    4    0    0 -0.32312952463E+03 -0.26909914040E+03 -0.45083463946E+03  0.61650540983E+03  0.10566000000E+00 0.  1.
          4    1    4    4  502    0  0.10134709227E+02  0.70298515731E+03 -0.10410539692E+04  0.12562182177E+04  0.00000000000E+00 0.  1.
         13    1    3    3    0    0 -0.34784563526E+03 -0.30564378375E+03  0.54066126288E+03  0.71184922621E+03  0.10566000000E+00 0. -1.
         -4    1    3    3    0  501  0.66084045066E+03 -0.12824223315E+03  0.95522403414E+03  0.11685927978E+04  0.00000000000E+00 0. -1.
<mgrwt>
<rscale>  0 0.11357146E+04</rscale>
<asrwt>0</asrwt>
<pdfrwt beam="2">  1        4 0.28839761E+00 0.11319727E+04</pdfrwt>
<pdfrwt beam="1">  1       -4 0.28901249E+00 0.11394689E+04</pdfrwt>
<totfact> 0.65797486E-02</totfact>
</mgrwt>
</event>
<event>
 8    1  0.3025584E-006  0.1231787E+04  0.7818608E-02  0.8587304E-01
         -4   -1    0    0    0  501 -0.00000000000E+00  0.00000000000E+00  0.87970702468E+03  0.87970702468E+03  0.00000000000E+00 0. -1.
          4   -1    0    0  502    0  0.00000000000E+00 -0.00000000000E+00 -0.17418955208E+04  0.17418955208E+04  0.00000000000E+00 0.  1.
   -9000010    2    1    2    0  501 -0.26876350530E+03 -0.62643439245E+03 -0.24728685176E+03  0.12448659244E+04  0.10118727751E+04 0.  0.
    9000010    2    1    2  502    0  0.26876350530E+03  0.62643439245E+03 -0.61490164432E+03  0.13767366210E+04  0.10259852931E+04 0.  0.
        -13    1    4    4    0    0  0.29527754869E+02  0.36677403878E+03 -0.86770062406E+03  0.94249640211E+03  0.10566000000E+00 0.  1.
          4    1    4    4  502    0  0.23923575043E+03  0.25966035367E+03  0.25279897974E+03  0.43424021890E+03  0.00000000000E+00 0.  1.
         13    1    3    3    0    0  0.31421503025E+03 -0.28365001848E+03 -0.36435733416E+03  0.55852009484E+03  0.10566000000E+00 0. -1.
         -4    1    3    3    0  501 -0.58297853555E+03 -0.34278437397E+03  0.11707048240E+03  0.68634582959E+03  0.00000000000E+00 0. -1.
<mgrwt>
<rscale>  0 0.12259083E+04</rscale>
<asrwt>0</asrwt>
<pdfrwt beam="2">  1        4 0.26798392E+00 0.12317872E+04</pdfrwt>
<pdfrwt beam="1">  1       -4 0.13533954E+00 0.12200575E+04</pdfrwt>
<totfact> 0.21362885E-01</totfact>
</mgrwt>
</event>
<event>
 8    1  0.3025584E-006  0.1146181E+04  0.7818608E-02  0.8659791E-01
          4   -1    0    0  502    0  0.00000000000E+00  0.00000000000E+00  0.86850748101E+03  0.86850748101E+03  0.00000000000E+00 0.  1.
         -4   -1    0    0    0  501 -0.00000000000E+00 -0.00000000000E+00 -0.20939439689E+04  0.20939439689E+04  0.00000000000E+00 0. -1.
   -9000010    2    1    2    0  501 -0.51627672042E+03  0.93528735601E+02 -0.14233981433E+04  0.18275101172E+04  0.10190395859E+04 0.  0.
    9000010    2    1    2  502    0  0.51627672042E+03 -0.93528735601E+02  0.19796165549E+03  0.11349413327E+04  0.98671867072E+03 0.  0.
        -13    1    4    4    0    0  0.47212271012E+03  0.36075394124E+03 -0.81530656022E+02  0.59974204336E+03  0.10566000000E+00 0.  1.
          4    1    4    4  502    0  0.44154010299E+02 -0.45428267684E+03  0.27949231151E+03  0.53519928932E+03  0.00000000000E+00 0.  1.
         13    1    3    3    0    0 -0.82034153584E+03  0.14325780955E+03 -0.95777454495E+03  0.12691789179E+04  0.10566000000E+00 0. -1.
         -4    1    3    3    0  501  0.30406481542E+03 -0.49729073952E+02 -0.46562359840E+03  0.55833119934E+03  0.00000000000E+00 0. -1.
<mgrwt>
<rscale>  0 0.11317716E+04</rscale>
<asrwt>0</asrwt>
<pdfrwt beam="1">  1        4 0.13361654E+00 0.11175433E+04</pdfrwt>
<pdfrwt beam="2">  1       -4 0.32214522E+00 0.11461810E+04</pdfrwt>
<totfact> 0.15696227E-01</totfact>
</mgrwt>
</event>
<event>
 8    1  0.3025584E-006  0.1086056E+04  0.7818608E-02  0.8718168E-01
          4   -1    0    0  502    0  0.00000000000E+00  0.00000000000E+00  0.38024963576E+03  0.38024963576E+03  0.00000000000E+00 0.  1.
         -4   -1    0    0    0  501 -0.00000000000E+00 -0.00000000000E+00 -0.30630201865E+04  0.30630201865E+04  0.00000000000E+00 0. -1.
   -9000010    2    1    2    0  501 -0.20924473111E+03 -0.21928989518E+03 -0.16139574213E+04  0.19194982869E+04  0.99385295690E+03 0.  0.
    9000010    2    1    2  502    0  0.20924473111E+03  0.21928989518E+03 -0.10688131294E+04  0.15237715353E+04  0.10429030495E+04 0.  0.
        -13    1    4    4    0    0  0.56024777531E+03 -0.64999963372E+02 -0.31776960481E+03  0.64736396091E+03  0.10566000000E+00 0.  1.
          4    1    4    4  502    0 -0.35100304420E+03  0.28428985855E+03 -0.75104352457E+03  0.87640757443E+03  0.00000000000E+00 0.  1.
         13    1    3    3    0    0  0.86723937848E+02  0.28307962699E+03 -0.11100436105E+04  0.11488480948E+04  0.10566000000E+00 0. -1.
         -4    1    3    3    0  501 -0.29596866896E+03 -0.50236952217E+03 -0.50391381084E+03  0.77065019209E+03  0.00000000000E+00 0. -1.
<mgrwt>
<rscale>  0 0.10622907E+04</rscale>
<asrwt>0</asrwt>
<pdfrwt beam="1">  1        4 0.58499946E-01 0.10860563E+04</pdfrwt>
<pdfrwt beam="2">  1       -4 0.47123386E+00 0.10390453E+04</pdfrwt>
<totfact> 0.20506145E-01</totfact>
</mgrwt>
</event>
<event>
 8    1  0.3025584E-006  0.1048854E+04  0.7818608E-02  0.8736594E-01
         -4   -1    0    0    0  501 -0.00000000000E+00  0.00000000000E+00  0.22179761679E+04  0.22179761679E+04  0.00000000000E+00 0. -1.
          4   -1    0    0  502    0  0.00000000000E+00 -0.00000000000E+00 -0.68508944743E+03  0.68508944743E+03  0.00000000000E+00 0.  1.
   -9000010    2    1    2    0  501  0.32911545157E+03 -0.64246163992E+02  0.15468086105E+04  0.18688795883E+04  0.99380555848E+03 0.  0.
    9000010    2    1    2  502    0 -0.32911545157E+03  0.64246163992E+02 -0.13921890047E+02  0.10341860270E+04  0.97821386688E+03 0.  0.
        -13    1    4    4    0    0 -0.60402187415E+03  0.26142819535E+03  0.12237874058E+03  0.66945029172E+03  0.10566000000E+00 0.  1.
          4    1    4    4  502    0  0.27490642258E+03 -0.19718203136E+03 -0.13630063063E+03  0.36473573526E+03  0.00000000000E+00 0.  1.
         13    1    3    3    0    0 -0.59505013590E+02  0.41324214310E+03  0.47129847218E+03  0.62962860205E+03  0.10566000000E+00 0. -1.
         -4    1    3    3    0  501  0.38862046516E+03 -0.47748830709E+03  0.10755101383E+04  0.12392509863E+04  0.00000000000E+00 0. -1.
<mgrwt>
<rscale>  0 0.10414468E+04</rscale>
<asrwt>0</asrwt>
<pdfrwt beam="2">  1        4 0.10539838E+00 0.10340923E+04</pdfrwt>
<pdfrwt beam="1">  1       -4 0.34122710E+00 0.10488537E+04</pdfrwt>
<totfact> 0.20840615E-01</totfact>
</mgrwt>
</event>
<event>
 8    1  0.3025584E-006  0.1616079E+04  0.7818608E-02  0.8346332E-01
         -4   -1    0    0    0  501 -0.00000000000E+00  0.00000000000E+00  0.24796948866E+04  0.24796948866E+04  0.00000000000E+00 0. -1.
          4   -1    0    0  502    0  0.00000000000E+00 -0.00000000000E+00 -0.14049447667E+04  0.14049447667E+04  0.00000000000E+00 0.  1.
   -9000010    2    1    2    0  501 -0.12068427111E+04 -0.31885215217E+03  0.15118025830E+04  0.22129753046E+04  0.10264388070E+04 0.  0.
    9000010    2    1    2  502    0  0.12068427111E+04  0.31885215217E+03 -0.43705246307E+03  0.16716643487E+04  0.10224044283E+04 0.  0.
        -13    1    4    4    0    0  0.18038373730E+03 -0.28198041280E+03 -0.34190510594E+03  0.47848757405E+03  0.10566000000E+00 0.  1.
          4    1    4    4  502    0  0.10264589738E+04  0.60083256498E+03 -0.95147357136E+02  0.11931767747E+04  0.00000000000E+00 0.  1.
         13    1    3    3    0    0 -0.13239756376E+03  0.39171955456E+02 -0.14877218766E+03  0.20296978093E+03  0.10566000000E+00 0. -1.
         -4    1    3    3    0  501 -0.10744451474E+04 -0.35802410763E+03  0.16605747706E+04  0.20100055237E+04  0.00000000000E+00 0. -1.
<mgrwt>
<rscale>  0 0.16147992E+04</rscale>
<asrwt>0</asrwt>
<pdfrwt beam="2">  1        4 0.21614535E+00 0.16135200E+04</pdfrwt>
<pdfrwt beam="1">  1       -4 0.38149152E+00 0.16160794E+04</pdfrwt>
<totfact> 0.48630098E-02</totfact>
</mgrwt>
</event>
<event>
 8    1  0.3025584E-006  0.1234450E+04  0.7818608E-02  0.8586841E-01
          4   -1    0    0  502    0  0.00000000000E+00  0.00000000000E+00  0.18664898797E+04  0.18664898797E+04  0.00000000000E+00 0.  1.
         -4   -1    0    0    0  501 -0.00000000000E+00 -0.00000000000E+00 -0.85661709696E+03  0.85661709696E+03  0.00000000000E+00 0. -1.
   -9000010    2    1    2    0  501  0.56348483096E+01 -0.70655182107E+03  0.17103888710E+03  0.12306230563E+04  0.99294087356E+03 0.  0.
    9000010    2    1    2  502    0 -0.56348483096E+01  0.70655182107E+03  0.83883389562E+03  0.14924839203E+04  0.10122345186E+04 0.  0.
        -13    1    4    4    0    0 -0.52774153265E+02  0.94474189691E+03  0.81443778452E+03  0.12484515525E+04  0.10566000000E+00 0.  1.
          4    1    4    4  502    0  0.47139304956E+02 -0.23819007584E+03  0.24396111097E+02  0.24403236780E+03  0.00000000000E+00 0.  1.
         13    1    3    3    0    0  0.33958551379E+03 -0.17763308274E+03  0.40980439384E+03  0.56108064094E+03  0.10566000000E+00 0. -1.
         -4    1    3    3    0  501 -0.33395066548E+03 -0.52891873832E+03 -0.23876550675E+03  0.66954241534E+03  0.00000000000E+00 0. -1.
<mgrwt>
<rscale>  0 0.12265390E+04</rscale>
<asrwt>0</asrwt>
<pdfrwt beam="1">  1        4 0.28715229E+00 0.12344497E+04</pdfrwt>
<pdfrwt beam="2">  1       -4 0.13178725E+00 0.12186791E+04</pdfrwt>
<totfact> 0.19919710E-01</totfact>
</mgrwt>
</event>
<event>
 8    1  0.3025584E-006  0.1625677E+04  0.7818608E-02  0.8342795E-01
         -4   -1    0    0    0  501 -0.00000000000E+00  0.00000000000E+00  0.18363053998E+04  0.18363053998E+04  0.00000000000E+00 0. -1.
          4   -1    0    0  502    0  0.00000000000E+00 -0.00000000000E+00 -0.14759312476E+04  0.14759312476E+04  0.00000000000E+00 0.  1.
   -9000010    2    1    2    0  501  0.12518100941E+04  0.23378442122E+03  0.46669122171E+03  0.16913384128E+04  0.10105153452E+04 0.  0.
    9000010    2    1    2  502    0 -0.12518100941E+04 -0.23378442122E+03 -0.10631706947E+03  0.16208982346E+04  0.99715801182E+03 0.  0.
        -13    1    4    4    0    0 -0.13526948620E+04 -0.40607795414E+03 -0.13674226890E+03  0.14189366278E+04  0.10566000000E+00 0.  1.
          4    1    4    4  502    0  0.10088476789E+03  0.17229353292E+03  0.30425199425E+02  0.20196160684E+03  0.00000000000E+00 0.  1.
         13    1    3    3    0    0  0.98624323720E+03  0.12372266985E+03 -0.15539064448E+03  0.10060463635E+04  0.10566000000E+00 0. -1.
         -4    1    3    3    0  501  0.26556685687E+03  0.11006175137E+03  0.62208186619E+03  0.68529204929E+03  0.00000000000E+00 0. -1.
<mgrwt>
<rscale>  0 0.16215370E+04</rscale>
<asrwt>0</asrwt>
<pdfrwt beam="2">  1        4 0.22706635E+00 0.16174077E+04</pdfrwt>
<pdfrwt beam="1">  1       -4 0.28250852E+00 0.16256768E+04</pdfrwt>
<totfact> 0.93366741E-02</totfact>
</mgrwt>
</event>
<event>
 8    1  0.3025584E-006  0.1404183E+04  0.7818608E-02  0.8513679E-01
         -4   -1    0    0    0  501 -0.00000000000E+00  0.00000000000E+00  0.15786457741E+04  0.15786457741E+04  0.00000000000E+00 0. -1.
          4   -1    0    0  502    0  0.00000000000E+00 -0.00000000000E+00 -0.19394136914E+04  0.19394136914E+04  0.00000000000E+00 0.  1.
   -9000010    2    1    2    0  501  0.43349557220E+03  0.69056376206E+03  0.96338420092E+03  0.15880055648E+04  0.96377167143E+03 0.  0.
    9000010    2    1    2  502    0 -0.43349557220E+03 -0.69056376206E+03 -0.13241521182E+04  0.19300539007E+04  0.11432114883E+04 0.  0.
        -13    1    4    4    0    0 -0.78405097985E+03 -0.21436044310E+03 -0.77344699719E+03  0.11220100745E+04  0.10566000000E+00 0.  1.
          4    1    4    4  502    0  0.35055540765E+03 -0.47620331896E+03 -0.55070512103E+03  0.80804382626E+03  0.00000000000E+00 0.  1.
         13    1    3    3    0    0  0.51187620650E+03  0.73163399513E+03  0.33542529662E+03  0.95384259413E+03  0.10566000000E+00 0. -1.
         -4    1    3    3    0  501 -0.78380634295E+02 -0.41070233063E+02  0.62795890430E+03  0.63416297066E+03  0.00000000000E+00 0. -1.
<mgrwt>
<rscale>  0 0.13314051E+04</rscale>
<asrwt>0</asrwt>
<pdfrwt beam="2">  1        4 0.29837134E+00 0.14041828E+04</pdfrwt>
<pdfrwt beam="1">  1       -4 0.24286858E+00 0.12623995E+04</pdfrwt>
<totfact> 0.78704409E-02</totfact>
</mgrwt>
</event>
<event>
 8    1  0.3025584E-006  0.1283645E+04  0.7818608E-02  0.8552063E-01
          4   -1    0    0  502    0  0.00000000000E+00  0.00000000000E+00  0.77454768573E+03  0.77454768573E+03  0.00000000000E+00 0.  1.
         -4   -1    0    0    0  501 -0.00000000000E+00 -0.00000000000E+00 -0.25138945631E+04  0.25138945631E+04  0.00000000000E+00 0. -1.
   -9000010    2    1    2    0  501 -0.10600552491E+02 -0.79462566334E+03 -0.15326065097E+04  0.19882551617E+04  0.98627255764E+03 0.  0.
    9000010    2    1    2  502    0  0.10600552491E+02  0.79462566334E+03 -0.20674036765E+03  0.13001870871E+04  0.10080687304E+04 0.  0.
        -13    1    4    4    0    0  0.90843560202E+02 -0.17177499036E+03  0.17162747820E+03  0.25925894812E+03  0.10566000000E+00 0.  1.
          4    1    4    4  502    0 -0.80243007712E+02  0.96640065370E+03 -0.37836784585E+03  0.10409281390E+04  0.00000000000E+00 0.  1.
         13    1    3    3    0    0  0.26420442875E+03 -0.50218491266E+03 -0.14780924782E+04  0.15832722608E+04  0.10566000000E+00 0. -1.
         -4    1    3    3    0  501 -0.27480498124E+03 -0.29244075068E+03 -0.54514031509E+02  0.40498290088E+03  0.00000000000E+00 0. -1.
<mgrwt>
<rscale>  0 0.12750942E+04</rscale>
<asrwt>0</asrwt>
<pdfrwt beam="1">  1        4 0.11916118E+00 0.12836452E+04</pdfrwt>
<pdfrwt beam="2">  1       -4 0.38675301E+00 0.12666001E+04</pdfrwt>
<totfact> 0.11352565E-01</totfact>
</mgrwt>
</event>
<event>
 8    1  0.3025584E-006  0.1681070E+04  0.7818608E-02  0.8319303E-01
          4   -1    0    0  502    0  0.00000000000E+00  0.00000000000E+00  0.25012743117E+04  0.25012743117E+04  0.00000000000E+00 0.  1.
         -4   -1    0    0    0  501 -0.00000000000E+00 -0.00000000000E+00 -0.21635584617E+04  0.21635584617E+04  0.00000000000E+00 0. -1.
   -9000010    2    1    2    0  501  0.49050196008E+03  0.12487629987E+04 -0.14584654429E+04  0.22046977674E+04  0.96621405376E+03 0.  0.
    9000010    2    1    2  502    0 -0.49050196008E+03 -0.12487629987E+04  0.17961812929E+04  0.24601350060E+04  0.10129145132E+04 0.  0.
        -13    1    4    4    0    0 -0.55134708088E+03 -0.14525260351E+03  0.70938099974E+03  0.91011171642E+03  0.10566000000E+00 0.  1.
          4    1    4    4  502    0  0.60845120798E+02 -0.11035103952E+04  0.10868002932E+04  0.15500232896E+04  0.00000000000E+00 0.  1.
         13    1    3    3    0    0  0.51092499216E+03  0.33190118123E+03 -0.10201707163E+04  0.11882554621E+04  0.10566000000E+00 0. -1.
         -4    1    3    3    0  501 -0.20423032082E+02  0.91686181749E+03 -0.43829472662E+03  0.10164423053E+04  0.00000000000E+00 0. -1.
<mgrwt>
<rscale>  0 0.16671532E+04</rscale>
<asrwt>0</asrwt>
<pdfrwt beam="1">  1        4 0.38481143E+00 0.16810702E+04</pdfrwt>
<pdfrwt beam="2">  1       -4 0.33285515E+00 0.16533514E+04</pdfrwt>
<totfact> 0.23144579E-02</totfact>
</mgrwt>
</event>
<event>
 8    1  0.3025584E-006  0.1116168E+04  0.7818608E-02  0.8684343E-01
          4   -1    0    0  502    0  0.00000000000E+00  0.00000000000E+00  0.12979118998E+04  0.12979118998E+04  0.00000000000E+00 0.  1.
         -4   -1    0    0    0  501 -0.00000000000E+00 -0.00000000000E+00 -0.14710325584E+04  0.14710325584E+04  0.00000000000E+00 0. -1.
   -9000010    2    1    2    0  501  0.37140299800E+03 -0.37070340211E+03 -0.92104766261E+03  0.14253578219E+04  0.95286668756E+03 0.  0.
    9000010    2    1    2  502    0 -0.37140299800E+03  0.37070340211E+03  0.74792700402E+03  0.13435866363E+04  0.98512387374E+03 0.  0.
        -13    1    4    4    0    0 -0.26706505057E+03  0.57248060283E+03  0.78378914113E+02  0.63655404106E+03  0.10566000000E+00 0.  1.
          4    1    4    4  502    0 -0.10433794743E+03 -0.20177720072E+03  0.66954808991E+03  0.70703259523E+03  0.00000000000E+00 0.  1.
         13    1    3    3    0    0  0.50902360538E+03  0.84938637464E+02 -0.18380345625E+03  0.54781687147E+03  0.10566000000E+00 0. -1.
         -4    1    3    3    0  501 -0.13762060738E+03 -0.45564203957E+03 -0.73724420636E+03  0.87754095039E+03  0.00000000000E+00 0. -1.
<mgrwt>
<rscale>  0 0.11018942E+04</rscale>
<asrwt>0</asrwt>
<pdfrwt beam="1">  1        4 0.19967875E+00 0.11161677E+04</pdfrwt>
<pdfrwt beam="2">  1       -4 0.22631270E+00 0.10878033E+04</pdfrwt>
<totfact> 0.15555476E-01</totfact>
</mgrwt>
</event>
<event>
 8    1  0.3025584E-006  0.1116379E+04  0.7818608E-02  0.8675218E-01
         -4   -1    0    0    0  501 -0.00000000000E+00  0.00000000000E+00  0.15126338885E+04  0.15126338885E+04  0.00000000000E+00 0. -1.
          4   -1    0    0  502    0  0.00000000000E+00 -0.00000000000E+00 -0.10662668909E+04  0.10662668909E+04  0.00000000000E+00 0.  1.
   -9000010    2    1    2    0  501 -0.49565758844E+03 -0.29506391778E+02  0.84493268846E+03  0.14000764078E+04  0.99987780630E+03 0.  0.
    9000010    2    1    2  502    0  0.49565758844E+03  0.29506391778E+02 -0.39856569084E+03  0.11788243716E+04  0.99208125532E+03 0.  0.
        -13    1    4    4    0    0 -0.15833338385E+03 -0.21258732829E+03  0.13808047350E+03  0.29887967632E+03  0.10566000000E+00 0.  1.
          4    1    4    4  502    0  0.65399097229E+03  0.24209372007E+03 -0.53664616434E+03  0.87994469533E+03  0.00000000000E+00 0.  1.
         13    1    3    3    0    0 -0.76592950489E+03  0.81261227994E+02  0.40017627795E+03  0.86798183059E+03  0.10566000000E+00 0. -1.
         -4    1    3    3    0  501  0.27027191645E+03 -0.11076761977E+03  0.44475641051E+03  0.53209457722E+03  0.00000000000E+00 0. -1.
<mgrwt>
<rscale>  0 0.11128851E+04</rscale>
<asrwt>0</asrwt>
<pdfrwt beam="2">  1        4 0.16404106E+00 0.11094018E+04</pdfrwt>
<pdfrwt beam="1">  1       -4 0.23271291E+00 0.11163793E+04</pdfrwt>
<totfact> 0.19556391E-01</totfact>
</mgrwt>
</event>
<event>
 8    1  0.3025584E-006  0.1439662E+04  0.7818608E-02  0.8446309E-01
          4   -1    0    0  502    0  0.00000000000E+00  0.00000000000E+00  0.17414320444E+04  0.17414320444E+04  0.00000000000E+00 0.  1.
         -4   -1    0    0    0  501 -0.00000000000E+00 -0.00000000000E+00 -0.20361541572E+04  0.20361541572E+04  0.00000000000E+00 0. -1.
   -9000010    2    1    2    0  501 -0.29280967997E+03  0.98807069511E+03 -0.13673297235E+04  0.19855015117E+04  0.10052882537E+04 0.  0.
    9000010    2    1    2  502    0  0.29280967997E+03 -0.98807069511E+03  0.10726076107E+04  0.17920846899E+04  0.99952951025E+03 0.  0.
        -13    1    4    4    0    0  0.30011214035E+03  0.55155902535E+02  0.13481123446E+02  0.30543611808E+03  0.10566000000E+00 0.  1.
          4    1    4    4  502    0 -0.73024603787E+01 -0.10432265976E+04  0.10591264873E+04  0.14866485718E+04  0.00000000000E+00 0.  1.
         13    1    3    3    0    0 -0.11739632663E+03  0.22360598375E+03  0.13821899913E+03  0.28789935109E+03  0.10566000000E+00 0. -1.
         -4    1    3    3    0  501 -0.17541335335E+03  0.76446471136E+03 -0.15055487227E+04  0.16976021606E+04  0.00000000000E+00 0. -1.
<mgrwt>
<rscale>  0 0.14376526E+04</rscale>
<asrwt>0</asrwt>
<pdfrwt beam="1">  1        4 0.26791262E+00 0.14356464E+04</pdfrwt>
<pdfrwt beam="2">  1       -4 0.31325448E+00 0.14396617E+04</pdfrwt>
<totfact> 0.61915871E-02</totfact>
</mgrwt>
</event>
<event>
 8    1  0.3025584E-006  0.1320800E+04  0.7818608E-02  0.8611777E-01
         -4   -1    0    0    0  501 -0.00000000000E+00  0.00000000000E+00  0.22423009341E+04  0.22423009341E+04  0.00000000000E+00 0. -1.
          4   -1    0    0  502    0  0.00000000000E+00 -0.00000000000E+00 -0.23906844219E+04  0.23906844219E+04  0.00000000000E+00 0.  1.
   -9000010    2    1    2    0  501 -0.42093552765E+03 -0.49945365979E+02  0.19025757128E+04  0.23160971275E+04  0.12509317739E+04 0.  0.
    9000010    2    1    2  502    0  0.42093552765E+03  0.49945365979E+02 -0.20509592006E+04  0.23168882285E+04  0.99088655396E+03 0.  0.
        -13    1    4    4    0    0  0.62091497526E+02 -0.17680445238E+03 -0.18276874821E+04  0.18372688186E+04  0.10566000000E+00 0.  1.
          4    1    4    4  502    0  0.35884403013E+03  0.22674981836E+03 -0.22327171855E+03  0.47961940994E+03  0.00000000000E+00 0.  1.
         13    1    3    3    0    0 -0.66743535047E+03 -0.32790065856E+03  0.58213593554E+03  0.94438924579E+03  0.10566000000E+00 0. -1.
         -4    1    3    3    0  501  0.24649982282E+03  0.27795529258E+03  0.13204397773E+04  0.13717078817E+04  0.00000000000E+00 0. -1.
<mgrwt>
<rscale>  0 0.11930998E+04</rscale>
<asrwt>0</asrwt>
<pdfrwt beam="2">  1        4 0.36779760E+00 0.10777465E+04</pdfrwt>
<pdfrwt beam="1">  1       -4 0.34496937E+00 0.13207996E+04</pdfrwt>
<totfact> 0.26146257E-02</totfact>
</mgrwt>
</event>
<event>
 8    1  0.3025584E-006  0.1472591E+04  0.7818608E-02  0.8426311E-01
         -4   -1    0    0    0  501 -0.00000000000E+00  0.00000000000E+00  0.19458021571E+04  0.19458021571E+04  0.00000000000E+00 0. -1.
          4   -1    0    0  502    0  0.00000000000E+00 -0.00000000000E+00 -0.11390561834E+04  0.11390561834E+04  0.00000000000E+00 0.  1.
   -9000010    2    1    2    0  501 -0.86653698190E+03  0.63514001164E+03  0.64037389110E+03  0.16058029781E+04  0.10070925026E+04 0.  0.
    9000010    2    1    2  502    0  0.86653698190E+03 -0.63514001164E+03  0.16637208254E+03  0.14790553624E+04  0.10028140005E+04 0.  0.
        -13    1    4    4    0    0 -0.11000126985E+01 -0.48764746171E+03 -0.19827877308E+03  0.52641783780E+03  0.10566000000E+00 0.  1.
          4    1    4    4  502    0  0.86763699460E+03 -0.14749254993E+03  0.36465085562E+03  0.95263752456E+03  0.00000000000E+00 0.  1.
         13    1    3    3    0    0  0.14635487443E+03  0.22047132460E+03  0.40897604790E+03  0.48712295487E+03  0.10566000000E+00 0. -1.
         -4    1    3    3    0  501 -0.10128918563E+04  0.41466868704E+03  0.23139784319E+03  0.11186800233E+04  0.00000000000E+00 0. -1.
<mgrwt>
<rscale>  0 0.14711290E+04</rscale>
<asrwt>0</asrwt>
<pdfrwt beam="2">  1        4 0.17523941E+00 0.14696684E+04</pdfrwt>
<pdfrwt beam="1">  1       -4 0.29935418E+00 0.14725911E+04</pdfrwt>
<totfact> 0.11986129E-01</totfact>
</mgrwt>
</event>
<event>
 8    1  0.3025584E-006  0.1786342E+04  0.7818608E-02  0.8262932E-01
          4   -1    0    0  502    0  0.00000000000E+00  0.00000000000E+00  0.18870812241E+04  0.18870812241E+04  0.00000000000E+00 0.  1.
         -4   -1    0    0    0  501 -0.00000000000E+00 -0.00000000000E+00 -0.25630361406E+04  0.25630361406E+04  0.00000000000E+00 0. -1.
   -9000010    2    1    2    0  501 -0.50283748260E+03 -0.13937558966E+04 -0.16408531494E+04  0.24255755454E+04  0.99780591059E+03 0.  0.
    9000010    2    1    2  502    0  0.50283748260E+03  0.13937558966E+04  0.96489823300E+03  0.20245418193E+04  0.98607299157E+03 0.  0.
        -13    1    4    4    0    0  0.40157964301E+03  0.40970946734E+03 -0.87343176600E+02  0.58030758997E+03  0.10566000000E+00 0.  1.
          4    1    4    4  502    0  0.10125783959E+03  0.98404642926E+03  0.10522414096E+04  0.14442342293E+04  0.00000000000E+00 0.  1.
         13    1    3    3    0    0  0.17065654154E+03 -0.98168330265E+03 -0.94025302868E+03  0.13700005587E+04  0.10566000000E+00 0. -1.
         -4    1    3    3    0  501 -0.67349402414E+03 -0.41207259395E+03 -0.70060012076E+03  0.10555749867E+04  0.00000000000E+00 0. -1.
<mgrwt>
<rscale>  0 0.17830754E+04</rscale>
<asrwt>0</asrwt>
<pdfrwt beam="1">  1        4 0.29032019E+00 0.17798149E+04</pdfrwt>
<pdfrwt beam="2">  1       -4 0.39431325E+00 0.17863420E+04</pdfrwt>
<totfact> 0.27786728E-02</totfact>
</mgrwt>
</event>
<event>
 8    1  0.3025584E-006  0.1122047E+04  0.7818608E-02  0.8676817E-01
          4   -1    0    0  502    0  0.00000000000E+00  0.00000000000E+00  0.16187792936E+04  0.16187792936E+04  0.00000000000E+00 0.  1.
         -4   -1    0    0    0  501 -0.00000000000E+00 -0.00000000000E+00 -0.14545047131E+04  0.14545047131E+04  0.00000000000E+00 0. -1.
   -9000010    2    1    2    0  501  0.11845609630E+03  0.43073853747E+03 -0.97731416703E+03  0.14879957513E+04  0.10292817108E+04 0.  0.
    9000010    2    1    2  502    0 -0.11845609630E+03 -0.43073853747E+03  0.11415887476E+04  0.15852882554E+04  0.10051599125E+04 0.  0.
        -13    1    4    4    0    0  0.11355308352E+03 -0.66670374789E+03  0.10373508067E+04  0.12383395728E+04  0.10566000000E+00 0.  1.
          4    1    4    4  502    0 -0.23200917983E+03  0.23596521042E+03  0.10423794090E+03  0.34694868263E+03  0.00000000000E+00 0.  1.
         13    1    3    3    0    0 -0.10384560667E+03  0.58297922452E+03 -0.14011299923E+03  0.60850665564E+03  0.10566000000E+00 0. -1.
         -4    1    3    3    0  501  0.22230170298E+03 -0.15224068705E+03 -0.83720116780E+03  0.87948909562E+03  0.00000000000E+00 0. -1.
<mgrwt>
<rscale>  0 0.11109488E+04</rscale>
<asrwt>0</asrwt>
<pdfrwt beam="1">  1        4 0.24904297E+00 0.10999609E+04</pdfrwt>
<pdfrwt beam="2">  1       -4 0.22376996E+00 0.11220465E+04</pdfrwt>
<totfact> 0.11849723E-01</totfact>
</mgrwt>
</event>
<event>
 8    1  0.3025584E-006  0.1624665E+04  0.7818608E-02  0.8341384E-01
          4   -1    0    0  502    0  0.00000000000E+00  0.00000000000E+00  0.15354984813E+04  0.15354984813E+04  0.00000000000E+00 0.  1.
         -4   -1    0    0    0  501 -0.00000000000E+00 -0.00000000000E+00 -0.23822973230E+04  0.23822973230E+04  0.00000000000E+00 0. -1.
   -9000010    2    1    2    0  501  0.21918026948E+03  0.12603785994E+04 -0.14578208522E+04  0.21828374415E+04  0.10014706458E+04 0.  0.
    9000010    2    1    2  502    0 -0.21918026948E+03 -0.12603785994E+04  0.61102201051E+03  0.17349583628E+04  0.10000692071E+04 0.  0.
        -13    1    4    4    0    0 -0.31639822010E+03 -0.13435705564E+04  0.72892317386E+03  0.15609672252E+04  0.10566000000E+00 0.  1.
          4    1    4    4  502    0  0.97217950619E+02  0.83191956991E+02 -0.11790116335E+03  0.17399113756E+03  0.00000000000E+00 0.  1.
         13    1    3    3    0    0 -0.26074065109E+03  0.10724665055E+04 -0.10760485726E+04  0.15414443338E+04  0.10566000000E+00 0. -1.
         -4    1    3    3    0  501  0.47992092058E+03  0.18791209386E+03 -0.38177227965E+03  0.64139310764E+03  0.00000000000E+00 0. -1.
<mgrwt>
<rscale>  0 0.16242336E+04</rscale>
<asrwt>0</asrwt>
<pdfrwt beam="1">  1        4 0.23623054E+00 0.16238019E+04</pdfrwt>
<pdfrwt beam="2">  1       -4 0.36650728E+00 0.16246654E+04</pdfrwt>
<totfact> 0.49112725E-02</totfact>
</mgrwt>
</event>
<event>
 8    1  0.3025584E-006  0.1075602E+04  0.7818608E-02  0.8708732E-01
         -4   -1    0    0    0  501 -0.00000000000E+00  0.00000000000E+00  0.27978592589E+04  0.27978592589E+04  0.00000000000E+00 0. -1.
          4   -1    0    0  502    0  0.00000000000E+00 -0.00000000000E+00 -0.15390894800E+04  0.15390894800E+04  0.00000000000E+00 0.  1.
   -9000010    2    1    2    0  501  0.11732785226E+03  0.34139790360E+03  0.24849796101E+04  0.27058416582E+04  0.10080362409E+04 0.  0.
    9000010    2    1    2  502    0 -0.11732785226E+03 -0.34139790360E+03 -0.12262098312E+04  0.16311070808E+04  0.10132134057E+04 0.  0.
        -13    1    4    4    0    0  0.21446725181E+03  0.28786799729E+03 -0.48920462581E+03  0.60678279725E+03  0.10566000000E+00 0.  1.
          4    1    4    4  502    0 -0.33179510406E+03 -0.62926590089E+03 -0.73700520541E+03  0.10243242836E+04  0.00000000000E+00 0.  1.
         13    1    3    3    0    0 -0.27930190282E+03  0.45420346628E+03  0.19970260723E+04  0.20669841524E+04  0.10566000000E+00 0. -1.
         -4    1    3    3    0  501  0.39662975508E+03 -0.11280556268E+03  0.48795353777E+03  0.63885750571E+03  0.00000000000E+00 0. -1.
<mgrwt>
<rscale>  0 0.10731615E+04</rscale>
<asrwt>0</asrwt>
<pdfrwt beam="2">  1        4 0.23678300E+00 0.10756020E+04</pdfrwt>
<pdfrwt beam="1">  1       -4 0.43043989E+00 0.10707266E+04</pdfrwt>
<totfact> 0.28835404E-02</totfact>
</mgrwt>
</event>
<event>
 8    1  0.3025584E-006  0.1482076E+04  0.7818608E-02  0.8429092E-01
         -4   -1    0    0    0  501 -0.00000000000E+00  0.00000000000E+00  0.24159280731E+04  0.24159280731E+04  0.00000000000E+00 0. -1.
          4   -1    0    0  502    0  0.00000000000E+00 -0.00000000000E+00 -0.15237333384E+04  0.15237333384E+04  0.00000000000E+00 0.  1.
   -9000010    2    1    2    0  501 -0.96328414500E+03  0.52036294324E+03  0.17190000292E+04  0.22696937110E+04  0.99892667624E+03 0.  0.
    9000010    2    1    2  502    0  0.96328414500E+03 -0.52036294324E+03 -0.82680529453E+03  0.16699677006E+04  0.95209830857E+03 0.  0.
        -13    1    4    4    0    0  0.56860486107E+02 -0.42952837961E+03  0.94353948970E+01  0.43337833542E+03  0.10566000000E+00 0.  1.
          4    1    4    4  502    0  0.90642365890E+03 -0.90834563630E+02 -0.83624068942E+03  0.12365893652E+04  0.00000000000E+00 0.  1.
         13    1    3    3    0    0 -0.64132960123E+03  0.66170177628E+03  0.60705428435E+03  0.11034798654E+04  0.10566000000E+00 0. -1.
         -4    1    3    3    0  501 -0.32195454377E+03 -0.14133883304E+03  0.11119457449E+04  0.11662138455E+04  0.00000000000E+00 0. -1.
<mgrwt>
<rscale>  0 0.14664180E+04</rscale>
<asrwt>0</asrwt>
<pdfrwt beam="2">  1        4 0.23442051E+00 0.14509256E+04</pdfrwt>
<pdfrwt beam="1">  1       -4 0.37168124E+00 0.14820757E+04</pdfrwt>
<totfact> 0.48056354E-02</totfact>
</mgrwt>
</event>
<event>
 8    1  0.3025584E-006  0.1040729E+04  0.7818608E-02  0.8747664E-01
          4   -1    0    0  502    0  0.00000000000E+00  0.00000000000E+00  0.78436134391E+03  0.78436134391E+03  0.00000000000E+00 0.  1.
         -4   -1    0    0    0  501 -0.00000000000E+00 -0.00000000000E+00 -0.41973824271E+04  0.41973824271E+04  0.00000000000E+00 0. -1.
   -9000010    2    1    2    0  501  0.91832560391E+02  0.24297538548E+03 -0.37517039012E+04  0.38872925778E+04  0.98401786878E+03 0.  0.
    9000010    2    1    2  502    0 -0.91832560391E+02 -0.24297538548E+03  0.33868281804E+03  0.10944511932E+04  0.10077931861E+04 0.  0.
        -13    1    4    4    0    0 -0.43130105065E+03  0.27924455895E+02 -0.13403509208E+03  0.45251053977E+03  0.10566000000E+00 0.  1.
          4    1    4    4  502    0  0.33946849026E+03 -0.27089984138E+03  0.47271791012E+03  0.64194065340E+03  0.00000000000E+00 0.  1.
         13    1    3    3    0    0  0.28073002583E+03  0.30670691732E+03 -0.36299701062E+04  0.36537051692E+04  0.10566000000E+00 0. -1.
         -4    1    3    3    0  501 -0.18889746544E+03 -0.63731531844E+02 -0.12173379500E+03  0.23358740858E+03  0.00000000000E+00 0. -1.
<mgrwt>
<rscale>  0 0.10291622E+04</rscale>
<asrwt>0</asrwt>
<pdfrwt beam="1">  1        4 0.12067098E+00 0.10407292E+04</pdfrwt>
<pdfrwt beam="2">  1       -4 0.64575114E+00 0.10177236E+04</pdfrwt>
<totfact> 0.63396112E-03</totfact>
</mgrwt>
</event>
<event>
 8    1  0.3025584E-006  0.1366331E+04  0.7818608E-02  0.8505361E-01
          4   -1    0    0  502    0  0.00000000000E+00  0.00000000000E+00  0.39773349824E+04  0.39773349824E+04  0.00000000000E+00 0.  1.
         -4   -1    0    0    0  501 -0.00000000000E+00 -0.00000000000E+00 -0.46606343183E+03  0.46606343183E+03  0.00000000000E+00 0. -1.
   -9000010    2    1    2    0  501  0.80744161184E+03  0.30555966860E+03  0.13742365002E+04  0.19069086805E+04  0.10012222979E+04 0.  0.
    9000010    2    1    2  502    0 -0.80744161184E+03 -0.30555966860E+03  0.21370350503E+04  0.25364897337E+04  0.10590244072E+04 0.  0.
        -13    1    4    4    0    0 -0.45347394648E+03  0.30182013206E+03  0.14688497372E+04  0.15666057494E+04  0.10566000000E+00 0.  1.
          4    1    4    4  502    0 -0.35396766536E+03 -0.60737980066E+03  0.66818531311E+03  0.96988398431E+03  0.00000000000E+00 0.  1.
         13    1    3    3    0    0  0.21092698974E+03 -0.36619104456E+03  0.47572027388E+03  0.63631428262E+03  0.10566000000E+00 0. -1.
         -4    1    3    3    0  501  0.59651462211E+03  0.67175071316E+03  0.89851622636E+03  0.12705943979E+04  0.00000000000E+00 0. -1.
<mgrwt>
<rscale>  0 0.13440004E+04</rscale>
<asrwt>0</asrwt>
<pdfrwt beam="1">  1        4 0.61189767E+00 0.13663314E+04</pdfrwt>
<pdfrwt beam="2">  1       -4 0.71702069E-01 0.13220343E+04</pdfrwt>
<totfact> 0.25485246E-02</totfact>
</mgrwt>
</event>
<event>
 8    1  0.3025584E-006  0.1237406E+04  0.7818608E-02  0.8581207E-01
          4   -1    0    0  502    0  0.00000000000E+00  0.00000000000E+00  0.27077513061E+04  0.27077513061E+04  0.00000000000E+00 0.  1.
         -4   -1    0    0    0  501 -0.00000000000E+00 -0.00000000000E+00 -0.15861664844E+04  0.15861664844E+04  0.00000000000E+00 0. -1.
   -9000010    2    1    2    0  501  0.52769459395E+03  0.43535702350E+03 -0.11633711150E+04  0.16984125626E+04  0.10311040487E+04 0.  0.
    9000010    2    1    2  502    0 -0.52769459395E+03 -0.43535702350E+03  0.22849559367E+04  0.25955052279E+04  0.10235362393E+04 0.  0.
        -13    1    4    4    0    0  0.24205838583E+03 -0.15608268368E+02  0.10704969321E+04  0.10976336242E+04  0.10566000000E+00 0.  1.
          4    1    4    4  502    0 -0.76975297978E+03 -0.41974875513E+03  0.12144590045E+04  0.14978716036E+04  0.00000000000E+00 0.  1.
         13    1    3    3    0    0  0.20550477872E+03  0.84343585821E+02  0.17176885642E+03  0.28080350024E+03  0.10566000000E+00 0. -1.
         -4    1    3    3    0  501  0.32218981522E+03  0.35101343768E+03 -0.13351399714E+04  0.14176090624E+04  0.00000000000E+00 0. -1.
<mgrwt>
<rscale>  0 0.12342522E+04</rscale>
<asrwt>0</asrwt>
<pdfrwt beam="1">  1        4 0.41657712E+00 0.12311067E+04</pdfrwt>
<pdfrwt beam="2">  1       -4 0.24402561E+00 0.12374057E+04</pdfrwt>
<totfact> 0.31109167E-02</totfact>
</mgrwt>
</event>
<event>
 8    1  0.3025584E-006  0.1366148E+04  0.7818608E-02  0.8492039E-01
          4   -1    0    0  502    0  0.00000000000E+00  0.00000000000E+00  0.13739492291E+04  0.13739492291E+04  0.00000000000E+00 0.  1.
         -4   -1    0    0    0  501 -0.00000000000E+00 -0.00000000000E+00 -0.17567088002E+04  0.17567088002E+04  0.00000000000E+00 0. -1.
   -9000010    2    1    2    0  501 -0.36975002787E+03 -0.85168732603E+03 -0.94003547156E+03  0.16583206580E+04  0.10021348873E+04 0.  0.
    9000010    2    1    2  502    0  0.36975002787E+03  0.85168732603E+03  0.55727590042E+03  0.14723373713E+04  0.99756429439E+03 0.  0.
        -13    1    4    4    0    0 -0.19311182280E+03  0.69129275580E+03  0.51914601922E+03  0.88582755137E+03  0.10566000000E+00 0.  1.
          4    1    4    4  502    0  0.56286185066E+03  0.16039457023E+03  0.38129881204E+02  0.58650981998E+03  0.00000000000E+00 0.  1.
         13    1    3    3    0    0 -0.53158550269E+03 -0.75700208930E+03 -0.10817341199E+04  0.14233003995E+04  0.10566000000E+00 0. -1.
         -4    1    3    3    0  501  0.16183547483E+03 -0.94685236738E+02  0.14169864831E+03  0.23502025849E+03  0.00000000000E+00 0. -1.
<mgrwt>
<rscale>  0 0.13644725E+04</rscale>
<asrwt>0</asrwt>
<pdfrwt beam="1">  1        4 0.21137680E+00 0.13627989E+04</pdfrwt>
<pdfrwt beam="2">  1       -4 0.27026289E+00 0.13661481E+04</pdfrwt>
<totfact> 0.11183311E-01</totfact>
</mgrwt>
</event>
<event>
 8    1  0.3025584E-006  0.1255736E+04  0.7818608E-02  0.8573503E-01
         -4   -1    0    0    0  501 -0.00000000000E+00  0.00000000000E+00  0.92239729638E+03  0.92239729638E+03  0.00000000000E+00 0. -1.
          4   -1    0    0  502    0  0.00000000000E+00 -0.00000000000E+00 -0.24070227200E+04  0.24070227200E+04  0.00000000000E+00 0.  1.
   -9000010    2    1    2    0  501 -0.42158983104E+03 -0.63290275007E+03  0.17688769993E+03  0.12467539329E+04  0.97200937965E+03 0.  0.
    9000010    2    1    2  502    0  0.42158983104E+03  0.63290275007E+03 -0.16615131235E+04  0.20826660835E+04  0.99928388303E+03 0.  0.
        -13    1    4    4    0    0  0.33243628180E+03  0.82324577898E+03 -0.79739018452E+03  0.11933476491E+04  0.10566000000E+00 0.  1.
          4    1    4    4  502    0  0.89153549239E+02 -0.19034302891E+03 -0.86412293901E+03  0.88931843437E+03  0.00000000000E+00 0.  1.
         13    1    3    3    0    0 -0.61847946489E+02  0.23976034229E+03 -0.93836501490E+02  0.26479329749E+03  0.10566000000E+00 0. -1.
         -4    1    3    3    0  501 -0.35974188455E+03 -0.87266309236E+03  0.27072420142E+03  0.98196063541E+03  0.00000000000E+00 0. -1.
<mgrwt>
<rscale>  0 0.12448920E+04</rscale>
<asrwt>0</asrwt>
<pdfrwt beam="2">  1        4 0.37031119E+00 0.12557357E+04</pdfrwt>
<pdfrwt beam="1">  1       -4 0.14190728E+00 0.12341419E+04</pdfrwt>
<totfact> 0.98902036E-02</totfact>
</mgrwt>
</event>
<event>
 8    1  0.3025584E-006  0.1545502E+04  0.7818608E-02  0.8386078E-01
          4   -1    0    0  502    0  0.00000000000E+00  0.00000000000E+00  0.22794496028E+04  0.22794496028E+04  0.00000000000E+00 0.  1.
         -4   -1    0    0    0  501 -0.00000000000E+00 -0.00000000000E+00 -0.17558733121E+04  0.17558733121E+04  0.00000000000E+00 0. -1.
   -9000010    2    1    2    0  501 -0.88574999036E+03  0.76890675026E+03 -0.10248682658E+04  0.18475715828E+04  0.99367759119E+03 0.  0.
    9000010    2    1    2  502    0  0.88574999036E+03 -0.76890675026E+03  0.15484445564E+04  0.21877513321E+04  0.10063819904E+04 0.  0.
        -13    1    4    4    0    0  0.61831593413E+03 -0.53718644658E+03  0.16303535893E+04  0.18245373962E+04  0.10566000000E+00 0.  1.
          4    1    4    4  502    0  0.26743405622E+03 -0.23172030368E+03 -0.81909032855E+02  0.36321393590E+03  0.00000000000E+00 0.  1.
         13    1    3    3    0    0 -0.54624733018E+03  0.18414445730E+03  0.49027872628E+02  0.57853182311E+03  0.10566000000E+00 0. -1.
         -4    1    3    3    0  501 -0.33950266017E+03  0.58476229296E+03 -0.10738961384E+04  0.12690397596E+04  0.00000000000E+00 0. -1.
<mgrwt>
<rscale>  0 0.15413749E+04</rscale>
<asrwt>0</asrwt>
<pdfrwt beam="1">  1        4 0.35068455E+00 0.15455016E+04</pdfrwt>
<pdfrwt beam="2">  1       -4 0.27013436E+00 0.15372592E+04</pdfrwt>
<totfact> 0.46738567E-02</totfact>
</mgrwt>
</event>
<event>
 8    1  0.3025584E-006  0.1507799E+04  0.7818608E-02  0.8417587E-01
         -4   -1    0    0    0  501 -0.00000000000E+00  0.00000000000E+00  0.11733228415E+04  0.11733228415E+04  0.00000000000E+00 0. -1.
          4   -1    0    0  502    0  0.00000000000E+00 -0.00000000000E+00 -0.19497304890E+04  0.19497304890E+04  0.00000000000E+00 0.  1.
   -9000010    2    1    2    0  501  0.45186817808E+01  0.10793871176E+04 -0.67276132975E+03  0.16116963394E+04  0.98987893972E+03 0.  0.
    9000010    2    1    2  502    0 -0.45186817808E+01 -0.10793871176E+04 -0.10364631775E+03  0.15113569911E+04  0.10527869809E+04 0.  0.
        -13    1    4    4    0    0 -0.22514424157E+03  0.97108334092E+02 -0.19152820443E+03  0.31113184074E+03  0.10566000000E+00 0.  1.
          4    1    4    4  502    0  0.22062555979E+03 -0.11764954517E+04  0.87881886679E+02  0.12002251504E+04  0.00000000000E+00 0.  1.
         13    1    3    3    0    0  0.21383522331E+02  0.72384833886E+03 -0.92550726916E+03  0.11751499433E+04  0.10566000000E+00 0. -1.
         -4    1    3    3    0  501 -0.16864840550E+02  0.35553877878E+03  0.25274593941E+03  0.43654639611E+03  0.00000000000E+00 0. -1.
<mgrwt>
<rscale>  0 0.14860259E+04</rscale>
<asrwt>0</asrwt>
<pdfrwt beam="2">  1        4 0.29995854E+00 0.15077989E+04</pdfrwt>
<pdfrwt beam="1">  1       -4 0.18051121E+00 0.14645673E+04</pdfrwt>
<totfact> 0.11432626E-01</totfact>
</mgrwt>
</event>
<event>
 8    1  0.3025584E-006  0.1048347E+04  0.7818608E-02  0.8749409E-01
          4   -1    0    0  502    0  0.00000000000E+00  0.00000000000E+00  0.72823411303E+03  0.72823411303E+03  0.00000000000E+00 0.  1.
         -4   -1    0    0    0  501 -0.00000000000E+00 -0.00000000000E+00 -0.24436775612E+04  0.24436775612E+04  0.00000000000E+00 0. -1.
   -9000010    2    1    2    0  501 -0.20548676998E+03  0.24787455639E+03 -0.18587731903E+04  0.21138117399E+04  0.95367483461E+03 0.  0.
    9000010    2    1    2  502    0  0.20548676998E+03 -0.24787455639E+03  0.14332974218E+03  0.10580999343E+04  0.99768003273E+03 0.  0.
        -13    1    4    4    0    0 -0.37454241787E+03 -0.21999943504E+02  0.21353146362E+03  0.43169632547E+03  0.10566000000E+00 0.  1.
          4    1    4    4  502    0  0.58002918785E+03 -0.22587461288E+03 -0.70201721440E+02  0.62640360887E+03  0.00000000000E+00 0.  1.
         13    1    3    3    0    0 -0.46974873903E+03 -0.10754368837E+03 -0.13794207119E+04  0.14611745393E+04  0.10566000000E+00 0. -1.
         -4    1    3    3    0  501  0.26426196905E+03  0.35541824476E+03 -0.47935247845E+03  0.65263720059E+03  0.00000000000E+00 0. -1.
<mgrwt>
<rscale>  0 0.10272410E+04</rscale>
<asrwt>0</asrwt>
<pdfrwt beam="1">  1        4 0.11203602E+00 0.10483473E+04</pdfrwt>
<pdfrwt beam="2">  1       -4 0.37595039E+00 0.10065596E+04</pdfrwt>
<totfact> 0.14157349E-01</totfact>
</mgrwt>
</event>
<event>
 8    1  0.3025584E-006  0.1113360E+04  0.7818608E-02  0.8678605E-01
         -4   -1    0    0    0  501 -0.00000000000E+00  0.00000000000E+00  0.40535743170E+03  0.40535743170E+03  0.00000000000E+00 0. -1.
          4   -1    0    0  502    0  0.00000000000E+00 -0.00000000000E+00 -0.31624159595E+04  0.31624159595E+04  0.00000000000E+00 0.  1.
   -9000010    2    1    2    0  501 -0.53676406384E+03  0.74221170947E+02 -0.10230486870E+04  0.15120181588E+04  0.97259747793E+03 0.  0.
    9000010    2    1    2  502    0  0.53676406384E+03 -0.74221170947E+02 -0.17340098408E+04  0.20557552324E+04  0.96214084478E+03 0.  0.
        -13    1    4    4    0    0  0.80733833457E+03  0.41994670229E+02 -0.13147010768E+04  0.15433721752E+04  0.10566000000E+00 0.  1.
          4    1    4    4  502    0 -0.27057427073E+03 -0.11621584118E+03 -0.41930876402E+03  0.51238305720E+03  0.00000000000E+00 0.  1.
         13    1    3    3    0    0 -0.17371536325E+03  0.29641550510E+03 -0.10305442628E+04  0.10863059734E+04  0.10566000000E+00 0. -1.
         -4    1    3    3    0  501 -0.36304870059E+03 -0.22219433415E+03  0.74955757850E+01  0.42571218538E+03  0.00000000000E+00 0. -1.
<mgrwt>
<rscale>  0 0.11087891E+04</rscale>
<asrwt>0</asrwt>
<pdfrwt beam="2">  1        4 0.48652551E+00 0.11042370E+04</pdfrwt>
<pdfrwt beam="1">  1       -4 0.62362685E-01 0.11133599E+04</pdfrwt>
<totfact> 0.15110857E-01</totfact>
</mgrwt>
</event>
<event>
 8    1  0.3025584E-006  0.1101912E+04  0.7818608E-02  0.8686275E-01
         -4   -1    0    0    0  501 -0.00000000000E+00  0.00000000000E+00  0.84687920446E+03  0.84687920446E+03  0.00000000000E+00 0. -1.
          4   -1    0    0  502    0  0.00000000000E+00 -0.00000000000E+00 -0.17958904371E+04  0.17958904371E+04  0.00000000000E+00 0.  1.
   -9000010    2    1    2    0  501 -0.73803242499E+02  0.46146525846E+03  0.12460070793E+03  0.11043118669E+04  0.99276495682E+03 0.  0.
    9000010    2    1    2  502    0  0.73803242499E+02 -0.46146525846E+03 -0.10736119406E+04  0.15384577748E+04  0.99790411479E+03 0.  0.
        -13    1    4    4    0    0  0.13132320323E+02 -0.74529921625E+03 -0.50597024987E+03  0.90091580323E+03  0.10566000000E+00 0.  1.
          4    1    4    4  502    0  0.60670922177E+02  0.28383395780E+03 -0.56764169073E+03  0.63754197152E+03  0.00000000000E+00 0.  1.
         13    1    3    3    0    0  0.41837134923E+03  0.10605542929E+03 -0.12282725968E+03  0.44874144763E+03  0.10566000000E+00 0. -1.
         -4    1    3    3    0  501 -0.49217459172E+03  0.35540982916E+03  0.24742796761E+03  0.65557041922E+03  0.00000000000E+00 0. -1.
<mgrwt>
<rscale>  0 0.10995834E+04</rscale>
<asrwt>0</asrwt>
<pdfrwt beam="2">  1        4 0.27629084E+00 0.11019119E+04</pdfrwt>
<pdfrwt beam="1">  1       -4 0.13028911E+00 0.10972599E+04</pdfrwt>
<totfact> 0.21772529E-01</totfact>
</mgrwt>
</event>
<event>
 8    1  0.3025584E-006  0.1037688E+04  0.7818608E-02  0.8742944E-01
         -4   -1    0    0    0  501 -0.00000000000E+00  0.00000000000E+00  0.14971342782E+04  0.14971342782E+04  0.00000000000E+00 0. -1.
          4   -1    0    0  502    0  0.00000000000E+00 -0.00000000000E+00 -0.16111210111E+04  0.16111210111E+04  0.00000000000E+00 0.  1.
   -9000010    2    1    2    0  501  0.58430968034E+02  0.22438939968E+03  0.11023617454E+04  0.15094119534E+04  0.10046682272E+04 0.  0.
    9000010    2    1    2  502    0 -0.58430968034E+02 -0.22438939968E+03 -0.12163484783E+04  0.15988433359E+04  0.10114502516E+04 0.  0.
        -13    1    4    4    0    0 -0.55813355915E+02  0.38207720729E+03 -0.25688584945E+03  0.46377631876E+03  0.10566000000E+00 0.  1.
          4    1    4    4  502    0 -0.26176121194E+01 -0.60646660697E+03 -0.95946262886E+03  0.11350670172E+04  0.00000000000E+00 0.  1.
         13    1    3    3    0    0 -0.19353114784E+03 -0.82169860330E+02 -0.10749738334E+03  0.23613955560E+03  0.10566000000E+00 0. -1.
         -4    1    3    3    0  501  0.25196211587E+03  0.30655926001E+03  0.12098591287E+04  0.12732723978E+04  0.00000000000E+00 0. -1.
<mgrwt>
<rscale>  0 0.10343780E+04</rscale>
<asrwt>0</asrwt>
<pdfrwt beam="2">  1        4 0.24786477E+00 0.10376880E+04</pdfrwt>
<pdfrwt beam="1">  1       -4 0.23032835E+00 0.10310786E+04</pdfrwt>
<totfact> 0.11536455E-01</totfact>
</mgrwt>
</event>
<event>
 8    1  0.3025584E-006  0.1336289E+04  0.7818608E-02  0.8512578E-01
         -4   -1    0    0    0  501 -0.00000000000E+00  0.00000000000E+00  0.24826510841E+04  0.24826510841E+04  0.00000000000E+00 0. -1.
          4   -1    0    0  502    0  0.00000000000E+00 -0.00000000000E+00 -0.13516654368E+04  0.13516654368E+04  0.00000000000E+00 0.  1.
   -9000010    2    1    2    0  501  0.87476672337E+03 -0.32935842903E+02  0.18797125123E+04  0.23025655786E+04  0.10010931648E+04 0.  0.
    9000010    2    1    2  502    0 -0.87476672337E+03  0.32935842903E+02 -0.74872686505E+03  0.15317509424E+04  0.10096372819E+04 0.  0.
        -13    1    4    4    0    0 -0.39844213367E+03  0.20205934491E+03  0.17417291359E+03  0.47950008107E+03  0.10566000000E+00 0.  1.
          4    1    4    4  502    0 -0.47632458970E+03 -0.16912350201E+03 -0.92289977864E+03  0.10522508613E+04  0.00000000000E+00 0.  1.
         13    1    3    3    0    0  0.10788280330E+04 -0.73680872984E+02  0.13258294752E+04  0.17108835741E+04  0.10566000000E+00 0. -1.
         -4    1    3    3    0  501 -0.20406130961E+03  0.40745030080E+02  0.55388303716E+03  0.59168200447E+03  0.00000000000E+00 0. -1.
<mgrwt>
<rscale>  0 0.13330635E+04</rscale>
<asrwt>0</asrwt>
<pdfrwt beam="2">  1        4 0.20794853E+00 0.13362893E+04</pdfrwt>
<pdfrwt beam="1">  1       -4 0.38194632E+00 0.13298455E+04</pdfrwt>
<totfact> 0.52114690E-02</totfact>
</mgrwt>
</event>
<event>
 8    1  0.3025584E-006  0.1502980E+04  0.7818608E-02  0.8410805E-01
          4   -1    0    0  502    0  0.00000000000E+00  0.00000000000E+00  0.33306850612E+04  0.33306850612E+04  0.00000000000E+00 0.  1.
         -4   -1    0    0    0  501 -0.00000000000E+00 -0.00000000000E+00 -0.69697447513E+03  0.69697447513E+03  0.00000000000E+00 0. -1.
   -9000010    2    1    2    0  501  0.99877307290E+03  0.47788250651E+03  0.94285271679E+03  0.17653707552E+04  0.10008213210E+04 0.  0.
    9000010    2    1    2  502    0 -0.99877307290E+03 -0.47788250651E+03  0.16908578693E+04  0.22622887812E+04  0.10163812543E+04 0.  0.
        -13    1    4    4    0    0 -0.92642871684E+03  0.86148350974E+02  0.11274731588E+04  0.14618096458E+04  0.10566000000E+00 0.  1.
          4    1    4    4  502    0 -0.72344356057E+02 -0.56403085749E+03  0.56338471052E+03  0.80047913533E+03  0.00000000000E+00 0.  1.
         13    1    3    3    0    0  0.92156791319E+02  0.49590924884E+03  0.62797026378E+03  0.80545981937E+03  0.10566000000E+00 0. -1.
         -4    1    3    3    0  501  0.90661628158E+03 -0.18026742327E+02  0.31488245301E+03  0.95991093580E+03  0.00000000000E+00 0. -1.
<mgrwt>
<rscale>  0 0.14977321E+04</rscale>
<asrwt>0</asrwt>
<pdfrwt beam="1">  1        4 0.51241308E+00 0.15029804E+04</pdfrwt>
<pdfrwt beam="2">  1       -4 0.10722684E+00 0.14925021E+04</pdfrwt>
<totfact> 0.36878456E-02</totfact>
</mgrwt>
</event>
<event>
 8    1  0.3025584E-006  0.1064755E+04  0.7818608E-02  0.8720704E-01
         -4   -1    0    0    0  501 -0.00000000000E+00  0.00000000000E+00  0.18467059732E+04  0.18467059732E+04  0.00000000000E+00 0. -1.
          4   -1    0    0  502    0  0.00000000000E+00 -0.00000000000E+00 -0.10456419692E+04  0.10456419692E+04  0.00000000000E+00 0.  1.
   -9000010    2    1    2    0  501  0.37410893309E+02  0.32822844409E+03  0.13375624213E+04  0.17096132009E+04  0.10122107386E+04 0.  0.
    9000010    2    1    2  502    0 -0.37410893309E+02 -0.32822844409E+03 -0.53649841721E+03  0.11827347415E+04  0.10009482657E+04 0.  0.
        -13    1    4    4    0    0  0.37891082833E+03 -0.47281986794E+03 -0.24079487027E+03  0.65200784049E+03  0.10566000000E+00 0.  1.
          4    1    4    4  502    0 -0.41632172164E+03  0.14459142385E+03 -0.29570354694E+03  0.53072690099E+03  0.00000000000E+00 0.  1.
         13    1    3    3    0    0 -0.73122889222E+02  0.45027323196E+03  0.10761632797E+03  0.46869417060E+03  0.10566000000E+00 0. -1.
         -4    1    3    3    0  501  0.11053378253E+03 -0.12204478787E+03  0.12299460933E+04  0.12409190303E+04  0.00000000000E+00 0. -1.
<mgrwt>
<rscale>  0 0.10593914E+04</rscale>
<asrwt>0</asrwt>
<pdfrwt beam="2">  1        4 0.16086800E+00 0.10540545E+04</pdfrwt>
<pdfrwt beam="1">  1       -4 0.28410861E+00 0.10647554E+04</pdfrwt>
<totfact> 0.15188498E-01</totfact>
</mgrwt>
</event>
<event>
 8    1  0.3025584E-006  0.1029347E+04  0.7818608E-02  0.8762105E-01
          4   -1    0    0  502    0  0.00000000000E+00  0.00000000000E+00  0.11536919859E+04  0.11536919859E+04  0.00000000000E+00 0.  1.
         -4   -1    0    0    0  501 -0.00000000000E+00 -0.00000000000E+00 -0.25248442527E+04  0.25248442527E+04  0.00000000000E+00 0. -1.
   -9000010    2    1    2    0  501  0.64536142029E+02 -0.16018274559E+03 -0.21615800220E+04  0.23807186062E+04  0.98263394249E+03 0.  0.
    9000010    2    1    2  502    0 -0.64536142029E+02  0.16018274559E+03  0.79042775520E+03  0.12978176323E+04  0.10147566925E+04 0.  0.
        -13    1    4    4    0    0 -0.20746241727E+03 -0.34733599601E+03  0.62628644733E+03  0.74559886935E+03  0.10566000000E+00 0.  1.
          4    1    4    4  502    0  0.14292627524E+03  0.50751874160E+03  0.16414130787E+03  0.55221876297E+03  0.00000000000E+00 0.  1.
         13    1    3    3    0    0 -0.35382191996E+02 -0.53262177861E+03 -0.16858194455E+04  0.17683113618E+04  0.10566000000E+00 0. -1.
         -4    1    3    3    0  501  0.99918334026E+02  0.37243903302E+03 -0.47576057655E+03  0.61240724440E+03  0.00000000000E+00 0. -1.
<mgrwt>
<rscale>  0 0.10133967E+04</rscale>
<asrwt>0</asrwt>
<pdfrwt beam="1">  1        4 0.17749108E+00 0.10293467E+04</pdfrwt>
<pdfrwt beam="2">  1       -4 0.38843757E+00 0.99769379E+03</pdfrwt>
<totfact> 0.62809219E-02</totfact>
</mgrwt>
</event>
<event>
 8    1  0.3025584E-006  0.1039706E+04  0.7818608E-02  0.8741687E-01
          4   -1    0    0  502    0  0.00000000000E+00  0.00000000000E+00  0.77855480291E+03  0.77855480291E+03  0.00000000000E+00 0.  1.
         -4   -1    0    0    0  501 -0.00000000000E+00 -0.00000000000E+00 -0.19307615034E+04  0.19307615034E+04  0.00000000000E+00 0. -1.
   -9000010    2    1    2    0  501  0.29092856328E+03  0.81590361251E+02 -0.13024896326E+04  0.16665737368E+04  0.99483283079E+03 0.  0.
    9000010    2    1    2  502    0 -0.29092856328E+03 -0.81590361251E+02  0.15028293209E+03  0.10427425695E+04  0.98662591221E+03 0.  0.
        -13    1    4    4    0    0 -0.72838247430E+02  0.12440248130E+03  0.53545874478E+03  0.55452454064E+03  0.10566000000E+00 0.  1.
          4    1    4    4  502    0 -0.21809031585E+03 -0.20599284255E+03 -0.38517581269E+03  0.48821802889E+03  0.00000000000E+00 0.  1.
         13    1    3    3    0    0 -0.14302385971E+03 -0.22989626731E+03 -0.13279163339E+02  0.27108018281E+03  0.10566000000E+00 0. -1.
         -4    1    3    3    0  501  0.43395242300E+03  0.31148662856E+03 -0.12892104693E+04  0.13954935540E+04  0.00000000000E+00 0. -1.
<mgrwt>
<rscale>  0 0.10357737E+04</rscale>
<asrwt>0</asrwt>
<pdfrwt beam="1">  1        4 0.11977766E+00 0.10318561E+04</pdfrwt>
<pdfrwt beam="2">  1       -4 0.29704023E+00 0.10397061E+04</pdfrwt>
<totfact> 0.22126783E-01</totfact>
</mgrwt>
</event>
<event>
 8    1  0.3025584E-006  0.1063729E+04  0.7818608E-02  0.8718715E-01
         -4   -1    0    0    0  501 -0.00000000000E+00  0.00000000000E+00  0.19217107133E+04  0.19217107133E+04  0.00000000000E+00 0. -1.
          4   -1    0    0  502    0  0.00000000000E+00 -0.00000000000E+00 -0.22236348001E+04  0.22236348001E+04  0.00000000000E+00 0.  1.
   -9000010    2    1    2    0  501  0.32659128757E+03  0.95004300902E+02  0.16275479776E+04  0.19420793262E+04  0.10035297720E+04 0.  0.
    9000010    2    1    2  502    0 -0.32659128757E+03 -0.95004300902E+02 -0.19294720644E+04  0.22032661873E+04  0.10078847943E+04 0.  0.
        -13    1    4    4    0    0 -0.42799491817E+03  0.32327620672E+03 -0.15093319591E+04  0.16018021506E+04  0.10566000000E+00 0.  1.
          4    1    4    4  502    0  0.10140363060E+03 -0.41828050762E+03 -0.42014010527E+03  0.60146403667E+03  0.00000000000E+00 0.  1.
         13    1    3    3    0    0 -0.23666701262E+03  0.32293829081E+03  0.95589966708E+03  0.10363612301E+04  0.10566000000E+00 0. -1.
         -4    1    3    3    0  501  0.56325830019E+03 -0.22793398991E+03  0.67164831055E+03  0.90571809607E+03  0.00000000000E+00 0. -1.
<mgrwt>
<rscale>  0 0.10616643E+04</rscale>
<asrwt>0</asrwt>
<pdfrwt beam="2">  1        4 0.34209766E+00 0.10637290E+04</pdfrwt>
<pdfrwt beam="1">  1       -4 0.29564780E+00 0.10596036E+04</pdfrwt>
<totfact> 0.45123249E-02</totfact>
</mgrwt>
</event>
<event>
 8    1  0.3025584E-006  0.1011892E+04  0.7818608E-02  0.8781247E-01
          4   -1    0    0  502    0  0.00000000000E+00  0.00000000000E+00  0.89319449202E+03  0.89319449202E+03  0.00000000000E+00 0.  1.
         -4   -1    0    0    0  501 -0.00000000000E+00 -0.00000000000E+00 -0.15617913248E+04  0.15617913248E+04  0.00000000000E+00 0. -1.
   -9000010    2    1    2    0  501  0.21231150927E+02  0.14555776997E+03 -0.10030831422E+04  0.14248163668E+04  0.10011433778E+04 0.  0.
    9000010    2    1    2  502    0 -0.21231150927E+02 -0.14555776997E+03  0.33448630941E+03  0.10301694500E+04  0.96318750941E+03 0.  0.
        -13    1    4    4    0    0 -0.10282237414E+03  0.16973056074E+03 -0.27500201170E+03  0.33912685160E+03  0.10566000000E+00 0.  1.
          4    1    4    4  502    0  0.81591223208E+02 -0.31528833071E+03  0.60948832111E+03  0.69104259836E+03  0.00000000000E+00 0.  1.
         13    1    3    3    0    0  0.46847987179E+03 -0.55756194391E+02 -0.27238352617E+03  0.54477053883E+03  0.10566000000E+00 0. -1.
         -4    1    3    3    0  501 -0.44724872086E+03  0.20131396436E+03 -0.73069961600E+03  0.88004582800E+03  0.00000000000E+00 0. -1.
<mgrwt>
<rscale>  0 0.99294634E+03</rscale>
<asrwt>0</asrwt>
<pdfrwt beam="1">  1        4 0.13741454E+00 0.97435517E+03</pdfrwt>
<pdfrwt beam="2">  1       -4 0.24027559E+00 0.10118922E+04</pdfrwt>
<totfact> 0.24418932E-01</totfact>
</mgrwt>
</event>
<event>
 8    1  0.3025584E-006  0.1405925E+04  0.7818608E-02  0.8466420E-01
         -4   -1    0    0    0  501 -0.00000000000E+00  0.00000000000E+00  0.39623384654E+04  0.39623384654E+04  0.00000000000E+00 0. -1.
          4   -1    0    0  502    0  0.00000000000E+00 -0.00000000000E+00 -0.51435885561E+03  0.51435885561E+03  0.00000000000E+00 0.  1.
   -9000010    2    1    2    0  501 -0.49998391612E+03 -0.85191207798E+03  0.21227978945E+04  0.25461532628E+04  0.10004436174E+04 0.  0.
    9000010    2    1    2  502    0  0.49998391612E+03  0.85191207798E+03  0.13251817153E+04  0.19305440582E+04  0.99757489807E+03 0.  0.
        -13    1    4    4    0    0 -0.17170607479E+03  0.32075804116E+02 -0.61522210770E+02  0.18519402504E+03  0.10566000000E+00 0.  1.
          4    1    4    4  502    0  0.67168999091E+03  0.81983627387E+03  0.13867039261E+04  0.17453500332E+04  0.00000000000E+00 0.  1.
         13    1    3    3    0    0 -0.12404296331E+03 -0.74130097557E+03  0.19983033066E+04  0.21349777305E+04  0.10566000000E+00 0. -1.
         -4    1    3    3    0  501 -0.37594095281E+03 -0.11061110241E+03  0.12449458789E+03  0.41117553233E+03  0.00000000000E+00 0. -1.
<mgrwt>
<rscale>  0 0.14049048E+04</rscale>
<asrwt>0</asrwt>
<pdfrwt beam="2">  1        4 0.79132134E-01 0.14038852E+04</pdfrwt>
<pdfrwt beam="1">  1       -4 0.60959051E+00 0.14059252E+04</pdfrwt>
<totfact> 0.21322577E-02</totfact>
</mgrwt>
</event>
<event>
 8    1  0.3025584E-006  0.1237997E+04  0.7818608E-02  0.8586668E-01
         -4   -1    0    0    0  501 -0.00000000000E+00  0.00000000000E+00  0.49260448322E+04  0.49260448322E+04  0.00000000000E+00 0. -1.
          4   -1    0    0  502    0  0.00000000000E+00 -0.00000000000E+00 -0.44909835523E+03  0.44909835523E+03  0.00000000000E+00 0.  1.
   -9000010    2    1    2    0  501  0.42425176501E+03 -0.54795955931E+03  0.37718072943E+04  0.39697818166E+04  0.10258597210E+04 0.  0.
    9000010    2    1    2  502    0 -0.42425176501E+03  0.54795955931E+03  0.70513918263E+03  0.14053613708E+04  0.99878429952E+03 0.  0.
        -13    1    4    4    0    0 -0.27686628737E+03  0.83073391626E+03  0.39531063039E+03  0.96075193800E+03  0.10566000000E+00 0.  1.
          4    1    4    4  502    0 -0.14738547764E+03 -0.28277435696E+03  0.30982855224E+03  0.44460943282E+03  0.00000000000E+00 0.  1.
         13    1    3    3    0    0 -0.28734863002E+03 -0.41035422282E+03  0.18223240803E+04  0.18899272177E+04  0.10566000000E+00 0. -1.
         -4    1    3    3    0  501  0.71160039503E+03 -0.13760533649E+03  0.19494832140E+04  0.20798545989E+04  0.00000000000E+00 0. -1.
<mgrwt>
<rscale>  0 0.12267758E+04</rscale>
<asrwt>0</asrwt>
<pdfrwt beam="2">  1        4 0.69092058E-01 0.12156559E+04</pdfrwt>
<pdfrwt beam="1">  1       -4 0.75785301E+00 0.12379973E+04</pdfrwt>
<totfact> 0.45784505E-03</totfact>
</mgrwt>
</event>
<event>
 8    1  0.3025584E-006  0.1108612E+04  0.7818608E-02  0.8681272E-01
         -4   -1    0    0    0  501 -0.00000000000E+00  0.00000000000E+00  0.46467106586E+03  0.46467106586E+03  0.00000000000E+00 0. -1.
          4   -1    0    0  502    0  0.00000000000E+00 -0.00000000000E+00 -0.31710143969E+04  0.31710143969E+04  0.00000000000E+00 0.  1.
   -9000010    2    1    2    0  501  0.37208236869E+03  0.28168459224E+03 -0.60572605213E+03  0.12632991979E+04  0.10055989830E+04 0.  0.
    9000010    2    1    2  502    0 -0.37208236869E+03 -0.28168459224E+03 -0.21006172789E+04  0.23723862648E+04  0.99891548110E+03 0.  0.
        -13    1    4    4    0    0 -0.62606292994E+03 -0.43503806060E+03 -0.17754370240E+04  0.19321981119E+04  0.10566000000E+00 0.  1.
          4    1    4    4  502    0  0.25398056125E+03  0.15335346836E+03 -0.32518025492E+03  0.44018815288E+03  0.00000000000E+00 0.  1.
         13    1    3    3    0    0  0.19826983268E+03 -0.19177248341E+03 -0.69804205106E+03  0.75056667136E+03  0.10566000000E+00 0. -1.
         -4    1    3    3    0  501  0.17381253601E+03  0.47345707565E+03  0.92315998932E+02  0.51273252658E+03  0.00000000000E+00 0. -1.
<mgrwt>
<rscale>  0 0.11055785E+04</rscale>
<asrwt>0</asrwt>
<pdfrwt beam="2">  1        4 0.48784838E+00 0.11025532E+04</pdfrwt>
<pdfrwt beam="1">  1       -4 0.71487855E-01 0.11086121E+04</pdfrwt>
<totfact> 0.11163349E-01</totfact>
</mgrwt>
</event>
<event>
 8    1  0.3025584E-006  0.1564161E+04  0.7818608E-02  0.8411387E-01
         -4   -1    0    0    0  501 -0.00000000000E+00  0.00000000000E+00  0.89529164418E+03  0.89529164418E+03  0.00000000000E+00 0. -1.
          4   -1    0    0  502    0  0.00000000000E+00 -0.00000000000E+00 -0.41633410378E+04  0.41633410378E+04  0.00000000000E+00 0.  1.
   -9000010    2    1    2    0  501 -0.95891970957E+03 -0.35855578582E+03 -0.82960381944E+02  0.15663591578E+04  0.11825858639E+04 0.  0.
    9000010    2    1    2  502    0  0.95891970957E+03  0.35855578582E+03 -0.31850890117E+04  0.34922735242E+04  0.10015453531E+04 0.  0.
        -13    1    4    4    0    0  0.11670182179E+04  0.25178591758E+03 -0.25548194316E+04  0.28200053206E+04  0.10566000000E+00 0.  1.
          4    1    4    4  502    0 -0.20809850830E+03  0.10676986824E+03 -0.63026958007E+03  0.67226820353E+03  0.00000000000E+00 0.  1.
         13    1    3    3    0    0 -0.78578959076E+03 -0.74204248598E+03  0.14061282663E+03  0.10898918800E+04  0.10566000000E+00 0. -1.
         -4    1    3    3    0  501 -0.17313011881E+03  0.38348670015E+03 -0.22357320857E+03  0.47646727781E+03  0.00000000000E+00 0. -1.
<mgrwt>
<rscale>  0 0.14967241E+04</rscale>
<asrwt>0</asrwt>
<pdfrwt beam="2">  1        4 0.64051401E+00 0.14321949E+04</pdfrwt>
<pdfrwt beam="1">  1       -4 0.13773717E+00 0.15641607E+04</pdfrwt>
<totfact> 0.51919789E-03</totfact>
</mgrwt>
</event>
<event>
 8    1  0.3025584E-006  0.1118995E+04  0.7818608E-02  0.8680054E-01
         -4   -1    0    0    0  501 -0.00000000000E+00  0.00000000000E+00  0.62165014132E+03  0.62165014132E+03  0.00000000000E+00 0. -1.
          4   -1    0    0  502    0  0.00000000000E+00 -0.00000000000E+00 -0.23951056470E+04  0.23951056470E+04  0.00000000000E+00 0.  1.
   -9000010    2    1    2    0  501 -0.53487028982E+02  0.48188403733E+03 -0.26036965459E+03  0.11488876637E+04  0.10085025627E+04 0.  0.
    9000010    2    1    2  502    0  0.53487028982E+02 -0.48188403733E+03 -0.15130858511E+04  0.18678681246E+04  0.98205369027E+03 0.  0.
        -13    1    4    4    0    0 -0.38706270001E+03  0.64202679588E+02 -0.50069665912E+03  0.63611058270E+03  0.10566000000E+00 0.  1.
          4    1    4    4  502    0  0.44054972899E+03 -0.54608671692E+03 -0.10123891920E+04  0.12317575419E+04  0.00000000000E+00 0.  1.
         13    1    3    3    0    0 -0.25264097379E+03  0.70041982258E+03  0.15150235233E+02  0.74474487597E+03  0.10566000000E+00 0. -1.
         -4    1    3    3    0  501  0.19915394481E+03 -0.21853578524E+03 -0.27551988982E+03  0.40414278770E+03  0.00000000000E+00 0. -1.
<mgrwt>
<rscale>  0 0.11070428E+04</rscale>
<asrwt>0</asrwt>
<pdfrwt beam="2">  1        4 0.36847779E+00 0.10952180E+04</pdfrwt>
<pdfrwt beam="1">  1       -4 0.95638483E-01 0.11189953E+04</pdfrwt>
<totfact> 0.20114433E-01</totfact>
</mgrwt>
</event>
<event>
 8    1  0.3025584E-006  0.1506855E+04  0.7818608E-02  0.8411910E-01
         -4   -1    0    0    0  501 -0.00000000000E+00  0.00000000000E+00  0.18656285961E+04  0.18656285961E+04  0.00000000000E+00 0.  1.
          4   -1    0    0  502    0  0.00000000000E+00 -0.00000000000E+00 -0.13625566875E+04  0.13625566875E+04  0.00000000000E+00 0. -1.
   -9000010    2    1    2    0  501 -0.81830395866E+03 -0.73105814299E+03  0.81172769199E+03  0.17115819160E+04  0.10327358966E+04 0.  0.
    9000010    2    1    2  502    0  0.81830395866E+03  0.73105814299E+03 -0.30865578341E+03  0.15166033675E+04  0.10003749320E+04 0.  0.
        -13    1    4    4    0    0  0.73575244085E+02  0.37265612718E+03 -0.53828454553E+03  0.65881421416E+03  0.10566000000E+00 0.  1.
          4    1    4    4  502    0  0.74472871457E+03  0.35840201581E+03  0.22962876212E+03  0.85778915337E+03  0.00000000000E+00 0.  1.
         13    1    3    3    0    0  0.10384669141E+03 -0.26475696368E+03  0.58964076290E+03  0.65464236463E+03  0.10566000000E+00 0. -1.
         -4    1    3    3    0  501 -0.92215065007E+03 -0.46630117931E+03  0.22208692909E+03  0.10569395514E+04  0.00000000000E+00 0. -1.
<mgrwt>
<rscale>  0 0.14958183E+04</rscale>
<asrwt>0</asrwt>
<pdfrwt beam="2">  1        4 0.20962411E+00 0.14848627E+04</pdfrwt>
<pdfrwt beam="1">  1       -4 0.28701978E+00 0.15068546E+04</pdfrwt>
<totfact> 0.10153196E-01</totfact>
</mgrwt>
</event>
<event>
 8    1  0.3025584E-006  0.9999298E+03  0.7818608E-02  0.8775066E-01
         -4   -1    0    0    0  501 -0.00000000000E+00  0.00000000000E+00  0.32992301038E+04  0.32992301038E+04  0.00000000000E+00 0. -1.
          4   -1    0    0  502    0  0.00000000000E+00 -0.00000000000E+00 -0.11502493367E+04  0.11502493367E+04  0.00000000000E+00 0.  1.
   -9000010    2    1    2    0  501 -0.95360633683E+01  0.13853880659E+03  0.29839625036E+04  0.31467691588E+04  0.98936342085E+03 0.  0.
    9000010    2    1    2  502    0  0.95360633683E+01 -0.13853880659E+03 -0.83498173654E+03  0.13027102817E+04  0.99024019322E+03 0.  0.
        -13    1    4    4    0    0 -0.33278894808E+02 -0.47428138173E+03 -0.83885788812E+03  0.96422657167E+03  0.10566000000E+00 0.  1.
          4    1    4    4  502    0  0.42814958176E+02  0.33574257514E+03  0.38761515810E+01  0.33848371003E+03  0.00000000000E+00 0.  1.
         13    1    3    3    0    0 -0.33517768714E+03  0.15132040631E+03  0.26667372836E+04  0.26919750552E+04  0.10566000000E+00 0. -1.
         -4    1    3    3    0  501  0.32564162378E+03 -0.12781599723E+02  0.31722522009E+03  0.45479410362E+03  0.00000000000E+00 0. -1.
<mgrwt>
<rscale>  0 0.99949556E+03</rscale>
<asrwt>0</asrwt>
<pdfrwt beam="2">  1        4 0.17696144E+00 0.99992979E+03</pdfrwt>
<pdfrwt beam="1">  1       -4 0.50757386E+00 0.99906152E+03</pdfrwt>
<totfact> 0.18659489E-02</totfact>
</mgrwt>
</event>
<event>
 8    1  0.3025584E-006  0.1033181E+04  0.7818608E-02  0.8744074E-01
          4   -1    0    0  502    0  0.00000000000E+00  0.00000000000E+00  0.17027910077E+04  0.17027910077E+04  0.00000000000E+00 0.  1.
         -4   -1    0    0    0  501 -0.00000000000E+00 -0.00000000000E+00 -0.11561504537E+04  0.11561504537E+04  0.00000000000E+00 0. -1.
   -9000010    2    1    2    0  501  0.19481263552E+03 -0.20947930971E+03 -0.69391761821E+03  0.12444920330E+04  0.99267578552E+03 0.  0.
    9000010    2    1    2  502    0 -0.19481263552E+03  0.20947930971E+03  0.12405581722E+04  0.16144494285E+04  0.99278841370E+03 0.  0.
        -13    1    4    4    0    0 -0.58138752264E+03  0.27150769380E+03  0.77140525172E+03  0.10033912262E+04  0.10566000000E+00 0.  1.
          4    1    4    4  502    0  0.38657488712E+03 -0.62028384095E+02  0.46915292046E+03  0.61105820227E+03  0.00000000000E+00 0.  1.
         13    1    3    3    0    0 -0.10720394529E+03 -0.43060357040E+03  0.13713708143E+02  0.44395968024E+03  0.10566000000E+00 0. -1.
         -4    1    3    3    0  501  0.30201658081E+03  0.22112426069E+03 -0.70763132636E+03  0.80053235275E+03  0.00000000000E+00 0. -1.
<mgrwt>
<rscale>  0 0.10331266E+04</rscale>
<asrwt>0</asrwt>
<pdfrwt beam="1">  1        4 0.26196785E+00 0.10331807E+04</pdfrwt>
<pdfrwt beam="2">  1       -4 0.17786930E+00 0.10330725E+04</pdfrwt>
<totfact> 0.14973051E-01</totfact>
</mgrwt>
</event>
<event>
 8    1  0.3025584E-006  0.1239016E+04  0.7818608E-02  0.8577884E-01
          4   -1    0    0  502    0  0.00000000000E+00  0.00000000000E+00  0.11156592997E+04  0.11156592997E+04  0.00000000000E+00 0.  1.
         -4   -1    0    0    0  501 -0.00000000000E+00 -0.00000000000E+00 -0.18493227377E+04  0.18493227377E+04  0.00000000000E+00 0. -1.
   -9000010    2    1    2    0  501  0.54626290045E+03 -0.48926867992E+03 -0.11171181388E+04  0.16679862456E+04  0.99821750230E+03 0.  0.
    9000010    2    1    2  502    0 -0.54626290045E+03  0.48926867992E+03  0.38345470080E+03  0.12969957917E+04  0.99868592593E+03 0.  0.
        -13    1    4    4    0    0 -0.18389721570E+03 -0.22484165246E+03 -0.15768556543E+03  0.33050976284E+03  0.10566000000E+00 0.  1.
          4    1    4    4  502    0 -0.36236568475E+03  0.71411033238E+03  0.54114026624E+03  0.96648602889E+03  0.00000000000E+00 0.  1.
         13    1    3    3    0    0 -0.18687699300E+02 -0.56786633357E+03 -0.88604388332E+03  0.10525659966E+04  0.10566000000E+00 0. -1.
         -4    1    3    3    0  501  0.56495059975E+03  0.78597653654E+02 -0.23107425553E+03  0.61542024901E+03  0.00000000000E+00 0. -1.
<mgrwt>
<rscale>  0 0.12388272E+04</rscale>
<asrwt>0</asrwt>
<pdfrwt beam="1">  1        4 0.17163989E+00 0.12390160E+04</pdfrwt>
<pdfrwt beam="2">  1       -4 0.28451119E+00 0.12386384E+04</pdfrwt>
<totfact> 0.13707825E-01</totfact>
</mgrwt>
</event>
<event>
 8    1  0.3025584E-006  0.1196586E+04  0.7818608E-02  0.8610115E-01
          4   -1    0    0  502    0  0.00000000000E+00  0.00000000000E+00  0.11956054712E+04  0.11956054712E+04  0.00000000000E+00 0.  1.
         -4   -1    0    0    0  501 -0.00000000000E+00 -0.00000000000E+00 -0.20347101107E+04  0.20347101107E+04  0.00000000000E+00 0. -1.
   -9000010    2    1    2    0  501 -0.38121278082E+03  0.52224850014E+03 -0.14574260034E+04  0.18857116818E+04  0.10068521794E+04 0.  0.
    9000010    2    1    2  502    0  0.38121278082E+03 -0.52224850014E+03  0.61832136385E+03  0.13446039001E+04  0.10037786903E+04 0.  0.
        -13    1    4    4    0    0  0.32886882782E+03 -0.43084420180E+03  0.89624206394E+03  0.10473926105E+04  0.10566000000E+00 0.  1.
          4    1    4    4  502    0  0.52343952998E+02 -0.91404298339E+02 -0.27792070008E+03  0.29721128967E+03  0.00000000000E+00 0.  1.
         13    1    3    3    0    0 -0.17456018313E+03  0.62458830097E+03 -0.31635052432E+03  0.72156736945E+03  0.10566000000E+00 0. -1.
         -4    1    3    3    0  501 -0.20665259769E+03 -0.10233980083E+03 -0.11410754791E+04  0.11641443123E+04  0.00000000000E+00 0. -1.
<mgrwt>
<rscale>  0 0.11952928E+04</rscale>
<asrwt>0</asrwt>
<pdfrwt beam="1">  1        4 0.18393931E+00 0.11940010E+04</pdfrwt>
<pdfrwt beam="2">  1       -4 0.31303232E+00 0.11965860E+04</pdfrwt>
<totfact> 0.10437880E-01</totfact>
</mgrwt>
</event>
<event>
 8    1  0.3025584E-006  0.1124800E+04  0.7818608E-02  0.8696348E-01
         -4   -1    0    0    0  501 -0.00000000000E+00  0.00000000000E+00  0.10615270165E+04  0.10615270165E+04  0.00000000000E+00 0. -1.
          4   -1    0    0  502    0  0.00000000000E+00 -0.00000000000E+00 -0.24272372782E+04  0.24272372782E+04  0.00000000000E+00 0.  1.
   -9000010    2    1    2    0  501 -0.25935869519E+03 -0.22323906065E+03  0.60964096379E+03  0.12156196411E+04  0.99446789595E+03 0.  0.
    9000010    2    1    2  502    0  0.25935869519E+03  0.22323906065E+03 -0.19753512255E+04  0.22731446537E+04  0.10714810039E+04 0.  0.
        -13    1    4    4    0    0  0.17228978710E+03  0.42506256143E+03 -0.20000427514E+04  0.20519583257E+04  0.10566000000E+00 0.  1.
          4    1    4    4  502    0  0.87068908090E+02 -0.20182350078E+03  0.24691525940E+02  0.22118632796E+03  0.00000000000E+00 0.  1.
         13    1    3    3    0    0 -0.35206351679E+03 -0.46110488907E+03  0.28461721714E+02  0.58084121698E+03  0.10566000000E+00 0. -1.
         -4    1    3    3    0  501  0.92704821604E+02  0.23786582842E+03  0.58117924208E+03  0.63477842410E+03  0.00000000000E+00 0. -1.
<mgrwt>
<rscale>  0 0.10876349E+04</rscale>
<asrwt>0</asrwt>
<pdfrwt beam="2">  1        4 0.37342112E+00 0.11247996E+04</pdfrwt>
<pdfrwt beam="1">  1       -4 0.16331185E+00 0.10516982E+04</pdfrwt>
<totfact> 0.79327105E-02</totfact>
</mgrwt>
</event>
<event>
 8    1  0.3025584E-006  0.1297344E+04  0.7818608E-02  0.8555482E-01
         -4   -1    0    0    0  501 -0.00000000000E+00  0.00000000000E+00  0.17345676787E+04  0.17345676787E+04  0.00000000000E+00 0. -1.
          4   -1    0    0  502    0  0.00000000000E+00 -0.00000000000E+00 -0.36335961071E+04  0.36335961071E+04  0.00000000000E+00 0.  1.
   -9000010    2    1    2    0  501 -0.52395705979E+03 -0.57235483292E+03  0.13704890286E+04  0.18506579875E+04  0.97189184270E+03 0.  0.
    9000010    2    1    2  502    0  0.52395705979E+03  0.57235483292E+03 -0.32695174570E+04  0.35175057984E+04  0.10397026427E+04 0.  0.
        -13    1    4    4    0    0  0.22550330818E+03  0.27946012723E+03 -0.29968710374E+04  0.30183084220E+04  0.10566000000E+00 0.  1.
          4    1    4    4  502    0  0.29845375162E+03  0.29289470568E+03 -0.27264641961E+03  0.49919737639E+03  0.00000000000E+00 0.  1.
         13    1    3    3    0    0 -0.63774006694E+03 -0.76124899064E+03  0.12591040323E+04  0.16036069949E+04  0.10566000000E+00 0. -1.
         -4    1    3    3    0  501  0.11378300715E+03  0.18889415773E+03  0.11138499624E+03  0.24705099257E+03  0.00000000000E+00 0. -1.
<mgrwt>
<rscale>  0 0.12702196E+04</rscale>
<asrwt>0</asrwt>
<pdfrwt beam="2">  1        4 0.55901479E+00 0.12973445E+04</pdfrwt>
<pdfrwt beam="1">  1       -4 0.26685657E+00 0.12436619E+04</pdfrwt>
<totfact> 0.58210385E-03</totfact>
</mgrwt>
</event>
<event>
 8    1  0.3025584E-006  0.1179796E+04  0.7818608E-02  0.8634476E-01
          4   -1    0    0  502    0  0.00000000000E+00  0.00000000000E+00  0.17094185146E+04  0.17094185146E+04  0.00000000000E+00 0.  1.
         -4   -1    0    0    0  501 -0.00000000000E+00 -0.00000000000E+00 -0.11140233595E+04  0.11140233595E+04  0.00000000000E+00 0. -1.
   -9000010    2    1    2    0  501 -0.34508957464E+02  0.60842660111E+03 -0.45805732249E+03  0.12655965409E+04  0.10102199248E+04 0.  0.
    9000010    2    1    2  502    0  0.34508957464E+02 -0.60842660111E+03  0.10534524775E+04  0.15578453332E+04  0.97249481373E+03 0.  0.
        -13    1    4    4    0    0  0.37103601078E+03 -0.69039187613E+03  0.84974789847E+03  0.11560191028E+04  0.10566000000E+00 0.  1.
          4    1    4    4  502    0 -0.33652705332E+03  0.81965275027E+02  0.20370457907E+03  0.40182623042E+03  0.00000000000E+00 0.  1.
         13    1    3    3    0    0  0.24298023026E+03 -0.95470125903E+02 -0.43657162437E+03  0.50867350197E+03  0.10566000000E+00 0. -1.
         -4    1    3    3    0  501 -0.27748918772E+03  0.70389672701E+03 -0.21485698121E+02  0.75692303890E+03  0.00000000000E+00 0. -1.
<mgrwt>
<rscale>  0 0.11636162E+04</rscale>
<asrwt>0</asrwt>
<pdfrwt beam="1">  1        4 0.26298746E+00 0.11476585E+04</pdfrwt>
<pdfrwt beam="2">  1       -4 0.17138821E+00 0.11797958E+04</pdfrwt>
<totfact> 0.15582495E-01</totfact>
</mgrwt>
</event>
<event>
 8    1  0.3025584E-006  0.1314849E+04  0.7818608E-02  0.8541447E-01
         -4   -1    0    0    0  501 -0.00000000000E+00  0.00000000000E+00  0.81129119890E+03  0.81129119890E+03  0.00000000000E+00 0.  1.
          4   -1    0    0  502    0  0.00000000000E+00 -0.00000000000E+00 -0.22148764661E+04  0.22148764661E+04  0.00000000000E+00 0. -1.
   -9000010    2    1    2    0  501  0.40572698888E+03 -0.64383896995E+03 -0.28070503067E+03  0.12970960968E+04  0.10121857346E+04 0.  0.
    9000010    2    1    2  502    0 -0.40572698888E+03  0.64383896995E+03 -0.11228802366E+04  0.17290715682E+04  0.10722338614E+04 0.  0.
        -13    1    4    4    0    0 -0.58838442468E+03  0.27053860281E+03 -0.11422170049E+04  0.13130297271E+04  0.10566000000E+00 0.  1.
          4    1    4    4  502    0  0.18265743580E+03  0.37330036714E+03  0.19336768315E+02  0.41604184113E+03  0.00000000000E+00 0.  1.
         13    1    3    3    0    0  0.24247142428E+03 -0.27925742396E+03 -0.65337639351E+03  0.75078480485E+03  0.10566000000E+00 0. -1.
         -4    1    3    3    0  501  0.16325556461E+03 -0.36458154599E+03  0.37267136284E+03  0.54631129197E+03  0.00000000000E+00 0. -1.
<mgrwt>
<rscale>  0 0.12903759E+04</rscale>
<asrwt>0</asrwt>
<pdfrwt beam="2">  1        4 0.34075022E+00 0.13148492E+04</pdfrwt>
<pdfrwt beam="1">  1       -4 0.12481403E+00 0.12663582E+04</pdfrwt>
<totfact> 0.15318922E-01</totfact>
</mgrwt>
</event>
<event>
 8    1  0.3025584E-006  0.1050174E+04  0.7818608E-02  0.8748509E-01
          4   -1    0    0  502    0  0.00000000000E+00  0.00000000000E+00  0.64538057365E+03  0.64538057365E+03  0.00000000000E+00 0.  1.
         -4   -1    0    0    0  501 -0.00000000000E+00 -0.00000000000E+00 -0.20333511180E+04  0.20333511180E+04  0.00000000000E+00 0. -1.
   -9000010    2    1    2    0  501  0.27074422451E+03 -0.14751773624E+03 -0.12955859882E+04  0.16677557375E+04  0.10038935349E+04 0.  0.
    9000010    2    1    2  502    0 -0.27074422451E+03  0.14751773624E+03 -0.92384556128E+02  0.10109759542E+04  0.95837026045E+03 0.  0.
        -13    1    4    4    0    0 -0.44866631267E+03 -0.19451653284E+03 -0.29937762880E+03  0.57338042997E+03  0.10566000000E+00 0.  1.
          4    1    4    4  502    0  0.17792208816E+03  0.34203426908E+03  0.20699307267E+03  0.43759552422E+03  0.00000000000E+00 0.  1.
         13    1    3    3    0    0  0.26429224492E+02 -0.55857684463E+03 -0.82651545877E+03  0.99791503146E+03  0.10566000000E+00 0. -1.
         -4    1    3    3    0  501  0.24431500002E+03  0.41105910839E+03 -0.46907052947E+03  0.66984070602E+03  0.00000000000E+00 0. -1.
<mgrwt>
<rscale>  0 0.10282309E+04</rscale>
<asrwt>0</asrwt>
<pdfrwt beam="1">  1        4 0.99289320E-01 0.10067460E+04</pdfrwt>
<pdfrwt beam="2">  1       -4 0.31282325E+00 0.10501743E+04</pdfrwt>
<totfact> 0.28066502E-01</totfact>
</mgrwt>
</event>
<event>
 8    1  0.3025584E-006  0.1158494E+04  0.7818608E-02  0.8646843E-01
         -4   -1    0    0    0  501 -0.00000000000E+00  0.00000000000E+00  0.17207770067E+04  0.17207770067E+04  0.00000000000E+00 0. -1.
          4   -1    0    0  502    0  0.00000000000E+00 -0.00000000000E+00 -0.17402331588E+04  0.17402331588E+04  0.00000000000E+00 0.  1.
   -9000010    2    1    2    0  501  0.34214774018E+02  0.57231512146E+03  0.12851871942E+04  0.17162460480E+04  0.98238440746E+03 0.  0.
    9000010    2    1    2  502    0 -0.34214774018E+02 -0.57231512146E+03 -0.13046433464E+04  0.17447641175E+04  0.10066738874E+04 0.  0.
        -13    1    4    4    0    0  0.26819865366E+03 -0.10997976319E+03  0.38521874613E+02  0.29242095021E+03  0.10566000000E+00 0.  1.
          4    1    4    4  502    0 -0.30241342767E+03 -0.46233535828E+03 -0.13431652210E+04  0.14523431673E+04  0.00000000000E+00 0.  1.
         13    1    3    3    0    0  0.32635602248E+03  0.59420510065E+03  0.12489165598E+04  0.14210490982E+04  0.10566000000E+00 0. -1.
         -4    1    3    3    0  501 -0.29214124846E+03 -0.21889979188E+02  0.36270634453E+02  0.29519694979E+03  0.00000000000E+00 0. -1.
<mgrwt>
<rscale>  0 0.11479240E+04</rscale>
<asrwt>0</asrwt>
<pdfrwt beam="2">  1        4 0.26772818E+00 0.11584937E+04</pdfrwt>
<pdfrwt beam="1">  1       -4 0.26473492E+00 0.11374508E+04</pdfrwt>
<totfact> 0.85209618E-02</totfact>
</mgrwt>
</event>
<event>
 8    1  0.3025584E-006  0.1118449E+04  0.7818608E-02  0.8749812E-01
          4   -1    0    0  502    0  0.00000000000E+00  0.00000000000E+00  0.27378926905E+04  0.27378926905E+04  0.00000000000E+00 0.  1.
         -4   -1    0    0    0  501 -0.00000000000E+00 -0.00000000000E+00 -0.61312432882E+03  0.61312432882E+03  0.00000000000E+00 0. -1.
   -9000010    2    1    2    0  501 -0.42032160313E+03 -0.32822481241E+03  0.10655895421E+03  0.11235135924E+04  0.98312064575E+03 0.  0.
    9000010    2    1    2  502    0  0.42032160313E+03  0.32822481241E+03  0.20182094075E+04  0.22275034269E+04  0.77730336862E+03 0.  0.
        -13    1    4    4    0    0  0.17878743656E+03  0.88488524323E+02  0.19960723613E+02  0.20048343587E+03  0.10566000000E+00 0.  1.
          4    1    4    4  502    0  0.24153416657E+03  0.23973628809E+03  0.19982486839E+04  0.20270199910E+04  0.00000000000E+00 0.  1.
         13    1    3    3    0    0  0.10581844463E+03 -0.48548346306E+03  0.24960030652E+03  0.55605041166E+03  0.10566000000E+00 0. -1.
         -4    1    3    3    0  501 -0.52614004776E+03  0.15725865065E+03 -0.14304135230E+03  0.56746318076E+03  0.00000000000E+00 0. -1.
<mgrwt>
<rscale>  0 0.10267978E+04</rscale>
<asrwt>0</asrwt>
<pdfrwt beam="1">  1        4 0.42121425E+00 0.94265704E+03</pdfrwt>
<pdfrwt beam="2">  1       -4 0.94326821E-01 0.11184489E+04</pdfrwt>
<totfact> 0.13054271E-01</totfact>
</mgrwt>
</event>
<event>
 8    1  0.3025584E-006  0.1142001E+04  0.7818608E-02  0.8653104E-01
          4   -1    0    0  502    0  0.00000000000E+00  0.00000000000E+00  0.77513470604E+03  0.77513470604E+03  0.00000000000E+00 0.  1.
         -4   -1    0    0    0  501 -0.00000000000E+00 -0.00000000000E+00 -0.22920395451E+04  0.22920395451E+04  0.00000000000E+00 0. -1.
   -9000010    2    1    2    0  501  0.47707862353E+03 -0.27274812908E+03 -0.15539020555E+04  0.19284133883E+04  0.10010849330E+04 0.  0.
    9000010    2    1    2  502    0 -0.47707862353E+03  0.27274812908E+03  0.36997216383E+02  0.11387608629E+04  0.99670053373E+03 0.  0.
        -13    1    4    4    0    0 -0.23926051758E+03 -0.25462975712E+03  0.33842033824E+03  0.48642599127E+03  0.10566000000E+00 0.  1.
          4    1    4    4  502    0 -0.23781810595E+03  0.52737788621E+03 -0.30142312186E+03  0.65233487165E+03  0.00000000000E+00 0.  1.
         13    1    3    3    0    0  0.58252160126E+03 -0.56522648359E+03 -0.12709946458E+04  0.15080582862E+04  0.10566000000E+00 0. -1.
         -4    1    3    3    0  501 -0.10544297773E+03  0.29247835450E+03 -0.28290740970E+03  0.42035510210E+03  0.00000000000E+00 0. -1.
<mgrwt>
<rscale>  0 0.11400788E+04</rscale>
<asrwt>0</asrwt>
<pdfrwt beam="1">  1        4 0.11925149E+00 0.11381597E+04</pdfrwt>
<pdfrwt beam="2">  1       -4 0.35262147E+00 0.11420011E+04</pdfrwt>
<totfact> 0.15270100E-01</totfact>
</mgrwt>
</event>
<event>
 8    1  0.3025584E-006  0.1425875E+04  0.7818608E-02  0.8473168E-01
          4   -1    0    0  502    0  0.00000000000E+00  0.00000000000E+00  0.11509345678E+04  0.11509345678E+04  0.00000000000E+00 0. -1.
         -4   -1    0    0    0  501 -0.00000000000E+00 -0.00000000000E+00 -0.24181918920E+04  0.24181918920E+04  0.00000000000E+00 0.  1.
   -9000010    2    1    2    0  501 -0.39726577550E+03  0.83424218125E+03 -0.16230234867E+04  0.21603994713E+04  0.10859744582E+04 0.  0.
    9000010    2    1    2  502    0  0.39726577550E+03 -0.83424218125E+03  0.35576616250E+03  0.14087269885E+04  0.10020788653E+04 0.  0.
        -13    1    4    4    0    0  0.18041299533E+03 -0.44173547861E+03  0.69738381848E+03  0.84499898425E+03  0.10566000000E+00 0.  1.
          4    1    4    4  502    0  0.21685278017E+03 -0.39250670264E+03 -0.34161765598E+03  0.56372800424E+03  0.00000000000E+00 0.  1.
         13    1    3    3    0    0  0.43036617973E+02  0.88528292605E+03 -0.14175652266E+04  0.16718460433E+04  0.10566000000E+00 0. -1.
         -4    1    3    3    0  501 -0.44030239347E+03 -0.51040744805E+02 -0.20545826004E+03  0.48855342793E+03  0.00000000000E+00 0. -1.
<mgrwt>
<rscale>  0 0.13941158E+04</rscale>
<asrwt>0</asrwt>
<pdfrwt beam="1">  1        4 0.17706686E+00 0.13630635E+04</pdfrwt>
<pdfrwt beam="2">  1       -4 0.37202952E+00 0.14258754E+04</pdfrwt>
<totfact> 0.69988860E-02</totfact>
</mgrwt>
</event>
<event>
 8    1  0.3025584E-006  0.1031333E+04  0.7818608E-02  0.8745819E-01
         -4   -1    0    0    0  501 -0.00000000000E+00  0.00000000000E+00  0.16589262933E+04  0.16589262933E+04  0.00000000000E+00 0. -1.
          4   -1    0    0  502    0  0.00000000000E+00 -0.00000000000E+00 -0.68773606664E+03  0.68773606664E+03  0.00000000000E+00 0.  1.
   -9000010    2    1    2    0  501  0.50838425547E+02 -0.21953883892E+03  0.79153409642E+03  0.13000667612E+04  0.10064121971E+04 0.  0.
    9000010    2    1    2  502    0 -0.50838425547E+02  0.21953883892E+03  0.17965613019E+03  0.10465955987E+04  0.10061332788E+04 0.  0.
        -13    1    4    4    0    0  0.69691952976E+02  0.53376603473E+03 -0.16683845356E+03  0.56355854078E+03  0.10566000000E+00 0.  1.
          4    1    4    4  502    0 -0.12053037852E+03 -0.31422719581E+03  0.34649458375E+03  0.48303705789E+03  0.00000000000E+00 0.  1.
         13    1    3    3    0    0  0.88310413334E+02 -0.40514660114E+03  0.96056485659E+03  0.10462444038E+04  0.10566000000E+00 0. -1.
         -4    1    3    3    0  501 -0.37471987787E+02  0.18560776222E+03 -0.16903076017E+03  0.25382235746E+03  0.00000000000E+00 0. -1.
<mgrwt>
<rscale>  0 0.10311967E+04</rscale>
<asrwt>0</asrwt>
<pdfrwt beam="2">  1        4 0.10580555E+00 0.10310606E+04</pdfrwt>
<pdfrwt beam="1">  1       -4 0.25521943E+00 0.10313328E+04</pdfrwt>
<totfact> 0.34931767E-01</totfact>
</mgrwt>
</event>
<event>
 8    1  0.3025584E-006  0.1798132E+04  0.7818608E-02  0.8259905E-01
         -4   -1    0    0    0  501 -0.00000000000E+00  0.00000000000E+00  0.13710779918E+04  0.13710779918E+04  0.00000000000E+00 0. -1.
          4   -1    0    0  502    0  0.00000000000E+00 -0.00000000000E+00 -0.26126569223E+04  0.26126569223E+04  0.00000000000E+00 0.  1.
   -9000010    2    1    2    0  501  0.93492919958E+03 -0.11493582078E+04  0.24897062264E+02  0.17983041849E+04  0.10189019480E+04 0.  0.
    9000010    2    1    2  502    0 -0.93492919958E+03  0.11493582078E+04 -0.12664759928E+04  0.21854307292E+04  0.98844784050E+03 0.  0.
        -13    1    4    4    0    0 -0.45763502180E+03  0.58864460611E+03 -0.29886198110E+02  0.74620739844E+03  0.10566000000E+00 0.  1.
          4    1    4    4  502    0 -0.47729417779E+03  0.56071360173E+03 -0.12365897947E+04  0.14392233307E+04  0.00000000000E+00 0.  1.
         13    1    3    3    0    0 -0.17384535707E+03 -0.19697693226E+03  0.19445433227E+03  0.32685565395E+03  0.10566000000E+00 0. -1.
         -4    1    3    3    0  501  0.11087745567E+04 -0.95238127558E+03 -0.16955727000E+03  0.14714485310E+04  0.00000000000E+00 0. -1.
<mgrwt>
<rscale>  0 0.17895715E+04</rscale>
<asrwt>0</asrwt>
<pdfrwt beam="2">  1        4 0.40194722E+00 0.17810519E+04</pdfrwt>
<pdfrwt beam="1">  1       -4 0.21093508E+00 0.17981318E+04</pdfrwt>
<totfact> 0.41188963E-02</totfact>
</mgrwt>
</event>
<event>
 8    1  0.3025584E-006  0.1061108E+04  0.7818608E-02  0.8719847E-01
         -4   -1    0    0    0  501 -0.00000000000E+00  0.00000000000E+00  0.14063035422E+04  0.14063035422E+04  0.00000000000E+00 0. -1.
          4   -1    0    0  502    0  0.00000000000E+00 -0.00000000000E+00 -0.10849926325E+04  0.10849926325E+04  0.00000000000E+00 0.  1.
   -9000010    2    1    2    0  501  0.12001563500E+02 -0.37125957989E+03  0.79966905902E+03  0.13286914902E+04  0.99396818808E+03 0.  0.
    9000010    2    1    2  502    0 -0.12001563500E+02  0.37125957989E+03 -0.47835814934E+03  0.11626046845E+04  0.99239378277E+03 0.  0.
        -13    1    4    4    0    0 -0.10920660301E+03 -0.13962368738E+03 -0.60242443489E+03  0.62796183573E+03  0.10566000000E+00 0.  1.
          4    1    4    4  502    0  0.97205039508E+02  0.51088326727E+03  0.12406628555E+03  0.53464284872E+03  0.00000000000E+00 0.  1.
         13    1    3    3    0    0  0.16663060333E+03  0.31491597709E+03  0.30194281609E+03  0.46701959910E+03  0.10566000000E+00 0. -1.
         -4    1    3    3    0  501 -0.15462903983E+03 -0.68617555698E+03  0.49772624293E+03  0.86167189107E+03  0.00000000000E+00 0. -1.
<mgrwt>
<rscale>  0 0.10603706E+04</rscale>
<asrwt>0</asrwt>
<pdfrwt beam="2">  1        4 0.16692194E+00 0.10596335E+04</pdfrwt>
<pdfrwt beam="1">  1       -4 0.21635439E+00 0.10611081E+04</pdfrwt>
<totfact> 0.21043490E-01</totfact>
</mgrwt>
</event>
<event>
 8    1  0.3025584E-006  0.1115900E+04  0.7818608E-02  0.8685119E-01
         -4   -1    0    0    0  501 -0.00000000000E+00  0.00000000000E+00  0.15899669597E+04  0.15899669597E+04  0.00000000000E+00 0. -1.
          4   -1    0    0  502    0  0.00000000000E+00 -0.00000000000E+00 -0.76250064667E+03  0.76250064667E+03  0.00000000000E+00 0.  1.
   -9000010    2    1    2    0  501 -0.42916985255E+03  0.17082966582E+03  0.41665274216E+03  0.11911478821E+04  0.10158071827E+04 0.  0.
    9000010    2    1    2  502    0  0.42916985255E+03 -0.17082966582E+03  0.41081357083E+03  0.11613197243E+04  0.98312063090E+03 0.  0.
        -13    1    4    4    0    0  0.74232955220E+03 -0.57362418980E+02  0.21508882692E+03  0.77498827463E+03  0.10566000000E+00 0.  1.
          4    1    4    4  502    0 -0.31315969965E+03 -0.11346724684E+03  0.19572474390E+03  0.38633144962E+03  0.00000000000E+00 0.  1.
         13    1    3    3    0    0 -0.92422818066E+02  0.38475655609E+01 -0.33673040528E+03  0.34920503729E+03  0.10566000000E+00 0. -1.
         -4    1    3    3    0  501 -0.33674703448E+03  0.16698210026E+03  0.75338314745E+03  0.84194284479E+03  0.00000000000E+00 0. -1.
<mgrwt>
<rscale>  0 0.11009653E+04</rscale>
<asrwt>0</asrwt>
<pdfrwt beam="2">  1        4 0.11730779E+00 0.10862300E+04</pdfrwt>
<pdfrwt beam="1">  1       -4 0.24461030E+00 0.11159004E+04</pdfrwt>
<totfact> 0.30766123E-01</totfact>
</mgrwt>
</event>
<event>
 8    1  0.3025584E-006  0.1072377E+04  0.7818608E-02  0.8711267E-01
          4   -1    0    0  502    0  0.00000000000E+00  0.00000000000E+00  0.47113798001E+03  0.47113798001E+03  0.00000000000E+00 0.  1.
         -4   -1    0    0    0  501 -0.00000000000E+00 -0.00000000000E+00 -0.29860299262E+04  0.29860299262E+04  0.00000000000E+00 0. -1.
   -9000010    2    1    2    0  501 -0.18445349620E+02  0.38570450592E+03 -0.20005623732E+04  0.22678291340E+04  0.99583682147E+03 0.  0.
    9000010    2    1    2  502    0  0.18445349620E+02 -0.38570450592E+03 -0.51432957295E+03  0.11893387722E+04  0.10004417068E+04 0.  0.
        -13    1    4    4    0    0 -0.26566920953E+03  0.25665101277E+03 -0.19630319855E+03  0.41831187908E+03  0.10566000000E+00 0.  1.
          4    1    4    4  502    0  0.28411455915E+03 -0.64235551869E+03 -0.31802637439E+03  0.77102689313E+03  0.00000000000E+00 0.  1.
         13    1    3    3    0    0 -0.30128567237E+03  0.24181656669E+03 -0.18941206081E+04  0.19331169642E+04  0.10566000000E+00 0. -1.
         -4    1    3    3    0  501  0.28284032275E+03  0.14388793923E+03 -0.10644176518E+03  0.33471216978E+03  0.00000000000E+00 0. -1.
<mgrwt>
<rscale>  0 0.10702272E+04</rscale>
<asrwt>0</asrwt>
<pdfrwt beam="1">  1        4 0.72482766E-01 0.10723767E+04</pdfrwt>
<pdfrwt beam="2">  1       -4 0.45938922E+00 0.10680820E+04</pdfrwt>
<totfact> 0.14787674E-01</totfact>
</mgrwt>
</event>
<event>
 8    1  0.3025584E-006  0.1249933E+04  0.7818608E-02  0.8573131E-01
          4   -1    0    0  502    0  0.00000000000E+00  0.00000000000E+00  0.26316571762E+04  0.26316571762E+04  0.00000000000E+00 0.  1.
         -4   -1    0    0    0  501 -0.00000000000E+00 -0.00000000000E+00 -0.68179124207E+03  0.68179124207E+03  0.00000000000E+00 0. -1.
   -9000010    2    1    2    0  501 -0.70131222702E+02 -0.72325619379E+03  0.36807500761E+03  0.13030013443E+04  0.10170129703E+04 0.  0.
    9000010    2    1    2  502    0  0.70131222702E+02  0.72325619379E+03  0.15817909266E+04  0.20104470740E+04  0.10058911431E+04 0.  0.
        -13    1    4    4    0    0 -0.19823032353E+03  0.75470881763E+03  0.15538944141E+04  0.17388123883E+04  0.10566000000E+00 0.  1.
          4    1    4    4  502    0  0.26836154623E+03 -0.31452623835E+02  0.27896512488E+02  0.27163468565E+03  0.00000000000E+00 0.  1.
         13    1    3    3    0    0 -0.28614315035E+03 -0.10504761802E+03 -0.25625395596E+03  0.39821979566E+03  0.10566000000E+00 0. -1.
         -4    1    3    3    0  501  0.21601192765E+03 -0.61820857577E+03  0.62432896357E+03  0.90478154866E+03  0.00000000000E+00 0. -1.
<mgrwt>
<rscale>  0 0.12454089E+04</rscale>
<asrwt>0</asrwt>
<pdfrwt beam="1">  1        4 0.40487033E+00 0.12409008E+04</pdfrwt>
<pdfrwt beam="2">  1       -4 0.10489096E+00 0.12499333E+04</pdfrwt>
<totfact> 0.12107872E-01</totfact>
</mgrwt>
</event>
<event>
 8    1  0.3025584E-006  0.1205798E+04  0.7818608E-02  0.8605754E-01
         -4   -1    0    0    0  501 -0.00000000000E+00  0.00000000000E+00  0.32603091428E+04  0.32603091428E+04  0.00000000000E+00 0. -1.
          4   -1    0    0  502    0  0.00000000000E+00 -0.00000000000E+00 -0.85879574115E+03  0.85879574115E+03  0.00000000000E+00 0.  1.
   -9000010    2    1    2    0  501 -0.42810023371E+03 -0.53106260856E+03  0.26371569729E+04  0.28997491028E+04  0.99430913452E+03 0.  0.
    9000010    2    1    2  502    0  0.42810023371E+03  0.53106260856E+03 -0.23564357126E+03  0.12193557812E+04  0.98285468108E+03 0.  0.
        -13    1    4    4    0    0 -0.25107923247E+02 -0.27178242769E+03 -0.79613860506E+02  0.28431404073E+03  0.10566000000E+00 0.  1.
          4    1    4    4  502    0  0.45320815695E+03  0.80284503624E+03 -0.15602971075E+03  0.93504174045E+03  0.00000000000E+00 0.  1.
         13    1    3    3    0    0  0.32166319233E+03 -0.17880450652E+03  0.65217827383E+03  0.74884896533E+03  0.10566000000E+00 0. -1.
         -4    1    3    3    0  501 -0.74976342604E+03 -0.35225810204E+03  0.19849786991E+04  0.21509001374E+04  0.00000000000E+00 0. -1.
<mgrwt>
<rscale>  0 0.12010745E+04</rscale>
<asrwt>0</asrwt>
<pdfrwt beam="2">  1        4 0.13212242E+00 0.11963698E+04</pdfrwt>
<pdfrwt beam="1">  1       -4 0.50158602E+00 0.12057976E+04</pdfrwt>
<totfact> 0.29716476E-02</totfact>
</mgrwt>
</event>
<event>
 8    1  0.3025584E-006  0.1064909E+04  0.7818608E-02  0.8717135E-01
         -4   -1    0    0    0  501 -0.00000000000E+00  0.00000000000E+00  0.99211737854E+03  0.99211737854E+03  0.00000000000E+00 0. -1.
          4   -1    0    0  502    0  0.00000000000E+00 -0.00000000000E+00 -0.13037141086E+04  0.13037141086E+04  0.00000000000E+00 0.  1.
   -9000010    2    1    2    0  501 -0.54575897377E+02  0.35226523698E+03  0.25121146711E+03  0.10913465681E+04  0.10004303098E+04 0.  0.
    9000010    2    1    2  502    0  0.54575897377E+02 -0.35226523698E+03 -0.56280819719E+03  0.12044849190E+04  0.10034747269E+04 0.  0.
        -13    1    4    4    0    0  0.18759189404E+03 -0.21273233287E+03 -0.82879636807E+03  0.87598470023E+03  0.10566000000E+00 0.  1.
          4    1    4    4  502    0 -0.13301599666E+03 -0.13953290412E+03  0.26598817088E+03  0.32850021879E+03  0.00000000000E+00 0.  1.
         13    1    3    3    0    0 -0.48886179401E+03  0.36946925617E+03  0.57376143593E+02  0.61545545567E+03  0.10566000000E+00 0. -1.
         -4    1    3    3    0  501  0.43428589663E+03 -0.17204019181E+02  0.19383532352E+03  0.47589111248E+03  0.00000000000E+00 0. -1.
<mgrwt>
<rscale>  0 0.10634737E+04</rscale>
<asrwt>0</asrwt>
<pdfrwt beam="2">  1        4 0.20057140E+00 0.10649088E+04</pdfrwt>
<pdfrwt beam="1">  1       -4 0.15263344E+00 0.10620406E+04</pdfrwt>
<totfact> 0.26302370E-01</totfact>
</mgrwt>
</event>
<event>
 8    1  0.3025584E-006  0.1376378E+04  0.7818608E-02  0.8545077E-01
         -4   -1    0    0    0  501 -0.00000000000E+00  0.00000000000E+00  0.16381892357E+04  0.16381892357E+04  0.00000000000E+00 0. -1.
          4   -1    0    0  502    0  0.00000000000E+00 -0.00000000000E+00 -0.11385032090E+04  0.11385032090E+04  0.00000000000E+00 0.  1.
   -9000010    2    1    2    0  501  0.62189431069E+03 -0.25236296477E+03  0.72523079308E+03  0.15557557931E+04  0.12016558513E+04 0.  0.
    9000010    2    1    2  502    0 -0.62189431069E+03  0.25236296477E+03 -0.22554476641E+03  0.12209366515E+04  0.99467394947E+03 0.  0.
        -13    1    4    4    0    0 -0.66494479162E+03 -0.39844229410E+02 -0.48804207422E+03  0.82578702817E+03  0.10566000000E+00 0.  1.
          4    1    4    4  502    0  0.43050480929E+02  0.29220719418E+03  0.26249730781E+03  0.39514962337E+03  0.00000000000E+00 0.  1.
         13    1    3    3    0    0  0.74966292791E+03 -0.37409421891E+03  0.95215845703E+03  0.12682849556E+04  0.10566000000E+00 0. -1.
         -4    1    3    3    0  501 -0.12776861722E+03  0.12173125414E+03 -0.22692766395E+03  0.28747083755E+03  0.00000000000E+00 0. -1.
<mgrwt>
<rscale>  0 0.12851257E+04</rscale>
<asrwt>0</asrwt>
<pdfrwt beam="2">  1        4 0.17515434E+00 0.11999233E+04</pdfrwt>
<pdfrwt beam="1">  1       -4 0.25202911E+00 0.13763780E+04</pdfrwt>
<totfact> 0.15914335E-01</totfact>
</mgrwt>
</event>
<event>
 8    1  0.3025584E-006  0.1108582E+04  0.7818608E-02  0.8750395E-01
          4   -1    0    0  502    0  0.00000000000E+00  0.00000000000E+00  0.88962019652E+03  0.88962019652E+03  0.00000000000E+00 0.  1.
         -4   -1    0    0    0  501 -0.00000000000E+00 -0.00000000000E+00 -0.17258425694E+04  0.17258425694E+04  0.00000000000E+00 0. -1.
   -9000010    2    1    2    0  501 -0.34072393788E+03 -0.34181632022E+03 -0.11670422113E+04  0.16096400124E+04  0.99800914218E+03 0.  0.
    9000010    2    1    2  502    0  0.34072393788E+03  0.34181632022E+03  0.33081983846E+03  0.10058227535E+04  0.81811151277E+03 0.  0.
        -13    1    4    4    0    0 -0.14544177542E+03  0.37089390356E+03 -0.30258697496E+02  0.39953873113E+03  0.10566000000E+00 0.  1.
          4    1    4    4  502    0  0.48616571331E+03 -0.29077583346E+02  0.36107853596E+03  0.60628402237E+03  0.00000000000E+00 0.  1.
         13    1    3    3    0    0 -0.47511236391E+03 -0.60677881780E+02 -0.88619427688E+02  0.48710058285E+03  0.10566000000E+00 0. -1.
         -4    1    3    3    0  501  0.13438842603E+03 -0.28113843844E+03 -0.10784227836E+04  0.11225394295E+04  0.00000000000E+00 0. -1.
<mgrwt>
<rscale>  0 0.10261577E+04</rscale>
<asrwt>0</asrwt>
<pdfrwt beam="1">  1        4 0.13686465E+00 0.94986191E+03</pdfrwt>
<pdfrwt beam="2">  1       -4 0.26551424E+00 0.11085817E+04</pdfrwt>
<totfact> 0.21359176E-01</totfact>
</mgrwt>
</event>
<event>
 8    1  0.3025584E-006  0.1125792E+04  0.7818608E-02  0.8689875E-01
         -4   -1    0    0    0  501 -0.00000000000E+00  0.00000000000E+00  0.21503868885E+04  0.21503868885E+04  0.00000000000E+00 0. -1.
          4   -1    0    0  502    0  0.00000000000E+00 -0.00000000000E+00 -0.57016138083E+03  0.57016138083E+03  0.00000000000E+00 0.  1.
   -9000010    2    1    2    0  501  0.41453565480E+02  0.51492421603E+03  0.96493458590E+03  0.14375870244E+04  0.93203666838E+03 0.  0.
    9000010    2    1    2  502    0 -0.41453565480E+02 -0.51492421603E+03  0.61529092173E+03  0.12829612449E+04  0.10002706090E+04 0.  0.
        -13    1    4    4    0    0 -0.20989463706E+03 -0.76947797021E+03  0.32352754627E+03  0.86071028208E+03  0.10566000000E+00 0.  1.
          4    1    4    4  502    0  0.16844107158E+03  0.25455375419E+03  0.29176337546E+03  0.42225096284E+03  0.00000000000E+00 0.  1.
         13    1    3    3    0    0 -0.42188398463E+03  0.40975986822E+03  0.58125423662E+03  0.82688919744E+03  0.10566000000E+00 0. -1.
         -4    1    3    3    0  501  0.46333755011E+03  0.10516434781E+03  0.38368034928E+03  0.61069782693E+03  0.00000000000E+00 0. -1.
<mgrwt>
<rscale>  0 0.10952955E+04</rscale>
<asrwt>0</asrwt>
<pdfrwt beam="2">  1        4 0.87717137E-01 0.11257916E+04</pdfrwt>
<pdfrwt beam="1">  1       -4 0.33082875E+00 0.10656255E+04</pdfrwt>
<totfact> 0.31908430E-01</totfact>
</mgrwt>
</event>
<event>
 8    1  0.3025584E-006  0.1424277E+04  0.7818608E-02  0.8456420E-01
          4   -1    0    0  502    0  0.00000000000E+00  0.00000000000E+00  0.32510902104E+04  0.32510902104E+04  0.00000000000E+00 0.  1.
         -4   -1    0    0    0  501 -0.00000000000E+00 -0.00000000000E+00 -0.91015346396E+03  0.91015346396E+03  0.00000000000E+00 0. -1.
   -9000010    2    1    2    0  501 -0.96065464372E+03 -0.26552134489E+03 -0.13207961269E+00  0.14242768989E+04  0.10174506073E+04 0.  0.
    9000010    2    1    2  502    0  0.96065464372E+03  0.26552134489E+03  0.23410688260E+04  0.27369667754E+04  0.10084765502E+04 0.  0.
        -13    1    4    4    0    0  0.11582499989E+04  0.11979813141E+03  0.20349901006E+04  0.23445851174E+04  0.10566000000E+00 0.  1.
          4    1    4    4  502    0 -0.19759535519E+03  0.14572321347E+03  0.30607872546E+03  0.39238165798E+03  0.00000000000E+00 0.  1.
         13    1    3    3    0    0 -0.41594453565E+03  0.16231101621E+03 -0.42110116426E+03  0.61374337017E+03  0.10566000000E+00 0. -1.
         -4    1    3    3    0  501 -0.54471010807E+03 -0.42783236109E+03  0.42096908465E+03  0.81053352877E+03  0.00000000000E+00 0. -1.
<mgrwt>
<rscale>  0 0.14210749E+04</rscale>
<asrwt>0</asrwt>
<pdfrwt beam="1">  1        4 0.50016772E+00 0.14178801E+04</pdfrwt>
<pdfrwt beam="2">  1       -4 0.14002361E+00 0.14242769E+04</pdfrwt>
<totfact> 0.27019550E-02</totfact>
</mgrwt>
</event>
<event>
 8    1  0.3025584E-006  0.1039624E+04  0.7818608E-02  0.8764885E-01
         -4   -1    0    0    0  501 -0.00000000000E+00  0.00000000000E+00  0.21890902264E+04  0.21890902264E+04  0.00000000000E+00 0. -1.
          4   -1    0    0  502    0  0.00000000000E+00 -0.00000000000E+00 -0.21103437405E+04  0.21103437405E+04  0.00000000000E+00 0.  1.
   -9000010    2    1    2    0  501 -0.28775754570E+03 -0.16012328204E+03  0.19361129580E+04  0.21709067948E+04  0.92512650758E+03 0.  0.
    9000010    2    1    2  502    0  0.28775754570E+03  0.16012328204E+03 -0.18573664722E+04  0.21285271721E+04  0.98609017834E+03 0.  0.
        -13    1    4    4    0    0  0.78025487853E+02  0.51574436356E+03 -0.14798497639E+04  0.15690874928E+04  0.10566000000E+00 0.  1.
          4    1    4    4  502    0  0.20973205785E+03 -0.35562108152E+03 -0.37751670833E+03  0.55943967930E+03  0.00000000000E+00 0.  1.
         13    1    3    3    0    0  0.16993166840E+03 -0.38503451036E+03  0.54044534165E+03  0.68498870397E+03  0.10566000000E+00 0. -1.
         -4    1    3    3    0  501 -0.45768921410E+03  0.22491122832E+03  0.13956676164E+04  0.14859180908E+04  0.00000000000E+00 0. -1.
<mgrwt>
<rscale>  0 0.10103957E+04</rscale>
<asrwt>0</asrwt>
<pdfrwt beam="2">  1        4 0.32466827E+00 0.10396238E+04</pdfrwt>
<pdfrwt beam="1">  1       -4 0.33678311E+00 0.98198927E+03</pdfrwt>
<totfact> 0.39227409E-02</totfact>
</mgrwt>
</event>
<event>
 8    1  0.3025584E-006  0.1031264E+04  0.7818608E-02  0.8752119E-01
         -4   -1    0    0    0  501 -0.00000000000E+00  0.00000000000E+00  0.21743580579E+04  0.21743580579E+04  0.00000000000E+00 0. -1.
          4   -1    0    0  502    0  0.00000000000E+00 -0.00000000000E+00 -0.54718754842E+03  0.54718754842E+03  0.00000000000E+00 0.  1.
   -9000010    2    1    2    0  501  0.10553259046E+03  0.20806186918E+03  0.12764920186E+04  0.16322889615E+04  0.99020629728E+03 0.  0.
    9000010    2    1    2  502    0 -0.10553259046E+03 -0.20806186918E+03  0.35067849086E+03  0.10892566448E+04  0.10045286284E+04 0.  0.
        -13    1    4    4    0    0 -0.32133053730E+03 -0.17831001170E+03 -0.25387426871E+03  0.44665415027E+03  0.10566000000E+00 0.  1.
          4    1    4    4  502    0  0.21579794684E+03 -0.29751857479E+02  0.60455275957E+03  0.64260249454E+03  0.00000000000E+00 0.  1.
         13    1    3    3    0    0 -0.34510621839E+03  0.39886068070E+03  0.68808638001E+03  0.86697809782E+03  0.10566000000E+00 0. -1.
         -4    1    3    3    0  501  0.45063880885E+03 -0.19079881152E+03  0.58840563861E+03  0.76531086368E+03  0.00000000000E+00 0. -1.
<mgrwt>
<rscale>  0 0.10242669E+04</rscale>
<asrwt>0</asrwt>
<pdfrwt beam="2">  1        4 0.84182701E-01 0.10312636E+04</pdfrwt>
<pdfrwt beam="1">  1       -4 0.33451662E+00 0.10173177E+04</pdfrwt>
<totfact> 0.33949783E-01</totfact>
</mgrwt>
</event>
<event>
 8    1  0.3025584E-006  0.1154555E+04  0.7818608E-02  0.8660936E-01
          4   -1    0    0  502    0  0.00000000000E+00  0.00000000000E+00  0.13443825787E+04  0.13443825787E+04  0.00000000000E+00 0.  1.
         -4   -1    0    0    0  501 -0.00000000000E+00 -0.00000000000E+00 -0.11494939952E+04  0.11494939952E+04  0.00000000000E+00 0. -1.
   -9000010    2    1    2    0  501 -0.17056463071E+02 -0.57902228177E+03 -0.41913718443E+03  0.12282805338E+04  0.99871886167E+03 0.  0.
    9000010    2    1    2  502    0  0.17056463071E+02  0.57902228177E+03  0.61402576799E+03  0.12655960401E+04  0.94294642863E+03 0.  0.
        -13    1    4    4    0    0 -0.45603811184E+03  0.19456019744E+03  0.24564995879E+03  0.55332480813E+03  0.10566000000E+00 0.  1.
          4    1    4    4  502    0  0.47309457491E+03  0.38446208433E+03  0.36837580920E+03  0.71227123198E+03  0.00000000000E+00 0.  1.
         13    1    3    3    0    0  0.27534192067E+03 -0.76135416568E+03 -0.28005953026E+03  0.85668354165E+03  0.10566000000E+00 0. -1.
         -4    1    3    3    0  501 -0.29239838374E+03  0.18233188391E+03 -0.13907765417E+03  0.37159699217E+03  0.00000000000E+00 0. -1.
<mgrwt>
<rscale>  0 0.11303560E+04</rscale>
<asrwt>0</asrwt>
<pdfrwt beam="1">  1        4 0.20682809E+00 0.11066642E+04</pdfrwt>
<pdfrwt beam="2">  1       -4 0.17684523E+00 0.11545549E+04</pdfrwt>
<totfact> 0.20521167E-01</totfact>
</mgrwt>
</event>
<event>
 8    1  0.3025584E-006  0.1306905E+04  0.7818608E-02  0.8531867E-01
          4   -1    0    0  502    0  0.00000000000E+00  0.00000000000E+00  0.13317263021E+04  0.13317263021E+04  0.00000000000E+00 0.  1.
         -4   -1    0    0    0  501 -0.00000000000E+00 -0.00000000000E+00 -0.14333707125E+04  0.14333707125E+04  0.00000000000E+00 0. -1.
   -9000010    2    1    2    0  501 -0.78567585539E+03 -0.26758321705E+03 -0.50674361338E+03  0.14017099358E+04  0.10095119249E+04 0.  0.
    9000010    2    1    2  502    0  0.78567585539E+03  0.26758321705E+03  0.40509920300E+03  0.13633870788E+04  0.10029115787E+04 0.  0.
        -13    1    4    4    0    0  0.34617671250E+03 -0.35901269342E+03  0.28035354832E+01  0.49873470030E+03  0.10566000000E+00 0.  1.
          4    1    4    4  502    0  0.43949914289E+03  0.62659591047E+03  0.40229566752E+03  0.86465237855E+03  0.00000000000E+00 0.  1.
         13    1    3    3    0    0 -0.59535046532E+03 -0.40090455479E+03  0.12502671309E+03  0.72855907705E+03  0.10566000000E+00 0. -1.
         -4    1    3    3    0  501 -0.19032539007E+03  0.13332133774E+03 -0.63177032647E+03  0.67315085873E+03  0.00000000000E+00 0. -1.
<mgrwt>
<rscale>  0 0.13043571E+04</rscale>
<asrwt>0</asrwt>
<pdfrwt beam="1">  1        4 0.20488097E+00 0.13018137E+04</pdfrwt>
<pdfrwt beam="2">  1       -4 0.22051857E+00 0.13069054E+04</pdfrwt>
<totfact> 0.15424378E-01</totfact>
</mgrwt>
</event>
<event>
 8    1  0.3025584E-006  0.1154510E+04  0.7818608E-02  0.8650293E-01
         -4   -1    0    0    0  501 -0.00000000000E+00  0.00000000000E+00  0.10409948371E+04  0.10409948371E+04  0.00000000000E+00 0. -1.
          4   -1    0    0  502    0  0.00000000000E+00 -0.00000000000E+00 -0.15838178081E+04  0.15838178081E+04  0.00000000000E+00 0.  1.
   -9000010    2    1    2    0  501  0.13600303774E+02  0.54752186342E+03  0.32731322925E+03  0.11791190159E+04  0.99157578860E+03 0.  0.
    9000010    2    1    2  502    0 -0.13600303774E+02 -0.54752186342E+03 -0.87013620027E+03  0.14456936292E+04  0.10163306073E+04 0.  0.
        -13    1    4    4    0    0 -0.52772949926E+02 -0.61589624634E+03 -0.48244347087E+02  0.62003282065E+03  0.10566000000E+00 0.  1.
          4    1    4    4  502    0  0.39172646151E+02  0.68374382917E+02 -0.82189185318E+03  0.82566080855E+03  0.00000000000E+00 0.  1.
         13    1    3    3    0    0 -0.43924022006E+03  0.34618385722E+03 -0.42333730357E+02  0.56086307581E+03  0.10566000000E+00 0. -1.
         -4    1    3    3    0  501  0.45284052383E+03  0.20133800620E+03  0.36964695961E+03  0.61825594014E+03  0.00000000000E+00 0. -1.
<mgrwt>
<rscale>  0 0.11435927E+04</rscale>
<asrwt>0</asrwt>
<pdfrwt beam="2">  1        4 0.24366428E+00 0.11545099E+04</pdfrwt>
<pdfrwt beam="1">  1       -4 0.16015305E+00 0.11327788E+04</pdfrwt>
<totfact> 0.19037938E-01</totfact>
</mgrwt>
</event>
<event>
 8    1  0.3025584E-006  0.1070427E+04  0.7818608E-02  0.8716877E-01
         -4   -1    0    0    0  501 -0.00000000000E+00  0.00000000000E+00  0.25381832723E+04  0.25381832723E+04  0.00000000000E+00 0. -1.
          4   -1    0    0  502    0  0.00000000000E+00 -0.00000000000E+00 -0.58542309734E+03  0.58542309734E+03  0.00000000000E+00 0.  1.
   -9000010    2    1    2    0  501 -0.16182937072E+03  0.24859753843E+03  0.17435984906E+04  0.20459593641E+04  0.10285059755E+04 0.  0.
    9000010    2    1    2  502    0  0.16182937072E+03 -0.24859753843E+03  0.20916168433E+03  0.10776470056E+04  0.10146846688E+04 0.  0.
        -13    1    4    4    0    0 -0.18877069348E+03 -0.54658734814E+03  0.21648309753E+03  0.61746015786E+03  0.10566000000E+00 0.  1.
          4    1    4    4  502    0  0.35060006421E+03  0.29798980971E+03 -0.73214131927E+01  0.46018684771E+03  0.00000000000E+00 0.  1.
         13    1    3    3    0    0 -0.33260459362E+03 -0.32505599875E+03  0.64934457305E+03  0.79870871019E+03  0.10566000000E+00 0. -1.
         -4    1    3    3    0  501  0.17077522290E+03  0.57365353718E+03  0.10942539176E+04  0.12472506539E+04  0.00000000000E+00 0. -1.
<mgrwt>
<rscale>  0 0.10637698E+04</rscale>
<asrwt>0</asrwt>
<pdfrwt beam="2">  1        4 0.90065093E-01 0.10571539E+04</pdfrwt>
<pdfrwt beam="1">  1       -4 0.39048973E+00 0.10704270E+04</pdfrwt>
<totfact> 0.18740073E-01</totfact>
</mgrwt>
</event>
<event>
 8    1  0.3025584E-006  0.1049154E+04  0.7818608E-02  0.8730773E-01
          4   -1    0    0  502    0  0.00000000000E+00  0.00000000000E+00  0.15127707896E+04  0.15127707896E+04  0.00000000000E+00 0.  1.
         -4   -1    0    0    0  501 -0.00000000000E+00 -0.00000000000E+00 -0.25529332617E+04  0.25529332617E+04  0.00000000000E+00 0. -1.
   -9000010    2    1    2    0  501  0.11992032951E+03  0.28018738904E+03 -0.22395980525E+04  0.24721642727E+04  0.10014543904E+04 0.  0.
    9000010    2    1    2  502    0 -0.11992032951E+03 -0.28018738904E+03  0.11994355804E+04  0.15935397787E+04  0.10039110798E+04 0.  0.
        -13    1    4    4    0    0 -0.40743880758E+03 -0.82814990368E+02  0.83093755866E+02  0.42399208481E+03  0.10566000000E+00 0.  1.
          4    1    4    4  502    0  0.28751847807E+03 -0.19737239867E+03  0.11163418245E+04  0.11695476938E+04  0.00000000000E+00 0.  1.
         13    1    3    3    0    0  0.10489904308E+03  0.48707117515E+03 -0.45244756634E+03  0.67301630765E+03  0.10566000000E+00 0. -1.
         -4    1    3    3    0  501  0.15021286428E+02 -0.20688378612E+03 -0.17871504861E+04  0.17991479650E+04  0.00000000000E+00 0. -1.
<mgrwt>
<rscale>  0 0.10479777E+04</rscale>
<asrwt>0</asrwt>
<pdfrwt beam="1">  1        4 0.23273397E+00 0.10491536E+04</pdfrwt>
<pdfrwt beam="2">  1       -4 0.39275896E+00 0.10468031E+04</pdfrwt>
<totfact> 0.42184107E-02</totfact>
</mgrwt>
</event>
<event>
 8    1  0.3025584E-006  0.1069197E+04  0.7818608E-02  0.8719726E-01
          4   -1    0    0  502    0  0.00000000000E+00  0.00000000000E+00  0.31635265939E+04  0.31635265939E+04  0.00000000000E+00 0.  1.
         -4   -1    0    0    0  501 -0.00000000000E+00 -0.00000000000E+00 -0.52617498334E+03  0.52617498334E+03  0.00000000000E+00 0. -1.
   -9000010    2    1    2    0  501 -0.19472685114E+03 -0.25979498575E+03  0.27538119017E+03  0.11040914931E+04  0.10187105792E+04 0.  0.
    9000010    2    1    2  502    0  0.19472685114E+03  0.25979498575E+03  0.23619704204E+04  0.25856100841E+04  0.10005314883E+04 0.  0.
        -13    1    4    4    0    0 -0.21057123788E+03 -0.21301475667E+03  0.14544394216E+04  0.14849611359E+04  0.10566000000E+00 0.  1.
          4    1    4    4  502    0  0.40529808902E+03  0.47280974242E+03  0.90753099873E+03  0.11006489482E+04  0.00000000000E+00 0.  1.
         13    1    3    3    0    0 -0.49392894904E+02 -0.18078233672E+02 -0.38365250645E+03  0.38724118772E+03  0.10566000000E+00 0. -1.
         -4    1    3    3    0  501 -0.14533395624E+03 -0.24171675208E+03  0.65903369662E+03  0.71685030540E+03  0.00000000000E+00 0. -1.
<mgrwt>
<rscale>  0 0.10605091E+04</rscale>
<asrwt>0</asrwt>
<pdfrwt beam="1">  1        4 0.48669639E+00 0.10518913E+04</pdfrwt>
<pdfrwt beam="2">  1       -4 0.80949999E-01 0.10691975E+04</pdfrwt>
<totfact> 0.87905626E-02</totfact>
</mgrwt>
</event>
<event>
 8    1  0.3025584E-006  0.1012947E+04  0.7818608E-02  0.8764940E-01
          4   -1    0    0  502    0  0.00000000000E+00  0.00000000000E+00  0.67684963994E+03  0.67684963994E+03  0.00000000000E+00 0.  1.
         -4   -1    0    0    0  501 -0.00000000000E+00 -0.00000000000E+00 -0.20059507666E+04  0.20059507666E+04  0.00000000000E+00 0. -1.
   -9000010    2    1    2    0  501  0.10459692030E+03 -0.14683484049E+03 -0.13340720958E+04  0.16750553172E+04  0.99677528704E+03 0.  0.
    9000010    2    1    2  502    0 -0.10459692030E+03  0.14683484049E+03  0.49709691070E+01  0.10077450894E+04  0.99147590412E+03 0.  0.
        -13    1    4    4    0    0  0.39672964780E+03 -0.32718517836E+02  0.19380076455E+03  0.44274559553E+03  0.10566000000E+00 0.  1.
          4    1    4    4  502    0 -0.50132656810E+03  0.17955335832E+03 -0.18882979545E+03  0.56499949382E+03  0.00000000000E+00 0.  1.
         13    1    3    3    0    0 -0.82740948342E+02  0.33565096288E+03 -0.13878022572E+03  0.37251522872E+03  0.10566000000E+00 0. -1.
         -4    1    3    3    0  501  0.18733786864E+03 -0.48248580336E+03 -0.11952918701E+04  0.13025400885E+04  0.00000000000E+00 0. -1.
<mgrwt>
<rscale>  0 0.10103366E+04</rscale>
<asrwt>0</asrwt>
<pdfrwt beam="1">  1        4 0.10413071E+00 0.10077328E+04</pdfrwt>
<pdfrwt beam="2">  1       -4 0.30860781E+00 0.10129472E+04</pdfrwt>
<totfact> 0.26405197E-01</totfact>
</mgrwt>
</event>
<event>
 8    1  0.3025584E-006  0.1194704E+04  0.7818608E-02  0.8680909E-01
          4   -1    0    0  502    0  0.00000000000E+00  0.00000000000E+00  0.36460898648E+04  0.36460898648E+04  0.00000000000E+00 0.  1.
         -4   -1    0    0    0  501 -0.00000000000E+00 -0.00000000000E+00 -0.33959899613E+03  0.33959899613E+03  0.00000000000E+00 0. -1.
   -9000010    2    1    2    0  501  0.25075051570E+03  0.66952314293E+03  0.16829048812E+04  0.19699135060E+04  0.73297566251E+03 0.  0.
    9000010    2    1    2  502    0 -0.25075051570E+03 -0.66952314293E+03  0.16235859875E+04  0.20157753550E+04  0.95717384152E+03 0.  0.
        -13    1    4    4    0    0  0.32028298061E+03 -0.20518337295E+03  0.24330561638E+03  0.45152966495E+03  0.10566000000E+00 0.  1.
          4    1    4    4  502    0 -0.57103349630E+03 -0.46433976998E+03  0.13802803711E+04  0.15642456900E+04  0.00000000000E+00 0.  1.
         13    1    3    3    0    0 -0.51670589031E+02  0.20821949157E+03  0.12512145908E+04  0.12694735798E+04  0.10566000000E+00 0. -1.
         -4    1    3    3    0  501  0.30242110473E+03  0.46130365137E+03  0.43169029040E+03  0.70043992617E+03  0.00000000000E+00 0. -1.
<mgrwt>
<rscale>  0 0.11060150E+04</rscale>
<asrwt>0</asrwt>
<pdfrwt beam="1">  1        4 0.56093687E+00 0.11947045E+04</pdfrwt>
<pdfrwt beam="2">  1       -4 0.52246002E-01 0.10239094E+04</pdfrwt>
<totfact> 0.94664526E-02</totfact>
</mgrwt>
</event>
<event>
 8    1  0.3025584E-006  0.1317690E+04  0.7818608E-02  0.8527850E-01
          4   -1    0    0  502    0  0.00000000000E+00  0.00000000000E+00  0.26920998963E+04  0.26920998963E+04  0.00000000000E+00 0.  1.
         -4   -1    0    0    0  501 -0.00000000000E+00 -0.00000000000E+00 -0.13557954810E+04  0.13557954810E+04  0.00000000000E+00 0. -1.
   -9000010    2    1    2    0  501  0.29670243994E+03 -0.80053813274E+03 -0.80653311330E+03  0.15323318542E+04  0.98420100021E+03 0.  0.
    9000010    2    1    2  502    0 -0.29670243994E+03  0.80053813274E+03  0.21428375285E+04  0.25155635231E+04  0.10036999179E+04 0.  0.
        -13    1    4    4    0    0  0.49858921643E+02  0.79537216731E+03  0.19765008485E+04  0.21311167054E+04  0.10566000000E+00 0.  1.
          4    1    4    4  502    0 -0.34656136158E+03  0.51659654329E+01  0.16633668003E+03  0.38444681773E+03  0.00000000000E+00 0.  1.
         13    1    3    3    0    0  0.58951604191E+03 -0.79619390791E+03 -0.72719539535E+03  0.12289292318E+04  0.10566000000E+00 0. -1.
         -4    1    3    3    0  501 -0.29281360197E+03 -0.43442248308E+01 -0.79337717947E+02  0.30340262240E+03  0.00000000000E+00 0. -1.
<mgrwt>
<rscale>  0 0.13102736E+04</rscale>
<asrwt>0</asrwt>
<pdfrwt beam="1">  1        4 0.41416921E+00 0.13176901E+04</pdfrwt>
<pdfrwt beam="2">  1       -4 0.20858392E+00 0.13028988E+04</pdfrwt>
<totfact> 0.38718462E-02</totfact>
</mgrwt>
</event>
<event>
 8    1  0.3025584E-006  0.1275216E+04  0.7818608E-02  0.8554466E-01
         -4   -1    0    0    0  501 -0.00000000000E+00  0.00000000000E+00  0.13532304155E+04  0.13532304155E+04  0.00000000000E+00 0. -1.
          4   -1    0    0  502    0  0.00000000000E+00 -0.00000000000E+00 -0.14128311324E+04  0.14128311324E+04  0.00000000000E+00 0.  1.
   -9000010    2    1    2    0  501 -0.17250513000E+03 -0.79095903102E+03  0.51329375077E+03  0.13680685475E+04  0.97609777562E+03 0.  0.
    9000010    2    1    2  502    0  0.17250513000E+03  0.79095903102E+03 -0.57289446770E+03  0.13979930004E+04  0.98529292566E+03 0.  0.
        -13    1    4    4    0    0  0.48866147440E+03  0.62739112120E+03 -0.93247315365E+02  0.80069015762E+03  0.10566000000E+00 0.  1.
          4    1    4    4  502    0 -0.31615634440E+03  0.16356790982E+03 -0.47964715234E+03  0.59730284276E+03  0.00000000000E+00 0.  1.
         13    1    3    3    0    0  0.29231242986E+03 -0.27486911855E+03  0.54029339397E+03  0.67299075158E+03  0.10566000000E+00 0. -1.
         -4    1    3    3    0  501 -0.46481755986E+03 -0.51608991247E+03 -0.26999643197E+02  0.69507779596E+03  0.00000000000E+00 0. -1.
<mgrwt>
<rscale>  0 0.12716657E+04</rscale>
<asrwt>0</asrwt>
<pdfrwt beam="2">  1        4 0.21735864E+00 0.12752162E+04</pdfrwt>
<pdfrwt beam="1">  1       -4 0.20818930E+00 0.12681250E+04</pdfrwt>
<totfact> 0.15409605E-01</totfact>
</mgrwt>
</event>
<event>
 8    1  0.3025584E-006  0.1055151E+04  0.7818608E-02  0.8726261E-01
         -4   -1    0    0    0  501 -0.00000000000E+00  0.00000000000E+00  0.22704062863E+04  0.22704062863E+04  0.00000000000E+00 0. -1.
          4   -1    0    0  502    0  0.00000000000E+00 -0.00000000000E+00 -0.14788664590E+04  0.14788664590E+04  0.00000000000E+00 0.  1.
   -9000010    2    1    2    0  501  0.30960493793E+03  0.11414039586E+03  0.19301578866E+04  0.21997393661E+04  0.10022278005E+04 0.  0.
    9000010    2    1    2  502    0 -0.30960493793E+03 -0.11414039586E+03 -0.11386180592E+04  0.15495333792E+04  0.99785738510E+03 0.  0.
        -13    1    4    4    0    0 -0.19990885826E+02 -0.83059098837E+02 -0.12386239267E+04  0.12415666282E+04  0.10566000000E+00 0.  1.
          4    1    4    4  502    0 -0.28961405210E+03 -0.31081297020E+02  0.10000586746E+03  0.30796675101E+03  0.00000000000E+00 0.  1.
         13    1    3    3    0    0  0.58106360712E+03 -0.21704835335E+03  0.10184112330E+04  0.11924371488E+04  0.10566000000E+00 0. -1.
         -4    1    3    3    0  501 -0.27145866919E+03  0.33118874920E+03  0.91174665353E+03  0.10073022173E+04  0.00000000000E+00 0. -1.
<mgrwt>
<rscale>  0 0.10530739E+04</rscale>
<asrwt>0</asrwt>
<pdfrwt beam="2">  1        4 0.22751792E+00 0.10510008E+04</pdfrwt>
<pdfrwt beam="1">  1       -4 0.34929328E+00 0.10551511E+04</pdfrwt>
<totfact> 0.62731697E-02</totfact>
</mgrwt>
</event>
<event>
 8    1  0.3025584E-006  0.1242679E+04  0.7818608E-02  0.8581877E-01
          4   -1    0    0  502    0  0.00000000000E+00  0.00000000000E+00  0.27428443619E+04  0.27428443619E+04  0.00000000000E+00 0.  1.
         -4   -1    0    0    0  501 -0.00000000000E+00 -0.00000000000E+00 -0.11003430547E+04  0.11003430547E+04  0.00000000000E+00 0. -1.
   -9000010    2    1    2    0  501  0.33957908333E+03 -0.63059039218E+03 -0.52889174971E+03  0.13505474249E+04  0.10155263006E+04 0.  0.
    9000010    2    1    2  502    0 -0.33957908333E+03  0.63059039218E+03  0.21713930569E+04  0.24926399918E+04  0.99264702913E+03 0.  0.
        -13    1    4    4    0    0 -0.39785743699E+03  0.46559842357E+03  0.22264937887E+04  0.23091875269E+04  0.10566000000E+00 0.  1.
          4    1    4    4  502    0  0.58278353664E+02  0.16499196862E+03 -0.55100731796E+02  0.18345246485E+03  0.00000000000E+00 0.  1.
         13    1    3    3    0    0 -0.19178543362E+03  0.64130379874E+02 -0.42385992240E+03  0.46962921880E+03  0.10566000000E+00 0. -1.
         -4    1    3    3    0  501  0.53136451695E+03 -0.69472077206E+03 -0.10503182732E+03  0.88091820605E+03  0.00000000000E+00 0. -1.
<mgrwt>
<rscale>  0 0.12333311E+04</rscale>
<asrwt>0</asrwt>
<pdfrwt beam="1">  1        4 0.42197605E+00 0.12240532E+04</pdfrwt>
<pdfrwt beam="2">  1       -4 0.16928355E+00 0.12426793E+04</pdfrwt>
<totfact> 0.48027948E-02</totfact>
</mgrwt>
</event>
<event>
 8    1  0.3025584E-006  0.1183285E+04  0.7818608E-02  0.8625756E-01
          4   -1    0    0  502    0  0.00000000000E+00  0.00000000000E+00  0.23593398133E+04  0.23593398133E+04  0.00000000000E+00 0.  1.
         -4   -1    0    0    0  501 -0.00000000000E+00 -0.00000000000E+00 -0.31917479507E+04  0.31917479507E+04  0.00000000000E+00 0. -1.
   -9000010    2    1    2    0  501 -0.51684814229E+02 -0.59945800368E+03 -0.29250413206E+04  0.31553177079E+04  0.10188924834E+04 0.  0.
    9000010    2    1    2  502    0  0.51684814229E+02  0.59945800368E+03  0.20926331833E+04  0.23957700561E+04  0.99928939930E+03 0.  0.
        -13    1    4    4    0    0  0.21379740582E+03  0.69503207828E+03  0.20841783703E+04  0.22073917666E+04  0.10566000000E+00 0.  1.
          4    1    4    4  502    0 -0.16211259159E+03 -0.95574074600E+02  0.84548129405E+01  0.18837828949E+03  0.00000000000E+00 0.  1.
         13    1    3    3    0    0  0.21106758361E+03  0.19413299317E+03 -0.37714748327E+03  0.47379043805E+03  0.10566000000E+00 0. -1.
         -4    1    3    3    0  501 -0.26275239784E+03 -0.79359099686E+03 -0.25478938373E+04  0.26815272699E+04  0.00000000000E+00 0. -1.
<mgrwt>
<rscale>  0 0.11748362E+04</rscale>
<asrwt>0</asrwt>
<pdfrwt beam="1">  1        4 0.36297536E+00 0.11664478E+04</pdfrwt>
<pdfrwt beam="2">  1       -4 0.49103814E+00 0.11832849E+04</pdfrwt>
<totfact> 0.66686417E-03</totfact>
</mgrwt>
</event>
<event>
 8    1  0.3025584E-006  0.1061748E+04  0.7818608E-02  0.8739935E-01
         -4   -1    0    0    0  501 -0.00000000000E+00  0.00000000000E+00  0.29437208244E+04  0.29437208244E+04  0.00000000000E+00 0. -1.
          4   -1    0    0  502    0  0.00000000000E+00 -0.00000000000E+00 -0.19367461443E+04  0.19367461443E+04  0.00000000000E+00 0.  1.
   -9000010    2    1    2    0  501  0.12609614552E+03  0.14795956191E+03  0.26987916044E+04  0.28830804314E+04  0.99543175563E+03 0.  0.
    9000010    2    1    2  502    0 -0.12609614552E+03 -0.14795956191E+03 -0.16918169243E+04  0.19973865373E+04  0.10437989290E+04 0.  0.
        -13    1    4    4    0    0  0.18476471171E+03 -0.25305383124E+03 -0.16345151023E+04  0.16642757797E+04  0.10566000000E+00 0.  1.
          4    1    4    4  502    0 -0.31086085723E+03  0.10509426933E+03 -0.57301822014E+02  0.33311075758E+03  0.00000000000E+00 0.  1.
         13    1    3    3    0    0 -0.27533874759E+03 -0.14142160743E+03  0.20170679835E+04  0.20406799745E+04  0.10566000000E+00 0. -1.
         -4    1    3    3    0  501  0.40143489311E+03  0.28938116934E+03  0.68172362095E+03  0.84240045699E+03  0.00000000000E+00 0. -1.
<mgrwt>
<rscale>  0 0.10377205E+04</rscale>
<asrwt>0</asrwt>
<pdfrwt beam="2">  1        4 0.29796094E+00 0.10617478E+04</pdfrwt>
<pdfrwt beam="1">  1       -4 0.45288013E+00 0.10142370E+04</pdfrwt>
<totfact> 0.16257609E-02</totfact>
</mgrwt>
</event>
<event>
 8    1  0.3025584E-006  0.1065210E+04  0.7818608E-02  0.8729385E-01
         -4   -1    0    0    0  501 -0.00000000000E+00  0.00000000000E+00  0.32714480720E+04  0.32714480720E+04  0.00000000000E+00 0.  1.
          4   -1    0    0  502    0  0.00000000000E+00 -0.00000000000E+00 -0.40218093763E+03  0.40218093763E+03  0.00000000000E+00 0. -1.
   -9000010    2    1    2    0  501 -0.17201913356E+03  0.23982617615E+03  0.21574332635E+04  0.23924651880E+04  0.99109243359E+03 0.  0.
    9000010    2    1    2  502    0  0.17201913356E+03 -0.23982617615E+03  0.71183387085E+03  0.12811638217E+04  0.10235067666E+04 0.  0.
        -13    1    4    4    0    0 -0.42812495293E+03 -0.13741634832E+03  0.37427718471E+03  0.58502790554E+03  0.10566000000E+00 0.  1.
          4    1    4    4  502    0  0.60014408649E+03 -0.10240982783E+03  0.33755668614E+03  0.69613591614E+03  0.00000000000E+00 0.  1.
         13    1    3    3    0    0 -0.51475737861E+03 -0.95859551436E+02  0.83381079476E+03  0.98458349827E+03  0.10566000000E+00 0. -1.
         -4    1    3    3    0  501  0.34273824505E+03  0.33568572759E+03  0.13236224688E+04  0.14078816897E+04  0.00000000000E+00 0. -1.
<mgrwt>
<rscale>  0 0.10495421E+04</rscale>
<asrwt>0</asrwt>
<pdfrwt beam="2">  1        4 0.61873992E-01 0.10652104E+04</pdfrwt>
<pdfrwt beam="1">  1       -4 0.50329969E+00 0.10341041E+04</pdfrwt>
<totfact> 0.12914358E-01</totfact>
</mgrwt>
</event>
<event>
 8    1  0.3025584E-006  0.1611936E+04  0.7818608E-02  0.8381829E-01
          4   -1    0    0  502    0  0.00000000000E+00  0.00000000000E+00  0.27765851649E+04  0.27765851649E+04  0.00000000000E+00 0.  1.
         -4   -1    0    0    0  501 -0.00000000000E+00 -0.00000000000E+00 -0.11625287518E+04  0.11625287518E+04  0.00000000000E+00 0. -1.
   -9000010    2    1    2    0  501 -0.63866866433E+02  0.11221104279E+04 -0.16393759716E+03  0.16202512325E+04  0.11554772744E+04 0.  0.
    9000010    2    1    2  502    0  0.63866866433E+02 -0.11221104279E+04  0.17779940102E+04  0.23188626842E+04  0.97603824671E+03 0.  0.
        -13    1    4    4    0    0  0.64278107335E+02 -0.10050721784E+04  0.68126072030E+03  0.12159021092E+04  0.10566000000E+00 0.  1.
          4    1    4    4  502    0 -0.41124090245E+00 -0.11703824946E+03  0.10967332899E+04  0.11029605751E+04  0.00000000000E+00 0.  1.
         13    1    3    3    0    0 -0.18493021764E+03  0.13253564719E+04 -0.10422522986E+02  0.13382367516E+04  0.10566000000E+00 0. -1.
         -4    1    3    3    0  501  0.12106335120E+03 -0.20324604407E+03 -0.15351507418E+03  0.28201448090E+03  0.00000000000E+00 0. -1.
<mgrwt>
<rscale>  0 0.15490291E+04</rscale>
<asrwt>0</asrwt>
<pdfrwt beam="1">  1        4 0.42716695E+00 0.14885770E+04</pdfrwt>
<pdfrwt beam="2">  1       -4 0.17885058E+00 0.16119363E+04</pdfrwt>
<totfact> 0.41227172E-02</totfact>
</mgrwt>
</event>
<event>
 8    1  0.3025584E-006  0.1007589E+04  0.7818608E-02  0.8768383E-01
         -4   -1    0    0    0  501 -0.00000000000E+00  0.00000000000E+00  0.33583320254E+04  0.33583320254E+04  0.00000000000E+00 0. -1.
          4   -1    0    0  502    0  0.00000000000E+00 -0.00000000000E+00 -0.14990143751E+04  0.14990143751E+04  0.00000000000E+00 0.  1.
   -9000010    2    1    2    0  501  0.11488065268E+03 -0.17255308420E+02  0.31003604950E+04  0.32599801501E+04  0.10008696568E+04 0.  0.
    9000010    2    1    2  502    0 -0.11488065268E+03  0.17255308420E+02 -0.12410428447E+04  0.15973662505E+04  0.99894758904E+03 0.  0.
        -13    1    4    4    0    0  0.44348248692E+03  0.23090040376E+02 -0.61349342429E+03  0.75735332506E+03  0.10566000000E+00 0.  1.
          4    1    4    4  502    0 -0.55836313960E+03 -0.58347319559E+01 -0.62754942044E+03  0.84001292541E+03  0.00000000000E+00 0.  1.
         13    1    3    3    0    0  0.34316955701E+03  0.35146388857E+03  0.22771184905E+04  0.23294979804E+04  0.10566000000E+00 0. -1.
         -4    1    3    3    0  501 -0.22828890433E+03 -0.36871919699E+03  0.82324200454E+03  0.93048216969E+03  0.00000000000E+00 0. -1.
<mgrwt>
<rscale>  0 0.10066338E+04</rscale>
<asrwt>0</asrwt>
<pdfrwt beam="2">  1        4 0.23061760E+00 0.10056797E+04</pdfrwt>
<pdfrwt beam="1">  1       -4 0.51666646E+00 0.10075889E+04</pdfrwt>
<totfact> 0.11965000E-02</totfact>
</mgrwt>
</event>
<event>
 8    1  0.3025584E-006  0.1052274E+04  0.7818608E-02  0.8730966E-01
         -4   -1    0    0    0  501 -0.00000000000E+00  0.00000000000E+00  0.16629534462E+04  0.16629534462E+04  0.00000000000E+00 0. -1.
          4   -1    0    0  502    0  0.00000000000E+00 -0.00000000000E+00 -0.25693324852E+04  0.25693324852E+04  0.00000000000E+00 0.  1.
   -9000010    2    1    2    0  501  0.22238526049E+03 -0.20938891036E+03  0.13704407588E+04  0.17278274172E+04  0.10069661318E+04 0.  0.
    9000010    2    1    2  502    0 -0.22238526049E+03  0.20938891036E+03 -0.22768197977E+04  0.25044585141E+04  0.99754956665E+03 0.  0.
        -13    1    4    4    0    0 -0.42610764190E+03 -0.27433911404E+03 -0.93265229000E+03  0.10614471146E+04  0.10566000000E+00 0.  1.
          4    1    4    4  502    0  0.20372238141E+03  0.48372802440E+03 -0.13441675077E+04  0.14430113995E+04  0.00000000000E+00 0.  1.
         13    1    3    3    0    0  0.39546830955E+03 -0.36393237603E+03  0.26672957260E+03  0.59998886177E+03  0.10566000000E+00 0. -1.
         -4    1    3    3    0  501 -0.17308304906E+03  0.15454346567E+03  0.11037111862E+04  0.11278385555E+04  0.00000000000E+00 0. -1.
<mgrwt>
<rscale>  0 0.10477601E+04</rscale>
<asrwt>0</asrwt>
<pdfrwt beam="2">  1        4 0.39528192E+00 0.10432661E+04</pdfrwt>
<pdfrwt beam="1">  1       -4 0.25583899E+00 0.10522736E+04</pdfrwt>
<totfact> 0.36362498E-02</totfact>
</mgrwt>
</event>
<event>
 8    1  0.3025584E-006  0.1053710E+04  0.7818608E-02  0.8732779E-01
          4   -1    0    0  502    0  0.00000000000E+00  0.00000000000E+00  0.57215034005E+03  0.57215034005E+03  0.00000000000E+00 0.  1.
         -4   -1    0    0    0  501 -0.00000000000E+00 -0.00000000000E+00 -0.22607579101E+04  0.22607579101E+04  0.00000000000E+00 0. -1.
   -9000010    2    1    2    0  501  0.29106943976E+03  0.22670725363E+03 -0.14065539319E+04  0.17574695216E+04  0.98700940133E+03 0.  0.
    9000010    2    1    2  502    0 -0.29106943976E+03 -0.22670725363E+03 -0.28205363813E+03  0.10754387286E+04  0.96999825077E+03 0.  0.
        -13    1    4    4    0    0 -0.20954965409E+02  0.27825868819E+03  0.18639659454E+03  0.33557519239E+03  0.10566000000E+00 0.  1.
          4    1    4    4  502    0 -0.27011447435E+03 -0.50496594183E+03 -0.46845023267E+03  0.73986353617E+03  0.00000000000E+00 0.  1.
         13    1    3    3    0    0 -0.50741022148E+02 -0.12491903453E+03  0.10337862683E+03  0.16990164262E+03  0.10566000000E+00 0. -1.
         -4    1    3    3    0  501  0.34181046191E+03  0.35162628816E+03 -0.15099325587E+04  0.15875678790E+04  0.00000000000E+00 0. -1.
<mgrwt>
<rscale>  0 0.10457213E+04</rscale>
<asrwt>0</asrwt>
<pdfrwt beam="1">  1        4 0.88023129E-01 0.10377929E+04</pdfrwt>
<pdfrwt beam="2">  1       -4 0.34780891E+00 0.10537102E+04</pdfrwt>
<totfact> 0.28151719E-01</totfact>
</mgrwt>
</event>
<event>
 8    1  0.3025584E-006  0.1076835E+04  0.7818608E-02  0.8714060E-01
         -4   -1    0    0    0  501 -0.00000000000E+00  0.00000000000E+00  0.26798918283E+04  0.26798918283E+04  0.00000000000E+00 0. -1.
          4   -1    0    0  502    0  0.00000000000E+00 -0.00000000000E+00 -0.97865508392E+03  0.97865508392E+03  0.00000000000E+00 0.  1.
   -9000010    2    1    2    0  501 -0.34889442800E+03  0.92253153375E+02  0.22300335098E+04  0.24764133603E+04  0.10145618316E+04 0.  0.
    9000010    2    1    2  502    0  0.34889442800E+03 -0.92253153375E+02 -0.52879676544E+03  0.11821335519E+04  0.99376845853E+03 0.  0.
        -13    1    4    4    0    0  0.13353342238E+03 -0.21002971559E+03  0.25767553035E+03  0.35824620923E+03  0.10566000000E+00 0.  1.
          4    1    4    4  502    0  0.21536100561E+03  0.11777656221E+03 -0.78647229579E+03  0.82388734265E+03  0.00000000000E+00 0.  1.
         13    1    3    3    0    0 -0.32509933282E+03  0.27489493563E+03  0.26225665311E+03  0.50003536385E+03  0.10566000000E+00 0. -1.
         -4    1    3    3    0  501 -0.23795095175E+02 -0.18264178225E+03  0.19677768567E+04  0.19763779965E+04  0.00000000000E+00 0. -1.
<mgrwt>
<rscale>  0 0.10670062E+04</rscale>
<asrwt>0</asrwt>
<pdfrwt beam="2">  1        4 0.15056232E+00 0.10572671E+04</pdfrwt>
<pdfrwt beam="1">  1       -4 0.41229105E+00 0.10768350E+04</pdfrwt>
<totfact> 0.63170454E-02</totfact>
</mgrwt>
</event>
<event>
 8    1  0.3025584E-006  0.1073765E+04  0.7818608E-02  0.8714130E-01
         -4   -1    0    0    0  501 -0.00000000000E+00  0.00000000000E+00  0.23337373751E+04  0.23337373751E+04  0.00000000000E+00 0. -1.
          4   -1    0    0  502    0  0.00000000000E+00 -0.00000000000E+00 -0.11589266094E+04  0.11589266094E+04  0.00000000000E+00 0.  1.
   -9000010    2    1    2    0  501  0.24518400395E+03 -0.26374638270E+03  0.19147489844E+04  0.21886391845E+04  0.99709601175E+03 0.  0.
    9000010    2    1    2  502    0 -0.24518400395E+03  0.26374638270E+03 -0.73993821868E+03  0.13040248000E+04  0.10115803287E+04 0.  0.
        -13    1    4    4    0    0 -0.61744908670E+03  0.14253791473E+03 -0.26074370043E+03  0.68523552176E+03  0.10566000000E+00 0.  1.
          4    1    4    4  502    0  0.37226508275E+03  0.12120846797E+03 -0.47919451825E+03  0.61878927824E+03  0.00000000000E+00 0.  1.
         13    1    3    3    0    0 -0.25253464578E+03 -0.39575540953E+03  0.51342139372E+03  0.69569938205E+03  0.10566000000E+00 0. -1.
         -4    1    3    3    0  501  0.49771864973E+03  0.13200902683E+03  0.14013275907E+04  0.14929398025E+04  0.00000000000E+00 0. -1.
<mgrwt>
<rscale>  0 0.10669264E+04</rscale>
<asrwt>0</asrwt>
<pdfrwt beam="2">  1        4 0.17829640E+00 0.10737654E+04</pdfrwt>
<pdfrwt beam="1">  1       -4 0.35903652E+00 0.10601310E+04</pdfrwt>
<totfact> 0.79694102E-02</totfact>
</mgrwt>
</event>
<event>
 8    1  0.3025584E-006  0.2364347E+04  0.7818608E-02  0.8036708E-01
         -4   -1    0    0    0  501 -0.00000000000E+00  0.00000000000E+00  0.24277224693E+04  0.24277224693E+04  0.00000000000E+00 0. -1.
          4   -1    0    0  502    0  0.00000000000E+00 -0.00000000000E+00 -0.22937374018E+04  0.22937374018E+04  0.00000000000E+00 0.  1.
   -9000010    2    1    2    0  501  0.62253359144E+03  0.20362964777E+04 -0.41084197543E+02  0.23647040995E+04  0.10276605224E+04 0.  0.
    9000010    2    1    2  502    0 -0.62253359144E+03 -0.20362964777E+04  0.17506926495E+03  0.23567557716E+04  0.99478495260E+03 0.  0.
        -13    1    4    4    0    0 -0.75012512378E+03 -0.15968555008E+04 -0.18575630857E+03  0.17740182099E+04  0.10566000000E+00 0.  1.
          4    1    4    4  502    0  0.12759153234E+03 -0.43944097687E+03  0.36082557352E+03  0.58273756167E+03  0.00000000000E+00 0.  1.
         13    1    3    3    0    0  0.92818171716E+02  0.13688650665E+04 -0.41612789258E+03  0.14337256423E+04  0.10566000000E+00 0. -1.
         -4    1    3    3    0  501  0.52971541973E+03  0.66743141117E+03  0.37504369504E+03  0.93097845716E+03  0.00000000000E+00 0. -1.
<mgrwt>
<rscale>  0 0.23572852E+04</rscale>
<asrwt>0</asrwt>
<pdfrwt beam="2">  1        4 0.35288268E+00 0.23502444E+04</pdfrwt>
<pdfrwt beam="1">  1       -4 0.37349576E+00 0.23643472E+04</pdfrwt>
<totfact> 0.20763401E-02</totfact>
</mgrwt>
</event>
<event>
 8    1  0.3025584E-006  0.1039728E+04  0.7818608E-02  0.8738527E-01
          4   -1    0    0  502    0  0.00000000000E+00  0.00000000000E+00  0.90556963366E+03  0.90556963366E+03  0.00000000000E+00 0.  1.
         -4   -1    0    0    0  501 -0.00000000000E+00 -0.00000000000E+00 -0.26105479857E+04  0.26105479857E+04  0.00000000000E+00 0. -1.
   -9000010    2    1    2    0  501  0.77420612329E+01  0.30368639232E+03 -0.21482628973E+04  0.23866437897E+04  0.99435895879E+03 0.  0.
    9000010    2    1    2  502    0 -0.77420612329E+01 -0.30368639232E+03  0.44328454522E+03  0.11294738296E+04  0.99344077799E+03 0.  0.
        -13    1    4    4    0    0 -0.39798768881E+03  0.29142919553E+02  0.46916401246E+03  0.61592076760E+03  0.10566000000E+00 0.  1.
          4    1    4    4  502    0  0.39024562758E+03 -0.33282931188E+03 -0.25879467244E+02  0.51355306202E+03  0.00000000000E+00 0.  1.
         13    1    3    3    0    0  0.18451019541E+03 -0.32310730165E+03 -0.58687629052E+03  0.69488569716E+03  0.10566000000E+00 0. -1.
         -4    1    3    3    0  501 -0.17676813417E+03  0.62679369397E+03 -0.15613866068E+04  0.16917580926E+04  0.00000000000E+00 0. -1.
<mgrwt>
<rscale>  0 0.10392892E+04</rscale>
<asrwt>0</asrwt>
<pdfrwt beam="1">  1        4 0.13931841E+00 0.10388503E+04</pdfrwt>
<pdfrwt beam="2">  1       -4 0.40162277E+00 0.10397284E+04</pdfrwt>
<totfact> 0.78600792E-02</totfact>
</mgrwt>
</event>
<event>
 8    1  0.3025584E-006  0.1068933E+04  0.7818608E-02  0.8725743E-01
          4   -1    0    0  502    0  0.00000000000E+00  0.00000000000E+00  0.10030475080E+04  0.10030475080E+04  0.00000000000E+00 0.  1.
         -4   -1    0    0    0  501 -0.00000000000E+00 -0.00000000000E+00 -0.27387455312E+04  0.27387455312E+04  0.00000000000E+00 0. -1.
   -9000010    2    1    2    0  501 -0.24981725371E+03 -0.13993753636E+03 -0.23068251301E+04  0.25298511066E+04  0.99835528062E+03 0.  0.
    9000010    2    1    2  502    0  0.24981725371E+03  0.13993753636E+03  0.57112710690E+03  0.12119419326E+04  0.10298669339E+04 0.  0.
        -13    1    4    4    0    0 -0.73626304244E+02 -0.28934831978E+03  0.60366200592E+03  0.67346203411E+03  0.10566000000E+00 0.  1.
          4    1    4    4  502    0  0.32344355796E+03  0.42928585614E+03 -0.32534899025E+02  0.53847989853E+03  0.00000000000E+00 0.  1.
         13    1    3    3    0    0 -0.52406422711E+03  0.20966148442E+03 -0.15819234558E+04  0.16796080148E+04  0.10566000000E+00 0. -1.
         -4    1    3    3    0  501  0.27424697340E+03 -0.34959902079E+03 -0.72490167429E+03  0.85024309180E+03  0.00000000000E+00 0. -1.
<mgrwt>
<rscale>  0 0.10536607E+04</rscale>
<asrwt>0</asrwt>
<pdfrwt beam="1">  1        4 0.15431500E+00 0.10689327E+04</pdfrwt>
<pdfrwt beam="2">  1       -4 0.42134547E+00 0.10386070E+04</pdfrwt>
<totfact> 0.56116769E-02</totfact>
</mgrwt>
</event>
<event>
 8    1  0.3025584E-006  0.1063803E+04  0.7818608E-02  0.8717763E-01
         -4   -1    0    0    0  501 -0.00000000000E+00  0.00000000000E+00  0.20001904406E+04  0.20001904406E+04  0.00000000000E+00 0. -1.
          4   -1    0    0  502    0  0.00000000000E+00 -0.00000000000E+00 -0.10398663064E+04  0.10398663064E+04  0.00000000000E+00 0.  1.
   -9000010    2    1    2    0  501 -0.62481786177E+02 -0.34872898135E+03  0.15074465695E+04  0.18438047514E+04  0.10008520997E+04 0.  0.
    9000010    2    1    2  502    0  0.62481786177E+02  0.34872898135E+03 -0.54712243528E+03  0.11962519955E+04  0.10030752722E+04 0.  0.
        -13    1    4    4    0    0  0.11840289125E+03  0.68548601052E+03 -0.23657795397E+03  0.73476489760E+03  0.10566000000E+00 0.  1.
          4    1    4    4  502    0 -0.55921105075E+02 -0.33675702917E+03 -0.31054448131E+03  0.46148709794E+03  0.00000000000E+00 0.  1.
         13    1    3    3    0    0  0.31939696761E+02  0.27657454665E+02  0.14510661921E+04  0.14516811579E+04  0.10566000000E+00 0. -1.
         -4    1    3    3    0  501 -0.94421482937E+02 -0.37638643601E+03  0.56380377345E+02  0.39212359353E+03  0.00000000000E+00 0. -1.
<mgrwt>
<rscale>  0 0.10627540E+04</rscale>
<asrwt>0</asrwt>
<pdfrwt beam="2">  1        4 0.15997943E+00 0.10638026E+04</pdfrwt>
<pdfrwt beam="1">  1       -4 0.30772161E+00 0.10617066E+04</pdfrwt>
<totfact> 0.13227861E-01</totfact>
</mgrwt>
</event>
<event>
 8    1  0.3025584E-006  0.1307305E+04  0.7818608E-02  0.8531670E-01
         -4   -1    0    0    0  501 -0.00000000000E+00  0.00000000000E+00  0.13529411501E+04  0.13529411501E+04  0.00000000000E+00 0. -1.
          4   -1    0    0  502    0  0.00000000000E+00 -0.00000000000E+00 -0.12629634636E+04  0.12629634636E+04  0.00000000000E+00 0.  1.
   -9000010    2    1    2    0  501  0.32678488789E+03 -0.77267227768E+03  0.12622063154E+03  0.13080970990E+04  0.99567844252E+03 0.  0.
    9000010    2    1    2  502    0 -0.32678488789E+03  0.77267227768E+03 -0.36242945078E+02  0.13078075147E+04  0.10026146482E+04 0.  0.
        -13    1    4    4    0    0 -0.65307814565E+03  0.58760780686E+03 -0.19594640551E+03  0.90010499610E+03  0.10566000000E+00 0.  1.
          4    1    4    4  502    0  0.32629325776E+03  0.18506447082E+03  0.15970346043E+03  0.40770251863E+03  0.00000000000E+00 0.  1.
         13    1    3    3    0    0  0.61197521220E+03 -0.25560341535E+03 -0.10967988299E+03  0.67221756462E+03  0.10566000000E+00 0. -1.
         -4    1    3    3    0  501 -0.28519032431E+03 -0.51706886233E+03  0.23590051454E+03  0.63587953437E+03  0.00000000000E+00 0. -1.
<mgrwt>
<rscale>  0 0.13046465E+04</rscale>
<asrwt>0</asrwt>
<pdfrwt beam="2">  1        4 0.19430207E+00 0.13073052E+04</pdfrwt>
<pdfrwt beam="1">  1       -4 0.20814479E+00 0.13019932E+04</pdfrwt>
<totfact> 0.17802343E-01</totfact>
</mgrwt>
</event>
<event>
 8    1  0.3025584E-006  0.1287656E+04  0.7818608E-02  0.8543559E-01
         -4   -1    0    0    0  501 -0.00000000000E+00  0.00000000000E+00  0.25757312971E+04  0.25757312971E+04  0.00000000000E+00 0. -1.
          4   -1    0    0  502    0  0.00000000000E+00 -0.00000000000E+00 -0.65683968679E+03  0.65683968679E+03  0.00000000000E+00 0.  1.
   -9000010    2    1    2    0  501  0.37213758723E+03  0.71534061717E+03  0.11905186758E+04  0.17531840823E+04  0.10030558940E+04 0.  0.
    9000010    2    1    2  502    0 -0.37213758723E+03 -0.71534061717E+03  0.72837293451E+03  0.14793869016E+04  0.10039222532E+04 0.  0.
        -13    1    4    4    0    0  0.29205413613E+03 -0.19001059558E+03 -0.20365251928E+02  0.34901919648E+03  0.10566000000E+00 0.  1.
          4    1    4    4  502    0 -0.66419172336E+03 -0.52533002159E+03  0.74873818644E+03  0.11303677051E+04  0.00000000000E+00 0.  1.
         13    1    3    3    0    0  0.55843012883E+03  0.27276895741E+03  0.11016272583E+04  0.12648437612E+04  0.10566000000E+00 0. -1.
         -4    1    3    3    0  501 -0.18629254160E+03  0.44257165976E+03  0.88891417522E+02  0.48834032108E+03  0.00000000000E+00 0. -1.
<mgrwt>
<rscale>  0 0.12873185E+04</rscale>
<asrwt>0</asrwt>
<pdfrwt beam="2">  1        4 0.10105226E+00 0.12876562E+04</pdfrwt>
<pdfrwt beam="1">  1       -4 0.39626635E+00 0.12869809E+04</pdfrwt>
<totfact> 0.14005771E-01</totfact>
</mgrwt>
</event>
<event>
 8    1  0.3025584E-006  0.1363649E+04  0.7818608E-02  0.8492957E-01
         -4   -1    0    0    0  501 -0.00000000000E+00  0.00000000000E+00  0.60036423451E+03  0.60036423451E+03  0.00000000000E+00 0. -1.
          4   -1    0    0  502    0  0.00000000000E+00 -0.00000000000E+00 -0.34244678334E+04  0.34244678334E+04  0.00000000000E+00 0.  1.
   -9000010    2    1    2    0  501  0.88064653776E+03 -0.35491967337E+03 -0.78805432540E+03  0.15749819460E+04  0.97879119912E+03 0.  0.
    9000010    2    1    2  502    0 -0.88064653776E+03  0.35491967337E+03 -0.20360492735E+04  0.24498501219E+04  0.97711958158E+03 0.  0.
        -13    1    4    4    0    0 -0.54711861821E+02  0.14830599353E+03  0.73979314625E+02  0.17453081590E+03  0.10566000000E+00 0.  1.
          4    1    4    4  502    0 -0.82593467593E+03  0.20661367984E+03 -0.21100285882E+04  0.22753193060E+04  0.00000000000E+00 0.  1.
         13    1    3    3    0    0  0.15495911490E+03  0.31657430533E+03 -0.87254720980E+02  0.36310468957E+03  0.10566000000E+00 0. -1.
         -4    1    3    3    0  501  0.72568742285E+03 -0.67149397870E+03 -0.70079960442E+03  0.12118772564E+04  0.00000000000E+00 0. -1.
<mgrwt>
<rscale>  0 0.13630492E+04</rscale>
<asrwt>0</asrwt>
<pdfrwt beam="2">  1        4 0.52684120E+00 0.13624496E+04</pdfrwt>
<pdfrwt beam="1">  1       -4 0.92363729E-01 0.13636490E+04</pdfrwt>
<totfact> 0.42317067E-02</totfact>
</mgrwt>
</event>
<event>
 8    1  0.3025584E-006  0.1025581E+04  0.7818608E-02  0.8757375E-01
         -4   -1    0    0    0  501 -0.00000000000E+00  0.00000000000E+00  0.26090505008E+04  0.26090505008E+04  0.00000000000E+00 0. -1.
          4   -1    0    0  502    0  0.00000000000E+00 -0.00000000000E+00 -0.84401181242E+03  0.84401181242E+03  0.00000000000E+00 0.  1.
   -9000010    2    1    2    0  501  0.12028720455E+03  0.67885189648E+02  0.21352357888E+04  0.23627130328E+04  0.10020496951E+04 0.  0.
    9000010    2    1    2  502    0 -0.12028720455E+03 -0.67885189648E+02 -0.37019710044E+03  0.10903492803E+04  0.10162372997E+04 0.  0.
        -13    1    4    4    0    0 -0.29159730992E+02 -0.54162356345E+03 -0.17511546589E+03  0.56997527311E+03  0.10566000000E+00 0.  1.
          4    1    4    4  502    0 -0.91127473554E+02  0.47373837380E+03 -0.19508163455E+03  0.52037400722E+03  0.00000000000E+00 0.  1.
         13    1    3    3    0    0 -0.21226194329E+03  0.39569668034E+03  0.15515728797E+04  0.16152428324E+04  0.10566000000E+00 0. -1.
         -4    1    3    3    0  501  0.33254914784E+03 -0.32781149069E+03  0.58366290908E+03  0.74747020047E+03  0.00000000000E+00 0. -1.
<mgrwt>
<rscale>  0 0.10185281E+04</rscale>
<asrwt>0</asrwt>
<pdfrwt beam="2">  1        4 0.12984797E+00 0.10255806E+04</pdfrwt>
<pdfrwt beam="1">  1       -4 0.40139238E+00 0.10115241E+04</pdfrwt>
<totfact> 0.88187154E-02</totfact>
</mgrwt>
</event>
<event>
 8    1  0.3025584E-006  0.1155538E+04  0.7818608E-02  0.8657906E-01
         -4   -1    0    0    0  501 -0.00000000000E+00  0.00000000000E+00  0.18819513716E+04  0.18819513716E+04  0.00000000000E+00 0. -1.
          4   -1    0    0  502    0  0.00000000000E+00 -0.00000000000E+00 -0.15495750757E+04  0.15495750757E+04  0.00000000000E+00 0.  1.
   -9000010    2    1    2    0  501  0.47470720857E+03 -0.33943048433E+03  0.14500421723E+04  0.18541549477E+04  0.99735063091E+03 0.  0.
    9000010    2    1    2  502    0 -0.47470720857E+03  0.33943048433E+03 -0.11176658763E+04  0.15773714996E+04  0.94782057852E+03 0.  0.
        -13    1    4    4    0    0 -0.25294392501E+03 -0.26139238506E+03 -0.10396367457E+03  0.37830551802E+03  0.10566000000E+00 0.  1.
          4    1    4    4  502    0 -0.22176328355E+03  0.60082286939E+03 -0.10137022018E+04  0.11990659816E+04  0.00000000000E+00 0.  1.
         13    1    3    3    0    0  0.36053548948E+02 -0.55875374225E+03  0.37887742347E+03  0.67605747984E+03  0.10566000000E+00 0. -1.
         -4    1    3    3    0  501  0.43865365962E+03  0.21932325792E+03  0.10711647489E+04  0.11780974678E+04  0.00000000000E+00 0. -1.
<mgrwt>
<rscale>  0 0.11341051E+04</rscale>
<asrwt>0</asrwt>
<pdfrwt beam="2">  1        4 0.23839617E+00 0.11130696E+04</pdfrwt>
<pdfrwt beam="1">  1       -4 0.28953098E+00 0.11555381E+04</pdfrwt>
<totfact> 0.86622161E-02</totfact>
</mgrwt>
</event>
<event>
 8    1  0.3025584E-006  0.1243377E+04  0.7818608E-02  0.8576217E-01
         -4   -1    0    0    0  501 -0.00000000000E+00  0.00000000000E+00  0.88249890999E+03  0.88249890999E+03  0.00000000000E+00 0. -1.
          4   -1    0    0  502    0  0.00000000000E+00 -0.00000000000E+00 -0.21814362675E+04  0.21814362675E+04  0.00000000000E+00 0.  1.
   -9000010    2    1    2    0  501 -0.33087735660E+03  0.66774828082E+03  0.36302510593E+02  0.12394208503E+04  0.98968610183E+03 0.  0.
    9000010    2    1    2  502    0  0.33087735660E+03 -0.66774828082E+03 -0.13352398681E+04  0.18245143273E+04  0.99529866535E+03 0.  0.
        -13    1    4    4    0    0  0.29700075213E+03 -0.93111980739E+03 -0.10285377035E+04  0.14188316888E+04  0.10566000000E+00 0.  1.
          4    1    4    4  502    0  0.33876604469E+02  0.26337152658E+03 -0.30670216459E+03  0.40568263841E+03  0.00000000000E+00 0.  1.
         13    1    3    3    0    0 -0.61212165205E+03  0.55193447690E+03 -0.20713433381E+03  0.84984070690E+03  0.10566000000E+00 0. -1.
         -4    1    3    3    0  501  0.28124429545E+03  0.11581380392E+03  0.24343684440E+03  0.38958014337E+03  0.00000000000E+00 0. -1.
<mgrwt>
<rscale>  0 0.12411311E+04</rscale>
<asrwt>0</asrwt>
<pdfrwt beam="2">  1        4 0.33560558E+00 0.12433773E+04</pdfrwt>
<pdfrwt beam="1">  1       -4 0.13576906E+00 0.12388891E+04</pdfrwt>
<totfact> 0.13912526E-01</totfact>
</mgrwt>
</event>
<event>
 8    1  0.3025584E-006  0.1380901E+04  0.7818608E-02  0.8501921E-01
          4   -1    0    0  502    0  0.00000000000E+00  0.00000000000E+00  0.15307636733E+04  0.15307636733E+04  0.00000000000E+00 0.  1.
         -4   -1    0    0    0  501 -0.00000000000E+00 -0.00000000000E+00 -0.36635379256E+04  0.36635379256E+04  0.00000000000E+00 0. -1.
   -9000010    2    1    2    0  501 -0.41549298975E+03  0.74050995179E+03 -0.32083312347E+04  0.34928895081E+04  0.10889896193E+04 0.  0.
    9000010    2    1    2  502    0  0.41549298975E+03 -0.74050995179E+03  0.10755569823E+04  0.17014120908E+04  0.10084596509E+04 0.  0.
        -13    1    4    4    0    0  0.80650083035E+02 -0.90581661594E+03  0.57137654811E+03  0.10740015589E+04  0.10566000000E+00 0.  1.
          4    1    4    4  502    0  0.33484290672E+03  0.16530666415E+03  0.50418043418E+03  0.62741053195E+03  0.00000000000E+00 0.  1.
         13    1    3    3    0    0  0.36413498948E+03  0.34299482470E+03 -0.13208271055E+04  0.14123823824E+04  0.10566000000E+00 0. -1.
         -4    1    3    3    0  501 -0.77962797923E+03  0.39751512709E+03 -0.18875041292E+04  0.20805071257E+04  0.00000000000E+00 0. -1.
<mgrwt>
<rscale>  0 0.13492502E+04</rscale>
<asrwt>0</asrwt>
<pdfrwt beam="1">  1        4 0.23550211E+00 0.13183248E+04</pdfrwt>
<pdfrwt beam="2">  1       -4 0.56362121E+00 0.13809011E+04</pdfrwt>
<totfact> 0.64373632E-03</totfact>
</mgrwt>
</event>
<event>
 8    1  0.3025584E-006  0.1258133E+04  0.7818608E-02  0.8573345E-01
          4   -1    0    0  502    0  0.00000000000E+00  0.00000000000E+00  0.26794509493E+04  0.26794509493E+04  0.00000000000E+00 0.  1.
         -4   -1    0    0    0  501 -0.00000000000E+00 -0.00000000000E+00 -0.58212038762E+03  0.58212038762E+03  0.00000000000E+00 0. -1.
   -9000010    2    1    2    0  501  0.45981283939E+03  0.62998305565E+03  0.93364722038E+03  0.15667150959E+04  0.98721454713E+03 0.  0.
    9000010    2    1    2  502    0 -0.45981283939E+03 -0.62998305565E+03  0.11636833413E+04  0.16948562410E+04  0.95397707575E+03 0.  0.
        -13    1    4    4    0    0 -0.32083999540E+03 -0.83673802961E+03  0.11319265504E+04  0.14437196956E+04  0.10566000000E+00 0.  1.
          4    1    4    4  502    0 -0.13897284399E+03  0.20675497396E+03  0.31756790837E+02  0.25113654531E+03  0.00000000000E+00 0.  1.
         13    1    3    3    0    0 -0.98606124787E+02  0.66174093038E+03  0.67531441444E+03  0.95061758679E+03  0.10566000000E+00 0. -1.
         -4    1    3    3    0  501  0.55841896418E+03 -0.31757874739E+02  0.25833280594E+03  0.61609750916E+03  0.00000000000E+00 0. -1.
<mgrwt>
<rscale>  0 0.12451118E+04</rscale>
<asrwt>0</asrwt>
<pdfrwt beam="1">  1        4 0.41222322E+00 0.12322251E+04</pdfrwt>
<pdfrwt beam="2">  1       -4 0.89556984E-01 0.12581332E+04</pdfrwt>
<totfact> 0.15354573E-01</totfact>
</mgrwt>
</event>
<event>
 8    1  0.3025584E-006  0.1300157E+04  0.7818608E-02  0.8556747E-01
         -4   -1    0    0    0  501 -0.00000000000E+00  0.00000000000E+00  0.34890385348E+04  0.34890385348E+04  0.00000000000E+00 0. -1.
          4   -1    0    0  502    0  0.00000000000E+00 -0.00000000000E+00 -0.71526067825E+03  0.71526067825E+03  0.00000000000E+00 0.  1.
   -9000010    2    1    2    0  501  0.86277878033E+03 -0.69336388147E+02  0.26168746756E+04  0.28947086397E+04  0.88436999193E+03 0.  0.
    9000010    2    1    2  502    0 -0.86277878033E+03  0.69336388147E+02  0.15690318095E+03  0.13095905733E+04  0.97016189526E+03 0.  0.
        -13    1    4    4    0    0 -0.44142768568E+03 -0.39866927830E+03  0.29643594081E+03  0.66458248044E+03  0.10566000000E+00 0.  1.
          4    1    4    4  502    0 -0.42135109466E+03  0.46800566645E+03 -0.13953275986E+03  0.64500809287E+03  0.00000000000E+00 0.  1.
         13    1    3    3    0    0 -0.94588267205E+02  0.89762673830E+02  0.32890750486E+02  0.13448453643E+03  0.10566000000E+00 0. -1.
         -4    1    3    3    0  501  0.95736704754E+03 -0.15909906198E+03  0.25839839251E+04  0.27602241033E+04  0.00000000000E+00 0. -1.
<mgrwt>
<rscale>  0 0.12684208E+04</rscale>
<asrwt>0</asrwt>
<pdfrwt beam="2">  1        4 0.11004011E+00 0.13001572E+04</pdfrwt>
<pdfrwt beam="1">  1       -4 0.53677515E+00 0.12374591E+04</pdfrwt>
<totfact> 0.27682416E-02</totfact>
</mgrwt>
</event>
<event>
 8    1  0.3025584E-006  0.1014311E+04  0.7818608E-02  0.8771550E-01
         -4   -1    0    0    0  501 -0.00000000000E+00  0.00000000000E+00  0.19967862994E+04  0.19967862994E+04  0.00000000000E+00 0. -1.
          4   -1    0    0  502    0  0.00000000000E+00 -0.00000000000E+00 -0.16784824854E+04  0.16784824854E+04  0.00000000000E+00 0.  1.
   -9000010    2    1    2    0  501 -0.65910564210E+02  0.20100530638E+03  0.16967475846E+04  0.19768104106E+04  0.99200791220E+03 0.  0.
    9000010    2    1    2  502    0  0.65910564210E+02 -0.20100530638E+03 -0.13784437706E+04  0.16984583742E+04  0.96948764028E+03 0.  0.
        -13    1    4    4    0    0  0.40857880731E+03 -0.41820273008E+03 -0.86535237919E+03  0.10443490396E+04  0.10566000000E+00 0.  1.
          4    1    4    4  502    0 -0.34266824310E+03  0.21719742370E+03 -0.51309139141E+03  0.65410933462E+03  0.00000000000E+00 0.  1.
         13    1    3    3    0    0 -0.50782795310E+03  0.20942215945E+03  0.11442103310E+04  0.12692376308E+04  0.10566000000E+00 0. -1.
         -4    1    3    3    0  501  0.44191738888E+03 -0.84168530733E+01  0.55253725365E+03  0.70757277978E+03  0.00000000000E+00 0. -1.
<mgrwt>
<rscale>  0 0.10032437E+04</rscale>
<asrwt>0</asrwt>
<pdfrwt beam="2">  1        4 0.25822807E+00 0.99229714E+03</pdfrwt>
<pdfrwt beam="1">  1       -4 0.30719789E+00 0.10143111E+04</pdfrwt>
<totfact> 0.70532609E-02</totfact>
</mgrwt>
</event>
<event>
 8    1  0.3025584E-006  0.1544181E+04  0.7818608E-02  0.8385778E-01
          4   -1    0    0  502    0  0.00000000000E+00  0.00000000000E+00  0.11782088400E+04  0.11782088400E+04  0.00000000000E+00 0.  1.
         -4   -1    0    0    0  501 -0.00000000000E+00 -0.00000000000E+00 -0.33820075645E+04  0.33820075645E+04  0.00000000000E+00 0. -1.
   -9000010    2    1    2    0  501  0.50675310742E+03  0.10595618906E+04 -0.25490142102E+04  0.29779178839E+04  0.99551562902E+03 0.  0.
    9000010    2    1    2  502    0 -0.50675310742E+03 -0.10595618906E+04  0.34521548566E+03  0.15822985206E+04  0.10025092344E+04 0.  0.
        -13    1    4    4    0    0 -0.69991678474E+03 -0.11366915251E+04  0.32057467562E+03  0.13728507794E+04  0.10566000000E+00 0.  1.
          4    1    4    4  502    0  0.19316367732E+03  0.77129634541E+02  0.24640810036E+02  0.20944774116E+03  0.00000000000E+00 0.  1.
         13    1    3    3    0    0  0.76872589720E+03  0.10072995170E+04 -0.20046860130E+04  0.23715728629E+04  0.10566000000E+00 0. -1.
         -4    1    3    3    0  501 -0.26197278978E+03  0.52262373565E+02 -0.54432819720E+03  0.60634502104E+03  0.00000000000E+00 0. -1.
<mgrwt>
<rscale>  0 0.15419137E+04</rscale>
<asrwt>0</asrwt>
<pdfrwt beam="1">  1        4 0.18126290E+00 0.15441810E+04</pdfrwt>
<pdfrwt beam="2">  1       -4 0.52030886E+00 0.15396498E+04</pdfrwt>
<totfact> 0.14788018E-02</totfact>
</mgrwt>
</event>
<event>
 8    1  0.3025584E-006  0.1067636E+04  0.7818608E-02  0.8739827E-01
         -4   -1    0    0    0  501 -0.00000000000E+00  0.00000000000E+00  0.26388747261E+04  0.26388747261E+04  0.00000000000E+00 0. -1.
          4   -1    0    0  502    0  0.00000000000E+00 -0.00000000000E+00 -0.21397085600E+04  0.21397085600E+04  0.00000000000E+00 0.  1.
   -9000010    2    1    2    0  501  0.30201720626E+03 -0.10930887560E+03  0.23972202496E+04  0.26008651840E+04  0.95638483742E+03 0.  0.
    9000010    2    1    2  502    0 -0.30201720626E+03  0.10930887560E+03 -0.18980540835E+04  0.21777181020E+04  0.10181768044E+04 0.  0.
        -13    1    4    4    0    0  0.34478177241E+03 -0.87021331187E+02 -0.94172538725E+03  0.10066250041E+04  0.10566000000E+00 0.  1.
          4    1    4    4  502    0 -0.64679897867E+03  0.19633020679E+03 -0.95632869622E+03  0.11710930980E+04  0.00000000000E+00 0.  1.
         13    1    3    3    0    0 -0.72734465655E+02 -0.26429982109E+03  0.14057126535E+03  0.30806653458E+03  0.10566000000E+00 0. -1.
         -4    1    3    3    0  501  0.37475167191E+03  0.15499094549E+03  0.22566489842E+04  0.22927986494E+04  0.00000000000E+00 0. -1.
<mgrwt>
<rscale>  0 0.10378413E+04</rscale>
<asrwt>0</asrwt>
<pdfrwt beam="2">  1        4 0.32918593E+00 0.10676361E+04</pdfrwt>
<pdfrwt beam="1">  1       -4 0.40598073E+00 0.10088780E+04</pdfrwt>
<totfact> 0.21300098E-02</totfact>
</mgrwt>
</event>
<event>
 8    1  0.3025584E-006  0.1107159E+04  0.7818608E-02  0.8730130E-01
          4   -1    0    0  502    0  0.00000000000E+00  0.00000000000E+00  0.16767866833E+04  0.16767866833E+04  0.00000000000E+00 0.  1.
         -4   -1    0    0    0  501 -0.00000000000E+00 -0.00000000000E+00 -0.20573733758E+04  0.20573733758E+04  0.00000000000E+00 0. -1.
   -9000010    2    1    2    0  501  0.36354661326E+03  0.42498252322E+03 -0.17328008649E+04  0.20563073262E+04  0.95552325821E+03 0.  0.
    9000010    2    1    2  502    0 -0.36354661326E+03 -0.42498252322E+03  0.13522141725E+04  0.16778527329E+04  0.82093260382E+03 0.  0.
        -13    1    4    4    0    0 -0.44247788440E+02 -0.37933025022E+03  0.12951695733E+04  0.13503012776E+04  0.10566000000E+00 0.  1.
          4    1    4    4  502    0 -0.31929882482E+03 -0.45652273006E+02  0.57044599147E+02  0.32755145528E+03  0.00000000000E+00 0.  1.
         13    1    3    3    0    0  0.23719817765E+03  0.63924755350E+03 -0.63860149654E+03  0.93419071537E+03  0.10566000000E+00 0. -1.
         -4    1    3    3    0  501  0.12634843562E+03 -0.21426503028E+03 -0.10941993684E+04  0.11221166108E+04  0.00000000000E+00 0. -1.
<mgrwt>
<rscale>  0 0.10487018E+04</rscale>
<asrwt>0</asrwt>
<pdfrwt beam="1">  1        4 0.25796718E+00 0.99333108E+03</pdfrwt>
<pdfrwt beam="2">  1       -4 0.31651898E+00 0.11071590E+04</pdfrwt>
<totfact> 0.66215870E-02</totfact>
</mgrwt>
</event>
<event>
 8    1  0.3025584E-006  0.1076764E+04  0.7818608E-02  0.8707584E-01
         -4   -1    0    0    0  501 -0.00000000000E+00  0.00000000000E+00  0.41267292614E+04  0.41267292614E+04  0.00000000000E+00 0. -1.
          4   -1    0    0  502    0  0.00000000000E+00 -0.00000000000E+00 -0.12557407998E+04  0.12557407998E+04  0.00000000000E+00 0.  1.
   -9000010    2    1    2    0  501 -0.11684024985E+03  0.34844920955E+03  0.38087426598E+04  0.39580224180E+04  0.10121029183E+04 0.  0.
    9000010    2    1    2  502    0  0.11684024985E+03 -0.34844920955E+03 -0.93775419817E+03  0.14244476432E+04  0.10072733772E+04 0.  0.
        -13    1    4    4    0    0  0.32839903981E+03  0.75714228527E+02 -0.88564070250E+03  0.94759592593E+03  0.10566000000E+00 0.  1.
          4    1    4    4  502    0 -0.21155878996E+03 -0.42416343808E+03 -0.52113495672E+02  0.47685171725E+03  0.00000000000E+00 0.  1.
         13    1    3    3    0    0  0.22951430170E+03  0.47034190698E+03  0.32335254623E+04  0.32756045626E+04  0.10566000000E+00 0. -1.
         -4    1    3    3    0  501 -0.34635455154E+03 -0.12189269743E+03  0.57521719749E+03  0.68241785539E+03  0.00000000000E+00 0. -1.
<mgrwt>
<rscale>  0 0.10744925E+04</rscale>
<asrwt>0</asrwt>
<pdfrwt beam="2">  1        4 0.19319089E+00 0.10722258E+04</pdfrwt>
<pdfrwt beam="1">  1       -4 0.63488142E+00 0.10767640E+04</pdfrwt>
<totfact> 0.35876225E-03</totfact>
</mgrwt>
</event>
<event>
 8    1  0.3025584E-006  0.1488923E+04  0.7818608E-02  0.8422342E-01
          4   -1    0    0  502    0  0.00000000000E+00  0.00000000000E+00  0.14612588079E+04  0.14612588079E+04  0.00000000000E+00 0.  1.
         -4   -1    0    0    0  501 -0.00000000000E+00 -0.00000000000E+00 -0.19799306525E+04  0.19799306525E+04  0.00000000000E+00 0. -1.
   -9000010    2    1    2    0  501 -0.97290004311E+03  0.46265289304E+03 -0.11124857861E+04  0.18586326653E+04  0.10277687323E+04 0.  0.
    9000010    2    1    2  502    0  0.97290004311E+03 -0.46265289304E+03  0.59381394150E+03  0.15825567950E+04  0.99563488242E+03 0.  0.
        -13    1    4    4    0    0  0.33722667095E+03  0.19932068668E+03 -0.13104454954E+03  0.41306567137E+03  0.10566000000E+00 0.  1.
          4    1    4    4  502    0  0.63567337216E+03 -0.66197357972E+03  0.72485849103E+03  0.11694911237E+04  0.00000000000E+00 0.  1.
         13    1    3    3    0    0 -0.34430745463E+03  0.44794925744E+03 -0.10920403534E+04  0.12295358088E+04  0.10566000000E+00 0. -1.
         -4    1    3    3    0  501 -0.62859258848E+03  0.14703635604E+02 -0.20445432762E+02  0.62909685654E+03  0.00000000000E+00 0. -1.
<mgrwt>
<rscale>  0 0.14778833E+04</rscale>
<asrwt>0</asrwt>
<pdfrwt beam="1">  1        4 0.22480905E+00 0.14669257E+04</pdfrwt>
<pdfrwt beam="2">  1       -4 0.30460471E+00 0.14889227E+04</pdfrwt>
<totfact> 0.83033811E-02</totfact>
</mgrwt>
</event>
<event>
 8    1  0.3025584E-006  0.1085881E+04  0.7818608E-02  0.8730864E-01
          4   -1    0    0  502    0  0.00000000000E+00  0.00000000000E+00  0.42277993868E+03  0.42277993868E+03  0.00000000000E+00 0.  1.
         -4   -1    0    0    0  501 -0.00000000000E+00 -0.00000000000E+00 -0.50154398595E+04  0.50154398595E+04  0.00000000000E+00 0. -1.
   -9000010    2    1    2    0  501  0.18465195715E+03 -0.57558859004E+02 -0.42249093380E+04  0.43622237589E+04  0.10685166546E+04 0.  0.
    9000010    2    1    2  502    0 -0.18465195715E+03  0.57558859004E+02 -0.36775058281E+03  0.10759960392E+04  0.99253091527E+03 0.  0.
        -13    1    4    4    0    0 -0.59359848352E+03  0.89241051841E+02 -0.19793892017E+03  0.63206245914E+03  0.10566000000E+00 0.  1.
          4    1    4    4  502    0  0.40894652637E+03 -0.31682192838E+02 -0.16981166264E+03  0.44393358010E+03  0.00000000000E+00 0.  1.
         13    1    3    3    0    0 -0.32299464434E+03 -0.34081879485E+03 -0.24483862335E+04  0.24930058465E+04  0.10566000000E+00 0. -1.
         -4    1    3    3    0  501  0.50764660150E+03  0.28325993585E+03 -0.17765231045E+04  0.18692179124E+04  0.00000000000E+00 0. -1.
<mgrwt>
<rscale>  0 0.10478757E+04</rscale>
<asrwt>0</asrwt>
<pdfrwt beam="1">  1        4 0.65043067E-01 0.10112008E+04</pdfrwt>
<pdfrwt beam="2">  1       -4 0.77160614E+00 0.10858808E+04</pdfrwt>
<totfact> 0.41209389E-03</totfact>
</mgrwt>
</event>
<event>
 8    1  0.3025584E-006  0.1597152E+04  0.7818608E-02  0.8361609E-01
          4   -1    0    0  502    0  0.00000000000E+00  0.00000000000E+00  0.13463716464E+04  0.13463716464E+04  0.00000000000E+00 0.  1.
         -4   -1    0    0    0  501 -0.00000000000E+00 -0.00000000000E+00 -0.24300937299E+04  0.24300937299E+04  0.00000000000E+00 0. -1.
   -9000010    2    1    2    0  501  0.10429182320E+04 -0.62140106434E+03 -0.14466154781E+04  0.21386046732E+04  0.10035516357E+04 0.  0.
    9000010    2    1    2  502    0 -0.10429182320E+04  0.62140106434E+03  0.36289339463E+03  0.16378607030E+04  0.10378238508E+04 0.  0.
        -13    1    4    4    0    0  0.42973160925E+02 -0.13660969108E+03  0.27573524463E+03  0.31070699469E+03  0.10566000000E+00 0.  1.
          4    1    4    4  502    0 -0.10858913929E+04  0.75801075541E+03  0.87158150002E+02  0.13271537083E+04  0.00000000000E+00 0.  1.
         13    1    3    3    0    0  0.13945569696E+03 -0.43099100905E+03 -0.38302677821E+02  0.45460779535E+03  0.10566000000E+00 0. -1.
         -4    1    3    3    0  501  0.90346253499E+03 -0.19041005529E+03 -0.14083128003E+04  0.16839968779E+04  0.00000000000E+00 0. -1.
<mgrwt>
<rscale>  0 0.15860869E+04</rscale>
<asrwt>0</asrwt>
<pdfrwt beam="1">  1        4 0.20713410E+00 0.15971525E+04</pdfrwt>
<pdfrwt beam="2">  1       -4 0.37386057E+00 0.15750980E+04</pdfrwt>
<totfact> 0.55075871E-02</totfact>
</mgrwt>
</event>
<event>
 8    1  0.3025584E-006  0.1130548E+04  0.7818608E-02  0.8670794E-01
          4   -1    0    0  502    0  0.00000000000E+00  0.00000000000E+00  0.38371693879E+04  0.38371693879E+04  0.00000000000E+00 0.  1.
         -4   -1    0    0    0  501 -0.00000000000E+00 -0.00000000000E+00 -0.35164211414E+03  0.35164211414E+03  0.00000000000E+00 0. -1.
   -9000010    2    1    2    0  501  0.37141664948E+03  0.38651978964E+03  0.11941275377E+04  0.16444085399E+04  0.99538484741E+03 0.  0.
    9000010    2    1    2  502    0 -0.37141664948E+03 -0.38651978964E+03  0.22913997361E+04  0.25444029621E+04  0.96753594663E+03 0.  0.
        -13    1    4    4    0    0 -0.60270828587E+03 -0.22254642171E+02  0.17564985743E+04  0.18571590669E+04  0.10566000000E+00 0.  1.
          4    1    4    4  502    0  0.23129163639E+03 -0.36426514747E+03  0.53490116172E+03  0.68724389523E+03  0.00000000000E+00 0.  1.
         13    1    3    3    0    0 -0.27980861895E+03  0.23833028117E+03  0.13355209073E+03  0.39106311289E+03  0.10566000000E+00 0. -1.
         -4    1    3    3    0  501  0.65122526843E+03  0.14818950847E+03  0.10605754469E+04  0.12533454270E+04  0.00000000000E+00 0. -1.
<mgrwt>
<rscale>  0 0.11182610E+04</rscale>
<asrwt>0</asrwt>
<pdfrwt beam="1">  1        4 0.59033372E+00 0.11061074E+04</pdfrwt>
<pdfrwt beam="2">  1       -4 0.54098789E-01 0.11305480E+04</pdfrwt>
<totfact> 0.61720057E-02</totfact>
</mgrwt>
</event>
<event>
 8    1  0.3025584E-006  0.1110581E+04  0.7818608E-02  0.8686523E-01
         -4   -1    0    0    0  501 -0.00000000000E+00  0.00000000000E+00  0.69572001913E+03  0.69572001913E+03  0.00000000000E+00 0. -1.
          4   -1    0    0  502    0  0.00000000000E+00 -0.00000000000E+00 -0.22515051602E+04  0.22515051602E+04  0.00000000000E+00 0.  1.
   -9000010    2    1    2    0  501  0.24659105969E+03 -0.36422891982E+03 -0.79711854139E+02  0.11134382149E+04  0.10197650817E+04 0.  0.
    9000010    2    1    2  502    0 -0.24659105969E+03  0.36422891982E+03 -0.14760732869E+04  0.18337869644E+04  0.99524490744E+03 0.  0.
        -13    1    4    4    0    0 -0.62807248271E+03  0.29506893264E+03 -0.10403742714E+04  0.12505676128E+04  0.10566000000E+00 0.  1.
          4    1    4    4  502    0  0.38148142302E+03  0.69159987178E+02 -0.43569901556E+03  0.58321935161E+03  0.00000000000E+00 0.  1.
         13    1    3    3    0    0 -0.15885767039E+03 -0.33658963692E+03 -0.43580521331E+03  0.57310953424E+03  0.10566000000E+00 0. -1.
         -4    1    3    3    0  501  0.40544873009E+03 -0.27639282904E+02  0.35609335917E+03  0.54032868065E+03  0.00000000000E+00 0. -1.
<mgrwt>
<rscale>  0 0.10992879E+04</rscale>
<asrwt>0</asrwt>
<pdfrwt beam="2">  1        4 0.34638540E+00 0.10881095E+04</pdfrwt>
<pdfrwt beam="1">  1       -4 0.10703385E+00 0.11105812E+04</pdfrwt>
<totfact> 0.19473908E-01</totfact>
</mgrwt>
</event>
<event>
 8    1  0.3025584E-006  0.1154565E+04  0.7818608E-02  0.8645256E-01
         -4   -1    0    0    0  501 -0.00000000000E+00  0.00000000000E+00  0.95110499427E+03  0.95110499427E+03  0.00000000000E+00 0. -1.
          4   -1    0    0  502    0  0.00000000000E+00 -0.00000000000E+00 -0.18374384439E+04  0.18374384439E+04  0.00000000000E+00 0.  1.
   -9000010    2    1    2    0  501 -0.56216642809E+03  0.13983667915E+03  0.24596019912E+03  0.11714135798E+04  0.98799188546E+03 0.  0.
    9000010    2    1    2  502    0  0.56216642809E+03 -0.13983667915E+03 -0.11322936487E+04  0.16171298583E+04  0.99871651734E+03 0.  0.
        -13    1    4    4    0    0 -0.16855609462E+03  0.52760117985E+02 -0.74949946687E+03  0.77002873264E+03  0.10566000000E+00 0.  1.
          4    1    4    4  502    0  0.73072252271E+03 -0.19259679714E+03 -0.38279418184E+03  0.84710112567E+03  0.00000000000E+00 0.  1.
         13    1    3    3    0    0 -0.83054685354E+03 -0.20883942607E+02  0.20669077745E+03  0.85613392856E+03  0.10566000000E+00 0. -1.
         -4    1    3    3    0  501  0.26838042545E+03  0.16072062176E+03  0.39269421670E+02  0.31527965127E+03  0.00000000000E+00 0. -1.
<mgrwt>
<rscale>  0 0.11499234E+04</rscale>
<asrwt>0</asrwt>
<pdfrwt beam="2">  1        4 0.28268283E+00 0.11545649E+04</pdfrwt>
<pdfrwt beam="1">  1       -4 0.14632385E+00 0.11453006E+04</pdfrwt>
<totfact> 0.17491709E-01</totfact>
</mgrwt>
</event>
<event>
 8    1  0.3025584E-006  0.1061930E+04  0.7818608E-02  0.8723390E-01
          4   -1    0    0  502    0  0.00000000000E+00  0.00000000000E+00  0.15748653929E+04  0.15748653929E+04  0.00000000000E+00 0.  1.
         -4   -1    0    0    0  501 -0.00000000000E+00 -0.00000000000E+00 -0.15469947331E+04  0.15469947331E+04  0.00000000000E+00 0. -1.
   -9000010    2    1    2    0  501 -0.50196008596E+01  0.30605486194E+03 -0.11351736459E+04  0.15544497894E+04  0.10168579874E+04 0.  0.
    9000010    2    1    2  502    0  0.50196008596E+01 -0.30605486194E+03  0.11630443058E+04  0.15674103366E+04  0.10051906939E+04 0.  0.
        -13    1    4    4    0    0 -0.14886998795E+03  0.28052391108E+03  0.79972666181E+03  0.86047584671E+03  0.10566000000E+00 0.  1.
          4    1    4    4  502    0  0.15388958881E+03 -0.58657877303E+03  0.36331764399E+03  0.70693448986E+03  0.00000000000E+00 0.  1.
         13    1    3    3    0    0  0.10903657610E+03  0.46226425268E+03 -0.79932199715E+02  0.48162888404E+03  0.10566000000E+00 0. -1.
         -4    1    3    3    0  501 -0.11405617696E+03 -0.15620939073E+03 -0.10552414462E+04  0.10728209054E+04  0.00000000000E+00 0. -1.
<mgrwt>
<rscale>  0 0.10563317E+04</rscale>
<asrwt>0</asrwt>
<pdfrwt beam="1">  1        4 0.24228698E+00 0.10507631E+04</pdfrwt>
<pdfrwt beam="2">  1       -4 0.23799919E+00 0.10619298E+04</pdfrwt>
<totfact> 0.11377124E-01</totfact>
</mgrwt>
</event>
<event>
 8    1  0.3025584E-006  0.1103422E+04  0.7818608E-02  0.8688396E-01
          4   -1    0    0  502    0  0.00000000000E+00  0.00000000000E+00  0.23700674305E+04  0.23700674305E+04  0.00000000000E+00 0.  1.
         -4   -1    0    0    0  501 -0.00000000000E+00 -0.00000000000E+00 -0.16972056455E+04  0.16972056455E+04  0.00000000000E+00 0. -1.
   -9000010    2    1    2    0  501 -0.30153732425E+03  0.36909616840E+03 -0.13654000690E+04  0.17555222002E+04  0.99518043964E+03 0.  0.
    9000010    2    1    2  502    0  0.30153732425E+03 -0.36909616840E+03  0.20382618541E+04  0.23117508758E+04  0.98108306815E+03 0.  0.
        -13    1    4    4    0    0 -0.10137725653E+03 -0.26093977798E+03  0.55261635860E+02  0.28534325897E+03  0.10566000000E+00 0.  1.
          4    1    4    4  502    0  0.40291458077E+03 -0.10815639042E+03  0.19830002182E+04  0.20264076169E+04  0.00000000000E+00 0.  1.
         13    1    3    3    0    0  0.28184774527E+03  0.27536367581E+03 -0.96340949663E+03  0.10408751966E+04  0.10566000000E+00 0. -1.
         -4    1    3    3    0  501 -0.58338506951E+03  0.93732492597E+02 -0.40199057237E+03  0.71464700361E+03  0.00000000000E+00 0. -1.
<mgrwt>
<rscale>  0 0.10970552E+04</rscale>
<asrwt>0</asrwt>
<pdfrwt beam="1">  1        4 0.36462576E+00 0.10907249E+04</pdfrwt>
<pdfrwt beam="2">  1       -4 0.26110856E+00 0.11034223E+04</pdfrwt>
<totfact> 0.45808009E-02</totfact>
</mgrwt>
</event>
<event>
 8    1  0.3025584E-006  0.1079523E+04  0.7818608E-02  0.8706188E-01
          4   -1    0    0  502    0  0.00000000000E+00  0.00000000000E+00  0.95095418198E+03  0.95095418198E+03  0.00000000000E+00 0.  1.
         -4   -1    0    0    0  501 -0.00000000000E+00 -0.00000000000E+00 -0.13038275184E+04  0.13038275184E+04  0.00000000000E+00 0. -1.
   -9000010    2    1    2    0  501 -0.20063905605E+03  0.36570922977E+03 -0.46556687983E+03  0.11693920659E+04  0.98829449697E+03 0.  0.
    9000010    2    1    2  502    0  0.20063905605E+03 -0.36570922977E+03  0.11269354342E+03  0.10853896344E+04  0.99567642948E+03 0.  0.
        -13    1    4    4    0    0  0.51362926566E+03 -0.49700355469E+03  0.18518209430E+03  0.73832240595E+03  0.10566000000E+00 0.  1.
          4    1    4    4  502    0 -0.31299020961E+03  0.13129432492E+03 -0.72488550877E+02  0.34706722847E+03  0.00000000000E+00 0.  1.
         13    1    3    3    0    0 -0.53292401016E+03  0.36843194878E+03 -0.52241728577E+03  0.83226794551E+03  0.10566000000E+00 0. -1.
         -4    1    3    3    0  501  0.33228495411E+03 -0.27227190075E+01  0.56850405946E+02  0.33712412044E+03  0.00000000000E+00 0. -1.
<mgrwt>
<rscale>  0 0.10761157E+04</rscale>
<asrwt>0</asrwt>
<pdfrwt beam="1">  1        4 0.14630064E+00 0.10795234E+04</pdfrwt>
<pdfrwt beam="2">  1       -4 0.20058885E+00 0.10727186E+04</pdfrwt>
<totfact> 0.27985339E-01</totfact>
</mgrwt>
</event>
<event>
 8    1  0.3025584E-006  0.1195378E+04  0.7818608E-02  0.8637812E-01
          4   -1    0    0  502    0  0.00000000000E+00  0.00000000000E+00  0.27274349195E+04  0.27274349195E+04  0.00000000000E+00 0.  1.
         -4   -1    0    0    0  501 -0.00000000000E+00 -0.00000000000E+00 -0.53812400166E+03  0.53812400166E+03  0.00000000000E+00 0. -1.
   -9000010    2    1    2    0  501  0.59775512396E+03 -0.37566631730E+03  0.65416496285E+03  0.13626665177E+04  0.96462006497E+03 0.  0.
    9000010    2    1    2  502    0 -0.59775512396E+03  0.37566631730E+03  0.15351459550E+04  0.19028924035E+04  0.87515143017E+03 0.  0.
        -13    1    4    4    0    0 -0.49174691311E+03  0.35145421504E+03  0.32193679515E+03  0.68481997857E+03  0.10566000000E+00 0.  1.
          4    1    4    4  502    0 -0.10600821086E+03  0.24212102263E+02  0.12132091599E+04  0.12180724249E+04  0.00000000000E+00 0.  1.
         13    1    3    3    0    0  0.37506836047E+03  0.12559819962E+03 -0.12049075800E+03  0.41348423997E+03  0.10566000000E+00 0. -1.
         -4    1    3    3    0  501  0.22268676349E+03 -0.50126451692E+03  0.77465572085E+03  0.94918227775E+03  0.00000000000E+00 0. -1.
<mgrwt>
<rscale>  0 0.11593576E+04</rscale>
<asrwt>0</asrwt>
<pdfrwt beam="1">  1        4 0.41960536E+00 0.11244227E+04</pdfrwt>
<pdfrwt beam="2">  1       -4 0.82788310E-01 0.11953779E+04</pdfrwt>
<totfact> 0.16961906E-01</totfact>
</mgrwt>
</event>
<event>
 8    1  0.3025584E-006  0.1222901E+04  0.7818608E-02  0.8600766E-01
          4   -1    0    0  502    0  0.00000000000E+00  0.00000000000E+00  0.15543997928E+04  0.15543997928E+04  0.00000000000E+00 0.  1.
         -4   -1    0    0    0  501 -0.00000000000E+00 -0.00000000000E+00 -0.26527991625E+04  0.26527991625E+04  0.00000000000E+00 0. -1.
   -9000010    2    1    2    0  501 -0.62647170506E+03 -0.21612926832E+03 -0.22426102757E+04  0.25543661881E+04  0.10277680266E+04 0.  0.
    9000010    2    1    2  502    0  0.62647170506E+03  0.21612926832E+03  0.11442109059E+04  0.16528327672E+04  0.99169496379E+03 0.  0.
        -13    1    4    4    0    0  0.80019674095E+03 -0.11372318420E+03  0.88642251674E+03  0.11995802083E+04  0.10566000000E+00 0.  1.
          4    1    4    4  502    0 -0.17372503589E+03  0.32985245252E+03  0.25778838920E+03  0.45325255888E+03  0.00000000000E+00 0.  1.
         13    1    3    3    0    0 -0.76555855011E+03  0.42686134045E+02 -0.91099262406E+03  0.11907180909E+04  0.10566000000E+00 0. -1.
         -4    1    3    3    0  501  0.13908684505E+03 -0.25881540237E+03 -0.13316176516E+04  0.13636480972E+04  0.00000000000E+00 0. -1.
<mgrwt>
<rscale>  0 0.12077280E+04</rscale>
<asrwt>0</asrwt>
<pdfrwt beam="1">  1        4 0.23913843E+00 0.11927437E+04</pdfrwt>
<pdfrwt beam="2">  1       -4 0.40812294E+00 0.12229006E+04</pdfrwt>
<totfact> 0.34678048E-02</totfact>
</mgrwt>
</event>
<event>
 8    1  0.3025584E-006  0.1176986E+04  0.7818608E-02  0.8662560E-01
          4   -1    0    0  502    0  0.00000000000E+00  0.00000000000E+00  0.54475714783E+03  0.54475714783E+03  0.00000000000E+00 0.  1.
         -4   -1    0    0    0  501 -0.00000000000E+00 -0.00000000000E+00 -0.34472605969E+04  0.34472605969E+04  0.00000000000E+00 0. -1.
   -9000010    2    1    2    0  501  0.31197306991E+03  0.57742178838E+03 -0.25395558962E+04  0.27603411672E+04  0.85988144040E+03 0.  0.
    9000010    2    1    2  502    0 -0.31197306991E+03 -0.57742178838E+03 -0.36294755291E+03  0.12316765775E+04  0.97701235787E+03 0.  0.
        -13    1    4    4    0    0 -0.18054105318E+03  0.23551104896E+03  0.64767468563E+02  0.30373567820E+03  0.10566000000E+00 0.  1.
          4    1    4    4  502    0 -0.13143201673E+03 -0.81293283734E+03 -0.42771502148E+03  0.92794089933E+03  0.00000000000E+00 0.  1.
         13    1    3    3    0    0 -0.70463645139E+02  0.33866277638E+03 -0.21081530207E+04  0.21363442539E+04  0.10566000000E+00 0. -1.
         -4    1    3    3    0  501  0.38243671505E+03  0.23875901201E+03 -0.43140287549E+03  0.62399691330E+03  0.00000000000E+00 0. -1.
<mgrwt>
<rscale>  0 0.11283532E+04</rscale>
<asrwt>0</asrwt>
<pdfrwt beam="1">  1        4 0.83808791E-01 0.11769861E+04</pdfrwt>
<pdfrwt beam="2">  1       -4 0.53034779E+00 0.10817297E+04</pdfrwt>
<totfact> 0.51111610E-02</totfact>
</mgrwt>
</event>
<event>
 8    1  0.3025584E-006  0.1139647E+04  0.7818608E-02  0.8658712E-01
         -4   -1    0    0    0  501 -0.00000000000E+00  0.00000000000E+00  0.97691029061E+03  0.97691029061E+03  0.00000000000E+00 0. -1.
          4   -1    0    0  502    0  0.00000000000E+00 -0.00000000000E+00 -0.28883112815E+04  0.28883112815E+04  0.00000000000E+00 0.  1.
   -9000010    2    1    2    0  501  0.51110102920E+03  0.14408646416E+03  0.46845591238E+03  0.12321714400E+04  0.10083701426E+04 0.  0.
    9000010    2    1    2  502    0 -0.51110102920E+03 -0.14408646416E+03 -0.23798569032E+04  0.26330501321E+04  0.99360401917E+03 0.  0.
        -13    1    4    4    0    0 -0.14344698775E+03 -0.10356000030E+03 -0.22250616610E+04  0.22320844783E+04  0.10566000000E+00 0.  1.
          4    1    4    4  502    0 -0.36765404145E+03 -0.40526463865E+02 -0.15479524225E+03  0.40096565376E+03  0.00000000000E+00 0.  1.
         13    1    3    3    0    0 -0.71890251348E+02 -0.15610109084E+03 -0.22147470398E+03  0.28033339877E+03  0.10566000000E+00 0. -1.
         -4    1    3    3    0  501  0.58299128055E+03  0.30018755500E+03  0.68993061636E+03  0.95183804125E+03  0.00000000000E+00 0. -1.
<mgrwt>
<rscale>  0 0.11331062E+04</rscale>
<asrwt>0</asrwt>
<pdfrwt beam="2">  1        4 0.44435558E+00 0.11266029E+04</pdfrwt>
<pdfrwt beam="1">  1       -4 0.15029389E+00 0.11396471E+04</pdfrwt>
<totfact> 0.45806627E-02</totfact>
</mgrwt>
</event>
<event>
 8    1  0.3025584E-006  0.1152868E+04  0.7818608E-02  0.8650220E-01
         -4   -1    0    0    0  501 -0.00000000000E+00  0.00000000000E+00  0.27915931132E+04  0.27915931132E+04  0.00000000000E+00 0. -1.
          4   -1    0    0  502    0  0.00000000000E+00 -0.00000000000E+00 -0.11194001427E+04  0.11194001427E+04  0.00000000000E+00 0.  1.
   -9000010    2    1    2    0  501 -0.56314995311E+03 -0.73038713075E+02  0.23299284001E+04  0.25995521018E+04  0.10033106483E+04 0.  0.
    9000010    2    1    2  502    0  0.56314995311E+03  0.73038713075E+02 -0.65773542959E+03  0.13114411541E+04  0.98223697860E+03 0.  0.
        -13    1    4    4    0    0  0.51167527901E+03  0.49345803135E+03 -0.42290284237E+03  0.82713919330E+03  0.10566000000E+00 0.  1.
          4    1    4    4  502    0  0.51474674107E+02 -0.42041931827E+03 -0.23483258722E+03  0.48430196084E+03  0.00000000000E+00 0.  1.
         13    1    3    3    0    0 -0.71794946331E+03 -0.87535983748E+02  0.87003922525E+03  0.11314071968E+04  0.10566000000E+00 0. -1.
         -4    1    3    3    0  501  0.15479951020E+03  0.14497270672E+02  0.14598891749E+04  0.14681449050E+04  0.00000000000E+00 0. -1.
<mgrwt>
<rscale>  0 0.11436853E+04</rscale>
<asrwt>0</asrwt>
<pdfrwt beam="2">  1        4 0.17221541E+00 0.11345757E+04</pdfrwt>
<pdfrwt beam="1">  1       -4 0.42947586E+00 0.11528681E+04</pdfrwt>
<totfact> 0.43899829E-02</totfact>
</mgrwt>
</event>
<event>
 8    1  0.3025584E-006  0.1168307E+04  0.7818608E-02  0.8634286E-01
         -4   -1    0    0    0  501 -0.00000000000E+00  0.00000000000E+00  0.87883017356E+03  0.87883017356E+03  0.00000000000E+00 0. -1.
          4   -1    0    0  502    0  0.00000000000E+00 -0.00000000000E+00 -0.40055641710E+04  0.40055641710E+04  0.00000000000E+00 0.  1.
   -9000010    2    1    2    0  501  0.52278925090E+03 -0.26532454872E+03  0.34985805634E+03  0.12195659326E+04  0.10105615703E+04 0.  0.
    9000010    2    1    2  502    0 -0.52278925090E+03  0.26532454872E+03 -0.34765920538E+04  0.36648284120E+04  0.10002845913E+04 0.  0.
        -13    1    4    4    0    0 -0.60511510746E+03  0.24886908390E+03 -0.35129334811E+04  0.35733460185E+04  0.10566000000E+00 0.  1.
          4    1    4    4  502    0  0.82325856564E+02  0.16455464827E+02  0.36341427263E+02  0.91482393482E+02  0.00000000000E+00 0.  1.
         13    1    3    3    0    0  0.30442062142E+03  0.61802636214E+02  0.65291208500E+03  0.72303919845E+03  0.10566000000E+00 0. -1.
         -4    1    3    3    0  501  0.21836862947E+03 -0.32712718494E+03 -0.30305402866E+03  0.49652673417E+03  0.00000000000E+00 0. -1.
<mgrwt>
<rscale>  0 0.11638592E+04</rscale>
<asrwt>0</asrwt>
<pdfrwt beam="2">  1        4 0.61624064E+00 0.11594287E+04</pdfrwt>
<pdfrwt beam="1">  1       -4 0.13520464E+00 0.11683066E+04</pdfrwt>
<totfact> 0.74631186E-03</totfact>
</mgrwt>
</event>
<event>
 8    1  0.3025584E-006  0.1165870E+04  0.7818608E-02  0.8639884E-01
         -4   -1    0    0    0  501 -0.00000000000E+00  0.00000000000E+00  0.91033900588E+03  0.91033900588E+03  0.00000000000E+00 0. -1.
          4   -1    0    0  502    0  0.00000000000E+00 -0.00000000000E+00 -0.23893376774E+04  0.23893376774E+04  0.00000000000E+00 0.  1.
   -9000010    2    1    2    0  501 -0.17927819381E+03  0.55235645264E+03  0.28035222719E+03  0.11991042825E+04  0.10109477670E+04 0.  0.
    9000010    2    1    2  502    0  0.17927819381E+03 -0.55235645264E+03 -0.17593508987E+04  0.21005724007E+04  0.98987398416E+03 0.  0.
        -13    1    4    4    0    0  0.42643800683E+03  0.10580101667E+03 -0.77608589571E+03  0.89182540751E+03  0.10566000000E+00 0.  1.
          4    1    4    4  502    0 -0.24715981302E+03 -0.65815746931E+03 -0.98326500297E+03  0.12087469932E+04  0.00000000000E+00 0.  1.
         13    1    3    3    0    0  0.51719388690E+02  0.62687190365E+02 -0.35509814305E+03  0.36427912563E+03  0.10566000000E+00 0. -1.
         -4    1    3    3    0  501 -0.23099758250E+03  0.48966926227E+03  0.63545037024E+03  0.83482515689E+03  0.00000000000E+00 0. -1.
<mgrwt>
<rscale>  0 0.11567217E+04</rscale>
<asrwt>0</asrwt>
<pdfrwt beam="2">  1        4 0.36759040E+00 0.11476449E+04</pdfrwt>
<pdfrwt beam="1">  1       -4 0.14005216E+00 0.11658704E+04</pdfrwt>
<totfact> 0.10409566E-01</totfact>
</mgrwt>
</event>
<event>
 8    1  0.3025584E-006  0.1108632E+04  0.7818608E-02  0.8683479E-01
         -4   -1    0    0    0  501 -0.00000000000E+00  0.00000000000E+00  0.19039429447E+04  0.19039429447E+04  0.00000000000E+00 0. -1.
          4   -1    0    0  502    0  0.00000000000E+00 -0.00000000000E+00 -0.75099642075E+03  0.75099642075E+03  0.00000000000E+00 0.  1.
   -9000010    2    1    2    0  501  0.33598281704E+03 -0.29446530930E+03  0.10917949015E+04  0.15559820107E+04  0.10146278328E+04 0.  0.
    9000010    2    1    2  502    0 -0.33598281704E+03  0.29446530930E+03  0.61151622458E+02  0.10989573547E+04  0.10021843517E+04 0.  0.
        -13    1    4    4    0    0 -0.62857311020E+03  0.39312466577E+03 -0.10423822201E+03  0.74867668308E+03  0.10566000000E+00 0.  1.
          4    1    4    4  502    0  0.29259029315E+03 -0.98659356468E+02  0.16538984447E+03  0.35028067163E+03  0.00000000000E+00 0.  1.
         13    1    3    3    0    0  0.13084881650E+03 -0.61989121122E+03  0.35859776538E+03  0.72799649383E+03  0.10566000000E+00 0. -1.
         -4    1    3    3    0  501  0.20513400055E+03  0.32542590191E+03  0.73319713610E+03  0.82798551691E+03  0.00000000000E+00 0. -1.
<mgrwt>
<rscale>  0 0.11029284E+04</rscale>
<asrwt>0</asrwt>
<pdfrwt beam="2">  1        4 0.11553791E+00 0.10972546E+04</pdfrwt>
<pdfrwt beam="1">  1       -4 0.29291430E+00 0.11086315E+04</pdfrwt>
<totfact> 0.24053853E-01</totfact>
</mgrwt>
</event>
<event>
 8    1  0.3025584E-006  0.1020330E+04  0.7818608E-02  0.8765053E-01
          4   -1    0    0  502    0  0.00000000000E+00  0.00000000000E+00  0.10769824524E+04  0.10769824524E+04  0.00000000000E+00 0.  1.
         -4   -1    0    0    0  501 -0.00000000000E+00 -0.00000000000E+00 -0.22368896922E+04  0.22368896922E+04  0.00000000000E+00 0. -1.
   -9000010    2    1    2    0  501 -0.19580237145E+03  0.52845058904E+02 -0.18402720038E+04  0.21042039884E+04  0.99997110344E+03 0.  0.
    9000010    2    1    2  502    0  0.19580237145E+03 -0.52845058904E+02  0.68036476410E+03  0.12096681562E+04  0.97942312974E+03 0.  0.
        -13    1    4    4    0    0  0.20066107599E+03 -0.40164103001E+03  0.73030852494E+03  0.85728113077E+03  0.10566000000E+00 0.  1.
          4    1    4    4  502    0 -0.48587045366E+01  0.34879597110E+03 -0.49943760848E+02  0.35238702546E+03  0.00000000000E+00 0.  1.
         13    1    3    3    0    0 -0.51709662099E+03  0.47733542119E+02 -0.48225342849E+03  0.70868595791E+03  0.10566000000E+00 0. -1.
         -4    1    3    3    0  501  0.32129424955E+03  0.51115167851E+01 -0.13580185753E+04  0.13955180305E+04  0.00000000000E+00 0. -1.
<mgrwt>
<rscale>  0 0.10102151E+04</rscale>
<asrwt>0</asrwt>
<pdfrwt beam="1">  1        4 0.16568961E+00 0.10002004E+04</pdfrwt>
<pdfrwt beam="2">  1       -4 0.34413687E+00 0.10203300E+04</pdfrwt>
<totfact> 0.99577694E-02</totfact>
</mgrwt>
</event>
<event>
 8    1  0.3025584E-006  0.1249269E+04  0.7818608E-02  0.8576577E-01
         -4   -1    0    0    0  501 -0.00000000000E+00  0.00000000000E+00  0.20383413542E+04  0.20383413542E+04  0.00000000000E+00 0. -1.
          4   -1    0    0  502    0  0.00000000000E+00 -0.00000000000E+00 -0.80206500467E+03  0.80206500467E+03  0.00000000000E+00 0.  1.
   -9000010    2    1    2    0  501 -0.30420266970E+03 -0.66278808778E+03  0.95758820341E+03  0.15604298505E+04  0.99304523436E+03 0.  0.
    9000010    2    1    2  502    0  0.30420266970E+03  0.66278808778E+03  0.27868814616E+03  0.12799765084E+04  0.10143201988E+04 0.  0.
        -13    1    4    4    0    0  0.27128344511E+03  0.33480878604E+03 -0.35982707021E+03  0.56139750839E+03  0.10566000000E+00 0.  1.
          4    1    4    4  502    0  0.32919224588E+02  0.32797930174E+03  0.63851521637E+03  0.71857900001E+03  0.00000000000E+00 0.  1.
         13    1    3    3    0    0  0.12916667259E+03  0.21311659278E+03  0.25711351456E+03  0.35806435450E+03  0.10566000000E+00 0. -1.
         -4    1    3    3    0  501 -0.43336934229E+03 -0.87590468057E+03  0.70047468885E+03  0.12023654960E+04  0.00000000000E+00 0. -1.
<mgrwt>
<rscale>  0 0.12406334E+04</rscale>
<asrwt>0</asrwt>
<pdfrwt beam="2">  1        4 0.12339462E+00 0.12492689E+04</pdfrwt>
<pdfrwt beam="1">  1       -4 0.31359097E+00 0.12320577E+04</pdfrwt>
<totfact> 0.18788238E-01</totfact>
</mgrwt>
</event>
<event>
 8    1  0.3025584E-006  0.1082709E+04  0.7818608E-02  0.8708069E-01
          4   -1    0    0  502    0  0.00000000000E+00  0.00000000000E+00  0.19240945826E+04  0.19240945826E+04  0.00000000000E+00 0.  1.
         -4   -1    0    0    0  501 -0.00000000000E+00 -0.00000000000E+00 -0.13075156993E+04  0.13075156993E+04  0.00000000000E+00 0. -1.
   -9000010    2    1    2    0  501 -0.34350307902E+03 -0.18910155026E+03 -0.88189709033E+03  0.13829109140E+04  0.99042736053E+03 0.  0.
    9000010    2    1    2  502    0  0.34350307902E+03  0.18910155026E+03  0.14984759737E+04  0.18486993680E+04  0.10092102595E+04 0.  0.
        -13    1    4    4    0    0  0.38860156481E+03  0.57112122071E+03  0.10620661006E+04  0.12669550261E+04  0.10566000000E+00 0.  1.
          4    1    4    4  502    0 -0.45098485790E+02 -0.38201967045E+03  0.43640987308E+03  0.58174434192E+03  0.00000000000E+00 0.  1.
         13    1    3    3    0    0 -0.47446128242E+03 -0.31929414118E+03 -0.10082553221E+04  0.11591553230E+04  0.10566000000E+00 0. -1.
         -4    1    3    3    0  501  0.13095820340E+03  0.13019259092E+03  0.12635823177E+03  0.22375559100E+03  0.00000000000E+00 0. -1.
<mgrwt>
<rscale>  0 0.10739305E+04</rscale>
<asrwt>0</asrwt>
<pdfrwt beam="1">  1        4 0.29601455E+00 0.10827092E+04</pdfrwt>
<pdfrwt beam="2">  1       -4 0.20115626E+00 0.10652230E+04</pdfrwt>
<totfact> 0.10417697E-01</totfact>
</mgrwt>
</event>
<event>
 8    1  0.3025584E-006  0.1301877E+04  0.7818608E-02  0.8548883E-01
         -4   -1    0    0    0  501 -0.00000000000E+00  0.00000000000E+00  0.16119917150E+04  0.16119917150E+04  0.00000000000E+00 0. -1.
          4   -1    0    0  502    0  0.00000000000E+00 -0.00000000000E+00 -0.17850708209E+04  0.17850708209E+04  0.00000000000E+00 0.  1.
   -9000010    2    1    2    0  501  0.35082674648E+02  0.77415124623E+03  0.10290049867E+04  0.16250890905E+04  0.99071809476E+03 0.  0.
    9000010    2    1    2  502    0 -0.35082674648E+02 -0.77415124623E+03 -0.12020840926E+04  0.17719734454E+04  0.10461083975E+04 0.  0.
        -13    1    4    4    0    0 -0.40555420522E+03 -0.82897421206E+03 -0.78649760656E+03  0.12125390525E+04  0.10566000000E+00 0.  1.
          4    1    4    4  502    0  0.37047153057E+03  0.54822965827E+02 -0.41558648605E+03  0.55943439288E+03  0.00000000000E+00 0.  1.
         13    1    3    3    0    0  0.40821345256E+03  0.14768841680E+02  0.39041438847E+03  0.56504844697E+03  0.10566000000E+00 0. -1.
         -4    1    3    3    0  501 -0.37313077792E+03  0.75938240455E+03  0.63859059824E+03  0.10600406435E+04  0.00000000000E+00 0. -1.
<mgrwt>
<rscale>  0 0.12796492E+04</rscale>
<asrwt>0</asrwt>
<pdfrwt beam="2">  1        4 0.27462628E+00 0.13018770E+04</pdfrwt>
<pdfrwt beam="1">  1       -4 0.24799873E+00 0.12578010E+04</pdfrwt>
<totfact> 0.88885161E-02</totfact>
</mgrwt>
</event>
<event>
 8    1  0.3025584E-006  0.1121891E+04  0.7818608E-02  0.8676880E-01
         -4   -1    0    0    0  501 -0.00000000000E+00  0.00000000000E+00  0.13069765198E+04  0.13069765198E+04  0.00000000000E+00 0. -1.
          4   -1    0    0  502    0  0.00000000000E+00 -0.00000000000E+00 -0.14607906512E+04  0.14607906512E+04  0.00000000000E+00 0.  1.
   -9000010    2    1    2    0  501  0.11728861283E+03  0.43917682926E+03  0.74644950409E+03  0.13293257989E+04  0.10016423071E+04 0.  0.
    9000010    2    1    2  502    0 -0.11728861283E+03 -0.43917682926E+03 -0.90026363553E+03  0.14384413721E+04  0.10256734673E+04 0.  0.
        -13    1    4    4    0    0 -0.45601219079E+03  0.56666465218E+02 -0.16300098625E+03  0.48757311155E+03  0.10566000000E+00 0.  1.
          4    1    4    4  502    0  0.33872357796E+03 -0.49584329448E+03 -0.73726264928E+03  0.95086826057E+03  0.00000000000E+00 0.  1.
         13    1    3    3    0    0  0.15555579648E+03  0.28183666608E+03  0.98766333422E+03  0.10388014175E+04  0.10566000000E+00 0. -1.
         -4    1    3    3    0  501 -0.38267183652E+02  0.15734016318E+03 -0.24121383013E+03  0.29052438132E+03  0.00000000000E+00 0. -1.
<mgrwt>
<rscale>  0 0.11108732E+04</rscale>
<asrwt>0</asrwt>
<pdfrwt beam="2">  1        4 0.22473702E+00 0.11218908E+04</pdfrwt>
<pdfrwt beam="1">  1       -4 0.20107331E+00 0.10999637E+04</pdfrwt>
<totfact> 0.15549190E-01</totfact>
</mgrwt>
</event>
<event>
 8    1  0.3025584E-006  0.1081949E+04  0.7818608E-02  0.8706178E-01
         -4   -1    0    0    0  501 -0.00000000000E+00  0.00000000000E+00  0.12770659011E+04  0.12770659011E+04  0.00000000000E+00 0. -1.
          4   -1    0    0  502    0  0.00000000000E+00 -0.00000000000E+00 -0.10625678059E+04  0.10625678059E+04  0.00000000000E+00 0.  1.
   -9000010    2    1    2    0  501 -0.23725321692E+03  0.29544600163E+03  0.55558923828E+03  0.12162618165E+04  0.10134278346E+04 0.  0.
    9000010    2    1    2  502    0  0.23725321692E+03 -0.29544600163E+03 -0.34109114312E+03  0.11233718904E+04  0.10010213821E+04 0.  0.
        -13    1    4    4    0    0  0.29139038424E+03  0.31179236629E+03 -0.28057239251E+03  0.51072861121E+03  0.10566000000E+00 0.  1.
          4    1    4    4  502    0 -0.54137167322E+02 -0.60723836793E+03 -0.60518750607E+02  0.61264327919E+03  0.00000000000E+00 0.  1.
         13    1    3    3    0    0 -0.10948931406E+03  0.19823334840E+03  0.85069049016E+03  0.88031738113E+03  0.10566000000E+00 0. -1.
         -4    1    3    3    0  501 -0.12776390286E+03  0.97212653233E+02 -0.29510125188E+03  0.33594443541E+03  0.00000000000E+00 0. -1.
<mgrwt>
<rscale>  0 0.10761273E+04</rscale>
<asrwt>0</asrwt>
<pdfrwt beam="2">  1        4 0.16347197E+00 0.10703370E+04</pdfrwt>
<pdfrwt beam="1">  1       -4 0.19647168E+00 0.10819489E+04</pdfrwt>
<totfact> 0.24489762E-01</totfact>
</mgrwt>
</event>
<event>
 8    1  0.3025584E-006  0.1074155E+04  0.7818608E-02  0.8723985E-01
         -4   -1    0    0    0  501 -0.00000000000E+00  0.00000000000E+00  0.17442561840E+04  0.17442561840E+04  0.00000000000E+00 0. -1.
          4   -1    0    0  502    0  0.00000000000E+00 -0.00000000000E+00 -0.17842010390E+04  0.17842010390E+04  0.00000000000E+00 0.  1.
   -9000010    2    1    2    0  501  0.25466758981E+03  0.25832165859E+03  0.13931968223E+04  0.17592063037E+04  0.10110508259E+04 0.  0.
    9000010    2    1    2  502    0 -0.25466758981E+03 -0.25832165859E+03 -0.14331416773E+04  0.17692509193E+04  0.97199181456E+03 0.  0.
        -13    1    4    4    0    0 -0.12060713453E+03  0.14356628774E+03  0.75589225198E+02  0.20216602584E+03  0.10566000000E+00 0.  1.
          4    1    4    4  502    0 -0.13406045528E+03 -0.40188794633E+03 -0.15087309025E+04  0.15670848935E+04  0.00000000000E+00 0.  1.
         13    1    3    3    0    0  0.58005652572E+03  0.13273446809E+03  0.12456825618E+04  0.13805104375E+04  0.10566000000E+00 0. -1.
         -4    1    3    3    0  501 -0.32538893591E+03  0.12558719049E+03  0.14751426056E+03  0.37869586623E+03  0.00000000000E+00 0. -1.
<mgrwt>
<rscale>  0 0.10556557E+04</rscale>
<asrwt>0</asrwt>
<pdfrwt beam="2">  1        4 0.27449247E+00 0.10374747E+04</pdfrwt>
<pdfrwt beam="1">  1       -4 0.26834711E+00 0.10741552E+04</pdfrwt>
<totfact> 0.81254000E-02</totfact>
</mgrwt>
</event>
<event>
 8    1  0.3025584E-006  0.1248520E+04  0.7818608E-02  0.8576117E-01
         -4   -1    0    0    0  501 -0.00000000000E+00  0.00000000000E+00  0.17786845819E+04  0.17786845819E+04  0.00000000000E+00 0. -1.
          4   -1    0    0  502    0  0.00000000000E+00 -0.00000000000E+00 -0.15855901607E+04  0.15855901607E+04  0.00000000000E+00 0.  1.
   -9000010    2    1    2    0  501 -0.36916059023E+03 -0.63248701966E+03  0.12292310905E+04  0.17418131935E+04  0.99326972965E+03 0.  0.
    9000010    2    1    2  502    0  0.36916059023E+03  0.63248701966E+03 -0.10361366693E+04  0.16224615490E+04  0.10111789699E+04 0.  0.
        -13    1    4    4    0    0 -0.10387759101E+03  0.42156851813E+03 -0.10151554586E+04  0.11041065101E+04  0.10566000000E+00 0.  1.
          4    1    4    4  502    0  0.47303818124E+03  0.21091850153E+03 -0.20981210723E+02  0.51835503895E+03  0.00000000000E+00 0.  1.
         13    1    3    3    0    0 -0.63449782724E+03 -0.67021752427E+03  0.11228422282E+04  0.14534626597E+04  0.10566000000E+00 0. -1.
         -4    1    3    3    0  501  0.26533723701E+03  0.37730504607E+02  0.10638886233E+03  0.28835053381E+03  0.00000000000E+00 0. -1.
<mgrwt>
<rscale>  0 0.12412690E+04</rscale>
<asrwt>0</asrwt>
<pdfrwt beam="2">  1        4 0.24393695E+00 0.12485200E+04</pdfrwt>
<pdfrwt beam="1">  1       -4 0.27364378E+00 0.12340600E+04</pdfrwt>
<totfact> 0.91709076E-02</totfact>
</mgrwt>
</event>
<event>
 8    1  0.3025584E-006  0.1111817E+04  0.7818608E-02  0.8677494E-01
          4   -1    0    0  502    0  0.00000000000E+00  0.00000000000E+00  0.75863686838E+03  0.75863686838E+03  0.00000000000E+00 0.  1.
         -4   -1    0    0    0  501 -0.00000000000E+00 -0.00000000000E+00 -0.30436980819E+04  0.30436980819E+04  0.00000000000E+00 0. -1.
   -9000010    2    1    2    0  501  0.48993500177E+03 -0.13341792434E+03 -0.24416607990E+04  0.26828797419E+04  0.98909029084E+03 0.  0.
    9000010    2    1    2  502    0 -0.48993500177E+03  0.13341792434E+03  0.15659958545E+03  0.11194552084E+04  0.98530192582E+03 0.  0.
        -13    1    4    4    0    0  0.93103990406E+02  0.13213909653E+03 -0.32516448208E+03  0.36312676221E+03  0.10566000000E+00 0.  1.
          4    1    4    4  502    0 -0.58303899218E+03  0.12788278125E+01  0.48176406754E+03  0.75632844622E+03  0.00000000000E+00 0.  1.
         13    1    3    3    0    0  0.32253210192E+02 -0.11345468794E+03 -0.21196131054E+04  0.21228923580E+04  0.10566000000E+00 0. -1.
         -4    1    3    3    0  501  0.45768179158E+03 -0.19963236403E+02 -0.32204769357E+03  0.55998738386E+03  0.00000000000E+00 0. -1.
<mgrwt>
<rscale>  0 0.11101309E+04</rscale>
<asrwt>0</asrwt>
<pdfrwt beam="1">  1        4 0.11671336E+00 0.11084478E+04</pdfrwt>
<pdfrwt beam="2">  1       -4 0.46826125E+00 0.11118166E+04</pdfrwt>
<totfact> 0.52651659E-02</totfact>
</mgrwt>
</event>
<event>
 8    1  0.3025584E-006  0.1285057E+04  0.7818608E-02  0.8546152E-01
          4   -1    0    0  502    0  0.00000000000E+00  0.00000000000E+00  0.10888375302E+04  0.10888375302E+04  0.00000000000E+00 0.  1.
         -4   -1    0    0    0  501 -0.00000000000E+00 -0.00000000000E+00 -0.28894331904E+04  0.28894331904E+04  0.00000000000E+00 0. -1.
   -9000010    2    1    2    0  501 -0.81004040733E+03  0.10557681814E+02 -0.22725704016E+04  0.26092812819E+04  0.99372815785E+03 0.  0.
    9000010    2    1    2  502    0  0.81004040733E+03 -0.10557681814E+02  0.47197474138E+03  0.13689894387E+04  0.99754448550E+03 0.  0.
        -13    1    4    4    0    0  0.82783009724E+03  0.31405764481E+03  0.53967774198E+03  0.10369122193E+04  0.10566000000E+00 0.  1.
          4    1    4    4  502    0 -0.17789689907E+02 -0.32461532663E+03 -0.67703000595E+02  0.33207721939E+03  0.00000000000E+00 0.  1.
         13    1    3    3    0    0 -0.29002361183E+03  0.24091065409E+03 -0.14002063787E+03  0.40219078665E+03  0.10566000000E+00 0. -1.
         -4    1    3    3    0  501 -0.52001679550E+03 -0.23035297228E+03 -0.21325497637E+04  0.22070904953E+04  0.00000000000E+00 0. -1.
<mgrwt>
<rscale>  0 0.12835762E+04</rscale>
<asrwt>0</asrwt>
<pdfrwt beam="1">  1        4 0.16751347E+00 0.12850572E+04</pdfrwt>
<pdfrwt beam="2">  1       -4 0.44452818E+00 0.12820969E+04</pdfrwt>
<totfact> 0.38550464E-02</totfact>
</mgrwt>
</event>
<event>
 8    1  0.3025584E-006  0.1109874E+04  0.7818608E-02  0.8684451E-01
          4   -1    0    0  502    0  0.00000000000E+00  0.00000000000E+00  0.12115150855E+04  0.12115150855E+04  0.00000000000E+00 0.  1.
         -4   -1    0    0    0  501 -0.00000000000E+00 -0.00000000000E+00 -0.10523390623E+04  0.10523390623E+04  0.00000000000E+00 0. -1.
   -9000010    2    1    2    0  501  0.12155540949E+02  0.46663236305E+03 -0.16850077929E+03  0.11066191395E+04  0.98910054490E+03 0.  0.
    9000010    2    1    2  502    0 -0.12155540949E+02 -0.46663236305E+03  0.32767680242E+03  0.11572350083E+04  0.10069395504E+04 0.  0.
        -13    1    4    4    0    0  0.43337234533E+03 -0.32469556331E+03 -0.66608133278E+02  0.54559641963E+03  0.10566000000E+00 0.  1.
          4    1    4    4  502    0 -0.44552788628E+03 -0.14193679974E+03  0.39428493570E+03  0.61163858863E+03  0.00000000000E+00 0.  1.
         13    1    3    3    0    0  0.40567903419E+03  0.43900409030E+03 -0.32715609671E+03  0.68141851520E+03  0.10566000000E+00 0. -1.
         -4    1    3    3    0  501 -0.39352349324E+03  0.27628272750E+02  0.15865531742E+03  0.42520062433E+03  0.00000000000E+00 0. -1.
<mgrwt>
<rscale>  0 0.11017652E+04</rscale>
<asrwt>0</asrwt>
<pdfrwt beam="1">  1        4 0.18638694E+00 0.11098742E+04</pdfrwt>
<pdfrwt beam="2">  1       -4 0.16189832E+00 0.10937154E+04</pdfrwt>
<totfact> 0.26583127E-01</totfact>
</mgrwt>
</event>
<event>
 8    1  0.3025584E-006  0.1098466E+04  0.7818608E-02  0.8688394E-01
          4   -1    0    0  502    0  0.00000000000E+00  0.00000000000E+00  0.27272019613E+04  0.27272019613E+04  0.00000000000E+00 0.  1.
         -4   -1    0    0    0  501 -0.00000000000E+00 -0.00000000000E+00 -0.21531423300E+04  0.21531423300E+04  0.00000000000E+00 0. -1.
   -9000010    2    1    2    0  501  0.44000798441E+03  0.11157984013E+03 -0.18888255218E+04  0.21835997316E+04  0.99719047778E+03 0.  0.
    9000010    2    1    2  502    0 -0.44000798441E+03 -0.11157984013E+03  0.24628851532E+04  0.26967445597E+04  0.10002853872E+04 0.  0.
        -13    1    4    4    0    0 -0.54285844186E+03 -0.18868477000E+03  0.24981867939E+04  0.25634419242E+04  0.10566000000E+00 0.  1.
          4    1    4    4  502    0  0.10285045745E+03  0.77104929872E+02 -0.35301640733E+02  0.13330263556E+03  0.00000000000E+00 0.  1.
         13    1    3    3    0    0 -0.22164557896E+03  0.28931595215E+03 -0.97923024967E+03  0.10448551937E+04  0.10566000000E+00 0. -1.
         -4    1    3    3    0  501  0.66165356338E+03 -0.17773611202E+03 -0.90959527217E+03  0.11387445379E+04  0.00000000000E+00 0. -1.
<mgrwt>
<rscale>  0 0.10970565E+04</rscale>
<asrwt>0</asrwt>
<pdfrwt beam="1">  1        4 0.41956953E+00 0.10984662E+04</pdfrwt>
<pdfrwt beam="2">  1       -4 0.33125267E+00 0.10956486E+04</pdfrwt>
<totfact> 0.18271892E-02</totfact>
</mgrwt>
</event>
<event>
 8    1  0.3025584E-006  0.1266008E+04  0.7818608E-02  0.8609619E-01
         -4   -1    0    0    0  501 -0.00000000000E+00  0.00000000000E+00  0.82174999240E+03  0.82174999240E+03  0.00000000000E+00 0. -1.
          4   -1    0    0  502    0  0.00000000000E+00 -0.00000000000E+00 -0.33865960739E+04  0.33865960739E+04  0.00000000000E+00 0.  1.
   -9000010    2    1    2    0  501 -0.41560016096E+03 -0.35017146790E+03  0.14320388227E+03  0.12740813264E+04  0.11434300694E+04 0.  0.
    9000010    2    1    2  502    0  0.41560016096E+03  0.35017146790E+03 -0.27080499638E+04  0.29342647399E+04  0.99047029582E+03 0.  0.
        -13    1    4    4    0    0  0.56872620669E+03  0.56646401768E+03 -0.15412966222E+04  0.17377935062E+04  0.10566000000E+00 0.  1.
          4    1    4    4  502    0 -0.15312604573E+03 -0.21629254979E+03 -0.11667533416E+04  0.11964712337E+04  0.00000000000E+00 0.  1.
         13    1    3    3    0    0 -0.67842785677E+03 -0.14396390473E+03  0.44488165773E+03  0.82395974614E+03  0.10566000000E+00 0. -1.
         -4    1    3    3    0  501  0.26282769581E+03 -0.20620756316E+03 -0.30167777546E+03  0.45012158024E+03  0.00000000000E+00 0. -1.
<mgrwt>
<rscale>  0 0.11959493E+04</rscale>
<asrwt>0</asrwt>
<pdfrwt beam="2">  1        4 0.52101478E+00 0.11297677E+04</pdfrwt>
<pdfrwt beam="1">  1       -4 0.12642307E+00 0.12660078E+04</pdfrwt>
<totfact> 0.26105380E-02</totfact>
</mgrwt>
</event>
<event>
 8    1  0.3025584E-006  0.1226569E+04  0.7818608E-02  0.8606047E-01
         -4   -1    0    0    0  501 -0.00000000000E+00  0.00000000000E+00  0.28252697733E+04  0.28252697733E+04  0.00000000000E+00 0. -1.
          4   -1    0    0  502    0  0.00000000000E+00 -0.00000000000E+00 -0.21440182997E+04  0.21440182997E+04  0.00000000000E+00 0.  1.
   -9000010    2    1    2    0  501  0.48479324064E+03  0.49524012956E+03  0.25110003653E+04  0.27945649783E+04  0.10120194222E+04 0.  0.
    9000010    2    1    2  502    0 -0.48479324064E+03 -0.49524012956E+03 -0.18297488918E+04  0.21747230947E+04  0.94929039799E+03 0.  0.
        -13    1    4    4    0    0  0.20138805843E+02  0.25581814780E+03 -0.55426013700E+03  0.61078048993E+03  0.10566000000E+00 0.  1.
          4    1    4    4  502    0 -0.50493204649E+03 -0.75105827736E+03 -0.12754887548E+04  0.15639426048E+04  0.00000000000E+00 0.  1.
         13    1    3    3    0    0  0.14505576662E+03  0.14986774604E+03 -0.27386703607E+02  0.21036054628E+03  0.10566000000E+00 0. -1.
         -4    1    3    3    0  501  0.33973747403E+03  0.34537238351E+03  0.25383870689E+04  0.25842044320E+04  0.00000000000E+00 0. -1.
<mgrwt>
<rscale>  0 0.12006845E+04</rscale>
<asrwt>0</asrwt>
<pdfrwt beam="2">  1        4 0.32984897E+00 0.11753466E+04</pdfrwt>
<pdfrwt beam="1">  1       -4 0.43465689E+00 0.12265686E+04</pdfrwt>
<totfact> 0.15616020E-02</totfact>
</mgrwt>
</event>
<event>
 8    1  0.3025584E-006  0.1739529E+04  0.7818608E-02  0.8286836E-01
          4   -1    0    0  502    0  0.00000000000E+00  0.00000000000E+00  0.20156855555E+04  0.20156855555E+04  0.00000000000E+00 0.  1.
         -4   -1    0    0    0  501 -0.00000000000E+00 -0.00000000000E+00 -0.33122894703E+04  0.33122894703E+04  0.00000000000E+00 0. -1.
   -9000010    2    1    2    0  501  0.14070893488E+04  0.19533467936E+03 -0.26256058300E+04  0.31495663532E+04  0.10039453002E+04 0.  0.
    9000010    2    1    2  502    0 -0.14070893488E+04 -0.19533467936E+03  0.13290019153E+04  0.21784086726E+04  0.98038879100E+03 0.  0.
        -13    1    4    4    0    0 -0.67580495813E+03 -0.40650677333E+03  0.19458879694E+03  0.81229607241E+03  0.10566000000E+00 0.  1.
          4    1    4    4  502    0 -0.73128439066E+03  0.21117209397E+03  0.11344131183E+04  0.13661126002E+04  0.00000000000E+00 0.  1.
         13    1    3    3    0    0  0.68769780267E+03  0.66120388020E+02 -0.21952058656E+04  0.23013537270E+04  0.10566000000E+00 0. -1.
         -4    1    3    3    0  501  0.71939154612E+03  0.12921429134E+03 -0.43039996449E+03  0.84821262614E+03  0.00000000000E+00 0. -1.
<mgrwt>
<rscale>  0 0.17327721E+04</rscale>
<asrwt>0</asrwt>
<pdfrwt beam="1">  1        4 0.31010547E+00 0.17260412E+04</pdfrwt>
<pdfrwt beam="2">  1       -4 0.50958299E+00 0.17395293E+04</pdfrwt>
<totfact> 0.73923678E-03</totfact>
</mgrwt>
</event>
<event>
 8    1  0.3025584E-006  0.1139874E+04  0.7818608E-02  0.8659784E-01
          4   -1    0    0  502    0  0.00000000000E+00  0.00000000000E+00  0.16646247506E+04  0.16646247506E+04  0.00000000000E+00 0.  1.
         -4   -1    0    0    0  501 -0.00000000000E+00 -0.00000000000E+00 -0.81747092987E+03  0.81747092987E+03  0.00000000000E+00 0. -1.
   -9000010    2    1    2    0  501  0.36350723802E+03 -0.34474033016E+03  0.12022402805E+03  0.11301566669E+04  0.10058910813E+04 0.  0.
    9000010    2    1    2  502    0 -0.36350723802E+03  0.34474033016E+03  0.72692979264E+03  0.13519390136E+04  0.10238792730E+04 0.  0.
        -13    1    4    4    0    0  0.15840624081E+03  0.19523370587E+02  0.71945580163E+03  0.73694664718E+03  0.10566000000E+00 0.  1.
          4    1    4    4  502    0 -0.52191347884E+03  0.32521695958E+03  0.74739910095E+01  0.61499236640E+03  0.00000000000E+00 0.  1.
         13    1    3    3    0    0  0.25942616184E+03 -0.45396286340E+03  0.49880041782E+03  0.72262444103E+03  0.10566000000E+00 0. -1.
         -4    1    3    3    0  501  0.10408107618E+03  0.10922253324E+03 -0.37857638977E+03  0.40753222582E+03  0.00000000000E+00 0. -1.
<mgrwt>
<rscale>  0 0.11317801E+04</rscale>
<asrwt>0</asrwt>
<pdfrwt beam="1">  1        4 0.25609611E+00 0.11398738E+04</pdfrwt>
<pdfrwt beam="2">  1       -4 0.12576476E+00 0.11237439E+04</pdfrwt>
<totfact> 0.25667968E-01</totfact>
</mgrwt>
</event>
<event>
 8    1  0.3025584E-006  0.1059170E+04  0.7818608E-02  0.8721077E-01
          4   -1    0    0  502    0  0.00000000000E+00  0.00000000000E+00  0.22803352110E+04  0.22803352110E+04  0.00000000000E+00 0.  1.
         -4   -1    0    0    0  501 -0.00000000000E+00 -0.00000000000E+00 -0.63996777943E+03  0.63996777943E+03  0.00000000000E+00 0. -1.
   -9000010    2    1    2    0  501 -0.15514459685E+03  0.30542273851E+03  0.11766403818E+03  0.10656856756E+04  0.10022416067E+04 0.  0.
    9000010    2    1    2  502    0  0.15514459685E+03 -0.30542273851E+03  0.15227033934E+04  0.18546173148E+04  0.10018117913E+04 0.  0.
        -13    1    4    4    0    0 -0.70595397462E+02 -0.50767683210E+03  0.29784624648E+03  0.59281689728E+03  0.10566000000E+00 0.  1.
          4    1    4    4  502    0  0.22573999432E+03  0.20225409359E+03  0.12248571469E+04  0.12618004175E+04  0.00000000000E+00 0.  1.
         13    1    3    3    0    0 -0.53497508709E+03  0.14435139215E+03 -0.14980360335E+03  0.57400069596E+03  0.10566000000E+00 0. -1.
         -4    1    3    3    0  501  0.37983049024E+03  0.16107134637E+03  0.26746764153E+03  0.49168497963E+03  0.00000000000E+00 0. -1.
<mgrwt>
<rscale>  0 0.10589666E+04</rscale>
<asrwt>0</asrwt>
<pdfrwt beam="1">  1        4 0.35082080E+00 0.10587633E+04</pdfrwt>
<pdfrwt beam="2">  1       -4 0.98456583E-01 0.10591700E+04</pdfrwt>
<totfact> 0.22038582E-01</totfact>
</mgrwt>
</event>
<event>
 8    1  0.3025584E-006  0.1271149E+04  0.7818608E-02  0.8561501E-01
          4   -1    0    0  502    0  0.00000000000E+00  0.00000000000E+00  0.17192683955E+04  0.17192683955E+04  0.00000000000E+00 0.  1.
         -4   -1    0    0    0  501 -0.00000000000E+00 -0.00000000000E+00 -0.16530341493E+04  0.16530341493E+04  0.00000000000E+00 0. -1.
   -9000010    2    1    2    0  501 -0.44656333876E+03 -0.64778219913E+03 -0.10850021533E+04  0.16712418358E+04  0.99838820501E+03 0.  0.
    9000010    2    1    2  502    0  0.44656333876E+03  0.64778219913E+03  0.11512363994E+04  0.17010607090E+04  0.97428009083E+03 0.  0.
        -13    1    4    4    0    0  0.13277116551E+03  0.17135461513E+03 -0.16110623473E+03  0.27008483214E+03  0.10566000000E+00 0.  1.
          4    1    4    4  502    0  0.31379217325E+03  0.47642758400E+03  0.13123426342E+04  0.14309758769E+04  0.00000000000E+00 0.  1.
         13    1    3    3    0    0  0.24142982057E+03 -0.26475564557E+03 -0.71810273104E+03  0.80253065587E+03  0.10566000000E+00 0. -1.
         -4    1    3    3    0  501 -0.68799315933E+03 -0.38302655357E+03 -0.36689942225E+03  0.86871117989E+03  0.00000000000E+00 0. -1.
<mgrwt>
<rscale>  0 0.12616907E+04</rscale>
<asrwt>0</asrwt>
<pdfrwt beam="1">  1        4 0.26450283E+00 0.12523028E+04</pdfrwt>
<pdfrwt beam="2">  1       -4 0.25431295E+00 0.12711489E+04</pdfrwt>
<totfact> 0.90797356E-02</totfact>
</mgrwt>
</event>
<event>
 8    1  0.3025584E-006  0.1078522E+04  0.7818608E-02  0.8704719E-01
          4   -1    0    0  502    0  0.00000000000E+00  0.00000000000E+00  0.86717321402E+03  0.86717321402E+03  0.00000000000E+00 0.  1.
         -4   -1    0    0    0  501 -0.00000000000E+00 -0.00000000000E+00 -0.20873211663E+04  0.20873211663E+04  0.00000000000E+00 0. -1.
   -9000010    2    1    2    0  501  0.26050031131E+03 -0.30752503875E+03 -0.14944529970E+04  0.18429865742E+04  0.10003887699E+04 0.  0.
    9000010    2    1    2  502    0 -0.26050031131E+03  0.30752503875E+03  0.27430504474E+03  0.11115078061E+04  0.99888652194E+03 0.  0.
        -13    1    4    4    0    0 -0.23935601421E+03 -0.19270330909E+03 -0.24287484294E+03  0.39168107865E+03  0.10566000000E+00 0.  1.
          4    1    4    4  502    0 -0.21144297098E+02  0.50022834784E+03  0.51717988768E+03  0.71982672742E+03  0.00000000000E+00 0.  1.
         13    1    3    3    0    0  0.36141578997E+03 -0.50340971657E+03 -0.14995697408E+04  0.16225757716E+04  0.10566000000E+00 0. -1.
         -4    1    3    3    0  501 -0.10091547866E+03  0.19588467782E+03  0.51167438223E+01  0.22041080260E+03  0.00000000000E+00 0. -1.
<mgrwt>
<rscale>  0 0.10778252E+04</rscale>
<asrwt>0</asrwt>
<pdfrwt beam="1">  1        4 0.13341126E+00 0.10771288E+04</pdfrwt>
<pdfrwt beam="2">  1       -4 0.32112633E+00 0.10785220E+04</pdfrwt>
<totfact> 0.15908033E-01</totfact>
</mgrwt>
</event>
<event>
 8    1  0.3025584E-006  0.1287643E+04  0.7818608E-02  0.8550623E-01
          4   -1    0    0  502    0  0.00000000000E+00  0.00000000000E+00  0.21615559520E+04  0.21615559520E+04  0.00000000000E+00 0.  1.
         -4   -1    0    0    0  501 -0.00000000000E+00 -0.00000000000E+00 -0.20336812391E+04  0.20336812391E+04  0.00000000000E+00 0. -1.
   -9000010    2    1    2    0  501  0.73235332718E+03  0.33323116996E+03 -0.15997433239E+04  0.20405472794E+04  0.97840180321E+03 0.  0.
    9000010    2    1    2  502    0 -0.73235332718E+03 -0.33323116996E+03  0.17276180368E+04  0.21546899118E+04  0.10053059863E+04 0.  0.
        -13    1    4    4    0    0  0.10241323324E+03  0.24262164400E+03  0.47393080002E+03  0.54218460588E+03  0.10566000000E+00 0.  1.
          4    1    4    4  502    0 -0.83476656042E+03 -0.57585281396E+03  0.12536872368E+04  0.16125053059E+04  0.00000000000E+00 0.  1.
         13    1    3    3    0    0  0.77805938745E+03 -0.31177525622E+02 -0.14461351517E+04  0.16424540592E+04  0.10566000000E+00 0. -1.
         -4    1    3    3    0  501 -0.45706060270E+02  0.36440869558E+03 -0.15360817220E+03  0.39809322015E+03  0.00000000000E+00 0. -1.
<mgrwt>
<rscale>  0 0.12771536E+04</rscale>
<asrwt>0</asrwt>
<pdfrwt beam="1">  1        4 0.33254707E+00 0.12876430E+04</pdfrwt>
<pdfrwt beam="2">  1       -4 0.31287404E+00 0.12667496E+04</pdfrwt>
<totfact> 0.42012032E-02</totfact>
</mgrwt>
</event>
<event>
 8    1  0.3025584E-006  0.1307764E+04  0.7818608E-02  0.8531029E-01
         -4   -1    0    0    0  501 -0.00000000000E+00  0.00000000000E+00  0.26239724290E+04  0.26239724290E+04  0.00000000000E+00 0. -1.
          4   -1    0    0  502    0  0.00000000000E+00 -0.00000000000E+00 -0.30181904661E+04  0.30181904661E+04  0.00000000000E+00 0.  1.
   -9000010    2    1    2    0  501 -0.47948257717E+02 -0.83351174642E+03  0.23019343596E+04  0.26474797729E+04  0.10065815840E+04 0.  0.
    9000010    2    1    2  502    0  0.47948257717E+02  0.83351174642E+03 -0.26961523967E+04  0.29946831222E+04  0.10009237680E+04 0.  0.
        -13    1    4    4    0    0  0.26964899875E+03  0.85371093122E+03 -0.12852961427E+04  0.15663713233E+04  0.10566000000E+00 0.  1.
          4    1    4    4  502    0 -0.22170074103E+03 -0.20199184805E+02 -0.14108562540E+04  0.14283117989E+04  0.00000000000E+00 0.  1.
         13    1    3    3    0    0  0.50549284379E+02 -0.52612793811E+03  0.22611857046E+04  0.23221383764E+04  0.10566000000E+00 0. -1.
         -4    1    3    3    0  501 -0.98497542096E+02 -0.30738380831E+03  0.40748655027E+02  0.32534139653E+03  0.00000000000E+00 0. -1.
<mgrwt>
<rscale>  0 0.13055875E+04</rscale>
<asrwt>0</asrwt>
<pdfrwt beam="2">  1        4 0.46433699E+00 0.13034145E+04</pdfrwt>
<pdfrwt beam="1">  1       -4 0.40368807E+00 0.13077643E+04</pdfrwt>
<totfact> 0.60732556E-03</totfact>
</mgrwt>
</event>
<event>
 8    1  0.3025584E-006  0.1350134E+04  0.7818608E-02  0.8547122E-01
         -4   -1    0    0    0  501 -0.00000000000E+00  0.00000000000E+00  0.19798749794E+04  0.19798749794E+04  0.00000000000E+00 0. -1.
          4   -1    0    0  502    0  0.00000000000E+00 -0.00000000000E+00 -0.10765499386E+04  0.10765499386E+04  0.00000000000E+00 0.  1.
   -9000010    2    1    2    0  501  0.94334671514E+03  0.71576381993E+02  0.11964644812E+04  0.18039925104E+04  0.96324219142E+03 0.  0.
    9000010    2    1    2  502    0 -0.94334671514E+03 -0.71576381993E+02 -0.29313944044E+03  0.12524324075E+04  0.76657028406E+03 0.  0.
        -13    1    4    4    0    0 -0.85034445445E+03 -0.17894923547E+03 -0.49920127462E+03  0.10021529044E+04  0.10566000000E+00 0.  1.
          4    1    4    4  502    0 -0.93002260690E+02  0.10737285348E+03  0.20606183418E+03  0.25027950309E+03  0.00000000000E+00 0.  1.
         13    1    3    3    0    0  0.71779227956E+03  0.44788146294E+02  0.13501462058E+04  0.15297472088E+04  0.10566000000E+00 0. -1.
         -4    1    3    3    0  501  0.22555443558E+03  0.26788235699E+02 -0.15368172457E+03  0.27424530160E+03  0.00000000000E+00 0. -1.
<mgrwt>
<rscale>  0 0.12821787E+04</rscale>
<asrwt>0</asrwt>
<pdfrwt beam="2">  1        4 0.16562307E+00 0.12176437E+04</pdfrwt>
<pdfrwt beam="1">  1       -4 0.30459615E+00 0.13501340E+04</pdfrwt>
<totfact> 0.12636141E-01</totfact>
</mgrwt>
</event>
<event>
 8    1  0.3025584E-006  0.1067087E+04  0.7818608E-02  0.8714735E-01
          4   -1    0    0  502    0  0.00000000000E+00  0.00000000000E+00  0.28509474471E+04  0.28509474471E+04  0.00000000000E+00 0.  1.
         -4   -1    0    0    0  501 -0.00000000000E+00 -0.00000000000E+00 -0.15496374349E+04  0.15496374349E+04  0.00000000000E+00 0. -1.
   -9000010    2    1    2    0  501  0.91602036305E+02 -0.37332346735E+03 -0.12453910055E+04  0.16400221692E+04  0.99544593742E+03 0.  0.
    9000010    2    1    2  502    0 -0.91602036305E+02  0.37332346735E+03  0.25467010177E+04  0.27605627129E+04  0.99360911520E+03 0.  0.
        -13    1    4    4    0    0 -0.14547861846E+03 -0.32532067102E+03  0.70236988631E+03  0.78760461895E+03  0.10566000000E+00 0.  1.
          4    1    4    4  502    0  0.53876582154E+02  0.69864413837E+03  0.18443311314E+04  0.19729580939E+04  0.00000000000E+00 0.  1.
         13    1    3    3    0    0 -0.39408849340E+03 -0.11478192031E+03 -0.19539637934E+03  0.45459914879E+03  0.10566000000E+00 0. -1.
         -4    1    3    3    0  501  0.48569052970E+03 -0.25854154704E+03 -0.10499946262E+04  0.11854230204E+04  0.00000000000E+00 0. -1.
<mgrwt>
<rscale>  0 0.10662297E+04</rscale>
<asrwt>0</asrwt>
<pdfrwt beam="1">  1        4 0.43860730E+00 0.10653734E+04</pdfrwt>
<pdfrwt beam="2">  1       -4 0.23840576E+00 0.10670867E+04</pdfrwt>
<totfact> 0.26340074E-02</totfact>
</mgrwt>
</event>
<event>
 8    1  0.3025584E-006  0.1120107E+04  0.7818608E-02  0.8674170E-01
         -4   -1    0    0    0  501 -0.00000000000E+00  0.00000000000E+00  0.68355216607E+03  0.68355216607E+03  0.00000000000E+00 0. -1.
          4   -1    0    0  502    0  0.00000000000E+00 -0.00000000000E+00 -0.47917872701E+04  0.47917872701E+04  0.00000000000E+00 0.  1.
   -9000010    2    1    2    0  501 -0.50900877963E+02  0.50525101441E+03  0.10740555402E+03  0.11134287360E+04  0.98504726289E+03 0.  0.
    9000010    2    1    2  502    0  0.50900877963E+02 -0.50525101441E+03 -0.42156406580E+04  0.43619107002E+04  0.99838334907E+03 0.  0.
        -13    1    4    4    0    0  0.14450492915E+03 -0.79495588535E+03 -0.28212493218E+04  0.29346693649E+04  0.10566000000E+00 0.  1.
          4    1    4    4  502    0 -0.93604051182E+02  0.28970487094E+03 -0.13943913362E+04  0.14272413353E+04  0.00000000000E+00 0.  1.
         13    1    3    3    0    0 -0.21466470008E+03  0.15288265486E+03  0.49739992410E+03  0.56290384195E+03  0.10566000000E+00 0. -1.
         -4    1    3    3    0  501  0.16376382211E+03  0.35236835955E+03 -0.38999437009E+03  0.55052489403E+03  0.00000000000E+00 0. -1.
<mgrwt>
<rscale>  0 0.11141556E+04</rscale>
<asrwt>0</asrwt>
<pdfrwt beam="2">  1        4 0.73719806E+00 0.11201066E+04</pdfrwt>
<pdfrwt beam="1">  1       -4 0.10516187E+00 0.11082363E+04</pdfrwt>
<totfact> 0.28089720E-03</totfact>
</mgrwt>
</event>
<event>
 8    1  0.3025584E-006  0.1050534E+04  0.7818608E-02  0.8732994E-01
         -4   -1    0    0    0  501 -0.00000000000E+00  0.00000000000E+00  0.19267091388E+04  0.19267091388E+04  0.00000000000E+00 0. -1.
          4   -1    0    0  502    0  0.00000000000E+00 -0.00000000000E+00 -0.77422282675E+03  0.77422282675E+03  0.00000000000E+00 0.  1.
   -9000010    2    1    2    0  501  0.36878011694E+02  0.25140280135E+03  0.12764052685E+04  0.16531279904E+04  0.10193421343E+04 0.  0.
    9000010    2    1    2  502    0 -0.36878011694E+02 -0.25140280135E+03 -0.12391895645E+03  0.10478039752E+04  0.10089469294E+04 0.  0.
        -13    1    4    4    0    0 -0.31982602656E+03 -0.19660185057E+03 -0.46735085662E+03  0.59946460217E+03  0.10566000000E+00 0.  1.
          4    1    4    4  502    0  0.28294801487E+03 -0.54800950779E+02  0.34343190016E+03  0.44833937299E+03  0.00000000000E+00 0.  1.
         13    1    3    3    0    0 -0.26714221344E+03  0.27735025789E+03  0.12914427359E+04  0.13476321750E+04  0.10566000000E+00 0. -1.
         -4    1    3    3    0  501  0.30402022513E+03 -0.25947456543E+02 -0.15037467419E+02  0.30549581538E+03  0.00000000000E+00 0. -1.
<mgrwt>
<rscale>  0 0.10454801E+04</rscale>
<asrwt>0</asrwt>
<pdfrwt beam="2">  1        4 0.11911120E+00 0.10404505E+04</pdfrwt>
<pdfrwt beam="1">  1       -4 0.29641679E+00 0.10505340E+04</pdfrwt>
<totfact> 0.22409461E-01</totfact>
</mgrwt>
</event>
<event>
 8    1  0.3025584E-006  0.1783762E+04  0.7818608E-02  0.8262616E-01
         -4   -1    0    0    0  501 -0.00000000000E+00  0.00000000000E+00  0.28038129536E+04  0.28038129536E+04  0.00000000000E+00 0. -1.
          4   -1    0    0  502    0  0.00000000000E+00 -0.00000000000E+00 -0.26181669120E+04  0.26181669120E+04  0.00000000000E+00 0.  1.
   -9000010    2    1    2    0  501 -0.12200839473E+04  0.80577468143E+03  0.21333999832E+04  0.27808637972E+04  0.10217290709E+04 0.  0.
    9000010    2    1    2  502    0  0.12200839473E+04 -0.80577468143E+03 -0.19477539417E+04  0.26411160685E+04  0.10217000509E+04 0.  0.
        -13    1    4    4    0    0  0.78848216927E+03  0.67462396707E+02 -0.68742503079E+03  0.10482406643E+04  0.10566000000E+00 0.  1.
          4    1    4    4  502    0  0.43160177803E+03 -0.87323707814E+03 -0.12603289109E+04  0.15928754041E+04  0.00000000000E+00 0.  1.
         13    1    3    3    0    0 -0.13364642008E+04  0.62902598766E+03  0.20987388465E+04  0.25664206612E+04  0.10566000000E+00 0. -1.
         -4    1    3    3    0  501  0.11638025353E+03  0.17674869378E+03  0.34661136722E+02  0.21444313596E+03  0.00000000000E+00 0. -1.
<mgrwt>
<rscale>  0 0.17837540E+04</rscale>
<asrwt>0</asrwt>
<pdfrwt beam="2">  1        4 0.40279491E+00 0.17837457E+04</pdfrwt>
<pdfrwt beam="1">  1       -4 0.43135584E+00 0.17837623E+04</pdfrwt>
<totfact> 0.81842160E-03</totfact>
</mgrwt>
</event>
<event>
 8    1  0.3025584E-006  0.1151901E+04  0.7818608E-02  0.8652363E-01
         -4   -1    0    0    0  501 -0.00000000000E+00  0.00000000000E+00  0.70772890962E+03  0.70772890962E+03  0.00000000000E+00 0. -1.
          4   -1    0    0  502    0  0.00000000000E+00 -0.00000000000E+00 -0.22080303058E+04  0.22080303058E+04  0.00000000000E+00 0.  1.
   -9000010    2    1    2    0  501 -0.12049774292E+02  0.53361609890E+03 -0.16067353935E+03  0.11630531227E+04  0.10207767836E+04 0.  0.
    9000010    2    1    2  502    0  0.12049774292E+02 -0.53361609890E+03 -0.13396278568E+04  0.17527060927E+04  0.99623517035E+03 0.  0.
        -13    1    4    4    0    0  0.41949113704E+03  0.45281834751E+02 -0.52226115254E+03  0.67140150523E+03  0.10566000000E+00 0.  1.
          4    1    4    4  502    0 -0.40744136275E+03 -0.57889793365E+03 -0.81736670425E+03  0.10813045875E+04  0.00000000000E+00 0.  1.
         13    1    3    3    0    0  0.17046416403E+03  0.24660996597E+03 -0.56201547900E+03  0.63697403113E+03  0.10566000000E+00 0. -1.
         -4    1    3    3    0  501 -0.18251393833E+03  0.28700613293E+03  0.40134193966E+03  0.52607909153E+03  0.00000000000E+00 0. -1.
<mgrwt>
<rscale>  0 0.11410044E+04</rscale>
<asrwt>0</asrwt>
<pdfrwt beam="2">  1        4 0.33969696E+00 0.11302105E+04</pdfrwt>
<pdfrwt beam="1">  1       -4 0.10888137E+00 0.11519013E+04</pdfrwt>
<totfact> 0.19756541E-01</totfact>
</mgrwt>
</event>
<event>
 8    1  0.3025584E-006  0.1043545E+04  0.7818608E-02  0.8738112E-01
          4   -1    0    0  502    0  0.00000000000E+00  0.00000000000E+00  0.18783717338E+04  0.18783717338E+04  0.00000000000E+00 0.  1.
         -4   -1    0    0    0  501 -0.00000000000E+00 -0.00000000000E+00 -0.13699936640E+04  0.13699936640E+04  0.00000000000E+00 0. -1.
   -9000010    2    1    2    0  501 -0.14437613755E+03  0.15119353951E+03 -0.98301728353E+03  0.14281328180E+04  0.10146607367E+04 0.  0.
    9000010    2    1    2  502    0  0.14437613755E+03 -0.15119353951E+03  0.14913953533E+04  0.18202325798E+04  0.10223906246E+04 0.  0.
        -13    1    4    4    0    0 -0.18097710828E+03  0.36455856532E+03  0.80529859855E+03  0.90230898547E+03  0.10566000000E+00 0.  1.
          4    1    4    4  502    0  0.32535324583E+03 -0.51575210483E+03  0.68609675475E+03  0.91792359436E+03  0.00000000000E+00 0.  1.
         13    1    3    3    0    0  0.49268443516E+02 -0.24780299235E+03 -0.95042348300E+03  0.98343200616E+03  0.10566000000E+00 0. -1.
         -4    1    3    3    0  501 -0.19364458107E+03  0.39899653186E+03 -0.32593800528E+02  0.44470081184E+03  0.00000000000E+00 0. -1.
<mgrwt>
<rscale>  0 0.10397523E+04</rscale>
<asrwt>0</asrwt>
<pdfrwt beam="1">  1        4 0.28898027E+00 0.10435452E+04</pdfrwt>
<pdfrwt beam="2">  1       -4 0.21076826E+00 0.10359731E+04</pdfrwt>
<totfact> 0.10275539E-01</totfact>
</mgrwt>
</event>
<event>
 8    1  0.3025584E-006  0.1113560E+04  0.7818608E-02  0.8684835E-01
         -4   -1    0    0    0  501 -0.00000000000E+00  0.00000000000E+00  0.13332885133E+04  0.13332885133E+04  0.00000000000E+00 0. -1.
          4   -1    0    0  502    0  0.00000000000E+00 -0.00000000000E+00 -0.24074032577E+04  0.24074032577E+04  0.00000000000E+00 0.  1.
   -9000010    2    1    2    0  501  0.40003451349E+03  0.10916889516E+03  0.94033891854E+03  0.14389447969E+04  0.10071640318E+04 0.  0.
    9000010    2    1    2  502    0 -0.40003451349E+03 -0.10916889516E+03 -0.20144536629E+04  0.23017469742E+04  0.10334747764E+04 0.  0.
        -13    1    4    4    0    0  0.18560865211E+03 -0.39953843037E+03 -0.60820112411E+03  0.75099277468E+03  0.10566000000E+00 0.  1.
          4    1    4    4  502    0 -0.58564316560E+03  0.29036953521E+03 -0.14062525388E+04  0.15507541995E+04  0.00000000000E+00 0.  1.
         13    1    3    3    0    0  0.63144933161E+03 -0.49768784175E+02  0.22785143795E+03  0.67314298571E+03  0.10566000000E+00 0. -1.
         -4    1    3    3    0  501 -0.23141481812E+03  0.15893767933E+03  0.71248748058E+03  0.76580181114E+03  0.00000000000E+00 0. -1.
<mgrwt>
<rscale>  0 0.11013052E+04</rscale>
<asrwt>0</asrwt>
<pdfrwt beam="2">  1        4 0.37036973E+00 0.11135599E+04</pdfrwt>
<pdfrwt beam="1">  1       -4 0.20512131E+00 0.10891854E+04</pdfrwt>
<totfact> 0.59889988E-02</totfact>
</mgrwt>
</event>
<event>
 8    1  0.3025584E-006  0.1112212E+04  0.7818608E-02  0.8690230E-01
          4   -1    0    0  502    0  0.00000000000E+00  0.00000000000E+00  0.96233735653E+03  0.96233735653E+03  0.00000000000E+00 0.  1.
         -4   -1    0    0    0  501 -0.00000000000E+00 -0.00000000000E+00 -0.15845796086E+04  0.15845796086E+04  0.00000000000E+00 0. -1.
   -9000010    2    1    2    0  501 -0.33639998985E+03  0.27643806866E+03 -0.89589808931E+03  0.14015335286E+04  0.98594111708E+03 0.  0.
    9000010    2    1    2  502    0  0.33639998985E+03 -0.27643806866E+03  0.27365583723E+03  0.11453834365E+04  0.10234416156E+04 0.  0.
        -13    1    4    4    0    0  0.73409436669E+02 -0.60458298305E+03  0.37181557038E+03  0.71355193107E+03  0.10566000000E+00 0.  1.
          4    1    4    4  502    0  0.26299055318E+03  0.32814491439E+03 -0.98159733148E+02  0.43183150547E+03  0.00000000000E+00 0.  1.
         13    1    3    3    0    0 -0.62932110820E+02  0.26045069161E+03 -0.10524479401E+04  0.10860210362E+04  0.10566000000E+00 0. -1.
         -4    1    3    3    0  501 -0.27346787903E+03  0.15987377053E+02  0.15654985076E+03  0.31551249240E+03  0.00000000000E+00 0. -1.
<mgrwt>
<rscale>  0 0.10948732E+04</rscale>
<asrwt>0</asrwt>
<pdfrwt beam="1">  1        4 0.14805190E+00 0.11122121E+04</pdfrwt>
<pdfrwt beam="2">  1       -4 0.24378148E+00 0.10778046E+04</pdfrwt>
<totfact> 0.21384123E-01</totfact>
</mgrwt>
</event>
<event>
 8    1  0.3025584E-006  0.1095149E+04  0.7818608E-02  0.8695738E-01
         -4   -1    0    0    0  501 -0.00000000000E+00  0.00000000000E+00  0.20436757357E+04  0.20436757357E+04  0.00000000000E+00 0. -1.
          4   -1    0    0  502    0  0.00000000000E+00 -0.00000000000E+00 -0.26838589099E+04  0.26838589099E+04  0.00000000000E+00 0.  1.
   -9000010    2    1    2    0  501 -0.34769606500E+03  0.26867549289E+03  0.17733440280E+04  0.20771640357E+04  0.98832298126E+03 0.  0.
    9000010    2    1    2  502    0  0.34769606500E+03 -0.26867549289E+03 -0.24135272023E+04  0.26503706099E+04  0.10031309685E+04 0.  0.
        -13    1    4    4    0    0  0.67982347246E+03 -0.62370140544E+02 -0.12701169218E+04  0.14419594288E+04  0.10566000000E+00 0.  1.
          4    1    4    4  502    0 -0.33212740747E+03 -0.20630535234E+03 -0.11434102804E+04  0.12084111811E+04  0.00000000000E+00 0.  1.
         13    1    3    3    0    0 -0.20175617416E+02  0.45655029104E+03  0.15957594789E+04  0.16599076931E+04  0.10566000000E+00 0. -1.
         -4    1    3    3    0  501 -0.32752044758E+03 -0.18787479815E+03  0.17758454910E+03  0.41725634260E+03  0.00000000000E+00 0. -1.
<mgrwt>
<rscale>  0 0.10883540E+04</rscale>
<asrwt>0</asrwt>
<pdfrwt beam="2">  1        4 0.41290137E+00 0.10951488E+04</pdfrwt>
<pdfrwt beam="1">  1       -4 0.31441165E+00 0.10816013E+04</pdfrwt>
<totfact> 0.21769125E-02</totfact>
</mgrwt>
</event>
<event>
 8    1  0.3025584E-006  0.1106862E+04  0.7818608E-02  0.8688568E-01
         -4   -1    0    0    0  501 -0.00000000000E+00  0.00000000000E+00  0.12464458188E+04  0.12464458188E+04  0.00000000000E+00 0. -1.
          4   -1    0    0  502    0  0.00000000000E+00 -0.00000000000E+00 -0.36895036524E+04  0.36895036524E+04  0.00000000000E+00 0.  1.
   -9000010    2    1    2    0  501 -0.24385334951E+03 -0.36683357977E+03  0.89623575124E+03  0.14242128239E+04  0.10154370067E+04 0.  0.
    9000010    2    1    2  502    0  0.24385334951E+03  0.36683357977E+03 -0.33392935848E+04  0.35117366473E+04  0.99367062103E+03 0.  0.
        -13    1    4    4    0    0  0.34202564523E+03  0.50000222458E+03 -0.10184213476E+04  0.11849750288E+04  0.10566000000E+00 0.  1.
          4    1    4    4  502    0 -0.98172295726E+02 -0.13316864480E+03 -0.23208722373E+04  0.23267616185E+04  0.00000000000E+00 0.  1.
         13    1    3    3    0    0 -0.83535153174E+02 -0.52110770784E+03  0.28633948319E+02  0.52853692316E+03  0.10566000000E+00 0. -1.
         -4    1    3    3    0  501 -0.16031819633E+03  0.15427412806E+03  0.86760180292E+03  0.89567590070E+03  0.00000000000E+00 0. -1.
<mgrwt>
<rscale>  0 0.10968498E+04</rscale>
<asrwt>0</asrwt>
<pdfrwt beam="2">  1        4 0.56761594E+00 0.10869281E+04</pdfrwt>
<pdfrwt beam="1">  1       -4 0.19176090E+00 0.11068621E+04</pdfrwt>
<totfact> 0.82983264E-03</totfact>
</mgrwt>
</event>
<event>
 8    1  0.3025584E-006  0.1143944E+04  0.7818608E-02  0.8651973E-01
         -4   -1    0    0    0  501 -0.00000000000E+00  0.00000000000E+00  0.20081088578E+04  0.20081088578E+04  0.00000000000E+00 0. -1.
          4   -1    0    0  502    0  0.00000000000E+00 -0.00000000000E+00 -0.81076125219E+03  0.81076125219E+03  0.00000000000E+00 0.  1.
   -9000010    2    1    2    0  501  0.48676180385E+03 -0.26336290345E+03  0.12295044417E+04  0.16793719603E+04  0.10011553008E+04 0.  0.
    9000010    2    1    2  502    0 -0.48676180385E+03  0.26336290345E+03 -0.32156836085E+02  0.11394981497E+04  0.99555255933E+03 0.  0.
        -13    1    4    4    0    0 -0.51959514567E+03  0.74110905666E+02  0.40438328164E+03  0.66256878237E+03  0.10566000000E+00 0.  1.
          4    1    4    4  502    0  0.32833341818E+02  0.18925199778E+03 -0.43654011773E+03  0.47692936729E+03  0.00000000000E+00 0.  1.
         13    1    3    3    0    0  0.73933911505E+03 -0.18739406928E+03  0.52183550309E+03  0.92414888827E+03  0.10566000000E+00 0. -1.
         -4    1    3    3    0  501 -0.25257731120E+03 -0.75968834168E+02  0.70766893859E+03  0.75522307204E+03  0.00000000000E+00 0. -1.
<mgrwt>
<rscale>  0 0.11414918E+04</rscale>
<asrwt>0</asrwt>
<pdfrwt beam="2">  1        4 0.12473250E+00 0.11390443E+04</pdfrwt>
<pdfrwt beam="1">  1       -4 0.30893982E+00 0.11439445E+04</pdfrwt>
<totfact> 0.19086774E-01</totfact>
</mgrwt>
</event>
<event>
 8    1  0.3025584E-006  0.1096208E+04  0.7818608E-02  0.8717586E-01
          4   -1    0    0  502    0  0.00000000000E+00  0.00000000000E+00  0.76385929614E+03  0.76385929614E+03  0.00000000000E+00 0.  1.
         -4   -1    0    0    0  501 -0.00000000000E+00 -0.00000000000E+00 -0.39017231684E+04  0.39017231684E+04  0.00000000000E+00 0. -1.
   -9000010    2    1    2    0  501 -0.25689242462E+03 -0.16834854790E+02 -0.34245645724E+04  0.35957354785E+04  0.10655486807E+04 0.  0.
    9000010    2    1    2  502    0  0.25689242462E+03  0.16834854790E+02  0.28670070011E+03  0.10698469860E+04  0.99804716920E+03 0.  0.
        -13    1    4    4    0    0 -0.11780927268E+03  0.81701703566E+02  0.57502365703E+03  0.59262670409E+03  0.10566000000E+00 0.  1.
          4    1    4    4  502    0  0.37470169729E+03 -0.64866848777E+02 -0.28832295692E+03  0.47722028195E+03  0.00000000000E+00 0.  1.
         13    1    3    3    0    0  0.24604845510E+03 -0.33352611107E+03 -0.75976454306E+03  0.86546038677E+03  0.10566000000E+00 0. -1.
         -4    1    3    3    0  501 -0.50294087972E+03  0.31669125628E+03 -0.26648000293E+04  0.27302750918E+04  0.00000000000E+00 0. -1.
<mgrwt>
<rscale>  0 0.10629575E+04</rscale>
<asrwt>0</asrwt>
<pdfrwt beam="1">  1        4 0.11751682E+00 0.10307159E+04</pdfrwt>
<pdfrwt beam="2">  1       -4 0.60026509E+00 0.10962076E+04</pdfrwt>
<totfact> 0.11503098E-02</totfact>
</mgrwt>
</event>
<event>
 8    1  0.3025584E-006  0.1179528E+04  0.7818608E-02  0.8629802E-01
          4   -1    0    0  502    0  0.00000000000E+00  0.00000000000E+00  0.20301228703E+04  0.20301228703E+04  0.00000000000E+00 0.  1.
         -4   -1    0    0    0  501 -0.00000000000E+00 -0.00000000000E+00 -0.11095563708E+04  0.11095563708E+04  0.00000000000E+00 0. -1.
   -9000010    2    1    2    0  501  0.10392805020E+03  0.62181587703E+03 -0.52573590832E+03  0.12733788729E+04  0.97346776220E+03 0.  0.
    9000010    2    1    2  502    0 -0.10392805020E+03 -0.62181587703E+03  0.14463024079E+04  0.18663003682E+04  0.99691041964E+03 0.  0.
        -13    1    4    4    0    0  0.17573786596E+03 -0.81482187089E+03  0.93771689444E+03  0.12546439591E+04  0.10566000000E+00 0.  1.
          4    1    4    4  502    0 -0.27966591616E+03  0.19300599386E+03  0.50858551345E+03  0.61165640912E+03  0.00000000000E+00 0.  1.
         13    1    3    3    0    0  0.51206944616E+03  0.25165856093E+03 -0.42923767364E+03  0.71399729734E+03  0.10566000000E+00 0. -1.
         -4    1    3    3    0  501 -0.40814139596E+03  0.37015731610E+03 -0.96498234687E+02  0.55938157554E+03  0.00000000000E+00 0. -1.
<mgrwt>
<rscale>  0 0.11696136E+04</rscale>
<asrwt>0</asrwt>
<pdfrwt beam="1">  1        4 0.31232660E+00 0.11795280E+04</pdfrwt>
<pdfrwt beam="2">  1       -4 0.17070098E+00 0.11597825E+04</pdfrwt>
<totfact> 0.11651188E-01</totfact>
</mgrwt>
</event>
<event>
 8    1  0.3025584E-006  0.1125208E+04  0.7818608E-02  0.8665315E-01
         -4   -1    0    0    0  501 -0.00000000000E+00  0.00000000000E+00  0.15378069709E+04  0.15378069709E+04  0.00000000000E+00 0. -1.
          4   -1    0    0  502    0  0.00000000000E+00 -0.00000000000E+00 -0.87557006656E+03  0.87557006656E+03  0.00000000000E+00 0.  1.
   -9000010    2    1    2    0  501 -0.52971579672E+03 -0.22886776253E+02  0.62699609278E+03  0.12881061747E+04  0.99245694468E+03 0.  0.
    9000010    2    1    2  502    0  0.52971579672E+03  0.22886776253E+02  0.35240811601E+02  0.11252708628E+04  0.99190219787E+03 0.  0.
        -13    1    4    4    0    0 -0.23151007157E+03 -0.15517795164E+03 -0.15744100603E+03  0.32010122064E+03  0.10566000000E+00 0.  1.
          4    1    4    4  502    0  0.76122586829E+03  0.17806472790E+03  0.19268181763E+03  0.80516964220E+03  0.00000000000E+00 0.  1.
         13    1    3    3    0    0  0.48100723855E+02  0.39987858159E+03  0.16042326147E+03  0.43353453569E+03  0.10566000000E+00 0. -1.
         -4    1    3    3    0  501 -0.57781652057E+03 -0.42276535784E+03  0.46657283132E+03  0.85457163899E+03  0.00000000000E+00 0. -1.
<mgrwt>
<rscale>  0 0.11249635E+04</rscale>
<asrwt>0</asrwt>
<pdfrwt beam="2">  1        4 0.13470309E+00 0.11247189E+04</pdfrwt>
<pdfrwt beam="1">  1       -4 0.23658569E+00 0.11252082E+04</pdfrwt>
<totfact> 0.25599894E-01</totfact>
</mgrwt>
</event>
<event>
 8    1  0.3025584E-006  0.1217010E+04  0.7818608E-02  0.8595661E-01
         -4   -1    0    0    0  501 -0.00000000000E+00  0.00000000000E+00  0.10245636846E+04  0.10245636846E+04  0.00000000000E+00 0. -1.
          4   -1    0    0  502    0  0.00000000000E+00 -0.00000000000E+00 -0.17826506294E+04  0.17826506294E+04  0.00000000000E+00 0.  1.
   -9000010    2    1    2    0  501 -0.67156281847E+03  0.18170078279E+03  0.23585205046E+03  0.12396533668E+04  0.99855019228E+03 0.  0.
    9000010    2    1    2  502    0  0.67156281847E+03 -0.18170078279E+03 -0.99393899530E+03  0.15675609472E+04  0.99263326728E+03 0.  0.
        -13    1    4    4    0    0  0.15554612910E+03  0.17529968012E+02 -0.10022067959E+04  0.10143571220E+04  0.10566000000E+00 0.  1.
          4    1    4    4  502    0  0.51601668937E+03 -0.19923075080E+03  0.82678005559E+01  0.55320382527E+03  0.00000000000E+00 0.  1.
         13    1    3    3    0    0 -0.79818159456E+03  0.22151754045E+03 -0.14086039173E+03  0.84024135803E+03  0.10566000000E+00 0. -1.
         -4    1    3    3    0  501  0.12661877609E+03 -0.39816757664E+02  0.37671244219E+03  0.39941200877E+03  0.00000000000E+00 0. -1.
<mgrwt>
<rscale>  0 0.12145829E+04</rscale>
<asrwt>0</asrwt>
<pdfrwt beam="2">  1        4 0.27425394E+00 0.12121603E+04</pdfrwt>
<pdfrwt beam="1">  1       -4 0.15762518E+00 0.12170104E+04</pdfrwt>
<totfact> 0.16436866E-01</totfact>
</mgrwt>
</event>
<event>
 8    1  0.3025584E-006  0.1199989E+04  0.7818608E-02  0.8617242E-01
          4   -1    0    0  502    0  0.00000000000E+00  0.00000000000E+00  0.33330197376E+04  0.33330197376E+04  0.00000000000E+00 0.  1.
         -4   -1    0    0    0  501 -0.00000000000E+00 -0.00000000000E+00 -0.42211022430E+03  0.42211022430E+03  0.00000000000E+00 0. -1.
   -9000010    2    1    2    0  501  0.28224233839E+03  0.57458935495E+03  0.14658045056E+04  0.18767523194E+04  0.98173456455E+03 0.  0.
    9000010    2    1    2  502    0 -0.28224233839E+03 -0.57458935495E+03  0.14451050077E+04  0.18783776426E+04  0.10149681868E+04 0.  0.
        -13    1    4    4    0    0 -0.22172677988E+03  0.16920590546E+03  0.93175787831E+03  0.97260791603E+03  0.10566000000E+00 0.  1.
          4    1    4    4  502    0 -0.60515558505E+02 -0.74379526041E+03  0.51334712943E+03  0.90576972655E+03  0.00000000000E+00 0.  1.
         13    1    3    3    0    0  0.55340342018E+03  0.52826875860E+03  0.61200629407E+03  0.97973207660E+03  0.10566000000E+00 0. -1.
         -4    1    3    3    0  501 -0.27116108180E+03  0.46320596354E+02  0.85379821151E+03  0.89702024275E+03  0.00000000000E+00 0. -1.
<mgrwt>
<rscale>  0 0.11859190E+04</rscale>
<asrwt>0</asrwt>
<pdfrwt beam="1">  1        4 0.51277225E+00 0.11999892E+04</pdfrwt>
<pdfrwt beam="2">  1       -4 0.64940037E-01 0.11720138E+04</pdfrwt>
<totfact> 0.10370329E-01</totfact>
</mgrwt>
</event>
<event>
 8    1  0.3025584E-006  0.1162395E+04  0.7818608E-02  0.8637575E-01
          4   -1    0    0  502    0  0.00000000000E+00  0.00000000000E+00  0.10129860177E+04  0.10129860177E+04  0.00000000000E+00 0.  1.
         -4   -1    0    0    0  501 -0.00000000000E+00 -0.00000000000E+00 -0.29187725685E+04  0.29187725685E+04  0.00000000000E+00 0. -1.
   -9000010    2    1    2    0  501 -0.37432395460E+03  0.46711646597E+03 -0.24054164856E+04  0.26715519423E+04  0.99641612572E+03 0.  0.
    9000010    2    1    2  502    0  0.37432395460E+03 -0.46711646597E+03  0.49962993478E+03  0.12602066439E+04  0.99003762451E+03 0.  0.
        -13    1    4    4    0    0 -0.21141773208E+03 -0.19885028284E+03  0.54172956836E+03  0.61458101892E+03  0.10566000000E+00 0.  1.
          4    1    4    4  502    0  0.58574168669E+03 -0.26826618312E+03 -0.42099633578E+02  0.64562562502E+03  0.00000000000E+00 0.  1.
         13    1    3    3    0    0  0.22288909225E+03 -0.16104943372E+03 -0.81710437688E+03  0.86213458429E+03  0.10566000000E+00 0. -1.
         -4    1    3    3    0  501 -0.59721304685E+03  0.62816589969E+03 -0.15883121087E+04  0.18094173580E+04  0.00000000000E+00 0. -1.
<mgrwt>
<rscale>  0 0.11596599E+04</rscale>
<asrwt>0</asrwt>
<pdfrwt beam="1">  1        4 0.15584400E+00 0.11569316E+04</pdfrwt>
<pdfrwt beam="2">  1       -4 0.44904193E+00 0.11623946E+04</pdfrwt>
<totfact> 0.41152624E-02</totfact>
</mgrwt>
</event>
<event>
 8    1  0.3025584E-006  0.1196386E+04  0.7818608E-02  0.8622085E-01
         -4   -1    0    0    0  501 -0.00000000000E+00  0.00000000000E+00  0.34049236032E+04  0.34049236032E+04  0.00000000000E+00 0. -1.
          4   -1    0    0  502    0  0.00000000000E+00 -0.00000000000E+00 -0.14439126147E+04  0.14439126147E+04  0.00000000000E+00 0.  1.
   -9000010    2    1    2    0  501 -0.59122443782E+03  0.20774653670E+03  0.30293096604E+04  0.32449032432E+04  0.97978317990E+03 0.  0.
    9000010    2    1    2  502    0  0.59122443782E+03 -0.20774653670E+03 -0.10682986719E+04  0.16039329747E+04  0.10191339341E+04 0.  0.
        -13    1    4    4    0    0  0.80782265383E+03 -0.17536639531E+03 -0.11069472713E+04  0.13815437327E+04  0.10566000000E+00 0.  1.
          4    1    4    4  502    0 -0.21659821601E+03 -0.32380141389E+02  0.38648599461E+02  0.22238924204E+03  0.00000000000E+00 0.  1.
         13    1    3    3    0    0 -0.32383395180E+03 -0.13417951151E+03  0.26358382941E+04  0.26590442068E+04  0.10566000000E+00 0. -1.
         -4    1    3    3    0  501 -0.26739048602E+03  0.34192604821E+03  0.39347136628E+03  0.58585903640E+03  0.00000000000E+00 0. -1.
<mgrwt>
<rscale>  0 0.11795990E+04</rscale>
<asrwt>0</asrwt>
<pdfrwt beam="2">  1        4 0.22214040E+00 0.11963858E+04</pdfrwt>
<pdfrwt beam="1">  1       -4 0.52383440E+00 0.11630477E+04</pdfrwt>
<totfact> 0.11343754E-02</totfact>
</mgrwt>
</event>
<event>
 8    1  0.3025584E-006  0.1016365E+04  0.7818608E-02  0.8761521E-01
          4   -1    0    0  502    0  0.00000000000E+00  0.00000000000E+00  0.22233464511E+04  0.22233464511E+04  0.00000000000E+00 0.  1.
         -4   -1    0    0    0  501 -0.00000000000E+00 -0.00000000000E+00 -0.13995497224E+04  0.13995497224E+04  0.00000000000E+00 0. -1.
   -9000010    2    1    2    0  501 -0.15025184757E+03  0.15921715579E+03 -0.10700217109E+04  0.14757858809E+04  0.99250782572E+03 0.  0.
    9000010    2    1    2  502    0  0.15025184757E+03 -0.15921715579E+03  0.18938184397E+04  0.21471102926E+04  0.98772901430E+03 0.  0.
        -13    1    4    4    0    0  0.85655174557E+02 -0.25602650083E+03  0.19824959089E+04  0.20007939469E+04  0.10566000000E+00 0.  1.
          4    1    4    4  502    0  0.64596673013E+02  0.96809345036E+02 -0.88677469250E+02  0.14631634565E+03  0.00000000000E+00 0.  1.
         13    1    3    3    0    0  0.34571673192E+03  0.15400777785E+03 -0.85532345715E+03  0.93531635391E+03  0.10566000000E+00 0. -1.
         -4    1    3    3    0  501 -0.49596857949E+03  0.52093779441E+01 -0.21469825376E+03  0.54046952702E+03  0.00000000000E+00 0. -1.
<mgrwt>
<rscale>  0 0.10140291E+04</rscale>
<asrwt>0</asrwt>
<pdfrwt beam="1">  1        4 0.34205330E+00 0.10116987E+04</pdfrwt>
<pdfrwt beam="2">  1       -4 0.21531534E+00 0.10163648E+04</pdfrwt>
<totfact> 0.71421869E-02</totfact>
</mgrwt>
</event>
<event>
 8    1  0.3025584E-006  0.1107977E+04  0.7818608E-02  0.8683050E-01
          4   -1    0    0  502    0  0.00000000000E+00  0.00000000000E+00  0.12582066179E+04  0.12582066179E+04  0.00000000000E+00 0.  1.
         -4   -1    0    0    0  501 -0.00000000000E+00 -0.00000000000E+00 -0.18439651346E+04  0.18439651346E+04  0.00000000000E+00 0. -1.
   -9000010    2    1    2    0  501  0.36631396559E+03 -0.30636530375E+03 -0.13614695213E+04  0.17496408683E+04  0.98974657863E+03 0.  0.
    9000010    2    1    2  502    0 -0.36631396559E+03  0.30636530375E+03  0.77571100459E+03  0.13525308843E+04  0.99978328127E+03 0.  0.
        -13    1    4    4    0    0 -0.54122992416E+03  0.57238661442E+03  0.58724961909E+03  0.98255706881E+03  0.10566000000E+00 0.  1.
          4    1    4    4  502    0  0.17491595857E+03 -0.26602131067E+03  0.18846138550E+03  0.36997381545E+03  0.00000000000E+00 0.  1.
         13    1    3    3    0    0 -0.67006504177E+02  0.32546243960E+02 -0.11621408218E+04  0.11645258393E+04  0.10566000000E+00 0. -1.
         -4    1    3    3    0  501  0.43332046977E+03 -0.33891154771E+03 -0.19932869948E+03  0.58511502897E+03  0.00000000000E+00 0. -1.
<mgrwt>
<rscale>  0 0.11034433E+04</rscale>
<asrwt>0</asrwt>
<pdfrwt beam="1">  1        4 0.19357025E+00 0.11079766E+04</pdfrwt>
<pdfrwt beam="2">  1       -4 0.28368694E+00 0.10989285E+04</pdfrwt>
<totfact> 0.11788587E-01</totfact>
</mgrwt>
</event>
<event>
 8    1  0.3025584E-006  0.1051015E+04  0.7818608E-02  0.8729151E-01
         -4   -1    0    0    0  501 -0.00000000000E+00  0.00000000000E+00  0.62515531395E+03  0.62515531395E+03  0.00000000000E+00 0. -1.
          4   -1    0    0  502    0  0.00000000000E+00 -0.00000000000E+00 -0.20387819054E+04  0.20387819054E+04  0.00000000000E+00 0.  1.
   -9000010    2    1    2    0  501  0.25423701735E+03 -0.18916544030E+03 -0.21755723740E+03  0.10732961300E+04  0.10021044887E+04 0.  0.
    9000010    2    1    2  502    0 -0.25423701735E+03  0.18916544030E+03 -0.11960693541E+04  0.15906410894E+04  0.99956848231E+03 0.  0.
        -13    1    4    4    0    0  0.17690131321E+03 -0.30185153973E+03 -0.21106339678E+03  0.40860273528E+03  0.10566000000E+00 0.  1.
          4    1    4    4  502    0 -0.43113833056E+03  0.49101698004E+03 -0.98500595732E+03  0.11820383542E+04  0.00000000000E+00 0.  1.
         13    1    3    3    0    0  0.59662935949E+03 -0.32601961537E+03 -0.10634660172E+03  0.68816058669E+03  0.10566000000E+00 0. -1.
         -4    1    3    3    0  501 -0.34239234214E+03  0.13685417507E+03 -0.11121063568E+03  0.38513554326E+03  0.00000000000E+00 0. -1.
<mgrwt>
<rscale>  0 0.10498059E+04</rscale>
<asrwt>0</asrwt>
<pdfrwt beam="2">  1        4 0.31365876E+00 0.10485977E+04</pdfrwt>
<pdfrwt beam="1">  1       -4 0.96177740E-01 0.10510154E+04</pdfrwt>
<totfact> 0.29703983E-01</totfact>
</mgrwt>
</event>
<event>
 8    1  0.3025584E-006  0.1070428E+04  0.7818608E-02  0.8734995E-01
         -4   -1    0    0    0  501 -0.00000000000E+00  0.00000000000E+00  0.13456026421E+04  0.13456026421E+04  0.00000000000E+00 0. -1.
          4   -1    0    0  502    0  0.00000000000E+00 -0.00000000000E+00 -0.17033458941E+04  0.17033458941E+04  0.00000000000E+00 0.  1.
   -9000010    2    1    2    0  501  0.49470326566E+02  0.15977990330E+03  0.92319409738E+03  0.14135430745E+04  0.10572794103E+04 0.  0.
    9000010    2    1    2  502    0 -0.49470326566E+02 -0.15977990330E+03 -0.12809373494E+04  0.16354054617E+04  0.10028826454E+04 0.  0.
        -13    1    4    4    0    0  0.14373590394E+03 -0.23357218477E+03  0.58224121780E+02  0.28036767842E+03  0.10566000000E+00 0.  1.
          4    1    4    4  502    0 -0.19320623051E+03  0.73792281469E+02 -0.13391614711E+04  0.13550377833E+04  0.00000000000E+00 0.  1.
         13    1    3    3    0    0 -0.22656368582E+03  0.20173128849E+03  0.10600496643E+04  0.11026023392E+04  0.10566000000E+00 0. -1.
         -4    1    3    3    0  501  0.27603401239E+03 -0.41951385188E+02 -0.13685556689E+03  0.31094073535E+03  0.00000000000E+00 0. -1.
<mgrwt>
<rscale>  0 0.10432364E+04</rscale>
<asrwt>0</asrwt>
<pdfrwt beam="2">  1        4 0.26205321E+00 0.10167352E+04</pdfrwt>
<pdfrwt beam="1">  1       -4 0.20701579E+00 0.10704283E+04</pdfrwt>
<totfact> 0.12244032E-01</totfact>
</mgrwt>
</event>
<event>
 8    1  0.3025584E-006  0.1165043E+04  0.7818608E-02  0.8635865E-01
         -4   -1    0    0    0  501 -0.00000000000E+00  0.00000000000E+00  0.75826746351E+03  0.75826746351E+03  0.00000000000E+00 0. -1.
          4   -1    0    0  502    0  0.00000000000E+00 -0.00000000000E+00 -0.21819718872E+04  0.21819718872E+04  0.00000000000E+00 0.  1.
   -9000010    2    1    2    0  501 -0.57606898254E+03 -0.77490448163E+02 -0.82630390870E+02  0.11679693437E+04  0.10096852798E+04 0.  0.
    9000010    2    1    2  502    0  0.57606898254E+03  0.77490448163E+02 -0.13410740328E+04  0.17722700070E+04  0.10022979467E+04 0.  0.
        -13    1    4    4    0    0 -0.14289768355E+02  0.30519716624E+03 -0.10159094558E+04  0.10608588696E+04  0.10566000000E+00 0.  1.
          4    1    4    4  502    0  0.59035875090E+03 -0.22770671808E+03 -0.32516457706E+03  0.71141113739E+03  0.00000000000E+00 0.  1.
         13    1    3    3    0    0 -0.49753756830E+03  0.42595484419E+03 -0.28786080632E+02  0.65559881846E+03  0.10566000000E+00 0. -1.
         -4    1    3    3    0  501 -0.78531414243E+02 -0.50344529235E+03 -0.53844310238E+02  0.51237052527E+03  0.00000000000E+00 0. -1.
<mgrwt>
<rscale>  0 0.11618402E+04</rscale>
<asrwt>0</asrwt>
<pdfrwt beam="2">  1        4 0.33568798E+00 0.11586464E+04</pdfrwt>
<pdfrwt beam="1">  1       -4 0.11665653E+00 0.11650427E+04</pdfrwt>
<totfact> 0.17929396E-01</totfact>
</mgrwt>
</event>
<event>
 8    1  0.3025584E-006  0.1250808E+04  0.7818608E-02  0.8577965E-01
         -4   -1    0    0    0  501 -0.00000000000E+00  0.00000000000E+00  0.90911300293E+03  0.90911300293E+03  0.00000000000E+00 0. -1.
          4   -1    0    0  502    0  0.00000000000E+00 -0.00000000000E+00 -0.31133874585E+04  0.31133874585E+04  0.00000000000E+00 0.  1.
   -9000010    2    1    2    0  501  0.46112321546E+03  0.54476280854E+03  0.25290183848E+03  0.12761193548E+04  0.10271904061E+04 0.  0.
    9000010    2    1    2  502    0 -0.46112321546E+03 -0.54476280854E+03 -0.24571762941E+04  0.27463811066E+04  0.99774380745E+03 0.  0.
        -13    1    4    4    0    0 -0.41435526914E+03 -0.83130251945E+03 -0.17341125669E+04  0.19672062866E+04  0.10566000000E+00 0.  1.
          4    1    4    4  502    0 -0.46767946324E+02  0.28653971091E+03 -0.72306372714E+03  0.77917482008E+03  0.00000000000E+00 0.  1.
         13    1    3    3    0    0  0.55041252481E+03  0.22703504200E+03  0.56578352494E+03  0.82134637396E+03  0.10566000000E+00 0. -1.
         -4    1    3    3    0  501 -0.89289309348E+02  0.31772776654E+03 -0.31288168646E+03  0.45477298086E+03  0.00000000000E+00 0. -1.
<mgrwt>
<rscale>  0 0.12387162E+04</rscale>
<asrwt>0</asrwt>
<pdfrwt beam="2">  1        4 0.47898268E+00 0.12267411E+04</pdfrwt>
<pdfrwt beam="1">  1       -4 0.13986354E+00 0.12508082E+04</pdfrwt>
<totfact> 0.34597318E-02</totfact>
</mgrwt>
</event>
<event>
 8    1  0.3025584E-006  0.1292849E+04  0.7818608E-02  0.8542155E-01
         -4   -1    0    0    0  501 -0.00000000000E+00  0.00000000000E+00  0.56355895494E+03  0.56355895494E+03  0.00000000000E+00 0. -1.
          4   -1    0    0  502    0  0.00000000000E+00 -0.00000000000E+00 -0.35106502509E+04  0.35106502509E+04  0.00000000000E+00 0.  1.
   -9000010    2    1    2    0  501  0.69010502412E+03 -0.43038082335E+03 -0.66274378953E+03  0.14528206989E+04  0.10049806243E+04 0.  0.
    9000010    2    1    2  502    0 -0.69010502412E+03  0.43038082335E+03 -0.22843475064E+04  0.26213885069E+04  0.99597267869E+03 0.  0.
        -13    1    4    4    0    0  0.25360108357E+03  0.10052676724E+03 -0.65871342444E+03  0.71296740964E+03  0.10566000000E+00 0.  1.
          4    1    4    4  502    0 -0.94370610769E+03  0.32985405611E+03 -0.16256340820E+04  0.19084210973E+04  0.00000000000E+00 0.  1.
         13    1    3    3    0    0 -0.13449787249E+03 -0.18295927037E+03  0.14734372503E+03  0.27069162675E+03  0.10566000000E+00 0. -1.
         -4    1    3    3    0  501  0.82460289662E+03 -0.24742155298E+03 -0.81008751456E+03  0.11821290722E+04  0.00000000000E+00 0. -1.
<mgrwt>
<rscale>  0 0.12893494E+04</rscale>
<asrwt>0</asrwt>
<pdfrwt beam="2">  1        4 0.54010005E+00 0.12858593E+04</pdfrwt>
<pdfrwt beam="1">  1       -4 0.86701376E-01 0.12928490E+04</pdfrwt>
<totfact> 0.42060906E-02</totfact>
</mgrwt>
</event>
<event>
 8    1  0.3025584E-006  0.1191637E+04  0.7818608E-02  0.8614653E-01
          4   -1    0    0  502    0  0.00000000000E+00  0.00000000000E+00  0.46875834084E+03  0.46875834084E+03  0.00000000000E+00 0.  1.
         -4   -1    0    0    0  501 -0.00000000000E+00 -0.00000000000E+00 -0.35541352348E+04  0.35541352348E+04  0.00000000000E+00 0. -1.
   -9000010    2    1    2    0  501  0.63924343029E+03 -0.13840718517E+03 -0.23268467599E+04  0.26142332576E+04  0.99609787126E+03 0.  0.
    9000010    2    1    2  502    0 -0.63924343029E+03  0.13840718517E+03 -0.75853013409E+03  0.14086603180E+04  0.99053885094E+03 0.  0.
        -13    1    4    4    0    0 -0.79626899817E+03  0.37414680408E+03 -0.68774009528E+03  0.11166989739E+04  0.10566000000E+00 0.  1.
          4    1    4    4  502    0  0.15702556788E+03 -0.23573961891E+03 -0.70790038812E+02  0.29196134416E+03  0.00000000000E+00 0.  1.
         13    1    3    3    0    0 -0.16528076047E+03 -0.19623850056E+03 -0.16059165538E+03  0.30268295265E+03  0.10566000000E+00 0. -1.
         -4    1    3    3    0  501  0.80452419076E+03  0.57831315391E+02 -0.21662551045E+04  0.23115503050E+04  0.00000000000E+00 0. -1.
<mgrwt>
<rscale>  0 0.11893137E+04</rscale>
<asrwt>0</asrwt>
<pdfrwt beam="1">  1        4 0.72116664E-01 0.11869945E+04</pdfrwt>
<pdfrwt beam="2">  1       -4 0.54679006E+00 0.11916374E+04</pdfrwt>
<totfact> 0.57372806E-02</totfact>
</mgrwt>
</event>
<event>
 8    1  0.3025584E-006  0.1130018E+04  0.7818608E-02  0.8663943E-01
          4   -1    0    0  502    0  0.00000000000E+00  0.00000000000E+00  0.57020707694E+03  0.57020707694E+03  0.00000000000E+00 0.  1.
         -4   -1    0    0    0  501 -0.00000000000E+00 -0.00000000000E+00 -0.27123412342E+04  0.27123412342E+04  0.00000000000E+00 0. -1.
   -9000010    2    1    2    0  501  0.23326525150E+03 -0.47659967522E+03 -0.17685937619E+04  0.20987770802E+04  0.99768803227E+03 0.  0.
    9000010    2    1    2  502    0 -0.23326525150E+03  0.47659967522E+03 -0.37354039534E+03  0.11837712309E+04  0.99006160023E+03 0.  0.
        -13    1    4    4    0    0 -0.44010093012E+02  0.68618632565E+03  0.33447798088E+02  0.68840927373E+03  0.10566000000E+00 0.  1.
          4    1    4    4  502    0 -0.18925515849E+03 -0.20958665043E+03 -0.40698819343E+03  0.49536195721E+03  0.00000000000E+00 0.  1.
         13    1    3    3    0    0 -0.37889197085E+03 -0.17632338036E+03 -0.44870319886E+03  0.61317504179E+03  0.10566000000E+00 0. -1.
         -4    1    3    3    0  501  0.61215722235E+03 -0.30027629485E+03 -0.13198905631E+04  0.14856020384E+04  0.00000000000E+00 0. -1.
<mgrwt>
<rscale>  0 0.11266495E+04</rscale>
<asrwt>0</asrwt>
<pdfrwt beam="1">  1        4 0.87724165E-01 0.11232907E+04</pdfrwt>
<pdfrwt beam="2">  1       -4 0.41728327E+00 0.11300183E+04</pdfrwt>
<totfact> 0.15375499E-01</totfact>
</mgrwt>
</event>
<event>
 8    1  0.3025584E-006  0.1452905E+04  0.7818608E-02  0.8440798E-01
         -4   -1    0    0    0  501 -0.00000000000E+00  0.00000000000E+00  0.16536736426E+04  0.16536736426E+04  0.00000000000E+00 0. -1.
          4   -1    0    0  502    0  0.00000000000E+00 -0.00000000000E+00 -0.19196743380E+04  0.19196743380E+04  0.00000000000E+00 0.  1.
   -9000010    2    1    2    0  501 -0.10479380416E+04  0.81197450365E+01  0.91010639409E+03  0.17040803545E+04  0.98861323926E+03 0.  0.
    9000010    2    1    2  502    0  0.10479380416E+04 -0.81197450365E+01 -0.11761070896E+04  0.18692676260E+04  0.10063267374E+04 0.  0.
        -13    1    4    4    0    0  0.90662831522E+01  0.30466318607E+03 -0.51599338897E+03  0.59929211831E+03  0.10566000000E+00 0.  1.
          4    1    4    4  502    0  0.10388717585E+04 -0.31278293111E+03 -0.66011370059E+03  0.12699755077E+04  0.00000000000E+00 0.  1.
         13    1    3    3    0    0 -0.89929111078E+02 -0.38424034313E+03  0.16084456565E+03  0.42614419129E+03  0.10566000000E+00 0. -1.
         -4    1    3    3    0  501 -0.95800893055E+03  0.39236008817E+03  0.74926182843E+03  0.12779361633E+04  0.00000000000E+00 0. -1.
<mgrwt>
<rscale>  0 0.14467862E+04</rscale>
<asrwt>0</asrwt>
<pdfrwt beam="2">  1        4 0.29533451E+00 0.14529052E+04</pdfrwt>
<pdfrwt beam="1">  1       -4 0.25441133E+00 0.14406930E+04</pdfrwt>
<totfact> 0.74622073E-02</totfact>
</mgrwt>
</event>
<event>
 8    1  0.3025584E-006  0.1124336E+04  0.7818608E-02  0.8671622E-01
          4   -1    0    0  502    0  0.00000000000E+00  0.00000000000E+00  0.18258010787E+04  0.18258010787E+04  0.00000000000E+00 0.  1.
         -4   -1    0    0    0  501 -0.00000000000E+00 -0.00000000000E+00 -0.12922706514E+04  0.12922706514E+04  0.00000000000E+00 0. -1.
   -9000010    2    1    2    0  501 -0.47829168721E+03  0.13091085305E+03 -0.80220961532E+03  0.13811848534E+04  0.10090742009E+04 0.  0.
    9000010    2    1    2  502    0  0.47829168721E+03 -0.13091085305E+03  0.13357400426E+04  0.17368868767E+04  0.99331463870E+03 0.  0.
        -13    1    4    4    0    0  0.67650108268E+03 -0.38051623741E+03  0.10702101964E+04  0.13220424341E+04  0.10566000000E+00 0.  1.
          4    1    4    4  502    0 -0.19820939547E+03  0.24960538435E+03  0.26552984619E+03  0.41484444261E+03  0.00000000000E+00 0.  1.
         13    1    3    3    0    0 -0.18888850382E+03 -0.21426095681E+03  0.15377372698E+03  0.32439635442E+03  0.10566000000E+00 0. -1.
         -4    1    3    3    0  501 -0.28940318339E+03  0.34517180986E+03 -0.95598334230E+03  0.10567884990E+04  0.00000000000E+00 0. -1.
<mgrwt>
<rscale>  0 0.11172525E+04</rscale>
<asrwt>0</asrwt>
<pdfrwt beam="1">  1        4 0.28089248E+00 0.11102137E+04</pdfrwt>
<pdfrwt beam="2">  1       -4 0.19881087E+00 0.11243360E+04</pdfrwt>
<totfact> 0.11565504E-01</totfact>
</mgrwt>
</event>
<event>
 8    1  0.3025584E-006  0.1177310E+04  0.7818608E-02  0.8625380E-01
         -4   -1    0    0    0  501 -0.00000000000E+00  0.00000000000E+00  0.87483099606E+03  0.87483099606E+03  0.00000000000E+00 0. -1.
          4   -1    0    0  502    0  0.00000000000E+00 -0.00000000000E+00 -0.24082552187E+04  0.24082552187E+04  0.00000000000E+00 0.  1.
   -9000010    2    1    2    0  501  0.54662930781E+03 -0.27317836574E+03  0.19737881172E+03  0.11898263311E+04  0.10016477840E+04 0.  0.
    9000010    2    1    2  502    0 -0.54662930781E+03  0.27317836574E+03 -0.17308030343E+04  0.20932598836E+04  0.10062940808E+04 0.  0.
        -13    1    4    4    0    0 -0.39456549575E+03  0.64004128003E+03 -0.90243324533E+03  0.11746150621E+04  0.10566000000E+00 0.  1.
          4    1    4    4  502    0 -0.15206381206E+03 -0.36686291428E+03 -0.82836978899E+03  0.91864482153E+03  0.00000000000E+00 0.  1.
         13    1    3    3    0    0  0.36126681726E+03 -0.46867710179E+03 -0.26993913332E+03  0.65041454924E+03  0.10566000000E+00 0. -1.
         -4    1    3    3    0  501  0.18536249055E+03  0.19549873605E+03  0.46731794504E+03  0.53941178190E+03  0.00000000000E+00 0. -1.
<mgrwt>
<rscale>  0 0.11753234E+04</rscale>
<asrwt>0</asrwt>
<pdfrwt beam="2">  1        4 0.37050080E+00 0.11773096E+04</pdfrwt>
<pdfrwt beam="1">  1       -4 0.13458938E+00 0.11733407E+04</pdfrwt>
<totfact> 0.10777580E-01</totfact>
</mgrwt>
</event>
<event>
 8    1  0.3025584E-006  0.1447401E+04  0.7818608E-02  0.8495395E-01
         -4   -1    0    0    0  501 -0.00000000000E+00  0.00000000000E+00  0.12795475451E+04  0.12795475451E+04  0.00000000000E+00 0. -1.
          4   -1    0    0  502    0  0.00000000000E+00 -0.00000000000E+00 -0.17474086347E+04  0.17474086347E+04  0.00000000000E+00 0.  1.
   -9000010    2    1    2    0  501  0.10401555531E+04 -0.19043446340E+03  0.40194520764E+03  0.13383083127E+04  0.71506666162E+03 0.  0.
    9000010    2    1    2  502    0 -0.10401555531E+04  0.19043446340E+03 -0.86980629722E+03  0.16886478670E+04  0.98832169082E+03 0.  0.
        -13    1    4    4    0    0 -0.95428249414E+03  0.48598739452E+03 -0.43487853072E+03  0.11558365689E+04  0.10566000000E+00 0.  1.
          4    1    4    4  502    0 -0.85873058947E+02 -0.29555293112E+03 -0.43492776650E+03  0.53281129814E+03  0.00000000000E+00 0.  1.
         13    1    3    3    0    0  0.33701107528E+03  0.22048738290E+02 -0.19659057110E+03  0.39078187718E+03  0.10566000000E+00 0. -1.
         -4    1    3    3    0  501  0.70314447781E+03 -0.21248320169E+03  0.59853577874E+03  0.94752643557E+03  0.00000000000E+00 0. -1.
<mgrwt>
<rscale>  0 0.13592789E+04</rscale>
<asrwt>0</asrwt>
<pdfrwt beam="2">  1        4 0.26883210E+00 0.14474006E+04</pdfrwt>
<pdfrwt beam="1">  1       -4 0.19685347E+00 0.12765223E+04</pdfrwt>
<totfact> 0.12352644E-01</totfact>
</mgrwt>
</event>
<event>
 8    1  0.3025584E-006  0.1432398E+04  0.7818608E-02  0.8454051E-01
         -4   -1    0    0    0  501 -0.00000000000E+00  0.00000000000E+00  0.85899240692E+03  0.85899240692E+03  0.00000000000E+00 0.  1.
          4   -1    0    0  502    0  0.00000000000E+00 -0.00000000000E+00 -0.26584601057E+04  0.26584601057E+04  0.00000000000E+00 0. -1.
   -9000010    2    1    2    0  501  0.85169151467E+03  0.57830562886E+03 -0.31841782851E+03  0.14673626682E+04  0.99596558672E+03 0.  0.
    9000010    2    1    2  502    0 -0.85169151467E+03 -0.57830562886E+03 -0.14810498703E+04  0.20500898445E+04  0.97444538867E+03 0.  0.
        -13    1    4    4    0    0 -0.91152343915E+03 -0.60359195465E+03 -0.15862236277E+04  0.19264744057E+04  0.10566000000E+00 0.  1.
          4    1    4    4  502    0  0.59831924478E+02  0.25286325789E+02  0.10517375735E+03  0.12361543873E+03  0.00000000000E+00 0.  1.
         13    1    3    3    0    0  0.81511001720E+03  0.45859036433E+03 -0.63263338141E+03  0.11291299610E+04  0.10566000000E+00 0. -1.
         -4    1    3    3    0  501  0.36581497465E+02  0.11971526453E+03  0.31421555290E+03  0.33823270718E+03  0.00000000000E+00 0. -1.
<mgrwt>
<rscale>  0 0.14249389E+04</rscale>
<asrwt>0</asrwt>
<pdfrwt beam="2">  1        4 0.40899387E+00 0.14175188E+04</pdfrwt>
<pdfrwt beam="1">  1       -4 0.13215268E+00 0.14323977E+04</pdfrwt>
<totfact> 0.77279826E-02</totfact>
</mgrwt>
</event>
<event>
 8    1  0.3025584E-006  0.1187048E+04  0.7818608E-02  0.8633789E-01
         -4   -1    0    0    0  501 -0.00000000000E+00  0.00000000000E+00  0.59930589302E+03  0.59930589302E+03  0.00000000000E+00 0. -1.
          4   -1    0    0  502    0  0.00000000000E+00 -0.00000000000E+00 -0.24701473935E+04  0.24701473935E+04  0.00000000000E+00 0.  1.
   -9000010    2    1    2    0  501  0.62947118126E+03 -0.13198322343E+03 -0.50806856680E+03  0.12912074831E+04  0.99771216122E+03 0.  0.
    9000010    2    1    2  502    0 -0.62947118126E+03  0.13198322343E+03 -0.13627729337E+04  0.17782458034E+04  0.94411573930E+03 0.  0.
        -13    1    4    4    0    0 -0.50142275491E+03  0.40861192824E+03 -0.38202990706E+03  0.75122256895E+03  0.10566000000E+00 0.  1.
          4    1    4    4  502    0 -0.12804842634E+03 -0.27662870481E+03 -0.98074302663E+03  0.10270232345E+04  0.00000000000E+00 0.  1.
         13    1    3    3    0    0  0.25441163951E+02  0.20974846586E+03  0.20625705016E+03  0.29526878206E+03  0.10566000000E+00 0. -1.
         -4    1    3    3    0  501  0.60403001731E+03 -0.34173168929E+03 -0.71432561695E+03  0.99593870108E+03  0.00000000000E+00 0. -1.
<mgrwt>
<rscale>  0 0.11644945E+04</rscale>
<asrwt>0</asrwt>
<pdfrwt beam="2">  1        4 0.38002267E+00 0.11423695E+04</pdfrwt>
<pdfrwt beam="1">  1       -4 0.92200908E-01 0.11870481E+04</pdfrwt>
<totfact> 0.19520562E-01</totfact>
</mgrwt>
</event>
<event>
 8    1  0.3025584E-006  0.1229644E+04  0.7818608E-02  0.8592300E-01
         -4   -1    0    0    0  501 -0.00000000000E+00  0.00000000000E+00  0.21757372033E+04  0.21757372033E+04  0.00000000000E+00 0. -1.
          4   -1    0    0  502    0  0.00000000000E+00 -0.00000000000E+00 -0.34992488793E+04  0.34992488793E+04  0.00000000000E+00 0.  1.
   -9000010    2    1    2    0  501  0.60940984137E+03 -0.34465095688E+03  0.18848224614E+04  0.22390827329E+04  0.98527718794E+03 0.  0.
    9000010    2    1    2  502    0 -0.60940984137E+03  0.34465095688E+03 -0.32083341374E+04  0.34359033496E+04  0.10108705427E+04 0.  0.
        -13    1    4    4    0    0 -0.85163607298E+03  0.76154512164E+02 -0.24692505988E+04  0.26130981691E+04  0.10566000000E+00 0.  1.
          4    1    4    4  502    0  0.24222623161E+03  0.26849644472E+03 -0.73908353854E+03  0.82280518049E+03  0.00000000000E+00 0.  1.
         13    1    3    3    0    0  0.70375033369E+03 -0.26269246775E+03  0.63667985956E+03  0.98469950722E+03  0.10566000000E+00 0. -1.
         -4    1    3    3    0  501 -0.94340492324E+02 -0.81958489131E+02  0.12481426018E+04  0.12543832257E+04  0.00000000000E+00 0. -1.
<mgrwt>
<rscale>  0 0.12191228E+04</rscale>
<asrwt>0</asrwt>
<pdfrwt beam="2">  1        4 0.53834598E+00 0.12296438E+04</pdfrwt>
<pdfrwt beam="1">  1       -4 0.33472880E+00 0.12086918E+04</pdfrwt>
<totfact> 0.49340175E-03</totfact>
</mgrwt>
</event>
<event>
 8    1  0.3025584E-006  0.1266444E+04  0.7818608E-02  0.8573970E-01
          4   -1    0    0  502    0  0.00000000000E+00  0.00000000000E+00  0.22105012662E+04  0.22105012662E+04  0.00000000000E+00 0.  1.
         -4   -1    0    0    0  501 -0.00000000000E+00 -0.00000000000E+00 -0.82042676092E+03  0.82042676092E+03  0.00000000000E+00 0. -1.
   -9000010    2    1    2    0  501 -0.64549078570E+03  0.30476919001E+03  0.12638895892E+03  0.12727352463E+04  0.10461062205E+04 0.  0.
    9000010    2    1    2  502    0  0.64549078570E+03 -0.30476919001E+03  0.12636855464E+04  0.17581927808E+04  0.99236993144E+03 0.  0.
        -13    1    4    4    0    0 -0.15752146182E+03 -0.22096057502E+03  0.75901868557E+03  0.80606821228E+03  0.10566000000E+00 0.  1.
          4    1    4    4  502    0  0.80301224752E+03 -0.83808614984E+02  0.50466686079E+03  0.95212456852E+03  0.00000000000E+00 0.  1.
         13    1    3    3    0    0 -0.49710621384E+03  0.55321407982E+03 -0.26186400295E+03  0.78850058539E+03  0.10566000000E+00 0. -1.
         -4    1    3    3    0  501 -0.14838457186E+03 -0.24844488981E+03  0.38825296187E+03  0.48423466092E+03  0.00000000000E+00 0. -1.
<mgrwt>
<rscale>  0 0.12442436E+04</rscale>
<asrwt>0</asrwt>
<pdfrwt beam="1">  1        4 0.34007712E+00 0.12224323E+04</pdfrwt>
<pdfrwt beam="2">  1       -4 0.12621950E+00 0.12664442E+04</pdfrwt>
<totfact> 0.15198034E-01</totfact>
</mgrwt>
</event>
<event>
 8    1  0.3025584E-006  0.1043228E+04  0.7818608E-02  0.8745967E-01
          4   -1    0    0  502    0  0.00000000000E+00  0.00000000000E+00  0.15188363576E+04  0.15188363576E+04  0.00000000000E+00 0.  1.
         -4   -1    0    0    0  501 -0.00000000000E+00 -0.00000000000E+00 -0.16501396841E+04  0.16501396841E+04  0.00000000000E+00 0. -1.
   -9000010    2    1    2    0  501 -0.15952524605E+02 -0.21134457860E+03 -0.12682733437E+04  0.16422064248E+04  0.10214713180E+04 0.  0.
    9000010    2    1    2  502    0  0.15952524605E+02  0.21134457860E+03  0.11369700171E+04  0.15267696170E+04  0.99669635773E+03 0.  0.
        -13    1    4    4    0    0  0.21965716112E+03  0.11404244676E+03 -0.10178660324E+03  0.26761067216E+03  0.10566000000E+00 0.  1.
          4    1    4    4  502    0 -0.20370463651E+03  0.97302131844E+02  0.12387566204E+04  0.12591589448E+04  0.00000000000E+00 0.  1.
         13    1    3    3    0    0  0.20748060897E+03  0.29425110664E+03 -0.92232836699E+03  0.99011188488E+03  0.10566000000E+00 0. -1.
         -4    1    3    3    0  501 -0.22343313358E+03 -0.50559568524E+03 -0.34594497666E+03  0.65209453992E+03  0.00000000000E+00 0. -1.
<mgrwt>
<rscale>  0 0.10310338E+04</rscale>
<asrwt>0</asrwt>
<pdfrwt beam="1">  1        4 0.23366713E+00 0.10189822E+04</pdfrwt>
<pdfrwt beam="2">  1       -4 0.25386764E+00 0.10432280E+04</pdfrwt>
<totfact> 0.10947237E-01</totfact>
</mgrwt>
</event>
<event>
 8    1  0.3025584E-006  0.1169202E+04  0.7818608E-02  0.8632339E-01
         -4   -1    0    0    0  501 -0.00000000000E+00  0.00000000000E+00  0.16425988351E+04  0.16425988351E+04  0.00000000000E+00 0. -1.
          4   -1    0    0  502    0  0.00000000000E+00 -0.00000000000E+00 -0.16120014940E+04  0.16120014940E+04  0.00000000000E+00 0.  1.
   -9000010    2    1    2    0  501 -0.55747353042E+03  0.15219275345E+03  0.11500391830E+04  0.16400073308E+04  0.10164125892E+04 0.  0.
    9000010    2    1    2  502    0  0.55747353042E+03 -0.15219275345E+03 -0.11194418419E+04  0.16145929982E+04  0.10098619417E+04 0.  0.
        -13    1    4    4    0    0  0.41133955893E+03 -0.55052443918E+03 -0.91302104233E+03  0.11427531780E+04  0.10566000000E+00 0.  1.
          4    1    4    4  502    0  0.14613397149E+03  0.39833168573E+03 -0.20642079953E+03  0.47183982023E+03  0.00000000000E+00 0.  1.
         13    1    3    3    0    0 -0.78455058179E+03 -0.13369016225E+03  0.87577445132E+03  0.11833738106E+04  0.10566000000E+00 0. -1.
         -4    1    3    3    0  501  0.22707705137E+03  0.28588291570E+03  0.27426473164E+03  0.45663352020E+03  0.00000000000E+00 0. -1.
<mgrwt>
<rscale>  0 0.11663537E+04</rscale>
<asrwt>0</asrwt>
<pdfrwt beam="2">  1        4 0.24800023E+00 0.11635121E+04</pdfrwt>
<pdfrwt beam="1">  1       -4 0.25270751E+00 0.11692023E+04</pdfrwt>
<totfact> 0.10097631E-01</totfact>
</mgrwt>
</event>
<event>
 8    1  0.3025584E-006  0.1025756E+04  0.7818608E-02  0.8831487E-01
         -4   -1    0    0    0  501 -0.00000000000E+00  0.00000000000E+00  0.22271537365E+04  0.22271537365E+04  0.00000000000E+00 0. -1.
          4   -1    0    0  502    0  0.00000000000E+00 -0.00000000000E+00 -0.61711391518E+03  0.61711391518E+03  0.00000000000E+00 0.  1.
   -9000010    2    1    2    0  501  0.11278085635E+03  0.25759772037E+03  0.15999084880E+04  0.18184616175E+04  0.81732452362E+03 0.  0.
    9000010    2    1    2  502    0 -0.11278085635E+03 -0.25759772037E+03  0.10131333227E+02  0.10258060342E+04  0.98645794069E+03 0.  0.
        -13    1    4    4    0    0  0.38543914434E+03  0.11310944862E+03  0.42648473860E+02  0.40395047325E+03  0.10566000000E+00 0.  1.
          4    1    4    4  502    0 -0.49822000068E+03 -0.37070716900E+03 -0.32517140634E+02  0.62185556093E+03  0.00000000000E+00 0.  1.
         13    1    3    3    0    0  0.39304283380E+03  0.38809833342E+03  0.95375908243E+03  0.11021612333E+04  0.10566000000E+00 0. -1.
         -4    1    3    3    0  501 -0.28026197746E+03 -0.13050061305E+03  0.64614940562E+03  0.71630038419E+03  0.00000000000E+00 0. -1.
<mgrwt>
<rscale>  0 0.94159916E+03</rscale>
<asrwt>0</asrwt>
<pdfrwt beam="2">  1        4 0.94940604E-01 0.10257560E+04</pdfrwt>
<pdfrwt beam="1">  1       -4 0.34263903E+00 0.86434685E+03</pdfrwt>
<totfact> 0.25570821E-01</totfact>
</mgrwt>
</event>
<event>
 8    1  0.3025584E-006  0.1273719E+04  0.7818608E-02  0.8555795E-01
          4   -1    0    0  502    0  0.00000000000E+00  0.00000000000E+00  0.16144486207E+04  0.16144486207E+04  0.00000000000E+00 0.  1.
         -4   -1    0    0    0  501 -0.00000000000E+00 -0.00000000000E+00 -0.15694509465E+04  0.15694509465E+04  0.00000000000E+00 0. -1.
   -9000010    2    1    2    0  501  0.59151284803E+03  0.49094235655E+03 -0.93756454418E+03  0.15752391197E+04  0.10057033176E+04 0.  0.
    9000010    2    1    2  502    0 -0.59151284803E+03 -0.49094235655E+03  0.98256221829E+03  0.16086604475E+04  0.10156023216E+04 0.  0.
        -13    1    4    4    0    0  0.28409623954E+03 -0.20643682742E+03  0.23298690401E+03  0.42143771265E+03  0.10566000000E+00 0.  1.
          4    1    4    4  502    0 -0.87560908757E+03 -0.28450552912E+03  0.74957531428E+03  0.11872227348E+04  0.00000000000E+00 0.  1.
         13    1    3    3    0    0  0.42105009514E+03 -0.13081883269E+03 -0.80383030904E+03  0.91680964572E+03  0.10566000000E+00 0. -1.
         -4    1    3    3    0  501  0.17046275289E+03  0.62176118924E+03 -0.13373423514E+03  0.65842947399E+03  0.00000000000E+00 0. -1.
<mgrwt>
<rscale>  0 0.12697734E+04</rscale>
<asrwt>0</asrwt>
<pdfrwt beam="1">  1        4 0.24837671E+00 0.12737189E+04</pdfrwt>
<pdfrwt beam="2">  1       -4 0.24145399E+00 0.12658400E+04</pdfrwt>
<totfact> 0.10650064E-01</totfact>
</mgrwt>
</event>
<event>
 8    1  0.3025584E-006  0.1235472E+04  0.7818608E-02  0.8580717E-01
          4   -1    0    0  502    0  0.00000000000E+00  0.00000000000E+00  0.20270803447E+04  0.20270803447E+04  0.00000000000E+00 0.  1.
         -4   -1    0    0    0  501 -0.00000000000E+00 -0.00000000000E+00 -0.13535670834E+04  0.13535670834E+04  0.00000000000E+00 0. -1.
   -9000010    2    1    2    0  501 -0.70862737536E+03 -0.52798099660E+02 -0.78971311434E+03  0.14663008918E+04  0.10106686430E+04 0.  0.
    9000010    2    1    2  502    0  0.70862737536E+03  0.52798099660E+02  0.14632263757E+04  0.19143465362E+04  0.10093318770E+04 0.  0.
        -13    1    4    4    0    0 -0.10567682338E+03 -0.30500164156E+03  0.56213088073E+03  0.64821657691E+03  0.10566000000E+00 0.  1.
          4    1    4    4  502    0  0.81430419874E+03  0.35779974122E+03  0.90109549493E+03  0.12661299593E+04  0.00000000000E+00 0.  1.
         13    1    3    3    0    0 -0.37878288110E+03  0.37440015207E+03 -0.75701424564E+03  0.92559306618E+03  0.10566000000E+00 0. -1.
         -4    1    3    3    0  501 -0.32984449427E+03 -0.42719825173E+03 -0.32698868695E+02  0.54070782562E+03  0.00000000000E+00 0. -1.
<mgrwt>
<rscale>  0 0.12349254E+04</rscale>
<asrwt>0</asrwt>
<pdfrwt beam="1">  1        4 0.31185851E+00 0.12343789E+04</pdfrwt>
<pdfrwt beam="2">  1       -4 0.20824109E+00 0.12354722E+04</pdfrwt>
<totfact> 0.89058898E-02</totfact>
</mgrwt>
</event>
<event>
 8    1  0.3025584E-006  0.1392792E+04  0.7818608E-02  0.8475864E-01
          4   -1    0    0  502    0  0.00000000000E+00  0.00000000000E+00  0.27099093899E+04  0.27099093899E+04  0.00000000000E+00 0.  1.
         -4   -1    0    0    0  501 -0.00000000000E+00 -0.00000000000E+00 -0.79570767117E+03  0.79570767117E+03  0.00000000000E+00 0. -1.
   -9000010    2    1    2    0  501 -0.69661668066E+03 -0.67675494321E+03  0.38952074797E+03  0.14405450329E+04  0.99003612345E+03 0.  0.
    9000010    2    1    2  502    0  0.69661668066E+03  0.67675494321E+03  0.15246809708E+04  0.20650720282E+04  0.99829773420E+03 0.  0.
        -13    1    4    4    0    0  0.58220311953E+03  0.43685761937E+03  0.26024215234E+03  0.77300132019E+03  0.10566000000E+00 0.  1.
          4    1    4    4  502    0  0.11441356112E+03  0.23989732384E+03  0.12644388184E+04  0.12920707080E+04  0.00000000000E+00 0.  1.
         13    1    3    3    0    0 -0.30593435950E+03 -0.41306323456E+03 -0.30760317579E+03  0.59902987654E+03  0.10566000000E+00 0. -1.
         -4    1    3    3    0  501 -0.39068232116E+03 -0.26369170865E+03  0.69712392376E+03  0.84151515634E+03  0.00000000000E+00 0. -1.
<mgrwt>
<rscale>  0 0.13898344E+04</rscale>
<asrwt>0</asrwt>
<pdfrwt beam="1">  1        4 0.41690913E+00 0.13927923E+04</pdfrwt>
<pdfrwt beam="2">  1       -4 0.12241657E+00 0.13868827E+04</pdfrwt>
<totfact> 0.81374986E-02</totfact>
</mgrwt>
</event>
<event>
 8    1  0.3025584E-006  0.1514321E+04  0.7818608E-02  0.8445870E-01
          4   -1    0    0  502    0  0.00000000000E+00  0.00000000000E+00  0.17685466165E+04  0.17685466165E+04  0.00000000000E+00 0.  1.
         -4   -1    0    0    0  501 -0.00000000000E+00 -0.00000000000E+00 -0.13791856842E+04  0.13791856842E+04  0.00000000000E+00 0. -1.
   -9000010    2    1    2    0  501  0.82548545120E+03 -0.38929788507E+03 -0.40473460411E+03  0.15674751473E+04  0.12083828716E+04 0.  0.
    9000010    2    1    2  502    0 -0.82548545120E+03  0.38929788507E+03  0.79409553642E+03  0.15802571533E+04  0.10166837641E+04 0.  0.
        -13    1    4    4    0    0 -0.62016287844E+03  0.57077314105E+03  0.11841025359E+03  0.85111983507E+03  0.10566000000E+00 0.  1.
          4    1    4    4  502    0 -0.20532257276E+03 -0.18147525598E+03  0.67568528283E+03  0.72913731824E+03  0.00000000000E+00 0.  1.
         13    1    3    3    0    0  0.81677930046E+03 -0.97955079840E+01 -0.70850070301E+03  0.10812944257E+04  0.10566000000E+00 0. -1.
         -4    1    3    3    0  501  0.87061507355E+01 -0.37950237709E+03  0.30376609890E+03  0.48618072166E+03  0.00000000000E+00 0. -1.
<mgrwt>
<rscale>  0 0.14383787E+04</rscale>
<asrwt>0</asrwt>
<pdfrwt beam="1">  1        4 0.27208409E+00 0.13662448E+04</pdfrwt>
<pdfrwt beam="2">  1       -4 0.21218241E+00 0.15143210E+04</pdfrwt>
<totfact> 0.10983905E-01</totfact>
</mgrwt>
</event>
<event>
 8    1  0.3025584E-006  0.1160962E+04  0.7818608E-02  0.8640732E-01
         -4   -1    0    0    0  501 -0.00000000000E+00  0.00000000000E+00  0.13192250080E+04  0.13192250080E+04  0.00000000000E+00 0.  1.
          4   -1    0    0  502    0  0.00000000000E+00 -0.00000000000E+00 -0.10146517055E+04  0.10146517055E+04  0.00000000000E+00 0. -1.
   -9000010    2    1    2    0  501  0.28966250359E+03 -0.50438690341E+03  0.20831588881E+03  0.11795031066E+04  0.10047494985E+04 0.  0.
    9000010    2    1    2  502    0 -0.28966250359E+03  0.50438690341E+03  0.96257413767E+02  0.11543736069E+04  0.99247288139E+03 0.  0.
        -13    1    4    4    0    0 -0.59922156430E+03  0.35840718449E+03  0.29568652953E+03  0.75825637348E+03  0.10566000000E+00 0.  1.
          4    1    4    4  502    0  0.30955906071E+03  0.14597971892E+03 -0.19942911576E+03  0.39611723342E+03  0.00000000000E+00 0.  1.
         13    1    3    3    0    0  0.34573734886E+03  0.21009888818E+03  0.22440923158E+03  0.46263956985E+03  0.10566000000E+00 0. -1.
         -4    1    3    3    0  501 -0.56074845270E+02 -0.71448579159E+03 -0.16093342772E+02  0.71686353676E+03  0.00000000000E+00 0. -1.
<mgrwt>
<rscale>  0 0.11556454E+04</rscale>
<asrwt>0</asrwt>
<pdfrwt beam="2">  1        4 0.15610026E+00 0.11503534E+04</pdfrwt>
<pdfrwt beam="1">  1       -4 0.20295769E+00 0.11609617E+04</pdfrwt>
<totfact> 0.25016944E-01</totfact>
</mgrwt>
</event>
<event>
 8    1  0.3025584E-006  0.1036477E+04  0.7818608E-02  0.8744162E-01
          4   -1    0    0  502    0  0.00000000000E+00  0.00000000000E+00  0.57509969512E+03  0.57509969512E+03  0.00000000000E+00 0.  1.
         -4   -1    0    0    0  501 -0.00000000000E+00 -0.00000000000E+00 -0.18580069417E+04  0.18580069417E+04  0.00000000000E+00 0. -1.
   -9000010    2    1    2    0  501 -0.19018188930E+03 -0.18184018032E+03 -0.68300059847E+03  0.12355371737E+04  0.99540307804E+03 0.  0.
    9000010    2    1    2  502    0  0.19018188930E+03  0.18184018032E+03 -0.59990664808E+03  0.11975694631E+04  0.10025216359E+04 0.  0.
        -13    1    4    4    0    0  0.44124970603E+03  0.15059991060E+03 -0.76470164978E+03  0.89562841652E+03  0.10566000000E+00 0.  1.
          4    1    4    4  502    0 -0.25106781672E+03  0.31240269712E+02  0.16479500170E+03  0.30194104661E+03  0.00000000000E+00 0.  1.
         13    1    3    3    0    0 -0.41158269868E+03  0.31606406281E+02 -0.80501531446E+03  0.90468168460E+03  0.10566000000E+00 0. -1.
         -4    1    3    3    0  501  0.22140080938E+03 -0.21344658660E+03  0.12201471598E+03  0.33085548906E+03  0.00000000000E+00 0. -1.
<mgrwt>
<rscale>  0 0.10330294E+04</rscale>
<asrwt>0</asrwt>
<pdfrwt beam="1">  1        4 0.88476877E-01 0.10364770E+04</pdfrwt>
<pdfrwt beam="2">  1       -4 0.28584722E+00 0.10295933E+04</pdfrwt>
<totfact> 0.41696662E-01</totfact>
</mgrwt>
</event>
<event>
 8    1  0.3025584E-006  0.1081525E+04  0.7818608E-02  0.8705290E-01
          4   -1    0    0  502    0  0.00000000000E+00  0.00000000000E+00  0.52639282163E+03  0.52639282163E+03  0.00000000000E+00 0.  1.
         -4   -1    0    0    0  501 -0.00000000000E+00 -0.00000000000E+00 -0.39178249829E+04  0.39178249829E+04  0.00000000000E+00 0. -1.
   -9000010    2    1    2    0  501 -0.10475053218E+03 -0.44600351188E+03 -0.31691565019E+04  0.33486191188E+04  0.97969651562E+03 0.  0.
    9000010    2    1    2  502    0  0.10475053218E+03  0.44600351188E+03 -0.22227565938E+03  0.10955986857E+04  0.97007123698E+03 0.  0.
        -13    1    4    4    0    0 -0.21485253955E+02  0.22196018477E+03 -0.59917507725E+03  0.63932677413E+03  0.10566000000E+00 0.  1.
          4    1    4    4  502    0  0.12623578613E+03  0.22404332711E+03  0.37689941787E+03  0.45627191160E+03  0.00000000000E+00 0.  1.
         13    1    3    3    0    0  0.35745659275E+03  0.48395479057E+01 -0.58985525109E+03  0.68973028448E+03  0.10566000000E+00 0. -1.
         -4    1    3    3    0  501 -0.46220712493E+03 -0.45084305979E+03 -0.25793012508E+04  0.26588888343E+04  0.00000000000E+00 0. -1.
<mgrwt>
<rscale>  0 0.10771609E+04</rscale>
<asrwt>0</asrwt>
<pdfrwt beam="1">  1        4 0.80983509E-01 0.10728141E+04</pdfrwt>
<pdfrwt beam="2">  1       -4 0.60274232E+00 0.10815253E+04</pdfrwt>
<totfact> 0.22843897E-02</totfact>
</mgrwt>
</event>
<event>
 8    1  0.3025584E-006  0.1056575E+04  0.7818608E-02  0.8726508E-01
          4   -1    0    0  502    0  0.00000000000E+00  0.00000000000E+00  0.14836423158E+04  0.14836423158E+04  0.00000000000E+00 0.  1.
         -4   -1    0    0    0  501 -0.00000000000E+00 -0.00000000000E+00 -0.10587656014E+04  0.10587656014E+04  0.00000000000E+00 0. -1.
   -9000010    2    1    2    0  501  0.30607832395E+03  0.10311201273E+03 -0.47674916730E+03  0.11591551565E+04  0.10059994437E+04 0.  0.
    9000010    2    1    2  502    0 -0.30607832395E+03 -0.10311201273E+03  0.90162588164E+03  0.13832527608E+04  0.99806960787E+03 0.  0.
        -13    1    4    4    0    0  0.17108273649E+03 -0.27696203617E+03  0.80223894881E+03  0.86577399727E+03  0.10566000000E+00 0.  1.
          4    1    4    4  502    0 -0.47716106044E+03  0.17385002344E+03  0.99386932836E+02  0.51747876349E+03  0.00000000000E+00 0.  1.
         13    1    3    3    0    0  0.15843257136E+03  0.10345890524E+03  0.30754007302E+03  0.36108936902E+03  0.10566000000E+00 0. -1.
         -4    1    3    3    0  501  0.14764575259E+03 -0.34689250819E+00 -0.78428924032E+03  0.79806578743E+03  0.00000000000E+00 0. -1.
<mgrwt>
<rscale>  0 0.10527946E+04</rscale>
<asrwt>0</asrwt>
<pdfrwt beam="1">  1        4 0.22825266E+00 0.10490276E+04</pdfrwt>
<pdfrwt beam="2">  1       -4 0.16288702E+00 0.10565751E+04</pdfrwt>
<totfact> 0.20315474E-01</totfact>
</mgrwt>
</event>
<event>
 8    1  0.3025584E-006  0.1052830E+04  0.7818608E-02  0.8738940E-01
         -4   -1    0    0    0  501 -0.00000000000E+00  0.00000000000E+00  0.15832965785E+04  0.15832965785E+04  0.00000000000E+00 0. -1.
          4   -1    0    0  502    0  0.00000000000E+00 -0.00000000000E+00 -0.14395618990E+04  0.14395618990E+04  0.00000000000E+00 0.  1.
   -9000010    2    1    2    0  501 -0.34460799252E+02  0.33646510058E+03  0.11680030828E+04  0.15539891809E+04  0.96760263670E+03 0.  0.
    9000010    2    1    2  502    0  0.34460799252E+02 -0.33646510058E+03 -0.10242684033E+04  0.14688692965E+04  0.99702303775E+03 0.  0.
        -13    1    4    4    0    0  0.36583775989E+03  0.49127187401E+02 -0.85786805693E+03  0.93391025338E+03  0.10566000000E+00 0.  1.
          4    1    4    4  502    0 -0.33137696064E+03 -0.38559228798E+03 -0.16640034632E+03  0.53495904315E+03  0.00000000000E+00 0.  1.
         13    1    3    3    0    0 -0.10937191625E+03  0.65976068398E+03  0.93050521076E+03  0.11458997926E+04  0.10566000000E+00 0. -1.
         -4    1    3    3    0  501  0.74911117003E+02 -0.32329558340E+03  0.23749787200E+03  0.40808938837E+03  0.00000000000E+00 0. -1.
<mgrwt>
<rscale>  0 0.10388283E+04</rscale>
<asrwt>0</asrwt>
<pdfrwt beam="2">  1        4 0.22147106E+00 0.10528301E+04</pdfrwt>
<pdfrwt beam="1">  1       -4 0.24358409E+00 0.10250128E+04</pdfrwt>
<totfact> 0.12434667E-01</totfact>
</mgrwt>
</event>
<event>
 8    1  0.3025584E-006  0.1083645E+04  0.7818608E-02  0.8702384E-01
          4   -1    0    0  502    0  0.00000000000E+00  0.00000000000E+00  0.56069039351E+03  0.56069039351E+03  0.00000000000E+00 0.  1.
         -4   -1    0    0    0  501 -0.00000000000E+00 -0.00000000000E+00 -0.22902911630E+04  0.22902911630E+04  0.00000000000E+00 0. -1.
   -9000010    2    1    2    0  501  0.85666337020E+02  0.36046880663E+03 -0.12919896597E+04  0.16823115638E+04  0.10117600680E+04 0.  0.
    9000010    2    1    2  502    0 -0.85666337020E+02 -0.36046880663E+03 -0.43761110987E+03  0.11686699927E+04  0.10183366764E+04 0.  0.
        -13    1    4    4    0    0 -0.41483382884E+03 -0.54945853490E+03 -0.37500713493E+03  0.78397841140E+03  0.10566000000E+00 0.  1.
          4    1    4    4  502    0  0.32916749182E+03  0.18898972827E+03 -0.62603974934E+02  0.38469158132E+03  0.00000000000E+00 0.  1.
         13    1    3    3    0    0 -0.39592592294E+03  0.10155952938E+03 -0.18709855815E+03  0.44953037282E+03  0.10566000000E+00 0. -1.
         -4    1    3    3    0  501  0.48159225996E+03  0.25890927726E+03 -0.11048911015E+04  0.12327811910E+04  0.00000000000E+00 0. -1.
<mgrwt>
<rscale>  0 0.10805514E+04</rscale>
<asrwt>0</asrwt>
<pdfrwt beam="1">  1        4 0.86260062E-01 0.10836448E+04</pdfrwt>
<pdfrwt beam="2">  1       -4 0.35235248E+00 0.10774669E+04</pdfrwt>
<totfact> 0.28284357E-01</totfact>
</mgrwt>
</event>
<event>
 8    1  0.3025584E-006  0.1247552E+04  0.7818608E-02  0.8576767E-01
         -4   -1    0    0    0  501 -0.00000000000E+00  0.00000000000E+00  0.18980829676E+04  0.18980829676E+04  0.00000000000E+00 0. -1.
          4   -1    0    0  502    0  0.00000000000E+00 -0.00000000000E+00 -0.93090010450E+03  0.93090010450E+03  0.00000000000E+00 0.  1.
   -9000010    2    1    2    0  501 -0.51551360982E+03 -0.45166907853E+03  0.98966140338E+03  0.15812281171E+04  0.10252284753E+04 0.  0.
    9000010    2    1    2  502    0  0.51551360982E+03  0.45166907853E+03 -0.22478540243E+02  0.12477549550E+04  0.10424144592E+04 0.  0.
        -13    1    4    4    0    0  0.75609619253E+03  0.58151087510E+03 -0.11125033811E+03  0.96031921730E+03  0.10566000000E+00 0.  1.
          4    1    4    4  502    0 -0.24058258271E+03 -0.12984179656E+03  0.88771797868E+02  0.28743573775E+03  0.00000000000E+00 0.  1.
         13    1    3    3    0    0 -0.67825869815E+03 -0.32044361241E+03  0.11102250313E+04  0.13398949965E+04  0.10566000000E+00 0. -1.
         -4    1    3    3    0  501  0.16274508833E+03 -0.13122546613E+03 -0.12056362790E+03  0.24133312062E+03  0.00000000000E+00 0. -1.
<mgrwt>
<rscale>  0 0.12403698E+04</rscale>
<asrwt>0</asrwt>
<pdfrwt beam="2">  1        4 0.14321540E+00 0.12475525E+04</pdfrwt>
<pdfrwt beam="1">  1       -4 0.29201276E+00 0.12332286E+04</pdfrwt>
<totfact> 0.16995177E-01</totfact>
</mgrwt>
</event>
<event>
 8    1  0.3025584E-006  0.1085216E+04  0.7818608E-02  0.8700658E-01
         -4   -1    0    0    0  501 -0.00000000000E+00  0.00000000000E+00  0.10049705650E+04  0.10049705650E+04  0.00000000000E+00 0. -1.
          4   -1    0    0  502    0  0.00000000000E+00 -0.00000000000E+00 -0.31856144023E+04  0.31856144023E+04  0.00000000000E+00 0.  1.
   -9000010    2    1    2    0  501  0.40980962315E+03 -0.55806267621E+02  0.57696268107E+03  0.12290568429E+04  0.10033127732E+04 0.  0.
    9000010    2    1    2  502    0 -0.40980962315E+03  0.55806267621E+02 -0.27576065184E+04  0.29615281244E+04  0.99759553671E+03 0.  0.
        -13    1    4    4    0    0  0.25524346999E+03 -0.24015641294E+03 -0.97149028506E+03  0.10327718610E+04  0.10566000000E+00 0.  1.
          4    1    4    4  502    0 -0.66505309314E+03  0.29596268056E+03 -0.17861162333E+04  0.19287562635E+04  0.00000000000E+00 0.  1.
         13    1    3    3    0    0  0.21629891585E+03 -0.14160479137E+02  0.85819655284E+03  0.88514805238E+03  0.10566000000E+00 0. -1.
         -4    1    3    3    0  501  0.19351070730E+03 -0.41645788485E+02 -0.28123387177E+03  0.34390879048E+03  0.00000000000E+00 0. -1.
<mgrwt>
<rscale>  0 0.10825715E+04</rscale>
<asrwt>0</asrwt>
<pdfrwt beam="2">  1        4 0.49009452E+00 0.10799329E+04</pdfrwt>
<pdfrwt beam="1">  1       -4 0.15461086E+00 0.10852165E+04</pdfrwt>
<totfact> 0.26902694E-02</totfact>
</mgrwt>
</event>
<event>
 8    1  0.3025584E-006  0.1490197E+04  0.7818608E-02  0.8418355E-01
         -4   -1    0    0    0  501 -0.00000000000E+00  0.00000000000E+00  0.66917625748E+03  0.66917625748E+03  0.00000000000E+00 0. -1.
          4   -1    0    0  502    0  0.00000000000E+00 -0.00000000000E+00 -0.34479539135E+04  0.34479539135E+04  0.00000000000E+00 0.  1.
   -9000010    2    1    2    0  501  0.44482339094E+02  0.11045783630E+04 -0.94975063439E+03  0.17578870589E+04  0.98288789076E+03 0.  0.
    9000010    2    1    2  502    0 -0.44482339094E+02 -0.11045783630E+04 -0.18290270216E+04  0.23592431121E+04  0.99930784926E+03 0.  0.
        -13    1    4    4    0    0  0.46707236894E+03 -0.60736998309E+03 -0.80615989443E+03  0.11121819459E+04  0.10566000000E+00 0.  1.
          4    1    4    4  502    0 -0.51155470804E+03 -0.49720837990E+03 -0.10228671272E+04  0.12470611662E+04  0.00000000000E+00 0.  1.
         13    1    3    3    0    0  0.46582200576E+03  0.78941472208E+03 -0.78419260393E+03  0.12062851221E+04  0.10566000000E+00 0. -1.
         -4    1    3    3    0  501 -0.42133966667E+03  0.31516364091E+03 -0.16555803046E+03  0.55160193682E+03  0.00000000000E+00 0. -1.
<mgrwt>
<rscale>  0 0.14847068E+04</rscale>
<asrwt>0</asrwt>
<pdfrwt beam="2">  1        4 0.53045444E+00 0.14901974E+04</pdfrwt>
<pdfrwt beam="1">  1       -4 0.10295019E+00 0.14792365E+04</pdfrwt>
<totfact> 0.32699826E-02</totfact>
</mgrwt>
</event>
<event>
 8    1  0.3025584E-006  0.1379508E+04  0.7818608E-02  0.8550200E-01
         -4   -1    0    0    0  501 -0.00000000000E+00  0.00000000000E+00  0.75200683416E+03  0.75200683416E+03  0.00000000000E+00 0. -1.
          4   -1    0    0  502    0  0.00000000000E+00 -0.00000000000E+00 -0.32862175041E+04  0.32862175041E+04  0.00000000000E+00 0.  1.
   -9000010    2    1    2    0  501 -0.79024075632E+02  0.64742332915E+03 -0.35558765026E+02  0.11840510820E+04  0.98757823354E+03 0.  0.
    9000010    2    1    2  502    0  0.79024075632E+02 -0.64742332915E+03 -0.24986519049E+04  0.28541732562E+04  0.12155829314E+04 0.  0.
        -13    1    4    4    0    0 -0.34620231293E+03 -0.39068980286E+03 -0.22283398806E+04  0.22886662487E+04  0.10566000000E+00 0.  1.
          4    1    4    4  502    0  0.42522638856E+03 -0.25673352628E+03 -0.27031202433E+03  0.56550700751E+03  0.00000000000E+00 0.  1.
         13    1    3    3    0    0 -0.19549534353E+03  0.80563296597E+03 -0.27582116225E+03  0.87369344161E+03  0.10566000000E+00 0. -1.
         -4    1    3    3    0  501  0.11647126790E+03 -0.15820963683E+03  0.24026239722E+03  0.31035764039E+03  0.00000000000E+00 0. -1.
<mgrwt>
<rscale>  0 0.12777604E+04</rscale>
<asrwt>0</asrwt>
<pdfrwt beam="2">  1        4 0.50557191E+00 0.13795085E+04</pdfrwt>
<pdfrwt beam="1">  1       -4 0.11569336E+00 0.11835170E+04</pdfrwt>
<totfact> 0.34909179E-02</totfact>
</mgrwt>
</event>
<event>
 8    1  0.3025584E-006  0.1226894E+04  0.7818608E-02  0.8591193E-01
          4   -1    0    0  502    0  0.00000000000E+00  0.00000000000E+00  0.11085127430E+04  0.11085127430E+04  0.00000000000E+00 0.  1.
         -4   -1    0    0    0  501 -0.00000000000E+00 -0.00000000000E+00 -0.22631594810E+04  0.22631594810E+04  0.00000000000E+00 0. -1.
   -9000010    2    1    2    0  501 -0.42864041649E+03  0.56898191278E+03 -0.16498641801E+04  0.20486038492E+04  0.98349015979E+03 0.  0.
    9000010    2    1    2  502    0  0.42864041649E+03 -0.56898191278E+03  0.49521744213E+03  0.13230683747E+04  0.99889768519E+03 0.  0.
        -13    1    4    4    0    0  0.15568884654E+03 -0.70113347833E+03 -0.27514492633E+02  0.71873794240E+03  0.10566000000E+00 0.  1.
          4    1    4    4  502    0  0.27295156995E+03  0.13215156555E+03  0.52273193476E+03  0.60433043232E+03  0.00000000000E+00 0.  1.
         13    1    3    3    0    0 -0.65595629435E+03  0.14527806085E+03 -0.12664355134E+04  0.14336119753E+04  0.10566000000E+00 0. -1.
         -4    1    3    3    0  501  0.22731587786E+03  0.42370385193E+03 -0.38342866675E+03  0.61499187389E+03  0.00000000000E+00 0. -1.
<mgrwt>
<rscale>  0 0.12206226E+04</rscale>
<asrwt>0</asrwt>
<pdfrwt beam="1">  1        4 0.17054042E+00 0.12268943E+04</pdfrwt>
<pdfrwt beam="2">  1       -4 0.34817838E+00 0.12143829E+04</pdfrwt>
<totfact> 0.91276128E-02</totfact>
</mgrwt>
</event>
<event>
 8    1  0.3025584E-006  0.1507233E+04  0.7818608E-02  0.8411301E-01
         -4   -1    0    0    0  501 -0.00000000000E+00  0.00000000000E+00  0.13971680353E+04  0.13971680353E+04  0.00000000000E+00 0. -1.
          4   -1    0    0  502    0  0.00000000000E+00 -0.00000000000E+00 -0.23126129155E+04  0.23126129155E+04  0.00000000000E+00 0.  1.
   -9000010    2    1    2    0  501  0.30673748054E+03  0.10831780968E+04  0.56700323930E+03  0.16103556323E+04  0.10021925552E+04 0.  0.
    9000010    2    1    2  502    0 -0.30673748054E+03 -0.10831780968E+04 -0.14824481194E+04  0.20994253185E+04  0.97086125160E+03 0.  0.
        -13    1    4    4    0    0  0.14025629528E+03 -0.37525510175E+03 -0.11156000815E+04  0.11853487979E+04  0.10566000000E+00 0.  1.
          4    1    4    4  502    0 -0.44699377582E+03 -0.70792299504E+03 -0.36684803793E+03  0.91407652057E+03  0.00000000000E+00 0.  1.
         13    1    3    3    0    0  0.47341356602E+02  0.43997387828E+03 -0.27384282392E+03  0.52039227607E+03  0.10566000000E+00 0. -1.
         -4    1    3    3    0  501  0.25939612394E+03  0.64320421851E+03  0.84084606322E+03  0.10899633562E+04  0.00000000000E+00 0. -1.
<mgrwt>
<rscale>  0 0.14968735E+04</rscale>
<asrwt>0</asrwt>
<pdfrwt beam="2">  1        4 0.35578660E+00 0.14865848E+04</pdfrwt>
<pdfrwt beam="1">  1       -4 0.21494893E+00 0.15072334E+04</pdfrwt>
<totfact> 0.61582409E-02</totfact>
</mgrwt>
</event>
<event>
 8    1  0.3025584E-006  0.1480231E+04  0.7818608E-02  0.8501734E-01
          4   -1    0    0  502    0  0.00000000000E+00  0.00000000000E+00  0.10899865000E+04  0.10899865000E+04  0.00000000000E+00 0.  1.
         -4   -1    0    0    0  501 -0.00000000000E+00 -0.00000000000E+00 -0.22857600862E+04  0.22857600862E+04  0.00000000000E+00 0. -1.
   -9000010    2    1    2    0  501 -0.80188566443E+03 -0.23220347645E+03 -0.15009698941E+04  0.21080783159E+04  0.12223520318E+04 0.  0.
    9000010    2    1    2  502    0  0.80188566443E+03  0.23220347645E+03  0.30519630796E+03  0.12676682703E+04  0.90382464216E+03 0.  0.
        -13    1    4    4    0    0  0.89627071458E+03 -0.18797292529E+02  0.40212621848E+03  0.98252737304E+03  0.10566000000E+00 0.  1.
          4    1    4    4  502    0 -0.94385050152E+02  0.25100076897E+03 -0.96929910526E+02  0.28514089723E+03  0.00000000000E+00 0.  1.
         13    1    3    3    0    0  0.29191906092E+03  0.12407242948E+03 -0.21791863296E+03  0.38483665060E+03  0.10566000000E+00 0. -1.
         -4    1    3    3    0  501 -0.10938047253E+04 -0.35627590593E+03 -0.12830512612E+04  0.17232416653E+04  0.00000000000E+00 0. -1.
<mgrwt>
<rscale>  0 0.13495364E+04</rscale>
<asrwt>0</asrwt>
<pdfrwt beam="1">  1        4 0.16769023E+00 0.12303813E+04</pdfrwt>
<pdfrwt beam="2">  1       -4 0.35165539E+00 0.14802309E+04</pdfrwt>
<totfact> 0.89361119E-02</totfact>
</mgrwt>
</event>
<event>
 8    1  0.3025584E-006  0.1137117E+04  0.7818608E-02  0.8667663E-01
          4   -1    0    0  502    0  0.00000000000E+00  0.00000000000E+00  0.64037253408E+03  0.64037253408E+03  0.00000000000E+00 0.  1.
         -4   -1    0    0    0  501 -0.00000000000E+00 -0.00000000000E+00 -0.23626432078E+04  0.23626432078E+04  0.00000000000E+00 0. -1.
   -9000010    2    1    2    0  501 -0.31772372394E+03 -0.37292195929E+03 -0.14854494188E+04  0.18707201627E+04  0.10261650934E+04 0.  0.
    9000010    2    1    2  502    0  0.31772372394E+03  0.37292195929E+03 -0.23682125496E+03  0.11322955792E+04  0.99297020063E+03 0.  0.
        -13    1    4    4    0    0  0.63927709943E+03  0.69890220907E+02 -0.28269742102E+02  0.64370726446E+03  0.10566000000E+00 0.  1.
          4    1    4    4  502    0 -0.32155337549E+03  0.30303173838E+03 -0.20855151286E+03  0.48858831471E+03  0.00000000000E+00 0.  1.
         13    1    3    3    0    0  0.83415797100E+02 -0.21244517916E+03 -0.14146092279E+04  0.14329027979E+04  0.10566000000E+00 0. -1.
         -4    1    3    3    0  501 -0.40113952104E+03 -0.16047678013E+03 -0.70840190863E+02  0.43781736483E+03  0.00000000000E+00 0. -1.
<mgrwt>
<rscale>  0 0.11220854E+04</rscale>
<asrwt>0</asrwt>
<pdfrwt beam="1">  1        4 0.98518851E-01 0.11072529E+04</pdfrwt>
<pdfrwt beam="2">  1       -4 0.36348357E+00 0.11371165E+04</pdfrwt>
<totfact> 0.19741819E-01</totfact>
</mgrwt>
</event>
<event>
 8    1  0.3025584E-006  0.1180043E+04  0.7818608E-02  0.8622927E-01
          4   -1    0    0  502    0  0.00000000000E+00  0.00000000000E+00  0.91902689570E+03  0.91902689570E+03  0.00000000000E+00 0.  1.
         -4   -1    0    0    0  501 -0.00000000000E+00 -0.00000000000E+00 -0.25988937785E+04  0.25988937785E+04  0.00000000000E+00 0. -1.
   -9000010    2    1    2    0  501  0.61982548860E+03 -0.12836062895E+02 -0.19784737719E+04  0.23036620532E+04  0.10040677209E+04 0.  0.
    9000010    2    1    2  502    0 -0.61982548860E+03  0.12836062895E+02  0.29860688915E+03  0.12142586210E+04  0.10004546584E+04 0.  0.
        -13    1    4    4    0    0 -0.79782701745E+03 -0.82108258095E+02  0.48692892286E+03  0.93828007700E+03  0.10566000000E+00 0.  1.
          4    1    4    4  502    0  0.17800152885E+03  0.94944320990E+02 -0.18832203371E+03  0.27597854399E+03  0.00000000000E+00 0.  1.
         13    1    3    3    0    0  0.44065025590E+03  0.35468621673E+03 -0.17415364311E+04  0.18310991542E+04  0.10566000000E+00 0. -1.
         -4    1    3    3    0  501  0.17917523270E+03 -0.36752227963E+03 -0.23693734079E+03  0.47256289898E+03  0.00000000000E+00 0. -1.
<mgrwt>
<rscale>  0 0.11785052E+04</rscale>
<asrwt>0</asrwt>
<pdfrwt beam="1">  1        4 0.14138876E+00 0.11769698E+04</pdfrwt>
<pdfrwt beam="2">  1       -4 0.39982981E+00 0.11800425E+04</pdfrwt>
<totfact> 0.77138964E-02</totfact>
</mgrwt>
</event>
<event>
 8    1  0.3025584E-006  0.1435689E+04  0.7818608E-02  0.8450669E-01
          4   -1    0    0  502    0  0.00000000000E+00  0.00000000000E+00  0.17169065093E+04  0.17169065093E+04  0.00000000000E+00 0.  1.
         -4   -1    0    0    0  501 -0.00000000000E+00 -0.00000000000E+00 -0.14650109269E+04  0.14650109269E+04  0.00000000000E+00 0. -1.
   -9000010    2    1    2    0  501  0.74261743389E+03 -0.72011642658E+03 -0.56141040115E+03  0.15318662350E+04  0.98050201557E+03 0.  0.
    9000010    2    1    2  502    0 -0.74261743389E+03  0.72011642658E+03  0.81330598353E+03  0.16500512012E+04  0.99556718640E+03 0.  0.
        -13    1    4    4    0    0  0.96257964513E+00  0.21787521384E+03 -0.20056318617E+03  0.29613533761E+03  0.10566000000E+00 0.  1.
          4    1    4    4  502    0 -0.74358001354E+03  0.50224121274E+03  0.10138691697E+04  0.13539158636E+04  0.00000000000E+00 0.  1.
         13    1    3    3    0    0  0.43870454082E+03 -0.11297122474E+03 -0.70488982846E+03  0.83791040881E+03  0.10566000000E+00 0. -1.
         -4    1    3    3    0  501  0.30391289307E+03 -0.60714520184E+03  0.14347942730E+03  0.69395582622E+03  0.00000000000E+00 0. -1.
<mgrwt>
<rscale>  0 0.14304766E+04</rscale>
<asrwt>0</asrwt>
<pdfrwt beam="1">  1        4 0.26413946E+00 0.14356888E+04</pdfrwt>
<pdfrwt beam="2">  1       -4 0.22538630E+00 0.14252833E+04</pdfrwt>
<totfact> 0.10594516E-01</totfact>
</mgrwt>
</event>
<event>
 8    1  0.3025584E-006  0.1040528E+04  0.7818608E-02  0.8743199E-01
         -4   -1    0    0    0  501 -0.00000000000E+00  0.00000000000E+00  0.15276581497E+04  0.15276581497E+04  0.00000000000E+00 0. -1.
          4   -1    0    0  502    0  0.00000000000E+00 -0.00000000000E+00 -0.13038210543E+04  0.13038210543E+04  0.00000000000E+00 0.  1.
   -9000010    2    1    2    0  501  0.24001809608E+03 -0.20589102556E+03  0.10749664957E+04  0.14871873877E+04  0.97784127466E+03 0.  0.
    9000010    2    1    2  502    0 -0.24001809608E+03  0.20589102556E+03 -0.85112940039E+03  0.13442918163E+04  0.99131197425E+03 0.  0.
        -13    1    4    4    0    0 -0.27698504379E+03  0.28020172899E+03  0.86182239571E+02  0.40331267398E+03  0.10566000000E+00 0.  1.
          4    1    4    4  502    0  0.36966947708E+02 -0.74310703423E+02 -0.93731163996E+03  0.94097914231E+03  0.00000000000E+00 0.  1.
         13    1    3    3    0    0  0.54648188128E+03 -0.19514802141E+02  0.96989656338E+03  0.11134283223E+04  0.10566000000E+00 0. -1.
         -4    1    3    3    0  501 -0.30646378521E+03 -0.18637622342E+03  0.10506993232E+03  0.37375906541E+03  0.00000000000E+00 0. -1.
<mgrwt>
<rscale>  0 0.10340958E+04</rscale>
<asrwt>0</asrwt>
<pdfrwt beam="2">  1        4 0.20058785E+00 0.10405283E+04</pdfrwt>
<pdfrwt beam="1">  1       -4 0.23502433E+00 0.10277030E+04</pdfrwt>
<totfact> 0.14759832E-01</totfact>
</mgrwt>
</event>
<event>
 8    1  0.3025584E-006  0.1053916E+04  0.7818608E-02  0.8736183E-01
          4   -1    0    0  502    0  0.00000000000E+00  0.00000000000E+00  0.18604287576E+04  0.18604287576E+04  0.00000000000E+00 0.  1.
         -4   -1    0    0    0  501 -0.00000000000E+00 -0.00000000000E+00 -0.11448599894E+04  0.11448599894E+04  0.00000000000E+00 0. -1.
   -9000010    2    1    2    0  501 -0.24884355340E+03 -0.24571596438E+03 -0.69640047520E+03  0.12433591100E+04  0.96884921705E+03 0.  0.
    9000010    2    1    2  502    0  0.24884355340E+03  0.24571596438E+03  0.14119692434E+04  0.17619296369E+04  0.99420292297E+03 0.  0.
        -13    1    4    4    0    0  0.27056736269E+03  0.45690851055E+03  0.14518487713E+04  0.15459097485E+04  0.10566000000E+00 0.  1.
          4    1    4    4  502    0 -0.21723809288E+02 -0.21119254617E+03 -0.39879527883E+02  0.21601988842E+03  0.00000000000E+00 0.  1.
         13    1    3    3    0    0  0.87137582876E+02  0.33761122644E+03 -0.16511760955E+03  0.38579545709E+03  0.10566000000E+00 0. -1.
         -4    1    3    3    0  501 -0.33598113627E+03 -0.58332719081E+03 -0.53128286565E+03  0.85756365292E+03  0.00000000000E+00 0. -1.
<mgrwt>
<rscale>  0 0.10419061E+04</rscale>
<asrwt>0</asrwt>
<pdfrwt beam="1">  1        4 0.28621981E+00 0.10539160E+04</pdfrwt>
<pdfrwt beam="2">  1       -4 0.17613231E+00 0.10300331E+04</pdfrwt>
<totfact> 0.13240408E-01</totfact>
</mgrwt>
</event>
<event>
 8    1  0.3025584E-006  0.1194991E+04  0.7818608E-02  0.8616992E-01
         -4   -1    0    0    0  501 -0.00000000000E+00  0.00000000000E+00  0.13480376077E+04  0.13480376077E+04  0.00000000000E+00 0. -1.
          4   -1    0    0  502    0  0.00000000000E+00 -0.00000000000E+00 -0.19810466049E+04  0.19810466049E+04  0.00000000000E+00 0.  1.
   -9000010    2    1    2    0  501 -0.62858606573E+03 -0.13216598012E+01  0.82709351394E+03  0.14533021218E+04  0.10163076245E+04 0.  0.
    9000010    2    1    2  502    0  0.62858606573E+03  0.13216598012E+01 -0.14601025112E+04  0.18757820908E+04  0.99575946908E+03 0.  0.
        -13    1    4    4    0    0  0.36452377433E+03  0.49674352893E+03 -0.76954580373E+03  0.98581563732E+03  0.10566000000E+00 0.  1.
          4    1    4    4  502    0  0.26406229140E+03 -0.49542186913E+03 -0.69055670745E+03  0.88996645350E+03  0.00000000000E+00 0.  1.
         13    1    3    3    0    0 -0.71077492341E+03  0.15661675787E+03  0.13699494292E+03  0.74060612079E+03  0.10566000000E+00 0. -1.
         -4    1    3    3    0  501  0.82188857685E+02 -0.15793841767E+03  0.69009857102E+03  0.71269600099E+03  0.00000000000E+00 0. -1.
<mgrwt>
<rscale>  0 0.11862459E+04</rscale>
<asrwt>0</asrwt>
<pdfrwt beam="2">  1        4 0.30477640E+00 0.11775649E+04</pdfrwt>
<pdfrwt beam="1">  1       -4 0.20739040E+00 0.11949910E+04</pdfrwt>
<totfact> 0.94001555E-02</totfact>
</mgrwt>
</event>
<event>
 8    1  0.3025584E-006  0.1132070E+04  0.7818608E-02  0.8660979E-01
         -4   -1    0    0    0  501 -0.00000000000E+00  0.00000000000E+00  0.54573598079E+03  0.54573598079E+03  0.00000000000E+00 0. -1.
          4   -1    0    0  502    0  0.00000000000E+00 -0.00000000000E+00 -0.35274132183E+04  0.35274132183E+04  0.00000000000E+00 0.  1.
   -9000010    2    1    2    0  501  0.98566273761E+02 -0.52646619003E+03 -0.30820376802E+03  0.11698677500E+04  0.99333731946E+03 0.  0.
    9000010    2    1    2  502    0 -0.98566273761E+02  0.52646619003E+03 -0.26734734695E+04  0.29032814491E+04  0.99734689107E+03 0.  0.
        -13    1    4    4    0    0  0.16387411717E+03 -0.10897921776E+03 -0.17008917611E+04  0.17122394664E+04  0.10566000000E+00 0.  1.
          4    1    4    4  502    0 -0.26244039093E+03  0.63544540779E+03 -0.97258170840E+03  0.11910419827E+04  0.00000000000E+00 0.  1.
         13    1    3    3    0    0 -0.28533019882E+03 -0.49140694069E+03  0.13339059512E+03  0.58368413183E+03  0.10566000000E+00 0. -1.
         -4    1    3    3    0  501  0.38389647258E+03 -0.35059249336E+02 -0.44159436313E+03  0.58618361814E+03  0.00000000000E+00 0. -1.
<mgrwt>
<rscale>  0 0.11303033E+04</rscale>
<asrwt>0</asrwt>
<pdfrwt beam="2">  1        4 0.54267895E+00 0.11320701E+04</pdfrwt>
<pdfrwt beam="1">  1       -4 0.83959382E-01 0.11285393E+04</pdfrwt>
<totfact> 0.44274348E-02</totfact>
</mgrwt>
</event>
<event>
 8    1  0.3025584E-006  0.1030132E+04  0.7818608E-02  0.8760710E-01
         -4   -1    0    0    0  501 -0.00000000000E+00  0.00000000000E+00  0.89729021926E+03  0.89729021926E+03  0.00000000000E+00 0. -1.
          4   -1    0    0  502    0  0.00000000000E+00 -0.00000000000E+00 -0.17365763596E+04  0.17365763596E+04  0.00000000000E+00 0.  1.
   -9000010    2    1    2    0  501  0.81323604252E+02  0.15951443642E+03  0.34272994905E+03  0.10856494574E+04  0.10144518433E+04 0.  0.
    9000010    2    1    2  502    0 -0.81323604252E+02 -0.15951443642E+03 -0.11820160893E+04  0.15482171214E+04  0.98374581855E+03 0.  0.
        -13    1    4    4    0    0 -0.39179371361E+03 -0.10493069615E+03 -0.95222938866E+02  0.41662955280E+03  0.10566000000E+00 0.  1.
          4    1    4    4  502    0  0.31047010935E+03 -0.54583740271E+02 -0.10867931505E+04  0.11315875686E+04  0.00000000000E+00 0.  1.
         13    1    3    3    0    0 -0.20152516751E+03  0.18812322466E+03 -0.28501480456E+03  0.39653018898E+03  0.10566000000E+00 0. -1.
         -4    1    3    3    0  501  0.28284877176E+03 -0.28608788233E+02  0.62774475360E+03  0.68911926843E+03  0.00000000000E+00 0. -1.
<mgrwt>
<rscale>  0 0.10149068E+04</rscale>
<asrwt>0</asrwt>
<pdfrwt beam="2">  1        4 0.26716559E+00 0.99990711E+03</pdfrwt>
<pdfrwt beam="1">  1       -4 0.13804465E+00 0.10301315E+04</pdfrwt>
<totfact> 0.21014142E-01</totfact>
</mgrwt>
</event>
<event>
 8    1  0.3025584E-006  0.1314707E+04  0.7818608E-02  0.8525383E-01
          4   -1    0    0  502    0  0.00000000000E+00  0.00000000000E+00  0.22895748118E+04  0.22895748118E+04  0.00000000000E+00 0.  1.
         -4   -1    0    0    0  501 -0.00000000000E+00 -0.00000000000E+00 -0.82793421515E+03  0.82793421515E+03  0.00000000000E+00 0. -1.
   -9000010    2    1    2    0  501  0.78307595919E+03  0.33671128976E+03  0.26549051586E+03  0.13412460487E+04  0.10009362110E+04 0.  0.
    9000010    2    1    2  502    0 -0.78307595919E+03 -0.33671128976E+03  0.11961500808E+04  0.17762629783E+04  0.99887571883E+03 0.  0.
        -13    1    4    4    0    0 -0.82168814594E+03  0.13746007098E+03  0.82934626365E+03  0.11755347364E+04  0.10566000000E+00 0.  1.
          4    1    4    4  502    0  0.38612186747E+02 -0.47417136074E+03  0.36680381717E+03  0.60072824188E+03  0.00000000000E+00 0.  1.
         13    1    3    3    0    0  0.58824054524E+03 -0.21570069443E+03 -0.12281548860E+03  0.63846486516E+03  0.10566000000E+00 0. -1.
         -4    1    3    3    0  501  0.19483541395E+03  0.55241198419E+03  0.38830600446E+03  0.70278118352E+03  0.00000000000E+00 0. -1.
<mgrwt>
<rscale>  0 0.13139232E+04</rscale>
<asrwt>0</asrwt>
<pdfrwt beam="1">  1        4 0.35224227E+00 0.13131394E+04</pdfrwt>
<pdfrwt beam="2">  1       -4 0.12737450E+00 0.13147075E+04</pdfrwt>
<totfact> 0.13575661E-01</totfact>
</mgrwt>
</event>
<event>
 8    1  0.3025584E-006  0.1051970E+04  0.7818608E-02  0.8738660E-01
          4   -1    0    0  502    0  0.00000000000E+00  0.00000000000E+00  0.17567651446E+04  0.17567651446E+04  0.00000000000E+00 0.  1.
         -4   -1    0    0    0  501 -0.00000000000E+00 -0.00000000000E+00 -0.15547159717E+04  0.15547159717E+04  0.00000000000E+00 0. -1.
   -9000010    2    1    2    0  501 -0.31333911051E+03  0.12483552520E+03 -0.11868530221E+04  0.15691577446E+04  0.96946924905E+03 0.  0.
    9000010    2    1    2  502    0  0.31333911051E+03 -0.12483552520E+03  0.13889021950E+04  0.17423233717E+04  0.99643169244E+03 0.  0.
        -13    1    4    4    0    0  0.51736848508E+03 -0.29672426192E+03  0.40016255162E+03  0.71822386193E+03  0.10566000000E+00 0.  1.
          4    1    4    4  502    0 -0.20402937456E+03  0.17188873672E+03  0.98873964334E+03  0.10240995097E+04  0.00000000000E+00 0.  1.
         13    1    3    3    0    0 -0.62110786842E+03  0.26702645448E+03 -0.89609437816E+03  0.11225253927E+04  0.10566000000E+00 0. -1.
         -4    1    3    3    0  501  0.30776875791E+03 -0.14219092928E+03 -0.29075864397E+03  0.44663235189E+03  0.00000000000E+00 0. -1.
<mgrwt>
<rscale>  0 0.10391407E+04</rscale>
<asrwt>0</asrwt>
<pdfrwt beam="1">  1        4 0.27027156E+00 0.10519703E+04</pdfrwt>
<pdfrwt beam="2">  1       -4 0.23918707E+00 0.10264677E+04</pdfrwt>
<totfact> 0.97398052E-02</totfact>
</mgrwt>
</event>
<event>
 8    1  0.3025584E-006  0.1670162E+04  0.7818608E-02  0.8322484E-01
          4   -1    0    0  502    0  0.00000000000E+00  0.00000000000E+00  0.11217161264E+04  0.11217161264E+04  0.00000000000E+00 0.  1.
         -4   -1    0    0    0  501 -0.00000000000E+00 -0.00000000000E+00 -0.24677134029E+04  0.24677134029E+04  0.00000000000E+00 0. -1.
   -9000010    2    1    2    0  501 -0.90133182431E+03  0.99308771735E+03 -0.77411502881E+03  0.18240714256E+04  0.96403330638E+03 0.  0.
    9000010    2    1    2  502    0  0.90133182431E+03 -0.99308771735E+03 -0.57188224769E+03  0.17653581037E+04  0.99539824050E+03 0.  0.
        -13    1    4    4    0    0  0.10011917645E+04 -0.69411593662E+03 -0.13370575802E+03  0.12255852168E+04  0.10566000000E+00 0.  1.
          4    1    4    4  502    0 -0.99859940179E+02 -0.29897178073E+03 -0.43817648967E+03  0.53977288689E+03  0.00000000000E+00 0.  1.
         13    1    3    3    0    0 -0.35110978053E+02  0.65980051901E+03 -0.57259443807E+03  0.87431911070E+03  0.10566000000E+00 0. -1.
         -4    1    3    3    0  501 -0.86622084626E+03  0.33328719835E+03 -0.20152059074E+03  0.94975231485E+03  0.00000000000E+00 0. -1.
<mgrwt>
<rscale>  0 0.16608853E+04</rscale>
<asrwt>0</asrwt>
<pdfrwt beam="1">  1        4 0.17257171E+00 0.16701616E+04</pdfrwt>
<pdfrwt beam="2">  1       -4 0.37964822E+00 0.16516605E+04</pdfrwt>
<totfact> 0.66843436E-02</totfact>
</mgrwt>
</event>
<event>
 8    1  0.3025584E-006  0.1357501E+04  0.7818608E-02  0.8497754E-01
         -4   -1    0    0    0  501 -0.00000000000E+00  0.00000000000E+00  0.10858944367E+04  0.10858944367E+04  0.00000000000E+00 0. -1.
          4   -1    0    0  502    0  0.00000000000E+00 -0.00000000000E+00 -0.27160883390E+04  0.27160883390E+04  0.00000000000E+00 0.  1.
   -9000010    2    1    2    0  501 -0.12502362369E+03 -0.91910189109E+03  0.35265170848E+03  0.13989666639E+04  0.98608585145E+03 0.  0.
    9000010    2    1    2  502    0  0.12502362369E+03  0.91910189109E+03 -0.19828456108E+04  0.24030161119E+04  0.99117633410E+03 0.  0.
        -13    1    4    4    0    0  0.36421619221E+03  0.55152348804E+03 -0.18181585121E+04  0.19345624774E+04  0.10566000000E+00 0.  1.
          4    1    4    4  502    0 -0.23919256853E+03  0.36757840305E+03 -0.16468709861E+03  0.46845363450E+03  0.00000000000E+00 0.  1.
         13    1    3    3    0    0 -0.35924070902E+02 -0.77748647539E+03 -0.21475952673E+03  0.80740164959E+03  0.10566000000E+00 0. -1.
         -4    1    3    3    0  501 -0.89099552783E+02 -0.14161541570E+03  0.56741123521E+03  0.59156501428E+03  0.00000000000E+00 0. -1.
<mgrwt>
<rscale>  0 0.13556438E+04</rscale>
<asrwt>0</asrwt>
<pdfrwt beam="2">  1        4 0.41785975E+00 0.13575013E+04</pdfrwt>
<pdfrwt beam="1">  1       -4 0.16706068E+00 0.13537889E+04</pdfrwt>
<totfact> 0.50297848E-02</totfact>
</mgrwt>
</event>
<event>
 8    1  0.3025584E-006  0.1169400E+04  0.7818608E-02  0.8635799E-01
         -4   -1    0    0    0  501 -0.00000000000E+00  0.00000000000E+00  0.22870496484E+04  0.22870496484E+04  0.00000000000E+00 0. -1.
          4   -1    0    0  502    0  0.00000000000E+00 -0.00000000000E+00 -0.17108607560E+04  0.17108607560E+04  0.00000000000E+00 0.  1.
   -9000010    2    1    2    0  501  0.27648552469E+03 -0.53229287614E+03  0.19064526564E+04  0.22365280000E+04  0.10038504931E+04 0.  0.
    9000010    2    1    2  502    0 -0.27648552469E+03  0.53229287614E+03 -0.13302637640E+04  0.17613824044E+04  0.98645138816E+03 0.  0.
        -13    1    4    4    0    0 -0.95201168312E+02  0.63101674132E+03 -0.29021965735E+03  0.70105124703E+03  0.10566000000E+00 0.  1.
          4    1    4    4  502    0 -0.18128435638E+03 -0.98723865181E+02 -0.10400441067E+04  0.10603311573E+04  0.00000000000E+00 0.  1.
         13    1    3    3    0    0 -0.30398235646E+03 -0.13796636733E+03  0.11807479124E+04  0.12270312284E+04  0.10566000000E+00 0. -1.
         -4    1    3    3    0  501  0.58046788115E+03 -0.39432650881E+03  0.72570474396E+03  0.10094967717E+04  0.00000000000E+00 0. -1.
<mgrwt>
<rscale>  0 0.11619251E+04</rscale>
<asrwt>0</asrwt>
<pdfrwt beam="2">  1        4 0.26320935E+00 0.11544983E+04</pdfrwt>
<pdfrwt beam="1">  1       -4 0.35185379E+00 0.11693997E+04</pdfrwt>
<totfact> 0.49901903E-02</totfact>
</mgrwt>
</event>
<event>
 8    1  0.3025584E-006  0.1305683E+04  0.7818608E-02  0.8536957E-01
         -4   -1    0    0    0  501 -0.00000000000E+00  0.00000000000E+00  0.73833840464E+03  0.73833840464E+03  0.00000000000E+00 0. -1.
          4   -1    0    0  502    0  0.00000000000E+00 -0.00000000000E+00 -0.31511917328E+04  0.31511917328E+04  0.00000000000E+00 0.  1.
   -9000010    2    1    2    0  501  0.71055907131E+03 -0.37413700246E+03 -0.18868351225E+03  0.13192460056E+04  0.10295318670E+04 0.  0.
    9000010    2    1    2  502    0 -0.71055907131E+03  0.37413700246E+03 -0.22241698159E+04  0.25702841318E+04  0.10072519337E+04 0.  0.
        -13    1    4    4    0    0 -0.72854473997E+03 -0.84942377204E+01 -0.19950682092E+04  0.21239460353E+04  0.10566000000E+00 0.  1.
          4    1    4    4  502    0  0.17985668664E+02  0.38263124018E+03 -0.22910160670E+03  0.44633809655E+03  0.00000000000E+00 0.  1.
         13    1    3    3    0    0  0.51081605181E+03 -0.19258827223E+03 -0.61017057724E+03  0.81873770274E+03  0.10566000000E+00 0. -1.
         -4    1    3    3    0  501  0.19974301950E+03 -0.18154873024E+03  0.42148706499E+03  0.50050830287E+03  0.00000000000E+00 0. -1.
<mgrwt>
<rscale>  0 0.12969062E+04</rscale>
<asrwt>0</asrwt>
<pdfrwt beam="2">  1        4 0.48479873E+00 0.12881883E+04</pdfrwt>
<pdfrwt beam="1">  1       -4 0.11359052E+00 0.13056832E+04</pdfrwt>
<totfact> 0.45518704E-02</totfact>
</mgrwt>
</event>
<event>
 8    1  0.3025584E-006  0.1391931E+04  0.7818608E-02  0.8482570E-01
          4   -1    0    0  502    0  0.00000000000E+00  0.00000000000E+00  0.18796208927E+04  0.18796208927E+04  0.00000000000E+00 0.  1.
         -4   -1    0    0    0  501 -0.00000000000E+00 -0.00000000000E+00 -0.14969690222E+04  0.14969690222E+04  0.00000000000E+00 0. -1.
   -9000010    2    1    2    0  501  0.17172328790E+03 -0.95738869960E+03 -0.76824157857E+03  0.15898638097E+04  0.99568559327E+03 0.  0.
    9000010    2    1    2  502    0 -0.17172328790E+03  0.95738869960E+03  0.11508934491E+04  0.17867261052E+04  0.96007938944E+03 0.  0.
        -13    1    4    4    0    0 -0.41767232708E+03  0.15231450974E+03  0.70671467704E+03  0.83492246861E+03  0.10566000000E+00 0.  1.
          4    1    4    4  502    0  0.24594903918E+03  0.80507418986E+03  0.44417877209E+03  0.95180363659E+03  0.00000000000E+00 0.  1.
         13    1    3    3    0    0 -0.26068087400E+02  0.20807124795E+03 -0.12289292505E+03  0.24305528505E+03  0.10566000000E+00 0. -1.
         -4    1    3    3    0  501  0.19779137530E+03 -0.11654599475E+04 -0.64534865353E+03  0.13468085247E+04  0.00000000000E+00 0. -1.
<mgrwt>
<rscale>  0 0.13792514E+04</rscale>
<asrwt>0</asrwt>
<pdfrwt beam="1">  1        4 0.28917244E+00 0.13666874E+04</pdfrwt>
<pdfrwt beam="2">  1       -4 0.23030293E+00 0.13919310E+04</pdfrwt>
<totfact> 0.89225986E-02</totfact>
</mgrwt>
</event>
<event>
 8    1  0.3025584E-006  0.1564194E+04  0.7818608E-02  0.8385600E-01
         -4   -1    0    0    0  501 -0.00000000000E+00  0.00000000000E+00  0.15489634181E+04  0.15489634181E+04  0.00000000000E+00 0. -1.
          4   -1    0    0  502    0  0.00000000000E+00 -0.00000000000E+00 -0.18164759001E+04  0.18164759001E+04  0.00000000000E+00 0.  1.
   -9000010    2    1    2    0  501 -0.10730480984E+04  0.55676106294E+03  0.52919198608E+03  0.16100357505E+04  0.92236427580E+03 0.  0.
    9000010    2    1    2  502    0  0.10730480984E+04 -0.55676106294E+03 -0.79670446810E+03  0.17554035676E+04  0.99261703250E+03 0.  0.
        -13    1    4    4    0    0  0.12045767304E+04 -0.25013378696E+03 -0.61318265695E+03  0.13746144888E+04  0.10566000000E+00 0.  1.
          4    1    4    4  502    0 -0.13152863204E+03 -0.30662727599E+03 -0.18352181115E+03  0.38078907888E+03  0.00000000000E+00 0.  1.
         13    1    3    3    0    0 -0.66367632049E+03  0.65335246169E+03  0.69069681170E+03  0.11594816921E+04  0.10566000000E+00 0. -1.
         -4    1    3    3    0  501 -0.40937177787E+03 -0.96591398741E+02 -0.16150482562E+03  0.45055405838E+03  0.00000000000E+00 0. -1.
<mgrwt>
<rscale>  0 0.15422342E+04</rscale>
<asrwt>0</asrwt>
<pdfrwt beam="2">  1        4 0.27945783E+00 0.15641943E+04</pdfrwt>
<pdfrwt beam="1">  1       -4 0.23830207E+00 0.15205824E+04</pdfrwt>
<totfact> 0.89509176E-02</totfact>
</mgrwt>
</event>
<event>
 8    1  0.3025584E-006  0.1065555E+04  0.7818608E-02  0.8721855E-01
          4   -1    0    0  502    0  0.00000000000E+00  0.00000000000E+00  0.18342176797E+04  0.18342176797E+04  0.00000000000E+00 0.  1.
         -4   -1    0    0    0  501 -0.00000000000E+00 -0.00000000000E+00 -0.13897953268E+04  0.13897953268E+04  0.00000000000E+00 0. -1.
   -9000010    2    1    2    0  501  0.24627709568E+03  0.27850255852E+03 -0.98564586761E+03  0.14406168495E+04  0.98268155965E+03 0.  0.
    9000010    2    1    2  502    0 -0.24627709568E+03 -0.27850255852E+03  0.14300682205E+04  0.17833961570E+04  0.99859433930E+03 0.  0.
        -13    1    4    4    0    0 -0.24189456197E+03  0.16081381390E+03  0.32714626374E+01  0.29049057727E+03  0.10566000000E+00 0.  1.
          4    1    4    4  502    0 -0.43825337141E+01 -0.43931637241E+03  0.14267967579E+04  0.14929055798E+04  0.00000000000E+00 0.  1.
         13    1    3    3    0    0 -0.10820104309E+03 -0.19584823620E+03 -0.78361482094E+03  0.81493324641E+03  0.10566000000E+00 0. -1.
         -4    1    3    3    0  501  0.35447813877E+03  0.47435079472E+03 -0.20203104667E+03  0.62568360306E+03  0.00000000000E+00 0. -1.
<mgrwt>
<rscale>  0 0.10580794E+04</rscale>
<asrwt>0</asrwt>
<pdfrwt beam="1">  1        4 0.28218733E+00 0.10655547E+04</pdfrwt>
<pdfrwt beam="2">  1       -4 0.21381467E+00 0.10506565E+04</pdfrwt>
<totfact> 0.10496165E-01</totfact>
</mgrwt>
</event>
<event>
 8    1  0.3025584E-006  0.1030153E+04  0.7818608E-02  0.8759171E-01
          4   -1    0    0  502    0  0.00000000000E+00  0.00000000000E+00  0.11881655389E+04  0.11881655389E+04  0.00000000000E+00 0.  1.
         -4   -1    0    0    0  501 -0.00000000000E+00 -0.00000000000E+00 -0.15562321692E+04  0.15562321692E+04  0.00000000000E+00 0. -1.
   -9000010    2    1    2    0  501  0.25960511059E+03  0.63012688183E+01 -0.10966101467E+04  0.15045825070E+04  0.99688524267E+03 0.  0.
    9000010    2    1    2  502    0 -0.25960511059E+03 -0.63012688183E+01  0.72854351637E+03  0.12398152011E+04  0.96898480806E+03 0.  0.
        -13    1    4    4    0    0 -0.62479172950E+03 -0.55881851344E+02  0.38514504850E+03  0.73608709139E+03  0.10566000000E+00 0.  1.
          4    1    4    4  502    0  0.36518661891E+03  0.49580582526E+02  0.34339846787E+03  0.50372810973E+03  0.00000000000E+00 0.  1.
         13    1    3    3    0    0 -0.23601484305E+03  0.32107294801E+03 -0.23712787960E+03  0.46370301544E+03  0.10566000000E+00 0. -1.
         -4    1    3    3    0  501  0.49561995363E+03 -0.31477167919E+03 -0.85948226708E+03  0.10408794915E+04  0.00000000000E+00 0. -1.
<mgrwt>
<rscale>  0 0.10165759E+04</rscale>
<asrwt>0</asrwt>
<pdfrwt beam="1">  1        4 0.18279470E+00 0.10031780E+04</pdfrwt>
<pdfrwt beam="2">  1       -4 0.23942034E+00 0.10301528E+04</pdfrwt>
<totfact> 0.16298648E-01</totfact>
</mgrwt>
</event>
<event>
 8    1  0.3025584E-006  0.1365223E+04  0.7818608E-02  0.8493744E-01
          4   -1    0    0  502    0  0.00000000000E+00  0.00000000000E+00  0.15042283628E+04  0.15042283628E+04  0.00000000000E+00 0.  1.
         -4   -1    0    0    0  501 -0.00000000000E+00 -0.00000000000E+00 -0.12388773319E+04  0.12388773319E+04  0.00000000000E+00 0. -1.
   -9000010    2    1    2    0  501 -0.91475600553E+03 -0.11903675838E+03  0.37243491155E+02  0.13589571371E+04  0.99721067150E+03 0.  0.
    9000010    2    1    2  502    0  0.91475600553E+03  0.11903675838E+03  0.22810753969E+03  0.13841485576E+04  0.10064223170E+04 0.  0.
        -13    1    4    4    0    0  0.96200307511E+03  0.45798934851E+02  0.50950658736E+03  0.10895615782E+04  0.10566000000E+00 0.  1.
          4    1    4    4  502    0 -0.47247069586E+02  0.73237823528E+02 -0.28139904767E+03  0.29458697936E+03  0.00000000000E+00 0.  1.
         13    1    3    3    0    0 -0.16731022900E+03 -0.29690666108E+03 -0.35855803300E+03  0.49468186980E+03  0.10566000000E+00 0. -1.
         -4    1    3    3    0  501 -0.74744577653E+03  0.17786990270E+03  0.39580152416E+03  0.86427526729E+03  0.00000000000E+00 0. -1.
<mgrwt>
<rscale>  0 0.13618307E+04</rscale>
<asrwt>0</asrwt>
<pdfrwt beam="1">  1        4 0.23141975E+00 0.13652231E+04</pdfrwt>
<pdfrwt beam="2">  1       -4 0.19059651E+00 0.13584467E+04</pdfrwt>
<totfact> 0.15862407E-01</totfact>
</mgrwt>
</event>
<event>
 8    1  0.3025584E-006  0.1077234E+04  0.7818608E-02  0.8726157E-01
          4   -1    0    0  502    0  0.00000000000E+00  0.00000000000E+00  0.22476621281E+04  0.22476621281E+04  0.00000000000E+00 0.  1.
         -4   -1    0    0    0  501 -0.00000000000E+00 -0.00000000000E+00 -0.23161820984E+04  0.23161820984E+04  0.00000000000E+00 0. -1.
   -9000010    2    1    2    0  501 -0.92675888757E+01 -0.22277978682E+03 -0.20581244635E+04  0.23013324939E+04  0.10052553002E+04 0.  0.
    9000010    2    1    2  502    0  0.92675888757E+01  0.22277978682E+03  0.19896044932E+04  0.22625117326E+04  0.10539053938E+04 0.  0.
        -13    1    4    4    0    0 -0.20765507354E+02 -0.31259857300E+03  0.15189372334E+03  0.34816775912E+03  0.10566000000E+00 0.  1.
          4    1    4    4  502    0  0.30033096230E+02  0.53537835982E+03  0.18377107699E+04  0.19143439735E+04  0.00000000000E+00 0.  1.
         13    1    3    3    0    0  0.34661861016E+03 -0.34224237604E+03 -0.49776992432E+03  0.69645474626E+03  0.10566000000E+00 0. -1.
         -4    1    3    3    0  501 -0.35588619903E+03  0.11946258923E+03 -0.15603545392E+04  0.16048777477E+04  0.00000000000E+00 0. -1.
<mgrwt>
<rscale>  0 0.10531922E+04</rscale>
<asrwt>0</asrwt>
<pdfrwt beam="1">  1        4 0.34579418E+00 0.10772341E+04</pdfrwt>
<pdfrwt beam="2">  1       -4 0.35633571E+00 0.10296868E+04</pdfrwt>
<totfact> 0.29192140E-02</totfact>
</mgrwt>
</event>
<event>
 8    1  0.3025584E-006  0.1160043E+04  0.7818608E-02  0.8661253E-01
         -4   -1    0    0    0  501 -0.00000000000E+00  0.00000000000E+00  0.20740030600E+04  0.20740030600E+04  0.00000000000E+00 0. -1.
          4   -1    0    0  502    0  0.00000000000E+00 -0.00000000000E+00 -0.18539585469E+04  0.18539585469E+04  0.00000000000E+00 0.  1.
   -9000010    2    1    2    0  501 -0.35243729743E+03  0.43202669761E+03  0.17137136100E+04  0.20367323209E+04  0.94900215688E+03 0.  0.
    9000010    2    1    2  502    0  0.35243729743E+03 -0.43202669761E+03 -0.14936690969E+04  0.18912292861E+04  0.10172717067E+04 0.  0.
        -13    1    4    4    0    0  0.41982489523E+03 -0.63920462424E+03 -0.60180581582E+03  0.97314220206E+03  0.10566000000E+00 0.  1.
          4    1    4    4  502    0 -0.67387597807E+02  0.20717792663E+03 -0.89186328112E+03  0.91808708401E+03  0.00000000000E+00 0.  1.
         13    1    3    3    0    0 -0.55113532335E+03  0.55470641121E+03  0.91015253842E+03  0.11999279152E+04  0.10566000000E+00 0. -1.
         -4    1    3    3    0  501  0.19869802592E+03 -0.12267971360E+03  0.80356107162E+03  0.83680440574E+03  0.00000000000E+00 0. -1.
<mgrwt>
<rscale>  0 0.11299644E+04</rscale>
<asrwt>0</asrwt>
<pdfrwt beam="2">  1        4 0.28522439E+00 0.11600435E+04</pdfrwt>
<pdfrwt beam="1">  1       -4 0.31907739E+00 0.11006653E+04</pdfrwt>
<totfact> 0.55588893E-02</totfact>
</mgrwt>
</event>
<event>
 8    1  0.3025584E-006  0.1068278E+04  0.7818608E-02  0.8731621E-01
          4   -1    0    0  502    0  0.00000000000E+00  0.00000000000E+00  0.12355123738E+04  0.12355123738E+04  0.00000000000E+00 0.  1.
         -4   -1    0    0    0  501 -0.00000000000E+00 -0.00000000000E+00 -0.10674418897E+04  0.10674418897E+04  0.00000000000E+00 0. -1.
   -9000010    2    1    2    0  501  0.13881704346E+03  0.27737951766E+03 -0.38705462932E+03  0.11362350238E+04  0.10222569026E+04 0.  0.
    9000010    2    1    2  502    0 -0.13881704346E+03 -0.27737951766E+03  0.55512511339E+03  0.11667192397E+04  0.97819237593E+03 0.  0.
        -13    1    4    4    0    0  0.29590544635E+03 -0.41540180185E+03  0.48767325729E+03  0.70565140629E+03  0.10566000000E+00 0.  1.
          4    1    4    4  502    0 -0.43472248981E+03  0.13802228420E+03  0.67451856104E+02  0.46106783338E+03  0.00000000000E+00 0.  1.
         13    1    3    3    0    0  0.17293619348E+03 -0.35824102106E+03 -0.13170706684E+02  0.39801637512E+03  0.10566000000E+00 0. -1.
         -4    1    3    3    0  501 -0.34119150023E+02  0.63562053871E+03 -0.37388392264E+03  0.73821864867E+03  0.00000000000E+00 0. -1.
<mgrwt>
<rscale>  0 0.10470237E+04</rscale>
<asrwt>0</asrwt>
<pdfrwt beam="1">  1        4 0.19007883E+00 0.10261919E+04</pdfrwt>
<pdfrwt beam="2">  1       -4 0.16422183E+00 0.10682784E+04</pdfrwt>
<totfact> 0.25430160E-01</totfact>
</mgrwt>
</event>
<event>
 8    1  0.3025584E-006  0.1069381E+04  0.7818608E-02  0.8713118E-01
         -4   -1    0    0    0  501 -0.00000000000E+00  0.00000000000E+00  0.10653598954E+04  0.10653598954E+04  0.00000000000E+00 0. -1.
          4   -1    0    0  502    0  0.00000000000E+00 -0.00000000000E+00 -0.27494005754E+04  0.27494005754E+04  0.00000000000E+00 0.  1.
   -9000010    2    1    2    0  501 -0.60080196876E+02  0.37973293966E+03  0.64872317189E+03  0.12485644035E+04  0.99512038486E+03 0.  0.
    9000010    2    1    2  502    0  0.60080196876E+02 -0.37973293966E+03 -0.23327638519E+04  0.25661960673E+04  0.99788192260E+03 0.  0.
        -13    1    4    4    0    0 -0.30332491071E+03 -0.54510553350E+02 -0.17582518265E+03  0.35481249682E+03  0.10566000000E+00 0.  1.
          4    1    4    4  502    0  0.36340510758E+03 -0.32522238631E+03 -0.21569386693E+04  0.22113835705E+04  0.00000000000E+00 0.  1.
         13    1    3    3    0    0 -0.13480364990E+01  0.57787092524E+03  0.80395969551E+03  0.99009485738E+03  0.10566000000E+00 0. -1.
         -4    1    3    3    0  501 -0.58732160377E+02 -0.19813798558E+03 -0.15523652362E+03  0.25846954609E+03  0.00000000000E+00 0. -1.
<mgrwt>
<rscale>  0 0.10680917E+04</rscale>
<asrwt>0</asrwt>
<pdfrwt beam="2">  1        4 0.42298470E+00 0.10693807E+04</pdfrwt>
<pdfrwt beam="1">  1       -4 0.16390152E+00 0.10668043E+04</pdfrwt>
<totfact> 0.50538957E-02</totfact>
</mgrwt>
</event>
<event>
 8    1  0.3025584E-006  0.1370694E+04  0.7818608E-02  0.8494687E-01
          4   -1    0    0  502    0  0.00000000000E+00  0.00000000000E+00  0.12440078685E+04  0.12440078685E+04  0.00000000000E+00 0.  1.
         -4   -1    0    0    0  501 -0.00000000000E+00 -0.00000000000E+00 -0.16442817900E+04  0.16442817900E+04  0.00000000000E+00 0. -1.
   -9000010    2    1    2    0  501 -0.38635954682E+03 -0.84965602707E+03 -0.64713305496E+03  0.15157780273E+04  0.10037991699E+04 0.  0.
    9000010    2    1    2  502    0  0.38635954682E+03  0.84965602707E+03  0.24685913348E+03  0.13725116313E+04  0.97553046207E+03 0.  0.
        -13    1    4    4    0    0  0.55464150033E+03  0.11777931708E+03 -0.40459103522E+02  0.56845062375E+03  0.10566000000E+00 0.  1.
          4    1    4    4  502    0 -0.16828195350E+03  0.73187670999E+03  0.28731823700E+03  0.80406100752E+03  0.00000000000E+00 0.  1.
         13    1    3    3    0    0  0.11447888709E+03 -0.14287990772E+03  0.22262506714E+03  0.28823951030E+03  0.10566000000E+00 0. -1.
         -4    1    3    3    0  501 -0.50083843391E+03 -0.70677611935E+03 -0.86975812209E+03  0.12275385170E+04  0.00000000000E+00 0. -1.
<mgrwt>
<rscale>  0 0.13603727E+04</rscale>
<asrwt>0</asrwt>
<pdfrwt beam="1">  1        4 0.19138583E+00 0.13501292E+04</pdfrwt>
<pdfrwt beam="2">  1       -4 0.25296643E+00 0.13706939E+04</pdfrwt>
<totfact> 0.13990909E-01</totfact>
</mgrwt>
</event>
<event>
 8    1  0.3025584E-006  0.1308483E+04  0.7818608E-02  0.8529758E-01
         -4   -1    0    0    0  501 -0.00000000000E+00  0.00000000000E+00  0.51097051332E+03  0.51097051332E+03  0.00000000000E+00 0. -1.
          4   -1    0    0  502    0  0.00000000000E+00 -0.00000000000E+00 -0.38105243891E+04  0.38105243891E+04  0.00000000000E+00 0.  1.
   -9000010    2    1    2    0  501  0.84526791553E+03  0.21334662606E+03 -0.89380443421E+03  0.15829262802E+04  0.97302343764E+03 0.  0.
    9000010    2    1    2  502    0 -0.84526791553E+03 -0.21334662606E+03 -0.24057494415E+04  0.27385686221E+04  0.97577307345E+03 0.  0.
        -13    1    4    4    0    0 -0.37031304096E+03 -0.15075843598E+03 -0.21665058129E+04  0.22030903983E+04  0.10566000000E+00 0.  1.
          4    1    4    4  502    0 -0.47495487457E+03 -0.62588190087E+02 -0.23924362861E+03  0.53547822388E+03  0.00000000000E+00 0.  1.
         13    1    3    3    0    0  0.89857865303E+03  0.20087350372E+03 -0.10622754757E+04  0.14057819737E+04  0.10566000000E+00 0. -1.
         -4    1    3    3    0  501 -0.53310737498E+02  0.12473122344E+02  0.16847104149E+03  0.17714430653E+03  0.00000000000E+00 0. -1.
<mgrwt>
<rscale>  0 0.13074580E+04</rscale>
<asrwt>0</asrwt>
<pdfrwt beam="2">  1        4 0.58623453E+00 0.13084830E+04</pdfrwt>
<pdfrwt beam="1">  1       -4 0.78610847E-01 0.13064338E+04</pdfrwt>
<totfact> 0.28922780E-02</totfact>
</mgrwt>
</event>
<event>
 8    1  0.3025584E-006  0.1140900E+04  0.7818608E-02  0.8662040E-01
          4   -1    0    0  502    0  0.00000000000E+00  0.00000000000E+00  0.23149630057E+04  0.23149630057E+04  0.00000000000E+00 0.  1.
         -4   -1    0    0    0  501 -0.00000000000E+00 -0.00000000000E+00 -0.26433518371E+04  0.26433518371E+04  0.00000000000E+00 0. -1.
   -9000010    2    1    2    0  501 -0.45413084286E+03  0.26509487140E+03 -0.23696745947E+04  0.26198321556E+04  0.98572446742E+03 0.  0.
    9000010    2    1    2  502    0  0.45413084286E+03 -0.26509487140E+03  0.20412857633E+04  0.23384826872E+04  0.10124937519E+04 0.  0.
        -13    1    4    4    0    0  0.62532761126E+03 -0.20620452256E+03  0.61576190419E+03  0.90150854702E+03  0.10566000000E+00 0.  1.
          4    1    4    4  502    0 -0.17119676841E+03 -0.58890348837E+02  0.14255238591E+04  0.14369741402E+04  0.00000000000E+00 0.  1.
         13    1    3    3    0    0  0.10822433274E+03  0.17591916649E+03 -0.26222237329E+02  0.20820104763E+03  0.10566000000E+00 0. -1.
         -4    1    3    3    0  501 -0.56235517560E+03  0.89175704906E+02 -0.23434523574E+04  0.24116311080E+04  0.00000000000E+00 0. -1.
<mgrwt>
<rscale>  0 0.11289941E+04</rscale>
<asrwt>0</asrwt>
<pdfrwt beam="1">  1        4 0.35614816E+00 0.11409004E+04</pdfrwt>
<pdfrwt beam="2">  1       -4 0.40666951E+00 0.11172121E+04</pdfrwt>
<totfact> 0.17134488E-02</totfact>
</mgrwt>
</event>
<event>
 8    1  0.3025584E-006  0.1044047E+04  0.7818608E-02  0.8739237E-01
         -4   -1    0    0    0  501 -0.00000000000E+00  0.00000000000E+00  0.34077073343E+03  0.34077073343E+03  0.00000000000E+00 0. -1.
          4   -1    0    0  502    0  0.00000000000E+00 -0.00000000000E+00 -0.36592020347E+04  0.36592020347E+04  0.00000000000E+00 0.  1.
   -9000010    2    1    2    0  501  0.24765765337E+03  0.82845435302E+02 -0.91650972025E+03  0.13809536687E+04  0.99942247743E+03 0.  0.
    9000010    2    1    2  502    0 -0.24765765337E+03 -0.82845435302E+02 -0.24019215810E+04  0.26190190994E+04  0.10108590813E+04 0.  0.
        -13    1    4    4    0    0  0.34993907691E+03 -0.83570399700E+02 -0.44145525863E+03  0.56949462314E+03  0.10566000000E+00 0.  1.
          4    1    4    4  502    0 -0.59759673028E+03  0.72496439741E+00 -0.19604663224E+04  0.20495244762E+04  0.00000000000E+00 0.  1.
         13    1    3    3    0    0  0.63495655301E+03  0.24565109517E+02 -0.63731336511E+03  0.89996755793E+03  0.10566000000E+00 0. -1.
         -4    1    3    3    0  501 -0.38729889964E+03  0.58280325785E+02 -0.27919635515E+03  0.48098611078E+03  0.00000000000E+00 0. -1.
<mgrwt>
<rscale>  0 0.10384975E+04</rscale>
<asrwt>0</asrwt>
<pdfrwt beam="2">  1        4 0.56295414E+00 0.10440468E+04</pdfrwt>
<pdfrwt beam="1">  1       -4 0.52426269E-01 0.10329777E+04</pdfrwt>
<totfact> 0.93342779E-02</totfact>
</mgrwt>
</event>
<event>
 8    1  0.3025584E-006  0.1069118E+04  0.7818608E-02  0.8712905E-01
          4   -1    0    0  502    0  0.00000000000E+00  0.00000000000E+00  0.15542852981E+04  0.15542852981E+04  0.00000000000E+00 0.  1.
         -4   -1    0    0    0  501 -0.00000000000E+00 -0.00000000000E+00 -0.26073515907E+04  0.26073515907E+04  0.00000000000E+00 0. -1.
   -9000010    2    1    2    0  501 -0.37115501726E+03  0.10829972505E+03 -0.22902682707E+04  0.25275171295E+04  0.99675935450E+03 0.  0.
    9000010    2    1    2  502    0  0.37115501726E+03 -0.10829972505E+03  0.12372019781E+04  0.16341197593E+04  0.99508480833E+03 0.  0.
        -13    1    4    4    0    0  0.16587244066E+03 -0.55226779342E+03  0.62212514616E+03  0.84826475282E+03  0.10566000000E+00 0.  1.
          4    1    4    4  502    0  0.20528257660E+03  0.44396806838E+03  0.61507683192E+03  0.78585500645E+03  0.00000000000E+00 0.  1.
         13    1    3    3    0    0  0.10291327826E+03  0.37185371889E+03 -0.37925036833E+03  0.54101495740E+03  0.10566000000E+00 0. -1.
         -4    1    3    3    0  501 -0.47406829552E+03 -0.26355399384E+03 -0.19110179024E+04  0.19865021721E+04  0.00000000000E+00 0. -1.
<mgrwt>
<rscale>  0 0.10683376E+04</rscale>
<asrwt>0</asrwt>
<pdfrwt beam="1">  1        4 0.23912082E+00 0.10675573E+04</pdfrwt>
<pdfrwt beam="2">  1       -4 0.40113101E+00 0.10691184E+04</pdfrwt>
<totfact> 0.37675460E-02</totfact>
</mgrwt>
</event>
<event>
 8    1  0.3025584E-006  0.1030123E+04  0.7818608E-02  0.8769385E-01
         -4   -1    0    0    0  501 -0.00000000000E+00  0.00000000000E+00  0.12681761118E+04  0.12681761118E+04  0.00000000000E+00 0. -1.
          4   -1    0    0  502    0  0.00000000000E+00 -0.00000000000E+00 -0.20352619778E+04  0.20352619778E+04  0.00000000000E+00 0.  1.
   -9000010    2    1    2    0  501 -0.43224718380E+02  0.15080438545E+03  0.90061637500E+03  0.13683065916E+04  0.10181074279E+04 0.  0.
    9000010    2    1    2  502    0  0.43224718380E+02 -0.15080438545E+03 -0.16677022410E+04  0.19351314981E+04  0.96896481413E+03 0.  0.
        -13    1    4    4    0    0 -0.46526941625E+02  0.40885685371E+03 -0.78031695930E+03  0.88216962726E+03  0.10566000000E+00 0.  1.
          4    1    4    4  502    0  0.89751660006E+02 -0.55966123916E+03 -0.88738528175E+03  0.10529618708E+04  0.00000000000E+00 0.  1.
         13    1    3    3    0    0 -0.28949101649E+03 -0.36045214196E+03  0.38698487798E+03  0.60289974475E+03  0.10566000000E+00 0. -1.
         -4    1    3    3    0  501  0.24626629811E+03  0.51125652742E+03  0.51363149702E+03  0.76540684681E+03  0.00000000000E+00 0. -1.
<mgrwt>
<rscale>  0 0.10055595E+04</rscale>
<asrwt>0</asrwt>
<pdfrwt beam="2">  1        4 0.31311722E+00 0.98158196E+03</pdfrwt>
<pdfrwt beam="1">  1       -4 0.19510402E+00 0.10301228E+04</pdfrwt>
<totfact> 0.98093887E-02</totfact>
</mgrwt>
</event>
<event>
 8    1  0.3025584E-006  0.1139734E+04  0.7818608E-02  0.8654461E-01
          4   -1    0    0  502    0  0.00000000000E+00  0.00000000000E+00  0.16876107373E+04  0.16876107373E+04  0.00000000000E+00 0.  1.
         -4   -1    0    0    0  501 -0.00000000000E+00 -0.00000000000E+00 -0.77050054313E+03  0.77050054313E+03  0.00000000000E+00 0. -1.
   -9000010    2    1    2    0  501 -0.36805366050E+03  0.39584852990E+03  0.52932577173E+03  0.12542134369E+04  0.10003529463E+04 0.  0.
    9000010    2    1    2  502    0  0.36805366050E+03 -0.39584852990E+03  0.38778442243E+03  0.12038978435E+04  0.10034110342E+04 0.  0.
        -13    1    4    4    0    0 -0.20256346128E+03  0.94672174342E+02  0.39214650267E+03  0.45141296742E+03  0.10566000000E+00 0.  1.
          4    1    4    4  502    0  0.57061712178E+03 -0.49052070424E+03 -0.43620802334E+01  0.75248487606E+03  0.00000000000E+00 0.  1.
         13    1    3    3    0    0 -0.18897374994E+03  0.71322425668E+03  0.49433206251E+03  0.88812393148E+03  0.10566000000E+00 0. -1.
         -4    1    3    3    0  501 -0.17907991056E+03 -0.31737572678E+03  0.34993709218E+02  0.36608950545E+03  0.00000000000E+00 0. -1.
<mgrwt>
<rscale>  0 0.11383874E+04</rscale>
<asrwt>0</asrwt>
<pdfrwt beam="1">  1        4 0.25963242E+00 0.11397339E+04</pdfrwt>
<pdfrwt beam="2">  1       -4 0.11853855E+00 0.11370425E+04</pdfrwt>
<totfact> 0.27798689E-01</totfact>
</mgrwt>
</event>
<event>
 8    1  0.3025584E-006  0.1055759E+04  0.7818608E-02  0.8738467E-01
          4   -1    0    0  502    0  0.00000000000E+00  0.00000000000E+00  0.25157036825E+04  0.25157036825E+04  0.00000000000E+00 0.  1.
         -4   -1    0    0    0  501 -0.00000000000E+00 -0.00000000000E+00 -0.23115613323E+04  0.23115613323E+04  0.00000000000E+00 0. -1.
   -9000010    2    1    2    0  501  0.28831197087E+03 -0.22662352026E+02 -0.20760561049E+04  0.23145109940E+04  0.98148602417E+03 0.  0.
    9000010    2    1    2  502    0 -0.28831197087E+03  0.22662352026E+02  0.22801984551E+04  0.25127540208E+04  0.10153769740E+04 0.  0.
        -13    1    4    4    0    0 -0.54640588756E+03  0.24759524420E+03  0.83867720545E+03  0.10311363950E+04  0.10566000000E+00 0.  1.
          4    1    4    4  502    0  0.25809391668E+03 -0.22493289217E+03  0.14415212497E+04  0.14816176258E+04  0.00000000000E+00 0.  1.
         13    1    3    3    0    0 -0.79633946926E+02 -0.39047198469E+03 -0.14328588638E+04  0.14872439178E+04  0.10566000000E+00 0. -1.
         -4    1    3    3    0  501  0.36794591780E+03  0.36780963267E+03 -0.64319724119E+03  0.82726707621E+03  0.00000000000E+00 0. -1.
<mgrwt>
<rscale>  0 0.10393556E+04</rscale>
<asrwt>0</asrwt>
<pdfrwt beam="1">  1        4 0.38703134E+00 0.10557593E+04</pdfrwt>
<pdfrwt beam="2">  1       -4 0.35562482E+00 0.10232068E+04</pdfrwt>
<totfact> 0.20868541E-02</totfact>
</mgrwt>
</event>
<event>
 8    1  0.3025584E-006  0.1066628E+04  0.7818608E-02  0.8715584E-01
          4   -1    0    0  502    0  0.00000000000E+00  0.00000000000E+00  0.16332713066E+04  0.16332713066E+04  0.00000000000E+00 0.  1.
         -4   -1    0    0    0  501 -0.00000000000E+00 -0.00000000000E+00 -0.16390316436E+04  0.16390316436E+04  0.00000000000E+00 0. -1.
   -9000010    2    1    2    0  501 -0.92171631201E+02  0.32654419493E+03 -0.12447392815E+04  0.16374437706E+04  0.10083250974E+04 0.  0.
    9000010    2    1    2  502    0  0.92171631201E+02 -0.32654419493E+03  0.12389789445E+04  0.16348591796E+04  0.10112215344E+04 0.  0.
        -13    1    4    4    0    0 -0.61582911309E+02 -0.59917065708E+03  0.35975477216E+03  0.70158494748E+03  0.10566000000E+00 0.  1.
          4    1    4    4  502    0  0.15375454251E+03  0.27262646215E+03  0.87922417234E+03  0.93327423217E+03  0.00000000000E+00 0.  1.
         13    1    3    3    0    0  0.42369063792E+03  0.10410806381E+03 -0.27199209385E+03  0.51413223580E+03  0.10566000000E+00 0. -1.
         -4    1    3    3    0  501 -0.51586226912E+03  0.22243613111E+03 -0.97274718761E+03  0.11233115348E+04  0.00000000000E+00 0. -1.
<mgrwt>
<rscale>  0 0.10652545E+04</rscale>
<asrwt>0</asrwt>
<pdfrwt beam="1">  1        4 0.25127251E+00 0.10666282E+04</pdfrwt>
<pdfrwt beam="2">  1       -4 0.25215871E+00 0.10638826E+04</pdfrwt>
<totfact> 0.10021343E-01</totfact>
</mgrwt>
</event>
<event>
 8    1  0.3025584E-006  0.1062917E+04  0.7818608E-02  0.8747121E-01
          4   -1    0    0  502    0  0.00000000000E+00  0.00000000000E+00  0.74520429786E+03  0.74520429786E+03  0.00000000000E+00 0.  1.
         -4   -1    0    0    0  501 -0.00000000000E+00 -0.00000000000E+00 -0.25239082532E+04  0.25239082532E+04  0.00000000000E+00 0. -1.
   -9000010    2    1    2    0  501  0.17519443422E+03  0.26974887601E+03 -0.19837985334E+04  0.22506108658E+04  0.10130819819E+04 0.  0.
    9000010    2    1    2  502    0 -0.17519443422E+03 -0.26974887601E+03  0.20509457809E+03  0.10185016853E+04  0.94436452234E+03 0.  0.
        -13    1    4    4    0    0 -0.15380598080E+03  0.12878314874E+03 -0.30855010715E+03  0.36802793225E+03  0.10566000000E+00 0.  1.
          4    1    4    4  502    0 -0.21388453422E+02 -0.39853202476E+03  0.51364468524E+03  0.65047375303E+03  0.00000000000E+00 0.  1.
         13    1    3    3    0    0  0.15848143443E+03 -0.17922105662E+03 -0.24536951342E+02  0.24049662230E+03  0.10566000000E+00 0. -1.
         -4    1    3    3    0  501  0.16712999788E+02  0.44896993263E+03 -0.19592615821E+04  0.20101142435E+04  0.00000000000E+00 0. -1.
<mgrwt>
<rscale>  0 0.10297605E+04</rscale>
<asrwt>0</asrwt>
<pdfrwt beam="1">  1        4 0.11464682E+00 0.99763816E+03</pdfrwt>
<pdfrwt beam="2">  1       -4 0.38829358E+00 0.10629170E+04</pdfrwt>
<totfact> 0.12139593E-01</totfact>
</mgrwt>
</event>
<event>
 8    1  0.3025584E-006  0.1489316E+04  0.7818608E-02  0.8460214E-01
          4   -1    0    0  502    0  0.00000000000E+00  0.00000000000E+00  0.21104810268E+04  0.21104810268E+04  0.00000000000E+00 0.  1.
         -4   -1    0    0    0  501 -0.00000000000E+00 -0.00000000000E+00 -0.17121100355E+04  0.17121100355E+04  0.00000000000E+00 0. -1.
   -9000010    2    1    2    0  501  0.77970802684E+03  0.41730172103E+03 -0.10798223100E+04  0.17242303206E+04  0.10123579623E+04 0.  0.
    9000010    2    1    2  502    0 -0.77970802684E+03 -0.41730172103E+03  0.14781933013E+04  0.20983607416E+04  0.11983225912E+04 0.  0.
        -13    1    4    4    0    0 -0.59204059482E+03  0.14248612695E+02  0.49635017274E+02  0.59428842744E+03  0.10566000000E+00 0.  1.
          4    1    4    4  502    0 -0.18766743201E+03 -0.43155033373E+03  0.14285582840E+04  0.15040723142E+04  0.00000000000E+00 0.  1.
         13    1    3    3    0    0  0.83048039667E+03  0.43606933517E+03 -0.36367246292E+03  0.10060376861E+04  0.10566000000E+00 0. -1.
         -4    1    3    3    0  501 -0.50772369831E+02 -0.18767614140E+02 -0.71614984703E+03  0.71819263452E+03  0.00000000000E+00 0. -1.
<mgrwt>
<rscale>  0 0.14149145E+04</rscale>
<asrwt>0</asrwt>
<pdfrwt beam="1">  1        4 0.32468939E+00 0.14893161E+04</pdfrwt>
<pdfrwt beam="2">  1       -4 0.26340154E+00 0.13442299E+04</pdfrwt>
<totfact> 0.58864799E-02</totfact>
</mgrwt>
</event>
<event>
 8    1  0.3025584E-006  0.1350688E+04  0.7818608E-02  0.8528412E-01
          4   -1    0    0  502    0  0.00000000000E+00  0.00000000000E+00  0.31835459341E+04  0.31835459341E+04  0.00000000000E+00 0.  1.
         -4   -1    0    0    0  501 -0.00000000000E+00 -0.00000000000E+00 -0.10772115312E+04  0.10772115312E+04  0.00000000000E+00 0. -1.
   -9000010    2    1    2    0  501  0.81622511426E+03  0.27772089436E+03 -0.46850586861E+03  0.13531536445E+04  0.93175893033E+03 0.  0.
    9000010    2    1    2  502    0 -0.81622511426E+03 -0.27772089436E+03  0.25748402715E+04  0.29076038208E+04  0.10397140099E+04 0.  0.
        -13    1    4    4    0    0 -0.91246422853E+03  0.10246817584E+03  0.14491589908E+04  0.17155618576E+04  0.10566000000E+00 0.  1.
          4    1    4    4  502    0  0.96239114267E+02 -0.38018907019E+03  0.11256812808E+04  0.11920419632E+04  0.00000000000E+00 0.  1.
         13    1    3    3    0    0  0.10240298247E+04  0.22394747193E+03 -0.43915683253E+03  0.11365070553E+04  0.10566000000E+00 0. -1.
         -4    1    3    3    0  501 -0.20780471047E+03  0.53773422424E+02 -0.29349036086E+02  0.21664658911E+03  0.00000000000E+00 0. -1.
<mgrwt>
<rscale>  0 0.13094439E+04</rscale>
<asrwt>0</asrwt>
<pdfrwt beam="1">  1        4 0.48977629E+00 0.13506878E+04</pdfrwt>
<pdfrwt beam="2">  1       -4 0.16572485E+00 0.12694593E+04</pdfrwt>
<totfact> 0.23777965E-02</totfact>
</mgrwt>
</event>
<event>
 8    1  0.3025584E-006  0.1401507E+04  0.7818608E-02  0.8473155E-01
         -4   -1    0    0    0  501 -0.00000000000E+00  0.00000000000E+00  0.49737763705E+03  0.49737763705E+03  0.00000000000E+00 0. -1.
          4   -1    0    0  502    0  0.00000000000E+00 -0.00000000000E+00 -0.39121756970E+04  0.39121756970E+04  0.00000000000E+00 0.  1.
   -9000010    2    1    2    0  501  0.54500262695E+03 -0.83589986065E+03 -0.17897538873E+04  0.22732007971E+04  0.98410692832E+03 0.  0.
    9000010    2    1    2  502    0 -0.54500262695E+03  0.83589986065E+03 -0.16250441726E+04  0.21363525369E+04  0.96305615550E+03 0.  0.
        -13    1    4    4    0    0  0.15885670699E+03  0.62102404840E+03 -0.63046296893E+03  0.89910504859E+03  0.10566000000E+00 0.  1.
          4    1    4    4  502    0 -0.70385933394E+03  0.21487581225E+03 -0.99458120368E+03  0.12372474883E+04  0.00000000000E+00 0.  1.
         13    1    3    3    0    0  0.67376857647E+03 -0.23004855024E+03 -0.59668219909E+03  0.92893276828E+03  0.10566000000E+00 0. -1.
         -4    1    3    3    0  501 -0.12876594952E+03 -0.60585131041E+03 -0.11930716882E+04  0.13442680288E+04  0.00000000000E+00 0. -1.
<mgrwt>
<rscale>  0 0.13941378E+04</rscale>
<asrwt>0</asrwt>
<pdfrwt beam="2">  1        4 0.60187318E+00 0.13868070E+04</pdfrwt>
<pdfrwt beam="1">  1       -4 0.76519637E-01 0.14015074E+04</pdfrwt>
<totfact> 0.25170322E-02</totfact>
</mgrwt>
</event>
<event>
 8    1  0.3025584E-006  0.1059313E+04  0.7818608E-02  0.8730545E-01
          4   -1    0    0  502    0  0.00000000000E+00  0.00000000000E+00  0.17083984118E+04  0.17083984118E+04  0.00000000000E+00 0.  1.
         -4   -1    0    0    0  501 -0.00000000000E+00 -0.00000000000E+00 -0.68989730777E+03  0.68989730777E+03  0.00000000000E+00 0. -1.
   -9000010    2    1    2    0  501  0.20106668985E+03 -0.24589034661E+03  0.20242640021E+03  0.10784802069E+04  0.10105707461E+04 0.  0.
    9000010    2    1    2  502    0 -0.20106668985E+03  0.24589034661E+03  0.81607470381E+03  0.13198155127E+04  0.98744376498E+03 0.  0.
        -13    1    4    4    0    0 -0.34731684220E+03 -0.74112838190E+02 -0.73964750873E+02  0.36275680172E+03  0.10566000000E+00 0.  1.
          4    1    4    4  502    0  0.14625015234E+03  0.32000318480E+03  0.89003945468E+03  0.95705871096E+03  0.00000000000E+00 0.  1.
         13    1    3    3    0    0  0.11193871181E+03 -0.13413726722E+03  0.61631709477E+03  0.64060116619E+03  0.10566000000E+00 0. -1.
         -4    1    3    3    0  501  0.89127978046E+02 -0.11175307939E+03 -0.41389069456E+03  0.43787904068E+03  0.00000000000E+00 0. -1.
<mgrwt>
<rscale>  0 0.10482348E+04</rscale>
<asrwt>0</asrwt>
<pdfrwt beam="1">  1        4 0.26283052E+00 0.10372729E+04</pdfrwt>
<pdfrwt beam="2">  1       -4 0.10613805E+00 0.10593126E+04</pdfrwt>
<totfact> 0.33366351E-01</totfact>
</mgrwt>
</event>
<event>
 8    1  0.3025584E-006  0.1041700E+04  0.7818608E-02  0.8737344E-01
         -4   -1    0    0    0  501 -0.00000000000E+00  0.00000000000E+00  0.24253244858E+04  0.24253244858E+04  0.00000000000E+00 0. -1.
          4   -1    0    0  502    0  0.00000000000E+00 -0.00000000000E+00 -0.22457634308E+04  0.22457634308E+04  0.00000000000E+00 0.  1.
   -9000010    2    1    2    0  501  0.29646695050E+03  0.12474893924E+03  0.21803240593E+04  0.24163923015E+04  0.99079957637E+03 0.  0.
    9000010    2    1    2  502    0 -0.29646695050E+03 -0.12474893924E+03 -0.20007630043E+04  0.22546956151E+04  0.98850633121E+03 0.  0.
        -13    1    4    4    0    0 -0.53747710845E+03 -0.38887184677E+03 -0.10867666227E+04  0.12732496451E+04  0.10566000000E+00 0.  1.
          4    1    4    4  502    0  0.24101015795E+03  0.26412290753E+03 -0.91399638155E+03  0.98144596999E+03  0.00000000000E+00 0.  1.
         13    1    3    3    0    0  0.14948230199E+03 -0.24035711625E+03  0.19284590776E+04  0.19491205522E+04  0.10566000000E+00 0. -1.
         -4    1    3    3    0  501  0.14698464851E+03  0.36510605549E+03  0.25186498170E+03  0.46727174926E+03  0.00000000000E+00 0. -1.
<mgrwt>
<rscale>  0 0.10406089E+04</rscale>
<asrwt>0</asrwt>
<pdfrwt beam="2">  1        4 0.34550207E+00 0.10395190E+04</pdfrwt>
<pdfrwt beam="1">  1       -4 0.37312685E+00 0.10416999E+04</pdfrwt>
<totfact> 0.25481322E-02</totfact>
</mgrwt>
</event>
<event>
 8    1  0.3025584E-006  0.1088072E+04  0.7818608E-02  0.8697469E-01
          4   -1    0    0  502    0  0.00000000000E+00  0.00000000000E+00  0.17313339595E+04  0.17313339595E+04  0.00000000000E+00 0. -1.
         -4   -1    0    0    0  501 -0.00000000000E+00 -0.00000000000E+00 -0.74586201641E+03  0.74586201641E+03  0.00000000000E+00 0.  1.
   -9000010    2    1    2    0  501 -0.37119517053E+03  0.16427059691E+03  0.12991465057E+03  0.10958008311E+04  0.10095201640E+04 0.  0.
    9000010    2    1    2  502    0  0.37119517053E+03 -0.16427059691E+03  0.85555729255E+03  0.13813951448E+04  0.10057353437E+04 0.  0.
        -13    1    4    4    0    0  0.39213880371E+03 -0.27129822951E+03  0.10529445499E+04  0.11558839937E+04  0.10566000000E+00 0.  1.
          4    1    4    4  502    0 -0.20943633173E+02  0.10702763260E+03 -0.19738725731E+03  0.22551115107E+03  0.00000000000E+00 0.  1.
         13    1    3    3    0    0 -0.66492677639E+03  0.21204796205E+03  0.29244984742E+03  0.75671585195E+03  0.10566000000E+00 0. -1.
         -4    1    3    3    0  501  0.29373160586E+03 -0.47777365133E+02 -0.16253519685E+03  0.33908497919E+03  0.00000000000E+00 0. -1.
<mgrwt>
<rscale>  0 0.10863157E+04</rscale>
<asrwt>0</asrwt>
<pdfrwt beam="1">  1        4 0.26635907E+00 0.10845618E+04</pdfrwt>
<pdfrwt beam="2">  1       -4 0.11474800E+00 0.10880724E+04</pdfrwt>
<totfact> 0.28445572E-01</totfact>
</mgrwt>
</event>
<event>
 8    1  0.3025584E-006  0.1192022E+04  0.7818608E-02  0.8614601E-01
         -4   -1    0    0    0  501 -0.00000000000E+00  0.00000000000E+00  0.12079787736E+04  0.12079787736E+04  0.00000000000E+00 0. -1.
          4   -1    0    0  502    0  0.00000000000E+00 -0.00000000000E+00 -0.18333195515E+04  0.18333195515E+04  0.00000000000E+00 0.  1.
   -9000010    2    1    2    0  501 -0.50004689888E+03 -0.45245266347E+03  0.60082694466E+03  0.13348817287E+04  0.98293229589E+03 0.  0.
    9000010    2    1    2  502    0  0.50004689888E+03  0.45245266347E+03 -0.12261677226E+04  0.17064165965E+04  0.97652957108E+03 0.  0.
        -13    1    4    4    0    0  0.23374417143E+03  0.74249743990E+03 -0.93546331401E+03  0.12169759278E+04  0.10566000000E+00 0.  1.
          4    1    4    4  502    0  0.26630272744E+03 -0.29004477643E+03 -0.29070440855E+03  0.48944066865E+03  0.00000000000E+00 0.  1.
         13    1    3    3    0    0 -0.43548112567E+03  0.18851647184E+03  0.32224111981E+02  0.47562661356E+03  0.10566000000E+00 0. -1.
         -4    1    3    3    0  501 -0.64565773209E+02 -0.64096913531E+03  0.56860283268E+03  0.85925511510E+03  0.00000000000E+00 0. -1.
<mgrwt>
<rscale>  0 0.11893819E+04</rscale>
<asrwt>0</asrwt>
<pdfrwt beam="2">  1        4 0.28204916E+00 0.11867478E+04</pdfrwt>
<pdfrwt beam="1">  1       -4 0.18584289E+00 0.11920219E+04</pdfrwt>
<totfact> 0.12491067E-01</totfact>
</mgrwt>
</event>
<event>
 8    1  0.3025584E-006  0.1063296E+04  0.7818608E-02  0.8724607E-01
          4   -1    0    0  502    0  0.00000000000E+00  0.00000000000E+00  0.16462480711E+04  0.16462480711E+04  0.00000000000E+00 0.  1.
         -4   -1    0    0    0  501 -0.00000000000E+00 -0.00000000000E+00 -0.16774358442E+04  0.16774358442E+04  0.00000000000E+00 0. -1.
   -9000010    2    1    2    0  501  0.23942091645E+03  0.21712765016E+03 -0.12995189829E+04  0.16686123543E+04  0.99551534897E+03 0.  0.
    9000010    2    1    2  502    0 -0.23942091645E+03 -0.21712765016E+03  0.12683312099E+04  0.16550715610E+04  0.10129812547E+04 0.  0.
        -13    1    4    4    0    0 -0.17468507816E+03  0.37783909069E+03  0.28690290141E+03  0.50555963149E+03  0.10566000000E+00 0.  1.
          4    1    4    4  502    0 -0.64735838286E+02 -0.59496674085E+03  0.98142830845E+03  0.11495119295E+04  0.00000000000E+00 0.  1.
         13    1    3    3    0    0 -0.24250204807E+03 -0.25617271384E+03 -0.30459293716E+03  0.46605640342E+03  0.10566000000E+00 0. -1.
         -4    1    3    3    0  501  0.48192296452E+03  0.47330036400E+03 -0.99492604579E+03  0.12025559508E+04  0.00000000000E+00 0. -1.
<mgrwt>
<rscale>  0 0.10549500E+04</rscale>
<asrwt>0</asrwt>
<pdfrwt beam="1">  1        4 0.25326893E+00 0.10632957E+04</pdfrwt>
<pdfrwt beam="2">  1       -4 0.25806705E+00 0.10466698E+04</pdfrwt>
<totfact> 0.95991272E-02</totfact>
</mgrwt>
</event>
<event>
 8    1  0.3025584E-006  0.1019826E+04  0.7818608E-02  0.8805789E-01
         -4   -1    0    0    0  501 -0.00000000000E+00  0.00000000000E+00  0.27512469422E+04  0.27512469422E+04  0.00000000000E+00 0. -1.
          4   -1    0    0  502    0  0.00000000000E+00 -0.00000000000E+00 -0.53786337411E+03  0.53786337411E+03  0.00000000000E+00 0.  1.
   -9000010    2    1    2    0  501 -0.12967124936E+03 -0.14232106151E+03  0.21373662204E+04  0.23682018715E+04  0.10014868079E+04 0.  0.
    9000010    2    1    2  502    0  0.12967124936E+03  0.14232106151E+03  0.76017347628E+02  0.92090844479E+03  0.89734263751E+03 0.  0.
        -13    1    4    4    0    0 -0.27389185692E+03  0.41817303632E+02 -0.26476521464E+03  0.38323108722E+03  0.10566000000E+00 0.  1.
          4    1    4    4  502    0  0.40356310628E+03  0.10050375788E+03  0.34078256227E+03  0.53767735757E+03  0.00000000000E+00 0.  1.
         13    1    3    3    0    0  0.26312567269E+03  0.31005226825E+03  0.67734170968E+03  0.79003755069E+03  0.10566000000E+00 0. -1.
         -4    1    3    3    0  501 -0.39279692205E+03 -0.45237332976E+03  0.14600245108E+04  0.15781643208E+04  0.00000000000E+00 0. -1.
<mgrwt>
<rscale>  0 0.96745105E+03</rscale>
<asrwt>0</asrwt>
<pdfrwt beam="2">  1        4 0.82748213E-01 0.91776562E+03</pdfrwt>
<pdfrwt beam="1">  1       -4 0.42326875E+00 0.10198263E+04</pdfrwt>
<totfact> 0.16473016E-01</totfact>
</mgrwt>
</event>
<event>
 8    1  0.3025584E-006  0.1075280E+04  0.7818608E-02  0.8712658E-01
          4   -1    0    0  502    0  0.00000000000E+00  0.00000000000E+00  0.18192983373E+04  0.18192983373E+04  0.00000000000E+00 0.  1.
         -4   -1    0    0    0  501 -0.00000000000E+00 -0.00000000000E+00 -0.79877879519E+03  0.79877879519E+03  0.00000000000E+00 0. -1.
   -9000010    2    1    2    0  501  0.36535242487E+03  0.81946221832E+02 -0.93029540045E+02  0.10792966734E+04  0.10079827560E+04 0.  0.
    9000010    2    1    2  502    0 -0.36535242487E+03 -0.81946221832E+02  0.11135490822E+04  0.15387804591E+04  0.99380891788E+03 0.  0.
        -13    1    4    4    0    0  0.13050806479E+02 -0.11648524738E+03  0.11510092489E+04  0.11569621596E+04  0.10566000000E+00 0.  1.
          4    1    4    4  502    0 -0.37840323135E+03  0.34539025546E+02 -0.37460166718E+02  0.38181829955E+03  0.00000000000E+00 0.  1.
         13    1    3    3    0    0  0.44664361981E+02  0.31189387857E+03 -0.44855246020E+03  0.54815327915E+03  0.10566000000E+00 0. -1.
         -4    1    3    3    0  501  0.32068806289E+03 -0.22994765674E+03  0.35552292016E+03  0.53114339427E+03  0.00000000000E+00 0. -1.
<mgrwt>
<rscale>  0 0.10686216E+04</rscale>
<asrwt>0</asrwt>
<pdfrwt beam="1">  1        4 0.27989205E+00 0.10620046E+04</pdfrwt>
<pdfrwt beam="2">  1       -4 0.12288905E+00 0.10752799E+04</pdfrwt>
<totfact> 0.23500575E-01</totfact>
</mgrwt>
</event>
<event>
 8    1  0.3025584E-006  0.1317016E+04  0.7818608E-02  0.8580125E-01
          4   -1    0    0  502    0  0.00000000000E+00  0.00000000000E+00  0.11209551054E+04  0.11209551054E+04  0.00000000000E+00 0.  1.
         -4   -1    0    0    0  501 -0.00000000000E+00 -0.00000000000E+00 -0.24120610192E+04  0.24120610192E+04  0.00000000000E+00 0. -1.
   -9000010    2    1    2    0  501 -0.60087408579E+03  0.60166322805E+03 -0.18298202680E+04  0.22545006356E+04  0.10057249105E+04 0.  0.
    9000010    2    1    2  502    0  0.60087408579E+03 -0.60166322805E+03  0.53871435422E+03  0.12785154890E+04  0.78825147841E+03 0.  0.
        -13    1    4    4    0    0  0.39644028465E+03 -0.38289280300E+03 -0.11181747375E+03  0.56238328254E+03  0.10566000000E+00 0.  1.
          4    1    4    4  502    0  0.20443380114E+03 -0.21877042505E+03  0.65053182797E+03  0.71613220646E+03  0.00000000000E+00 0.  1.
         13    1    3    3    0    0 -0.11362313107E+03 -0.17192167681E+03  0.32352764188E+01  0.20610132714E+03  0.10566000000E+00 0. -1.
         -4    1    3    3    0  501 -0.48725095473E+03  0.77358490486E+03 -0.18330555444E+04  0.20483993084E+04  0.00000000000E+00 0. -1.
<mgrwt>
<rscale>  0 0.12357389E+04</rscale>
<asrwt>0</asrwt>
<pdfrwt beam="1">  1        4 0.17245463E+00 0.11594778E+04</pdfrwt>
<pdfrwt beam="2">  1       -4 0.37108631E+00 0.13170159E+04</pdfrwt>
<totfact> 0.73904071E-02</totfact>
</mgrwt>
</event>
<event>
 8    1  0.3025584E-006  0.1176457E+04  0.7818608E-02  0.8630989E-01
         -4   -1    0    0    0  501 -0.00000000000E+00  0.00000000000E+00  0.81855468867E+03  0.81855468867E+03  0.00000000000E+00 0. -1.
          4   -1    0    0  502    0  0.00000000000E+00 -0.00000000000E+00 -0.28601150417E+04  0.28601150417E+04  0.00000000000E+00 0.  1.
   -9000010    2    1    2    0  501 -0.58052904428E+03  0.11002640151E+03  0.17145307850E+03  0.11723819553E+04  0.99797971453E+03 0.  0.
    9000010    2    1    2  502    0  0.58052904428E+03 -0.11002640151E+03 -0.22130134315E+04  0.25062877751E+04  0.10173151838E+04 0.  0.
        -13    1    4    4    0    0  0.38775686484E+03 -0.50806228722E+03 -0.17632545212E+04  0.18755130476E+04  0.10566000000E+00 0.  1.
          4    1    4    4  502    0  0.19277217943E+03  0.39803588570E+03 -0.44975891028E+03  0.63077472749E+03  0.00000000000E+00 0.  1.
         13    1    3    3    0    0 -0.63181948914E+03  0.39943602135E+03 -0.12161220894E+03  0.75732063390E+03  0.10566000000E+00 0. -1.
         -4    1    3    3    0  501  0.51290444864E+02 -0.28940961983E+03  0.29306528743E+03  0.41506132136E+03  0.00000000000E+00 0. -1.
<mgrwt>
<rscale>  0 0.11680871E+04</rscale>
<asrwt>0</asrwt>
<pdfrwt beam="2">  1        4 0.44001769E+00 0.11764565E+04</pdfrwt>
<pdfrwt beam="1">  1       -4 0.12593149E+00 0.11597773E+04</pdfrwt>
<totfact> 0.62740229E-02</totfact>
</mgrwt>
</event>
<event>
 8    1  0.3025584E-006  0.1092089E+04  0.7818608E-02  0.8708286E-01
          4   -1    0    0  502    0  0.00000000000E+00  0.00000000000E+00  0.95487091006E+03  0.95487091006E+03  0.00000000000E+00 0.  1.
         -4   -1    0    0    0  501 -0.00000000000E+00 -0.00000000000E+00 -0.22230396924E+04  0.22230396924E+04  0.00000000000E+00 0. -1.
   -9000010    2    1    2    0  501  0.31753812555E+02 -0.35987540345E+03 -0.17020377978E+04  0.20027929505E+04  0.99183079555E+03 0.  0.
    9000010    2    1    2  502    0 -0.31753812555E+02  0.35987540345E+03  0.43386901542E+03  0.11751176519E+04  0.10306020390E+04 0.  0.
        -13    1    4    4    0    0 -0.17733734089E+01 -0.18805982919E+03  0.57793643980E+03  0.60776655372E+03  0.10566000000E+00 0.  1.
          4    1    4    4  502    0 -0.29980439146E+02  0.54793523263E+03 -0.14406742438E+03  0.56735109823E+03  0.00000000000E+00 0.  1.
         13    1    3    3    0    0 -0.26407680233E+02 -0.69821976239E+03 -0.12844915998E+04  0.14622335255E+04  0.10566000000E+00 0. -1.
         -4    1    3    3    0  501  0.58161492788E+02  0.33834435894E+03 -0.41754619800E+03  0.54055942498E+03  0.00000000000E+00 0. -1.
<mgrwt>
<rscale>  0 0.10736790E+04</rscale>
<asrwt>0</asrwt>
<pdfrwt beam="1">  1        4 0.14690322E+00 0.10920894E+04</pdfrwt>
<pdfrwt beam="2">  1       -4 0.34200610E+00 0.10555790E+04</pdfrwt>
<totfact> 0.11977553E-01</totfact>
</mgrwt>
</event>
<event>
 8    1  0.3025584E-006  0.1097660E+04  0.7818608E-02  0.8694099E-01
         -4   -1    0    0    0  501 -0.00000000000E+00  0.00000000000E+00  0.62769406290E+03  0.62769406290E+03  0.00000000000E+00 0.  1.
          4   -1    0    0  502    0  0.00000000000E+00 -0.00000000000E+00 -0.22065719973E+04  0.22065719973E+04  0.00000000000E+00 0. -1.
   -9000010    2    1    2    0  501 -0.38772645486E+03 -0.26272713426E+03 -0.26055461987E+03  0.11281603720E+04  0.99272340767E+03 0.  0.
    9000010    2    1    2  502    0  0.38772645486E+03  0.26272713426E+03 -0.13183233146E+04  0.17061056882E+04  0.97645425229E+03 0.  0.
        -13    1    4    4    0    0  0.36611126966E+03  0.26079392526E+03 -0.66850400452E+02  0.45444462857E+03  0.10566000000E+00 0.  1.
          4    1    4    4  502    0  0.21615185196E+02  0.19332089932E+01 -0.12514729141E+04  0.12516610597E+04  0.00000000000E+00 0.  1.
         13    1    3    3    0    0 -0.37059457159E+03 -0.62939086181E+03 -0.18364295363E+03  0.75312544705E+03  0.10566000000E+00 0. -1.
         -4    1    3    3    0  501 -0.17131883273E+02  0.36666372755E+03 -0.76911666237E+02  0.37503492495E+03  0.00000000000E+00 0. -1.
<mgrwt>
<rscale>  0 0.10902893E+04</rscale>
<asrwt>0</asrwt>
<pdfrwt beam="2">  1        4 0.33947262E+00 0.10829683E+04</pdfrwt>
<pdfrwt beam="1">  1       -4 0.96568317E-01 0.10976598E+04</pdfrwt>
<totfact> 0.24848209E-01</totfact>
</mgrwt>
</event>
<event>
 8    1  0.3025584E-006  0.1035112E+04  0.7818608E-02  0.8750087E-01
          4   -1    0    0  502    0  0.00000000000E+00  0.00000000000E+00  0.22533275692E+04  0.22533275692E+04  0.00000000000E+00 0.  1.
         -4   -1    0    0    0  501 -0.00000000000E+00 -0.00000000000E+00 -0.29446074624E+04  0.29446074624E+04  0.00000000000E+00 0. -1.
   -9000010    2    1    2    0  501  0.21285687238E+03 -0.58821446139E+02 -0.27288394525E+04  0.29125235456E+04  0.99371053925E+03 0.  0.
    9000010    2    1    2  502    0 -0.21285687238E+03  0.58821446139E+02  0.20375595592E+04  0.22854114860E+04  0.10112807189E+04 0.  0.
        -13    1    4    4    0    0  0.13921772984E+03  0.20485190862E+03  0.18390593569E+04  0.18556630110E+04  0.10566000000E+00 0.  1.
          4    1    4    4  502    0 -0.35207460222E+03 -0.14603046249E+03  0.19850020224E+03  0.42974847503E+03  0.00000000000E+00 0.  1.
         13    1    3    3    0    0 -0.13813505759E+03 -0.30696282185E+03 -0.31600648886E+03  0.46170074756E+03  0.10566000000E+00 0. -1.
         -4    1    3    3    0  501  0.35099192996E+03  0.24814137571E+03 -0.24128329636E+04  0.24508227981E+04  0.00000000000E+00 0. -1.
<mgrwt>
<rscale>  0 0.10264967E+04</rscale>
<asrwt>0</asrwt>
<pdfrwt beam="1">  1        4 0.34666578E+00 0.10351119E+04</pdfrwt>
<pdfrwt beam="2">  1       -4 0.45301653E+00 0.10179532E+04</pdfrwt>
<totfact> 0.11818540E-02</totfact>
</mgrwt>
</event>
<event>
 8    1  0.3025584E-006  0.1069209E+04  0.7818608E-02  0.8726064E-01
         -4   -1    0    0    0  501 -0.00000000000E+00  0.00000000000E+00  0.88171719413E+03  0.88171719413E+03  0.00000000000E+00 0. -1.
          4   -1    0    0  502    0  0.00000000000E+00 -0.00000000000E+00 -0.14135831432E+04  0.14135831432E+04  0.00000000000E+00 0.  1.
   -9000010    2    1    2    0  501  0.13255727241E+03  0.31786090293E+03  0.11764819913E+03  0.10442699831E+04  0.97880116203E+03 0.  0.
    9000010    2    1    2  502    0 -0.13255727241E+03 -0.31786090293E+03 -0.64951414818E+03  0.12510303542E+04  0.10122259305E+04 0.  0.
        -13    1    4    4    0    0 -0.35291716499E+03 -0.49956941118E+03 -0.83883702303E+02  0.61737882099E+03  0.10566000000E+00 0.  1.
          4    1    4    4  502    0  0.22035989258E+03  0.18170850826E+03 -0.56563044588E+03  0.63365153321E+03  0.00000000000E+00 0.  1.
         13    1    3    3    0    0  0.20438017351E+03 -0.16733428413E+03 -0.30024862340E+03  0.39990156912E+03  0.10566000000E+00 0. -1.
         -4    1    3    3    0  501 -0.71822901100E+02  0.48519518706E+03  0.41789682254E+03  0.64436841399E+03  0.00000000000E+00 0. -1.
<mgrwt>
<rscale>  0 0.10532970E+04</rscale>
<asrwt>0</asrwt>
<pdfrwt beam="2">  1        4 0.21747433E+00 0.10692092E+04</pdfrwt>
<pdfrwt beam="1">  1       -4 0.13564880E+00 0.10376217E+04</pdfrwt>
<totfact> 0.28312724E-01</totfact>
</mgrwt>
</event>
<event>
 8    1  0.3025584E-006  0.1111573E+04  0.7818608E-02  0.8686648E-01
          4   -1    0    0  502    0  0.00000000000E+00  0.00000000000E+00  0.27661809136E+04  0.27661809136E+04  0.00000000000E+00 0.  1.
         -4   -1    0    0    0  501 -0.00000000000E+00 -0.00000000000E+00 -0.95173507656E+03  0.95173507656E+03  0.00000000000E+00 0. -1.
   -9000010    2    1    2    0  501 -0.63390981047E+02  0.40671052614E+03 -0.46480071703E+03  0.11820612959E+04  0.10058813708E+04 0.  0.
    9000010    2    1    2  502    0  0.63390981047E+02 -0.40671052614E+03  0.22792465541E+04  0.25358546942E+04  0.10325513582E+04 0.  0.
        -13    1    4    4    0    0  0.17388497949E+03  0.10435275518E+03  0.18451779439E+04  0.18562885388E+04  0.10566000000E+00 0.  1.
          4    1    4    4  502    0 -0.11049399844E+03 -0.51106328132E+03  0.43406861017E+03  0.67956615539E+03  0.00000000000E+00 0.  1.
         13    1    3    3    0    0 -0.40955260874E+03 -0.14579725488E+03 -0.17726051310E+03  0.46948000972E+03  0.10566000000E+00 0. -1.
         -4    1    3    3    0  501  0.34616162769E+03  0.55250778102E+03 -0.28754020393E+03  0.71258128621E+03  0.00000000000E+00 0. -1.
<mgrwt>
<rscale>  0 0.10991387E+04</rscale>
<asrwt>0</asrwt>
<pdfrwt beam="1">  1        4 0.42556629E+00 0.11115728E+04</pdfrwt>
<pdfrwt beam="2">  1       -4 0.14642078E+00 0.10868437E+04</pdfrwt>
<totfact> 0.57741536E-02</totfact>
</mgrwt>
</event>
<event>
 8    1  0.3025584E-006  0.1182987E+04  0.7818608E-02  0.8637011E-01
          4   -1    0    0  502    0  0.00000000000E+00  0.00000000000E+00  0.37499379479E+04  0.37499379479E+04  0.00000000000E+00 0.  1.
         -4   -1    0    0    0  501 -0.00000000000E+00 -0.00000000000E+00 -0.60341165731E+03  0.60341165731E+03  0.00000000000E+00 0. -1.
   -9000010    2    1    2    0  501 -0.29871590004E+03 -0.52946716675E+03  0.20674155755E+03  0.12009162817E+04  0.10148355406E+04 0.  0.
    9000010    2    1    2  502    0  0.29871590004E+03  0.52946716675E+03  0.29397847331E+04  0.31524333235E+04  0.96225511836E+03 0.  0.
        -13    1    4    4    0    0  0.23162890071E+03  0.38325993616E+03  0.37919482056E+03  0.58679540677E+03  0.10566000000E+00 0.  1.
          4    1    4    4  502    0  0.67086999329E+02  0.14620723059E+03  0.25605899125E+04  0.25656379167E+04  0.00000000000E+00 0.  1.
         13    1    3    3    0    0 -0.24723264840E+03  0.19950825619E+03  0.33195046119E+03  0.45947649186E+03  0.10566000000E+00 0. -1.
         -4    1    3    3    0  501 -0.51483251638E+02 -0.72897542294E+03 -0.12520890363E+03  0.74143978987E+03  0.00000000000E+00 0. -1.
<mgrwt>
<rscale>  0 0.11603779E+04</rscale>
<asrwt>0</asrwt>
<pdfrwt beam="1">  1        4 0.57691351E+00 0.11382010E+04</pdfrwt>
<pdfrwt beam="2">  1       -4 0.92832565E-01 0.11829868E+04</pdfrwt>
<totfact> 0.23494603E-02</totfact>
</mgrwt>
</event>
<event>
 8    1  0.3025584E-006  0.1316463E+04  0.7818608E-02  0.8524032E-01
         -4   -1    0    0    0  501 -0.00000000000E+00  0.00000000000E+00  0.11496376759E+04  0.11496376759E+04  0.00000000000E+00 0. -1.
          4   -1    0    0  502    0  0.00000000000E+00 -0.00000000000E+00 -0.21449193910E+04  0.21449193910E+04  0.00000000000E+00 0.  1.
   -9000010    2    1    2    0  501  0.17932012212E+03  0.83258683859E+03  0.40107966669E+03  0.13762050447E+04  0.10038520190E+04 0.  0.
    9000010    2    1    2  502    0 -0.17932012212E+03 -0.83258683859E+03 -0.13963613818E+04  0.19183520222E+04  0.10024434261E+04 0.  0.
        -13    1    4    4    0    0 -0.10998989481E+03 -0.42954815480E+03  0.20272322416E+02  0.44386976972E+03  0.10566000000E+00 0.  1.
          4    1    4    4  502    0 -0.69330227312E+02 -0.40303868378E+03 -0.14166337042E+04  0.14744822525E+04  0.00000000000E+00 0.  1.
         13    1    3    3    0    0 -0.33649599507E+03  0.61061014897E+03  0.19847998069E+02  0.69747276859E+03  0.10566000000E+00 0. -1.
         -4    1    3    3    0  501  0.51581611720E+03  0.22197668961E+03  0.38123166863E+03  0.67873227612E+03  0.00000000000E+00 0. -1.
<mgrwt>
<rscale>  0 0.13159262E+04</rscale>
<asrwt>0</asrwt>
<pdfrwt beam="2">  1        4 0.32998760E+00 0.13153894E+04</pdfrwt>
<pdfrwt beam="1">  1       -4 0.17686733E+00 0.13164632E+04</pdfrwt>
<totfact> 0.97814246E-02</totfact>
</mgrwt>
</event>
<event>
 8    1  0.3025584E-006  0.1099430E+04  0.7818608E-02  0.8714805E-01
         -4   -1    0    0    0  501 -0.00000000000E+00  0.00000000000E+00  0.13756410278E+04  0.13756410278E+04  0.00000000000E+00 0. -1.
          4   -1    0    0  502    0  0.00000000000E+00 -0.00000000000E+00 -0.12309678662E+04  0.12309678662E+04  0.00000000000E+00 0.  1.
   -9000010    2    1    2    0  501  0.28401541338E+03  0.17014855241E+03  0.82014369169E+03  0.13716351909E+04  0.10483950290E+04 0.  0.
    9000010    2    1    2  502    0 -0.28401541338E+03 -0.17014855241E+03 -0.67547053009E+03  0.12349737030E+04  0.97943061276E+03 0.  0.
        -13    1    4    4    0    0 -0.17305117150E+03  0.22779753623E+03  0.14174795060E+03  0.31926621828E+03  0.10566000000E+00 0.  1.
          4    1    4    4  502    0 -0.11096424188E+03 -0.39794608864E+03 -0.81721848068E+03  0.91570748474E+03  0.00000000000E+00 0.  1.
         13    1    3    3    0    0  0.20923740402E+03  0.58410489515E+03  0.69737604872E+03  0.93343033178E+03  0.10566000000E+00 0. -1.
         -4    1    3    3    0  501  0.74778009358E+02 -0.41395634275E+03  0.12276764297E+03  0.43820485910E+03  0.00000000000E+00 0. -1.
<mgrwt>
<rscale>  0 0.10661495E+04</rscale>
<asrwt>0</asrwt>
<pdfrwt beam="2">  1        4 0.18937967E+00 0.10338760E+04</pdfrwt>
<pdfrwt beam="1">  1       -4 0.21163708E+00 0.10994305E+04</pdfrwt>
<totfact> 0.18179796E-01</totfact>
</mgrwt>
</event>
<event>
 8    1  0.3025584E-006  0.1137252E+04  0.7818608E-02  0.8665705E-01
          4   -1    0    0  502    0  0.00000000000E+00  0.00000000000E+00  0.22197779060E+04  0.22197779060E+04  0.00000000000E+00 0.  1.
         -4   -1    0    0    0  501 -0.00000000000E+00 -0.00000000000E+00 -0.92121150708E+03  0.92121150708E+03  0.00000000000E+00 0. -1.
   -9000010    2    1    2    0  501 -0.17334512862E+03 -0.50225332040E+03 -0.31625468720E+03  0.11804062779E+04  0.10055023731E+04 0.  0.
    9000010    2    1    2  502    0  0.17334512862E+03  0.50225332040E+03  0.16148210861E+04  0.19605831352E+04  0.97669450613E+03 0.  0.
        -13    1    4    4    0    0 -0.18191409998E+03  0.52939587868E+03  0.14753263704E+04  0.15779545768E+04  0.10566000000E+00 0.  1.
          4    1    4    4  502    0  0.35525922859E+03 -0.27142558280E+02  0.13949471574E+03  0.38262855838E+03  0.00000000000E+00 0.  1.
         13    1    3    3    0    0 -0.44461969558E+03 -0.58450751859E+03 -0.45590980328E+03  0.86440122217E+03  0.10566000000E+00 0. -1.
         -4    1    3    3    0  501  0.27127456697E+03  0.82254198198E+02  0.13965511608E+03  0.31600505574E+03  0.00000000000E+00 0. -1.
<mgrwt>
<rscale>  0 0.11244858E+04</rscale>
<asrwt>0</asrwt>
<pdfrwt beam="1">  1        4 0.34150429E+00 0.11118629E+04</pdfrwt>
<pdfrwt beam="2">  1       -4 0.14172485E+00 0.11372519E+04</pdfrwt>
<totfact> 0.12626334E-01</totfact>
</mgrwt>
</event>
<event>
 8    1  0.3025584E-006  0.1204981E+04  0.7818608E-02  0.8611788E-01
         -4   -1    0    0    0  501 -0.00000000000E+00  0.00000000000E+00  0.13184061928E+04  0.13184061928E+04  0.00000000000E+00 0. -1.
          4   -1    0    0  502    0  0.00000000000E+00 -0.00000000000E+00 -0.13916338799E+04  0.13916338799E+04  0.00000000000E+00 0.  1.
   -9000010    2    1    2    0  501  0.42670658000E+03  0.47085294072E+03  0.60452128031E+03  0.13481191807E+04  0.10238155839E+04 0.  0.
    9000010    2    1    2  502    0 -0.42670658000E+03 -0.47085294072E+03 -0.67774896735E+03  0.13619208920E+04  0.99584328893E+03 0.  0.
        -13    1    4    4    0    0 -0.63979988595E+03 -0.59018491318E+03 -0.69956758855E+03  0.11167170402E+04  0.10566000000E+00 0.  1.
          4    1    4    4  502    0  0.21309330595E+03  0.11933197246E+03  0.21818621208E+02  0.24520385177E+03  0.00000000000E+00 0.  1.
         13    1    3    3    0    0 -0.96826343339E+02 -0.96516528945E+02 -0.19406317363E+03  0.23738430371E+03  0.10566000000E+00 0. -1.
         -4    1    3    3    0  501  0.52353292334E+03  0.56736946966E+03  0.79858445394E+03  0.11107348770E+04  0.00000000000E+00 0. -1.
<mgrwt>
<rscale>  0 0.11930850E+04</rscale>
<asrwt>0</asrwt>
<pdfrwt beam="2">  1        4 0.21409752E+00 0.11813064E+04</pdfrwt>
<pdfrwt beam="1">  1       -4 0.20283172E+00 0.12049811E+04</pdfrwt>
<totfact> 0.16302148E-01</totfact>
</mgrwt>
</event>
<event>
 8    1  0.3025584E-006  0.1117247E+04  0.7818608E-02  0.8684780E-01
          4   -1    0    0  502    0  0.00000000000E+00  0.00000000000E+00  0.10319315649E+04  0.10319315649E+04  0.00000000000E+00 0.  1.
         -4   -1    0    0    0  501 -0.00000000000E+00 -0.00000000000E+00 -0.12699027854E+04  0.12699027854E+04  0.00000000000E+00 0. -1.
   -9000010    2    1    2    0  501 -0.44096209576E+03 -0.67482274085E+02 -0.43395810748E+03  0.11985658995E+04  0.10243237521E+04 0.  0.
    9000010    2    1    2  502    0  0.44096209576E+03  0.67482274085E+02  0.19598688699E+03  0.11032684508E+04  0.98984291046E+03 0.  0.
        -13    1    4    4    0    0  0.40757997777E+03  0.48078865781E+03  0.26348734754E+03  0.68315793579E+03  0.10566000000E+00 0.  1.
          4    1    4    4  502    0  0.33382117990E+02 -0.41330638372E+03 -0.67500460542E+02  0.42011051499E+03  0.00000000000E+00 0.  1.
         13    1    3    3    0    0 -0.21846055609E+03  0.12700707367E+03 -0.73469100720E+03  0.77693416617E+03  0.10566000000E+00 0. -1.
         -4    1    3    3    0  501 -0.22250153967E+03 -0.19448934775E+03  0.30073289972E+03  0.42163173329E+03  0.00000000000E+00 0. -1.
<mgrwt>
<rscale>  0 0.11013712E+04</rscale>
<asrwt>0</asrwt>
<pdfrwt beam="1">  1        4 0.15875870E+00 0.10857211E+04</pdfrwt>
<pdfrwt beam="2">  1       -4 0.19536966E+00 0.11172469E+04</pdfrwt>
<totfact> 0.25690638E-01</totfact>
</mgrwt>
</event>
<event>
 8    1  0.3025584E-006  0.1176554E+04  0.7818608E-02  0.8630192E-01
         -4   -1    0    0    0  501 -0.00000000000E+00  0.00000000000E+00  0.22442811729E+04  0.22442811729E+04  0.00000000000E+00 0. -1.
          4   -1    0    0  502    0  0.00000000000E+00 -0.00000000000E+00 -0.91400092224E+03  0.91400092224E+03  0.00000000000E+00 0.  1.
   -9000010    2    1    2    0  501 -0.39514296975E+03  0.47392627943E+03  0.15800851714E+04  0.19700124311E+04  0.10017663125E+04 0.  0.
    9000010    2    1    2  502    0  0.39514296975E+03 -0.47392627943E+03 -0.24980492077E+03  0.11882696641E+04  0.98429579457E+03 0.  0.
        -13    1    4    4    0    0  0.26351666442E+03 -0.75208389511E+03 -0.34174591637E+03  0.86709947540E+03  0.10566000000E+00 0.  1.
          4    1    4    4  502    0  0.13162630532E+03  0.27815761568E+03  0.91940995602E+02  0.32117018866E+03  0.00000000000E+00 0.  1.
         13    1    3    3    0    0 -0.14120626203E+03  0.18374416558E+02 -0.12343078739E+03  0.18844627367E+03  0.10566000000E+00 0. -1.
         -4    1    3    3    0  501 -0.25393670772E+03  0.45555186288E+03  0.17035159588E+04  0.17815661574E+04  0.00000000000E+00 0. -1.
<mgrwt>
<rscale>  0 0.11691112E+04</rscale>
<asrwt>0</asrwt>
<pdfrwt beam="2">  1        4 0.14061553E+00 0.11617152E+04</pdfrwt>
<pdfrwt beam="1">  1       -4 0.34527402E+00 0.11765542E+04</pdfrwt>
<totfact> 0.12374124E-01</totfact>
</mgrwt>
</event>
<event>
 8    1  0.3025584E-006  0.1401643E+04  0.7818608E-02  0.8475013E-01
         -4   -1    0    0    0  501 -0.00000000000E+00  0.00000000000E+00  0.14321451217E+04  0.14321451217E+04  0.00000000000E+00 0. -1.
          4   -1    0    0  502    0  0.00000000000E+00 -0.00000000000E+00 -0.15258923922E+04  0.15258923922E+04  0.00000000000E+00 0.  1.
   -9000010    2    1    2    0  501 -0.95794810502E+03  0.49237608067E+01  0.45347376401E+03  0.14533601710E+04  0.99444885071E+03 0.  0.
    9000010    2    1    2  502    0  0.95794810502E+03 -0.49237608067E+01 -0.54722103446E+03  0.15046773429E+04  0.10231882672E+04 0.  0.
        -13    1    4    4    0    0  0.57974522332E+03 -0.48968186916E+03 -0.15252428731E+03  0.77405201784E+03  0.10566000000E+00 0.  1.
          4    1    4    4  502    0  0.37820288171E+03  0.48475810835E+03 -0.39469674715E+03  0.73062532502E+03  0.00000000000E+00 0.  1.
         13    1    3    3    0    0 -0.10732540746E+04  0.84687996627E+02  0.61468311258E+03  0.12397103313E+04  0.10566000000E+00 0. -1.
         -4    1    3    3    0  501  0.11530596959E+03 -0.79764235820E+02 -0.16120934857E+03  0.21364983971E+03  0.00000000000E+00 0. -1.
<mgrwt>
<rscale>  0 0.13911840E+04</rscale>
<asrwt>0</asrwt>
<pdfrwt beam="2">  1        4 0.23475268E+00 0.14016430E+04</pdfrwt>
<pdfrwt beam="1">  1       -4 0.22033002E+00 0.13808031E+04</pdfrwt>
<totfact> 0.12868545E-01</totfact>
</mgrwt>
</event>
<event>
 8    1  0.3025584E-006  0.1090458E+04  0.7818608E-02  0.8705765E-01
         -4   -1    0    0    0  501 -0.00000000000E+00  0.00000000000E+00  0.16247638801E+04  0.16247638801E+04  0.00000000000E+00 0. -1.
          4   -1    0    0  502    0  0.00000000000E+00 -0.00000000000E+00 -0.16504439709E+04  0.16504439709E+04  0.00000000000E+00 0.  1.
   -9000010    2    1    2    0  501  0.29793780941E+03 -0.21784670692E+02  0.12210441887E+04  0.16188805147E+04  0.10200900451E+04 0.  0.
    9000010    2    1    2  502    0 -0.29793780941E+03  0.21784670692E+02 -0.12467242794E+04  0.16563273363E+04  0.10487408192E+04 0.  0.
        -13    1    4    4    0    0  0.70889511507E+02  0.23714026039E+03 -0.12016307519E+04  0.12268566750E+04  0.10566000000E+00 0.  1.
          4    1    4    4  502    0 -0.36882732092E+03 -0.21535558970E+03 -0.45093527543E+02  0.42947066128E+03  0.00000000000E+00 0.  1.
         13    1    3    3    0    0 -0.24299458953E+03 -0.76012250922E+02  0.10001916748E+04  0.10320889644E+04  0.10566000000E+00 0. -1.
         -4    1    3    3    0  501  0.54093239894E+03  0.54227580230E+02  0.22085251388E+03  0.58679155036E+03  0.00000000000E+00 0. -1.
<mgrwt>
<rscale>  0 0.10766073E+04</rscale>
<asrwt>0</asrwt>
<pdfrwt beam="2">  1        4 0.25391446E+00 0.10904581E+04</pdfrwt>
<pdfrwt beam="1">  1       -4 0.24996367E+00 0.10629324E+04</pdfrwt>
<totfact> 0.99871259E-02</totfact>
</mgrwt>
</event>
<event>
 8    1  0.3025584E-006  0.1090403E+04  0.7818608E-02  0.8695204E-01
         -4   -1    0    0    0  501 -0.00000000000E+00  0.00000000000E+00  0.17307897485E+04  0.17307897485E+04  0.00000000000E+00 0. -1.
          4   -1    0    0  502    0  0.00000000000E+00 -0.00000000000E+00 -0.18371106038E+04  0.18371106038E+04  0.00000000000E+00 0.  1.
   -9000010    2    1    2    0  501 -0.10061603172E+03  0.40007688820E+03  0.13594990663E+04  0.17409887511E+04  0.10062897286E+04 0.  0.
    9000010    2    1    2  502    0  0.10061603172E+03 -0.40007688820E+03 -0.14658199215E+04  0.18269116012E+04  0.10093526907E+04 0.  0.
        -13    1    4    4    0    0 -0.41523911971E+01  0.20930930805E+03 -0.10755201982E+04  0.10957058623E+04  0.10566000000E+00 0.  1.
          4    1    4    4  502    0  0.10476842292E+03 -0.60938619625E+03 -0.39029972329E+03  0.73120573891E+03  0.00000000000E+00 0.  1.
         13    1    3    3    0    0 -0.39308685071E+03  0.26239116905E+02  0.11708269270E+03  0.41099164413E+03  0.10566000000E+00 0. -1.
         -4    1    3    3    0  501  0.29247081898E+03  0.37383777129E+03  0.12424163736E+04  0.13299971069E+04  0.00000000000E+00 0. -1.
<mgrwt>
<rscale>  0 0.10889844E+04</rscale>
<asrwt>0</asrwt>
<pdfrwt beam="2">  1        4 0.28263240E+00 0.10904027E+04</pdfrwt>
<pdfrwt beam="1">  1       -4 0.26627535E+00 0.10875680E+04</pdfrwt>
<totfact> 0.78053376E-02</totfact>
</mgrwt>
</event>
<event>
 8    1  0.3025584E-006  0.1217628E+04  0.7818608E-02  0.8594583E-01
         -4   -1    0    0    0  501 -0.00000000000E+00  0.00000000000E+00  0.99774714700E+03  0.99774714700E+03  0.00000000000E+00 0. -1.
          4   -1    0    0  502    0  0.00000000000E+00 -0.00000000000E+00 -0.23535688800E+04  0.23535688800E+04  0.00000000000E+00 0.  1.
   -9000010    2    1    2    0  501 -0.58034657489E+03  0.39936450073E+03  0.34229642184E+03  0.12617651798E+04  0.98923727044E+03 0.  0.
    9000010    2    1    2  502    0  0.58034657489E+03 -0.39936450073E+03 -0.16981181548E+04  0.20895508471E+04  0.99313811911E+03 0.  0.
        -13    1    4    4    0    0  0.77563162405E+03 -0.34758782208E+03 -0.16848314338E+04  0.18870820549E+04  0.10566000000E+00 0.  1.
          4    1    4    4  502    0 -0.19528504916E+03 -0.51776678651E+02 -0.13286720971E+02  0.20246879224E+03  0.00000000000E+00 0.  1.
         13    1    3    3    0    0 -0.24012510784E+03  0.56735678519E+03  0.55290018586E+03  0.82779974378E+03  0.10566000000E+00 0. -1.
         -4    1    3    3    0  501 -0.34022146705E+03 -0.16799228446E+03 -0.21060376402E+03  0.43396543606E+03  0.00000000000E+00 0. -1.
<mgrwt>
<rscale>  0 0.12160370E+04</rscale>
<asrwt>0</asrwt>
<pdfrwt beam="2">  1        4 0.36208752E+00 0.12176278E+04</pdfrwt>
<pdfrwt beam="1">  1       -4 0.15349956E+00 0.12144482E+04</pdfrwt>
<totfact> 0.94614905E-02</totfact>
</mgrwt>
</event>
<event>
 8    1  0.3025584E-006  0.1251742E+04  0.7818608E-02  0.8570673E-01
          4   -1    0    0  502    0  0.00000000000E+00  0.00000000000E+00  0.22865756004E+04  0.22865756004E+04  0.00000000000E+00 0.  1.
         -4   -1    0    0    0  501 -0.00000000000E+00 -0.00000000000E+00 -0.25859930947E+04  0.25859930947E+04  0.00000000000E+00 0. -1.
   -9000010    2    1    2    0  501 -0.60263637622E+03 -0.43454162094E+03 -0.22402507708E+04  0.25662387166E+04  0.10074029045E+04 0.  0.
    9000010    2    1    2  502    0  0.60263637622E+03  0.43454162094E+03  0.19408332765E+04  0.23063299785E+04  0.10001635569E+04 0.  0.
        -13    1    4    4    0    0  0.46437757146E+03  0.55771129535E+03  0.56937861658E+03  0.92243180670E+03  0.10566000000E+00 0.  1.
          4    1    4    4  502    0  0.13825880476E+03 -0.12316967441E+03  0.13714546599E+04  0.13838981718E+04  0.00000000000E+00 0.  1.
         13    1    3    3    0    0  0.16813067178E+03 -0.44160035839E+03 -0.71072330748E+03  0.85346729890E+03  0.10566000000E+00 0. -1.
         -4    1    3    3    0  501 -0.77076704800E+03  0.70587374526E+01 -0.15295274633E+04  0.17127714177E+04  0.00000000000E+00 0. -1.
<mgrwt>
<rscale>  0 0.12488290E+04</rscale>
<asrwt>0</asrwt>
<pdfrwt beam="1">  1        4 0.35178086E+00 0.12459230E+04</pdfrwt>
<pdfrwt beam="2">  1       -4 0.39784509E+00 0.12517418E+04</pdfrwt>
<totfact> 0.18880184E-02</totfact>
</mgrwt>
</event>
<event>
 8    1  0.3025584E-006  0.1074675E+04  0.7818608E-02  0.8712767E-01
         -4   -1    0    0    0  501 -0.00000000000E+00  0.00000000000E+00  0.34638075583E+04  0.34638075583E+04  0.00000000000E+00 0. -1.
          4   -1    0    0  502    0  0.00000000000E+00 -0.00000000000E+00 -0.10376179234E+04  0.10376179234E+04  0.00000000000E+00 0.  1.
   -9000010    2    1    2    0  501  0.37763442585E+03  0.29231235559E+02  0.30744758843E+04  0.32568893376E+04  0.10057156502E+04 0.  0.
    9000010    2    1    2  502    0 -0.37763442585E+03 -0.29231235559E+02 -0.64828624937E+03  0.12445361441E+04  0.99253862803E+03 0.  0.
        -13    1    4    4    0    0 -0.38966691657E+03 -0.19575918535E+02 -0.90595995234E+03  0.98640101828E+03  0.10566000000E+00 0.  1.
          4    1    4    4  502    0  0.12032490723E+02 -0.96553170237E+01  0.25767370297E+03  0.25813512582E+03  0.00000000000E+00 0.  1.
         13    1    3    3    0    0  0.31922274035E+03 -0.34650760942E+03  0.65007775917E+03  0.80285228123E+03  0.10566000000E+00 0. -1.
         -4    1    3    3    0  501  0.58411685494E+02  0.37573884498E+03  0.24243981251E+04  0.24540370563E+04  0.00000000000E+00 0. -1.
<mgrwt>
<rscale>  0 0.10684965E+04</rscale>
<asrwt>0</asrwt>
<pdfrwt beam="2">  1        4 0.15963353E+00 0.10623536E+04</pdfrwt>
<pdfrwt beam="1">  1       -4 0.53289346E+00 0.10746749E+04</pdfrwt>
<totfact> 0.16237994E-02</totfact>
</mgrwt>
</event>
<event>
 8    1  0.3025584E-006  0.1096973E+04  0.7818608E-02  0.8693999E-01
         -4   -1    0    0    0  501 -0.00000000000E+00  0.00000000000E+00  0.32604079857E+04  0.32604079857E+04  0.00000000000E+00 0. -1.
          4   -1    0    0  502    0  0.00000000000E+00 -0.00000000000E+00 -0.58543077171E+03  0.58543077171E+03  0.00000000000E+00 0.  1.
   -9000010    2    1    2    0  501 -0.33376724515E+03 -0.31560200751E+03  0.25232509504E+04  0.27513898256E+04  0.99616535404E+03 0.  0.
    9000010    2    1    2  502    0  0.33376724515E+03  0.31560200751E+03  0.15172626358E+03  0.10944489318E+04  0.98172929273E+03 0.  0.
        -13    1    4    4    0    0  0.12932914083E+03  0.45353949249E+03 -0.31460385219E+03  0.56692124047E+03  0.10566000000E+00 0.  1.
          4    1    4    4  502    0  0.20443810432E+03 -0.13793748498E+03  0.46633011577E+03  0.52752769134E+03  0.00000000000E+00 0.  1.
         13    1    3    3    0    0 -0.24937722545E+03  0.17772150722E+03  0.20148019802E+04  0.20379403733E+04  0.10566000000E+00 0. -1.
         -4    1    3    3    0  501 -0.84390019701E+02 -0.49332351474E+03  0.50844897020E+03  0.71344945225E+03  0.00000000000E+00 0. -1.
<mgrwt>
<rscale>  0 0.10904074E+04</rscale>
<asrwt>0</asrwt>
<pdfrwt beam="2">  1        4 0.90066274E-01 0.10838808E+04</pdfrwt>
<pdfrwt beam="1">  1       -4 0.50160122E+00 0.10969734E+04</pdfrwt>
<totfact> 0.59864023E-02</totfact>
</mgrwt>
</event>
<event>
 8    1  0.3025584E-006  0.1023958E+04  0.7818608E-02  0.8788204E-01
          4   -1    0    0  502    0  0.00000000000E+00  0.00000000000E+00  0.21163991790E+04  0.21163991790E+04  0.00000000000E+00 0.  1.
         -4   -1    0    0    0  501 -0.00000000000E+00 -0.00000000000E+00 -0.89839256509E+03  0.89839256509E+03  0.00000000000E+00 0. -1.
   -9000010    2    1    2    0  501 -0.17926862554E+03  0.86776836021E+02 -0.43208615373E+03  0.11113904364E+04  0.10044017118E+04 0.  0.
    9000010    2    1    2  502    0  0.17926862554E+03 -0.86776836021E+02  0.16500927676E+04  0.19034013076E+04  0.92761141474E+03 0.  0.
        -13    1    4    4    0    0 -0.21689845968E+03  0.20776142077E+02  0.15936580598E+02  0.21847328362E+03  0.10566000000E+00 0.  1.
          4    1    4    4  502    0  0.39616708522E+03 -0.10755297810E+03  0.16341561870E+04  0.16849280240E+04  0.00000000000E+00 0.  1.
         13    1    3    3    0    0 -0.18723229492E+03  0.43140219444E+03  0.96744363916E+02  0.48012838777E+03  0.10566000000E+00 0. -1.
         -4    1    3    3    0  501  0.79636693847E+01 -0.34462535842E+03 -0.52883051765E+03  0.63126204867E+03  0.00000000000E+00 0. -1.
<mgrwt>
<rscale>  0 0.98563804E+03</rscale>
<asrwt>0</asrwt>
<pdfrwt beam="1">  1        4 0.32559987E+00 0.94875202E+03</pdfrwt>
<pdfrwt beam="2">  1       -4 0.13821424E+00 0.10239581E+04</pdfrwt>
<totfact> 0.14756593E-01</totfact>
</mgrwt>
</event>
<event>
 8    1  0.3025584E-006  0.1077713E+04  0.7818608E-02  0.8714146E-01
         -4   -1    0    0    0  501 -0.00000000000E+00  0.00000000000E+00  0.66717285183E+03  0.66717285183E+03  0.00000000000E+00 0. -1.
          4   -1    0    0  502    0  0.00000000000E+00 -0.00000000000E+00 -0.20377054366E+04  0.20377054366E+04  0.00000000000E+00 0.  1.
   -9000010    2    1    2    0  501 -0.27133843178E+02  0.34787363916E+03 -0.13410478102E+03  0.10646897836E+04  0.99690918785E+03 0.  0.
    9000010    2    1    2  502    0  0.27133843178E+02 -0.34787363916E+03 -0.12364278037E+04  0.16401885048E+04  0.10196628379E+04 0.  0.
        -13    1    4    4    0    0  0.27256715234E+03 -0.63773251691E+03 -0.72691523782E+03  0.10046896983E+04  0.10566000000E+00 0.  1.
          4    1    4    4  502    0 -0.24543330916E+03  0.28985887775E+03 -0.50951256592E+03  0.63549880652E+03  0.00000000000E+00 0.  1.
         13    1    3    3    0    0 -0.80746077836E+02  0.40891948507E+03  0.36802032575E+03  0.55603421269E+03  0.10566000000E+00 0. -1.
         -4    1    3    3    0  501  0.53612234658E+02 -0.61045845905E+02 -0.50212510677E+03  0.50865557095E+03  0.00000000000E+00 0. -1.
<mgrwt>
<rscale>  0 0.10669073E+04</rscale>
<asrwt>0</asrwt>
<pdfrwt beam="2">  1        4 0.31349314E+00 0.10777127E+04</pdfrwt>
<pdfrwt beam="1">  1       -4 0.10264198E+00 0.10562103E+04</pdfrwt>
<totfact> 0.26216322E-01</totfact>
</mgrwt>
</event>
<event>
 8    1  0.3025584E-006  0.1117695E+04  0.7818608E-02  0.8687198E-01
         -4   -1    0    0    0  501 -0.00000000000E+00  0.00000000000E+00  0.12230894071E+04  0.12230894071E+04  0.00000000000E+00 0. -1.
          4   -1    0    0  502    0  0.00000000000E+00 -0.00000000000E+00 -0.17636680581E+04  0.17636680581E+04  0.00000000000E+00 0.  1.
   -9000010    2    1    2    0  501 -0.34958031030E+03  0.26134929178E+03  0.72334707686E+03  0.12995258455E+04  0.98743434405E+03 0.  0.
    9000010    2    1    2  502    0  0.34958031030E+03 -0.26134929178E+03 -0.12639257278E+04  0.16872316197E+04  0.10289472520E+04 0.  0.
        -13    1    4    4    0    0  0.37072847540E+03  0.30291572715E+03 -0.88814449747E+03  0.10089589683E+04  0.10566000000E+00 0.  1.
          4    1    4    4  502    0 -0.21148165098E+02 -0.56426501894E+03 -0.37578123036E+03  0.67827265135E+03  0.00000000000E+00 0.  1.
         13    1    3    3    0    0 -0.62553120972E+02 -0.37123090345E+03  0.17823153289E+03  0.41652342923E+03  0.10566000000E+00 0. -1.
         -4    1    3    3    0  501 -0.28702718933E+03  0.63258019524E+03  0.54511554398E+03  0.88300241625E+03  0.00000000000E+00 0. -1.
<mgrwt>
<rscale>  0 0.10984825E+04</rscale>
<asrwt>0</asrwt>
<pdfrwt beam="2">  1        4 0.27133355E+00 0.11176951E+04</pdfrwt>
<pdfrwt beam="1">  1       -4 0.18816760E+00 0.10796001E+04</pdfrwt>
<totfact> 0.13140163E-01</totfact>
</mgrwt>
</event>
<event>
 8    1  0.3025584E-006  0.1109204E+04  0.7818608E-02  0.8681548E-01
          4   -1    0    0  502    0  0.00000000000E+00  0.00000000000E+00  0.20006919408E+04  0.20006919408E+04  0.00000000000E+00 0.  1.
         -4   -1    0    0    0  501 -0.00000000000E+00 -0.00000000000E+00 -0.91725516657E+03  0.91725516657E+03  0.00000000000E+00 0. -1.
   -9000010    2    1    2    0  501  0.36369257107E+03  0.30459297493E+03 -0.30317516944E+03  0.11422709788E+04  0.99389065743E+03 0.  0.
    9000010    2    1    2  502    0 -0.36369257107E+03 -0.30459297493E+03  0.13866119437E+04  0.17756761286E+04  0.10026384517E+04 0.  0.
        -13    1    4    4    0    0  0.34229248683E+03 -0.17183566472E+03  0.38472270870E+03  0.54286574396E+03  0.10566000000E+00 0.  1.
          4    1    4    4  502    0 -0.70598505790E+03 -0.13275731021E+03  0.10018892350E+04  0.12328103847E+04  0.00000000000E+00 0.  1.
         13    1    3    3    0    0 -0.22477246726E+03  0.31218285416E+03  0.13593220875E+03  0.40799310412E+03  0.10566000000E+00 0. -1.
         -4    1    3    3    0  501  0.58846503833E+03 -0.75898792369E+01 -0.43910737818E+03  0.73427787464E+03  0.00000000000E+00 0. -1.
<mgrwt>
<rscale>  0 0.11052462E+04</rscale>
<asrwt>0</asrwt>
<pdfrwt beam="1">  1        4 0.30779876E+00 0.11092038E+04</pdfrwt>
<pdfrwt beam="2">  1       -4 0.14111618E+00 0.11013028E+04</pdfrwt>
<totfact> 0.15841274E-01</totfact>
</mgrwt>
</event>
<event>
 8    1  0.3025584E-006  0.1155618E+04  0.7818608E-02  0.8650310E-01
         -4   -1    0    0    0  501 -0.00000000000E+00  0.00000000000E+00  0.11497531421E+04  0.11497531421E+04  0.00000000000E+00 0. -1.
          4   -1    0    0  502    0  0.00000000000E+00 -0.00000000000E+00 -0.12643360930E+04  0.12643360930E+04  0.00000000000E+00 0.  1.
   -9000010    2    1    2    0  501  0.43726202379E+03  0.32210584041E+03  0.32546514219E+03  0.11775229168E+04  0.99281539620E+03 0.  0.
    9000010    2    1    2  502    0 -0.43726202379E+03 -0.32210584041E+03 -0.44004809310E+03  0.12365663184E+04  0.10200508250E+04 0.  0.
        -13    1    4    4    0    0 -0.50423866704E+03  0.23205496555E+03 -0.38530084981E+03  0.67569438092E+03  0.10566000000E+00 0.  1.
          4    1    4    4  502    0  0.66976643248E+02 -0.55416080595E+03 -0.54747243281E+02  0.56087193747E+03  0.00000000000E+00 0.  1.
         13    1    3    3    0    0  0.71069391228E+03  0.42306457127E+03  0.16020468418E+03  0.84245772619E+03  0.10566000000E+00 0. -1.
         -4    1    3    3    0  501 -0.27343188849E+03 -0.10095873086E+03  0.16526045801E+03  0.33506519062E+03  0.00000000000E+00 0. -1.
<mgrwt>
<rscale>  0 0.11435716E+04</rscale>
<asrwt>0</asrwt>
<pdfrwt beam="2">  1        4 0.19451325E+00 0.11556184E+04</pdfrwt>
<pdfrwt beam="1">  1       -4 0.17688510E+00 0.11316504E+04</pdfrwt>
<totfact> 0.22204033E-01</totfact>
</mgrwt>
</event>
<event>
 8    1  0.3025584E-006  0.1128423E+04  0.7818608E-02  0.8663258E-01
          4   -1    0    0  502    0  0.00000000000E+00  0.00000000000E+00  0.16715935761E+04  0.16715935761E+04  0.00000000000E+00 0.  1.
         -4   -1    0    0    0  501 -0.00000000000E+00 -0.00000000000E+00 -0.12949666526E+04  0.12949666526E+04  0.00000000000E+00 0. -1.
   -9000010    2    1    2    0  501 -0.30987689857E+03  0.39775139342E+03 -0.76469514673E+03  0.13615824450E+04  0.10074314984E+04 0.  0.
    9000010    2    1    2  502    0  0.30987689857E+03 -0.39775139342E+03  0.11413220703E+04  0.16049777836E+04  0.10095086699E+04 0.  0.
        -13    1    4    4    0    0  0.48743551373E+03 -0.60742098911E+03  0.10658076760E+04  0.13200377462E+04  0.10566000000E+00 0.  1.
          4    1    4    4  502    0 -0.17755861517E+03  0.20966959569E+03  0.75514394264E+02  0.28494003741E+03  0.00000000000E+00 0.  1.
         13    1    3    3    0    0 -0.34451498674E+03  0.21063291369E+03  0.14738679296E+03  0.42986006830E+03  0.10566000000E+00 0. -1.
         -4    1    3    3    0  501  0.34638088171E+02  0.18711847973E+03 -0.91208193969E+03  0.93172237674E+03  0.00000000000E+00 0. -1.
<mgrwt>
<rscale>  0 0.11274933E+04</rscale>
<asrwt>0</asrwt>
<pdfrwt beam="1">  1        4 0.25716824E+00 0.11284226E+04</pdfrwt>
<pdfrwt beam="2">  1       -4 0.19922564E+00 0.11265647E+04</pdfrwt>
<totfact> 0.13123394E-01</totfact>
</mgrwt>
</event>
<event>
 8    1  0.3025584E-006  0.1163992E+04  0.7818608E-02  0.8648045E-01
         -4   -1    0    0    0  501 -0.00000000000E+00  0.00000000000E+00  0.27594522321E+04  0.27594522321E+04  0.00000000000E+00 0. -1.
          4   -1    0    0  502    0  0.00000000000E+00 -0.00000000000E+00 -0.68742749799E+03  0.68742749799E+03  0.00000000000E+00 0.  1.
   -9000010    2    1    2    0  501 -0.30991457599E+02 -0.54327603451E+03  0.19799279192E+04  0.22792503365E+04  0.98932209663E+03 0.  0.
    9000010    2    1    2  502    0  0.30991457599E+02  0.54327603451E+03  0.92096814926E+02  0.11676293937E+04  0.10289641673E+04 0.  0.
        -13    1    4    4    0    0 -0.68389978251E+01  0.81607596483E+03  0.24569009406E+03  0.85228538985E+03  0.10566000000E+00 0.  1.
          4    1    4    4  502    0  0.37830455424E+02 -0.27279993033E+03 -0.15359327913E+03  0.31534400381E+03  0.00000000000E+00 0.  1.
         13    1    3    3    0    0 -0.37756844102E+03  0.10548726002E+03  0.74586872031E+03  0.84261832925E+03  0.10566000000E+00 0. -1.
         -4    1    3    3    0  501  0.34657698342E+03 -0.64876329453E+03  0.12340591989E+04  0.14366320072E+04  0.00000000000E+00 0. -1.
<mgrwt>
<rscale>  0 0.11464133E+04</rscale>
<asrwt>0</asrwt>
<pdfrwt beam="2">  1        4 0.10575808E+00 0.11639917E+04</pdfrwt>
<pdfrwt beam="1">  1       -4 0.42453111E+00 0.11291003E+04</pdfrwt>
<totfact> 0.99768971E-02</totfact>
</mgrwt>
</event>
<event>
 8    1  0.3025584E-006  0.1061340E+04  0.7818608E-02  0.8726613E-01
          4   -1    0    0  502    0  0.00000000000E+00  0.00000000000E+00  0.37597397464E+03  0.37597397464E+03  0.00000000000E+00 0.  1.
         -4   -1    0    0    0  501 -0.00000000000E+00 -0.00000000000E+00 -0.37423599190E+04  0.37423599190E+04  0.00000000000E+00 0. -1.
   -9000010    2    1    2    0  501  0.95784538881E+02 -0.36513083875E+03 -0.26430032017E+04  0.28481412340E+04  0.99194120657E+03 0.  0.
    9000010    2    1    2  502    0 -0.95784538881E+02  0.36513083875E+03 -0.72338274272E+03  0.12701926597E+04  0.97345343649E+03 0.  0.
        -13    1    4    4    0    0  0.34007436079E+03  0.37759266020E+03 -0.11385643937E+03  0.52075914572E+03  0.10566000000E+00 0.  1.
          4    1    4    4  502    0 -0.43585889967E+03 -0.12461821445E+02 -0.60952630334E+03  0.74943351398E+03  0.00000000000E+00 0.  1.
         13    1    3    3    0    0  0.30719287126E+03  0.23668551300E+03 -0.66479761928E+03  0.76963847226E+03  0.10566000000E+00 0. -1.
         -4    1    3    3    0  501 -0.21140833238E+03 -0.60181635176E+03 -0.19782055824E+04  0.20785027617E+04  0.00000000000E+00 0. -1.
<mgrwt>
<rscale>  0 0.10526755E+04</rscale>
<asrwt>0</asrwt>
<pdfrwt beam="1">  1        4 0.57842149E-01 0.10440818E+04</pdfrwt>
<pdfrwt beam="2">  1       -4 0.57574769E+00 0.10613400E+04</pdfrwt>
<totfact> 0.64194869E-02</totfact>
</mgrwt>
</event>
<event>
 8    1  0.3025584E-006  0.1028625E+04  0.7818608E-02  0.8758307E-01
         -4   -1    0    0    0  501 -0.00000000000E+00  0.00000000000E+00  0.10402198348E+04  0.10402198348E+04  0.00000000000E+00 0. -1.
          4   -1    0    0  502    0  0.00000000000E+00 -0.00000000000E+00 -0.26475132955E+04  0.26475132955E+04  0.00000000000E+00 0.  1.
   -9000010    2    1    2    0  501  0.13618865721E+03 -0.87530686164E+02  0.65615925758E+03  0.12015136067E+04  0.99341884642E+03 0.  0.
    9000010    2    1    2  502    0 -0.13618865721E+03  0.87530686164E+02 -0.22634527183E+04  0.24862195235E+04  0.10158052667E+04 0.  0.
        -13    1    4    4    0    0 -0.35058210617E+03 -0.23657464468E+03 -0.19249428082E+04  0.19708577325E+04  0.10566000000E+00 0.  1.
          4    1    4    4  502    0  0.21439344896E+03  0.32410533084E+03 -0.33850991015E+03  0.51536179108E+03  0.00000000000E+00 0.  1.
         13    1    3    3    0    0 -0.34828138846E+03 -0.13118683876E+03 -0.15169683318E+02  0.37247824456E+03  0.10566000000E+00 0. -1.
         -4    1    3    3    0  501  0.48447004567E+03  0.43656152592E+02  0.67132894090E+03  0.82903536215E+03  0.00000000000E+00 0. -1.
<mgrwt>
<rscale>  0 0.10175143E+04</rscale>
<asrwt>0</asrwt>
<pdfrwt beam="2">  1        4 0.40730974E+00 0.10286250E+04</pdfrwt>
<pdfrwt beam="1">  1       -4 0.16003382E+00 0.10065237E+04</pdfrwt>
<totfact> 0.60937062E-02</totfact>
</mgrwt>
</event>
<event>
 8    1  0.3025584E-006  0.1407350E+04  0.7818608E-02  0.8467325E-01
          4   -1    0    0  502    0  0.00000000000E+00  0.00000000000E+00  0.15585105442E+04  0.15585105442E+04  0.00000000000E+00 0.  1.
         -4   -1    0    0    0  501 -0.00000000000E+00 -0.00000000000E+00 -0.16360840083E+04  0.16360840083E+04  0.00000000000E+00 0. -1.
   -9000010    2    1    2    0  501  0.49959498006E+02  0.99788506232E+03 -0.80060951706E+03  0.16123763919E+04  0.98005687649E+03 0.  0.
    9000010    2    1    2  502    0 -0.49959498006E+02 -0.99788506232E+03  0.72303605298E+03  0.15822181607E+04  0.99114208113E+03 0.  0.
        -13    1    4    4    0    0 -0.15810052748E+03 -0.37122757542E+03 -0.20861050596E+03  0.45422906545E+03  0.10566000000E+00 0.  1.
          4    1    4    4  502    0  0.10814102947E+03 -0.62665748690E+03  0.93164655894E+03  0.11279890952E+04  0.00000000000E+00 0.  1.
         13    1    3    3    0    0  0.39852410855E+03  0.10273664172E+03 -0.39233250181E+03  0.56859571383E+03  0.10566000000E+00 0. -1.
         -4    1    3    3    0  501 -0.34856461055E+03  0.89514842060E+03 -0.40827701525E+03  0.10437806780E+04  0.00000000000E+00 0. -1.
<mgrwt>
<rscale>  0 0.14034519E+04</rscale>
<asrwt>0</asrwt>
<pdfrwt beam="1">  1        4 0.23977085E+00 0.14073497E+04</pdfrwt>
<pdfrwt beam="2">  1       -4 0.25170523E+00 0.13995649E+04</pdfrwt>
<totfact> 0.10460807E-01</totfact>
</mgrwt>
</event>
<event>
 8    1  0.3025584E-006  0.1136316E+04  0.7818608E-02  0.8661213E-01
          4   -1    0    0  502    0  0.00000000000E+00  0.00000000000E+00  0.12630773507E+04  0.12630773507E+04  0.00000000000E+00 0.  1.
         -4   -1    0    0    0  501 -0.00000000000E+00 -0.00000000000E+00 -0.15707120197E+04  0.15707120197E+04  0.00000000000E+00 0. -1.
   -9000010    2    1    2    0  501  0.34861888543E+02  0.53343806436E+03 -0.99906619015E+03  0.15036423154E+04  0.98845103098E+03 0.  0.
    9000010    2    1    2  502    0 -0.34861888543E+02 -0.53343806436E+03  0.69143152121E+03  0.13301470550E+04  0.10027173677E+04 0.  0.
        -13    1    4    4    0    0 -0.42356605857E+03 -0.80613707769E+02  0.19708899205E+02  0.43161930880E+03  0.10566000000E+00 0.  1.
          4    1    4    4  502    0  0.38870417003E+03 -0.45282435659E+03  0.67172262201E+03  0.89852774617E+03  0.00000000000E+00 0.  1.
         13    1    3    3    0    0  0.30958209621E+03  0.64589890588E+03 -0.36581712619E+03  0.80426901711E+03  0.10566000000E+00 0. -1.
         -4    1    3    3    0  501 -0.27472020766E+03 -0.11246084152E+03 -0.63324906396E+03  0.69937329830E+03  0.00000000000E+00 0. -1.
<mgrwt>
<rscale>  0 0.11300139E+04</rscale>
<asrwt>0</asrwt>
<pdfrwt beam="1">  1        4 0.19431959E+00 0.11363158E+04</pdfrwt>
<pdfrwt beam="2">  1       -4 0.24164800E+00 0.11237468E+04</pdfrwt>
<totfact> 0.14772622E-01</totfact>
</mgrwt>
</event>
<event>
 8    1  0.3025584E-006  0.1240496E+04  0.7818608E-02  0.8579866E-01
          4   -1    0    0  502    0  0.00000000000E+00  0.00000000000E+00  0.13557857866E+04  0.13557857866E+04  0.00000000000E+00 0.  1.
         -4   -1    0    0    0  501 -0.00000000000E+00 -0.00000000000E+00 -0.12047634156E+04  0.12047634156E+04  0.00000000000E+00 0. -1.
   -9000010    2    1    2    0  501  0.65790920671E+03  0.30164319731E+03 -0.25003130504E+03  0.12568337798E+04  0.99663551699E+03 0.  0.
    9000010    2    1    2  502    0 -0.65790920671E+03 -0.30164319731E+03  0.40105367607E+03  0.13037154225E+04  0.10074704507E+04 0.  0.
        -13    1    4    4    0    0  0.53677199372E+02 -0.49685550364E+03  0.11861641082E+03  0.51363070129E+03  0.10566000000E+00 0.  1.
          4    1    4    4  502    0 -0.71158640608E+03  0.19521230633E+03  0.28243726524E+03  0.79008472119E+03  0.00000000000E+00 0.  1.
         13    1    3    3    0    0  0.45036389690E+03 -0.33345864624E+03 -0.69138085407E+02  0.56462588889E+03  0.10566000000E+00 0. -1.
         -4    1    3    3    0  501  0.20754530981E+03  0.63510184355E+03 -0.18089321963E+03  0.69220789089E+03  0.00000000000E+00 0. -1.
<mgrwt>
<rscale>  0 0.12360963E+04</rscale>
<asrwt>0</asrwt>
<pdfrwt beam="1">  1        4 0.20858243E+00 0.12404958E+04</pdfrwt>
<pdfrwt beam="2">  1       -4 0.18534822E+00 0.12317124E+04</pdfrwt>
<totfact> 0.18945287E-01</totfact>
</mgrwt>
</event>
<event>
 8    1  0.3025584E-006  0.1299614E+04  0.7818608E-02  0.8538589E-01
         -4   -1    0    0    0  501 -0.00000000000E+00  0.00000000000E+00  0.15571121208E+04  0.15571121208E+04  0.00000000000E+00 0. -1.
          4   -1    0    0  502    0  0.00000000000E+00 -0.00000000000E+00 -0.13574265181E+04  0.13574265181E+04  0.00000000000E+00 0.  1.
   -9000010    2    1    2    0  501  0.72598340659E+03 -0.36663596954E+03  0.76340032418E+03  0.15072412749E+04  0.10136677784E+04 0.  0.
    9000010    2    1    2  502    0 -0.72598340659E+03  0.36663596954E+03 -0.56371472154E+03  0.14072973640E+04  0.10006186799E+04 0.  0.
        -13    1    4    4    0    0 -0.25895792137E+03  0.46705617860E+03 -0.72734695840E+03  0.90234931599E+03  0.10566000000E+00 0.  1.
          4    1    4    4  502    0 -0.46702548523E+03 -0.10042020906E+03  0.16363223686E+03  0.50494804800E+03  0.00000000000E+00 0.  1.
         13    1    3    3    0    0  0.63633828144E+02 -0.48038404750E+02 -0.24600215222E+03  0.25860012080E+03  0.10566000000E+00 0. -1.
         -4    1    3    3    0  501  0.66234957845E+03 -0.31859756479E+03  0.10094024764E+04  0.12486411541E+04  0.00000000000E+00 0. -1.
<mgrwt>
<rscale>  0 0.12945279E+04</rscale>
<asrwt>0</asrwt>
<pdfrwt beam="2">  1        4 0.20883485E+00 0.12894617E+04</pdfrwt>
<pdfrwt beam="1">  1       -4 0.23955571E+00 0.12996139E+04</pdfrwt>
<totfact> 0.13485997E-01</totfact>
</mgrwt>
</event>
<event>
 8    1  0.3025584E-006  0.1650004E+04  0.7818608E-02  0.8328233E-01
          4   -1    0    0  502    0  0.00000000000E+00  0.00000000000E+00  0.14083074607E+04  0.14083074607E+04  0.00000000000E+00 0.  1.
         -4   -1    0    0    0  501 -0.00000000000E+00 -0.00000000000E+00 -0.25345254479E+04  0.25345254479E+04  0.00000000000E+00 0. -1.
   -9000010    2    1    2    0  501 -0.93043274340E+03 -0.92529631491E+03 -0.15241663189E+04  0.22462404095E+04  0.10003172742E+04 0.  0.
    9000010    2    1    2  502    0  0.93043274340E+03  0.92529631491E+03  0.39794833164E+03  0.16965924991E+04  0.99909202428E+03 0.  0.
        -13    1    4    4    0    0 -0.11743199631E+03 -0.90956724500E+02 -0.69304205175E+02  0.16390998599E+03  0.10566000000E+00 0.  1.
          4    1    4    4  502    0  0.10478647397E+04  0.10162530394E+04  0.46725253681E+03  0.15326825131E+04  0.00000000000E+00 0.  1.
         13    1    3    3    0    0 -0.75932576592E+03 -0.12259358527E+03 -0.43889285935E+03  0.88556860779E+03  0.10566000000E+00 0. -1.
         -4    1    3    3    0  501 -0.17110697747E+03 -0.80270272964E+03 -0.10852734595E+04  0.13606718017E+04  0.00000000000E+00 0. -1.
<mgrwt>
<rscale>  0 0.16496326E+04</rscale>
<asrwt>0</asrwt>
<pdfrwt beam="1">  1        4 0.21666269E+00 0.16492614E+04</pdfrwt>
<pdfrwt beam="2">  1       -4 0.38992699E+00 0.16500039E+04</pdfrwt>
<totfact> 0.44851009E-02</totfact>
</mgrwt>
</event>
<event>
 8    1  0.3025584E-006  0.1192808E+04  0.7818608E-02  0.8622286E-01
          4   -1    0    0  502    0  0.00000000000E+00  0.00000000000E+00  0.26460460261E+04  0.26460460261E+04  0.00000000000E+00 0.  1.
         -4   -1    0    0    0  501 -0.00000000000E+00 -0.00000000000E+00 -0.16592658404E+04  0.16592658404E+04  0.00000000000E+00 0. -1.
   -9000010    2    1    2    0  501  0.40080614635E+03 -0.40576898470E+03 -0.12840635411E+04  0.17526006510E+04  0.10476143510E+04 0.  0.
    9000010    2    1    2  502    0 -0.40080614635E+03  0.40576898470E+03  0.22708437268E+04  0.25527112156E+04  0.10170099717E+04 0.  0.
        -13    1    4    4    0    0  0.33402247526E+03  0.23431560738E+03  0.89252055308E+03  0.98136016155E+03  0.10566000000E+00 0.  1.
          4    1    4    4  502    0 -0.73482862161E+03  0.17145337732E+03  0.13783231737E+04  0.15713510540E+04  0.00000000000E+00 0.  1.
         13    1    3    3    0    0 -0.55815663888E+02  0.25029204262E+03 -0.74652452339E+03  0.78934173216E+03  0.10566000000E+00 0. -1.
         -4    1    3    3    0  501  0.45662181024E+03 -0.65606102733E+03 -0.53753901770E+03  0.96325891884E+03  0.00000000000E+00 0. -1.
<mgrwt>
<rscale>  0 0.11793379E+04</rscale>
<asrwt>0</asrwt>
<pdfrwt beam="1">  1        4 0.40708400E+00 0.11660203E+04</pdfrwt>
<pdfrwt beam="2">  1       -4 0.25527167E+00 0.11928076E+04</pdfrwt>
<totfact> 0.32191872E-02</totfact>
</mgrwt>
</event>
<event>
 8    1  0.3025584E-006  0.1168280E+04  0.7818608E-02  0.8672549E-01
         -4   -1    0    0    0  501 -0.00000000000E+00  0.00000000000E+00  0.92518891899E+03  0.92518891899E+03  0.00000000000E+00 0. -1.
          4   -1    0    0  502    0  0.00000000000E+00 -0.00000000000E+00 -0.28548740466E+04  0.28548740466E+04  0.00000000000E+00 0.  1.
   -9000010    2    1    2    0  501  0.29102383615E+03  0.21017079799E+03  0.42785002874E+03  0.11489318089E+04  0.10040527958E+04 0.  0.
    9000010    2    1    2  502    0 -0.29102383615E+03 -0.21017079799E+03 -0.23575351563E+04  0.26311311567E+04  0.11117609963E+04 0.  0.
        -13    1    4    4    0    0 -0.44134841150E+03  0.19449829921E+02 -0.25364153902E+03  0.50941216877E+03  0.10566000000E+00 0.  1.
          4    1    4    4  502    0  0.15032457535E+03 -0.22962062792E+03 -0.21038936173E+04  0.21217189879E+04  0.00000000000E+00 0.  1.
         13    1    3    3    0    0  0.66552005790E+03  0.83342829777E+02  0.25870208642E+03  0.71888090490E+03  0.10566000000E+00 0. -1.
         -4    1    3    3    0  501 -0.37449622175E+03  0.12682796822E+03  0.16914794232E+03  0.43005090399E+03  0.00000000000E+00 0. -1.
<mgrwt>
<rscale>  0 0.11161243E+04</rscale>
<asrwt>0</asrwt>
<pdfrwt beam="2">  1        4 0.43921139E+00 0.11682804E+04</pdfrwt>
<pdfrwt beam="1">  1       -4 0.14233676E+00 0.10662967E+04</pdfrwt>
<totfact> 0.52206223E-02</totfact>
</mgrwt>
</event>
<event>
 8    1  0.3025584E-006  0.1156400E+04  0.7818608E-02  0.8658370E-01
         -4   -1    0    0    0  501 -0.00000000000E+00  0.00000000000E+00  0.26553341981E+04  0.26553341981E+04  0.00000000000E+00 0. -1.
          4   -1    0    0  502    0  0.00000000000E+00 -0.00000000000E+00 -0.55137241858E+03  0.55137241858E+03  0.00000000000E+00 0.  1.
   -9000010    2    1    2    0  501  0.54887489971E+03  0.69343591401E+01  0.15935518199E+04  0.19426738731E+04  0.96605519176E+03 0.  0.
    9000010    2    1    2  502    0 -0.54887489971E+03 -0.69343591401E+01  0.51040995961E+03  0.12640327436E+04  0.10178156558E+04 0.  0.
        -13    1    4    4    0    0  0.29383985132E+03  0.87921917919E+02  0.16574857689E+03  0.34863264876E+03  0.10566000000E+00 0.  1.
          4    1    4    4  502    0 -0.84271475103E+03 -0.94856277059E+02  0.34466138272E+03  0.91540009485E+03  0.00000000000E+00 0.  1.
         13    1    3    3    0    0  0.42912752727E+03 -0.18765552073E+03  0.16433809692E+04  0.17088200754E+04  0.10566000000E+00 0. -1.
         -4    1    3    3    0  501  0.11974737244E+03  0.19458987987E+03 -0.49829149282E+02  0.23385379765E+03  0.00000000000E+00 0. -1.
<mgrwt>
<rscale>  0 0.11335308E+04</rscale>
<asrwt>0</asrwt>
<pdfrwt beam="2">  1        4 0.84826528E-01 0.11563998E+04</pdfrwt>
<pdfrwt beam="1">  1       -4 0.40851294E+00 0.11111140E+04</pdfrwt>
<totfact> 0.17944105E-01</totfact>
</mgrwt>
</event>
<event>
 8    1  0.3025584E-006  0.1062211E+04  0.7818608E-02  0.8725523E-01
         -4   -1    0    0    0  501 -0.00000000000E+00  0.00000000000E+00  0.14235756244E+04  0.14235756244E+04  0.00000000000E+00 0. -1.
          4   -1    0    0  502    0  0.00000000000E+00 -0.00000000000E+00 -0.87535411217E+03  0.87535411217E+03  0.00000000000E+00 0.  1.
   -9000010    2    1    2    0  501 -0.28759389295E+03  0.42670740609E+02 -0.10277195106E+03  0.10671708909E+04  0.10216460234E+04 0.  0.
    9000010    2    1    2  502    0  0.28759389295E+03 -0.42670740609E+02  0.65099346328E+03  0.12317588457E+04  0.10044432912E+04 0.  0.
        -13    1    4    4    0    0  0.45496473610E+03  0.12260863801E+03  0.81749490424E+03  0.94356966824E+03  0.10566000000E+00 0.  1.
          4    1    4    4  502    0 -0.16737084315E+03 -0.16527937862E+03 -0.16650144096E+03  0.28818917741E+03  0.00000000000E+00 0.  1.
         13    1    3    3    0    0 -0.30955532763E+03 -0.42533047279E+03 -0.24108593791E+03  0.57866480157E+03  0.10566000000E+00 0. -1.
         -4    1    3    3    0  501  0.21961434677E+02  0.46800121340E+03  0.13831398685E+03  0.48850608933E+03  0.00000000000E+00 0. -1.
<mgrwt>
<rscale>  0 0.10539107E+04</rscale>
<asrwt>0</asrwt>
<pdfrwt beam="2">  1        4 0.13466986E+00 0.10456756E+04</pdfrwt>
<pdfrwt beam="1">  1       -4 0.21901163E+00 0.10622107E+04</pdfrwt>
<totfact> 0.28388580E-01</totfact>
</mgrwt>
</event>
<event>
 8    1  0.3025584E-006  0.1399827E+04  0.7818608E-02  0.8469989E-01
         -4   -1    0    0    0  501 -0.00000000000E+00  0.00000000000E+00  0.39722306663E+04  0.39722306663E+04  0.00000000000E+00 0. -1.
          4   -1    0    0  502    0  0.00000000000E+00 -0.00000000000E+00 -0.60945587744E+03  0.60945587744E+03  0.00000000000E+00 0.  1.
   -9000010    2    1    2    0  501 -0.85063348129E+03 -0.46987729072E+03  0.26827960223E+04  0.30254456701E+04  0.10057658863E+04 0.  0.
    9000010    2    1    2  502    0  0.85063348129E+03  0.46987729072E+03  0.67997876661E+03  0.15562408736E+04  0.10075477884E+04 0.  0.
        -13    1    4    4    0    0  0.10621418200E+04  0.38397110257E+03  0.69724280953E+03  0.13273004935E+04  0.10566000000E+00 0.  1.
          4    1    4    4  502    0 -0.21150833867E+03  0.85906188142E+02 -0.17264042923E+02  0.22894038016E+03  0.00000000000E+00 0.  1.
         13    1    3    3    0    0 -0.24040418968E+03 -0.52583380023E+03  0.52036749518E+03  0.77786740585E+03  0.10566000000E+00 0. -1.
         -4    1    3    3    0  501 -0.61022929161E+03  0.55956509519E+02  0.21624285271E+04  0.22475782643E+04  0.00000000000E+00 0. -1.
<mgrwt>
<rscale>  0 0.13991855E+04</rscale>
<asrwt>0</asrwt>
<pdfrwt beam="2">  1        4 0.93762445E-01 0.13998266E+04</pdfrwt>
<pdfrwt beam="1">  1       -4 0.61111239E+00 0.13985446E+04</pdfrwt>
<totfact> 0.14818187E-02</totfact>
</mgrwt>
</event>
<event>
 8    1  0.3025584E-006  0.1171576E+04  0.7818608E-02  0.8631982E-01
          4   -1    0    0  502    0  0.00000000000E+00  0.00000000000E+00  0.18630288097E+04  0.18630288097E+04  0.00000000000E+00 0.  1.
         -4   -1    0    0    0  501 -0.00000000000E+00 -0.00000000000E+00 -0.95834723536E+03  0.95834723536E+03  0.00000000000E+00 0. -1.
   -9000010    2    1    2    0  501  0.51175674297E+03  0.28780780394E+03 -0.23647816679E+03  0.11858835828E+04  0.10028308195E+04 0.  0.
    9000010    2    1    2  502    0 -0.51175674297E+03 -0.28780780394E+03  0.11411597411E+04  0.16354924623E+04  0.10138351658E+04 0.  0.
        -13    1    4    4    0    0  0.22256696236E+03 -0.34409650565E+03  0.25261231941E+03  0.48140570522E+03  0.10566000000E+00 0.  1.
          4    1    4    4  502    0 -0.73432370532E+03  0.56288701711E+02  0.88854742171E+03  0.11540867570E+04  0.00000000000E+00 0.  1.
         13    1    3    3    0    0 -0.80442961743E+02  0.31620178286E+03 -0.44990363906E+03  0.55575888044E+03  0.10566000000E+00 0. -1.
         -4    1    3    3    0  501  0.59219970471E+03 -0.28393978917E+02  0.21342547227E+03  0.63012470235E+03  0.00000000000E+00 0. -1.
<mgrwt>
<rscale>  0 0.11668114E+04</rscale>
<asrwt>0</asrwt>
<pdfrwt beam="1">  1        4 0.28661982E+00 0.11715759E+04</pdfrwt>
<pdfrwt beam="2">  1       -4 0.14743804E+00 0.11620662E+04</pdfrwt>
<totfact> 0.16875962E-01</totfact>
</mgrwt>
</event>
<event>
 8    1  0.3025584E-006  0.1007793E+04  0.7818608E-02  0.8767868E-01
          4   -1    0    0  502    0  0.00000000000E+00  0.00000000000E+00  0.29406891305E+04  0.29406891305E+04  0.00000000000E+00 0.  1.
         -4   -1    0    0    0  501 -0.00000000000E+00 -0.00000000000E+00 -0.20449760171E+04  0.20449760171E+04  0.00000000000E+00 0. -1.
   -9000010    2    1    2    0  501  0.21040911450E+02  0.14882796473E+03 -0.18250624304E+04  0.20842404022E+04  0.99529528089E+03 0.  0.
    9000010    2    1    2  502    0 -0.21040911450E+02 -0.14882796473E+03  0.27207755438E+04  0.29014247454E+04  0.99652070233E+03 0.  0.
        -13    1    4    4    0    0 -0.31482769445E+03  0.31521422015E+03  0.14537807148E+04  0.15205113810E+04  0.10566000000E+00 0.  1.
          4    1    4    4  502    0  0.29378678300E+03 -0.46404218489E+03  0.12669948290E+04  0.13809133644E+04  0.00000000000E+00 0.  1.
         13    1    3    3    0    0 -0.27200400904E+03  0.42038476811E+03 -0.14584289346E+04  0.15419871928E+04  0.10566000000E+00 0. -1.
         -4    1    3    3    0  501  0.29304492049E+03 -0.27155680337E+03 -0.36663349582E+03  0.54225320943E+03  0.00000000000E+00 0. -1.
<mgrwt>
<rscale>  0 0.10071866E+04</rscale>
<asrwt>0</asrwt>
<pdfrwt beam="1">  1        4 0.45241371E+00 0.10077926E+04</pdfrwt>
<pdfrwt beam="2">  1       -4 0.31461170E+00 0.10065809E+04</pdfrwt>
<totfact> 0.14786022E-02</totfact>
</mgrwt>
</event>
<event>
 8    1  0.3025584E-006  0.1362532E+04  0.7818608E-02  0.8495243E-01
          4   -1    0    0  502    0  0.00000000000E+00  0.00000000000E+00  0.13406898238E+04  0.13406898238E+04  0.00000000000E+00 0.  1.
         -4   -1    0    0    0  501 -0.00000000000E+00 -0.00000000000E+00 -0.15097220189E+04  0.15097220189E+04  0.00000000000E+00 0. -1.
   -9000010    2    1    2    0  501  0.86094515954E+03  0.32915399998E+03 -0.50468559317E+03  0.14529971686E+04  0.10034561777E+04 0.  0.
    9000010    2    1    2  502    0 -0.86094515954E+03 -0.32915399998E+03  0.33565339813E+03  0.13974146741E+04  0.99525657214E+03 0.  0.
        -13    1    4    4    0    0 -0.94352363830E+03 -0.53326621390E+02 -0.13158305191E+02  0.94512101698E+03  0.10566000000E+00 0.  1.
          4    1    4    4  502    0  0.82578478760E+02 -0.27582737859E+03  0.34881170332E+03  0.45229365716E+03  0.00000000000E+00 0.  1.
         13    1    3    3    0    0  0.22913137727E+03  0.54389010697E+03  0.40106628618E+02  0.59154559362E+03  0.10566000000E+00 0. -1.
         -4    1    3    3    0  501  0.63181378227E+03 -0.21473610699E+03 -0.54479222179E+03  0.86145157498E+03  0.00000000000E+00 0. -1.
<mgrwt>
<rscale>  0 0.13595149E+04</rscale>
<asrwt>0</asrwt>
<pdfrwt beam="1">  1        4 0.20625997E+00 0.13565045E+04</pdfrwt>
<pdfrwt beam="2">  1       -4 0.23226492E+00 0.13625319E+04</pdfrwt>
<totfact> 0.14228041E-01</totfact>
</mgrwt>
</event>
<event>
 8    1  0.3025584E-006  0.1105862E+04  0.7818608E-02  0.8701379E-01
          4   -1    0    0  502    0  0.00000000000E+00  0.00000000000E+00  0.36149702059E+04  0.36149702059E+04  0.00000000000E+00 0.  1.
         -4   -1    0    0    0  501 -0.00000000000E+00 -0.00000000000E+00 -0.56695301721E+03  0.56695301721E+03  0.00000000000E+00 0. -1.
   -9000010    2    1    2    0  501  0.33953245244E+03 -0.22122402104E+03  0.17419881392E+03  0.11194981633E+04  0.10289356428E+04 0.  0.
    9000010    2    1    2  502    0 -0.33953245244E+03  0.22122402104E+03  0.28738183748E+04  0.30624250598E+04  0.97744198915E+03 0.  0.
        -13    1    4    4    0    0  0.17606675105E+03  0.20323210109E+01  0.20984537350E+04  0.21058280368E+04  0.10566000000E+00 0.  1.
          4    1    4    4  502    0 -0.51559920349E+03  0.21919170003E+03  0.77536463974E+03  0.95659702308E+03  0.00000000000E+00 0.  1.
         13    1    3    3    0    0  0.39393089479E+03 -0.55152558076E+03 -0.10214906280E+03  0.68541699593E+03  0.10566000000E+00 0. -1.
         -4    1    3    3    0  501 -0.54398442355E+02  0.33030155973E+03  0.27634787672E+03  0.43408116736E+03  0.00000000000E+00 0. -1.
<mgrwt>
<rscale>  0 0.10817270E+04</rscale>
<asrwt>0</asrwt>
<pdfrwt beam="1">  1        4 0.55614925E+00 0.10581187E+04</pdfrwt>
<pdfrwt beam="2">  1       -4 0.87223543E-01 0.11058621E+04</pdfrwt>
<totfact> 0.35110276E-02</totfact>
</mgrwt>
</event>
<event>
 8    1  0.3025584E-006  0.1062778E+04  0.7818608E-02  0.8718492E-01
         -4   -1    0    0    0  501 -0.00000000000E+00  0.00000000000E+00  0.16540901062E+04  0.16540901062E+04  0.00000000000E+00 0. -1.
          4   -1    0    0  502    0  0.00000000000E+00 -0.00000000000E+00 -0.24917659619E+04  0.24917659619E+04  0.00000000000E+00 0.  1.
   -9000010    2    1    2    0  501  0.34981175812E+03  0.55110443836E+02  0.13479917452E+04  0.17154980213E+04  0.10002231195E+04 0.  0.
    9000010    2    1    2  502    0 -0.34981175812E+03 -0.55110443836E+02 -0.21856676009E+04  0.24303580468E+04  0.10020438846E+04 0.  0.
        -13    1    4    4    0    0  0.30976053449E+03 -0.13666650701E+03 -0.39447739922E+03  0.51984781670E+03  0.10566000000E+00 0.  1.
          4    1    4    4  502    0 -0.65957229261E+03  0.81556063172E+02 -0.17911902017E+04  0.19105102301E+04  0.00000000000E+00 0.  1.
         13    1    3    3    0    0 -0.19996388662E+03 -0.30801980506E+03  0.70477353425E+03  0.79471221333E+03  0.10566000000E+00 0. -1.
         -4    1    3    3    0  501  0.54977564474E+03  0.36313024889E+03  0.64321821097E+03  0.92078580796E+03  0.00000000000E+00 0. -1.
<mgrwt>
<rscale>  0 0.10619195E+04</rscale>
<asrwt>0</asrwt>
<pdfrwt beam="2">  1        4 0.38334861E+00 0.10627781E+04</pdfrwt>
<pdfrwt beam="1">  1       -4 0.25447540E+00 0.10610616E+04</pdfrwt>
<totfact> 0.40634115E-02</totfact>
</mgrwt>
</event>
<event>
 8    1  0.3025584E-006  0.1083402E+04  0.7818608E-02  0.8707768E-01
         -4   -1    0    0    0  501 -0.00000000000E+00  0.00000000000E+00  0.16597360946E+04  0.16597360946E+04  0.00000000000E+00 0. -1.
          4   -1    0    0  502    0  0.00000000000E+00 -0.00000000000E+00 -0.13456619301E+04  0.13456619301E+04  0.00000000000E+00 0.  1.
   -9000010    2    1    2    0  501 -0.95675472450E+01  0.41461471620E+03  0.12023094493E+04  0.16184278034E+04  0.10008814326E+04 0.  0.
    9000010    2    1    2  502    0  0.95675472450E+01 -0.41461471620E+03 -0.88823528483E+03  0.13869702213E+04  0.98118681850E+03 0.  0.
        -13    1    4    4    0    0 -0.19728246859E+03 -0.69044539468E+03 -0.55599133426E+03  0.90816385657E+03  0.10566000000E+00 0.  1.
          4    1    4    4  502    0  0.20685001584E+03  0.27583067848E+03 -0.33224395056E+03  0.47880636475E+03  0.00000000000E+00 0.  1.
         13    1    3    3    0    0 -0.50283825913E+03  0.24211687546E+03  0.56325473497E+03  0.79292042719E+03  0.10566000000E+00 0. -1.
         -4    1    3    3    0  501  0.49327071188E+03  0.17249784074E+03  0.63905471432E+03  0.82550737619E+03  0.00000000000E+00 0. -1.
<mgrwt>
<rscale>  0 0.10742800E+04</rscale>
<asrwt>0</asrwt>
<pdfrwt beam="2">  1        4 0.20702491E+00 0.10652345E+04</pdfrwt>
<pdfrwt beam="1">  1       -4 0.25534401E+00 0.10834023E+04</pdfrwt>
<totfact> 0.12652088E-01</totfact>
</mgrwt>
</event>
<event>
 8    1  0.3025584E-006  0.1353015E+04  0.7818608E-02  0.8511790E-01
         -4   -1    0    0    0  501 -0.00000000000E+00  0.00000000000E+00  0.32182271185E+04  0.32182271185E+04  0.00000000000E+00 0. -1.
          4   -1    0    0  502    0  0.00000000000E+00 -0.00000000000E+00 -0.85726000816E+03  0.85726000816E+03  0.00000000000E+00 0.  1.
   -9000010    2    1    2    0  501  0.86975384332E+03 -0.70849189189E+02  0.24044813254E+04  0.27590179074E+04  0.10340009736E+04 0.  0.
    9000010    2    1    2  502    0 -0.86975384332E+03  0.70849189189E+02 -0.43514215011E+02  0.13164692193E+04  0.98473669726E+03 0.  0.
        -13    1    4    4    0    0 -0.60598889107E+03  0.31055617167E+03 -0.41839464097E+03  0.79920069984E+03  0.10566000000E+00 0.  1.
          4    1    4    4  502    0 -0.26376495226E+03 -0.23970698248E+03  0.37488042596E+03  0.51726851949E+03  0.00000000000E+00 0.  1.
         13    1    3    3    0    0  0.50887104583E+03 -0.27210199685E+03  0.22419059310E+04  0.23149797953E+04  0.10566000000E+00 0. -1.
         -4    1    3    3    0  501  0.36088279750E+03  0.20125280766E+03  0.16257539439E+03  0.44403811208E+03  0.00000000000E+00 0. -1.
<mgrwt>
<rscale>  0 0.13342523E+04</rscale>
<asrwt>0</asrwt>
<pdfrwt beam="2">  1        4 0.13188616E+00 0.13157499E+04</pdfrwt>
<pdfrwt beam="1">  1       -4 0.49511186E+00 0.13530149E+04</pdfrwt>
<totfact> 0.31532963E-02</totfact>
</mgrwt>
</event>
<event>
 8    1  0.3025584E-006  0.1076035E+04  0.7818608E-02  0.8708841E-01
         -4   -1    0    0    0  501 -0.00000000000E+00  0.00000000000E+00  0.37251821425E+04  0.37251821425E+04  0.00000000000E+00 0. -1.
          4   -1    0    0  502    0  0.00000000000E+00 -0.00000000000E+00 -0.77291405194E+03  0.77291405194E+03  0.00000000000E+00 0.  1.
   -9000010    2    1    2    0  501 -0.71358832364E+02  0.39912805992E+03  0.32167321290E+04  0.33900382268E+04  0.99025163384E+03 0.  0.
    9000010    2    1    2  502    0  0.71358832364E+02 -0.39912805992E+03 -0.26446403849E+03  0.11080579676E+04  0.99672259966E+03 0.  0.
        -13    1    4    4    0    0  0.36282767256E+03 -0.44170615040E+03 -0.47726632931E+03  0.74466865352E+03  0.10566000000E+00 0.  1.
          4    1    4    4  502    0 -0.29146884019E+03  0.42578090477E+02  0.21280229082E+03  0.36338931406E+03  0.00000000000E+00 0.  1.
         13    1    3    3    0    0  0.42080631487E+03 -0.19854747461E+02  0.11595346960E+04  0.12336907586E+04  0.10566000000E+00 0. -1.
         -4    1    3    3    0  501 -0.49216514723E+03  0.41898280739E+03  0.20571974330E+04  0.21563474682E+04  0.00000000000E+00 0. -1.
<mgrwt>
<rscale>  0 0.10730352E+04</rscale>
<asrwt>0</asrwt>
<pdfrwt beam="2">  1        4 0.11890986E+00 0.10760350E+04</pdfrwt>
<pdfrwt beam="1">  1       -4 0.57310493E+00 0.10700437E+04</pdfrwt>
<totfact> 0.15733242E-02</totfact>
</mgrwt>
</event>
<event>
 8    1  0.3025584E-006  0.1677260E+04  0.7818608E-02  0.8316637E-01
          4   -1    0    0  502    0  0.00000000000E+00  0.00000000000E+00  0.28190666751E+04  0.28190666751E+04  0.00000000000E+00 0.  1.
         -4   -1    0    0    0  501 -0.00000000000E+00 -0.00000000000E+00 -0.14318133366E+04  0.14318133366E+04  0.00000000000E+00 0. -1.
   -9000010    2    1    2    0  501 -0.11629723199E+04 -0.65340960655E+03 -0.48271980266E+03  0.17453421376E+04  0.10167359730E+04 0.  0.
    9000010    2    1    2  502    0  0.11629723199E+04  0.65340960655E+03  0.18699731411E+04  0.25055378740E+04  0.10007356089E+04 0.  0.
        -13    1    4    4    0    0  0.75637209116E+03  0.64027661171E+03  0.56961154586E+03  0.11430267731E+04  0.10566000000E+00 0.  1.
          4    1    4    4  502    0  0.40660022873E+03  0.13132994845E+02  0.13003615953E+04  0.13625111009E+04  0.00000000000E+00 0.  1.
         13    1    3    3    0    0 -0.11822010627E+04 -0.35404793483E+03 -0.65735177081E+03  0.13982348353E+04  0.10566000000E+00 0. -1.
         -4    1    3    3    0  501  0.19228742812E+02 -0.29936167172E+03  0.17463196815E+03  0.34710730235E+03  0.00000000000E+00 0. -1.
<mgrwt>
<rscale>  0 0.16724276E+04</rscale>
<asrwt>0</asrwt>
<pdfrwt beam="1">  1        4 0.43370257E+00 0.16676092E+04</pdfrwt>
<pdfrwt beam="2">  1       -4 0.22027897E+00 0.16772599E+04</pdfrwt>
<totfact> 0.28835796E-02</totfact>
</mgrwt>
</event>
<event>
 8    1  0.3025584E-006  0.1910602E+04  0.7818608E-02  0.8207045E-01
          4   -1    0    0  502    0  0.00000000000E+00  0.00000000000E+00  0.16895635883E+04  0.16895635883E+04  0.00000000000E+00 0.  1.
         -4   -1    0    0    0  501 -0.00000000000E+00 -0.00000000000E+00 -0.24428658884E+04  0.24428658884E+04  0.00000000000E+00 0. -1.
   -9000010    2    1    2    0  501  0.14567924773E+04  0.74452823660E+03 -0.10866757452E+04  0.21929613246E+04  0.97552477087E+03 0.  0.
    9000010    2    1    2  502    0 -0.14567924773E+04 -0.74452823660E+03  0.33337344519E+03  0.19394681521E+04  0.98682938846E+03 0.  0.
        -13    1    4    4    0    0 -0.29414420911E+02 -0.44402886601E+03  0.86089508158E+01  0.44508534823E+03  0.10566000000E+00 0.  1.
          4    1    4    4  502    0 -0.14273780564E+04 -0.30049937059E+03  0.32476449437E+03  0.14943828039E+04  0.00000000000E+00 0.  1.
         13    1    3    3    0    0  0.11290605353E+04  0.61117107731E+03 -0.12600888982E+04  0.17989251849E+04  0.10566000000E+00 0. -1.
         -4    1    3    3    0  501  0.32773194204E+03  0.13335715929E+03  0.17341315298E+03  0.39403613971E+03  0.00000000000E+00 0. -1.
<mgrwt>
<rscale>  0 0.19076924E+04</rscale>
<asrwt>0</asrwt>
<pdfrwt beam="1">  1        4 0.25993286E+00 0.19106017E+04</pdfrwt>
<pdfrwt beam="2">  1       -4 0.37582552E+00 0.19047874E+04</pdfrwt>
<totfact> 0.38816877E-02</totfact>
</mgrwt>
</event>
<event>
 8    1  0.3025584E-006  0.1134783E+04  0.7818608E-02  0.8672024E-01
          4   -1    0    0  502    0  0.00000000000E+00  0.00000000000E+00  0.66685024892E+03  0.66685024892E+03  0.00000000000E+00 0.  1.
         -4   -1    0    0    0  501 -0.00000000000E+00 -0.00000000000E+00 -0.27731194781E+04  0.27731194781E+04  0.00000000000E+00 0. -1.
   -9000010    2    1    2    0  501  0.50732025993E+03  0.18164558232E+03 -0.20228471224E+04  0.23021242937E+04  0.95786054279E+03 0.  0.
    9000010    2    1    2  502    0 -0.50732025993E+03 -0.18164558232E+03 -0.83422106785E+02  0.11378454333E+04  0.99868113955E+03 0.  0.
        -13    1    4    4    0    0  0.29341267108E+03 -0.12606877662E+03 -0.10116321114E+03  0.33499005722E+03  0.10566000000E+00 0.  1.
          4    1    4    4  502    0 -0.80073293101E+03 -0.55576805700E+02  0.17741104352E+02  0.80285537609E+03  0.00000000000E+00 0.  1.
         13    1    3    3    0    0 -0.13069678682E+03 -0.16032082240E+03 -0.11486408233E+04  0.11671161760E+04  0.10566000000E+00 0. -1.
         -4    1    3    3    0  501  0.63801704674E+03  0.34196640471E+03 -0.87420629908E+03  0.11350081177E+04  0.00000000000E+00 0. -1.
<mgrwt>
<rscale>  0 0.11167633E+04</rscale>
<asrwt>0</asrwt>
<pdfrwt beam="1">  1        4 0.10259235E+00 0.11347832E+04</pdfrwt>
<pdfrwt beam="2">  1       -4 0.42663377E+00 0.10990295E+04</pdfrwt>
<totfact> 0.10368453E-01</totfact>
</mgrwt>
</event>
<event>
 8    1  0.3025584E-006  0.1115044E+04  0.7818608E-02  0.8689961E-01
         -4   -1    0    0    0  501 -0.00000000000E+00  0.00000000000E+00  0.25730646362E+04  0.25730646362E+04  0.00000000000E+00 0. -1.
          4   -1    0    0  502    0  0.00000000000E+00 -0.00000000000E+00 -0.20299730100E+04  0.20299730100E+04  0.00000000000E+00 0.  1.
   -9000010    2    1    2    0  501 -0.48008106476E+03  0.14902194747E+03  0.22925456195E+04  0.25493311953E+04  0.99530837257E+03 0.  0.
    9000010    2    1    2  502    0  0.48008106476E+03 -0.14902194747E+03 -0.17494539933E+04  0.20537064509E+04  0.95101816080E+03 0.  0.
        -13    1    4    4    0    0  0.31907910496E+03  0.40305195891E+02 -0.37484829053E+02  0.32379176582E+03  0.10566000000E+00 0.  1.
          4    1    4    4  502    0  0.16100195980E+03 -0.18932714336E+03 -0.17119691643E+04  0.17299146851E+04  0.00000000000E+00 0.  1.
         13    1    3    3    0    0 -0.75978937207E+03  0.27462779093E+03  0.16262673124E+04  0.18158870273E+04  0.10566000000E+00 0. -1.
         -4    1    3    3    0  501  0.27970830731E+03 -0.12560584346E+03  0.66627830713E+03  0.73344416805E+03  0.00000000000E+00 0. -1.
<mgrwt>
<rscale>  0 0.10951933E+04</rscale>
<asrwt>0</asrwt>
<pdfrwt beam="2">  1        4 0.31230354E+00 0.10756955E+04</pdfrwt>
<pdfrwt beam="1">  1       -4 0.39585610E+00 0.11150445E+04</pdfrwt>
<totfact> 0.25786318E-02</totfact>
</mgrwt>
</event>
<event>
 8    1  0.3025584E-006  0.1200770E+04  0.7818608E-02  0.8608537E-01
         -4   -1    0    0    0  501 -0.00000000000E+00  0.00000000000E+00  0.12542798184E+04  0.12542798184E+04  0.00000000000E+00 0. -1.
          4   -1    0    0  502    0  0.00000000000E+00 -0.00000000000E+00 -0.26133104271E+04  0.26133104271E+04  0.00000000000E+00 0.  1.
   -9000010    2    1    2    0  501 -0.48545132458E+03  0.42975447572E+03  0.77011219702E+03  0.14265063570E+04  0.10106907008E+04 0.  0.
    9000010    2    1    2  502    0  0.48545132458E+03 -0.42975447572E+03 -0.21291428057E+04  0.24410838885E+04  0.10026412946E+04 0.  0.
        -13    1    4    4    0    0  0.56873272318E+03 -0.70359642956E+03 -0.15398531039E+04  0.17859598088E+04  0.10566000000E+00 0.  1.
          4    1    4    4  502    0 -0.83281398603E+02  0.27384195384E+03 -0.58928970186E+03  0.65512407967E+03  0.00000000000E+00 0.  1.
         13    1    3    3    0    0 -0.15618052681E+03  0.21702757117E+03 -0.22975758115E+03  0.35253635396E+03  0.10566000000E+00 0. -1.
         -4    1    3    3    0  501 -0.32927079777E+03  0.21272690455E+03  0.99986977817E+03  0.10739700031E+04  0.00000000000E+00 0. -1.
<mgrwt>
<rscale>  0 0.11973812E+04</rscale>
<asrwt>0</asrwt>
<pdfrwt beam="2">  1        4 0.40204775E+00 0.11940023E+04</pdfrwt>
<pdfrwt beam="1">  1       -4 0.19296613E+00 0.12007696E+04</pdfrwt>
<totfact> 0.48612325E-02</totfact>
</mgrwt>
</event>
<event>
 8    1  0.3025584E-006  0.1586074E+04  0.7818608E-02  0.8366021E-01
         -4   -1    0    0    0  501 -0.00000000000E+00  0.00000000000E+00  0.12694784194E+04  0.12694784194E+04  0.00000000000E+00 0. -1.
          4   -1    0    0  502    0  0.00000000000E+00 -0.00000000000E+00 -0.25249897824E+04  0.25249897824E+04  0.00000000000E+00 0.  1.
   -9000010    2    1    2    0  501  0.10998787623E+04 -0.45735069154E+03  0.26611390388E+03  0.16082436270E+04  0.10472478250E+04 0.  0.
    9000010    2    1    2  502    0 -0.10998787623E+04  0.45735069154E+03 -0.15216252669E+04  0.21862245748E+04  0.10224145400E+04 0.  0.
        -13    1    4    4    0    0 -0.11707495937E+04  0.82921447029E+02 -0.12715256092E+04  0.17304068780E+04  0.10566000000E+00 0.  1.
          4    1    4    4  502    0  0.70870831403E+02  0.37442924451E+03 -0.25009965773E+03  0.45581769676E+03  0.00000000000E+00 0.  1.
         13    1    3    3    0    0  0.59130495374E+03 -0.44294174143E+03 -0.34304163251E+03  0.81456522601E+03  0.10566000000E+00 0. -1.
         -4    1    3    3    0  501  0.50857380858E+03 -0.14408950107E+02  0.60915553640E+03  0.79367840096E+03  0.00000000000E+00 0. -1.
<mgrwt>
<rscale>  0 0.15779100E+04</rscale>
<asrwt>0</asrwt>
<pdfrwt beam="2">  1        4 0.38845997E+00 0.15697880E+04</pdfrwt>
<pdfrwt beam="1">  1       -4 0.19530437E+00 0.15860741E+04</pdfrwt>
<totfact> 0.52386276E-02</totfact>
</mgrwt>
</event>
<event>
 8    1  0.3025584E-006  0.1177274E+04  0.7818608E-02  0.8628723E-01
         -4   -1    0    0    0  501 -0.00000000000E+00  0.00000000000E+00  0.14188530870E+04  0.14188530870E+04  0.00000000000E+00 0. -1.
          4   -1    0    0  502    0  0.00000000000E+00 -0.00000000000E+00 -0.11733064641E+04  0.11733064641E+04  0.00000000000E+00 0.  1.
   -9000010    2    1    2    0  501  0.56402030611E+03  0.19190652757E+03  0.66747336831E+03  0.13533271594E+04  0.10153948404E+04 0.  0.
    9000010    2    1    2  502    0 -0.56402030611E+03 -0.19190652757E+03 -0.42192674540E+03  0.12388323916E+04  0.10008678709E+04 0.  0.
        -13    1    4    4    0    0 -0.23934521926E+03 -0.58797918307E+03 -0.34012092392E+03  0.72019990819E+03  0.10566000000E+00 0.  1.
          4    1    4    4  502    0 -0.32467508685E+03  0.39607265549E+03 -0.81805821477E+02  0.51863248344E+03  0.00000000000E+00 0.  1.
         13    1    3    3    0    0  0.97057040772E+02 -0.30452686972E+03  0.58525432096E+03  0.66684279625E+03  0.10566000000E+00 0. -1.
         -4    1    3    3    0  501  0.46696326534E+03  0.49643339729E+03  0.82219047351E+02  0.68648436316E+03  0.00000000000E+00 0. -1.
<mgrwt>
<rscale>  0 0.11710040E+04</rscale>
<asrwt>0</asrwt>
<pdfrwt beam="2">  1        4 0.18050869E+00 0.11647676E+04</pdfrwt>
<pdfrwt beam="1">  1       -4 0.21828509E+00 0.11772738E+04</pdfrwt>
<totfact> 0.18591111E-01</totfact>
</mgrwt>
</event>
<event>
 8    1  0.3025584E-006  0.1252528E+04  0.7818608E-02  0.8608109E-01
          4   -1    0    0  502    0  0.00000000000E+00  0.00000000000E+00  0.96427529935E+03  0.96427529935E+03  0.00000000000E+00 0.  1.
         -4   -1    0    0    0  501 -0.00000000000E+00 -0.00000000000E+00 -0.20086209078E+04  0.20086209078E+04  0.00000000000E+00 0. -1.
   -9000010    2    1    2    0  501  0.55030792520E+03  0.16743968783E+03 -0.12933130415E+04  0.18004123504E+04  0.11126325299E+04 0.  0.
    9000010    2    1    2  502    0 -0.55030792520E+03 -0.16743968783E+03  0.24896743306E+03  0.11724838567E+04  0.99088785941E+03 0.  0.
        -13    1    4    4    0    0 -0.55415036469E+02 -0.34877488069E+03 -0.26096758042E+03  0.43911141281E+03  0.10566000000E+00 0.  1.
          4    1    4    4  502    0 -0.49489288873E+03  0.18133519286E+03  0.50993501349E+03  0.73337244390E+03  0.00000000000E+00 0.  1.
         13    1    3    3    0    0  0.83796488804E+03 -0.23694891249E+02 -0.61654082140E+03  0.10406100120E+04  0.10566000000E+00 0. -1.
         -4    1    3    3    0  501 -0.28765696284E+03  0.19113457908E+03 -0.67677222006E+03  0.75980233840E+03  0.00000000000E+00 0. -1.
<mgrwt>
<rscale>  0 0.11979477E+04</rscale>
<asrwt>0</asrwt>
<pdfrwt beam="1">  1        4 0.14835004E+00 0.11457459E+04</pdfrwt>
<pdfrwt beam="2">  1       -4 0.30901860E+00 0.12525278E+04</pdfrwt>
<totfact> 0.14471913E-01</totfact>
</mgrwt>
</event>
<event>
 8    1  0.3025584E-006  0.1074945E+04  0.7818608E-02  0.8708993E-01
          4   -1    0    0  502    0  0.00000000000E+00  0.00000000000E+00  0.23166268300E+04  0.23166268300E+04  0.00000000000E+00 0.  1.
         -4   -1    0    0    0  501 -0.00000000000E+00 -0.00000000000E+00 -0.12897022548E+04  0.12897022548E+04  0.00000000000E+00 0. -1.
   -9000010    2    1    2    0  501 -0.30831223922E+03 -0.28514849460E+03 -0.89994286770E+03  0.14019288507E+04  0.98951565748E+03 0.  0.
    9000010    2    1    2  502    0  0.30831223922E+03  0.28514849460E+03  0.19268674429E+04  0.22044002340E+04  0.98498535444E+03 0.  0.
        -13    1    4    4    0    0  0.58439829711E+03  0.18161552211E+03  0.64524272734E+03  0.88929396483E+03  0.10566000000E+00 0.  1.
          4    1    4    4  502    0 -0.27608605789E+03  0.10353297249E+03  0.12816247156E+04  0.13151062692E+04  0.00000000000E+00 0.  1.
         13    1    3    3    0    0 -0.19071811234E+03  0.36304364533E+03 -0.41890417364E+03  0.58622078149E+03  0.10566000000E+00 0. -1.
         -4    1    3    3    0  501 -0.11759412688E+03 -0.64819213993E+03 -0.48103869407E+03  0.81570806919E+03  0.00000000000E+00 0. -1.
<mgrwt>
<rscale>  0 0.10728588E+04</rscale>
<asrwt>0</asrwt>
<pdfrwt beam="1">  1        4 0.35640413E+00 0.10707765E+04</pdfrwt>
<pdfrwt beam="2">  1       -4 0.19841573E+00 0.10749453E+04</pdfrwt>
<totfact> 0.70519316E-02</totfact>
</mgrwt>
</event>
<event>
 8    1  0.3025584E-006  0.1266695E+04  0.7818608E-02  0.8562688E-01
         -4   -1    0    0    0  501 -0.00000000000E+00  0.00000000000E+00  0.96542657962E+03  0.96542657962E+03  0.00000000000E+00 0. -1.
          4   -1    0    0  502    0  0.00000000000E+00 -0.00000000000E+00 -0.22068590556E+04  0.22068590556E+04  0.00000000000E+00 0.  1.
   -9000010    2    1    2    0  501  0.68734586116E+03 -0.34891489862E+03  0.18237164046E+03  0.12665748108E+04  0.98831492799E+03 0.  0.
    9000010    2    1    2  502    0 -0.68734586116E+03  0.34891489862E+03 -0.14238041165E+04  0.19057108244E+04  0.10051515532E+04 0.  0.
        -13    1    4    4    0    0 -0.53071393156E+03  0.65992054346E+03 -0.12666612897E+04  0.15236742549E+04  0.10566000000E+00 0.  1.
          4    1    4    4  502    0 -0.15663192960E+03 -0.31100564484E+03 -0.15714282675E+03  0.38203656957E+03  0.00000000000E+00 0.  1.
         13    1    3    3    0    0 -0.57135847807E+02 -0.33850129613E+03  0.36383765346E+03  0.50022543101E+03  0.10566000000E+00 0. -1.
         -4    1    3    3    0  501  0.74448170896E+03 -0.10413602485E+02 -0.18146601300E+03  0.76634937983E+03  0.00000000000E+00 0. -1.
<mgrwt>
<rscale>  0 0.12600180E+04</rscale>
<asrwt>0</asrwt>
<pdfrwt beam="2">  1        4 0.33951677E+00 0.12666947E+04</pdfrwt>
<pdfrwt beam="1">  1       -4 0.14852717E+00 0.12533764E+04</pdfrwt>
<totfact> 0.11808733E-01</totfact>
</mgrwt>
</event>
<event>
 8    1  0.3025584E-006  0.1343609E+04  0.7818608E-02  0.8507103E-01
          4   -1    0    0  502    0  0.00000000000E+00  0.00000000000E+00  0.22136018985E+04  0.22136018985E+04  0.00000000000E+00 0.  1.
         -4   -1    0    0    0  501 -0.00000000000E+00 -0.00000000000E+00 -0.16135021845E+04  0.16135021845E+04  0.00000000000E+00 0. -1.
   -9000010    2    1    2    0  501 -0.69163226470E+03 -0.56311307505E+03 -0.10482037620E+04  0.17005602356E+04  0.99886058259E+03 0.  0.
    9000010    2    1    2  502    0  0.69163226470E+03  0.56311307505E+03  0.16483034759E+04  0.21265438474E+04  0.10049044040E+04 0.  0.
        -13    1    4    4    0    0  0.69318633654E+03  0.49972121484E+03  0.17832592019E+04  0.19774331802E+04  0.10566000000E+00 0.  1.
          4    1    4    4  502    0 -0.15540718422E+01  0.63391860204E+02 -0.13495572601E+03  0.14911066717E+03  0.00000000000E+00 0.  1.
         13    1    3    3    0    0 -0.61295073000E+03 -0.36657105972E+03 -0.90706765816E+02  0.71993796105E+03  0.10566000000E+00 0. -1.
         -4    1    3    3    0  501 -0.78681534701E+02 -0.19654201533E+03 -0.95749699618E+03  0.98062227457E+03  0.00000000000E+00 0. -1.
<mgrwt>
<rscale>  0 0.13413497E+04</rscale>
<asrwt>0</asrwt>
<pdfrwt beam="1">  1        4 0.34055414E+00 0.13436087E+04</pdfrwt>
<pdfrwt beam="2">  1       -4 0.24823110E+00 0.13390945E+04</pdfrwt>
<totfact> 0.57972171E-02</totfact>
</mgrwt>
</event>
<event>
 8    1  0.3025584E-006  0.1066823E+04  0.7818608E-02  0.8715847E-01
         -4   -1    0    0    0  501 -0.00000000000E+00  0.00000000000E+00  0.51528790136E+03  0.51528790136E+03  0.00000000000E+00 0. -1.
          4   -1    0    0  502    0  0.00000000000E+00 -0.00000000000E+00 -0.29309963948E+04  0.29309963948E+04  0.00000000000E+00 0.  1.
   -9000010    2    1    2    0  501 -0.37225852119E+03 -0.90751178685E+02 -0.34946979028E+03  0.11226040516E+04  0.99563976386E+03 0.  0.
    9000010    2    1    2  502    0  0.37225852119E+03  0.90751178685E+02 -0.20662387032E+04  0.23236802445E+04  0.99163265243E+03 0.  0.
        -13    1    4    4    0    0 -0.98752905219E+02 -0.15127411321E+03 -0.16232436473E+04  0.16332654234E+04  0.10566000000E+00 0.  1.
          4    1    4    4  502    0  0.47101142641E+03  0.24202529189E+03 -0.44299505586E+03  0.69041482113E+03  0.00000000000E+00 0.  1.
         13    1    3    3    0    0  0.95057024466E+02  0.28480635444E+03 -0.42285105124E+03  0.51860728892E+03  0.10566000000E+00 0. -1.
         -4    1    3    3    0  501 -0.46731554565E+03 -0.37555753312E+03  0.73381260959E+02  0.60399676270E+03  0.00000000000E+00 0. -1.
<mgrwt>
<rscale>  0 0.10649517E+04</rscale>
<asrwt>0</asrwt>
<pdfrwt beam="2">  1        4 0.45092251E+00 0.10630840E+04</pdfrwt>
<pdfrwt beam="1">  1       -4 0.79275063E-01 0.10668227E+04</pdfrwt>
<totfact> 0.13511076E-01</totfact>
</mgrwt>
</event>
<event>
 8    1  0.3025584E-006  0.1140101E+04  0.7818608E-02  0.8705126E-01
         -4   -1    0    0    0  501 -0.00000000000E+00  0.00000000000E+00  0.16191005767E+04  0.16191005767E+04  0.00000000000E+00 0. -1.
          4   -1    0    0  502    0  0.00000000000E+00 -0.00000000000E+00 -0.26346346539E+04  0.26346346539E+04  0.00000000000E+00 0.  1.
   -9000010    2    1    2    0  501 -0.76095085762E+02 -0.10733072650E+03  0.13127778368E+04  0.16612720028E+04  0.10095190299E+04 0.  0.
    9000010    2    1    2  502    0  0.76095085762E+02  0.10733072650E+03 -0.23283119139E+04  0.25924632278E+04  0.11324834975E+04 0.  0.
        -13    1    4    4    0    0  0.54563301448E+03 -0.10217231007E+03 -0.75392011993E+03  0.93624255716E+03  0.10566000000E+00 0.  1.
          4    1    4    4  502    0 -0.46953792872E+03  0.20950303658E+03 -0.15743917940E+04  0.16562206706E+04  0.00000000000E+00 0.  1.
         13    1    3    3    0    0  0.42808289181E+03  0.23134083208E+02  0.89946798009E+03  0.99640995902E+03  0.10566000000E+00 0. -1.
         -4    1    3    3    0  501 -0.50417797758E+03 -0.13046480971E+03  0.41330985670E+03  0.66486204381E+03  0.00000000000E+00 0. -1.
<mgrwt>
<rscale>  0 0.10773517E+04</rscale>
<asrwt>0</asrwt>
<pdfrwt beam="2">  1        4 0.40532841E+00 0.11401005E+04</pdfrwt>
<pdfrwt beam="1">  1       -4 0.24909240E+00 0.10180565E+04</pdfrwt>
<totfact> 0.34190702E-02</totfact>
</mgrwt>
</event>
<event>
 8    1  0.3025584E-006  0.1080455E+04  0.7818608E-02  0.8714160E-01
         -4   -1    0    0    0  501 -0.00000000000E+00  0.00000000000E+00  0.10031856471E+04  0.10031856471E+04  0.00000000000E+00 0. -1.
          4   -1    0    0  502    0  0.00000000000E+00 -0.00000000000E+00 -0.20145996744E+04  0.20145996744E+04  0.00000000000E+00 0.  1.
   -9000010    2    1    2    0  501  0.15718763085E+03 -0.32085234766E+03  0.48777512073E+03  0.11854569784E+04  0.10196712701E+04 0.  0.
    9000010    2    1    2  502    0 -0.15718763085E+03  0.32085234766E+03 -0.14991891480E+04  0.18323283431E+04  0.99106249813E+03 0.  0.
        -13    1    4    4    0    0 -0.23857735683E+03  0.54915520233E+03 -0.43291739087E+03  0.73885591960E+03  0.10566000000E+00 0.  1.
          4    1    4    4  502    0  0.81389725986E+02 -0.22830285467E+03 -0.10662717571E+04  0.10934724235E+04  0.00000000000E+00 0.  1.
         13    1    3    3    0    0 -0.17473900041E+03 -0.58711341392E+03  0.44632495238E+03  0.75791942405E+03  0.10566000000E+00 0. -1.
         -4    1    3    3    0  501  0.33192663126E+03  0.26626106626E+03  0.41450168354E+02  0.42753755438E+03  0.00000000000E+00 0. -1.
<mgrwt>
<rscale>  0 0.10668918E+04</rscale>
<asrwt>0</asrwt>
<pdfrwt beam="2">  1        4 0.30993841E+00 0.10534985E+04</pdfrwt>
<pdfrwt beam="1">  1       -4 0.15433625E+00 0.10804553E+04</pdfrwt>
<totfact> 0.13740936E-01</totfact>
</mgrwt>
</event>
<event>
 8    1  0.3025584E-006  0.1303073E+04  0.7818608E-02  0.8533921E-01
         -4   -1    0    0    0  501 -0.00000000000E+00  0.00000000000E+00  0.17731367903E+04  0.17731367903E+04  0.00000000000E+00 0. -1.
          4   -1    0    0  502    0  0.00000000000E+00 -0.00000000000E+00 -0.13187825068E+04  0.13187825068E+04  0.00000000000E+00 0.  1.
   -9000010    2    1    2    0  501  0.79861572800E+03  0.25728301811E+03  0.10388178234E+04  0.16637745549E+04  0.99248257761E+03 0.  0.
    9000010    2    1    2  502    0 -0.79861572800E+03 -0.25728301811E+03 -0.58446353992E+03  0.14281447422E+04  0.99700458509E+03 0.  0.
        -13    1    4    4    0    0 -0.41103965932E+03 -0.10690075108E+03  0.25215608212E+03  0.49392719405E+03  0.10566000000E+00 0.  1.
          4    1    4    4  502    0 -0.38757606868E+03 -0.15038226703E+03 -0.83661962203E+03  0.93421754812E+03  0.00000000000E+00 0.  1.
         13    1    3    3    0    0  0.13813542201E+03 -0.25967604940E+03 -0.40468852560E+02  0.29690197816E+03  0.10566000000E+00 0. -1.
         -4    1    3    3    0  501  0.66048030599E+03  0.51695906751E+03  0.10792866760E+04  0.13668725767E+04  0.00000000000E+00 0. -1.
<mgrwt>
<rscale>  0 0.13013438E+04</rscale>
<asrwt>0</asrwt>
<pdfrwt beam="2">  1        4 0.20288962E+00 0.13030732E+04</pdfrwt>
<pdfrwt beam="1">  1       -4 0.27279027E+00 0.12996166E+04</pdfrwt>
<totfact> 0.11670507E-01</totfact>
</mgrwt>
</event>
<event>
 8    1  0.3025584E-006  0.1200285E+04  0.7818608E-02  0.8631166E-01
          4   -1    0    0  502    0  0.00000000000E+00  0.00000000000E+00  0.13467418666E+04  0.13467418666E+04  0.00000000000E+00 0.  1.
         -4   -1    0    0    0  501 -0.00000000000E+00 -0.00000000000E+00 -0.13475311616E+04  0.13475311616E+04  0.00000000000E+00 0. -1.
   -9000010    2    1    2    0  501 -0.25367544418E+03  0.48217099239E+03 -0.67092773026E+03  0.13750735208E+04  0.10695059941E+04 0.  0.
    9000010    2    1    2  502    0  0.25367544418E+03 -0.48217099239E+03  0.67013843525E+03  0.13191995074E+04  0.99717687549E+03 0.  0.
        -13    1    4    4    0    0  0.24543235504E+03 -0.32119466281E+03  0.92963418735E+03  0.10137173106E+04  0.10566000000E+00 0.  1.
          4    1    4    4  502    0  0.82430891482E+01 -0.16097632958E+03 -0.25949575211E+03  0.30548219681E+03  0.00000000000E+00 0.  1.
         13    1    3    3    0    0  0.21547020070E+03  0.59505113395E+02  0.19957082494E+03  0.29966112734E+03  0.10566000000E+00 0. -1.
         -4    1    3    3    0  501 -0.46914564488E+03  0.42266587899E+03 -0.87049855520E+03  0.10754123934E+04  0.00000000000E+00 0. -1.
<mgrwt>
<rscale>  0 0.11678596E+04</rscale>
<asrwt>0</asrwt>
<pdfrwt beam="1">  1        4 0.20719106E+00 0.11363106E+04</pdfrwt>
<pdfrwt beam="2">  1       -4 0.20731249E+00 0.12002846E+04</pdfrwt>
<totfact> 0.16539526E-01</totfact>
</mgrwt>
</event>
<event>
 8    1  0.3025584E-006  0.1140062E+04  0.7818608E-02  0.8669257E-01
          4   -1    0    0  502    0  0.00000000000E+00  0.00000000000E+00  0.90942178633E+03  0.90942178633E+03  0.00000000000E+00 0.  1.
         -4   -1    0    0    0  501 -0.00000000000E+00 -0.00000000000E+00 -0.22938232784E+04  0.22938232784E+04  0.00000000000E+00 0. -1.
   -9000010    2    1    2    0  501 -0.12191051921E+03  0.52563941198E+03 -0.16956138160E+04  0.20214695368E+04  0.95920483161E+03 0.  0.
    9000010    2    1    2  502    0  0.12191051921E+03 -0.52563941198E+03  0.31121232397E+03  0.11817755279E+04  0.10042814952E+04 0.  0.
        -13    1    4    4    0    0 -0.46176074191E+02  0.28642235293E+03  0.18203184622E+03  0.34249904860E+03  0.10566000000E+00 0.  1.
          4    1    4    4  502    0  0.16808659340E+03 -0.81206176491E+03  0.12918047775E+03  0.83927647932E+03  0.00000000000E+00 0.  1.
         13    1    3    3    0    0 -0.19571127184E+03  0.60119946761E+03 -0.46131311852E+03  0.78265797527E+03  0.10566000000E+00 0. -1.
         -4    1    3    3    0  501  0.73800752638E+02 -0.75560055629E+02 -0.12343006975E+04  0.12388115615E+04  0.00000000000E+00 0. -1.
<mgrwt>
<rscale>  0 0.11201368E+04</rscale>
<asrwt>0</asrwt>
<pdfrwt beam="1">  1        4 0.13991104E+00 0.11400615E+04</pdfrwt>
<pdfrwt beam="2">  1       -4 0.35289589E+00 0.11005603E+04</pdfrwt>
<totfact> 0.11814199E-01</totfact>
</mgrwt>
</event>
<event>
 8    1  0.3025584E-006  0.1118265E+04  0.7818608E-02  0.8678794E-01
          4   -1    0    0  502    0  0.00000000000E+00  0.00000000000E+00  0.19485745565E+04  0.19485745565E+04  0.00000000000E+00 0.  1.
         -4   -1    0    0    0  501 -0.00000000000E+00 -0.00000000000E+00 -0.78842585741E+03  0.78842585741E+03  0.00000000000E+00 0. -1.
   -9000010    2    1    2    0  501 -0.40618517963E+03 -0.25948556662E+03 -0.27917920153E+02  0.11186134458E+04  0.10090577146E+04 0.  0.
    9000010    2    1    2  502    0  0.40618517963E+03  0.25948556662E+03  0.11880666192E+04  0.16183869681E+04  0.98760059105E+03 0.  0.
        -13    1    4    4    0    0 -0.21074053275E+03  0.94596433266E+02  0.87918616420E+03  0.90902606113E+03  0.10566000000E+00 0.  1.
          4    1    4    4  502    0  0.61692571237E+03  0.16488913336E+03  0.30888045505E+03  0.70936090701E+03  0.00000000000E+00 0.  1.
         13    1    3    3    0    0 -0.15979082099E+03 -0.24159850095E+03 -0.50453760013E+03  0.58177413422E+03  0.10566000000E+00 0. -1.
         -4    1    3    3    0  501 -0.24639435864E+03 -0.17887065669E+02  0.47661967998E+03  0.53683931155E+03  0.00000000000E+00 0. -1.
<mgrwt>
<rscale>  0 0.11085615E+04</rscale>
<asrwt>0</asrwt>
<pdfrwt beam="1">  1        4 0.29978070E+00 0.10989423E+04</pdfrwt>
<pdfrwt beam="2">  1       -4 0.12129629E+00 0.11182650E+04</pdfrwt>
<totfact> 0.21237409E-01</totfact>
</mgrwt>
</event>
<event>
 8    1  0.3025584E-006  0.1156923E+04  0.7818608E-02  0.8640699E-01
         -4   -1    0    0    0  501 -0.00000000000E+00  0.00000000000E+00  0.90717268367E+03  0.90717268367E+03  0.00000000000E+00 0. -1.
          4   -1    0    0  502    0  0.00000000000E+00 -0.00000000000E+00 -0.16045124089E+04  0.16045124089E+04  0.00000000000E+00 0.  1.
   -9000010    2    1    2    0  501 -0.37952650964E+03  0.43296367093E+03  0.11505198748E+02  0.11569806558E+04  0.10034809199E+04 0.  0.
    9000010    2    1    2  502    0  0.37952650964E+03 -0.43296367093E+03 -0.70884492399E+03  0.13547044367E+04  0.10006323365E+04 0.  0.
        -13    1    4    4    0    0  0.69365445501E+03 -0.44725339011E+03 -0.41279327461E+03  0.92281655634E+03  0.10566000000E+00 0.  1.
          4    1    4    4  502    0 -0.31412794538E+03  0.14289719175E+02 -0.29605164938E+03  0.43188788041E+03  0.00000000000E+00 0.  1.
         13    1    3    3    0    0  0.53169411474E+02  0.46348852892E+03 -0.35728781111E+03  0.58762504532E+03  0.10566000000E+00 0. -1.
         -4    1    3    3    0  501 -0.43269592111E+03 -0.30524857990E+02  0.36879300986E+03  0.56935561051E+03  0.00000000000E+00 0. -1.
<mgrwt>
<rscale>  0 0.11556878E+04</rscale>
<asrwt>0</asrwt>
<pdfrwt beam="2">  1        4 0.24684806E+00 0.11544535E+04</pdfrwt>
<pdfrwt beam="1">  1       -4 0.13956503E+00 0.11569234E+04</pdfrwt>
<totfact> 0.22910350E-01</totfact>
</mgrwt>
</event>
<event>
 8    1  0.3025584E-006  0.1088258E+04  0.7818608E-02  0.8695904E-01
          4   -1    0    0  502    0  0.00000000000E+00  0.00000000000E+00  0.60494702977E+03  0.60494702977E+03  0.00000000000E+00 0.  1.
         -4   -1    0    0    0  501 -0.00000000000E+00 -0.00000000000E+00 -0.25532283279E+04  0.25532283279E+04  0.00000000000E+00 0. -1.
   -9000010    2    1    2    0  501 -0.22536173855E+03  0.34802671795E+03 -0.17370642435E+04  0.20498043086E+04  0.10061784177E+04 0.  0.
    9000010    2    1    2  502    0  0.22536173855E+03 -0.34802671795E+03 -0.21121705462E+03  0.11083710490E+04  0.10059638306E+04 0.  0.
        -13    1    4    4    0    0  0.43613147026E+03  0.16538621219E+03 -0.28785927480E+03  0.54811151401E+03  0.10566000000E+00 0.  1.
          4    1    4    4  502    0 -0.21076973171E+03 -0.51341293014E+03  0.76642220177E+02  0.56025953500E+03  0.00000000000E+00 0.  1.
         13    1    3    3    0    0 -0.51511475775E+03 -0.12616615479E+03 -0.91352535089E+03  0.10563094670E+04  0.10566000000E+00 0. -1.
         -4    1    3    3    0  501  0.28975301920E+03  0.47419287274E+03 -0.82353889259E+03  0.99349484161E+03  0.00000000000E+00 0. -1.
<mgrwt>
<rscale>  0 0.10881588E+04</rscale>
<asrwt>0</asrwt>
<pdfrwt beam="1">  1        4 0.93068775E-01 0.10880596E+04</pdfrwt>
<pdfrwt beam="2">  1       -4 0.39280435E+00 0.10882580E+04</pdfrwt>
<totfact> 0.17176253E-01</totfact>
</mgrwt>
</event>
<event>
 8    1  0.3025584E-006  0.1052072E+04  0.7818608E-02  0.8745587E-01
          4   -1    0    0  502    0  0.00000000000E+00  0.00000000000E+00  0.23858492377E+04  0.23858492377E+04  0.00000000000E+00 0.  1.
         -4   -1    0    0    0  501 -0.00000000000E+00 -0.00000000000E+00 -0.86314376905E+03  0.86314376905E+03  0.00000000000E+00 0. -1.
   -9000010    2    1    2    0  501  0.58994678920E+02 -0.25942879211E+03 -0.35994689066E+03  0.11119431302E+04  0.10178762648E+04 0.  0.
    9000010    2    1    2  502    0 -0.58994678920E+02  0.25942879211E+03  0.18826523593E+04  0.21370498765E+04  0.97561190975E+03 0.  0.
        -13    1    4    4    0    0 -0.50767909761E+03  0.15849916106E+03  0.12152864373E+04  0.13265674450E+04  0.10566000000E+00 0.  1.
          4    1    4    4  502    0  0.44868441869E+03  0.10092963106E+03  0.66736592198E+03  0.81048243153E+03  0.00000000000E+00 0.  1.
         13    1    3    3    0    0  0.52547373495E+03 -0.19219712028E+03 -0.30555533465E+03  0.63751584519E+03  0.10566000000E+00 0. -1.
         -4    1    3    3    0  501 -0.46647905603E+03 -0.67231671832E+02 -0.54391556010E+02  0.47442728503E+03  0.00000000000E+00 0. -1.
<mgrwt>
<rscale>  0 0.10314530E+04</rscale>
<asrwt>0</asrwt>
<pdfrwt beam="1">  1        4 0.36705373E+00 0.10112380E+04</pdfrwt>
<pdfrwt beam="2">  1       -4 0.13279135E+00 0.10520721E+04</pdfrwt>
<totfact> 0.11488146E-01</totfact>
</mgrwt>
</event>
<event>
 8    1  0.3025584E-006  0.1628764E+04  0.7818608E-02  0.8340217E-01
         -4   -1    0    0    0  501 -0.00000000000E+00  0.00000000000E+00  0.31603620123E+04  0.31603620123E+04  0.00000000000E+00 0. -1.
          4   -1    0    0  502    0  0.00000000000E+00 -0.00000000000E+00 -0.23344154614E+04  0.23344154614E+04  0.00000000000E+00 0.  1.
   -9000010    2    1    2    0  501 -0.10233036346E+04 -0.76746564485E+03  0.26135425460E+04  0.30795254352E+04  0.10083245616E+04 0.  0.
    9000010    2    1    2  502    0  0.10233036346E+04  0.76746564485E+03 -0.17875959951E+04  0.24152520384E+04  0.10008941617E+04 0.  0.
        -13    1    4    4    0    0  0.37465739382E+03  0.84548861109E+02 -0.12982031877E+04  0.13538272417E+04  0.10566000000E+00 0.  1.
          4    1    4    4  502    0  0.64864624081E+03  0.68291678374E+03 -0.48939280743E+03  0.10614247968E+04  0.00000000000E+00 0.  1.
         13    1    3    3    0    0 -0.69569417850E+03  0.77480935326E+02  0.13967744422E+04  0.15623612063E+04  0.10566000000E+00 0. -1.
         -4    1    3    3    0  501 -0.32760945614E+03 -0.84494658018E+03  0.12167681038E+04  0.15171642289E+04  0.00000000000E+00 0. -1.
<mgrwt>
<rscale>  0 0.16264677E+04</rscale>
<asrwt>0</asrwt>
<pdfrwt beam="2">  1        4 0.35914084E+00 0.16241745E+04</pdfrwt>
<pdfrwt beam="1">  1       -4 0.48620954E+00 0.16287640E+04</pdfrwt>
<totfact> 0.67795766E-03</totfact>
</mgrwt>
</event>
<event>
 8    1  0.3025584E-006  0.1423866E+04  0.7818608E-02  0.8465686E-01
          4   -1    0    0  502    0  0.00000000000E+00  0.00000000000E+00  0.18092478341E+04  0.18092478341E+04  0.00000000000E+00 0.  1.
         -4   -1    0    0    0  501 -0.00000000000E+00 -0.00000000000E+00 -0.20954885360E+04  0.20954885360E+04  0.00000000000E+00 0. -1.
   -9000010    2    1    2    0  501 -0.84904411410E+03 -0.49685297995E+03 -0.14944376701E+04  0.20641555790E+04  0.10293957028E+04 0.  0.
    9000010    2    1    2  502    0  0.84904411410E+03  0.49685297995E+03  0.12081969682E+04  0.18405807912E+04  0.97992802978E+03 0.  0.
        -13    1    4    4    0    0  0.56207456200E+03  0.71024218782E+03  0.47023513259E+03  0.10205355798E+04  0.10566000000E+00 0.  1.
          4    1    4    4  502    0  0.28696955210E+03 -0.21338920786E+03  0.73796183559E+03  0.82004521135E+03  0.00000000000E+00 0.  1.
         13    1    3    3    0    0 -0.61403024446E+03  0.12174644247E+03 -0.28998021639E+03  0.68988685625E+03  0.10566000000E+00 0. -1.
         -4    1    3    3    0  501 -0.23501386964E+03 -0.61859942242E+03 -0.12044574537E+04  0.13742687227E+04  0.00000000000E+00 0. -1.
<mgrwt>
<rscale>  0 0.14060837E+04</rscale>
<asrwt>0</asrwt>
<pdfrwt beam="1">  1        4 0.27834582E+00 0.13885236E+04</pdfrwt>
<pdfrwt beam="2">  1       -4 0.32238285E+00 0.14238660E+04</pdfrwt>
<totfact> 0.55074934E-02</totfact>
</mgrwt>
</event>
<event>
 8    1  0.3025584E-006  0.9858475E+03  0.7818608E-02  0.8822412E-01
          4   -1    0    0  502    0  0.00000000000E+00  0.00000000000E+00  0.13982459625E+04  0.13982459625E+04  0.00000000000E+00 0.  1.
         -4   -1    0    0    0  501 -0.00000000000E+00 -0.00000000000E+00 -0.30089727719E+04  0.30089727719E+04  0.00000000000E+00 0. -1.
   -9000010    2    1    2    0  501  0.13234776362E+03  0.77593403421E+02 -0.27636889534E+04  0.29342583383E+04  0.97383710032E+03 0.  0.
    9000010    2    1    2  502    0 -0.13234776362E+03 -0.77593403421E+02  0.11529621439E+04  0.14729603961E+04  0.90374440872E+03 0.  0.
        -13    1    4    4    0    0  0.28590897525E+03  0.32842083498E+02  0.95463963264E+03  0.99707541537E+03  0.10566000000E+00 0.  1.
          4    1    4    4  502    0 -0.41825673887E+03 -0.11043548692E+03  0.19832251130E+03  0.47588498072E+03  0.00000000000E+00 0.  1.
         13    1    3    3    0    0  0.14274348723E+03  0.91220542466E+02  0.11110165491E+01  0.16940524206E+03  0.10566000000E+00 0. -1.
         -4    1    3    3    0  501 -0.10395723614E+02 -0.13627139045E+02 -0.27647999699E+04  0.27648530962E+04  0.00000000000E+00 0. -1.
<mgrwt>
<rscale>  0 0.95063162E+03</rscale>
<asrwt>0</asrwt>
<pdfrwt beam="1">  1        4 0.21511477E+00 0.91667367E+03</pdfrwt>
<pdfrwt beam="2">  1       -4 0.46291888E+00 0.98584754E+03</pdfrwt>
<totfact> 0.23412525E-02</totfact>
</mgrwt>
</event>
<event>
 8    1  0.3025584E-006  0.1301042E+04  0.7818608E-02  0.8538039E-01
          4   -1    0    0  502    0  0.00000000000E+00  0.00000000000E+00  0.12179971931E+04  0.12179971931E+04  0.00000000000E+00 0.  1.
         -4   -1    0    0    0  501 -0.00000000000E+00 -0.00000000000E+00 -0.20521517447E+04  0.20521517447E+04  0.00000000000E+00 0. -1.
   -9000010    2    1    2    0  501 -0.21731912134E+03 -0.81379601391E+03 -0.13557404645E+04  0.18790268301E+04  0.99157353153E+03 0.  0.
    9000010    2    1    2  502    0  0.21731912134E+03  0.81379601391E+03  0.52158591295E+03  0.13911221077E+04  0.97656402818E+03 0.  0.
        -13    1    4    4    0    0 -0.34567463035E+02  0.80228545334E+03  0.71352408468E+03  0.10742315806E+04  0.10566000000E+00 0.  1.
          4    1    4    4  502    0  0.25188658437E+03  0.11510560569E+02 -0.19193817173E+03  0.31689052709E+03  0.00000000000E+00 0.  1.
         13    1    3    3    0    0  0.14939396827E+03 -0.69493515314E+02 -0.93369274224E+03  0.94811921956E+03  0.10566000000E+00 0. -1.
         -4    1    3    3    0  501 -0.36671308961E+03 -0.74430249860E+03 -0.42204772226E+03  0.93090761055E+03  0.00000000000E+00 0. -1.
<mgrwt>
<rscale>  0 0.12953278E+04</rscale>
<asrwt>0</asrwt>
<pdfrwt beam="1">  1        4 0.18738418E+00 0.12896390E+04</pdfrwt>
<pdfrwt beam="2">  1       -4 0.31571565E+00 0.13010417E+04</pdfrwt>
<totfact> 0.99355056E-02</totfact>
</mgrwt>
</event>
<event>
 8    1  0.3025584E-006  0.1090680E+04  0.7818608E-02  0.8712537E-01
         -4   -1    0    0    0  501 -0.00000000000E+00  0.00000000000E+00  0.84259001885E+03  0.84259001885E+03  0.00000000000E+00 0. -1.
          4   -1    0    0  502    0  0.00000000000E+00 -0.00000000000E+00 -0.50648399458E+04  0.50648399458E+04  0.00000000000E+00 0.  1.
   -9000010    2    1    2    0  501 -0.14165456078E+03 -0.25055117068E+03  0.42772088527E+03  0.11312587643E+04  0.10069554769E+04 0.  0.
    9000010    2    1    2  502    0  0.14165456078E+03  0.25055117068E+03 -0.46499708122E+04  0.47761712003E+04  0.10520175267E+04 0.  0.
        -13    1    4    4    0    0  0.20275673288E+03  0.34107167130E+03 -0.56870668642E+03  0.69344609310E+03  0.10566000000E+00 0.  1.
          4    1    4    4  502    0 -0.61102172100E+02 -0.90520500617E+02 -0.40812641258E+04  0.40827251072E+04  0.00000000000E+00 0.  1.
         13    1    3    3    0    0 -0.14552347890E+03 -0.54738385322E+03  0.56869018336E+03  0.80262986581E+03  0.10566000000E+00 0. -1.
         -4    1    3    3    0  501  0.38689181172E+01  0.29683268253E+03 -0.14096929809E+03  0.32862889854E+03  0.00000000000E+00 0. -1.
<mgrwt>
<rscale>  0 0.10687611E+04</rscale>
<asrwt>0</asrwt>
<pdfrwt beam="2">  1        4 0.77920614E+00 0.10906800E+04</pdfrwt>
<pdfrwt beam="1">  1       -4 0.12962923E+00 0.10472828E+04</pdfrwt>
<totfact> 0.93054655E-04</totfact>
</mgrwt>
</event>
<event>
 8    1  0.3025584E-006  0.1267302E+04  0.7818608E-02  0.8560852E-01
         -4   -1    0    0    0  501 -0.00000000000E+00  0.00000000000E+00  0.12536077224E+04  0.12536077224E+04  0.00000000000E+00 0. -1.
          4   -1    0    0  502    0  0.00000000000E+00 -0.00000000000E+00 -0.14206097701E+04  0.14206097701E+04  0.00000000000E+00 0.  1.
   -9000010    2    1    2    0  501  0.74793325391E+03 -0.23750235124E+03  0.34969236045E+03  0.13056319546E+04  0.98314725999E+03 0.  0.
    9000010    2    1    2  502    0 -0.74793325391E+03  0.23750235124E+03 -0.51669440822E+03  0.13685855379E+04  0.99510891053E+03 0.  0.
        -13    1    4    4    0    0 -0.17351308867E+03 -0.10658180040E+02  0.29577935997E+03  0.34308283211E+03  0.10566000000E+00 0.  1.
          4    1    4    4  502    0 -0.57442016524E+03  0.24816053128E+03 -0.81247376818E+03  0.10255027058E+04  0.00000000000E+00 0.  1.
         13    1    3    3    0    0  0.20265856370E+03 -0.38034634910E+03  0.55768963264E+03  0.70480605576E+03  0.10566000000E+00 0. -1.
         -4    1    3    3    0  501  0.54527469022E+03  0.14284399786E+03 -0.20799727219E+03  0.60082589887E+03  0.00000000000E+00 0. -1.
<mgrwt>
<rscale>  0 0.12626075E+04</rscale>
<asrwt>0</asrwt>
<pdfrwt beam="2">  1        4 0.21855535E+00 0.12673016E+04</pdfrwt>
<pdfrwt beam="1">  1       -4 0.19286273E+00 0.12579309E+04</pdfrwt>
<totfact> 0.16918034E-01</totfact>
</mgrwt>
</event>
<event>
 8    1  0.3025584E-006  0.1384167E+04  0.7818608E-02  0.8541046E-01
          4   -1    0    0  502    0  0.00000000000E+00  0.00000000000E+00  0.12709604774E+04  0.12709604774E+04  0.00000000000E+00 0. -1.
         -4   -1    0    0    0  501 -0.00000000000E+00 -0.00000000000E+00 -0.13464575730E+04  0.13464575730E+04  0.00000000000E+00 0.  1.
   -9000010    2    1    2    0  501 -0.19464882592E+03  0.74455965560E+03 -0.23128243266E+03  0.14033567537E+04  0.11505048319E+04 0.  0.
    9000010    2    1    2  502    0  0.19464882592E+03 -0.74455965560E+03  0.15578533706E+03  0.12140612966E+04  0.92596895981E+03 0.  0.
        -13    1    4    4    0    0  0.56423763764E+03 -0.53694440674E+03  0.12696167851E+03  0.78917215272E+03  0.10566000000E+00 0.  1.
          4    1    4    4  502    0 -0.36958881172E+03 -0.20761524887E+03  0.28823658542E+02  0.42488914390E+03  0.00000000000E+00 0.  1.
         13    1    3    3    0    0 -0.50711801330E+03  0.86721810464E+03 -0.16309310321E+02  0.10047397301E+04  0.10566000000E+00 0. -1.
         -4    1    3    3    0  501  0.31246918738E+03 -0.12265844904E+03 -0.21497312234E+03  0.39861702361E+03  0.00000000000E+00 0. -1.
<mgrwt>
<rscale>  0 0.12909576E+04</rscale>
<asrwt>0</asrwt>
<pdfrwt beam="1">  1        4 0.19553238E+00 0.12040248E+04</pdfrwt>
<pdfrwt beam="2">  1       -4 0.20714732E+00 0.13841671E+04</pdfrwt>
<totfact> 0.17768264E-01</totfact>
</mgrwt>
</event>
<event>
 8    1  0.3025584E-006  0.1345126E+04  0.7818608E-02  0.8511314E-01
         -4   -1    0    0    0  501 -0.00000000000E+00  0.00000000000E+00  0.52994896229E+03  0.52994896229E+03  0.00000000000E+00 0.  1.
          4   -1    0    0  502    0  0.00000000000E+00 -0.00000000000E+00 -0.33788711239E+04  0.33788711239E+04  0.00000000000E+00 0. -1.
   -9000010    2    1    2    0  501 -0.74031428213E+03 -0.49087569925E+03 -0.13015233899E+04  0.18717173708E+04  0.10101181085E+04 0.  0.
    9000010    2    1    2  502    0  0.74031428213E+03  0.49087569925E+03 -0.15473987717E+04  0.20371027154E+04  0.98301593373E+03 0.  0.
        -13    1    4    4    0    0  0.62400615843E+03  0.41095134298E+03 -0.16829942834E+04  0.18413947054E+04  0.10566000000E+00 0.  1.
          4    1    4    4  502    0  0.11630812370E+03  0.79924356261E+02  0.13559551171E+03  0.19570800995E+03  0.00000000000E+00 0.  1.
         13    1    3    3    0    0 -0.41820135247E+03 -0.79102866939E+03 -0.97657331854E+03  0.13245052603E+04  0.10566000000E+00 0. -1.
         -4    1    3    3    0  501 -0.32211292966E+03  0.30015297015E+03 -0.32495007137E+03  0.54721211045E+03  0.00000000000E+00 0. -1.
<mgrwt>
<rscale>  0 0.13349715E+04</rscale>
<asrwt>0</asrwt>
<pdfrwt beam="2">  1        4 0.51982631E+00 0.13248942E+04</pdfrwt>
<pdfrwt beam="1">  1       -4 0.81530612E-01 0.13451256E+04</pdfrwt>
<totfact> 0.59163396E-02</totfact>
</mgrwt>
</event>
<event>
 8    1  0.3025584E-006  0.1381147E+04  0.7818608E-02  0.8488912E-01
          4   -1    0    0  502    0  0.00000000000E+00  0.00000000000E+00  0.28547620821E+04  0.28547620821E+04  0.00000000000E+00 0.  1.
         -4   -1    0    0    0  501 -0.00000000000E+00 -0.00000000000E+00 -0.88233937148E+03  0.88233937148E+03  0.00000000000E+00 0. -1.
   -9000010    2    1    2    0  501  0.84313082739E+03  0.47021676356E+03  0.35367592641E+02  0.13580787454E+04  0.95454366864E+03 0.  0.
    9000010    2    1    2  502    0 -0.84313082739E+03 -0.47021676356E+03  0.19370551180E+04  0.23790227082E+04  0.98772117474E+03 0.  0.
        -13    1    4    4    0    0 -0.92628800924E+03 -0.33616594016E+02  0.11719028220E+04  0.14941538699E+04  0.10566000000E+00 0.  1.
          4    1    4    4  502    0  0.83157181850E+02 -0.43660016955E+03  0.76515229602E+03  0.88486883833E+03  0.00000000000E+00 0.  1.
         13    1    3    3    0    0  0.27765617971E+03  0.50026412128E+03 -0.35221126659E+03  0.67187047311E+03  0.10566000000E+00 0. -1.
         -4    1    3    3    0  501  0.56547464769E+03 -0.30047357715E+02  0.38757885923E+03  0.68620827232E+03  0.00000000000E+00 0. -1.
<mgrwt>
<rscale>  0 0.13693319E+04</rscale>
<asrwt>0</asrwt>
<pdfrwt beam="1">  1        4 0.43919416E+00 0.13811468E+04</pdfrwt>
<pdfrwt beam="2">  1       -4 0.13574452E+00 0.13576181E+04</pdfrwt>
<totfact> 0.55133365E-02</totfact>
</mgrwt>
</event>
<event>
 8    1  0.3025584E-006  0.1253066E+04  0.7818608E-02  0.8583320E-01
         -4   -1    0    0    0  501 -0.00000000000E+00  0.00000000000E+00  0.15572979257E+04  0.15572979257E+04  0.00000000000E+00 0. -1.
          4   -1    0    0  502    0  0.00000000000E+00 -0.00000000000E+00 -0.11007259497E+04  0.11007259497E+04  0.00000000000E+00 0.  1.
   -9000010    2    1    2    0  501  0.56818966897E+03 -0.44511065024E+03 -0.21919744261E+03  0.12720937147E+04  0.10243104555E+04 0.  0.
    9000010    2    1    2  502    0 -0.56818966897E+03  0.44511065024E+03  0.67576941858E+03  0.13859301607E+04  0.97117203028E+03 0.  0.
        -13    1    4    4    0    0 -0.41628096789E+03 -0.24529933954E+03  0.15339417822E+03  0.50694318743E+03  0.10566000000E+00 0.  1.
          4    1    4    4  502    0 -0.15190870107E+03  0.69040998978E+03  0.52237524036E+03  0.87898697328E+03  0.00000000000E+00 0.  1.
         13    1    3    3    0    0 -0.11788864196E+03 -0.16333368575E+03  0.30382886209E+03  0.36453753360E+03  0.10566000000E+00 0. -1.
         -4    1    3    3    0  501  0.68607831092E+03 -0.28177696449E+03 -0.52302630470E+03  0.90755618109E+03  0.00000000000E+00 0. -1.
<mgrwt>
<rscale>  0 0.12313528E+04</rscale>
<asrwt>0</asrwt>
<pdfrwt beam="2">  1        4 0.16934245E+00 0.12100157E+04</pdfrwt>
<pdfrwt beam="1">  1       -4 0.23958430E+00 0.12530662E+04</pdfrwt>
<totfact> 0.17934673E-01</totfact>
</mgrwt>
</event>
<event>
 8    1  0.3025584E-006  0.1672186E+04  0.7818608E-02  0.8320293E-01
          4   -1    0    0  502    0  0.00000000000E+00  0.00000000000E+00  0.15170319572E+04  0.15170319572E+04  0.00000000000E+00 0. -1.
         -4   -1    0    0    0  501 -0.00000000000E+00 -0.00000000000E+00 -0.19035777637E+04  0.19035777637E+04  0.00000000000E+00 0.  1.
   -9000010    2    1    2    0  501 -0.12163917518E+04  0.49619823939E+03 -0.53357791470E+03  0.17419716911E+04  0.10118984115E+04 0.  0.
    9000010    2    1    2  502    0  0.12163917518E+04 -0.49619823939E+03  0.14703210815E+03  0.16786380298E+04  0.10345944170E+04 0.  0.
        -13    1    4    4    0    0  0.73798293301E+03 -0.62316283793E+03  0.48348580533E+03  0.10801431697E+04  0.10566000000E+00 0.  1.
          4    1    4    4  502    0  0.47840881874E+03  0.12696459854E+03 -0.33645369718E+03  0.59849486003E+03  0.00000000000E+00 0.  1.
         13    1    3    3    0    0  0.72791813707E+01  0.82232332895E+02 -0.43902511048E+03  0.44671937707E+03  0.10566000000E+00 0. -1.
         -4    1    3    3    0  501 -0.12236709331E+04  0.41396590650E+03 -0.94552804226E+02  0.12952523141E+04  0.00000000000E+00 0. -1.
<mgrwt>
<rscale>  0 0.16651986E+04</rscale>
<asrwt>0</asrwt>
<pdfrwt beam="1">  1        4 0.23338953E+00 0.16721864E+04</pdfrwt>
<pdfrwt beam="2">  1       -4 0.29285812E+00 0.16582400E+04</pdfrwt>
<totfact> 0.84110442E-02</totfact>
</mgrwt>
</event>
<event>
 8    1  0.3025584E-006  0.1138421E+04  0.7818608E-02  0.8659040E-01
         -4   -1    0    0    0  501 -0.00000000000E+00  0.00000000000E+00  0.62566207328E+03  0.62566207328E+03  0.00000000000E+00 0. -1.
          4   -1    0    0  502    0  0.00000000000E+00 -0.00000000000E+00 -0.22385451264E+04  0.22385451264E+04  0.00000000000E+00 0.  1.
   -9000010    2    1    2    0  501  0.50618022934E+03 -0.19253306644E+03 -0.38787268234E+03  0.11918875280E+04  0.98836392866E+03 0.  0.
    9000010    2    1    2  502    0 -0.50618022934E+03  0.19253306644E+03 -0.12250103708E+04  0.16723196717E+04  0.10013567144E+04 0.  0.
        -13    1    4    4    0    0 -0.76535662655E+02 -0.27969360419E+03  0.10709314963E+01  0.28997823702E+03  0.10566000000E+00 0.  1.
          4    1    4    4  502    0 -0.42964456668E+03  0.47222667064E+03 -0.12260813023E+04  0.13823414347E+04  0.00000000000E+00 0.  1.
         13    1    3    3    0    0 -0.20206366624E+03  0.22226100569E+03 -0.15867493647E+03  0.33971668563E+03  0.10566000000E+00 0. -1.
         -4    1    3    3    0  501  0.70824389558E+03 -0.41479407213E+03 -0.22919774587E+03  0.85217084239E+03  0.00000000000E+00 0. -1.
<mgrwt>
<rscale>  0 0.11327010E+04</rscale>
<asrwt>0</asrwt>
<pdfrwt beam="2">  1        4 0.34439155E+00 0.11384211E+04</pdfrwt>
<pdfrwt beam="1">  1       -4 0.96255705E-01 0.11270096E+04</pdfrwt>
<totfact> 0.24061740E-01</totfact>
</mgrwt>
</event>
<event>
 8    1  0.3025584E-006  0.1340125E+04  0.7818608E-02  0.8510118E-01
          4   -1    0    0  502    0  0.00000000000E+00  0.00000000000E+00  0.22015499983E+04  0.22015499983E+04  0.00000000000E+00 0.  1.
         -4   -1    0    0    0  501 -0.00000000000E+00 -0.00000000000E+00 -0.23326062395E+04  0.23326062395E+04  0.00000000000E+00 0. -1.
   -9000010    2    1    2    0  501  0.88242799209E+03 -0.43393130858E+02 -0.18962000075E+04  0.23219625158E+04  0.10076573483E+04 0.  0.
    9000010    2    1    2  502    0 -0.88242799209E+03  0.43393130858E+02  0.17651437664E+04  0.22121937220E+04  0.99875243312E+03 0.  0.
        -13    1    4    4    0    0  0.25833919727E+02  0.26328694286E+03  0.90224930816E+03  0.94023466801E+03  0.10566000000E+00 0.  1.
          4    1    4    4  502    0 -0.90826191181E+03 -0.21989381200E+03  0.86289445820E+03  0.12719590540E+04  0.00000000000E+00 0.  1.
         13    1    3    3    0    0  0.10469553949E+03 -0.40302518688E+03 -0.99406898706E+03  0.10777586091E+04  0.10566000000E+00 0. -1.
         -4    1    3    3    0  501  0.77773245260E+03  0.35963205602E+03 -0.90213102043E+03  0.12442039068E+04  0.00000000000E+00 0. -1.
<mgrwt>
<rscale>  0 0.13367796E+04</rscale>
<asrwt>0</asrwt>
<pdfrwt beam="1">  1        4 0.33870000E+00 0.13334424E+04</pdfrwt>
<pdfrwt beam="2">  1       -4 0.35886250E+00 0.13401252E+04</pdfrwt>
<totfact> 0.28875957E-02</totfact>
</mgrwt>
</event>
<event>
 8    1  0.3025584E-006  0.1201959E+04  0.7818608E-02  0.8616315E-01
         -4   -1    0    0    0  501 -0.00000000000E+00  0.00000000000E+00  0.23883280969E+04  0.23883280969E+04  0.00000000000E+00 0. -1.
          4   -1    0    0  502    0  0.00000000000E+00 -0.00000000000E+00 -0.11993894237E+04  0.11993894237E+04  0.00000000000E+00 0.  1.
   -9000010    2    1    2    0  501  0.61549059985E+03  0.71172126335E+02  0.18765425686E+04  0.22284789958E+04  0.10299575102E+04 0.  0.
    9000010    2    1    2  502    0 -0.61549059985E+03 -0.71172126335E+02 -0.68760389537E+03  0.13592385248E+04  0.99540750468E+03 0.  0.
        -13    1    4    4    0    0 -0.16590723331E+03  0.29903638231E+03 -0.69743447754E+03  0.77676433339E+03  0.10566000000E+00 0.  1.
          4    1    4    4  502    0 -0.44958336654E+03 -0.37020850864E+03  0.98305821630E+01  0.58247419144E+03  0.00000000000E+00 0.  1.
         13    1    3    3    0    0  0.86028758916E+03  0.18199166222E+03  0.16777786765E+04  0.18942431206E+04  0.10566000000E+00 0. -1.
         -4    1    3    3    0  501 -0.24479698930E+03 -0.11081953589E+03  0.19876389201E+03  0.33423587521E+03  0.00000000000E+00 0. -1.
<mgrwt>
<rscale>  0 0.11871328E+04</rscale>
<asrwt>0</asrwt>
<pdfrwt beam="2">  1        4 0.18452145E+00 0.11724889E+04</pdfrwt>
<pdfrwt beam="1">  1       -4 0.36743509E+00 0.12019595E+04</pdfrwt>
<totfact> 0.69943698E-02</totfact>
</mgrwt>
</event>
<event>
 8    1  0.3025584E-006  0.1069492E+04  0.7818608E-02  0.8717041E-01
          4   -1    0    0  502    0  0.00000000000E+00  0.00000000000E+00  0.31714209984E+04  0.31714209984E+04  0.00000000000E+00 0.  1.
         -4   -1    0    0    0  501 -0.00000000000E+00 -0.00000000000E+00 -0.17762545395E+04  0.17762545395E+04  0.00000000000E+00 0. -1.
   -9000010    2    1    2    0  501 -0.34175648516E+03  0.49445168890E+01 -0.15147271366E+04  0.18474667332E+04  0.10009560872E+04 0.  0.
    9000010    2    1    2  502    0  0.34175648516E+03 -0.49445168890E+01  0.29098935955E+04  0.31002088047E+04  0.10134061142E+04 0.  0.
        -13    1    4    4    0    0  0.62767772375E+03 -0.95122924659E+02  0.11377354973E+04  0.13028698203E+04  0.10566000000E+00 0.  1.
          4    1    4    4  502    0 -0.28592123860E+03  0.90178407770E+02  0.17721580981E+04  0.17973389843E+04  0.00000000000E+00 0.  1.
         13    1    3    3    0    0 -0.28810736867E+03 -0.12482148711E+03  0.12079332578E+02  0.31421677384E+03  0.10566000000E+00 0. -1.
         -4    1    3    3    0  501 -0.53649116487E+02  0.12976600400E+03 -0.15268064692E+04  0.15332499594E+04  0.00000000000E+00 0. -1.
<mgrwt>
<rscale>  0 0.10635812E+04</rscale>
<asrwt>0</asrwt>
<pdfrwt beam="1">  1        4 0.48791092E+00 0.10694924E+04</pdfrwt>
<pdfrwt beam="2">  1       -4 0.27326993E+00 0.10577027E+04</pdfrwt>
<totfact> 0.12815145E-02</totfact>
</mgrwt>
</event>
<event>
 8    1  0.3025584E-006  0.1029219E+04  0.7818608E-02  0.8749446E-01
         -4   -1    0    0    0  501 -0.00000000000E+00  0.00000000000E+00  0.23887258616E+04  0.23887258616E+04  0.00000000000E+00 0. -1.
          4   -1    0    0  502    0  0.00000000000E+00 -0.00000000000E+00 -0.58590690990E+03  0.58590690990E+03  0.00000000000E+00 0.  1.
   -9000010    2    1    2    0  501 -0.27621442265E+03  0.65340820224E+02  0.16405692129E+04  0.19366875034E+04  0.98930648106E+03 0.  0.
    9000010    2    1    2  502    0  0.27621442265E+03 -0.65340820224E+02  0.16224973876E+03  0.10379452681E+04  0.98510992873E+03 0.  0.
        -13    1    4    4    0    0 -0.92956896788E+02  0.50433277251E+02 -0.36723908882E+03  0.38216365557E+03  0.10566000000E+00 0.  1.
          4    1    4    4  502    0  0.36917131944E+03 -0.11577409747E+03  0.52948882758E+03  0.65578161249E+03  0.00000000000E+00 0.  1.
         13    1    3    3    0    0  0.27715640188E+03  0.28075635806E+03  0.40263969050E+03  0.56370074971E+03  0.10566000000E+00 0. -1.
         -4    1    3    3    0  501 -0.55337082454E+03 -0.21541553784E+03  0.12379295224E+04  0.13729867537E+04  0.00000000000E+00 0. -1.
<mgrwt>
<rscale>  0 0.10272001E+04</rscale>
<asrwt>0</asrwt>
<pdfrwt beam="2">  1        4 0.90139526E-01 0.10251855E+04</pdfrwt>
<pdfrwt beam="1">  1       -4 0.36749628E+00 0.10292187E+04</pdfrwt>
<totfact> 0.22889060E-01</totfact>
</mgrwt>
</event>
<event>
 8    1  0.3025584E-006  0.1024266E+04  0.7818608E-02  0.8756498E-01
         -4   -1    0    0    0  501 -0.00000000000E+00  0.00000000000E+00  0.20424135716E+04  0.20424135716E+04  0.00000000000E+00 0. -1.
          4   -1    0    0  502    0  0.00000000000E+00 -0.00000000000E+00 -0.19395350096E+04  0.19395350096E+04  0.00000000000E+00 0.  1.
   -9000010    2    1    2    0  501 -0.84501993699E+02  0.14058053335E+03  0.17613171311E+04  0.20327080226E+04  0.10013792466E+04 0.  0.
    9000010    2    1    2  502    0  0.84501993699E+02 -0.14058053335E+03 -0.16584385692E+04  0.19492405586E+04  0.10110473750E+04 0.  0.
        -13    1    4    4    0    0 -0.42589401514E+02 -0.48756982580E+03 -0.38335842814E+03  0.62169275993E+03  0.10566000000E+00 0.  1.
          4    1    4    4  502    0  0.12709139521E+03  0.34698929246E+03 -0.12750801410E+04  0.13275477987E+04  0.00000000000E+00 0.  1.
         13    1    3    3    0    0 -0.27966419631E+03 -0.22857443280E+03  0.14936826825E+04  0.15367323453E+04  0.10566000000E+00 0. -1.
         -4    1    3    3    0  501  0.19516220261E+03  0.36915496615E+03  0.26763444864E+03  0.49597567729E+03  0.00000000000E+00 0. -1.
<mgrwt>
<rscale>  0 0.10194835E+04</rscale>
<asrwt>0</asrwt>
<pdfrwt beam="2">  1        4 0.29839000E+00 0.10242657E+04</pdfrwt>
<pdfrwt beam="1">  1       -4 0.31421747E+00 0.10147235E+04</pdfrwt>
<totfact> 0.53588730E-02</totfact>
</mgrwt>
</event>
<event>
 8    1  0.3025584E-006  0.1087662E+04  0.7818608E-02  0.8706181E-01
          4   -1    0    0  502    0  0.00000000000E+00  0.00000000000E+00  0.49490806274E+03  0.49490806274E+03  0.00000000000E+00 0.  1.
         -4   -1    0    0    0  501 -0.00000000000E+00 -0.00000000000E+00 -0.24429536538E+04  0.24429536538E+04  0.00000000000E+00 0. -1.
   -9000010    2    1    2    0  501  0.34354092343E+03 -0.10884212372E+03 -0.12852496810E+04  0.16837088911E+04  0.10262270282E+04 0.  0.
    9000010    2    1    2  502    0 -0.34354092343E+03  0.10884212372E+03 -0.66279591007E+03  0.12541528255E+04  0.10018652191E+04 0.  0.
        -13    1    4    4    0    0  0.20266336760E+03  0.28982036191E+03  0.28408005100E+02  0.35478910448E+03  0.10566000000E+00 0.  1.
          4    1    4    4  502    0 -0.54620429103E+03 -0.18097823819E+03 -0.69120391517E+03  0.89936372097E+03  0.00000000000E+00 0.  1.
         13    1    3    3    0    0 -0.20831773913E+03 -0.40808871940E+03 -0.49601568969E+03  0.67525125614E+03  0.10566000000E+00 0. -1.
         -4    1    3    3    0  501  0.55185866256E+03  0.29924659568E+03 -0.78923399135E+03  0.10084576350E+04  0.00000000000E+00 0. -1.
<mgrwt>
<rscale>  0 0.10761233E+04</rscale>
<asrwt>0</asrwt>
<pdfrwt beam="1">  1        4 0.76139705E-01 0.10647070E+04</pdfrwt>
<pdfrwt beam="2">  1       -4 0.37583901E+00 0.10876621E+04</pdfrwt>
<totfact> 0.29996552E-01</totfact>
</mgrwt>
</event>
<event>
 8    1  0.3025584E-006  0.1464765E+04  0.7818608E-02  0.8436551E-01
          4   -1    0    0  502    0  0.00000000000E+00  0.00000000000E+00  0.20567037331E+04  0.20567037331E+04  0.00000000000E+00 0.  1.
         -4   -1    0    0    0  501 -0.00000000000E+00 -0.00000000000E+00 -0.10362080460E+04  0.10362080460E+04  0.00000000000E+00 0. -1.
   -9000010    2    1    2    0  501 -0.76489765104E+03 -0.72554631145E+03  0.36710778118E+03  0.14890256225E+04  0.98536455942E+03 0.  0.
    9000010    2    1    2  502    0  0.76489765104E+03  0.72554631145E+03  0.65338790593E+03  0.16038861566E+04  0.10168820882E+04 0.  0.
        -13    1    4    4    0    0  0.58311099644E+03  0.28825776103E+02 -0.64177711262E+02  0.58733989250E+03  0.10566000000E+00 0.  1.
          4    1    4    4  502    0  0.18178665461E+03  0.69672053535E+03  0.71756561719E+03  0.10165462641E+04  0.00000000000E+00 0.  1.
         13    1    3    3    0    0 -0.78143685780E+03 -0.75284712280E+02  0.27623797107E+03  0.83223721285E+03  0.10566000000E+00 0. -1.
         -4    1    3    3    0  501  0.16539206756E+02 -0.65026159917E+03  0.90869810111E+02  0.65678840969E+03  0.00000000000E+00 0. -1.
<mgrwt>
<rscale>  0 0.14538730E+04</rscale>
<asrwt>0</asrwt>
<pdfrwt beam="1">  1        4 0.31641596E+00 0.14647645E+04</pdfrwt>
<pdfrwt beam="2">  1       -4 0.15941662E+00 0.14430624E+04</pdfrwt>
<totfact> 0.12281778E-01</totfact>
</mgrwt>
</event>
<event>
 8    1  0.3025584E-006  0.1138015E+04  0.7818608E-02  0.8679110E-01
         -4   -1    0    0    0  501 -0.00000000000E+00  0.00000000000E+00  0.30613940002E+04  0.30613940002E+04  0.00000000000E+00 0. -1.
          4   -1    0    0  502    0  0.00000000000E+00 -0.00000000000E+00 -0.70493160870E+03  0.70493160870E+03  0.00000000000E+00 0.  1.
   -9000010    2    1    2    0  501 -0.45937027036E+03  0.80212872473E+02  0.23958135444E+04  0.26276299931E+04  0.97317094649E+03 0.  0.
    9000010    2    1    2  502    0  0.45937027036E+03 -0.80212872473E+02 -0.39351152884E+02  0.11386956158E+04  0.10380867218E+04 0.  0.
        -13    1    4    4    0    0  0.45257577019E+03  0.31157213694E+03 -0.33881565780E+03  0.64552156076E+03  0.10566000000E+00 0.  1.
          4    1    4    4  502    0  0.67945001710E+01 -0.39178500942E+03  0.29946450491E+03  0.49317405501E+03  0.00000000000E+00 0.  1.
         13    1    3    3    0    0 -0.14654295151E+03  0.49853055217E+03  0.15367608540E+04  0.16222334856E+04  0.10566000000E+00 0. -1.
         -4    1    3    3    0  501 -0.31282731885E+03 -0.41831767970E+03  0.85905269033E+03  0.10053965075E+04  0.00000000000E+00 0. -1.
<mgrwt>
<rscale>  0 0.11081806E+04</rscale>
<asrwt>0</asrwt>
<pdfrwt beam="2">  1        4 0.10845102E+00 0.11380155E+04</pdfrwt>
<pdfrwt beam="1">  1       -4 0.47098369E+00 0.10791278E+04</pdfrwt>
<totfact> 0.58447816E-02</totfact>
</mgrwt>
</event>
<event>
 8    1  0.3025584E-006  0.1329253E+04  0.7818608E-02  0.8530095E-01
          4   -1    0    0  502    0  0.00000000000E+00  0.00000000000E+00  0.12958496566E+04  0.12958496566E+04  0.00000000000E+00 0.  1.
         -4   -1    0    0    0  501 -0.00000000000E+00 -0.00000000000E+00 -0.28189612010E+04  0.28189612010E+04  0.00000000000E+00 0. -1.
   -9000010    2    1    2    0  501 -0.88179835805E+03 -0.17435917946E+02 -0.22684796462E+04  0.26292418310E+04  0.99450507559E+03 0.  0.
    9000010    2    1    2  502    0  0.88179835805E+03  0.17435917946E+02  0.74536810176E+03  0.14855690266E+04  0.93459583249E+03 0.  0.
        -13    1    4    4    0    0  0.91126996460E+03 -0.16689293695E+03  0.86202436031E+03  0.12654454590E+04  0.10566000000E+00 0.  1.
          4    1    4    4  502    0 -0.29471606546E+02  0.18432885489E+03 -0.11665625856E+03  0.22012356757E+03  0.00000000000E+00 0.  1.
         13    1    3    3    0    0 -0.28099605245E+03 -0.45976121059E+03 -0.63065938601E+03  0.82950010523E+03  0.10566000000E+00 0. -1.
         -4    1    3    3    0  501 -0.60080230560E+03  0.44232529264E+03 -0.16378202602E+04  0.17997417258E+04  0.00000000000E+00 0. -1.
<mgrwt>
<rscale>  0 0.13069622E+04</rscale>
<asrwt>0</asrwt>
<pdfrwt beam="1">  1        4 0.19936149E+00 0.12850454E+04</pdfrwt>
<pdfrwt beam="2">  1       -4 0.43368633E+00 0.13292527E+04</pdfrwt>
<totfact> 0.33893168E-02</totfact>
</mgrwt>
</event>
<event>
 8    1  0.3025584E-006  0.2547638E+04  0.7818608E-02  0.7979273E-01
          4   -1    0    0  502    0  0.00000000000E+00  0.00000000000E+00  0.31040021843E+04  0.31040021843E+04  0.00000000000E+00 0. -1.
         -4   -1    0    0    0  501 -0.00000000000E+00 -0.00000000000E+00 -0.20793310646E+04  0.20793310646E+04  0.00000000000E+00 0.  1.
   -9000010    2    1    2    0  501  0.22128931493E+04 -0.69417225168E+03  0.37602127707E+03  0.25752384050E+04  0.10543669364E+04 0.  0.
    9000010    2    1    2  502    0 -0.22128931493E+04  0.69417225168E+03  0.64864984268E+03  0.26080948439E+04  0.10013195750E+04 0.  0.
        -13    1    4    4    0    0 -0.16346096103E+04  0.94772376417E+03  0.41270829224E+03  0.19340261262E+04  0.10566000000E+00 0.  1.
          4    1    4    4  502    0 -0.57828353902E+03 -0.25355151249E+03  0.23594155043E+03  0.67406871772E+03  0.00000000000E+00 0.  1.
         13    1    3    3    0    0  0.68612096445E+03  0.27386790342E+03  0.14318550512E+03  0.75250761220E+03  0.10566000000E+00 0. -1.
         -4    1    3    3    0  501  0.15267721848E+04 -0.96804015511E+03  0.23283577195E+03  0.18227307928E+04  0.00000000000E+00 0. -1.
<mgrwt>
<rscale>  0 0.25368692E+04</rscale>
<asrwt>0</asrwt>
<pdfrwt beam="1">  1        4 0.47753880E+00 0.25261457E+04</pdfrwt>
<pdfrwt beam="2">  1       -4 0.31989709E+00 0.25476383E+04</pdfrwt>
<totfact> 0.91408111E-03</totfact>
</mgrwt>
</event>
<event>
 8    1  0.3025584E-006  0.1171163E+04  0.7818608E-02  0.8628666E-01
         -4   -1    0    0    0  501 -0.00000000000E+00  0.00000000000E+00  0.55317559523E+03  0.55317559523E+03  0.00000000000E+00 0. -1.
          4   -1    0    0  502    0  0.00000000000E+00 -0.00000000000E+00 -0.32558533054E+04  0.32558533054E+04  0.00000000000E+00 0.  1.
   -9000010    2    1    2    0  501 -0.63169039513E+03 -0.98788122603E+02 -0.42107323036E+03  0.12443958228E+04  0.98103335820E+03 0.  0.
    9000010    2    1    2  502    0  0.63169039513E+03  0.98788122603E+02 -0.22816044798E+04  0.25646330779E+04  0.98124001826E+03 0.  0.
        -13    1    4    4    0    0  0.74253532432E+03 -0.26684546345E+03 -0.15502717706E+04  0.17395136628E+04  0.10566000000E+00 0.  1.
          4    1    4    4  502    0 -0.11084492919E+03  0.36563358605E+03 -0.73133270925E+03  0.82511941511E+03  0.00000000000E+00 0.  1.
         13    1    3    3    0    0 -0.20673685922E+03 -0.24853333535E+03 -0.65961904138E+03  0.73457895331E+03  0.10566000000E+00 0. -1.
         -4    1    3    3    0  501 -0.42495353591E+03  0.14974521274E+03  0.23854581101E+03  0.50981686944E+03  0.00000000000E+00 0. -1.
<mgrwt>
<rscale>  0 0.11710769E+04</rscale>
<asrwt>0</asrwt>
<pdfrwt beam="2">  1        4 0.50090050E+00 0.11711634E+04</pdfrwt>
<pdfrwt beam="1">  1       -4 0.85103939E-01 0.11709903E+04</pdfrwt>
<totfact> 0.67298441E-02</totfact>
</mgrwt>
</event>
<event>
 8    1  0.3025584E-006  0.1042224E+04  0.7818608E-02  0.8737341E-01
         -4   -1    0    0    0  501 -0.00000000000E+00  0.00000000000E+00  0.18683175297E+04  0.18683175297E+04  0.00000000000E+00 0. -1.
          4   -1    0    0  502    0  0.00000000000E+00 -0.00000000000E+00 -0.14666389148E+04  0.14666389148E+04  0.00000000000E+00 0.  1.
   -9000010    2    1    2    0  501 -0.73360446834E+02 -0.26167439058E+03  0.14975064846E+04  0.18226506858E+04  0.10028332907E+04 0.  0.
    9000010    2    1    2  502    0  0.73360446834E+02  0.26167439058E+03 -0.10958278698E+04  0.15123057588E+04  0.10061683487E+04 0.  0.
        -13    1    4    4    0    0  0.35831195166E+03 -0.23001002300E+03 -0.25140955418E+03  0.49446824011E+03  0.10566000000E+00 0.  1.
          4    1    4    4  502    0 -0.28495150482E+03  0.49168441358E+03 -0.84441831559E+03  0.10178375186E+04  0.00000000000E+00 0.  1.
         13    1    3    3    0    0 -0.28234184541E+03  0.23609396315E+03  0.10775905084E+04  0.11387091780E+04  0.10566000000E+00 0. -1.
         -4    1    3    3    0  501  0.20898139858E+03 -0.49776835373E+03  0.41991597623E+03  0.68394150775E+03  0.00000000000E+00 0. -1.
<mgrwt>
<rscale>  0 0.10406127E+04</rscale>
<asrwt>0</asrwt>
<pdfrwt beam="2">  1        4 0.22563676E+00 0.10422236E+04</pdfrwt>
<pdfrwt beam="1">  1       -4 0.28743347E+00 0.10390043E+04</pdfrwt>
<totfact> 0.95126137E-02</totfact>
</mgrwt>
</event>
<event>
 8    1  0.3025584E-006  0.1113959E+04  0.7818608E-02  0.8675005E-01
          4   -1    0    0  502    0  0.00000000000E+00  0.00000000000E+00  0.10936160454E+04  0.10936160454E+04  0.00000000000E+00 0.  1.
         -4   -1    0    0    0  501 -0.00000000000E+00 -0.00000000000E+00 -0.37461927183E+04  0.37461927183E+04  0.00000000000E+00 0. -1.
   -9000010    2    1    2    0  501 -0.43339059937E+02 -0.43452919895E+03 -0.33476793288E+04  0.35281527820E+04  0.10247981586E+04 0.  0.
    9000010    2    1    2  502    0  0.43339059937E+02  0.43452919895E+03  0.69510265592E+03  0.13116559817E+04  0.10230248351E+04 0.  0.
        -13    1    4    4    0    0 -0.22091528340E+03  0.68283966609E+03  0.30722976017E+03  0.78068156679E+03  0.10566000000E+00 0.  1.
          4    1    4    4  502    0  0.26425434334E+03 -0.24831046714E+03  0.38787289575E+03  0.53097441494E+03  0.00000000000E+00 0.  1.
         13    1    3    3    0    0 -0.33197526411E+03  0.17592995634E+03 -0.68592867130E+03  0.78208508412E+03  0.10566000000E+00 0. -1.
         -4    1    3    3    0  501  0.28863620418E+03 -0.61045915529E+03 -0.26617506575E+04  0.27460676979E+04  0.00000000000E+00 0. -1.
<mgrwt>
<rscale>  0 0.11131433E+04</rscale>
<asrwt>0</asrwt>
<pdfrwt beam="1">  1        4 0.16824862E+00 0.11123281E+04</pdfrwt>
<pdfrwt beam="2">  1       -4 0.57633734E+00 0.11139592E+04</pdfrwt>
<totfact> 0.88481929E-03</totfact>
</mgrwt>
</event>
<event>
 8    1  0.3025584E-006  0.1753615E+04  0.7818608E-02  0.8284245E-01
         -4   -1    0    0    0  501 -0.00000000000E+00  0.00000000000E+00  0.29156092981E+04  0.29156092981E+04  0.00000000000E+00 0. -1.
          4   -1    0    0  502    0  0.00000000000E+00 -0.00000000000E+00 -0.14031020481E+04  0.14031020481E+04  0.00000000000E+00 0.  1.
   -9000010    2    1    2    0  501  0.13354555783E+03  0.13980338260E+04  0.18553753404E+04  0.25318916598E+04  0.99786007467E+03 0.  0.
    9000010    2    1    2  502    0 -0.13354555783E+03 -0.13980338260E+04 -0.34286809039E+03  0.17868196864E+04  0.10501585926E+04 0.  0.
        -13    1    4    4    0    0 -0.68754257047E+02 -0.49953155330E+03 -0.66107771046E+03  0.83143410505E+03  0.10566000000E+00 0.  1.
          4    1    4    4  502    0 -0.64791300784E+02 -0.89850227274E+03  0.31820962007E+03  0.95538558137E+03  0.00000000000E+00 0.  1.
         13    1    3    3    0    0  0.50115049876E+03  0.46007518257E+03  0.50561123564E+03  0.84762239753E+03  0.10566000000E+00 0. -1.
         -4    1    3    3    0  501 -0.36760494093E+03  0.93795864347E+03  0.13497641047E+04  0.16842692623E+04  0.00000000000E+00 0. -1.
<mgrwt>
<rscale>  0 0.17381419E+04</rscale>
<asrwt>0</asrwt>
<pdfrwt beam="2">  1        4 0.21586185E+00 0.17536151E+04</pdfrwt>
<pdfrwt beam="1">  1       -4 0.44855527E+00 0.17228052E+04</pdfrwt>
<totfact> 0.25175029E-02</totfact>
</mgrwt>
</event>
<event>
 8    1  0.3025584E-006  0.1081850E+04  0.7818608E-02  0.8705087E-01
         -4   -1    0    0    0  501 -0.00000000000E+00  0.00000000000E+00  0.26671572732E+04  0.26671572732E+04  0.00000000000E+00 0. -1.
          4   -1    0    0  502    0  0.00000000000E+00 -0.00000000000E+00 -0.61006126794E+03  0.61006126794E+03  0.00000000000E+00 0.  1.
   -9000010    2    1    2    0  501  0.36162185171E+03 -0.19961533054E+03  0.19087906349E+04  0.21940558374E+04  0.99989133704E+03 0.  0.
    9000010    2    1    2  502    0 -0.36162185171E+03  0.19961533054E+03  0.14830537036E+03  0.10831627038E+04  0.99026780021E+03 0.  0.
        -13    1    4    4    0    0  0.39186856259E+02 -0.84161644095E+01  0.50568845687E+03  0.50727435191E+03  0.10566000000E+00 0.  1.
          4    1    4    4  502    0 -0.40080870797E+03  0.20803149495E+03 -0.35738308651E+03  0.57588835185E+03  0.00000000000E+00 0.  1.
         13    1    3    3    0    0  0.71135257932E+03 -0.16566529411E+03  0.12757252385E+04  0.14700144139E+04  0.10566000000E+00 0. -1.
         -4    1    3    3    0  501 -0.34973072761E+03 -0.33950036423E+02  0.63306539646E+03  0.72404142354E+03  0.00000000000E+00 0. -1.
<mgrwt>
<rscale>  0 0.10773967E+04</rscale>
<asrwt>0</asrwt>
<pdfrwt beam="2">  1        4 0.93855581E-01 0.10729618E+04</pdfrwt>
<pdfrwt beam="1">  1       -4 0.41033188E+00 0.10818500E+04</pdfrwt>
<totfact> 0.14393661E-01</totfact>
</mgrwt>
</event>
<event>
 8    1  0.3025584E-006  0.1245656E+04  0.7818608E-02  0.8607040E-01
          4   -1    0    0  502    0  0.00000000000E+00  0.00000000000E+00  0.12045920596E+04  0.12045920596E+04  0.00000000000E+00 0.  1.
         -4   -1    0    0    0  501 -0.00000000000E+00 -0.00000000000E+00 -0.15468910779E+04  0.15468910779E+04  0.00000000000E+00 0. -1.
   -9000010    2    1    2    0  501  0.18056140417E+03  0.55537072688E+03 -0.83113862079E+03  0.14974809563E+04  0.11002812107E+04 0.  0.
    9000010    2    1    2  502    0 -0.18056140417E+03 -0.55537072688E+03  0.48883960245E+03  0.12540021811E+04  0.99625210083E+03 0.  0.
        -13    1    4    4    0    0 -0.47294663828E+03 -0.56066543612E+03  0.61353987415E+02  0.73606288920E+03  0.10566000000E+00 0.  1.
          4    1    4    4  502    0  0.29238523411E+03  0.52947092372E+01  0.42748561503E+03  0.51793929193E+03  0.00000000000E+00 0.  1.
         13    1    3    3    0    0 -0.36773813637E+03  0.55699656912E+03 -0.61671449353E+03  0.90874269881E+03  0.10566000000E+00 0. -1.
         -4    1    3    3    0  501  0.54829954054E+03 -0.16258422447E+01 -0.21442412726E+03  0.58873825753E+03  0.00000000000E+00 0. -1.
<mgrwt>
<rscale>  0 0.11993665E+04</rscale>
<asrwt>0</asrwt>
<pdfrwt beam="1">  1        4 0.18532186E+00 0.11547975E+04</pdfrwt>
<pdfrwt beam="2">  1       -4 0.23798324E+00 0.12456556E+04</pdfrwt>
<totfact> 0.15971072E-01</totfact>
</mgrwt>
</event>
<event>
 8    1  0.3025584E-006  0.1243858E+04  0.7818608E-02  0.8575388E-01
         -4   -1    0    0    0  501 -0.00000000000E+00  0.00000000000E+00  0.20167447881E+04  0.20167447881E+04  0.00000000000E+00 0. -1.
          4   -1    0    0  502    0  0.00000000000E+00 -0.00000000000E+00 -0.95518951108E+03  0.95518951108E+03  0.00000000000E+00 0.  1.
   -9000010    2    1    2    0  501 -0.69060697236E+03  0.27400937367E+03  0.11929160805E+04  0.17211595063E+04  0.99364085257E+03 0.  0.
    9000010    2    1    2  502    0  0.69060697236E+03 -0.27400937367E+03 -0.13136080356E+03  0.12507747928E+04  0.99757846533E+03 0.  0.
        -13    1    4    4    0    0  0.18563772667E+02 -0.39860667041E+03 -0.35245797952E+03  0.53240823608E+03  0.10566000000E+00 0.  1.
          4    1    4    4  502    0  0.67204319969E+03  0.12459729674E+03  0.22109717596E+03  0.71836655673E+03  0.00000000000E+00 0.  1.
         13    1    3    3    0    0  0.83719425685E+01 -0.28209921554E+02  0.90740091514E+03  0.90787792189E+03  0.10566000000E+00 0. -1.
         -4    1    3    3    0  501 -0.69897891493E+03  0.30221929522E+03  0.28551516540E+03  0.81328158444E+03  0.00000000000E+00 0. -1.
<mgrwt>
<rscale>  0 0.12422788E+04</rscale>
<asrwt>0</asrwt>
<pdfrwt beam="2">  1        4 0.14695223E+00 0.12438577E+04</pdfrwt>
<pdfrwt beam="1">  1       -4 0.31026843E+00 0.12407019E+04</pdfrwt>
<totfact> 0.14568741E-01</totfact>
</mgrwt>
</event>
<event>
 8    1  0.3025584E-006  0.1238072E+04  0.7818608E-02  0.8593531E-01
          4   -1    0    0  502    0  0.00000000000E+00  0.00000000000E+00  0.28597759953E+04  0.28597759953E+04  0.00000000000E+00 0.  1.
         -4   -1    0    0    0  501 -0.00000000000E+00 -0.00000000000E+00 -0.13573456015E+04  0.13573456015E+04  0.00000000000E+00 0. -1.
   -9000010    2    1    2    0  501 -0.60866118572E+03  0.21611518996E+03 -0.90154633111E+03  0.15315379567E+04  0.10562426385E+04 0.  0.
    9000010    2    1    2  502    0  0.60866118572E+03 -0.21611518996E+03  0.24039767249E+04  0.26855836401E+04  0.10080085218E+04 0.  0.
        -13    1    4    4    0    0 -0.25818267714E+03 -0.20582989022E+03  0.67815112347E+03  0.75426334652E+03  0.10566000000E+00 0.  1.
          4    1    4    4  502    0  0.86684386285E+03 -0.10285299740E+02  0.17258256014E+04  0.19313202936E+04  0.00000000000E+00 0.  1.
         13    1    3    3    0    0  0.82426817517E+02  0.14749226204E+03  0.17957872133E+03  0.24656981958E+03  0.10566000000E+00 0. -1.
         -4    1    3    3    0  501 -0.69108800323E+03  0.68622927924E+02 -0.10811250524E+04  0.12849681371E+04  0.00000000000E+00 0. -1.
<mgrwt>
<rscale>  0 0.12174577E+04</rscale>
<asrwt>0</asrwt>
<pdfrwt beam="1">  1        4 0.43996554E+00 0.11971864E+04</pdfrwt>
<pdfrwt beam="2">  1       -4 0.20882240E+00 0.12380722E+04</pdfrwt>
<totfact> 0.30290657E-02</totfact>
</mgrwt>
</event>
<event>
 8    1  0.3025584E-006  0.1178814E+04  0.7818608E-02  0.8622705E-01
         -4   -1    0    0    0  501 -0.00000000000E+00  0.00000000000E+00  0.25992443432E+04  0.25992443432E+04  0.00000000000E+00 0. -1.
          4   -1    0    0  502    0  0.00000000000E+00 -0.00000000000E+00 -0.11121387578E+04  0.11121387578E+04  0.00000000000E+00 0.  1.
   -9000010    2    1    2    0  501  0.62067117355E+03  0.54835481153E+02  0.20808243312E+04  0.23915335682E+04  0.10006814052E+04 0.  0.
    9000010    2    1    2  502    0 -0.62067117355E+03 -0.54835481153E+02 -0.59371874577E+03  0.13198495328E+04  0.10006304036E+04 0.  0.
        -13    1    4    4    0    0 -0.87376962402E+03 -0.17463081191E+03 -0.51415001092E+03  0.10287465777E+04  0.10566000000E+00 0.  1.
          4    1    4    4  502    0  0.25309845047E+03  0.11979533075E+03 -0.79568734845E+02  0.29110295510E+03  0.00000000000E+00 0.  1.
         13    1    3    3    0    0  0.28035622199E+03 -0.12504498778E+03  0.19660288061E+04  0.19898505315E+04  0.10566000000E+00 0. -1.
         -4    1    3    3    0  501  0.34031495156E+03  0.17988046893E+03  0.11479552510E+03  0.40168303666E+03  0.00000000000E+00 0. -1.
<mgrwt>
<rscale>  0 0.11787925E+04</rscale>
<asrwt>0</asrwt>
<pdfrwt beam="2">  1        4 0.17109827E+00 0.11787709E+04</pdfrwt>
<pdfrwt beam="1">  1       -4 0.39988374E+00 0.11788142E+04</pdfrwt>
<totfact> 0.58562238E-02</totfact>
</mgrwt>
</event>
<event>
 8    1  0.3025584E-006  0.1115420E+04  0.7818608E-02  0.8674664E-01
         -4   -1    0    0    0  501 -0.00000000000E+00  0.00000000000E+00  0.10670643351E+04  0.10670643351E+04  0.00000000000E+00 0. -1.
          4   -1    0    0  502    0  0.00000000000E+00 -0.00000000000E+00 -0.14159527470E+04  0.14159527470E+04  0.00000000000E+00 0.  1.
   -9000010    2    1    2    0  501  0.37829170980E+03 -0.27008355056E+03  0.35101244685E+03  0.11693467607E+04  0.10139587600E+04 0.  0.
    9000010    2    1    2  502    0 -0.37829170980E+03  0.27008355056E+03 -0.69990085869E+03  0.13136703214E+04  0.10098607624E+04 0.  0.
        -13    1    4    4    0    0 -0.80900202519E+02  0.97063379599E+02  0.26265643032E+03  0.29146964504E+03  0.10566000000E+00 0.  1.
          4    1    4    4  502    0 -0.29739150728E+03  0.17302017096E+03 -0.96255728901E+03  0.10222006764E+04  0.00000000000E+00 0.  1.
         13    1    3    3    0    0  0.24662337073E+03  0.11641185467E+03 -0.29713183548E+03  0.40331395428E+03  0.10566000000E+00 0. -1.
         -4    1    3    3    0  501  0.13166833907E+03 -0.38649540523E+03  0.64814428232E+03  0.76603280640E+03  0.00000000000E+00 0. -1.
<mgrwt>
<rscale>  0 0.11135566E+04</rscale>
<asrwt>0</asrwt>
<pdfrwt beam="2">  1        4 0.21783888E+00 0.11116962E+04</pdfrwt>
<pdfrwt beam="1">  1       -4 0.16416374E+00 0.11154201E+04</pdfrwt>
<totfact> 0.21311924E-01</totfact>
</mgrwt>
</event>
<event>
 8    1  0.3025584E-006  0.1121716E+04  0.7818608E-02  0.8671986E-01
          4   -1    0    0  502    0  0.00000000000E+00  0.00000000000E+00  0.16351108980E+04  0.16351108980E+04  0.00000000000E+00 0.  1.
         -4   -1    0    0    0  501 -0.00000000000E+00 -0.00000000000E+00 -0.27061856958E+04  0.27061856958E+04  0.00000000000E+00 0. -1.
   -9000010    2    1    2    0  501  0.45160370483E+03 -0.18729254958E+03 -0.23756459260E+04  0.26271545978E+04  0.10095659017E+04 0.  0.
    9000010    2    1    2  502    0 -0.45160370483E+03  0.18729254958E+03  0.13045711282E+04  0.17141419959E+04  0.99867539680E+03 0.  0.
        -13    1    4    4    0    0 -0.76362919585E+02  0.54842312172E+03  0.89133559624E+03  0.10493228160E+04  0.10566000000E+00 0.  1.
          4    1    4    4  502    0 -0.37524078524E+03 -0.36113057214E+03  0.41323553195E+03  0.66481917986E+03  0.00000000000E+00 0.  1.
         13    1    3    3    0    0  0.49052557411E+03 -0.25411680782E+03 -0.48559541924E+03  0.73552268029E+03  0.10566000000E+00 0. -1.
         -4    1    3    3    0  501 -0.38921869280E+02  0.66824258240E+02 -0.18900505068E+04  0.18916319176E+04  0.00000000000E+00 0. -1.
<mgrwt>
<rscale>  0 0.11168099E+04</rscale>
<asrwt>0</asrwt>
<pdfrwt beam="1">  1        4 0.25155552E+00 0.11119249E+04</pdfrwt>
<pdfrwt beam="2">  1       -4 0.41633626E+00 0.11217164E+04</pdfrwt>
<totfact> 0.30332413E-02</totfact>
</mgrwt>
</event>
<event>
 8    1  0.3025584E-006  0.1073773E+04  0.7818608E-02  0.8714579E-01
         -4   -1    0    0    0  501 -0.00000000000E+00  0.00000000000E+00  0.35871971606E+04  0.35871971606E+04  0.00000000000E+00 0. -1.
          4   -1    0    0  502    0  0.00000000000E+00 -0.00000000000E+00 -0.92079585138E+03  0.92079585138E+03  0.00000000000E+00 0.  1.
   -9000010    2    1    2    0  501 -0.35221187709E+03  0.53563906795E+02  0.31615117037E+04  0.33388838095E+04  0.10129494273E+04 0.  0.
    9000010    2    1    2  502    0  0.35221187709E+03 -0.53563906795E+02 -0.49511039447E+03  0.11691092025E+04  0.99737642151E+03 0.  0.
        -13    1    4    4    0    0  0.46916424734E+03  0.57492278428E+02 -0.73869063778E+03  0.87697452789E+03  0.10566000000E+00 0.  1.
          4    1    4    4  502    0 -0.11695237025E+03 -0.11105618522E+03  0.24358024331E+03  0.29213467461E+03  0.00000000000E+00 0.  1.
         13    1    3    3    0    0 -0.93575120515E+02 -0.20775902594E+03  0.28439296746E+04  0.28530433087E+04  0.10566000000E+00 0. -1.
         -4    1    3    3    0  501 -0.25863675658E+03  0.26132293274E+03  0.31758202913E+03  0.48584050083E+03  0.00000000000E+00 0. -1.
<mgrwt>
<rscale>  0 0.10664088E+04</rscale>
<asrwt>0</asrwt>
<pdfrwt beam="2">  1        4 0.14166090E+00 0.10590949E+04</pdfrwt>
<pdfrwt beam="1">  1       -4 0.55187648E+00 0.10737732E+04</pdfrwt>
<totfact> 0.15596821E-02</totfact>
</mgrwt>
</event>
<event>
 8    1  0.3025584E-006  0.1113625E+04  0.7818608E-02  0.8690306E-01
         -4   -1    0    0    0  501 -0.00000000000E+00  0.00000000000E+00  0.45404492780E+03  0.45404492780E+03  0.00000000000E+00 0. -1.
          4   -1    0    0  502    0  0.00000000000E+00 -0.00000000000E+00 -0.28232736958E+04  0.28232736958E+04  0.00000000000E+00 0.  1.
   -9000010    2    1    2    0  501  0.25575650588E+03  0.27889104346E+03 -0.74881431565E+03  0.13111286485E+04  0.10075434726E+04 0.  0.
    9000010    2    1    2  502    0 -0.25575650588E+03 -0.27889104346E+03 -0.16204144524E+04  0.19661899751E+04  0.10473626003E+04 0.  0.
        -13    1    4    4    0    0  0.33553693705E+03 -0.38690427323E+03 -0.77223635093E+03  0.92662233171E+03  0.10566000000E+00 0.  1.
          4    1    4    4  502    0 -0.59129344293E+03  0.10801322977E+03 -0.84817810143E+03  0.10395676434E+04  0.00000000000E+00 0.  1.
         13    1    3    3    0    0 -0.26407883424E+03  0.36489561334E+03 -0.62410240308E+03  0.76966892884E+03  0.10566000000E+00 0. -1.
         -4    1    3    3    0  501  0.51983534012E+03 -0.86004569876E+02 -0.12471191257E+03  0.54145971966E+03  0.00000000000E+00 0. -1.
<mgrwt>
<rscale>  0 0.10947829E+04</rscale>
<asrwt>0</asrwt>
<pdfrwt beam="2">  1        4 0.43434981E+00 0.11136247E+04</pdfrwt>
<pdfrwt beam="1">  1       -4 0.69853065E-01 0.10762599E+04</pdfrwt>
<totfact> 0.20804273E-01</totfact>
</mgrwt>
</event>
<event>
 8    1  0.3025584E-006  0.1309046E+04  0.7818608E-02  0.8576980E-01
         -4   -1    0    0    0  501 -0.00000000000E+00  0.00000000000E+00  0.15428197930E+04  0.15428197930E+04  0.00000000000E+00 0. -1.
          4   -1    0    0  502    0  0.00000000000E+00 -0.00000000000E+00 -0.17245685680E+04  0.17245685680E+04  0.00000000000E+00 0.  1.
   -9000010    2    1    2    0  501  0.53189529017E+03 -0.30329130731E+03  0.97026090029E+03  0.15236198127E+04  0.10025531918E+04 0.  0.
    9000010    2    1    2  502    0 -0.53189529017E+03  0.30329130731E+03 -0.11520096753E+04  0.17437685483E+04  0.11570238724E+04 0.  0.
        -13    1    4    4    0    0  0.34535123330E+03  0.21082450772E+03 -0.22019841033E+03  0.46065366435E+03  0.10566000000E+00 0.  1.
          4    1    4    4  502    0 -0.87724652348E+03  0.92466799584E+02 -0.93181126493E+03  0.12831148840E+04  0.00000000000E+00 0.  1.
         13    1    3    3    0    0  0.79558175374E+03 -0.43331673658E+02  0.57898674239E+03  0.98491300115E+03  0.10566000000E+00 0. -1.
         -4    1    3    3    0  501 -0.26368646356E+03 -0.25995963365E+03  0.39127415790E+03  0.53870681157E+03  0.00000000000E+00 0. -1.
<mgrwt>
<rscale>  0 0.12400756E+04</rscale>
<asrwt>0</asrwt>
<pdfrwt beam="2">  1        4 0.26531824E+00 0.13090464E+04</pdfrwt>
<pdfrwt beam="1">  1       -4 0.23735689E+00 0.11747387E+04</pdfrwt>
<totfact> 0.99367501E-02</totfact>
</mgrwt>
</event>
<event>
 8    1  0.3025584E-006  0.1138342E+04  0.7818608E-02  0.8674512E-01
          4   -1    0    0  502    0  0.00000000000E+00  0.00000000000E+00  0.23010366369E+04  0.23010366369E+04  0.00000000000E+00 0.  1.
         -4   -1    0    0    0  501 -0.00000000000E+00 -0.00000000000E+00 -0.76558154551E+03  0.76558154551E+03  0.00000000000E+00 0. -1.
   -9000010    2    1    2    0  501 -0.47311313198E+03  0.22791351059E+03 -0.77500999388E+02  0.10924221434E+04  0.95477700566E+03 0.  0.
    9000010    2    1    2  502    0  0.47311313198E+03 -0.22791351059E+03  0.16129560908E+04  0.19741960390E+04  0.10099713093E+04 0.  0.
        -13    1    4    4    0    0  0.31250738454E+03  0.19843932229E+03  0.14400817576E+04  0.14869009751E+04  0.10566000000E+00 0.  1.
          4    1    4    4  502    0  0.16060574744E+03 -0.42635283288E+03  0.17287433315E+03  0.48729506387E+03  0.00000000000E+00 0.  1.
         13    1    3    3    0    0 -0.39563476981E+03  0.25605304428E+03 -0.48524677711E+03  0.67642773334E+03  0.10566000000E+00 0. -1.
         -4    1    3    3    0  501 -0.77478362164E+02 -0.28139533690E+02  0.40774577772E+03  0.41599441007E+03  0.00000000000E+00 0. -1.
<mgrwt>
<rscale>  0 0.11137400E+04</rscale>
<asrwt>0</asrwt>
<pdfrwt beam="1">  1        4 0.35400563E+00 0.11383421E+04</pdfrwt>
<pdfrwt beam="2">  1       -4 0.11778178E+00 0.10896696E+04</pdfrwt>
<totfact> 0.15419365E-01</totfact>
</mgrwt>
</event>
<event>
 8    1  0.3025584E-006  0.1101533E+04  0.7818608E-02  0.8693603E-01
          4   -1    0    0  502    0  0.00000000000E+00  0.00000000000E+00  0.70799390673E+03  0.70799390673E+03  0.00000000000E+00 0.  1.
         -4   -1    0    0    0  501 -0.00000000000E+00 -0.00000000000E+00 -0.33015640397E+04  0.33015640397E+04  0.00000000000E+00 0. -1.
   -9000010    2    1    2    0  501  0.14621265576E+03 -0.43336100415E+03 -0.27077383454E+04  0.29232213090E+04  0.10020957908E+04 0.  0.
    9000010    2    1    2  502    0 -0.14621265576E+03  0.43336100415E+03  0.11416821243E+03  0.10863366374E+04  0.97873030417E+03 0.  0.
        -13    1    4    4    0    0 -0.10538882379E+03 -0.15178267372E+03  0.39494336964E+03  0.43603332511E+03  0.10566000000E+00 0.  1.
          4    1    4    4  502    0 -0.40823831977E+02  0.58514367788E+03 -0.28077515721E+03  0.65030331225E+03  0.00000000000E+00 0.  1.
         13    1    3    3    0    0  0.27918167628E+03  0.25827084638E+03 -0.12056436833E+04  0.12642084246E+04  0.10566000000E+00 0. -1.
         -4    1    3    3    0  501 -0.13296902052E+03 -0.69163185053E+03 -0.15020946621E+04  0.16590128845E+04  0.00000000000E+00 0. -1.
<mgrwt>
<rscale>  0 0.10908755E+04</rscale>
<asrwt>0</asrwt>
<pdfrwt beam="1">  1        4 0.10892214E+00 0.10803207E+04</pdfrwt>
<pdfrwt beam="2">  1       -4 0.50793293E+00 0.11015334E+04</pdfrwt>
<totfact> 0.38925982E-02</totfact>
</mgrwt>
</event>
<event>
 8    1  0.3025584E-006  0.1163403E+04  0.7818608E-02  0.8639291E-01
         -4   -1    0    0    0  501 -0.00000000000E+00  0.00000000000E+00  0.32738870768E+04  0.32738870768E+04  0.00000000000E+00 0. -1.
          4   -1    0    0  502    0  0.00000000000E+00 -0.00000000000E+00 -0.14712991805E+04  0.14712991805E+04  0.00000000000E+00 0.  1.
   -9000010    2    1    2    0  501  0.52655453693E+03 -0.26299400260E+03  0.29183716984E+04  0.31417190770E+04  0.10035336879E+04 0.  0.
    9000010    2    1    2  502    0 -0.52655453693E+03  0.26299400260E+03 -0.11157838021E+04  0.16034671804E+04  0.98980199017E+03 0.  0.
        -13    1    4    4    0    0 -0.10050974997E+03 -0.35653797902E+03 -0.54722399624E+03  0.66081438661E+03  0.10566000000E+00 0.  1.
          4    1    4    4  502    0 -0.42604478696E+03  0.61953198162E+03 -0.56855980583E+03  0.94265279374E+03  0.00000000000E+00 0.  1.
         13    1    3    3    0    0  0.66627605329E+03 -0.51005742932E+03  0.24923151020E+04  0.26297750738E+04  0.10566000000E+00 0. -1.
         -4    1    3    3    0  501 -0.13972151636E+03  0.24706342671E+03  0.42605659644E+03  0.51194400311E+03  0.00000000000E+00 0. -1.
<mgrwt>
<rscale>  0 0.11574755E+04</rscale>
<asrwt>0</asrwt>
<pdfrwt beam="2">  1        4 0.22635372E+00 0.11515787E+04</pdfrwt>
<pdfrwt beam="1">  1       -4 0.50367493E+00 0.11634025E+04</pdfrwt>
<totfact> 0.13776206E-02</totfact>
</mgrwt>
</event>
<event>
 8    1  0.3025584E-006  0.1102882E+04  0.7818608E-02  0.8685748E-01
         -4   -1    0    0    0  501 -0.00000000000E+00  0.00000000000E+00  0.51004385417E+03  0.51004385417E+03  0.00000000000E+00 0. -1.
          4   -1    0    0  502    0  0.00000000000E+00 -0.00000000000E+00 -0.23736670052E+04  0.23736670052E+04  0.00000000000E+00 0.  1.
   -9000010    2    1    2    0  501 -0.37351556196E+03 -0.19948601532E+03 -0.91558928043E+03  0.14334055656E+04  0.10183512360E+04 0.  0.
    9000010    2    1    2  502    0  0.37351556196E+03  0.19948601532E+03 -0.94803387055E+03  0.14503052937E+04  0.10125752712E+04 0.  0.
        -13    1    4    4    0    0  0.36568739545E+03  0.59525318751E+03 -0.55207715168E+03  0.89041721738E+03  0.10566000000E+00 0.  1.
          4    1    4    4  502    0  0.78281665106E+01 -0.39576717219E+03 -0.39595671887E+03  0.55988807631E+03  0.00000000000E+00 0.  1.
         13    1    3    3    0    0  0.80454024890E+01 -0.26467765985E+03 -0.10023281582E+04  0.10367163258E+04  0.10566000000E+00 0. -1.
         -4    1    3    3    0  501 -0.38156096445E+03  0.65191644529E+02  0.86738877814E+02  0.39668923988E+03  0.00000000000E+00 0. -1.
<mgrwt>
<rscale>  0 0.11002128E+04</rscale>
<asrwt>0</asrwt>
<pdfrwt beam="2">  1        4 0.36517954E+00 0.10975506E+04</pdfrwt>
<pdfrwt beam="1">  1       -4 0.78468285E-01 0.11028816E+04</pdfrwt>
<totfact> 0.30859190E-01</totfact>
</mgrwt>
</event>
<event>
 8    1  0.3025584E-006  0.1228312E+04  0.7818608E-02  0.8587721E-01
          4   -1    0    0  502    0  0.00000000000E+00  0.00000000000E+00  0.22537010347E+04  0.22537010347E+04  0.00000000000E+00 0.  1.
         -4   -1    0    0    0  501 -0.00000000000E+00 -0.00000000000E+00 -0.20092759033E+04  0.20092759033E+04  0.00000000000E+00 0. -1.
   -9000010    2    1    2    0  501  0.40990816349E+03  0.53931450972E+03 -0.16205324643E+04  0.20298584629E+04  0.10175043335E+04 0.  0.
    9000010    2    1    2  502    0 -0.40990816349E+03 -0.53931450972E+03  0.18649575958E+04  0.22331184751E+04  0.10246299073E+04 0.  0.
        -13    1    4    4    0    0 -0.42760651157E+03 -0.33383172010E+03  0.19394064563E+04  0.20138491403E+04  0.10566000000E+00 0.  1.
          4    1    4    4  502    0  0.17698348081E+02 -0.20548278962E+03 -0.74448860515E+02  0.21926933481E+03  0.00000000000E+00 0.  1.
         13    1    3    3    0    0  0.29241283580E+03 -0.24148470828E+03 -0.83003887948E+03  0.91257037180E+03  0.10566000000E+00 0. -1.
         -4    1    3    3    0  501  0.11749532769E+03  0.78079921800E+03 -0.79049358486E+03  0.11172880911E+04  0.00000000000E+00 0. -1.
<mgrwt>
<rscale>  0 0.12253399E+04</rscale>
<asrwt>0</asrwt>
<pdfrwt beam="1">  1        4 0.34672323E+00 0.12283124E+04</pdfrwt>
<pdfrwt beam="2">  1       -4 0.30911937E+00 0.12223747E+04</pdfrwt>
<totfact> 0.39211830E-02</totfact>
</mgrwt>
</event>
<event>
 8    1  0.3025584E-006  0.1330325E+04  0.7818608E-02  0.8590961E-01
         -4   -1    0    0    0  501 -0.00000000000E+00  0.00000000000E+00  0.22879690928E+04  0.22879690928E+04  0.00000000000E+00 0. -1.
          4   -1    0    0  502    0  0.00000000000E+00 -0.00000000000E+00 -0.98451985232E+03  0.98451985232E+03  0.00000000000E+00 0.  1.
   -9000010    2    1    2    0  501  0.37431619912E+03 -0.32310286243E+03  0.15569185475E+04  0.19182320213E+04  0.10055399779E+04 0.  0.
    9000010    2    1    2  502    0 -0.37431619912E+03  0.32310286243E+03 -0.25346930703E+03  0.13542569238E+04  0.12350129755E+04 0.  0.
        -13    1    4    4    0    0 -0.27395604357E+03  0.43304012547E+03  0.42122939083E+03  0.66333240154E+03  0.10566000000E+00 0.  1.
          4    1    4    4  502    0 -0.10036015555E+03 -0.10993726303E+03 -0.67469869786E+03  0.69092452230E+03  0.00000000000E+00 0.  1.
         13    1    3    3    0    0 -0.30655595680E+03 -0.11590552845E+03  0.19444981927E+03  0.38107924314E+03  0.10566000000E+00 0. -1.
         -4    1    3    3    0  501  0.68087215592E+03 -0.20719733398E+03  0.13624687282E+04  0.15371527781E+04  0.00000000000E+00 0. -1.
<mgrwt>
<rscale>  0 0.12209373E+04</rscale>
<asrwt>0</asrwt>
<pdfrwt beam="2">  1        4 0.15146459E+00 0.13303252E+04</pdfrwt>
<pdfrwt beam="1">  1       -4 0.35199524E+00 0.11205439E+04</pdfrwt>
<totfact> 0.10550914E-01</totfact>
</mgrwt>
</event>
<event>
 8    1  0.3025584E-006  0.1075699E+04  0.7818608E-02  0.8713827E-01
          4   -1    0    0  502    0  0.00000000000E+00  0.00000000000E+00  0.11427220869E+04  0.11427220869E+04  0.00000000000E+00 0.  1.
         -4   -1    0    0    0  501 -0.00000000000E+00 -0.00000000000E+00 -0.16769341369E+04  0.16769341369E+04  0.00000000000E+00 0. -1.
   -9000010    2    1    2    0  501  0.12989446524E+03  0.36811169558E+03 -0.11661454070E+04  0.15865133201E+04  0.10023724916E+04 0.  0.
    9000010    2    1    2  502    0 -0.12989446524E+03 -0.36811169558E+03  0.63193335700E+03  0.12331429037E+04  0.98433879372E+03 0.  0.
        -13    1    4    4    0    0 -0.32579540462E+03 -0.25478582762E+03  0.83324589929E+03  0.93024577585E+03  0.10566000000E+00 0.  1.
          4    1    4    4  502    0  0.19590093938E+03 -0.11332586796E+03 -0.20131254229E+03  0.30289712789E+03  0.00000000000E+00 0.  1.
         13    1    3    3    0    0  0.39055102135E+02  0.61136992164E+03 -0.29970263091E+03  0.68199718491E+03  0.10566000000E+00 0. -1.
         -4    1    3    3    0  501  0.90839363106E+02 -0.24325822606E+03 -0.86644277613E+03  0.90451613515E+03  0.00000000000E+00 0. -1.
<mgrwt>
<rscale>  0 0.10672744E+04</rscale>
<asrwt>0</asrwt>
<pdfrwt beam="1">  1        4 0.17580340E+00 0.10589153E+04</pdfrwt>
<pdfrwt beam="2">  1       -4 0.25798987E+00 0.10756995E+04</pdfrwt>
<totfact> 0.15504733E-01</totfact>
</mgrwt>
</event>
<event>
 8    1  0.3025584E-006  0.1256762E+04  0.7818608E-02  0.8585368E-01
          4   -1    0    0  502    0  0.00000000000E+00  0.00000000000E+00  0.27386565751E+04  0.27386565751E+04  0.00000000000E+00 0.  1.
         -4   -1    0    0    0  501 -0.00000000000E+00 -0.00000000000E+00 -0.87829419668E+03  0.87829419668E+03  0.00000000000E+00 0. -1.
   -9000010    2    1    2    0  501  0.58882875193E+02 -0.67955690791E+03 -0.15967910733E+03  0.12668653612E+04  0.10555499240E+04 0.  0.
    9000010    2    1    2  502    0 -0.58882875193E+02  0.67955690791E+03  0.20200414858E+04  0.23500854106E+04  0.98846803117E+03 0.  0.
        -13    1    4    4    0    0 -0.42500015961E+03  0.37471391826E+03  0.49502977941E+03  0.75238962637E+03  0.10566000000E+00 0.  1.
          4    1    4    4  502    0  0.36611728442E+03  0.30484298965E+03  0.15250117064E+04  0.15976957842E+04  0.00000000000E+00 0.  1.
         13    1    3    3    0    0  0.51798597438E+03 -0.44800769891E+03 -0.27818985868E+03  0.73919549279E+03  0.10566000000E+00 0. -1.
         -4    1    3    3    0  501 -0.45910309918E+03 -0.23154920900E+03  0.11851075135E+03  0.52766986843E+03  0.00000000000E+00 0. -1.
<mgrwt>
<rscale>  0 0.12285503E+04</rscale>
<asrwt>0</asrwt>
<pdfrwt beam="1">  1        4 0.42133178E+00 0.12009720E+04</pdfrwt>
<pdfrwt beam="2">  1       -4 0.13512219E+00 0.12567619E+04</pdfrwt>
<totfact> 0.67432562E-02</totfact>
</mgrwt>
</event>
<event>
 8    1  0.3025584E-006  0.1119762E+04  0.7818608E-02  0.8672786E-01
         -4   -1    0    0    0  501 -0.00000000000E+00  0.00000000000E+00  0.20572641520E+04  0.20572641520E+04  0.00000000000E+00 0. -1.
          4   -1    0    0  502    0  0.00000000000E+00 -0.00000000000E+00 -0.15758799490E+04  0.15758799490E+04  0.00000000000E+00 0.  1.
   -9000010    2    1    2    0  501 -0.23170546575E+03 -0.45638224815E+03  0.16666990916E+04  0.20079225997E+04  0.99593931807E+03 0.  0.
    9000010    2    1    2  502    0  0.23170546575E+03  0.45638224815E+03 -0.11853148886E+04  0.16252215014E+04  0.98711770532E+03 0.  0.
        -13    1    4    4    0    0  0.25839355993E+03 -0.17938017901E+03 -0.84919499743E+03  0.90558082757E+03  0.10566000000E+00 0.  1.
          4    1    4    4  502    0 -0.26688094185E+02  0.63576242717E+03 -0.33611989115E+03  0.71964067380E+03  0.00000000000E+00 0.  1.
         13    1    3    3    0    0  0.32617161037E+03 -0.13643314737E+03  0.10836048575E+04  0.11398251714E+04  0.10566000000E+00 0. -1.
         -4    1    3    3    0  501 -0.55787707612E+03 -0.31994910078E+03  0.58309423409E+03  0.86809742828E+03  0.00000000000E+00 0. -1.
<mgrwt>
<rscale>  0 0.11158359E+04</rscale>
<asrwt>0</asrwt>
<pdfrwt beam="2">  1        4 0.24244307E+00 0.11119234E+04</pdfrwt>
<pdfrwt beam="1">  1       -4 0.31650218E+00 0.11197622E+04</pdfrwt>
<totfact> 0.71735612E-02</totfact>
</mgrwt>
</event>
<event>
 8    1  0.3025584E-006  0.1121440E+04  0.7818608E-02  0.8670951E-01
          4   -1    0    0  502    0  0.00000000000E+00  0.00000000000E+00  0.26883285349E+04  0.26883285349E+04  0.00000000000E+00 0.  1.
         -4   -1    0    0    0  501 -0.00000000000E+00 -0.00000000000E+00 -0.96023953535E+03  0.96023953535E+03  0.00000000000E+00 0. -1.
   -9000010    2    1    2    0  501  0.44203280439E+03 -0.19509081689E+03 -0.44731980988E+03  0.12011141288E+04  0.10045529907E+04 0.  0.
    9000010    2    1    2  502    0 -0.44203280439E+03  0.19509081689E+03  0.21754088094E+04  0.24474539415E+04  0.10120147630E+04 0.  0.
        -13    1    4    4    0    0 -0.56212099082E+03  0.24744159652E+03  0.57383715937E+03  0.84053343101E+03  0.10566000000E+00 0.  1.
          4    1    4    4  502    0  0.12008818643E+03 -0.52350779629E+02  0.16015716501E+04  0.16069205105E+04  0.00000000000E+00 0.  1.
         13    1    3    3    0    0  0.40769102994E+03 -0.55080354680E+03 -0.48823993172E+03  0.84141236332E+03  0.10566000000E+00 0. -1.
         -4    1    3    3    0  501  0.34341774451E+02  0.35571272992E+03  0.40920121839E+02  0.35970176545E+03  0.00000000000E+00 0. -1.
<mgrwt>
<rscale>  0 0.11180702E+04</rscale>
<asrwt>0</asrwt>
<pdfrwt beam="1">  1        4 0.41358900E+00 0.11214398E+04</pdfrwt>
<pdfrwt beam="2">  1       -4 0.14772916E+00 0.11147108E+04</pdfrwt>
<totfact> 0.63888109E-02</totfact>
</mgrwt>
</event>
<event>
 8    1  0.3025584E-006  0.2161483E+04  0.7818608E-02  0.8107186E-01
          4   -1    0    0  502    0  0.00000000000E+00  0.00000000000E+00  0.29701543553E+04  0.29701543553E+04  0.00000000000E+00 0.  1.
         -4   -1    0    0    0  501 -0.00000000000E+00 -0.00000000000E+00 -0.37882385516E+04  0.37882385516E+04  0.00000000000E+00 0. -1.
   -9000010    2    1    2    0  501  0.19048187466E+04 -0.13798529864E+02 -0.29969778542E+04  0.36951161551E+04  0.10215098060E+04 0.  0.
    9000010    2    1    2  502    0 -0.19048187466E+04  0.13798529864E+02  0.21788936580E+04  0.30632767518E+04  0.10037738932E+04 0.  0.
        -13    1    4    4    0    0 -0.18581747285E+04 -0.25520521419E+03  0.19648783536E+04  0.27163744179E+04  0.10566000000E+00 0.  1.
          4    1    4    4  502    0 -0.46644018104E+02  0.26900374405E+03  0.21401530441E+03  0.34690233390E+03  0.00000000000E+00 0.  1.
         13    1    3    3    0    0  0.36395287239E+03 -0.88459838449E+02 -0.62332893964E+02  0.37970019381E+03  0.10566000000E+00 0. -1.
         -4    1    3    3    0  501  0.15408658742E+04  0.74661308585E+02 -0.29346449603E+04  0.33154159612E+04  0.00000000000E+00 0. -1.
<mgrwt>
<rscale>  0 0.21573160E+04</rscale>
<asrwt>0</asrwt>
<pdfrwt beam="1">  1        4 0.45694683E+00 0.21531574E+04</pdfrwt>
<pdfrwt beam="2">  1       -4 0.58280593E+00 0.21614826E+04</pdfrwt>
<totfact> 0.81242376E-04</totfact>
</mgrwt>
</event>
<event>
 8    1  0.3025584E-006  0.1136964E+04  0.7818608E-02  0.8656526E-01
         -4   -1    0    0    0  501 -0.00000000000E+00  0.00000000000E+00  0.71614732151E+03  0.71614732151E+03  0.00000000000E+00 0. -1.
          4   -1    0    0  502    0  0.00000000000E+00 -0.00000000000E+00 -0.25458555733E+04  0.25458555733E+04  0.00000000000E+00 0.  1.
   -9000010    2    1    2    0  501  0.50342012968E+03  0.18736853133E+03 -0.32240184997E+02  0.11351320847E+04  0.99947317458E+03 0.  0.
    9000010    2    1    2  502    0 -0.50342012968E+03 -0.18736853133E+03 -0.17974680668E+04  0.21268708101E+04  0.10020724516E+04 0.  0.
        -13    1    4    4    0    0  0.30482281673E+03 -0.26343249471E+02 -0.59557750279E+03  0.66956962997E+03  0.10566000000E+00 0.  1.
          4    1    4    4  502    0 -0.80824294640E+03 -0.16102528185E+03 -0.12018905640E+04  0.14573011802E+04  0.00000000000E+00 0.  1.
         13    1    3    3    0    0  0.79130092717E+03  0.54921622778E+02  0.83906392248E+02  0.79763013723E+03  0.10566000000E+00 0. -1.
         -4    1    3    3    0  501 -0.28788079749E+03  0.13244690855E+03 -0.11614657725E+03  0.33750194748E+03  0.00000000000E+00 0. -1.
<mgrwt>
<rscale>  0 0.11358187E+04</rscale>
<asrwt>0</asrwt>
<pdfrwt beam="2">  1        4 0.39167009E+00 0.11369644E+04</pdfrwt>
<pdfrwt beam="1">  1       -4 0.11017651E+00 0.11346741E+04</pdfrwt>
<totfact> 0.12576810E-01</totfact>
</mgrwt>
</event>
<event>
 8    1  0.3025584E-006  0.1362108E+04  0.7818608E-02  0.8496743E-01
          4   -1    0    0  502    0  0.00000000000E+00  0.00000000000E+00  0.29725738247E+04  0.29725738247E+04  0.00000000000E+00 0.  1.
         -4   -1    0    0    0  501 -0.00000000000E+00 -0.00000000000E+00 -0.12225554059E+04  0.12225554059E+04  0.00000000000E+00 0. -1.
   -9000010    2    1    2    0  501 -0.56221731418E+02  0.91329998217E+03 -0.59636978081E+03  0.14869417865E+04  0.10089901984E+04 0.  0.
    9000010    2    1    2  502    0  0.56221731418E+02 -0.91329998217E+03  0.23463881996E+04  0.27081874441E+04  0.99572280709E+03 0.  0.
        -13    1    4    4    0    0  0.37539705196E+03 -0.32536468750E+02  0.99398775891E+03  0.10630114037E+04  0.10566000000E+00 0.  1.
          4    1    4    4  502    0 -0.31917532054E+03 -0.88076351342E+03  0.13524004407E+04  0.16451760404E+04  0.00000000000E+00 0.  1.
         13    1    3    3    0    0  0.13187983311E+03  0.14777224619E+03  0.25747785375E+03  0.32484424492E+03  0.10566000000E+00 0. -1.
         -4    1    3    3    0  501 -0.18810156453E+03  0.76552773598E+03 -0.85384763456E+03  0.11620975416E+04  0.00000000000E+00 0. -1.
<mgrwt>
<rscale>  0 0.13572002E+04</rscale>
<asrwt>0</asrwt>
<pdfrwt beam="1">  1        4 0.45731905E+00 0.13523097E+04</pdfrwt>
<pdfrwt beam="2">  1       -4 0.18808545E+00 0.13621083E+04</pdfrwt>
<totfact> 0.28322791E-02</totfact>
</mgrwt>
</event>
<event>
 8    1  0.3025584E-006  0.1207140E+04  0.7818608E-02  0.8607381E-01
         -4   -1    0    0    0  501 -0.00000000000E+00  0.00000000000E+00  0.22834674597E+04  0.22834674597E+04  0.00000000000E+00 0. -1.
          4   -1    0    0  502    0  0.00000000000E+00 -0.00000000000E+00 -0.10900672995E+04  0.10900672995E+04  0.00000000000E+00 0.  1.
   -9000010    2    1    2    0  501 -0.25770661264E+03 -0.62639239453E+03  0.16907343396E+04  0.20679590186E+04  0.97933230583E+03 0.  0.
    9000010    2    1    2  502    0  0.25770661264E+03  0.62639239453E+03 -0.49733417938E+03  0.13055757406E+04  0.99920298156E+03 0.  0.
        -13    1    4    4    0    0  0.61196125950E+03  0.23432936205E+03 -0.14697537074E+03  0.67157174137E+03  0.10566000000E+00 0.  1.
          4    1    4    4  502    0 -0.35425464686E+03  0.39206303248E+03 -0.35035880864E+03  0.63400399923E+03  0.00000000000E+00 0.  1.
         13    1    3    3    0    0 -0.15144742519E+03 -0.56330482553E+03  0.27157512378E+03  0.64342964501E+03  0.10566000000E+00 0. -1.
         -4    1    3    3    0  501 -0.10625918745E+03 -0.63087569001E+02  0.14191592158E+04  0.14245293736E+04  0.00000000000E+00 0. -1.
<mgrwt>
<rscale>  0 0.11989141E+04</rscale>
<asrwt>0</asrwt>
<pdfrwt beam="2">  1        4 0.16770266E+00 0.12071399E+04</pdfrwt>
<pdfrwt beam="1">  1       -4 0.35130268E+00 0.11907443E+04</pdfrwt>
<totfact> 0.91305366E-02</totfact>
</mgrwt>
</event>
<event>
 8    1  0.3025584E-006  0.1146282E+04  0.7818608E-02  0.8655503E-01
          4   -1    0    0  502    0  0.00000000000E+00  0.00000000000E+00  0.26427972843E+04  0.26427972843E+04  0.00000000000E+00 0.  1.
         -4   -1    0    0    0  501 -0.00000000000E+00 -0.00000000000E+00 -0.78206005349E+03  0.78206005349E+03  0.00000000000E+00 0. -1.
   -9000010    2    1    2    0  501  0.20836702488E+03  0.46875861175E+03 -0.12206730112E+03  0.11345566276E+04  0.10045729750E+04 0.  0.
    9000010    2    1    2  502    0 -0.20836702488E+03 -0.46875861175E+03  0.19828045319E+04  0.22903007102E+04  0.10250912535E+04 0.  0.
        -13    1    4    4    0    0  0.23067171937E+03 -0.40114679062E+03  0.17042932061E+04  0.17659964703E+04  0.10566000000E+00 0.  1.
          4    1    4    4  502    0 -0.43903874425E+03 -0.67611821138E+02  0.27851132588E+03  0.52430423988E+03  0.00000000000E+00 0.  1.
         13    1    3    3    0    0 -0.30970296152E+03  0.47098581804E+03  0.97173072912E+02  0.57200190772E+03  0.10566000000E+00 0. -1.
         -4    1    3    3    0  501  0.51806998640E+03 -0.22272062886E+01 -0.21924037404E+03  0.56255471989E+03  0.00000000000E+00 0. -1.
<mgrwt>
<rscale>  0 0.11370898E+04</rscale>
<asrwt>0</asrwt>
<pdfrwt beam="1">  1        4 0.40658419E+00 0.11462825E+04</pdfrwt>
<pdfrwt beam="2">  1       -4 0.12031693E+00 0.11279709E+04</pdfrwt>
<totfact> 0.94138704E-02</totfact>
</mgrwt>
</event>
<event>
 8    1  0.3025584E-006  0.1068981E+04  0.7818608E-02  0.8745060E-01
          4   -1    0    0  502    0  0.00000000000E+00  0.00000000000E+00  0.15530443229E+04  0.15530443229E+04  0.00000000000E+00 0.  1.
         -4   -1    0    0    0  501 -0.00000000000E+00 -0.00000000000E+00 -0.16382858213E+04  0.16382858213E+04  0.00000000000E+00 0. -1.
   -9000010    2    1    2    0  501 -0.34014105682E+03  0.17082623908E+03 -0.12590621208E+04  0.16516532065E+04  0.99892109206E+03 0.  0.
    9000010    2    1    2  502    0  0.34014105682E+03 -0.17082623908E+03  0.11738206223E+04  0.15396769378E+04  0.92080001995E+03 0.  0.
        -13    1    4    4    0    0 -0.30066660999E+03  0.28727218454E+02  0.52785269458E+03  0.60815634650E+03  0.10566000000E+00 0.  1.
          4    1    4    4  502    0  0.64080766681E+03 -0.19955345753E+03  0.64596792775E+03  0.93152059126E+03  0.00000000000E+00 0.  1.
         13    1    3    3    0    0 -0.23187903981E+03  0.31231252022E+03 -0.91305508446E+01  0.38908916396E+03  0.10566000000E+00 0. -1.
         -4    1    3    3    0  501 -0.10826201701E+03 -0.14148628114E+03 -0.12499315699E+04  0.12625640426E+04  0.00000000000E+00 0. -1.
<mgrwt>
<rscale>  0 0.10320365E+04</rscale>
<asrwt>0</asrwt>
<pdfrwt beam="1">  1        4 0.23892990E+00 0.99636852E+03</pdfrwt>
<pdfrwt beam="2">  1       -4 0.25204397E+00 0.10689812E+04</pdfrwt>
<totfact> 0.10748132E-01</totfact>
</mgrwt>
</event>
<event>
 8    1  0.3025584E-006  0.1150211E+04  0.7818608E-02  0.8672822E-01
         -4   -1    0    0    0  501 -0.00000000000E+00  0.00000000000E+00  0.15627367512E+04  0.15627367512E+04  0.00000000000E+00 0. -1.
          4   -1    0    0  502    0  0.00000000000E+00 -0.00000000000E+00 -0.15324158669E+04  0.15324158669E+04  0.00000000000E+00 0.  1.
   -9000010    2    1    2    0  501  0.29649424100E+03  0.30994977978E+03  0.10869310483E+04  0.15825309612E+04  0.10672429145E+04 0.  0.
    9000010    2    1    2  502    0 -0.29649424100E+03 -0.30994977978E+03 -0.10566101639E+04  0.15126216569E+04  0.99379149596E+03 0.  0.
        -13    1    4    4    0    0  0.30688938204E+03 -0.27736258168E+02 -0.60052211838E+02  0.31393736976E+03  0.10566000000E+00 0.  1.
          4    1    4    4  502    0 -0.60338362304E+03 -0.28221352161E+03 -0.99655795211E+03  0.11986842871E+04  0.00000000000E+00 0.  1.
         13    1    3    3    0    0  0.20461977609E+03 -0.36886833095E+03  0.21424940141E+03  0.47311300501E+03  0.10566000000E+00 0. -1.
         -4    1    3    3    0  501  0.91874464909E+02  0.67881811072E+03  0.87268164684E+03  0.11094179562E+04  0.00000000000E+00 0. -1.
<mgrwt>
<rscale>  0 0.11157927E+04</rscale>
<asrwt>0</asrwt>
<pdfrwt beam="2">  1        4 0.23575629E+00 0.10824044E+04</pdfrwt>
<pdfrwt beam="1">  1       -4 0.24042104E+00 0.11502109E+04</pdfrwt>
<totfact> 0.11580805E-01</totfact>
</mgrwt>
</event>
<event>
 8    1  0.3025584E-006  0.2049709E+04  0.7818608E-02  0.8148933E-01
          4   -1    0    0  502    0  0.00000000000E+00  0.00000000000E+00  0.18730575099E+04  0.18730575099E+04  0.00000000000E+00 0.  1.
         -4   -1    0    0    0  501 -0.00000000000E+00 -0.00000000000E+00 -0.22494858142E+04  0.22494858142E+04  0.00000000000E+00 0. -1.
   -9000010    2    1    2    0  501  0.16516287493E+04 -0.68885595187E+03 -0.31975873206E+03  0.20745010127E+04  0.99945422961E+03 0.  0.
    9000010    2    1    2  502    0 -0.16516287493E+04  0.68885595187E+03 -0.56669572222E+02  0.20480423114E+04  0.99441732726E+03 0.  0.
        -13    1    4    4    0    0 -0.39847358189E+03  0.19811860725E+03  0.42818094963E+03  0.61755251987E+03  0.10566000000E+00 0.  1.
          4    1    4    4  502    0 -0.12531551674E+04  0.49073734462E+03 -0.48485052185E+03  0.14304897915E+04  0.00000000000E+00 0.  1.
         13    1    3    3    0    0  0.16117293738E+04 -0.49569839692E+03 -0.54781199738E+03  0.17729880063E+04  0.10566000000E+00 0. -1.
         -4    1    3    3    0  501  0.39899375560E+02 -0.19315755495E+03  0.22805326532E+03  0.30151300640E+03  0.00000000000E+00 0. -1.
<mgrwt>
<rscale>  0 0.20484834E+04</rscale>
<asrwt>0</asrwt>
<pdfrwt beam="1">  1        4 0.28816269E+00 0.20472581E+04</pdfrwt>
<pdfrwt beam="2">  1       -4 0.34607474E+00 0.20497094E+04</pdfrwt>
<totfact> 0.41815415E-02</totfact>
</mgrwt>
</event>
<event>
 8    1  0.3025584E-006  0.1488806E+04  0.7818608E-02  0.8418353E-01
          4   -1    0    0  502    0  0.00000000000E+00  0.00000000000E+00  0.95407221066E+03  0.95407221066E+03  0.00000000000E+00 0.  1.
         -4   -1    0    0    0  501 -0.00000000000E+00 -0.00000000000E+00 -0.32251946943E+04  0.32251946943E+04  0.00000000000E+00 0. -1.
   -9000010    2    1    2    0  501 -0.51594669381E+03 -0.10144593767E+04 -0.22461528751E+04  0.26902516525E+04  0.94705987000E+03 0.  0.
    9000010    2    1    2  502    0  0.51594669381E+03  0.10144593767E+04 -0.24969608498E+02  0.14890152525E+04  0.95979900128E+03 0.  0.
        -13    1    4    4    0    0  0.19375889036E+03  0.10127421582E+04  0.25500301471E+03  0.10621750022E+04  0.10566000000E+00 0.  1.
          4    1    4    4  502    0  0.32218780346E+03  0.17172185428E+01 -0.27997262321E+03  0.42684025031E+03  0.00000000000E+00 0.  1.
         13    1    3    3    0    0  0.11980395566E+03  0.12615106753E+03 -0.23602035570E+03  0.29321101463E+03  0.10566000000E+00 0. -1.
         -4    1    3    3    0  501 -0.63575064948E+03 -0.11406104442E+04 -0.20101325194E+04  0.23970406378E+04  0.00000000000E+00 0. -1.
<mgrwt>
<rscale>  0 0.14847099E+04</rscale>
<asrwt>0</asrwt>
<pdfrwt beam="1">  1        4 0.14678034E+00 0.14888059E+04</pdfrwt>
<pdfrwt beam="2">  1       -4 0.49618379E+00 0.14806253E+04</pdfrwt>
<totfact> 0.26137554E-02</totfact>
</mgrwt>
</event>
<event>
 8    1  0.3025584E-006  0.1413487E+04  0.7818608E-02  0.8468304E-01
          4   -1    0    0  502    0  0.00000000000E+00  0.00000000000E+00  0.15276587373E+04  0.15276587373E+04  0.00000000000E+00 0.  1.
         -4   -1    0    0    0  501 -0.00000000000E+00 -0.00000000000E+00 -0.26082599356E+04  0.26082599356E+04  0.00000000000E+00 0. -1.
   -9000010    2    1    2    0  501 -0.85036878349E+03  0.53197922368E+03 -0.20101703880E+04  0.24441609974E+04  0.96281308156E+03 0.  0.
    9000010    2    1    2  502    0  0.85036878349E+03 -0.53197922368E+03  0.92956918971E+03  0.16917576755E+04  0.99589968967E+03 0.  0.
        -13    1    4    4    0    0  0.56101403519E+03 -0.67533189406E+03  0.10301659603E+04  0.13535330923E+04  0.10566000000E+00 0.  1.
          4    1    4    4  502    0  0.28935474830E+03  0.14335267038E+03 -0.10059677063E+03  0.33822458327E+03  0.00000000000E+00 0.  1.
         13    1    3    3    0    0 -0.41919429092E+03  0.76716723085E+03 -0.10552446543E+04  0.13703323339E+04  0.10566000000E+00 0. -1.
         -4    1    3    3    0  501 -0.43117449257E+03 -0.23518800717E+03 -0.95492573365E+03  0.10738286635E+04  0.00000000000E+00 0. -1.
<mgrwt>
<rscale>  0 0.14018825E+04</rscale>
<asrwt>0</asrwt>
<pdfrwt beam="1">  1        4 0.23502442E+00 0.14134869E+04</pdfrwt>
<pdfrwt beam="2">  1       -4 0.40127076E+00 0.13903733E+04</pdfrwt>
<totfact> 0.37074959E-02</totfact>
</mgrwt>
</event>
<event>
 8    1  0.3025584E-006  0.1340577E+04  0.7818608E-02  0.8513824E-01
         -4   -1    0    0    0  501 -0.00000000000E+00  0.00000000000E+00  0.26924106356E+04  0.26924106356E+04  0.00000000000E+00 0. -1.
          4   -1    0    0  502    0  0.00000000000E+00 -0.00000000000E+00 -0.15696844543E+04  0.15696844543E+04  0.00000000000E+00 0.  1.
   -9000010    2    1    2    0  501 -0.86755034854E+03  0.14400455770E+03  0.21836000986E+04  0.25525336931E+04  0.98688294339E+03 0.  0.
    9000010    2    1    2  502    0  0.86755034854E+03 -0.14400455770E+03 -0.10608739173E+04  0.17095613968E+04  0.10118131157E+04 0.  0.
        -13    1    4    4    0    0  0.33474419195E+03 -0.51188298235E+03 -0.81048277291E+03  0.10153621019E+04  0.10566000000E+00 0.  1.
          4    1    4    4  502    0  0.53280615659E+03  0.36787842465E+03 -0.25039114437E+03  0.69419929487E+03  0.00000000000E+00 0.  1.
         13    1    3    3    0    0 -0.26098554591E+03  0.51497173218E+03  0.70005433823E+03  0.90740587818E+03  0.10566000000E+00 0. -1.
         -4    1    3    3    0  501 -0.60656480263E+03 -0.37096717448E+03  0.14835457604E+04  0.16451278150E+04  0.00000000000E+00 0. -1.
<mgrwt>
<rscale>  0 0.13311866E+04</rscale>
<asrwt>0</asrwt>
<pdfrwt beam="2">  1        4 0.24148992E+00 0.13405770E+04</pdfrwt>
<pdfrwt beam="1">  1       -4 0.41421702E+00 0.13218619E+04</pdfrwt>
<totfact> 0.31916769E-02</totfact>
</mgrwt>
</event>
<event>
 8    1  0.3025584E-006  0.1040521E+04  0.7818608E-02  0.8741180E-01
          4   -1    0    0  502    0  0.00000000000E+00  0.00000000000E+00  0.10608216143E+04  0.10608216143E+04  0.00000000000E+00 0.  1.
         -4   -1    0    0    0  501 -0.00000000000E+00 -0.00000000000E+00 -0.11902169934E+04  0.11902169934E+04  0.00000000000E+00 0. -1.
   -9000010    2    1    2    0  501 -0.24683892105E+03  0.76536795667E+02 -0.49991301301E+03  0.11543815196E+04  0.10079168310E+04 0.  0.
    9000010    2    1    2  502    0  0.24683892105E+03 -0.76536795667E+02  0.37051763391E+03  0.10966570882E+04  0.99929280893E+03 0.  0.
        -13    1    4    4    0    0  0.54083911451E+03 -0.32162325453E+03  0.12389307941E+03  0.64132516864E+03  0.10566000000E+00 0.  1.
          4    1    4    4  502    0 -0.29400019346E+03  0.24508645886E+03  0.24662455451E+03  0.45533191955E+03  0.00000000000E+00 0.  1.
         13    1    3    3    0    0 -0.63246372283E+03  0.11844832002E+03 -0.23670814546E+03  0.68561732949E+03  0.10566000000E+00 0. -1.
         -4    1    3    3    0  501  0.38562480178E+03 -0.41911524357E+02 -0.26320486754E+03  0.46876419010E+03  0.00000000000E+00 0. -1.
<mgrwt>
<rscale>  0 0.10363367E+04</rscale>
<asrwt>0</asrwt>
<pdfrwt beam="1">  1        4 0.16320332E+00 0.10321693E+04</pdfrwt>
<pdfrwt beam="2">  1       -4 0.18311031E+00 0.10405209E+04</pdfrwt>
<totfact> 0.26964121E-01</totfact>
</mgrwt>
</event>
<event>
 8    1  0.3025584E-006  0.1177264E+04  0.7818608E-02  0.8637087E-01
         -4   -1    0    0    0  501 -0.00000000000E+00  0.00000000000E+00  0.10616567096E+04  0.10616567096E+04  0.00000000000E+00 0. -1.
          4   -1    0    0  502    0  0.00000000000E+00 -0.00000000000E+00 -0.20163699499E+04  0.20163699499E+04  0.00000000000E+00 0.  1.
   -9000010    2    1    2    0  501  0.31479083524E+03  0.42459176208E+03  0.45560311009E+03  0.12623488716E+04  0.10519406092E+04 0.  0.
    9000010    2    1    2  502    0 -0.31479083524E+03 -0.42459176208E+03 -0.14103163504E+04  0.18156777879E+04  0.10140622205E+04 0.  0.
        -13    1    4    4    0    0  0.32518060557E+02  0.16651733761E+03 -0.10050386893E+04  0.10192586650E+04  0.10566000000E+00 0.  1.
          4    1    4    4  502    0 -0.34730889580E+03 -0.59110909969E+03 -0.40527766113E+03  0.79641912298E+03  0.00000000000E+00 0.  1.
         13    1    3    3    0    0  0.36462300834E+03  0.75449321703E+02 -0.26706044014E+03  0.45821810114E+03  0.10566000000E+00 0. -1.
         -4    1    3    3    0  501 -0.49832173096E+02  0.34914244038E+03  0.72266355023E+03  0.80413077045E+03  0.00000000000E+00 0. -1.
<mgrwt>
<rscale>  0 0.11602817E+04</rscale>
<asrwt>0</asrwt>
<pdfrwt beam="2">  1        4 0.31021076E+00 0.11435443E+04</pdfrwt>
<pdfrwt beam="1">  1       -4 0.16333180E+00 0.11772640E+04</pdfrwt>
<totfact> 0.12575524E-01</totfact>
</mgrwt>
</event>
<event>
 8    1  0.3025584E-006  0.1100275E+04  0.7818608E-02  0.8697811E-01
         -4   -1    0    0    0  501 -0.00000000000E+00  0.00000000000E+00  0.17347412858E+04  0.17347412858E+04  0.00000000000E+00 0. -1.
          4   -1    0    0  502    0  0.00000000000E+00 -0.00000000000E+00 -0.97165663528E+03  0.97165663528E+03  0.00000000000E+00 0.  1.
   -9000010    2    1    2    0  501 -0.57750574762E+02 -0.41265401506E+03  0.11265413492E+04  0.15747067458E+04  0.10183258117E+04 0.  0.
    9000010    2    1    2  502    0  0.57750574762E+02  0.41265401506E+03 -0.36345669866E+03  0.11316911753E+04  0.98742375882E+03 0.  0.
        -13    1    4    4    0    0 -0.15149133257E+03  0.65707126598E-01  0.29227231590E+03  0.32920016095E+03  0.10566000000E+00 0.  1.
          4    1    4    4  502    0  0.20924190733E+03  0.41258830793E+03 -0.65572901456E+03  0.80249101438E+03  0.00000000000E+00 0.  1.
         13    1    3    3    0    0  0.14086389702E+03 -0.69318587462E+03  0.96082900751E+03  0.11931226622E+04  0.10566000000E+00 0. -1.
         -4    1    3    3    0  501 -0.19861447179E+03  0.28053185956E+03  0.16571234168E+03  0.38158408355E+03  0.00000000000E+00 0. -1.
<mgrwt>
<rscale>  0 0.10859134E+04</rscale>
<asrwt>0</asrwt>
<pdfrwt beam="2">  1        4 0.14948564E+00 0.10717388E+04</pdfrwt>
<pdfrwt beam="1">  1       -4 0.26688327E+00 0.11002754E+04</pdfrwt>
<totfact> 0.18593020E-01</totfact>
</mgrwt>
</event>
<event>
 8    1  0.3025584E-006  0.1066187E+04  0.7818608E-02  0.8715945E-01
         -4   -1    0    0    0  501 -0.00000000000E+00  0.00000000000E+00  0.99839141095E+03  0.99839141095E+03  0.00000000000E+00 0. -1.
          4   -1    0    0  502    0  0.00000000000E+00 -0.00000000000E+00 -0.21406566910E+04  0.21406566910E+04  0.00000000000E+00 0.  1.
   -9000010    2    1    2    0  501  0.29562492685E+02 -0.36826180166E+03  0.50387305278E+03  0.11792550166E+04  0.10001318139E+04 0.  0.
    9000010    2    1    2  502    0 -0.29562492685E+02  0.36826180166E+03 -0.16461383328E+04  0.19597930854E+04  0.99725966082E+03 0.  0.
        -13    1    4    4    0    0  0.36721956865E+03  0.46596902824E+03 -0.63408148905E+03  0.86835286192E+03  0.10566000000E+00 0.  1.
          4    1    4    4  502    0 -0.39678206134E+03 -0.97707226577E+02 -0.10120568438E+04  0.10914402234E+04  0.00000000000E+00 0.  1.
         13    1    3    3    0    0 -0.18003486046E+03  0.98441296953E+02 -0.21481520130E+03  0.29706703250E+03  0.10566000000E+00 0. -1.
         -4    1    3    3    0  501  0.20959735315E+03 -0.46670309861E+03  0.71868825408E+03  0.88218798408E+03  0.00000000000E+00 0. -1.
<mgrwt>
<rscale>  0 0.10648391E+04</rscale>
<asrwt>0</asrwt>
<pdfrwt beam="2">  1        4 0.32933179E+00 0.10634931E+04</pdfrwt>
<pdfrwt beam="1">  1       -4 0.15359868E+00 0.10661868E+04</pdfrwt>
<totfact> 0.12200261E-01</totfact>
</mgrwt>
</event>
<event>
 8    1  0.3025584E-006  0.1103645E+04  0.7818608E-02  0.8710976E-01
         -4   -1    0    0    0  501 -0.00000000000E+00  0.00000000000E+00  0.88731259083E+03  0.88731259083E+03  0.00000000000E+00 0. -1.
          4   -1    0    0  502    0  0.00000000000E+00 -0.00000000000E+00 -0.21639025218E+04  0.21639025218E+04  0.00000000000E+00 0.  1.
   -9000010    2    1    2    0  501  0.14427406373E+03 -0.42673532327E+03  0.31776608700E+03  0.11484803611E+04  0.10075285664E+04 0.  0.
    9000010    2    1    2  502    0 -0.14427406373E+03  0.42673532327E+03 -0.15943560180E+04  0.19027347516E+04  0.93568711709E+03 0.  0.
        -13    1    4    4    0    0 -0.17066971617E+03 -0.27133767417E+03 -0.68266679500E+03  0.75417918932E+03  0.10566000000E+00 0.  1.
          4    1    4    4  502    0  0.26395652447E+02  0.69807299744E+03 -0.91168922299E+03  0.11485555622E+04  0.00000000000E+00 0.  1.
         13    1    3    3    0    0  0.42269948535E+03 -0.51378018847E+03 -0.63586946048E+02  0.66834740057E+03  0.10566000000E+00 0. -1.
         -4    1    3    3    0  501 -0.27842542162E+03  0.87044865201E+02  0.38135303305E+03  0.48013296052E+03  0.00000000000E+00 0. -1.
<mgrwt>
<rscale>  0 0.10705636E+04</rscale>
<asrwt>0</asrwt>
<pdfrwt beam="2">  1        4 0.33290808E+00 0.10384741E+04</pdfrwt>
<pdfrwt beam="1">  1       -4 0.13650963E+00 0.11036448E+04</pdfrwt>
<totfact> 0.14237018E-01</totfact>
</mgrwt>
</event>
<event>
 8    1  0.3025584E-006  0.1165418E+04  0.7818608E-02  0.8636415E-01
         -4   -1    0    0    0  501 -0.00000000000E+00  0.00000000000E+00  0.32443609810E+04  0.32443609810E+04  0.00000000000E+00 0. -1.
          4   -1    0    0  502    0  0.00000000000E+00 -0.00000000000E+00 -0.58473260776E+03  0.58473260776E+03  0.00000000000E+00 0.  1.
   -9000010    2    1    2    0  501  0.47530373526E+03  0.27662095330E+03  0.23630529775E+04  0.26348090793E+04  0.10275050935E+04 0.  0.
    9000010    2    1    2  502    0 -0.47530373526E+03 -0.27662095330E+03  0.29657539570E+03  0.11942845094E+04  0.10178043680E+04 0.  0.
        -13    1    4    4    0    0 -0.77409926615E+03 -0.19694472898E+03  0.52775869881E+02  0.80050122032E+03  0.10566000000E+00 0.  1.
          4    1    4    4  502    0  0.29879553089E+03 -0.79676224320E+02  0.24379952582E+03  0.39378328912E+03  0.00000000000E+00 0.  1.
         13    1    3    3    0    0  0.30341515414E+03 -0.36453551112E+03  0.12737808267E+04  0.13592146631E+04  0.10566000000E+00 0. -1.
         -4    1    3    3    0  501  0.17188858111E+03  0.64115646442E+03  0.10892721508E+04  0.12755944162E+04  0.00000000000E+00 0. -1.
<mgrwt>
<rscale>  0 0.11611385E+04</rscale>
<asrwt>0</asrwt>
<pdfrwt beam="2">  1        4 0.89958865E-01 0.11568745E+04</pdfrwt>
<pdfrwt beam="1">  1       -4 0.49913245E+00 0.11654182E+04</pdfrwt>
<totfact> 0.61237762E-02</totfact>
</mgrwt>
</event>
<event>
 8    1  0.3025584E-006  0.1085016E+04  0.7818608E-02  0.8705716E-01
         -4   -1    0    0    0  501 -0.00000000000E+00  0.00000000000E+00  0.17951311173E+04  0.17951311173E+04  0.00000000000E+00 0. -1.
          4   -1    0    0  502    0  0.00000000000E+00 -0.00000000000E+00 -0.11836844714E+04  0.11836844714E+04  0.00000000000E+00 0.  1.
   -9000010    2    1    2    0  501  0.16502840220E+03  0.38995841502E+03  0.13110212257E+04  0.17017747149E+04  0.99897877205E+03 0.  0.
    9000010    2    1    2  502    0 -0.16502840220E+03 -0.38995841502E+03 -0.69957457983E+03  0.12770408738E+04  0.98088065616E+03 0.  0.
        -13    1    4    4    0    0  0.30205413848E+03 -0.20670582069E+02  0.63295549006E+02  0.30930618038E+03  0.10566000000E+00 0.  1.
          4    1    4    4  502    0 -0.46708254067E+03 -0.36928783295E+03 -0.76287012884E+03  0.96773469341E+03  0.00000000000E+00 0.  1.
         13    1    3    3    0    0  0.22629510254E+03  0.37448359979E+03  0.51384518827E+02  0.44055399202E+03  0.10566000000E+00 0. -1.
         -4    1    3    3    0  501 -0.61266700338E+02  0.15474815225E+02  0.12596367069E+04  0.12612207229E+04  0.00000000000E+00 0. -1.
<mgrwt>
<rscale>  0 0.10766644E+04</rscale>
<asrwt>0</asrwt>
<pdfrwt beam="2">  1        4 0.18210530E+00 0.10683767E+04</pdfrwt>
<pdfrwt beam="1">  1       -4 0.27617402E+00 0.10850164E+04</pdfrwt>
<totfact> 0.13384572E-01</totfact>
</mgrwt>
</event>
<event>
 8    1  0.3025584E-006  0.1199252E+04  0.7818608E-02  0.8608281E-01
          4   -1    0    0  502    0  0.00000000000E+00  0.00000000000E+00  0.25431330926E+04  0.25431330926E+04  0.00000000000E+00 0.  1.
         -4   -1    0    0    0  501 -0.00000000000E+00 -0.00000000000E+00 -0.16050447137E+04  0.16050447137E+04  0.00000000000E+00 0. -1.
   -9000010    2    1    2    0  501 -0.60481430948E+03  0.19120055405E+03 -0.12010713826E+04  0.16972852451E+04  0.10177655606E+04 0.  0.
    9000010    2    1    2  502    0  0.60481430948E+03 -0.19120055405E+03  0.21391597615E+04  0.24508925612E+04  0.10141557378E+04 0.  0.
        -13    1    4    4    0    0  0.88822496818E+03 -0.12372605384E+03  0.14848595850E+04  0.17346641545E+04  0.10566000000E+00 0.  1.
          4    1    4    4  502    0 -0.28341065870E+03 -0.67474500205E+02  0.65430017649E+03  0.71622840672E+03  0.00000000000E+00 0.  1.
         13    1    3    3    0    0  0.20656534675E+03 -0.16172878783E+03 -0.90904574085E+02  0.27764923202E+03  0.10566000000E+00 0. -1.
         -4    1    3    3    0  501 -0.81137965622E+03  0.35292934188E+03 -0.11101668085E+04  0.14196360130E+04  0.00000000000E+00 0. -1.
<mgrwt>
<rscale>  0 0.11977198E+04</rscale>
<asrwt>0</asrwt>
<pdfrwt beam="1">  1        4 0.39125124E+00 0.11961897E+04</pdfrwt>
<pdfrwt beam="2">  1       -4 0.24692996E+00 0.11992517E+04</pdfrwt>
<totfact> 0.38875134E-02</totfact>
</mgrwt>
</event>
<event>
 8    1  0.3025584E-006  0.1337436E+04  0.7818608E-02  0.8514446E-01
         -4   -1    0    0    0  501 -0.00000000000E+00  0.00000000000E+00  0.17368587439E+04  0.17368587439E+04  0.00000000000E+00 0.  1.
          4   -1    0    0  502    0  0.00000000000E+00 -0.00000000000E+00 -0.12077444468E+04  0.12077444468E+04  0.00000000000E+00 0. -1.
   -9000010    2    1    2    0  501  0.13033668627E+03  0.86703818678E+03  0.84799724764E+03  0.15836144601E+04  0.10099468091E+04 0.  0.
    9000010    2    1    2  502    0 -0.13033668627E+03 -0.86703818678E+03 -0.31888295045E+03  0.13609887306E+04  0.99088905509E+03 0.  0.
        -13    1    4    4    0    0  0.35949392418E+02  0.21275860945E+03  0.21054564657E+02  0.21679919412E+03  0.10566000000E+00 0.  1.
          4    1    4    4  502    0 -0.16628607869E+03 -0.10797967962E+04 -0.33993751511E+03  0.11441895364E+04  0.00000000000E+00 0.  1.
         13    1    3    3    0    0  0.15075874737E+03 -0.19937828360E+03  0.58811233749E+02  0.25678526488E+03  0.10566000000E+00 0. -1.
         -4    1    3    3    0  501 -0.20422061094E+02  0.10664164704E+04  0.78918601389E+03  0.13268291953E+04  0.00000000000E+00 0. -1.
<mgrwt>
<rscale>  0 0.13302507E+04</rscale>
<asrwt>0</asrwt>
<pdfrwt beam="2">  1        4 0.18580684E+00 0.13231039E+04</pdfrwt>
<pdfrwt beam="1">  1       -4 0.26720904E+00 0.13374361E+04</pdfrwt>
<totfact> 0.13496923E-01</totfact>
</mgrwt>
</event>
<event>
 8    1  0.3025584E-006  0.1108864E+04  0.7818608E-02  0.8696597E-01
          4   -1    0    0  502    0  0.00000000000E+00  0.00000000000E+00  0.15066449727E+04  0.15066449727E+04  0.00000000000E+00 0.  1.
         -4   -1    0    0    0  501 -0.00000000000E+00 -0.00000000000E+00 -0.12566878856E+04  0.12566878856E+04  0.00000000000E+00 0. -1.
   -9000010    2    1    2    0  501  0.17030854386E+03  0.36030336053E+03 -0.72290102477E+03  0.12881951135E+04  0.98895765689E+03 0.  0.
    9000010    2    1    2  502    0 -0.17030854386E+03 -0.36030336053E+03  0.97285811188E+03  0.14751377448E+04  0.10347728971E+04 0.  0.
        -13    1    4    4    0    0  0.28231098710E+02  0.22062008497E+03 -0.96211351142E+02  0.24233623765E+03  0.10566000000E+00 0.  1.
          4    1    4    4  502    0 -0.19853964257E+03 -0.58092344549E+03  0.10690694630E+04  0.12328015071E+04  0.00000000000E+00 0.  1.
         13    1    3    3    0    0 -0.76893299993E+02 -0.19067730947E+03  0.12992285444E+03  0.24320850150E+03  0.10566000000E+00 0. -1.
         -4    1    3    3    0  501  0.24720184385E+03  0.55098066999E+03 -0.85282387922E+03  0.10449866120E+04  0.00000000000E+00 0. -1.
<mgrwt>
<rscale>  0 0.10873413E+04</rscale>
<asrwt>0</asrwt>
<pdfrwt beam="1">  1        4 0.23179154E+00 0.11088636E+04</pdfrwt>
<pdfrwt beam="2">  1       -4 0.19333660E+00 0.10662367E+04</pdfrwt>
<totfact> 0.15716507E-01</totfact>
</mgrwt>
</event>
<event>
 8    1  0.3025584E-006  0.1123884E+04  0.7818608E-02  0.8668017E-01
         -4   -1    0    0    0  501 -0.00000000000E+00  0.00000000000E+00  0.57717217747E+03  0.57717217747E+03  0.00000000000E+00 0. -1.
          4   -1    0    0  502    0  0.00000000000E+00 -0.00000000000E+00 -0.26711686696E+04  0.26711686696E+04  0.00000000000E+00 0.  1.
   -9000010    2    1    2    0  501 -0.44650304957E+03 -0.25281679380E+03 -0.35208228655E+03  0.11777428610E+04  0.99991749944E+03 0.  0.
    9000010    2    1    2  502    0  0.44650304957E+03  0.25281679380E+03 -0.17419142056E+04  0.20705979861E+04  0.99490181212E+03 0.  0.
        -13    1    4    4    0    0  0.57146620572E+03 -0.36080865291E+02 -0.16441379631E+04  0.17409954354E+04  0.10566000000E+00 0.  1.
          4    1    4    4  502    0 -0.12496315615E+03  0.28889765909E+03 -0.97776242477E+02  0.32960255068E+03  0.00000000000E+00 0.  1.
         13    1    3    3    0    0  0.18891032451E+03  0.98886040507E+02 -0.39643011015E+03  0.45013598291E+03  0.10566000000E+00 0. -1.
         -4    1    3    3    0  501 -0.63541337408E+03 -0.35170283430E+03  0.44347823603E+02  0.72760687811E+03  0.00000000000E+00 0. -1.
<mgrwt>
<rscale>  0 0.11216522E+04</rscale>
<asrwt>0</asrwt>
<pdfrwt beam="2">  1        4 0.41094903E+00 0.11194244E+04</pdfrwt>
<pdfrwt beam="1">  1       -4 0.88795719E-01 0.11238845E+04</pdfrwt>
<totfact> 0.15943243E-01</totfact>
</mgrwt>
</event>
<event>
 8    1  0.3025584E-006  0.1028886E+04  0.7818608E-02  0.8752301E-01
          4   -1    0    0  502    0  0.00000000000E+00  0.00000000000E+00  0.34832994106E+04  0.34832994106E+04  0.00000000000E+00 0.  1.
         -4   -1    0    0    0  501 -0.00000000000E+00 -0.00000000000E+00 -0.41060598929E+03  0.41060598929E+03  0.00000000000E+00 0. -1.
   -9000010    2    1    2    0  501  0.16988977584E+03 -0.17789318535E+03  0.53608039530E+03  0.11601676745E+04  0.99904870823E+03 0.  0.
    9000010    2    1    2  502    0 -0.16988977584E+03  0.17789318535E+03  0.25366130260E+04  0.27337377254E+04  0.98914497732E+03 0.  0.
        -13    1    4    4    0    0 -0.26364717389E+03  0.17736891229E+02  0.88601286854E+02  0.27870168425E+03  0.10566000000E+00 0.  1.
          4    1    4    4  502    0  0.93757398043E+02  0.16015629412E+03  0.24480117392E+04  0.24550360411E+04  0.00000000000E+00 0.  1.
         13    1    3    3    0    0  0.51268534207E+03 -0.25760141381E+03  0.72793708622E+02  0.57836293410E+03  0.10566000000E+00 0. -1.
         -4    1    3    3    0  501 -0.34279556623E+03  0.79708228454E+02  0.46328668668E+03  0.58180474041E+03  0.00000000000E+00 0. -1.
<mgrwt>
<rscale>  0 0.10240680E+04</rscale>
<asrwt>0</asrwt>
<pdfrwt beam="1">  1        4 0.53589220E+00 0.10192724E+04</pdfrwt>
<pdfrwt beam="2">  1       -4 0.63170154E-01 0.10288862E+04</pdfrwt>
<totfact> 0.87324819E-02</totfact>
</mgrwt>
</event>
<event>
 8    1  0.3025584E-006  0.1012487E+04  0.7818608E-02  0.8763598E-01
          4   -1    0    0  502    0  0.00000000000E+00  0.00000000000E+00  0.26872103392E+04  0.26872103392E+04  0.00000000000E+00 0.  1.
         -4   -1    0    0    0  501 -0.00000000000E+00 -0.00000000000E+00 -0.78805773015E+03  0.78805773015E+03  0.00000000000E+00 0. -1.
   -9000010    2    1    2    0  501  0.12224218669E+03  0.76812539625E+02 -0.29901459317E+03  0.10557179122E+04  0.10021413397E+04 0.  0.
    9000010    2    1    2  502    0 -0.12224218669E+03 -0.76812539625E+02  0.21981672022E+04  0.24195501572E+04  0.10007200386E+04 0.  0.
        -13    1    4    4    0    0 -0.35041683519E+03 -0.31098449981E+03  0.19595510198E+04  0.20147812605E+04  0.10566000000E+00 0.  1.
          4    1    4    4  502    0  0.22817464850E+03  0.23417196018E+03  0.23861618248E+03  0.40476889665E+03  0.00000000000E+00 0.  1.
         13    1    3    3    0    0  0.44698406010E+03 -0.15601389810E+03  0.10773556096E+03  0.48553274724E+03  0.10566000000E+00 0. -1.
         -4    1    3    3    0  501 -0.32474187341E+03  0.23282643773E+03 -0.40675015414E+03  0.57018516496E+03  0.00000000000E+00 0. -1.
<mgrwt>
<rscale>  0 0.10117837E+04</rscale>
<asrwt>0</asrwt>
<pdfrwt beam="1">  1        4 0.41341697E+00 0.10110806E+04</pdfrwt>
<pdfrwt beam="2">  1       -4 0.12123965E+00 0.10124873E+04</pdfrwt>
<totfact> 0.88228180E-02</totfact>
</mgrwt>
</event>
<event>
 8    1  0.3025584E-006  0.1162256E+04  0.7818608E-02  0.8640876E-01
         -4   -1    0    0    0  501 -0.00000000000E+00  0.00000000000E+00  0.13459590569E+04  0.13459590569E+04  0.00000000000E+00 0. -1.
          4   -1    0    0  502    0  0.00000000000E+00 -0.00000000000E+00 -0.17631493671E+04  0.17631493671E+04  0.00000000000E+00 0.  1.
   -9000010    2    1    2    0  501  0.59947999789E+03  0.98385074816E+02  0.81882065689E+03  0.14217266576E+04  0.99084990285E+03 0.  0.
    9000010    2    1    2  502    0 -0.59947999789E+03 -0.98385074816E+02 -0.12360109670E+04  0.16873817664E+04  0.97492472737E+03 0.  0.
        -13    1    4    4    0    0 -0.54226104171E+03  0.37011539185E+03 -0.56007726374E+03  0.86297102683E+03  0.10566000000E+00 0.  1.
          4    1    4    4  502    0 -0.57218956182E+02 -0.46850046666E+03 -0.67593370330E+03  0.82441073954E+03  0.00000000000E+00 0.  1.
         13    1    3    3    0    0  0.35476845756E+03 -0.43736410350E+03  0.49390483999E+03  0.74905942330E+03  0.10566000000E+00 0. -1.
         -4    1    3    3    0  501  0.24471154033E+03  0.53574917831E+03  0.32491581690E+03  0.67266723430E+03  0.00000000000E+00 0. -1.
<mgrwt>
<rscale>  0 0.11554631E+04</rscale>
<asrwt>0</asrwt>
<pdfrwt beam="2">  1        4 0.27125375E+00 0.11487098E+04</pdfrwt>
<pdfrwt beam="1">  1       -4 0.20707063E+00 0.11622562E+04</pdfrwt>
<totfact> 0.11570092E-01</totfact>
</mgrwt>
</event>
<event>
 8    1  0.3025584E-006  0.1110037E+04  0.7818608E-02  0.8680919E-01
         -4   -1    0    0    0  501 -0.00000000000E+00  0.00000000000E+00  0.20819982756E+04  0.20819982756E+04  0.00000000000E+00 0. -1.
          4   -1    0    0  502    0  0.00000000000E+00 -0.00000000000E+00 -0.19474994747E+04  0.19474994747E+04  0.00000000000E+00 0.  1.
   -9000010    2    1    2    0  501 -0.46598848238E+03  0.71681691351E+02  0.17507964297E+04  0.20687328137E+04  0.99603402835E+03 0.  0.
    9000010    2    1    2  502    0  0.46598848238E+03 -0.71681691351E+02 -0.16162976288E+04  0.19607649365E+04  0.10049366054E+04 0.  0.
        -13    1    4    4    0    0  0.48320197064E+03  0.40282239208E+03 -0.10217644831E+04  0.11998969514E+04  0.10566000000E+00 0.  1.
          4    1    4    4  502    0 -0.17213488264E+02 -0.47450408343E+03 -0.59453314573E+03  0.76086798509E+03  0.00000000000E+00 0.  1.
         13    1    3    3    0    0  0.24096913893E+03 -0.13477237591E+03  0.16855458080E+03  0.32348164878E+03  0.10566000000E+00 0. -1.
         -4    1    3    3    0  501 -0.70695762131E+03  0.20645406726E+03  0.15822418489E+04  0.17452511649E+04  0.00000000000E+00 0. -1.
<mgrwt>
<rscale>  0 0.11060026E+04</rscale>
<asrwt>0</asrwt>
<pdfrwt beam="2">  1        4 0.29961530E+00 0.11100365E+04</pdfrwt>
<pdfrwt beam="1">  1       -4 0.32030743E+00 0.11019834E+04</pdfrwt>
<totfact> 0.50589877E-02</totfact>
</mgrwt>
</event>
<event>
 8    1  0.3025584E-006  0.1206152E+04  0.7818608E-02  0.8611119E-01
         -4   -1    0    0    0  501 -0.00000000000E+00  0.00000000000E+00  0.33516801600E+04  0.33516801600E+04  0.00000000000E+00 0. -1.
          4   -1    0    0  502    0  0.00000000000E+00 -0.00000000000E+00 -0.90951283903E+03  0.90951283903E+03  0.00000000000E+00 0.  1.
   -9000010    2    1    2    0  501  0.36818817914E+02  0.62470145327E+03  0.27697223486E+04  0.30113554725E+04  0.10026426893E+04 0.  0.
    9000010    2    1    2  502    0 -0.36818817914E+02 -0.62470145327E+03 -0.32755502762E+03  0.12498375265E+04  0.10311129984E+04 0.  0.
        -13    1    4    4    0    0 -0.28016577921E+03  0.16111326082E+03  0.78298684774E+02  0.33253727889E+03  0.10566000000E+00 0.  1.
          4    1    4    4  502    0  0.24334696130E+03 -0.78581471409E+03 -0.40585371239E+03  0.91730024763E+03  0.00000000000E+00 0.  1.
         13    1    3    3    0    0  0.35036917186E+03  0.27435461753E+03  0.23146026664E+04  0.23569926871E+04  0.10566000000E+00 0. -1.
         -4    1    3    3    0  501 -0.31355035395E+03  0.35034683574E+03  0.45511968226E+03  0.65436278543E+03  0.00000000000E+00 0. -1.
<mgrwt>
<rscale>  0 0.11939668E+04</rscale>
<asrwt>0</asrwt>
<pdfrwt beam="2">  1        4 0.13992505E+00 0.12061515E+04</pdfrwt>
<pdfrwt beam="1">  1       -4 0.51564310E+00 0.11819052E+04</pdfrwt>
<totfact> 0.23441724E-02</totfact>
</mgrwt>
</event>
<event>
 8    1  0.3025584E-006  0.1380535E+04  0.7818608E-02  0.8544736E-01
          4   -1    0    0  502    0  0.00000000000E+00  0.00000000000E+00  0.10417152764E+04  0.10417152764E+04  0.00000000000E+00 0.  1.
         -4   -1    0    0    0  501 -0.00000000000E+00 -0.00000000000E+00 -0.15953174282E+04  0.15953174282E+04  0.00000000000E+00 0. -1.
   -9000010    2    1    2    0  501 -0.30864828272E+03  0.88768565588E+03 -0.32252219887E+03  0.14177088828E+04  0.10112508698E+04 0.  0.
    9000010    2    1    2  502    0  0.30864828272E+03 -0.88768565588E+03 -0.23107995285E+03  0.12193238218E+04  0.74168932289E+03 0.  0.
        -13    1    4    4    0    0  0.34934810664E+03 -0.40264706200E+03 -0.43847475246E+03  0.69023827470E+03  0.10566000000E+00 0.  1.
          4    1    4    4  502    0 -0.40699823928E+02 -0.48503859388E+03  0.20739479962E+03  0.52908554708E+03  0.00000000000E+00 0.  1.
         13    1    3    3    0    0 -0.79653377513E+02 -0.13686660493E+03 -0.33200181394E+03  0.36783466900E+03  0.10566000000E+00 0. -1.
         -4    1    3    3    0  501 -0.22899490520E+03  0.10245522608E+04  0.94796150711E+01  0.10498742138E+04  0.00000000000E+00 0. -1.
<mgrwt>
<rscale>  0 0.12856183E+04</rscale>
<asrwt>0</asrwt>
<pdfrwt beam="1">  1        4 0.16026389E+00 0.11972271E+04</pdfrwt>
<pdfrwt beam="2">  1       -4 0.24543345E+00 0.13805354E+04</pdfrwt>
<totfact> 0.18695690E-01</totfact>
</mgrwt>
</event>
<event>
 8    1  0.3025584E-006  0.1413057E+04  0.7818608E-02  0.8467601E-01
         -4   -1    0    0    0  501 -0.00000000000E+00  0.00000000000E+00  0.15873387516E+04  0.15873387516E+04  0.00000000000E+00 0. -1.
          4   -1    0    0  502    0  0.00000000000E+00 -0.00000000000E+00 -0.26108095597E+04  0.26108095597E+04  0.00000000000E+00 0.  1.
   -9000010    2    1    2    0  501 -0.53627140576E+03  0.79038117016E+03  0.10074282702E+04  0.17354086408E+04  0.10413654576E+04 0.  0.
    9000010    2    1    2  502    0  0.53627140576E+03 -0.79038117016E+03 -0.20308990782E+04  0.24627396705E+04  0.10140247550E+04 0.  0.
        -13    1    4    4    0    0  0.64069751422E+03 -0.58793323422E+03 -0.20571979862E+04  0.22334328641E+04  0.10566000000E+00 0.  1.
          4    1    4    4  502    0 -0.10442610846E+03 -0.20244793593E+03  0.26298908004E+02  0.22930680638E+03  0.00000000000E+00 0.  1.
         13    1    3    3    0    0 -0.26912508384E+03  0.10199008600E+04  0.68354495438E+03  0.12569247356E+04  0.10566000000E+00 0. -1.
         -4    1    3    3    0  501 -0.26714632192E+03 -0.22951968987E+03  0.32388331582E+03  0.47848390529E+03  0.00000000000E+00 0. -1.
<mgrwt>
<rscale>  0 0.14030086E+04</rscale>
<asrwt>0</asrwt>
<pdfrwt beam="2">  1        4 0.40166301E+00 0.13930311E+04</pdfrwt>
<pdfrwt beam="1">  1       -4 0.24420596E+00 0.14130575E+04</pdfrwt>
<totfact> 0.35130098E-02</totfact>
</mgrwt>
</event>
<event>
 8    1  0.3025584E-006  0.1150412E+04  0.7818608E-02  0.8650373E-01
         -4   -1    0    0    0  501 -0.00000000000E+00  0.00000000000E+00  0.79404154395E+03  0.79404154395E+03  0.00000000000E+00 0. -1.
          4   -1    0    0  502    0  0.00000000000E+00 -0.00000000000E+00 -0.35002707930E+04  0.35002707930E+04  0.00000000000E+00 0.  1.
   -9000010    2    1    2    0  501  0.55270578690E+03 -0.73404455888E+02  0.21316272676E+03  0.11564313001E+04  0.99046610381E+03 0.  0.
    9000010    2    1    2  502    0 -0.55270578690E+03  0.73404455888E+02 -0.29193919758E+04  0.31378810368E+04  0.10062683498E+04 0.  0.
        -13    1    4    4    0    0 -0.73892587385E+03  0.14357288134E+02 -0.12135383346E+04  0.14208775034E+04  0.10566000000E+00 0.  1.
          4    1    4    4  502    0  0.18622008695E+03  0.59047167754E+02 -0.17058536412E+04  0.17170035335E+04  0.00000000000E+00 0.  1.
         13    1    3    3    0    0 -0.21513246018E+03  0.11360653899E+03 -0.15093877141E+03  0.28630568455E+03  0.10566000000E+00 0. -1.
         -4    1    3    3    0  501  0.76783824709E+03 -0.18701099488E+03  0.36410149817E+03  0.87012561557E+03  0.00000000000E+00 0. -1.
<mgrwt>
<rscale>  0 0.11434930E+04</rscale>
<asrwt>0</asrwt>
<pdfrwt beam="2">  1        4 0.53850319E+00 0.11504121E+04</pdfrwt>
<pdfrwt beam="1">  1       -4 0.12216024E+00 0.11366156E+04</pdfrwt>
<totfact> 0.22858696E-02</totfact>
</mgrwt>
</event>
<event>
 8    1  0.3025584E-006  0.1337786E+04  0.7818608E-02  0.8510385E-01
         -4   -1    0    0    0  501 -0.00000000000E+00  0.00000000000E+00  0.39512561732E+04  0.39512561732E+04  0.00000000000E+00 0. -1.
          4   -1    0    0  502    0  0.00000000000E+00 -0.00000000000E+00 -0.53667298120E+03  0.53667298120E+03  0.00000000000E+00 0.  1.
   -9000010    2    1    2    0  501 -0.82442810777E+03  0.30935522372E+03  0.26002147477E+04  0.29241731692E+04  0.10071194715E+04 0.  0.
    9000010    2    1    2  502    0  0.82442810777E+03 -0.30935522372E+03  0.81436844433E+03  0.15637559853E+04  0.10033715458E+04 0.  0.
        -13    1    4    4    0    0  0.48576701352E+02  0.55199071857E+02 -0.21322700471E+03  0.22554910807E+03  0.10566000000E+00 0.  1.
          4    1    4    4  502    0  0.77585140642E+03 -0.36455429557E+03  0.10275954490E+04  0.13382068772E+04  0.00000000000E+00 0.  1.
         13    1    3    3    0    0  0.54037533635E+02 -0.54981825853E+02  0.13556722591E+04  0.13578624162E+04  0.10566000000E+00 0. -1.
         -4    1    3    3    0  501 -0.87846564141E+03  0.36433704957E+03  0.12445424886E+04  0.15663107530E+04  0.00000000000E+00 0. -1.
<mgrwt>
<rscale>  0 0.13363759E+04</rscale>
<asrwt>0</asrwt>
<pdfrwt beam="2">  1        4 0.82565076E-01 0.13349670E+04</pdfrwt>
<pdfrwt beam="1">  1       -4 0.60788555E+00 0.13377862E+04</pdfrwt>
<totfact> 0.20083022E-02</totfact>
</mgrwt>
</event>
<event>
 8    1  0.3025584E-006  0.1095741E+04  0.7818608E-02  0.8694397E-01
         -4   -1    0    0    0  501 -0.00000000000E+00  0.00000000000E+00  0.18285469957E+04  0.18285469957E+04  0.00000000000E+00 0. -1.
          4   -1    0    0  502    0  0.00000000000E+00 -0.00000000000E+00 -0.68355361297E+03  0.68355361297E+03  0.00000000000E+00 0.  1.
   -9000010    2    1    2    0  501  0.45436959256E+03  0.18126652888E+03  0.84915398808E+03  0.13771246899E+04  0.96752293765E+03 0.  0.
    9000010    2    1    2  502    0 -0.45436959256E+03 -0.18126652888E+03  0.29583939463E+03  0.11349759188E+04  0.98047952943E+03 0.  0.
        -13    1    4    4    0    0 -0.45899529193E+03  0.33276750860E+03  0.62252737972E+02  0.57033876542E+03  0.10566000000E+00 0.  1.
          4    1    4    4  502    0  0.46256993676E+01 -0.51403403747E+03  0.23358665666E+03  0.56463715335E+03  0.00000000000E+00 0.  1.
         13    1    3    3    0    0  0.56580550062E+03 -0.25678793582E+03  0.39444558890E+03  0.73597774578E+03  0.10566000000E+00 0. -1.
         -4    1    3    3    0  501 -0.11143590806E+03  0.43805446470E+03  0.45470839919E+03  0.64114694411E+03  0.00000000000E+00 0. -1.
<mgrwt>
<rscale>  0 0.10899370E+04</rscale>
<asrwt>0</asrwt>
<pdfrwt beam="2">  1        4 0.10516209E+00 0.10957415E+04</pdfrwt>
<pdfrwt beam="1">  1       -4 0.28131492E+00 0.10841632E+04</pdfrwt>
<totfact> 0.30584955E-01</totfact>
</mgrwt>
</event>
<event>
 8    1  0.3025584E-006  0.1253373E+04  0.7818608E-02  0.8571678E-01
          4   -1    0    0  502    0  0.00000000000E+00  0.00000000000E+00  0.37314717134E+03  0.37314717134E+03  0.00000000000E+00 0.  1.
         -4   -1    0    0    0  501 -0.00000000000E+00 -0.00000000000E+00 -0.42459310491E+04  0.42459310491E+04  0.00000000000E+00 0. -1.
   -9000010    2    1    2    0  501 -0.13154437099E+03 -0.73853804537E+03 -0.16370849537E+04  0.20617932897E+04  0.10040926541E+04 0.  0.
    9000010    2    1    2  502    0  0.13154437099E+03  0.73853804537E+03 -0.22356989241E+04  0.25572849307E+04  0.98924929696E+03 0.  0.
        -13    1    4    4    0    0  0.18923397690E+03 -0.72656383168E+02 -0.13079238820E+04  0.13235381900E+04  0.10566000000E+00 0.  1.
          4    1    4    4  502    0 -0.57689605909E+02  0.81119442854E+03 -0.92777504211E+03  0.12337467407E+04  0.00000000000E+00 0.  1.
         13    1    3    3    0    0  0.29263882542E+03 -0.24715119716E+03 -0.12468931390E+04  0.13044016665E+04  0.10566000000E+00 0. -1.
         -4    1    3    3    0  501 -0.42418319641E+03 -0.49138684821E+03 -0.39019181471E+03  0.75739162326E+03  0.00000000000E+00 0. -1.
<mgrwt>
<rscale>  0 0.12474294E+04</rscale>
<asrwt>0</asrwt>
<pdfrwt beam="1">  1        4 0.57407256E-01 0.12415138E+04</pdfrwt>
<pdfrwt beam="2">  1       -4 0.65322018E+00 0.12533732E+04</pdfrwt>
<totfact> 0.24670911E-02</totfact>
</mgrwt>
</event>
<event>
 8    1  0.3025584E-006  0.1280379E+04  0.7818608E-02  0.8548403E-01
         -4   -1    0    0    0  501 -0.00000000000E+00  0.00000000000E+00  0.12190342103E+04  0.12190342103E+04  0.00000000000E+00 0. -1.
          4   -1    0    0  502    0  0.00000000000E+00 -0.00000000000E+00 -0.13738776606E+04  0.13738776606E+04  0.00000000000E+00 0.  1.
   -9000010    2    1    2    0  501 -0.75971439671E+03 -0.25850036294E+03  0.11143518663E+03  0.12851369575E+04  0.99758247609E+03 0.  0.
    9000010    2    1    2  502    0  0.75971439671E+03  0.25850036294E+03 -0.26627863696E+03  0.13077749133E+04  0.99768858331E+03 0.  0.
        -13    1    4    4    0    0  0.60592811946E+03  0.62036127017E+03 -0.74665966101E+02  0.87038612647E+03  0.10566000000E+00 0.  1.
          4    1    4    4  502    0  0.15378627725E+03 -0.36186090723E+03 -0.19161267086E+03  0.43738878688E+03  0.00000000000E+00 0.  1.
         13    1    3    3    0    0 -0.76970706251E+03 -0.52573436014E+03 -0.10913843421E+03  0.93848643491E+03  0.10566000000E+00 0. -1.
         -4    1    3    3    0  501  0.99926658004E+01  0.26723399720E+03  0.22057362084E+03  0.34665052263E+03  0.00000000000E+00 0. -1.
<mgrwt>
<rscale>  0 0.12803379E+04</rscale>
<asrwt>0</asrwt>
<pdfrwt beam="2">  1        4 0.21136579E+00 0.12803792E+04</pdfrwt>
<pdfrwt beam="1">  1       -4 0.18754372E+00 0.12802965E+04</pdfrwt>
<totfact> 0.18305228E-01</totfact>
</mgrwt>
</event>
<event>
 8    1  0.3025584E-006  0.1082069E+04  0.7818608E-02  0.8709100E-01
         -4   -1    0    0    0  501 -0.00000000000E+00  0.00000000000E+00  0.25272653574E+04  0.25272653574E+04  0.00000000000E+00 0. -1.
          4   -1    0    0  502    0  0.00000000000E+00 -0.00000000000E+00 -0.17304669560E+04  0.17304669560E+04  0.00000000000E+00 0.  1.
   -9000010    2    1    2    0  501 -0.60189628151E+02  0.34562733006E+03  0.22267079062E+04  0.24757022241E+04  0.10236172919E+04 0.  0.
    9000010    2    1    2  502    0  0.60189628151E+02 -0.34562733006E+03 -0.14299095047E+04  0.17820300893E+04  0.10039467142E+04 0.  0.
        -13    1    4    4    0    0  0.50229589272E+02 -0.43636060755E+03 -0.15613758682E+04  0.16219828003E+04  0.10566000000E+00 0.  1.
          4    1    4    4  502    0  0.99600388785E+01  0.90733277489E+02  0.13146636346E+03  0.16004728907E+03  0.00000000000E+00 0.  1.
         13    1    3    3    0    0  0.22674921265E+03 -0.26257292741E+03  0.11936318319E+04  0.12430272358E+04  0.10566000000E+00 0. -1.
         -4    1    3    3    0  501 -0.28693884080E+03  0.60820025747E+03  0.10330760743E+04  0.12326749883E+04  0.00000000000E+00 0. -1.
<mgrwt>
<rscale>  0 0.10727343E+04</rscale>
<asrwt>0</asrwt>
<pdfrwt beam="2">  1        4 0.26622569E+00 0.10634802E+04</pdfrwt>
<pdfrwt beam="1">  1       -4 0.38881006E+00 0.10820690E+04</pdfrwt>
<totfact> 0.36338718E-02</totfact>
</mgrwt>
</event>
<event>
 8    1  0.3025584E-006  0.1097774E+04  0.7818608E-02  0.8690688E-01
         -4   -1    0    0    0  501 -0.00000000000E+00  0.00000000000E+00  0.12212741128E+04  0.12212741128E+04  0.00000000000E+00 0. -1.
          4   -1    0    0  502    0  0.00000000000E+00 -0.00000000000E+00 -0.16577073658E+04  0.16577073658E+04  0.00000000000E+00 0.  1.
   -9000010    2    1    2    0  501  0.42702245431E+03 -0.13441087912E+03  0.70137300386E+03  0.13027021208E+04  0.10023443840E+04 0.  0.
    9000010    2    1    2  502    0 -0.42702245431E+03  0.13441087912E+03 -0.11378062569E+04  0.15762793578E+04  0.99480604872E+03 0.  0.
        -13    1    4    4    0    0 -0.50517728333E+03  0.28659223205E+03 -0.12454032865E+04  0.13741792285E+04  0.10566000000E+00 0.  1.
          4    1    4    4  502    0  0.78154829019E+02 -0.15218135293E+03  0.10759702953E+03  0.20210012925E+03  0.00000000000E+00 0.  1.
         13    1    3    3    0    0  0.66492391766E+01 -0.42856757276E+03  0.66131672026E+03  0.78806991597E+03  0.10566000000E+00 0. -1.
         -4    1    3    3    0  501  0.42037321513E+03  0.29415669364E+03  0.40056283601E+02  0.51463220485E+03  0.00000000000E+00 0. -1.
<mgrwt>
<rscale>  0 0.10943297E+04</rscale>
<asrwt>0</asrwt>
<pdfrwt beam="2">  1        4 0.25503190E+00 0.10908957E+04</pdfrwt>
<pdfrwt beam="1">  1       -4 0.18788833E+00 0.10977744E+04</pdfrwt>
<totfact> 0.14365155E-01</totfact>
</mgrwt>
</event>
<event>
 8    1  0.3025584E-006  0.1371127E+04  0.7818608E-02  0.8490159E-01
         -4   -1    0    0    0  501 -0.00000000000E+00  0.00000000000E+00  0.16997981771E+04  0.16997981771E+04  0.00000000000E+00 0. -1.
          4   -1    0    0  502    0  0.00000000000E+00 -0.00000000000E+00 -0.28211090455E+04  0.28211090455E+04  0.00000000000E+00 0.  1.
   -9000010    2    1    2    0  501 -0.91622780264E+03  0.95182732451E+02  0.12043374227E+04  0.18249430491E+04  0.10156059108E+04 0.  0.
    9000010    2    1    2  502    0  0.91622780264E+03 -0.95182732451E+02 -0.23256482911E+04  0.26959641734E+04  0.10055096775E+04 0.  0.
        -13    1    4    4    0    0  0.10324063563E+04  0.14681342889E+03 -0.14930203358E+04  0.18211333838E+04  0.10566000000E+00 0.  1.
          4    1    4    4  502    0 -0.11617855366E+03 -0.24199616134E+03 -0.83262795531E+03  0.87483078958E+03  0.00000000000E+00 0.  1.
         13    1    3    3    0    0 -0.10125991984E+04 -0.79569940544E+02  0.12593685765E+04  0.16179300772E+04  0.10566000000E+00 0. -1.
         -4    1    3    3    0  501  0.96371395772E+02  0.17475267300E+03 -0.55031153866E+02  0.20701297191E+03  0.00000000000E+00 0. -1.
<mgrwt>
<rscale>  0 0.13673909E+04</rscale>
<asrwt>0</asrwt>
<pdfrwt beam="2">  1        4 0.43401677E+00 0.13636652E+04</pdfrwt>
<pdfrwt beam="1">  1       -4 0.26150741E+00 0.13711267E+04</pdfrwt>
<totfact> 0.23407388E-02</totfact>
</mgrwt>
</event>
<event>
 8    1  0.3025584E-006  0.1124320E+04  0.7818608E-02  0.8724583E-01
         -4   -1    0    0    0  501 -0.00000000000E+00  0.00000000000E+00  0.23641643681E+04  0.23641643681E+04  0.00000000000E+00 0. -1.
          4   -1    0    0  502    0  0.00000000000E+00 -0.00000000000E+00 -0.53254234702E+03  0.53254234702E+03  0.00000000000E+00 0.  1.
   -9000010    2    1    2    0  501  0.14570817217E+03  0.31484991124E+03  0.13488576765E+04  0.16731226952E+04  0.92712522541E+03 0.  0.
    9000010    2    1    2  502    0 -0.14570817217E+03 -0.31484991124E+03  0.48276434459E+03  0.12235840200E+04  0.10694555173E+04 0.  0.
        -13    1    4    4    0    0  0.23354426876E+03  0.11526279294E+03 -0.20260239097E+03  0.32996390242E+03  0.10566000000E+00 0.  1.
          4    1    4    4  502    0 -0.37925244094E+03 -0.43011270419E+03  0.68536673556E+03  0.89362011754E+03  0.00000000000E+00 0.  1.
         13    1    3    3    0    0  0.46018159653E+03  0.21897396993E+03  0.12161005643E+04  0.13185663786E+04  0.10566000000E+00 0. -1.
         -4    1    3    3    0  501 -0.31447342436E+03  0.95875941314E+02  0.13275711225E+03  0.35455631655E+03  0.00000000000E+00 0. -1.
<mgrwt>
<rscale>  0 0.10549770E+04</rscale>
<asrwt>0</asrwt>
<pdfrwt beam="2">  1        4 0.81929593E-01 0.11243204E+04</pdfrwt>
<pdfrwt beam="1">  1       -4 0.36371759E+00 0.98991036E+03</pdfrwt>
<totfact> 0.28882894E-01</totfact>
</mgrwt>
</event>
<event>
 8    1  0.3025584E-006  0.1126883E+04  0.7818608E-02  0.8669666E-01
         -4   -1    0    0    0  501 -0.00000000000E+00  0.00000000000E+00  0.23455677917E+04  0.23455677917E+04  0.00000000000E+00 0. -1.
          4   -1    0    0  502    0  0.00000000000E+00 -0.00000000000E+00 -0.55070093978E+03  0.55070093978E+03  0.00000000000E+00 0.  1.
   -9000010    2    1    2    0  501 -0.56925492199E+02  0.52424352404E+03  0.65445950327E+03  0.13031432171E+04  0.99588815578E+03 0.  0.
    9000010    2    1    2  502    0  0.56925492199E+02 -0.52424352404E+03  0.11404073487E+04  0.15931255144E+04  0.97951426707E+03 0.  0.
        -13    1    4    4    0    0  0.16581193057E+03 -0.32514345671E+03  0.12770838903E+04  0.13282150194E+04  0.10566000000E+00 0.  1.
          4    1    4    4  502    0 -0.10888643837E+03 -0.19910006733E+03 -0.13667654166E+03  0.26491049490E+03  0.00000000000E+00 0.  1.
         13    1    3    3    0    0 -0.10369264377E+02  0.80484258609E+03  0.62125271803E+03  0.10167763082E+04  0.10566000000E+00 0. -1.
         -4    1    3    3    0  501 -0.46556227822E+02 -0.28059906205E+03  0.33206785244E+02  0.28636690898E+03  0.00000000000E+00 0. -1.
<mgrwt>
<rscale>  0 0.11196375E+04</rscale>
<asrwt>0</asrwt>
<pdfrwt beam="2">  1        4 0.84723223E-01 0.11124388E+04</pdfrwt>
<pdfrwt beam="1">  1       -4 0.36085658E+00 0.11268829E+04</pdfrwt>
<totfact> 0.27291631E-01</totfact>
</mgrwt>
</event>
<event>
 8    1  0.3025584E-006  0.1230497E+04  0.7818608E-02  0.8586713E-01
         -4   -1    0    0    0  501 -0.00000000000E+00  0.00000000000E+00  0.15390436442E+04  0.15390436442E+04  0.00000000000E+00 0. -1.
          4   -1    0    0  502    0  0.00000000000E+00 -0.00000000000E+00 -0.22888234266E+04  0.22888234266E+04  0.00000000000E+00 0.  1.
   -9000010    2    1    2    0  501 -0.23308930946E+03  0.68141880385E+03  0.10741379651E+04  0.16276856412E+04  0.98839565262E+03 0.  0.
    9000010    2    1    2  502    0  0.23308930946E+03 -0.68141880385E+03 -0.18239177475E+04  0.22001814295E+04  0.99772749834E+03 0.  0.
        -13    1    4    4    0    0  0.42095688246E+03 -0.35238113737E+03 -0.29140565912E+03  0.62152589021E+03  0.10566000000E+00 0.  1.
          4    1    4    4  502    0 -0.18786757300E+03 -0.32903766648E+03 -0.15325120883E+04  0.15786555393E+04  0.00000000000E+00 0.  1.
         13    1    3    3    0    0 -0.12200008046E+03  0.27622173507E+03  0.11601660661E+04  0.11988193269E+04  0.10566000000E+00 0. -1.
         -4    1    3    3    0  501 -0.11108922900E+03  0.40519706878E+03 -0.86028101016E+02  0.42886631426E+03  0.00000000000E+00 0. -1.
<mgrwt>
<rscale>  0 0.12267138E+04</rscale>
<asrwt>0</asrwt>
<pdfrwt beam="2">  1        4 0.35212668E+00 0.12304968E+04</pdfrwt>
<pdfrwt beam="1">  1       -4 0.23677595E+00 0.12229424E+04</pdfrwt>
<totfact> 0.57121861E-02</totfact>
</mgrwt>
</event>
<event>
 8    1  0.3025584E-006  0.1162136E+04  0.7818608E-02  0.8638664E-01
          4   -1    0    0  502    0  0.00000000000E+00  0.00000000000E+00  0.28197103122E+04  0.28197103122E+04  0.00000000000E+00 0.  1.
         -4   -1    0    0    0  501 -0.00000000000E+00 -0.00000000000E+00 -0.21137419041E+04  0.21137419041E+04  0.00000000000E+00 0. -1.
   -9000010    2    1    2    0  501 -0.11605928560E+03 -0.56229419516E+03 -0.18187013474E+04  0.21541507329E+04  0.10015219763E+04 0.  0.
    9000010    2    1    2  502    0  0.11605928560E+03  0.56229419516E+03  0.25246697555E+04  0.27793014834E+04  0.10104033066E+04 0.  0.
        -13    1    4    4    0    0  0.40674237524E+03  0.34439357474E+03  0.22796213064E+04  0.23410936773E+04  0.10566000000E+00 0.  1.
          4    1    4    4  502    0 -0.29068308964E+03  0.21790062042E+03  0.24504844911E+03  0.43820780617E+03  0.00000000000E+00 0.  1.
         13    1    3    3    0    0 -0.28209102316E+03 -0.28748968179E+03 -0.17866511791E+04  0.18314879495E+04  0.10566000000E+00 0. -1.
         -4    1    3    3    0  501  0.16603173756E+03 -0.27480451337E+03 -0.32050168383E+02  0.32266278332E+03  0.00000000000E+00 0. -1.
<mgrwt>
<rscale>  0 0.11582726E+04</rscale>
<asrwt>0</asrwt>
<pdfrwt beam="1">  1        4 0.43380159E+00 0.11621357E+04</pdfrwt>
<pdfrwt beam="2">  1       -4 0.32519106E+00 0.11544223E+04</pdfrwt>
<totfact> 0.16371009E-02</totfact>
</mgrwt>
</event>
<event>
 8    1  0.3025584E-006  0.1116800E+04  0.7818608E-02  0.8692045E-01
         -4   -1    0    0    0  501 -0.00000000000E+00  0.00000000000E+00  0.11998213090E+04  0.11998213090E+04  0.00000000000E+00 0. -1.
          4   -1    0    0  502    0  0.00000000000E+00 -0.00000000000E+00 -0.26003792971E+04  0.26003792971E+04  0.00000000000E+00 0.  1.
   -9000010    2    1    2    0  501 -0.28235387154E+03 -0.41476731989E+03  0.79808108826E+03  0.13341804554E+04  0.94411250688E+03 0.  0.
    9000010    2    1    2  502    0  0.28235387154E+03  0.41476731989E+03 -0.21986390763E+04  0.24660201508E+04  0.99774042596E+03 0.  0.
        -13    1    4    4    0    0 -0.29098716281E+03  0.42243621669E+03 -0.75591372845E+03  0.91352693562E+03  0.10566000000E+00 0.  1.
          4    1    4    4  502    0  0.57334103435E+03 -0.76688967955E+01 -0.14427253479E+04  0.15524932151E+04  0.00000000000E+00 0.  1.
         13    1    3    3    0    0 -0.21237122899E+02 -0.46698400736E+03  0.92709825921E+03  0.10382852556E+04  0.10566000000E+00 0. -1.
         -4    1    3    3    0  501 -0.26111674865E+03  0.52216687462E+02 -0.12901717096E+03  0.29589519982E+03  0.00000000000E+00 0. -1.
<mgrwt>
<rscale>  0 0.10927205E+04</rscale>
<asrwt>0</asrwt>
<pdfrwt beam="2">  1        4 0.40005835E+00 0.11167997E+04</pdfrwt>
<pdfrwt beam="1">  1       -4 0.18458790E+00 0.10691604E+04</pdfrwt>
<totfact> 0.52973916E-02</totfact>
</mgrwt>
</event>
<event>
 8    1  0.3025584E-006  0.1063203E+04  0.7818608E-02  0.8717452E-01
         -4   -1    0    0    0  501 -0.00000000000E+00  0.00000000000E+00  0.98775719580E+03  0.98775719580E+03  0.00000000000E+00 0. -1.
          4   -1    0    0  502    0  0.00000000000E+00 -0.00000000000E+00 -0.16013687173E+04  0.16013687173E+04  0.00000000000E+00 0.  1.
   -9000010    2    1    2    0  501  0.24746887768E+03  0.32119306878E+03  0.38490055145E+03  0.11305558338E+04  0.98265061231E+03 0.  0.
    9000010    2    1    2  502    0 -0.24746887768E+03 -0.32119306878E+03 -0.99851207298E+03  0.14585700794E+04  0.98285018373E+03 0.  0.
        -13    1    4    4    0    0 -0.17698071738E+03 -0.59000748185E+03 -0.25836322774E+03  0.66796898998E+03  0.10566000000E+00 0.  1.
          4    1    4    4  502    0 -0.70488160308E+02  0.26881441307E+03 -0.74014884524E+03  0.79060108938E+03  0.00000000000E+00 0.  1.
         13    1    3    3    0    0  0.30860895737E+03 -0.23193039398E+03  0.42310253172E+03  0.57275383869E+03  0.10566000000E+00 0. -1.
         -4    1    3    3    0  501 -0.61140079689E+02  0.55312346276E+03 -0.38201980274E+02  0.55780199507E+03  0.00000000000E+00 0. -1.
<mgrwt>
<rscale>  0 0.10631106E+04</rscale>
<asrwt>0</asrwt>
<pdfrwt beam="2">  1        4 0.24636442E+00 0.10632029E+04</pdfrwt>
<pdfrwt beam="1">  1       -4 0.15196265E+00 0.10630184E+04</pdfrwt>
<totfact> 0.20307432E-01</totfact>
</mgrwt>
</event>
<event>
 8    1  0.3025584E-006  0.1066597E+04  0.7818608E-02  0.8761850E-01
          4   -1    0    0  502    0  0.00000000000E+00  0.00000000000E+00  0.98925020371E+03  0.98925020371E+03  0.00000000000E+00 0.  1.
         -4   -1    0    0    0  501 -0.00000000000E+00 -0.00000000000E+00 -0.32217382595E+04  0.32217382595E+04  0.00000000000E+00 0. -1.
   -9000010    2    1    2    0  501 -0.29514298966E+03  0.16752520235E+03 -0.28292681929E+04  0.29887874177E+04  0.90161945575E+03 0.  0.
    9000010    2    1    2  502    0  0.29514298966E+03 -0.16752520235E+03  0.59678013717E+03  0.12222010455E+04  0.10111650635E+04 0.  0.
        -13    1    4    4    0    0  0.26752548363E+03  0.40345488902E+03  0.36082079216E+03  0.60376931612E+03  0.10566000000E+00 0.  1.
          4    1    4    4  502    0  0.27617506033E+02 -0.57098009137E+03  0.23595934501E+03  0.61843172936E+03  0.00000000000E+00 0.  1.
         13    1    3    3    0    0  0.19647040424E+03  0.15067699650E+03 -0.21279042875E+03  0.32647198157E+03  0.10566000000E+00 0. -1.
         -4    1    3    3    0  501 -0.49161339390E+03  0.16848205844E+02 -0.26164777642E+04  0.26623154361E+04  0.00000000000E+00 0. -1.
<mgrwt>
<rscale>  0 0.10136730E+04</rscale>
<asrwt>0</asrwt>
<pdfrwt beam="1">  1        4 0.15219234E+00 0.10665969E+04</pdfrwt>
<pdfrwt beam="2">  1       -4 0.49565204E+00 0.96337517E+03</pdfrwt>
<totfact> 0.26292001E-02</totfact>
</mgrwt>
</event>
<event>
 8    1  0.3025584E-006  0.1211485E+04  0.7818608E-02  0.8602813E-01
         -4   -1    0    0    0  501 -0.00000000000E+00  0.00000000000E+00  0.24231105205E+04  0.24231105205E+04  0.00000000000E+00 0. -1.
          4   -1    0    0  502    0  0.00000000000E+00 -0.00000000000E+00 -0.10556895342E+04  0.10556895342E+04  0.00000000000E+00 0.  1.
   -9000010    2    1    2    0  501 -0.12659296846E+03 -0.63258225991E+03  0.18295162927E+04  0.21942709077E+04  0.10254310587E+04 0.  0.
    9000010    2    1    2  502    0  0.12659296846E+03  0.63258225991E+03 -0.46209530645E+03  0.12845291470E+04  0.10100975012E+04 0.  0.
        -13    1    4    4    0    0  0.47423306697E+03  0.32515010974E+03 -0.56830886743E+03  0.80845196247E+03  0.10566000000E+00 0.  1.
          4    1    4    4  502    0 -0.34764009850E+03  0.30743215017E+03  0.10621356097E+03  0.47607718448E+03  0.00000000000E+00 0.  1.
         13    1    3    3    0    0 -0.39035788828E+03 -0.12540565914E+03  0.17866838814E+03  0.44724519491E+03  0.10566000000E+00 0. -1.
         -4    1    3    3    0  501  0.26376491981E+03 -0.50717660077E+03  0.16508479046E+04  0.17470257128E+04  0.00000000000E+00 0. -1.
<mgrwt>
<rscale>  0 0.12049918E+04</rscale>
<asrwt>0</asrwt>
<pdfrwt beam="2">  1        4 0.16241377E+00 0.11985337E+04</pdfrwt>
<pdfrwt beam="1">  1       -4 0.37278623E+00 0.12114846E+04</pdfrwt>
<totfact> 0.79742400E-02</totfact>
</mgrwt>
</event>
<event>
 8    1  0.3025584E-006  0.1273236E+04  0.7818608E-02  0.8560091E-01
          4   -1    0    0  502    0  0.00000000000E+00  0.00000000000E+00  0.19339015655E+04  0.19339015655E+04  0.00000000000E+00 0.  1.
         -4   -1    0    0    0  501 -0.00000000000E+00 -0.00000000000E+00 -0.22190686517E+04  0.22190686517E+04  0.00000000000E+00 0. -1.
   -9000010    2    1    2    0  501 -0.68420274494E+03  0.36098262101E+03 -0.17883353426E+04  0.21952844257E+04  0.10112806551E+04 0.  0.
    9000010    2    1    2  502    0  0.68420274494E+03 -0.36098262101E+03  0.15031682564E+04  0.19576857915E+04  0.98720666644E+03 0.  0.
        -13    1    4    4    0    0  0.82497179493E+02  0.24272022976E+03  0.33229474356E+02  0.25850165123E+03  0.10566000000E+00 0.  1.
          4    1    4    4  502    0  0.60170556545E+03 -0.60370285077E+03  0.14699387820E+04  0.16991841402E+04  0.00000000000E+00 0.  1.
         13    1    3    3    0    0  0.18723300486E+02 -0.74709469088E+02  0.10441553724E+03  0.12974853499E+03  0.10566000000E+00 0. -1.
         -4    1    3    3    0  501 -0.70292604542E+03  0.43569209010E+03 -0.18927508798E+04  0.20655358907E+04  0.00000000000E+00 0. -1.
<mgrwt>
<rscale>  0 0.12636825E+04</rscale>
<asrwt>0</asrwt>
<pdfrwt beam="1">  1        4 0.29752332E+00 0.12542005E+04</pdfrwt>
<pdfrwt beam="2">  1       -4 0.34139518E+00 0.12732362E+04</pdfrwt>
<totfact> 0.43693812E-02</totfact>
</mgrwt>
</event>
<event>
 8    1  0.3025584E-006  0.1264523E+04  0.7818608E-02  0.8630857E-01
         -4   -1    0    0    0  501 -0.00000000000E+00  0.00000000000E+00  0.15782872790E+04  0.15782872790E+04  0.00000000000E+00 0. -1.
          4   -1    0    0  502    0  0.00000000000E+00 -0.00000000000E+00 -0.19618597059E+04  0.19618597059E+04  0.00000000000E+00 0.  1.
   -9000010    2    1    2    0  501 -0.35064259017E+03  0.22498142654E+03  0.11200585320E+04  0.16892453975E+04  0.11939229580E+04 0.  0.
    9000010    2    1    2  502    0  0.35064259017E+03 -0.22498142654E+03 -0.15036309589E+04  0.18509015874E+04  0.99567251506E+03 0.  0.
        -13    1    4    4    0    0 -0.15055304649E+03 -0.16342275360E+03  0.40888636071E+02  0.22593164437E+03  0.10566000000E+00 0.  1.
          4    1    4    4  502    0  0.50119563666E+03 -0.61558672936E+02 -0.15445195950E+04  0.16249699430E+04  0.00000000000E+00 0.  1.
         13    1    3    3    0    0  0.25357340606E+03  0.31795767200E+03  0.98148700465E+03  0.10624091984E+04  0.10566000000E+00 0. -1.
         -4    1    3    3    0  501 -0.60421599624E+03 -0.92976245463E+02  0.13857152731E+03  0.62683619910E+03  0.00000000000E+00 0. -1.
<mgrwt>
<rscale>  0 0.11682571E+04</rscale>
<asrwt>0</asrwt>
<pdfrwt beam="2">  1        4 0.30182457E+00 0.10793195E+04</pdfrwt>
<pdfrwt beam="1">  1       -4 0.24281343E+00 0.12645232E+04</pdfrwt>
<totfact> 0.78324248E-02</totfact>
</mgrwt>
</event>
<event>
 8    1  0.3025584E-006  0.1039627E+04  0.7818608E-02  0.8743701E-01
         -4   -1    0    0    0  501 -0.00000000000E+00  0.00000000000E+00  0.13706471817E+04  0.13706471817E+04  0.00000000000E+00 0. -1.
          4   -1    0    0  502    0  0.00000000000E+00 -0.00000000000E+00 -0.12737120298E+04  0.12737120298E+04  0.00000000000E+00 0.  1.
   -9000010    2    1    2    0  501  0.18776979870E+03  0.24061331262E+03  0.87198392579E+03  0.13476228772E+04  0.98111120110E+03 0.  0.
    9000010    2    1    2  502    0 -0.18776979870E+03 -0.24061331262E+03 -0.77504877393E+03  0.12967363343E+04  0.99381701292E+03 0.  0.
        -13    1    4    4    0    0  0.26879861099E+03 -0.22780560437E+03 -0.76232177004E+03  0.83981103761E+03  0.10566000000E+00 0.  1.
          4    1    4    4  502    0 -0.45656840969E+03 -0.12807708249E+02 -0.12727003889E+02  0.45692529668E+03  0.00000000000E+00 0.  1.
         13    1    3    3    0    0 -0.26105184846E+03  0.38561127475E+03  0.15766165469E+03  0.49163129612E+03  0.10566000000E+00 0. -1.
         -4    1    3    3    0  501  0.44882164716E+03 -0.14499796213E+03  0.71432227110E+03  0.85599158113E+03  0.00000000000E+00 0. -1.
<mgrwt>
<rscale>  0 0.10335397E+04</rscale>
<asrwt>0</asrwt>
<pdfrwt beam="2">  1        4 0.19595570E+00 0.10396271E+04</pdfrwt>
<pdfrwt beam="1">  1       -4 0.21086880E+00 0.10274879E+04</pdfrwt>
<totfact> 0.17498727E-01</totfact>
</mgrwt>
</event>
<event>
 8    1  0.3025584E-006  0.1236907E+04  0.7818608E-02  0.8590903E-01
          4   -1    0    0  502    0  0.00000000000E+00  0.00000000000E+00  0.13984637129E+04  0.13984637129E+04  0.00000000000E+00 0.  1.
         -4   -1    0    0    0  501 -0.00000000000E+00 -0.00000000000E+00 -0.18984135514E+04  0.18984135514E+04  0.00000000000E+00 0. -1.
   -9000010    2    1    2    0  501 -0.38528947464E+03  0.55776879002E+03 -0.13431261434E+04  0.18259045378E+04  0.10345943851E+04 0.  0.
    9000010    2    1    2  502    0  0.38528947464E+03 -0.55776879002E+03  0.84317630489E+03  0.14709727266E+04  0.99662454252E+03 0.  0.
        -13    1    4    4    0    0  0.63557656505E+03 -0.62381217403E+03  0.44372617729E+03  0.99498348232E+03  0.10566000000E+00 0.  1.
          4    1    4    4  502    0 -0.25028709041E+03  0.66043384006E+02  0.39945012760E+03  0.47598924424E+03  0.00000000000E+00 0.  1.
         13    1    3    3    0    0 -0.48954026970E+03  0.24919214190E+03 -0.13920750556E+04  0.14965357900E+04  0.10566000000E+00 0. -1.
         -4    1    3    3    0  501  0.10425079506E+03  0.30857664812E+03  0.48948912183E+02  0.32936874782E+03  0.00000000000E+00 0. -1.
<mgrwt>
<rscale>  0 0.12210153E+04</rscale>
<asrwt>0</asrwt>
<pdfrwt beam="1">  1        4 0.21514827E+00 0.12053275E+04</pdfrwt>
<pdfrwt beam="2">  1       -4 0.29206362E+00 0.12369072E+04</pdfrwt>
<totfact> 0.96855476E-02</totfact>
</mgrwt>
</event>
<event>
 8    1  0.3025584E-006  0.1109228E+04  0.7818608E-02  0.8683736E-01
         -4   -1    0    0    0  501 -0.00000000000E+00  0.00000000000E+00  0.16704439765E+04  0.16704439765E+04  0.00000000000E+00 0. -1.
          4   -1    0    0  502    0  0.00000000000E+00 -0.00000000000E+00 -0.10300116591E+04  0.10300116591E+04  0.00000000000E+00 0.  1.
   -9000010    2    1    2    0  501 -0.44107525185E+03  0.12893503970E+03  0.10528880112E+04  0.15293661807E+04  0.10095623449E+04 0.  0.
    9000010    2    1    2  502    0  0.44107525185E+03 -0.12893503970E+03 -0.41245569381E+03  0.11710894549E+04  0.99506742974E+03 0.  0.
        -13    1    4    4    0    0  0.54615705718E+03 -0.26431576190E+03 -0.64283266587E+03  0.88395938853E+03  0.10566000000E+00 0.  1.
          4    1    4    4  502    0 -0.10508180533E+03  0.13538072220E+03  0.23037697206E+03  0.28713006636E+03  0.00000000000E+00 0.  1.
         13    1    3    3    0    0  0.28973135264E+03  0.18139735044E+03  0.52436839035E+03  0.62594846067E+03  0.10566000000E+00 0. -1.
         -4    1    3    3    0  501 -0.73080660450E+03 -0.52462310734E+02  0.52851962084E+03  0.90341772001E+03  0.00000000000E+00 0. -1.
<mgrwt>
<rscale>  0 0.11026207E+04</rscale>
<asrwt>0</asrwt>
<pdfrwt beam="2">  1        4 0.15846333E+00 0.10960524E+04</pdfrwt>
<pdfrwt beam="1">  1       -4 0.25699138E+00 0.11092284E+04</pdfrwt>
<totfact> 0.17980337E-01</totfact>
</mgrwt>
</event>
<event>
 8    1  0.3025584E-006  0.1935510E+04  0.7818608E-02  0.8195833E-01
         -4   -1    0    0    0  501 -0.00000000000E+00  0.00000000000E+00  0.12110845428E+04  0.12110845428E+04  0.00000000000E+00 0. -1.
          4   -1    0    0  502    0  0.00000000000E+00 -0.00000000000E+00 -0.39145954849E+04  0.39145954849E+04  0.00000000000E+00 0.  1.
   -9000010    2    1    2    0  501  0.10509207361E+04 -0.12722580526E+04 -0.17337875276E+03  0.19401239258E+04  0.10054579602E+04 0.  0.
    9000010    2    1    2  502    0 -0.10509207361E+04  0.12722580526E+04 -0.25301321893E+04  0.31855561018E+04  0.10114958410E+04 0.  0.
        -13    1    4    4    0    0 -0.10824923250E+04  0.59612186097E+03 -0.13923923530E+04  0.18616947609E+04  0.10566000000E+00 0.  1.
          4    1    4    4  502    0  0.31571588891E+02  0.67613619163E+03 -0.11377398363E+04  0.13238613409E+04  0.00000000000E+00 0.  1.
         13    1    3    3    0    0  0.10814489987E+04 -0.55828664585E+03 -0.13416917254E+03  0.12244252912E+04  0.10566000000E+00 0. -1.
         -4    1    3    3    0  501 -0.30528262569E+02 -0.71397140674E+03 -0.39209580224E+02  0.71569863465E+03  0.00000000000E+00 0. -1.
<mgrwt>
<rscale>  0 0.19339350E+04</rscale>
<asrwt>0</asrwt>
<pdfrwt beam="2">  1        4 0.60224547E+00 0.19355100E+04</pdfrwt>
<pdfrwt beam="1">  1       -4 0.18632069E+00 0.19323614E+04</pdfrwt>
<totfact> 0.51531098E-03</totfact>
</mgrwt>
</event>
<event>
 8    1  0.3025584E-006  0.1102190E+04  0.7818608E-02  0.8696950E-01
         -4   -1    0    0    0  501 -0.00000000000E+00  0.00000000000E+00  0.22462191667E+04  0.22462191667E+04  0.00000000000E+00 0. -1.
          4   -1    0    0  502    0  0.00000000000E+00 -0.00000000000E+00 -0.19782845286E+04  0.19782845286E+04  0.00000000000E+00 0.  1.
   -9000010    2    1    2    0  501 -0.35499314018E+03  0.25656218046E+03  0.19441676364E+04  0.22348626125E+04  0.10114241526E+04 0.  0.
    9000010    2    1    2  502    0  0.35499314018E+03 -0.25656218046E+03 -0.16762329983E+04  0.19896410827E+04  0.97829969396E+03 0.  0.
        -13    1    4    4    0    0  0.13809549115E+01 -0.35789889082E+03 -0.10078788633E+03  0.37182217831E+03  0.10566000000E+00 0.  1.
          4    1    4    4  502    0  0.35361218527E+03  0.10133671036E+03 -0.15754451120E+04  0.16178189044E+04  0.00000000000E+00 0.  1.
         13    1    3    3    0    0 -0.69087321647E+03  0.23974167106E+02  0.12914311262E+04  0.14648122496E+04  0.10566000000E+00 0. -1.
         -4    1    3    3    0  501  0.33588007628E+03  0.23258801336E+03  0.65273651024E+03  0.77005036290E+03  0.00000000000E+00 0. -1.
<mgrwt>
<rscale>  0 0.10869265E+04</rscale>
<asrwt>0</asrwt>
<pdfrwt beam="2">  1        4 0.30435147E+00 0.10718743E+04</pdfrwt>
<pdfrwt beam="1">  1       -4 0.34557218E+00 0.11021901E+04</pdfrwt>
<totfact> 0.41500473E-02</totfact>
</mgrwt>
</event>
<event>
 8    1  0.3025584E-006  0.1589721E+04  0.7818608E-02  0.8373102E-01
          4   -1    0    0  502    0  0.00000000000E+00  0.00000000000E+00  0.16454701654E+04  0.16454701654E+04  0.00000000000E+00 0.  1.
         -4   -1    0    0    0  501 -0.00000000000E+00 -0.00000000000E+00 -0.17626796789E+04  0.17626796789E+04  0.00000000000E+00 0. -1.
   -9000010    2    1    2    0  501 -0.20652557018E+03  0.11595249126E+04 -0.72967124154E+03  0.17045294633E+04  0.99289966070E+03 0.  0.
    9000010    2    1    2  502    0  0.20652557018E+03 -0.11595249126E+04  0.61246172808E+03  0.17036203810E+04  0.10677369527E+04 0.  0.
        -13    1    4    4    0    0  0.34034283194E+03 -0.11422256994E+04  0.12565298534E+03  0.11984579573E+04  0.10566000000E+00 0.  1.
          4    1    4    4  502    0 -0.13381726176E+03 -0.17299213268E+02  0.48680874274E+03  0.50516242371E+03  0.00000000000E+00 0.  1.
         13    1    3    3    0    0 -0.17601600420E+03  0.12830452532E+04 -0.83367736214E+03  0.15401963222E+04  0.10566000000E+00 0. -1.
         -4    1    3    3    0  501 -0.30509565987E+02 -0.12352034054E+03  0.10400612061E+03  0.16433314111E+03  0.00000000000E+00 0. -1.
<mgrwt>
<rscale>  0 0.15648940E+04</rscale>
<asrwt>0</asrwt>
<pdfrwt beam="1">  1        4 0.25314926E+00 0.15897211E+04</pdfrwt>
<pdfrwt beam="2">  1       -4 0.27118149E+00 0.15404547E+04</pdfrwt>
<totfact> 0.86402668E-02</totfact>
</mgrwt>
</event>
<event>
 8    1  0.3025584E-006  0.1011405E+04  0.7818608E-02  0.8764554E-01
         -4   -1    0    0    0  501 -0.00000000000E+00  0.00000000000E+00  0.16074537760E+04  0.16074537760E+04  0.00000000000E+00 0. -1.
          4   -1    0    0  502    0  0.00000000000E+00 -0.00000000000E+00 -0.86449487805E+03  0.86449487805E+03  0.00000000000E+00 0.  1.
   -9000010    2    1    2    0  501  0.92207977642E+02 -0.94401388862E+02  0.10077056889E+04  0.14277292741E+04  0.10027592888E+04 0.  0.
    9000010    2    1    2  502    0 -0.92207977642E+02  0.94401388862E+02 -0.26474679096E+03  0.10442193800E+04  0.10014436164E+04 0.  0.
        -13    1    4    4    0    0 -0.36136637856E+03 -0.15661053855E+03  0.20776608912E+03  0.44528561541E+03  0.10566000000E+00 0.  1.
          4    1    4    4  502    0  0.26915840092E+03  0.25101192741E+03 -0.47251288008E+03  0.59893376456E+03  0.00000000000E+00 0.  1.
         13    1    3    3    0    0 -0.32863267976E+03  0.23793932273E+03  0.18553203071E+03  0.44613529909E+03  0.10566000000E+00 0. -1.
         -4    1    3    3    0  501  0.42084065740E+03 -0.33234071159E+03  0.82217365821E+03  0.98159397500E+03  0.00000000000E+00 0. -1.
<mgrwt>
<rscale>  0 0.10107526E+04</rscale>
<asrwt>0</asrwt>
<pdfrwt beam="2">  1        4 0.13299921E+00 0.10101006E+04</pdfrwt>
<pdfrwt beam="1">  1       -4 0.24730058E+00 0.10114050E+04</pdfrwt>
<totfact> 0.24753277E-01</totfact>
</mgrwt>
</event>
<event>
 8    1  0.3025584E-006  0.1335309E+04  0.7818608E-02  0.8512009E-01
          4   -1    0    0  502    0  0.00000000000E+00  0.00000000000E+00  0.11485471519E+04  0.11485471519E+04  0.00000000000E+00 0.  1.
         -4   -1    0    0    0  501 -0.00000000000E+00 -0.00000000000E+00 -0.18240882221E+04  0.18240882221E+04  0.00000000000E+00 0. -1.
   -9000010    2    1    2    0  501  0.63513046519E+03 -0.60280768652E+03 -0.91503852212E+03  0.16187485762E+04  0.10081089432E+04 0.  0.
    9000010    2    1    2  502    0 -0.63513046519E+03  0.60280768652E+03  0.23949745183E+03  0.13538867978E+04  0.10044314894E+04 0.  0.
        -13    1    4    4    0    0 -0.12060565234E+03  0.52900690912E+03  0.52995294698E+03  0.75844852855E+03  0.10566000000E+00 0.  1.
          4    1    4    4  502    0 -0.51452481285E+03  0.73800777405E+02 -0.29045549516E+03  0.59543826922E+03  0.00000000000E+00 0.  1.
         13    1    3    3    0    0  0.43432508462E+03 -0.84673001384E+03 -0.44044777468E+03  0.10486106279E+04  0.10566000000E+00 0. -1.
         -4    1    3    3    0  501  0.20080538057E+03  0.24392232732E+03 -0.47459074743E+03  0.57013794838E+03  0.00000000000E+00 0. -1.
<mgrwt>
<rscale>  0 0.13339217E+04</rscale>
<asrwt>0</asrwt>
<pdfrwt beam="1">  1        4 0.17669956E+00 0.13325353E+04</pdfrwt>
<pdfrwt beam="2">  1       -4 0.28062896E+00 0.13353095E+04</pdfrwt>
<totfact> 0.13401684E-01</totfact>
</mgrwt>
</event>
<event>
 8    1  0.3025584E-006  0.1068213E+04  0.7818608E-02  0.8713508E-01
         -4   -1    0    0    0  501 -0.00000000000E+00  0.00000000000E+00  0.27433970068E+04  0.27433970068E+04  0.00000000000E+00 0. -1.
          4   -1    0    0  502    0  0.00000000000E+00 -0.00000000000E+00 -0.85288580591E+03  0.85288580591E+03  0.00000000000E+00 0.  1.
   -9000010    2    1    2    0  501  0.32475112194E+03  0.21056184397E+03  0.22327087183E+04  0.24745969867E+04  0.99440557333E+03 0.  0.
    9000010    2    1    2  502    0 -0.32475112194E+03 -0.21056184397E+03 -0.34219751745E+03  0.11216858260E+04  0.99563063936E+03 0.  0.
        -13    1    4    4    0    0  0.32594931277E+03 -0.12098103468E+03  0.58076958788E+02  0.35249441067E+03  0.10566000000E+00 0.  1.
          4    1    4    4  502    0 -0.65070043471E+03 -0.89580809290E+02 -0.40027447623E+03  0.76919141535E+03  0.00000000000E+00 0.  1.
         13    1    3    3    0    0 -0.13853457078E+03  0.32226345164E+03  0.23836060010E+03  0.42410063241E+03  0.10566000000E+00 0. -1.
         -4    1    3    3    0  501  0.46328569272E+03 -0.11170160767E+03  0.19943481182E+04  0.20504963543E+04  0.00000000000E+00 0. -1.
<mgrwt>
<rscale>  0 0.10676424E+04</rscale>
<asrwt>0</asrwt>
<pdfrwt beam="2">  1        4 0.13121320E+00 0.10682134E+04</pdfrwt>
<pdfrwt beam="1">  1       -4 0.42206107E+00 0.10670717E+04</pdfrwt>
<totfact> 0.70999942E-02</totfact>
</mgrwt>
</event>
<event>
 8    1  0.3025584E-006  0.9468750E+03  0.7818608E-02  0.8913366E-01
         -4   -1    0    0    0  501 -0.00000000000E+00  0.00000000000E+00  0.91660375782E+03  0.91660375782E+03  0.00000000000E+00 0. -1.
          4   -1    0    0  502    0  0.00000000000E+00 -0.00000000000E+00 -0.15828564357E+04  0.15828564357E+04  0.00000000000E+00 0.  1.
   -9000010    2    1    2    0  501  0.19447843443E+03  0.92353453484E+02  0.51558713993E+03  0.10781476630E+04  0.92207443436E+03 0.  0.
    9000010    2    1    2  502    0 -0.19447843443E+03 -0.92353453484E+02 -0.11818398178E+04  0.14213125306E+04  0.75962683779E+03 0.  0.
        -13    1    4    4    0    0 -0.20372259705E+03 -0.39794230434E+03 -0.90262659476E+03  0.10072714405E+04  0.10566000000E+00 0.  1.
          4    1    4    4  502    0  0.92441626202E+01  0.30558885086E+03 -0.27921322306E+03  0.41404109004E+03  0.00000000000E+00 0.  1.
         13    1    3    3    0    0 -0.63543488567E+02 -0.38877621620E+03  0.15217718562E+03  0.42230632035E+03  0.10566000000E+00 0. -1.
         -4    1    3    3    0  501  0.25802192300E+03  0.48112966969E+03  0.36340995431E+03  0.65584134262E+03  0.00000000000E+00 0. -1.
<mgrwt>
<rscale>  0 0.86463982E+03</rscale>
<asrwt>0</asrwt>
<pdfrwt beam="2">  1        4 0.24351637E+00 0.78954668E+03</pdfrwt>
<pdfrwt beam="1">  1       -4 0.14101596E+00 0.94687501E+03</pdfrwt>
<totfact> 0.23304999E-01</totfact>
</mgrwt>
</event>
<event>
 8    1  0.3025584E-006  0.1141959E+04  0.7818608E-02  0.8738644E-01
         -4   -1    0    0    0  501 -0.00000000000E+00  0.00000000000E+00  0.92808232102E+03  0.92808232102E+03  0.00000000000E+00 0.  1.
          4   -1    0    0  502    0  0.00000000000E+00 -0.00000000000E+00 -0.11858970264E+04  0.11858970264E+04  0.00000000000E+00 0. -1.
   -9000010    2    1    2    0  501 -0.26865716998E+03  0.48191157350E+03 -0.35122933524E+02  0.11424994364E+04  0.99982793624E+03 0.  0.
    9000010    2    1    2  502    0  0.26865716998E+03 -0.48191157350E+03 -0.22269177187E+03  0.97147991101E+03  0.76796233800E+03 0.  0.
        -13    1    4    4    0    0 -0.21234422526E+03 -0.33866620965E+03 -0.24547101466E+03  0.46908517538E+03  0.10566000000E+00 0.  1.
          4    1    4    4  502    0  0.48100139524E+03 -0.14324536385E+03  0.22779242793E+02  0.50239473563E+03  0.00000000000E+00 0.  1.
         13    1    3    3    0    0  0.60032814104E+02 -0.27439374863E+03 -0.13534045465E+03  0.31178986174E+03  0.10566000000E+00 0. -1.
         -4    1    3    3    0  501 -0.32868998408E+03  0.75630532213E+03  0.10021752113E+03  0.83070957468E+03  0.00000000000E+00 0. -1.
<mgrwt>
<rscale>  0 0.10391584E+04</rscale>
<asrwt>0</asrwt>
<pdfrwt beam="2">  1        4 0.18244570E+00 0.94561176E+03</pdfrwt>
<pdfrwt beam="1">  1       -4 0.14278190E+00 0.11419594E+04</pdfrwt>
<totfact> 0.32944847E-01</totfact>
</mgrwt>
</event>
<event>
 8    1  0.3025584E-006  0.1174627E+04  0.7818608E-02  0.8667891E-01
          4   -1    0    0  502    0  0.00000000000E+00  0.00000000000E+00  0.25485547888E+04  0.25485547888E+04  0.00000000000E+00 0.  1.
         -4   -1    0    0    0  501 -0.00000000000E+00 -0.00000000000E+00 -0.82448726381E+03  0.82448726381E+03  0.00000000000E+00 0. -1.
   -9000010    2    1    2    0  501  0.68450054637E+01  0.64513767809E+03 -0.17991952161E+03  0.11883268640E+04  0.98158047232E+03 0.  0.
    9000010    2    1    2  502    0 -0.68450054637E+01 -0.64513767809E+03  0.19039870466E+04  0.21847151886E+04  0.85531532430E+03 0.  0.
        -13    1    4    4    0    0  0.39451044932E+03 -0.26793603257E+03  0.58101881243E+03  0.75167219167E+03  0.10566000000E+00 0.  1.
          4    1    4    4  502    0 -0.40135545479E+03 -0.37720164553E+03  0.13229682342E+04  0.14330429970E+04  0.00000000000E+00 0.  1.
         13    1    3    3    0    0  0.27247221179E+03 -0.15328482286E+03 -0.14897172599E+03  0.34630900858E+03  0.10566000000E+00 0. -1.
         -4    1    3    3    0  501 -0.26562720633E+03  0.79842250096E+03 -0.30947795623E+02  0.84201785541E+03  0.00000000000E+00 0. -1.
<mgrwt>
<rscale>  0 0.11218065E+04</rscale>
<asrwt>0</asrwt>
<pdfrwt beam="1">  1        4 0.39208535E+00 0.10713607E+04</pdfrwt>
<pdfrwt beam="2">  1       -4 0.12684420E+00 0.11746275E+04</pdfrwt>
<totfact> 0.99112868E-02</totfact>
</mgrwt>
</event>
<event>
 8    1  0.3025584E-006  0.1052840E+04  0.7818608E-02  0.8733147E-01
          4   -1    0    0  502    0  0.00000000000E+00  0.00000000000E+00  0.14554646779E+04  0.14554646779E+04  0.00000000000E+00 0. -1.
         -4   -1    0    0    0  501 -0.00000000000E+00 -0.00000000000E+00 -0.97086383755E+03  0.97086383755E+03  0.00000000000E+00 0.  1.
   -9000010    2    1    2    0  501 -0.48751502316E+02  0.31964045096E+03 -0.33396011541E+03  0.11045370977E+04  0.10019611343E+04 0.  0.
    9000010    2    1    2  502    0  0.48751502316E+02 -0.31964045096E+03  0.81856095575E+03  0.13217914178E+04  0.98617634677E+03 0.  0.
        -13    1    4    4    0    0  0.23668816659E+03 -0.25777505046E+02 -0.15736929390E+03  0.28539599471E+03  0.10566000000E+00 0.  1.
          4    1    4    4  502    0 -0.18793666427E+03 -0.29386294591E+03  0.97593024965E+03  0.10363954231E+04  0.00000000000E+00 0.  1.
         13    1    3    3    0    0 -0.18471249090E+03  0.64040203664E+03 -0.35567878083E+03  0.75547394338E+03  0.10566000000E+00 0. -1.
         -4    1    3    3    0  501  0.13596098859E+03 -0.32076158568E+03  0.21718665419E+02  0.34906315431E+03  0.00000000000E+00 0. -1.
<mgrwt>
<rscale>  0 0.10453081E+04</rscale>
<asrwt>0</asrwt>
<pdfrwt beam="1">  1        4 0.22391764E+00 0.10378297E+04</pdfrwt>
<pdfrwt beam="2">  1       -4 0.14936367E+00 0.10528404E+04</pdfrwt>
<totfact> 0.23612748E-01</totfact>
</mgrwt>
</event>
<event>
 8    1  0.3025584E-006  0.1486640E+04  0.7818608E-02  0.8417364E-01
          4   -1    0    0  502    0  0.00000000000E+00  0.00000000000E+00  0.17714309870E+04  0.17714309870E+04  0.00000000000E+00 0.  1.
         -4   -1    0    0    0  501 -0.00000000000E+00 -0.00000000000E+00 -0.47959702868E+04  0.47959702868E+04  0.00000000000E+00 0. -1.
   -9000010    2    1    2    0  501 -0.10636213312E+04 -0.29694469217E+03 -0.43369601579E+04  0.45846833061E+04  0.99530453623E+03 0.  0.
    9000010    2    1    2  502    0  0.10636213312E+04  0.29694469217E+03  0.13124208581E+04  0.19827179677E+04  0.99461326363E+03 0.  0.
        -13    1    4    4    0    0 -0.12421401577E+03  0.25470665208E+03  0.36881342098E+03  0.46511068681E+03  0.10566000000E+00 0.  1.
          4    1    4    4  502    0  0.11878353470E+04  0.42238040086E+02  0.94360743712E+03  0.15176072809E+04  0.00000000000E+00 0.  1.
         13    1    3    3    0    0 -0.38822246544E+03  0.35037671793E+03 -0.11514030879E+04  0.12645985960E+04  0.10566000000E+00 0. -1.
         -4    1    3    3    0  501 -0.67539886575E+03 -0.64732141009E+03 -0.31855570700E+04  0.33200847101E+04  0.00000000000E+00 0. -1.
<mgrwt>
<rscale>  0 0.14864083E+04</rscale>
<asrwt>0</asrwt>
<pdfrwt beam="1">  1        4 0.27252785E+00 0.14861770E+04</pdfrwt>
<pdfrwt beam="2">  1       -4 0.73784157E+00 0.14866397E+04</pdfrwt>
<totfact> 0.64648659E-04</totfact>
</mgrwt>
</event>
<event>
 8    1  0.3025584E-006  0.1357828E+04  0.7818608E-02  0.8497311E-01
         -4   -1    0    0    0  501 -0.00000000000E+00  0.00000000000E+00  0.14070101024E+04  0.14070101024E+04  0.00000000000E+00 0. -1.
          4   -1    0    0  502    0  0.00000000000E+00 -0.00000000000E+00 -0.17803501796E+04  0.17803501796E+04  0.00000000000E+00 0.  1.
   -9000010    2    1    2    0  501  0.76534343299E+03  0.51824164948E+03  0.63482503508E+03  0.14961790592E+04  0.99056750121E+03 0.  0.
    9000010    2    1    2  502    0 -0.76534343299E+03 -0.51824164948E+03 -0.10081651124E+04  0.16911812227E+04  0.99467183367E+03 0.  0.
        -13    1    4    4    0    0  0.30887515575E+02 -0.41704884136E+03 -0.73076226489E+03  0.84196037535E+03  0.10566000000E+00 0.  1.
          4    1    4    4  502    0 -0.79623094856E+03 -0.10119280812E+03 -0.27740284746E+03  0.84922084739E+03  0.00000000000E+00 0.  1.
         13    1    3    3    0    0  0.72535734912E+03  0.39699770018E+02  0.34285042780E+02  0.72725155963E+03  0.10566000000E+00 0. -1.
         -4    1    3    3    0  501  0.39986083870E+02  0.47854187946E+03  0.60053999230E+03  0.76892749961E+03  0.00000000000E+00 0. -1.
<mgrwt>
<rscale>  0 0.13563254E+04</rscale>
<asrwt>0</asrwt>
<pdfrwt beam="2">  1        4 0.27390003E+00 0.13578281E+04</pdfrwt>
<pdfrwt beam="1">  1       -4 0.21646309E+00 0.13548243E+04</pdfrwt>
<totfact> 0.10632357E-01</totfact>
</mgrwt>
</event>
<event>
 8    1  0.3025584E-006  0.1251883E+04  0.7818608E-02  0.8577492E-01
          4   -1    0    0  502    0  0.00000000000E+00  0.00000000000E+00  0.16650446935E+04  0.16650446935E+04  0.00000000000E+00 0.  1.
         -4   -1    0    0    0  501 -0.00000000000E+00 -0.00000000000E+00 -0.13406010304E+04  0.13406010304E+04  0.00000000000E+00 0. -1.
   -9000010    2    1    2    0  501 -0.60031450353E+03 -0.40328623574E+03 -0.67577940140E+03  0.14226348924E+04  0.10218585746E+04 0.  0.
    9000010    2    1    2  502    0  0.60031450353E+03  0.40328623574E+03  0.10002230644E+04  0.15830108315E+04  0.99119111329E+03 0.  0.
        -13    1    4    4    0    0  0.53573034104E+03 -0.21257053113E+03  0.66084500500E+03  0.87687476917E+03  0.10566000000E+00 0.  1.
          4    1    4    4  502    0  0.64584162495E+02  0.61585676687E+03  0.33937805941E+03  0.70613606235E+03  0.00000000000E+00 0.  1.
         13    1    3    3    0    0 -0.14639279906E+03 -0.61390750123E+03 -0.67243746312E+03  0.92221766664E+03  0.10566000000E+00 0. -1.
         -4    1    3    3    0  501 -0.45392170447E+03  0.21062126549E+03 -0.33419382717E+01  0.50041722574E+03  0.00000000000E+00 0. -1.
<mgrwt>
<rscale>  0 0.12393686E+04</rscale>
<asrwt>0</asrwt>
<pdfrwt beam="1">  1        4 0.25616072E+00 0.12269789E+04</pdfrwt>
<pdfrwt beam="2">  1       -4 0.20624631E+00 0.12518835E+04</pdfrwt>
<totfact> 0.12537522E-01</totfact>
</mgrwt>
</event>
<event>
 8    1  0.3025584E-006  0.1260824E+04  0.7818608E-02  0.8567914E-01
         -4   -1    0    0    0  501 -0.00000000000E+00  0.00000000000E+00  0.26247307452E+04  0.26247307452E+04  0.00000000000E+00 0. -1.
          4   -1    0    0  502    0  0.00000000000E+00 -0.00000000000E+00 -0.10608958791E+04  0.10608958791E+04  0.00000000000E+00 0.  1.
   -9000010    2    1    2    0  501 -0.12554411458E+03 -0.72297133434E+03  0.19964736058E+04  0.23526398743E+04  0.10052654596E+04 0.  0.
    9000010    2    1    2  502    0  0.12554411458E+03  0.72297133434E+03 -0.43263873975E+03  0.13329867500E+04  0.10252943585E+04 0.  0.
        -13    1    4    4    0    0 -0.30545232697E+03 -0.80432471713E+02  0.17214866645E+02  0.31633347808E+03  0.10566000000E+00 0.  1.
          4    1    4    4  502    0  0.43099644154E+03  0.80340380605E+03 -0.44985360640E+03  0.10166532720E+04  0.00000000000E+00 0.  1.
         13    1    3    3    0    0  0.15397561996E+03 -0.14955928402E+03 -0.40213748646E+02  0.21838870787E+03  0.10566000000E+00 0. -1.
         -4    1    3    3    0  501 -0.27951973454E+03 -0.57341205032E+03  0.20366873545E+04  0.21342511664E+04  0.00000000000E+00 0. -1.
<mgrwt>
<rscale>  0 0.12526814E+04</rscale>
<asrwt>0</asrwt>
<pdfrwt beam="2">  1        4 0.16321475E+00 0.12608241E+04</pdfrwt>
<pdfrwt beam="1">  1       -4 0.40380473E+00 0.12445913E+04</pdfrwt>
<totfact> 0.59935318E-02</totfact>
</mgrwt>
</event>
<event>
 8    1  0.3025584E-006  0.1365805E+04  0.7818608E-02  0.8532617E-01
          4   -1    0    0  502    0  0.00000000000E+00  0.00000000000E+00  0.85148691310E+03  0.85148691310E+03  0.00000000000E+00 0.  1.
         -4   -1    0    0    0  501 -0.00000000000E+00 -0.00000000000E+00 -0.23084353293E+04  0.23084353293E+04  0.00000000000E+00 0. -1.
   -9000010    2    1    2    0  501  0.37802022502E+03 -0.63516478273E+03 -0.12767361765E+04  0.17822792915E+04  0.10000653063E+04 0.  0.
    9000010    2    1    2  502    0 -0.37802022502E+03  0.63516478273E+03 -0.18021223969E+03  0.13776429509E+04  0.11485164592E+04 0.  0.
        -13    1    4    4    0    0 -0.73732523394E+03  0.21433931876E+03  0.68646607423E+02  0.77090998959E+03  0.10566000000E+00 0.  1.
          4    1    4    4  502    0  0.35930500892E+03  0.42082546397E+03 -0.24885884711E+03  0.60673296131E+03  0.00000000000E+00 0.  1.
         13    1    3    3    0    0  0.52540877189E+03  0.63329577169E+02 -0.51906977268E+03  0.74128162867E+03  0.10566000000E+00 0. -1.
         -4    1    3    3    0  501 -0.14738854686E+03 -0.69849435990E+03 -0.75766640387E+03  0.10409976629E+04  0.00000000000E+00 0. -1.
<mgrwt>
<rscale>  0 0.13032548E+04</rscale>
<asrwt>0</asrwt>
<pdfrwt beam="1">  1        4 0.13099799E+00 0.13658051E+04</pdfrwt>
<pdfrwt beam="2">  1       -4 0.35514389E+00 0.12435691E+04</pdfrwt>
<totfact> 0.12734093E-01</totfact>
</mgrwt>
</event>
<event>
 8    1  0.3025584E-006  0.1321712E+04  0.7818608E-02  0.8530758E-01
         -4   -1    0    0    0  501 -0.00000000000E+00  0.00000000000E+00  0.76308888238E+03  0.76308888238E+03  0.00000000000E+00 0. -1.
          4   -1    0    0  502    0  0.00000000000E+00 -0.00000000000E+00 -0.22541685906E+04  0.22541685906E+04  0.00000000000E+00 0.  1.
   -9000010    2    1    2    0  501  0.22208695777E+03 -0.83946694942E+03 -0.89186017475E+03  0.15944710446E+04  0.99644165155E+03 0.  0.
    9000010    2    1    2  502    0 -0.22208695777E+03  0.83946694942E+03 -0.59921953346E+03  0.14227864283E+04  0.95458357169E+03 0.  0.
        -13    1    4    4    0    0  0.12649891738E+03 -0.15215300618E+03 -0.24209336563E+03  0.31266871003E+03  0.10566000000E+00 0.  1.
          4    1    4    4  502    0 -0.34858587515E+03  0.99161995559E+03 -0.35712616782E+03  0.11101177183E+04  0.00000000000E+00 0.  1.
         13    1    3    3    0    0 -0.36962145314E+03 -0.12814615718E+03 -0.33141413447E+03  0.51271512159E+03  0.10566000000E+00 0. -1.
         -4    1    3    3    0  501  0.59170841091E+03 -0.71132079223E+03 -0.56044604028E+03  0.10817559231E+04  0.00000000000E+00 0. -1.
<mgrwt>
<rscale>  0 0.13059868E+04</rscale>
<asrwt>0</asrwt>
<pdfrwt beam="2">  1        4 0.34679516E+00 0.12904484E+04</pdfrwt>
<pdfrwt beam="1">  1       -4 0.11739829E+00 0.13217123E+04</pdfrwt>
<totfact> 0.16272778E-01</totfact>
</mgrwt>
</event>
<event>
 8    1  0.3025584E-006  0.1152965E+04  0.7818608E-02  0.8656693E-01
         -4   -1    0    0    0  501 -0.00000000000E+00  0.00000000000E+00  0.10809480630E+04  0.10809480630E+04  0.00000000000E+00 0. -1.
          4   -1    0    0  502    0  0.00000000000E+00 -0.00000000000E+00 -0.23677365903E+04  0.23677365903E+04  0.00000000000E+00 0.  1.
   -9000010    2    1    2    0  501 -0.94311250527E+02  0.54608788131E+03  0.57587395873E+03  0.12580589751E+04  0.97158374959E+03 0.  0.
    9000010    2    1    2  502    0  0.94311250527E+02 -0.54608788131E+03 -0.18626624861E+04  0.21906256781E+04  0.10110503145E+04 0.  0.
        -13    1    4    4    0    0  0.34297615155E+03 -0.61624486678E+03 -0.67865712517E+03  0.97875731470E+03  0.10566000000E+00 0.  1.
          4    1    4    4  502    0 -0.24866490103E+03  0.70156985475E+02 -0.11840053609E+04  0.12118683634E+04  0.00000000000E+00 0.  1.
         13    1    3    3    0    0  0.39268905655E+03  0.18632407650E+02  0.27442609654E+03  0.47943879211E+03  0.10566000000E+00 0. -1.
         -4    1    3    3    0  501 -0.48700030708E+03  0.52745547366E+03  0.30144786219E+03  0.77862018302E+03  0.00000000000E+00 0. -1.
<mgrwt>
<rscale>  0 0.11356109E+04</rscale>
<asrwt>0</asrwt>
<pdfrwt beam="2">  1        4 0.36426717E+00 0.11529654E+04</pdfrwt>
<pdfrwt beam="1">  1       -4 0.16629970E+00 0.11185176E+04</pdfrwt>
<totfact> 0.83353056E-02</totfact>
</mgrwt>
</event>
<event>
 8    1  0.3025584E-006  0.1481633E+04  0.7818608E-02  0.8430928E-01
          4   -1    0    0  502    0  0.00000000000E+00  0.00000000000E+00  0.11885225615E+04  0.11885225615E+04  0.00000000000E+00 0.  1.
         -4   -1    0    0    0  501 -0.00000000000E+00 -0.00000000000E+00 -0.18019378313E+04  0.18019378313E+04  0.00000000000E+00 0. -1.
   -9000010    2    1    2    0  501 -0.10576997909E+04  0.32174378558E+03 -0.31386937467E+03  0.15145137072E+04  0.98640249072E+03 0.  0.
    9000010    2    1    2  502    0  0.10576997909E+04 -0.32174378558E+03 -0.29954589517E+03  0.14759466857E+04  0.93082918118E+03 0.  0.
        -13    1    4    4    0    0 -0.17614824967E+01 -0.33558837371E+03  0.89342528803E+02  0.34728195750E+03  0.10566000000E+00 0.  1.
          4    1    4    4  502    0  0.10594612734E+04  0.13844588126E+02 -0.38888842397E+03  0.11286647282E+04  0.00000000000E+00 0.  1.
         13    1    3    3    0    0 -0.43702954983E+03 -0.17823522210E+03  0.25391982463E+03  0.53594580913E+03  0.10566000000E+00 0. -1.
         -4    1    3    3    0  501 -0.62067024102E+03  0.49997900768E+03 -0.56778919931E+03  0.97856789803E+03  0.00000000000E+00 0. -1.
<mgrwt>
<rscale>  0 0.14633187E+04</rscale>
<asrwt>0</asrwt>
<pdfrwt beam="1">  1        4 0.18284963E+00 0.14452304E+04</pdfrwt>
<pdfrwt beam="2">  1       -4 0.27722120E+00 0.14816335E+04</pdfrwt>
<totfact> 0.12944905E-01</totfact>
</mgrwt>
</event>
<event>
 8    1  0.3025584E-006  0.1410865E+04  0.7818608E-02  0.8495329E-01
         -4   -1    0    0    0  501 -0.00000000000E+00  0.00000000000E+00  0.19969302827E+04  0.19969302827E+04  0.00000000000E+00 0. -1.
          4   -1    0    0  502    0  0.00000000000E+00 -0.00000000000E+00 -0.95397113943E+03  0.95397113943E+03  0.00000000000E+00 0.  1.
   -9000010    2    1    2    0  501  0.98521116207E+03 -0.12011082467E+03  0.78979247670E+03  0.16168838474E+04  0.10027330530E+04 0.  0.
    9000010    2    1    2  502    0 -0.98521116207E+03  0.12011082467E+03  0.25316666658E+03  0.13340175748E+04  0.85465892882E+03 0.  0.
        -13    1    4    4    0    0 -0.29348204212E+03  0.20632580345E+03  0.48153555204E+03  0.60048192750E+03  0.10566000000E+00 0.  1.
          4    1    4    4  502    0 -0.69172911995E+03 -0.86214978776E+02 -0.22836888545E+03  0.73353564725E+03  0.00000000000E+00 0.  1.
         13    1    3    3    0    0  0.76112758994E+03  0.26381344603E+03  0.12210855984E+03  0.81475349280E+03  0.10566000000E+00 0. -1.
         -4    1    3    3    0  501  0.22408357213E+03 -0.38392427070E+03  0.66768391687E+03  0.80213035460E+03  0.00000000000E+00 0. -1.
<mgrwt>
<rscale>  0 0.13593806E+04</rscale>
<asrwt>0</asrwt>
<pdfrwt beam="2">  1        4 0.14676479E+00 0.13097746E+04</pdfrwt>
<pdfrwt beam="1">  1       -4 0.30722004E+00 0.14108654E+04</pdfrwt>
<totfact> 0.14752893E-01</totfact>
</mgrwt>
</event>
<event>
 8    1  0.3025584E-006  0.1067579E+04  0.7818608E-02  0.8727040E-01
          4   -1    0    0  502    0  0.00000000000E+00  0.00000000000E+00  0.13633918481E+04  0.13633918481E+04  0.00000000000E+00 0.  1.
         -4   -1    0    0    0  501 -0.00000000000E+00 -0.00000000000E+00 -0.24439285278E+04  0.24439285278E+04  0.00000000000E+00 0. -1.
   -9000010    2    1    2    0  501  0.16495178811E+03 -0.27477404940E+03 -0.20931062645E+04  0.23359192979E+04  0.98626328191E+03 0.  0.
    9000010    2    1    2  502    0 -0.16495178811E+03  0.27477404940E+03  0.10125695847E+04  0.14714010780E+04  0.10183388914E+04 0.  0.
        -13    1    4    4    0    0 -0.42210889954E+03  0.33610099770E+01  0.33594622583E+02  0.42345699816E+03  0.10566000000E+00 0.  1.
          4    1    4    4  502    0  0.25715711143E+03  0.27141303942E+03  0.97897496214E+03  0.10479440798E+04  0.00000000000E+00 0.  1.
         13    1    3    3    0    0 -0.44737666518E+02 -0.22046911774E+03 -0.21068974123E+04  0.21188734761E+04  0.10566000000E+00 0. -1.
         -4    1    3    3    0  501  0.20968945463E+03 -0.54304931661E+02  0.13791147834E+02  0.21704582176E+03  0.00000000000E+00 0. -1.
<mgrwt>
<rscale>  0 0.10521919E+04</rscale>
<asrwt>0</asrwt>
<pdfrwt beam="1">  1        4 0.20975259E+00 0.10675786E+04</pdfrwt>
<pdfrwt beam="2">  1       -4 0.37598900E+00 0.10370271E+04</pdfrwt>
<totfact> 0.55882253E-02</totfact>
</mgrwt>
</event>
<event>
 8    1  0.3025584E-006  0.1501769E+04  0.7818608E-02  0.8423406E-01
          4   -1    0    0  502    0  0.00000000000E+00  0.00000000000E+00  0.14569724206E+04  0.14569724206E+04  0.00000000000E+00 0.  1.
         -4   -1    0    0    0  501 -0.00000000000E+00 -0.00000000000E+00 -0.21248710432E+04  0.21248710432E+04  0.00000000000E+00 0. -1.
   -9000010    2    1    2    0  501  0.98452335972E+03  0.45178023767E+03 -0.13041928769E+04  0.19508370656E+04  0.96511893951E+03 0.  0.
    9000010    2    1    2  502    0 -0.98452335972E+03 -0.45178023767E+03  0.63629425437E+03  0.16310063981E+04  0.10401537692E+04 0.  0.
        -13    1    4    4    0    0 -0.10453059406E+04 -0.32510473944E+03  0.84258339048E+03  0.13814139069E+04  0.10566000000E+00 0.  1.
          4    1    4    4  502    0  0.60782580884E+02 -0.12667549823E+03 -0.20628913611E+03  0.24959249121E+03  0.00000000000E+00 0.  1.
         13    1    3    3    0    0  0.10539272674E+03  0.55557818658E+03 -0.51871092157E+03  0.76735635762E+03  0.10566000000E+00 0. -1.
         -4    1    3    3    0  501  0.87913063297E+03 -0.10379794891E+03 -0.78548195538E+03  0.11834807080E+04  0.00000000000E+00 0. -1.
<mgrwt>
<rscale>  0 0.14760692E+04</rscale>
<asrwt>0</asrwt>
<pdfrwt beam="1">  1        4 0.22414961E+00 0.15017695E+04</pdfrwt>
<pdfrwt beam="2">  1       -4 0.32690323E+00 0.14508088E+04</pdfrwt>
<totfact> 0.72148434E-02</totfact>
</mgrwt>
</event>
<event>
 8    1  0.3025584E-006  0.1804738E+04  0.7818608E-02  0.8255028E-01
         -4   -1    0    0    0  501 -0.00000000000E+00  0.00000000000E+00  0.31565702142E+04  0.31565702142E+04  0.00000000000E+00 0. -1.
          4   -1    0    0  502    0  0.00000000000E+00 -0.00000000000E+00 -0.18252957544E+04  0.18252957544E+04  0.00000000000E+00 0.  1.
   -9000010    2    1    2    0  501 -0.14895349626E+04  0.76298114579E+02  0.23124560926E+04  0.29276519581E+04  0.99957841125E+03 0.  0.
    9000010    2    1    2  502    0  0.14895349626E+04 -0.76298114579E+02 -0.98118163277E+03  0.20542140105E+04  0.10161407370E+04 0.  0.
        -13    1    4    4    0    0  0.13812321462E+04 -0.12243521711E+03 -0.11815837430E+04  0.18217938349E+04  0.10566000000E+00 0.  1.
          4    1    4    4  502    0  0.10830281639E+03  0.46137102529E+02  0.20040211018E+03  0.23242017561E+03  0.00000000000E+00 0.  1.
         13    1    3    3    0    0 -0.21087031241E+03 -0.37614699163E+03  0.44560387257E+03  0.62009327555E+03  0.10566000000E+00 0. -1.
         -4    1    3    3    0  501 -0.12786646502E+04  0.45244510621E+03  0.18668522201E+04  0.23075586826E+04  0.00000000000E+00 0. -1.
<mgrwt>
<rscale>  0 0.18000951E+04</rscale>
<asrwt>0</asrwt>
<pdfrwt beam="2">  1        4 0.28081473E+00 0.18047376E+04</pdfrwt>
<pdfrwt beam="1">  1       -4 0.48562619E+00 0.17954645E+04</pdfrwt>
<totfact> 0.11466345E-02</totfact>
</mgrwt>
</event>
<event>
 8    1  0.3025584E-006  0.1103760E+04  0.7818608E-02  0.8688510E-01
          4   -1    0    0  502    0  0.00000000000E+00  0.00000000000E+00  0.15137206678E+04  0.15137206678E+04  0.00000000000E+00 0.  1.
         -4   -1    0    0    0  501 -0.00000000000E+00 -0.00000000000E+00 -0.17358468613E+04  0.17358468613E+04  0.00000000000E+00 0. -1.
   -9000010    2    1    2    0  501 -0.18758327019E+03 -0.37890481121E+03 -0.13076109280E+04  0.17111790021E+04  0.10195738811E+04 0.  0.
    9000010    2    1    2  502    0  0.18758327019E+03  0.37890481121E+03  0.10854847345E+04  0.15383885270E+04  0.10047914271E+04 0.  0.
        -13    1    4    4    0    0  0.29693208653E+03  0.21683256499E+03  0.12373523304E+04  0.12908237006E+04  0.10566000000E+00 0.  1.
          4    1    4    4  502    0 -0.10934881634E+03  0.16207224622E+03 -0.15186759587E+03  0.24756482647E+03  0.00000000000E+00 0.  1.
         13    1    3    3    0    0 -0.41789910384E+02  0.24329664087E+03  0.96909084089E+01  0.24704974588E+03  0.10566000000E+00 0. -1.
         -4    1    3    3    0  501 -0.14579335981E+03 -0.62220145208E+03 -0.13173018364E+04  0.14641292562E+04  0.00000000000E+00 0. -1.
<mgrwt>
<rscale>  0 0.10969192E+04</rscale>
<asrwt>0</asrwt>
<pdfrwt beam="1">  1        4 0.23288010E+00 0.10901202E+04</pdfrwt>
<pdfrwt beam="2">  1       -4 0.26705336E+00 0.11037605E+04</pdfrwt>
<totfact> 0.10206073E-01</totfact>
</mgrwt>
</event>
<event>
 8    1  0.3025584E-006  0.1773431E+04  0.7818608E-02  0.8270670E-01
          4   -1    0    0  502    0  0.00000000000E+00  0.00000000000E+00  0.28647587512E+04  0.28647587512E+04  0.00000000000E+00 0.  1.
         -4   -1    0    0    0  501 -0.00000000000E+00 -0.00000000000E+00 -0.11999687536E+04  0.11999687536E+04  0.00000000000E+00 0. -1.
   -9000010    2    1    2    0  501  0.10225708982E+04  0.10294176904E+04  0.21261812513E+03  0.17725974564E+04  0.99576264861E+03 0.  0.
    9000010    2    1    2  502    0 -0.10225708982E+04 -0.10294176904E+04  0.14521718725E+04  0.22921300484E+04  0.10196592511E+04 0.  0.
        -13    1    4    4    0    0 -0.91692508290E+03 -0.32243986350E+03  0.47612844196E+03  0.10823203674E+04  0.10566000000E+00 0.  1.
          4    1    4    4  502    0 -0.10564581526E+03 -0.70697782690E+03  0.97604343051E+03  0.12098096810E+04  0.00000000000E+00 0.  1.
         13    1    3    3    0    0  0.53422357614E+03  0.11299445658E+04  0.60540154482E+02  0.12513331581E+04  0.10566000000E+00 0. -1.
         -4    1    3    3    0  501  0.48834732202E+03 -0.10052687537E+03  0.15207797065E+03  0.52126429837E+03  0.00000000000E+00 0. -1.
<mgrwt>
<rscale>  0 0.17666022E+04</rscale>
<asrwt>0</asrwt>
<pdfrwt beam="1">  1        4 0.44073212E+00 0.17734309E+04</pdfrwt>
<pdfrwt beam="2">  1       -4 0.18461058E+00 0.17597998E+04</pdfrwt>
<totfact> 0.33625875E-02</totfact>
</mgrwt>
</event>
<event>
 8    1  0.3025584E-006  0.1086782E+04  0.7818608E-02  0.8709499E-01
          4   -1    0    0  502    0  0.00000000000E+00  0.00000000000E+00  0.99784407969E+03  0.99784407969E+03  0.00000000000E+00 0.  1.
         -4   -1    0    0    0  501 -0.00000000000E+00 -0.00000000000E+00 -0.24295495183E+04  0.24295495183E+04  0.00000000000E+00 0. -1.
   -9000010    2    1    2    0  501  0.33201763695E+03  0.12231583204E+03 -0.19628202729E+04  0.22436036853E+04  0.10275685860E+04 0.  0.
    9000010    2    1    2  502    0 -0.33201763695E+03 -0.12231583204E+03  0.53111483432E+03  0.11837899127E+04  0.99703496233E+03 0.  0.
        -13    1    4    4    0    0 -0.29676393688E+02 -0.30890191818E+03 -0.20120121197E+03  0.36984188819E+03  0.10566000000E+00 0.  1.
          4    1    4    4  502    0 -0.30234124326E+03  0.18658608614E+03  0.73231604628E+03  0.81394802448E+03  0.00000000000E+00 0.  1.
         13    1    3    3    0    0  0.41538286883E+03 -0.29368488853E+03 -0.47331956706E+03  0.69485621908E+03  0.10566000000E+00 0. -1.
         -4    1    3    3    0  501 -0.83365231877E+02  0.41600072058E+03 -0.14895007058E+04  0.15487474662E+04  0.00000000000E+00 0. -1.
<mgrwt>
<rscale>  0 0.10722730E+04</rscale>
<asrwt>0</asrwt>
<pdfrwt beam="1">  1        4 0.15351448E+00 0.10579582E+04</pdfrwt>
<pdfrwt beam="2">  1       -4 0.37377684E+00 0.10867815E+04</pdfrwt>
<totfact> 0.86650196E-02</totfact>
</mgrwt>
</event>
<event>
 8    1  0.3025584E-006  0.1163456E+04  0.7818608E-02  0.8635434E-01
         -4   -1    0    0    0  501 -0.00000000000E+00  0.00000000000E+00  0.11688555633E+04  0.11688555633E+04  0.00000000000E+00 0. -1.
          4   -1    0    0  502    0  0.00000000000E+00 -0.00000000000E+00 -0.12647035241E+04  0.12647035241E+04  0.00000000000E+00 0.  1.
   -9000010    2    1    2    0  501 -0.34141505593E+03  0.44887929697E+03  0.30882672620E+03  0.12037453320E+04  0.10176305881E+04 0.  0.
    9000010    2    1    2  502    0  0.34141505593E+03 -0.44887929697E+03 -0.40467468698E+03  0.12298137555E+04  0.10151962407E+04 0.  0.
        -13    1    4    4    0    0 -0.68736955659E+01 -0.71990007086E+03 -0.25792283720E+03  0.76474019171E+03  0.10566000000E+00 0.  1.
          4    1    4    4  502    0  0.34828875150E+03  0.27102077389E+03 -0.14675184978E+03  0.46507356376E+03  0.00000000000E+00 0.  1.
         13    1    3    3    0    0 -0.36027067474E+03  0.15912361869E+03  0.64735312670E+03  0.75774756147E+03  0.10566000000E+00 0. -1.
         -4    1    3    3    0  501  0.18855618809E+02  0.28975567828E+03 -0.33852640050E+03  0.44599777050E+03  0.00000000000E+00 0. -1.
<mgrwt>
<rscale>  0 0.11623908E+04</rscale>
<asrwt>0</asrwt>
<pdfrwt beam="2">  1        4 0.19456977E+00 0.11613269E+04</pdfrwt>
<pdfrwt beam="1">  1       -4 0.17982393E+00 0.11634556E+04</pdfrwt>
<totfact> 0.21678719E-01</totfact>
</mgrwt>
</event>
<event>
 8    1  0.3025584E-006  0.1133419E+04  0.7818608E-02  0.8658633E-01
         -4   -1    0    0    0  501 -0.00000000000E+00  0.00000000000E+00  0.14551314830E+04  0.14551314830E+04  0.00000000000E+00 0. -1.
          4   -1    0    0  502    0  0.00000000000E+00 -0.00000000000E+00 -0.11669917975E+04  0.11669917975E+04  0.00000000000E+00 0.  1.
   -9000010    2    1    2    0  501  0.34338224334E+03  0.41582844104E+03  0.79141784071E+03  0.13823819713E+04  0.99690172957E+03 0.  0.
    9000010    2    1    2  502    0 -0.34338224334E+03 -0.41582844104E+03 -0.50327815518E+03  0.12397413093E+04  0.99641605520E+03 0.  0.
        -13    1    4    4    0    0  0.32562931961E+03  0.57777621679E+00 -0.46569346924E+02  0.32894300852E+03  0.10566000000E+00 0.  1.
          4    1    4    4  502    0 -0.66901156296E+03 -0.41640621726E+03 -0.45670880826E+03  0.91079830077E+03  0.00000000000E+00 0.  1.
         13    1    3    3    0    0  0.11373677761E+03  0.58236189538E+03  0.58211822897E+02  0.59621309887E+03  0.10566000000E+00 0. -1.
         -4    1    3    3    0  501  0.22964546573E+03 -0.16653345434E+03  0.73320601781E+03  0.78616887238E+03  0.00000000000E+00 0. -1.
<mgrwt>
<rscale>  0 0.11332050E+04</rscale>
<asrwt>0</asrwt>
<pdfrwt beam="2">  1        4 0.17953720E+00 0.11329914E+04</pdfrwt>
<pdfrwt beam="1">  1       -4 0.22386638E+00 0.11334186E+04</pdfrwt>
<totfact> 0.18157737E-01</totfact>
</mgrwt>
</event>
<event>
 8    1  0.3025584E-006  0.1163382E+04  0.7818608E-02  0.8651833E-01
         -4   -1    0    0    0  501 -0.00000000000E+00  0.00000000000E+00  0.83413179348E+03  0.83413179348E+03  0.00000000000E+00 0. -1.
          4   -1    0    0  502    0  0.00000000000E+00 -0.00000000000E+00 -0.17313856644E+04  0.17313856644E+04  0.00000000000E+00 0.  1.
   -9000010    2    1    2    0  501 -0.46753959790E+03  0.15497880222E+03 -0.41187542998E+02  0.11211119349E+04  0.10062722555E+04 0.  0.
    9000010    2    1    2  502    0  0.46753959790E+03 -0.15497880222E+03 -0.85606632791E+03  0.14444055229E+04  0.10539668174E+04 0.  0.
        -13    1    4    4    0    0  0.79304873520E+03 -0.20708390587E+02 -0.47092781708E+03  0.92256607021E+03  0.10566000000E+00 0.  1.
          4    1    4    4  502    0 -0.32550913730E+03 -0.13427041164E+03 -0.38513851083E+03  0.52183945274E+03  0.00000000000E+00 0.  1.
         13    1    3    3    0    0 -0.47491758447E+03 -0.79172639333E+02 -0.44412086081E+03  0.65502547204E+03  0.10566000000E+00 0. -1.
         -4    1    3    3    0  501  0.73779865734E+01  0.23415144156E+03  0.40293331781E+03  0.46608646287E+03  0.00000000000E+00 0. -1.
<mgrwt>
<rscale>  0 0.11416659E+04</rscale>
<asrwt>0</asrwt>
<pdfrwt beam="2">  1        4 0.26636702E+00 0.11633820E+04</pdfrwt>
<pdfrwt beam="1">  1       -4 0.12832797E+00 0.11203551E+04</pdfrwt>
<totfact> 0.23508945E-01</totfact>
</mgrwt>
</event>
<event>
 8    1  0.3025584E-006  0.1106010E+04  0.7818608E-02  0.8685479E-01
         -4   -1    0    0    0  501 -0.00000000000E+00  0.00000000000E+00  0.12180384671E+04  0.12180384671E+04  0.00000000000E+00 0. -1.
          4   -1    0    0  502    0  0.00000000000E+00 -0.00000000000E+00 -0.16000356058E+04  0.16000356058E+04  0.00000000000E+00 0.  1.
   -9000010    2    1    2    0  501 -0.29989697761E+03  0.36548002302E+03  0.67647837667E+03  0.12871827011E+04  0.98777652716E+03 0.  0.
    9000010    2    1    2  502    0  0.29989697761E+03 -0.36548002302E+03 -0.10584755154E+04  0.15308913717E+04  0.99987205724E+03 0.  0.
        -13    1    4    4    0    0  0.36622159939E+03  0.17405246020E+03 -0.86248656476E+03  0.95304543665E+03  0.10566000000E+00 0.  1.
          4    1    4    4  502    0 -0.66324621779E+02 -0.53953248322E+03 -0.19598895068E+03  0.57784593509E+03  0.00000000000E+00 0.  1.
         13    1    3    3    0    0  0.13091313435E+03 -0.24212764882E+03 -0.83302234643E+01  0.27537874075E+03  0.10566000000E+00 0. -1.
         -4    1    3    3    0  501 -0.43081011196E+03  0.60760767184E+03  0.68480860013E+03  0.10118039604E+04  0.00000000000E+00 0. -1.
<mgrwt>
<rscale>  0 0.11005351E+04</rscale>
<asrwt>0</asrwt>
<pdfrwt beam="2">  1        4 0.24615933E+00 0.11060099E+04</pdfrwt>
<pdfrwt beam="1">  1       -4 0.18739053E+00 0.10950874E+04</pdfrwt>
<totfact> 0.15142055E-01</totfact>
</mgrwt>
</event>
<event>
 8    1  0.3025584E-006  0.1182115E+04  0.7818608E-02  0.8636045E-01
         -4   -1    0    0    0  501 -0.00000000000E+00  0.00000000000E+00  0.23518748260E+04  0.23518748260E+04  0.00000000000E+00 0. -1.
          4   -1    0    0  502    0  0.00000000000E+00 -0.00000000000E+00 -0.30656956489E+04  0.30656956489E+04  0.00000000000E+00 0.  1.
   -9000010    2    1    2    0  501 -0.50586821594E+03  0.18782255721E+03  0.20839642571E+04  0.23958930430E+04  0.10517682651E+04 0.  0.
    9000010    2    1    2  502    0  0.50586821594E+03 -0.18782255721E+03 -0.27977850801E+04  0.30216774319E+04  0.10058594254E+04 0.  0.
        -13    1    4    4    0    0  0.72670523674E+03 -0.19135785488E+03 -0.26535047252E+04  0.27578625179E+04  0.10566000000E+00 0.  1.
          4    1    4    4  502    0 -0.22083702080E+03  0.35352976696E+01 -0.14428035487E+03  0.26381491407E+03  0.00000000000E+00 0.  1.
         13    1    3    3    0    0  0.11933121105E+03 -0.12126534014E+03 -0.27396967729E+02  0.17232476797E+03  0.10566000000E+00 0. -1.
         -4    1    3    3    0  501 -0.62519942699E+03  0.30908789736E+03  0.21113612249E+04  0.22235682750E+04  0.00000000000E+00 0. -1.
<mgrwt>
<rscale>  0 0.11616103E+04</rscale>
<asrwt>0</asrwt>
<pdfrwt beam="2">  1        4 0.47164548E+00 0.11414610E+04</pdfrwt>
<pdfrwt beam="1">  1       -4 0.36182690E+00 0.11821152E+04</pdfrwt>
<totfact> 0.83085054E-03</totfact>
</mgrwt>
</event>
<event>
 8    1  0.3025584E-006  0.1290776E+04  0.7818608E-02  0.8542174E-01
         -4   -1    0    0    0  501 -0.00000000000E+00  0.00000000000E+00  0.16917251206E+04  0.16917251206E+04  0.00000000000E+00 0. -1.
          4   -1    0    0  502    0  0.00000000000E+00 -0.00000000000E+00 -0.17697208969E+04  0.17697208969E+04  0.00000000000E+00 0.  1.
   -9000010    2    1    2    0  501 -0.80243716854E+03 -0.76179022960E+02  0.11151877906E+04  0.17057977906E+04  0.10081634992E+04 0.  0.
    9000010    2    1    2  502    0  0.80243716854E+03  0.76179022960E+02 -0.11931835669E+04  0.17556482269E+04  0.10044426411E+04 0.  0.
        -13    1    4    4    0    0  0.19905419479E+02 -0.19692378889E+03 -0.82556438042E+03  0.84895922266E+03  0.10566000000E+00 0.  1.
          4    1    4    4  502    0  0.78253174906E+03  0.27310281185E+03 -0.36761918645E+03  0.90668900422E+03  0.00000000000E+00 0.  1.
         13    1    3    3    0    0 -0.38295851559E+03 -0.49305054653E+03  0.28443627149E+03  0.68604669651E+03  0.10566000000E+00 0. -1.
         -4    1    3    3    0  501 -0.41947865295E+03  0.41687152357E+03  0.83075151907E+03  0.10197510941E+04  0.00000000000E+00 0. -1.
<mgrwt>
<rscale>  0 0.12893230E+04</rscale>
<asrwt>0</asrwt>
<pdfrwt beam="2">  1        4 0.27226475E+00 0.12878718E+04</pdfrwt>
<pdfrwt beam="1">  1       -4 0.26026540E+00 0.12907758E+04</pdfrwt>
<totfact> 0.84085571E-02</totfact>
</mgrwt>
</event>
<event>
 8    1  0.3025584E-006  0.1112384E+04  0.7818608E-02  0.8695597E-01
         -4   -1    0    0    0  501 -0.00000000000E+00  0.00000000000E+00  0.16763410085E+04  0.16763410085E+04  0.00000000000E+00 0. -1.
          4   -1    0    0  502    0  0.00000000000E+00 -0.00000000000E+00 -0.20643635061E+04  0.20643635061E+04  0.00000000000E+00 0.  1.
   -9000010    2    1    2    0  501  0.36152900151E+03 -0.10138738301E+03  0.13238460737E+04  0.16991626917E+04  0.99679627086E+03 0.  0.
    9000010    2    1    2  502    0 -0.36152900151E+03  0.10138738301E+03 -0.17118685713E+04  0.20415418229E+04  0.10470990350E+04 0.  0.
        -13    1    4    4    0    0  0.24288669132E+03  0.37138911792E+03 -0.57980683915E+03  0.73013683897E+03  0.10566000000E+00 0.  1.
          4    1    4    4  502    0 -0.60441569283E+03 -0.27000173491E+03 -0.11320617321E+04  0.13114049840E+04  0.00000000000E+00 0.  1.
         13    1    3    3    0    0  0.28980041623E+03 -0.46777278596E+03  0.33993387475E+03  0.64680036402E+03  0.10566000000E+00 0. -1.
         -4    1    3    3    0  501  0.71728585279E+02  0.36638540295E+03  0.98391219896E+03  0.10523623277E+04  0.00000000000E+00 0. -1.
<mgrwt>
<rscale>  0 0.10885208E+04</rscale>
<asrwt>0</asrwt>
<pdfrwt beam="2">  1        4 0.31759438E+00 0.11123844E+04</pdfrwt>
<pdfrwt beam="1">  1       -4 0.25789862E+00 0.10651692E+04</pdfrwt>
<totfact> 0.65556661E-02</totfact>
</mgrwt>
</event>
<event>
 8    1  0.3025584E-006  0.1152773E+04  0.7818608E-02  0.8654582E-01
          4   -1    0    0  502    0  0.00000000000E+00  0.00000000000E+00  0.28811668698E+04  0.28811668698E+04  0.00000000000E+00 0.  1.
         -4   -1    0    0    0  501 -0.00000000000E+00 -0.00000000000E+00 -0.21227794033E+04  0.21227794033E+04  0.00000000000E+00 0. -1.
   -9000010    2    1    2    0  501  0.16832588365E+02 -0.59473656138E+03 -0.18429619185E+04  0.21586160016E+04  0.95347758023E+03 0.  0.
    9000010    2    1    2  502    0 -0.16832588365E+02  0.59473656138E+03  0.26013493850E+04  0.28453302715E+04  0.98736559478E+03 0.  0.
        -13    1    4    4    0    0 -0.36716567151E+03  0.67474357119E+03  0.14749737547E+04  0.16630204765E+04  0.10566000000E+00 0.  1.
          4    1    4    4  502    0  0.35033308315E+03 -0.80007009812E+02  0.11263756303E+04  0.11823097950E+04  0.00000000000E+00 0.  1.
         13    1    3    3    0    0  0.41978057554E+03 -0.18250620987E+03 -0.41177272020E+03  0.61569556804E+03  0.10566000000E+00 0. -1.
         -4    1    3    3    0  501 -0.40294798718E+03 -0.41223035151E+03 -0.14311891983E+04  0.15429204336E+04  0.00000000000E+00 0. -1.
<mgrwt>
<rscale>  0 0.11382367E+04</rscale>
<asrwt>0</asrwt>
<pdfrwt beam="1">  1        4 0.44325644E+00 0.11527731E+04</pdfrwt>
<pdfrwt beam="2">  1       -4 0.32658145E+00 0.11238836E+04</pdfrwt>
<totfact> 0.14751550E-02</totfact>
</mgrwt>
</event>
<event>
 8    1  0.3025584E-006  0.1072213E+04  0.7818608E-02  0.8711451E-01
         -4   -1    0    0    0  501 -0.00000000000E+00  0.00000000000E+00  0.88696037593E+03  0.88696037593E+03  0.00000000000E+00 0. -1.
          4   -1    0    0  502    0  0.00000000000E+00 -0.00000000000E+00 -0.28110669475E+04  0.28110669475E+04  0.00000000000E+00 0.  1.
   -9000010    2    1    2    0  501  0.29440036073E+03 -0.27663994626E+03  0.39859452352E+03  0.11397892895E+04  0.98845374094E+03 0.  0.
    9000010    2    1    2  502    0 -0.29440036073E+03  0.27663994626E+03 -0.23227010951E+04  0.25582380339E+04  0.99319697389E+03 0.  0.
        -13    1    4    4    0    0  0.30380277713E+03 -0.13976491430E+03 -0.58438850762E+03  0.67330550099E+03  0.10566000000E+00 0.  1.
          4    1    4    4  502    0 -0.59820313786E+03  0.41640486057E+03 -0.17383125874E+04  0.18849325329E+04  0.00000000000E+00 0.  1.
         13    1    3    3    0    0 -0.33701201834E+03 -0.27636652563E+03  0.18111516157E+03  0.47197274276E+03  0.10566000000E+00 0. -1.
         -4    1    3    3    0  501  0.63141237907E+03 -0.27342063469E+00  0.21747936195E+03  0.66781654672E+03  0.00000000000E+00 0. -1.
<mgrwt>
<rscale>  0 0.10700150E+04</rscale>
<asrwt>0</asrwt>
<pdfrwt beam="2">  1        4 0.43247183E+00 0.10722133E+04</pdfrwt>
<pdfrwt beam="1">  1       -4 0.13645544E+00 0.10678212E+04</pdfrwt>
<totfact> 0.60219232E-02</totfact>
</mgrwt>
</event>
<event>
 8    1  0.3025584E-006  0.1078697E+04  0.7818608E-02  0.8712242E-01
         -4   -1    0    0    0  501 -0.00000000000E+00  0.00000000000E+00  0.13685976999E+04  0.13685976999E+04  0.00000000000E+00 0. -1.
          4   -1    0    0  502    0  0.00000000000E+00 -0.00000000000E+00 -0.17405260828E+04  0.17405260828E+04  0.00000000000E+00 0.  1.
   -9000010    2    1    2    0  501  0.16470144083E+03  0.36135112474E+03  0.93597121025E+03  0.14137804545E+04  0.98236035510E+03 0.  0.
    9000010    2    1    2  502    0 -0.16470144083E+03 -0.36135112474E+03 -0.13078995932E+04  0.16953433282E+04  0.10029389088E+04 0.  0.
        -13    1    4    4    0    0 -0.49795938472E+03 -0.17763402872E+03 -0.27787434763E+03  0.59727009068E+03  0.10566000000E+00 0.  1.
          4    1    4    4  502    0  0.33325794389E+03 -0.18371709601E+03 -0.10300252455E+04  0.10980732375E+04  0.00000000000E+00 0.  1.
         13    1    3    3    0    0 -0.35840719600E+03  0.21902731257E+03  0.12489912348E+03  0.43821054758E+03  0.10566000000E+00 0. -1.
         -4    1    3    3    0  501  0.52310863683E+03  0.14232381216E+03  0.81107208677E+03  0.97556990696E+03  0.00000000000E+00 0. -1.
<mgrwt>
<rscale>  0 0.10691014E+04</rscale>
<asrwt>0</asrwt>
<pdfrwt beam="2">  1        4 0.26777324E+00 0.10786972E+04</pdfrwt>
<pdfrwt beam="1">  1       -4 0.21055349E+00 0.10595910E+04</pdfrwt>
<totfact> 0.11605586E-01</totfact>
</mgrwt>
</event>
<event>
 8    1  0.3025584E-006  0.1028163E+04  0.7818608E-02  0.8769054E-01
         -4   -1    0    0    0  501 -0.00000000000E+00  0.00000000000E+00  0.24363747996E+04  0.24363747996E+04  0.00000000000E+00 0. -1.
          4   -1    0    0  502    0  0.00000000000E+00 -0.00000000000E+00 -0.65274645301E+03  0.65274645301E+03  0.00000000000E+00 0.  1.
   -9000010    2    1    2    0  501 -0.15205138070E+03  0.11137438687E+03  0.18352400844E+04  0.21036220139E+04  0.10107400921E+04 0.  0.
    9000010    2    1    2  502    0  0.15205138070E+03 -0.11137438687E+03 -0.51611737758E+02  0.98549923870E+03  0.96593017427E+03 0.  0.
        -13    1    4    4    0    0  0.24955816756E+03 -0.49999551248E+03 -0.13804886224E+03  0.57561470710E+03  0.10566000000E+00 0.  1.
          4    1    4    4  502    0 -0.97506786862E+02  0.38862112561E+03  0.86437124478E+02  0.40988453160E+03  0.00000000000E+00 0.  1.
         13    1    3    3    0    0 -0.87164943710E+01  0.53958133538E+03  0.71499445586E+03  0.89579075561E+03  0.10566000000E+00 0. -1.
         -4    1    3    3    0  501 -0.14333488633E+03 -0.42820694851E+03  0.11202456285E+04  0.12078312583E+04  0.00000000000E+00 0. -1.
<mgrwt>
<rscale>  0 0.10059142E+04</rscale>
<asrwt>0</asrwt>
<pdfrwt beam="2">  1        4 0.10042253E+00 0.98414683E+03</pdfrwt>
<pdfrwt beam="1">  1       -4 0.37482689E+00 0.10281631E+04</pdfrwt>
<totfact> 0.17421756E-01</totfact>
</mgrwt>
</event>
<event>
 8    1  0.3025584E-006  0.1625267E+04  0.7818608E-02  0.8342554E-01
         -4   -1    0    0    0  501 -0.00000000000E+00  0.00000000000E+00  0.14657587872E+04  0.14657587872E+04  0.00000000000E+00 0. -1.
          4   -1    0    0  502    0  0.00000000000E+00 -0.00000000000E+00 -0.39964058145E+04  0.39964058145E+04  0.00000000000E+00 0.  1.
   -9000010    2    1    2    0  501 -0.88022606730E+03  0.91165742287E+03  0.76056088838E+03  0.17944208225E+04  0.10176325648E+04 0.  0.
    9000010    2    1    2  502    0  0.88022606730E+03 -0.91165742287E+03 -0.32912079158E+04  0.36677437792E+04  0.10071631938E+04 0.  0.
        -13    1    4    4    0    0 -0.83675014766E+02 -0.41246528155E+03 -0.40469048051E+03  0.58386943126E+03  0.10566000000E+00 0.  1.
          4    1    4    4  502    0  0.96390108206E+03 -0.49919214132E+03 -0.28865174352E+04  0.30838743480E+04  0.00000000000E+00 0.  1.
         13    1    3    3    0    0 -0.80549155028E+03  0.10193894004E+04  0.32457927831E+03  0.13391501433E+04  0.10566000000E+00 0. -1.
         -4    1    3    3    0  501 -0.74734517014E+02 -0.10773197752E+03  0.43598161008E+03  0.45527067920E+03  0.00000000000E+00 0. -1.
<mgrwt>
<rscale>  0 0.16219965E+04</rscale>
<asrwt>0</asrwt>
<pdfrwt beam="2">  1        4 0.61483166E+00 0.16187325E+04</pdfrwt>
<pdfrwt beam="1">  1       -4 0.22550135E+00 0.16252671E+04</pdfrwt>
<totfact> 0.35233038E-03</totfact>
</mgrwt>
</event>
<event>
 8    1  0.3025584E-006  0.1087542E+04  0.7818608E-02  0.8698749E-01
         -4   -1    0    0    0  501 -0.00000000000E+00  0.00000000000E+00  0.11317582142E+04  0.11317582142E+04  0.00000000000E+00 0. -1.
          4   -1    0    0  502    0  0.00000000000E+00 -0.00000000000E+00 -0.27691557783E+04  0.27691557783E+04  0.00000000000E+00 0.  1.
   -9000010    2    1    2    0  501 -0.16914744415E+03  0.39244675681E+03  0.72188152382E+03  0.13053197321E+04  0.10000606750E+04 0.  0.
    9000010    2    1    2  502    0  0.16914744415E+03 -0.39244675681E+03 -0.23592790879E+04  0.25955942605E+04  0.99412596573E+03 0.  0.
        -13    1    4    4    0    0  0.39979603928E+03 -0.48218527666E+03 -0.22301474334E+04  0.23164406100E+04  0.10566000000E+00 0.  1.
          4    1    4    4  502    0 -0.23064859513E+03  0.89738519852E+02 -0.12913165457E+03  0.27915365051E+03  0.00000000000E+00 0.  1.
         13    1    3    3    0    0 -0.89626905121E+02  0.34794501174E+03  0.97350972901E+03  0.10376993384E+04  0.10566000000E+00 0. -1.
         -4    1    3    3    0  501 -0.79520539031E+02  0.44501745068E+02 -0.25162820519E+03  0.26762039363E+03  0.00000000000E+00 0. -1.
<mgrwt>
<rscale>  0 0.10848107E+04</rscale>
<asrwt>0</asrwt>
<pdfrwt beam="2">  1        4 0.42602396E+00 0.10820868E+04</pdfrwt>
<pdfrwt beam="1">  1       -4 0.17411665E+00 0.10875416E+04</pdfrwt>
<totfact> 0.45072086E-02</totfact>
</mgrwt>
</event>
<event>
 8    1  0.3025584E-006  0.1050507E+04  0.7818608E-02  0.8732043E-01
          4   -1    0    0  502    0  0.00000000000E+00  0.00000000000E+00  0.14573566583E+04  0.14573566583E+04  0.00000000000E+00 0.  1.
         -4   -1    0    0    0  501 -0.00000000000E+00 -0.00000000000E+00 -0.24913334086E+04  0.24913334086E+04  0.00000000000E+00 0. -1.
   -9000010    2    1    2    0  501 -0.29349674559E+03 -0.13568825678E+03 -0.21662836645E+04  0.24041240342E+04  0.99119917999E+03 0.  0.
    9000010    2    1    2  502    0  0.29349674559E+03  0.13568825678E+03  0.11323069142E+04  0.15445660327E+04  0.99950669761E+03 0.  0.
        -13    1    4    4    0    0  0.60754550747E+03 -0.11637060859E+03  0.85630760806E+03  0.10563694396E+04  0.10566000000E+00 0.  1.
          4    1    4    4  502    0 -0.31404876188E+03  0.25205886537E+03  0.27599930616E+03  0.48819659304E+03  0.00000000000E+00 0.  1.
         13    1    3    3    0    0 -0.63427568139E+03 -0.13549109099E+03 -0.17489021938E+04  0.18652941779E+04  0.10566000000E+00 0. -1.
         -4    1    3    3    0  501  0.34077893581E+03 -0.19716579575E+00 -0.41738147071E+03  0.53882985632E+03  0.00000000000E+00 0. -1.
<mgrwt>
<rscale>  0 0.10465492E+04</rscale>
<asrwt>0</asrwt>
<pdfrwt beam="1">  1        4 0.22420872E+00 0.10505072E+04</pdfrwt>
<pdfrwt beam="2">  1       -4 0.38328206E+00 0.10426061E+04</pdfrwt>
<totfact> 0.48218547E-02</totfact>
</mgrwt>
</event>
<event>
 8    1  0.3025584E-006  0.1383365E+04  0.7818608E-02  0.8497667E-01
         -4   -1    0    0    0  501 -0.00000000000E+00  0.00000000000E+00  0.26460779645E+04  0.26460779645E+04  0.00000000000E+00 0. -1.
          4   -1    0    0  502    0  0.00000000000E+00 -0.00000000000E+00 -0.26882323699E+04  0.26882323699E+04  0.00000000000E+00 0.  1.
   -9000010    2    1    2    0  501  0.64684491755E+01  0.86503117636E+03  0.22753693994E+04  0.26628938488E+04  0.10795262709E+04 0.  0.
    9000010    2    1    2  502    0 -0.64684491755E+01 -0.86503117636E+03 -0.23175238048E+04  0.26714164856E+04  0.10085775512E+04 0.  0.
        -13    1    4    4    0    0 -0.15585217470E+03  0.34424161274E+02  0.21419740806E+02  0.16103955942E+03  0.10566000000E+00 0.  1.
          4    1    4    4  502    0  0.14938372552E+03 -0.89945533763E+03 -0.23389435456E+04  0.25103769262E+04  0.00000000000E+00 0.  1.
         13    1    3    3    0    0 -0.28328758472E+02  0.73647595297E+03  0.51885533133E+03  0.90133801311E+03  0.10566000000E+00 0. -1.
         -4    1    3    3    0  501  0.34797207648E+02  0.12855522339E+03  0.17565140680E+04  0.17615558357E+04  0.00000000000E+00 0. -1.
<mgrwt>
<rscale>  0 0.13557771E+04</rscale>
<asrwt>0</asrwt>
<pdfrwt beam="2">  1        4 0.41357421E+00 0.13287398E+04</pdfrwt>
<pdfrwt beam="1">  1       -4 0.40708892E+00 0.13833646E+04</pdfrwt>
<totfact> 0.99069732E-03</totfact>
</mgrwt>
</event>
<event>
 8    1  0.3025584E-006  0.1114682E+04  0.7818608E-02  0.8704981E-01
          4   -1    0    0  502    0  0.00000000000E+00  0.00000000000E+00  0.22740597435E+04  0.22740597435E+04  0.00000000000E+00 0.  1.
         -4   -1    0    0    0  501 -0.00000000000E+00 -0.00000000000E+00 -0.52883811979E+03  0.52883811979E+03  0.00000000000E+00 0. -1.
   -9000010    2    1    2    0  501 -0.24209023842E+03  0.42683869015E+03  0.64503492599E+03  0.12878611295E+04  0.10008582727E+04 0.  0.
    9000010    2    1    2  502    0  0.24209023842E+03 -0.42683869015E+03  0.11001866977E+04  0.15150367338E+04  0.91876361705E+03 0.  0.
        -13    1    4    4    0    0  0.10685280340E+03 -0.47144059711E+03  0.86106927880E+02  0.49100730381E+03  0.10566000000E+00 0.  1.
          4    1    4    4  502    0  0.13523743502E+03  0.44601906964E+02  0.10140797698E+04  0.10240294300E+04  0.00000000000E+00 0.  1.
         13    1    3    3    0    0  0.92956129200E+02  0.66710309824E+03  0.25466871958E+03  0.72008579595E+03  0.10566000000E+00 0. -1.
         -4    1    3    3    0  501 -0.33504636762E+03 -0.24026440809E+03  0.39036620641E+03  0.56777533352E+03  0.00000000000E+00 0. -1.
<mgrwt>
<rscale>  0 0.10775204E+04</rscale>
<asrwt>0</asrwt>
<pdfrwt beam="1">  1        4 0.34985534E+00 0.10415976E+04</pdfrwt>
<pdfrwt beam="2">  1       -4 0.81359712E-01 0.11146821E+04</pdfrwt>
<totfact> 0.32631862E-01</totfact>
</mgrwt>
</event>
<event>
 8    1  0.3025584E-006  0.1371833E+04  0.7818608E-02  0.8494474E-01
          4   -1    0    0  502    0  0.00000000000E+00  0.00000000000E+00  0.25474786607E+04  0.25474786607E+04  0.00000000000E+00 0.  1.
         -4   -1    0    0    0  501 -0.00000000000E+00 -0.00000000000E+00 -0.91866152693E+03  0.91866152693E+03  0.00000000000E+00 0. -1.
   -9000010    2    1    2    0  501  0.24749343414E+03  0.86144534910E+03  0.27766450151E+02  0.13721138056E+04  0.10385490986E+04 0.  0.
    9000010    2    1    2  502    0 -0.24749343414E+03 -0.86144534910E+03  0.16010506836E+04  0.20940263820E+04  0.10090798322E+04 0.  0.
        -13    1    4    4    0    0 -0.20323533473E+03  0.70048407907E+02 -0.28158273180E+02  0.21680470531E+03  0.10566000000E+00 0.  1.
          4    1    4    4  502    0 -0.44258099405E+02 -0.93149375700E+03  0.16292089568E+04  0.18772216767E+04  0.00000000000E+00 0.  1.
         13    1    3    3    0    0  0.12323784128E+02 -0.24229824332E+03 -0.11839976377E+02  0.24290020704E+03  0.10566000000E+00 0. -1.
         -4    1    3    3    0  501  0.23516965001E+03  0.11037435924E+04  0.39606426528E+02  0.11292135985E+04  0.00000000000E+00 0. -1.
<mgrwt>
<rscale>  0 0.13607015E+04</rscale>
<asrwt>0</asrwt>
<pdfrwt beam="1">  1        4 0.39191979E+00 0.13496604E+04</pdfrwt>
<pdfrwt beam="2">  1       -4 0.14133254E+00 0.13718328E+04</pdfrwt>
<totfact> 0.81816240E-02</totfact>
</mgrwt>
</event>
<event>
 8    1  0.3025584E-006  0.1800366E+04  0.7818608E-02  0.8257546E-01
         -4   -1    0    0    0  501 -0.00000000000E+00  0.00000000000E+00  0.98666385938E+03  0.98666385938E+03  0.00000000000E+00 0. -1.
          4   -1    0    0  502    0  0.00000000000E+00 -0.00000000000E+00 -0.37533300275E+04  0.37533300275E+04  0.00000000000E+00 0.  1.
   -9000010    2    1    2    0  501 -0.12644162116E+04 -0.80034439179E+03 -0.53172511198E+03  0.18772455611E+04  0.10010093907E+04 0.  0.
    9000010    2    1    2  502    0  0.12644162116E+04  0.80034439179E+03 -0.22349410561E+04  0.28627483258E+04  0.98034022195E+03 0.  0.
        -13    1    4    4    0    0  0.92841606491E+03  0.52519083550E+03 -0.72034752653E+03  0.12871217399E+04  0.10566000000E+00 0.  1.
          4    1    4    4  502    0  0.33600014667E+03  0.27515355629E+03 -0.15145935296E+04  0.15756265858E+04  0.00000000000E+00 0.  1.
         13    1    3    3    0    0 -0.46483789550E+03 -0.10371723765E+03 -0.65475789598E+03  0.80965390630E+03  0.10566000000E+00 0. -1.
         -4    1    3    3    0  501 -0.79957831608E+03 -0.69662715414E+03  0.12303278399E+03  0.10675916548E+04  0.00000000000E+00 0. -1.
<mgrwt>
<rscale>  0 0.17946526E+04</rscale>
<asrwt>0</asrwt>
<pdfrwt beam="2">  1        4 0.57743539E+00 0.17889568E+04</pdfrwt>
<pdfrwt beam="1">  1       -4 0.15179444E+00 0.18003664E+04</pdfrwt>
<totfact> 0.94468949E-03</totfact>
</mgrwt>
</event>
<event>
 8    1  0.3025584E-006  0.1296666E+04  0.7818608E-02  0.8539059E-01
         -4   -1    0    0    0  501 -0.00000000000E+00  0.00000000000E+00  0.25035745117E+04  0.25035745117E+04  0.00000000000E+00 0. -1.
          4   -1    0    0  502    0  0.00000000000E+00 -0.00000000000E+00 -0.15671839478E+04  0.15671839478E+04  0.00000000000E+00 0.  1.
   -9000010    2    1    2    0  501  0.78273075118E+03  0.19556263079E+03  0.20089274545E+04  0.23879997135E+04  0.10078893505E+04 0.  0.
    9000010    2    1    2  502    0 -0.78273075118E+03 -0.19556263079E+03 -0.10725368906E+04  0.16827587460E+04  0.10151007065E+04 0.  0.
        -13    1    4    4    0    0  0.70213930081E+02  0.27299514427E+02  0.15448615080E+03  0.17187565685E+03  0.10566000000E+00 0.  1.
          4    1    4    4  502    0 -0.85294468126E+03 -0.22286214522E+03 -0.12270230414E+04  0.15108830892E+04  0.00000000000E+00 0.  1.
         13    1    3    3    0    0 -0.20455449624E+03 -0.13784067253E+03  0.33055296385E+03  0.41244134857E+03  0.10566000000E+00 0. -1.
         -4    1    3    3    0  501  0.98728524742E+03  0.33340330332E+03  0.16783744906E+04  0.19755583649E+04  0.00000000000E+00 0. -1.
<mgrwt>
<rscale>  0 0.12938437E+04</rscale>
<asrwt>0</asrwt>
<pdfrwt beam="2">  1        4 0.24110522E+00 0.12966656E+04</pdfrwt>
<pdfrwt beam="1">  1       -4 0.38516531E+00 0.12910279E+04</pdfrwt>
<totfact> 0.41912070E-02</totfact>
</mgrwt>
</event>
<event>
 8    1  0.3025584E-006  0.1077748E+04  0.7818608E-02  0.8705333E-01
          4   -1    0    0  502    0  0.00000000000E+00  0.00000000000E+00  0.10211456222E+04  0.10211456222E+04  0.00000000000E+00 0.  1.
         -4   -1    0    0    0  501 -0.00000000000E+00 -0.00000000000E+00 -0.20616194169E+04  0.20616194169E+04  0.00000000000E+00 0. -1.
   -9000010    2    1    2    0  501 -0.57443533029E+02  0.37253012856E+03 -0.15528020121E+04  0.18894414424E+04  0.10083235687E+04 0.  0.
    9000010    2    1    2  502    0  0.57443533029E+02 -0.37253012856E+03  0.51232821736E+03  0.11933235967E+04  0.10096843803E+04 0.  0.
        -13    1    4    4    0    0 -0.46593105247E+03 -0.27839887102E+03  0.30476546517E+03  0.62247865583E+03  0.10566000000E+00 0.  1.
          4    1    4    4  502    0  0.52337458550E+03 -0.94131257539E+02  0.20756275219E+03  0.57084494084E+03  0.00000000000E+00 0.  1.
         13    1    3    3    0    0 -0.33667486721E+03  0.32955984347E+03 -0.20750420553E+03  0.51479866270E+03  0.10566000000E+00 0. -1.
         -4    1    3    3    0  501  0.27923133418E+03  0.42970285088E+02 -0.13452978066E+04  0.13746427797E+04  0.00000000000E+00 0. -1.
<mgrwt>
<rscale>  0 0.10771105E+04</rscale>
<asrwt>0</asrwt>
<pdfrwt beam="1">  1        4 0.15709933E+00 0.10777481E+04</pdfrwt>
<pdfrwt beam="2">  1       -4 0.31717221E+00 0.10764734E+04</pdfrwt>
<totfact> 0.12779714E-01</totfact>
</mgrwt>
</event>
<event>
 8    1  0.3025584E-006  0.1138906E+04  0.7818608E-02  0.8656144E-01
          4   -1    0    0  502    0  0.00000000000E+00  0.00000000000E+00  0.10166467192E+04  0.10166467192E+04  0.00000000000E+00 0.  1.
         -4   -1    0    0    0  501 -0.00000000000E+00 -0.00000000000E+00 -0.21241890918E+04  0.21241890918E+04  0.00000000000E+00 0. -1.
   -9000010    2    1    2    0  501  0.47380876301E+03  0.25801672561E+03 -0.15503674660E+04  0.19237321484E+04  0.10030148177E+04 0.  0.
    9000010    2    1    2  502    0 -0.47380876301E+03 -0.25801672561E+03  0.44282509344E+03  0.12171036626E+04  0.99708569717E+03 0.  0.
        -13    1    4    4    0    0 -0.12247604634E+03  0.33450434201E+03 -0.63956950608E+02  0.36191717208E+03  0.10566000000E+00 0.  1.
          4    1    4    4  502    0 -0.35133271667E+03 -0.59252106762E+03  0.50678204404E+03  0.85518649050E+03  0.00000000000E+00 0.  1.
         13    1    3    3    0    0  0.76644437220E+03  0.13206390433E+03 -0.13144439782E+04  0.15272985410E+04  0.10566000000E+00 0. -1.
         -4    1    3    3    0  501 -0.29263560919E+03  0.12595282129E+03 -0.23592348783E+03  0.39643360739E+03  0.00000000000E+00 0. -1.
<mgrwt>
<rscale>  0 0.11362936E+04</rscale>
<asrwt>0</asrwt>
<pdfrwt beam="1">  1        4 0.15640719E+00 0.11336875E+04</pdfrwt>
<pdfrwt beam="2">  1       -4 0.32679832E+00 0.11389057E+04</pdfrwt>
<totfact> 0.12021855E-01</totfact>
</mgrwt>
</event>
<event>
 8    1  0.3025584E-006  0.1006544E+04  0.7818608E-02  0.8784152E-01
          4   -1    0    0  502    0  0.00000000000E+00  0.00000000000E+00  0.67843882382E+03  0.67843882382E+03  0.00000000000E+00 0.  1.
         -4   -1    0    0    0  501 -0.00000000000E+00 -0.00000000000E+00 -0.19826523134E+04  0.19826523134E+04  0.00000000000E+00 0. -1.
   -9000010    2    1    2    0  501  0.18163353746E+03 -0.11384200545E+03 -0.13530305657E+04  0.16863635011E+04  0.98345279595E+03 0.  0.
    9000010    2    1    2  502    0 -0.18163353746E+03  0.11384200545E+03  0.48817076109E+02  0.97472763616E+03  0.94961050628E+03 0.  0.
        -13    1    4    4    0    0 -0.31731803534E+03  0.48427852334E+03  0.32215561425E+02  0.57987436336E+03  0.10566000000E+00 0.  1.
          4    1    4    4  502    0  0.13568449788E+03 -0.37043651789E+03  0.16601514684E+02  0.39485327280E+03  0.00000000000E+00 0.  1.
         13    1    3    3    0    0 -0.79371077864E+02  0.10586372488E+03 -0.13383579172E+04  0.13448824565E+04  0.10566000000E+00 0. -1.
         -4    1    3    3    0  501  0.26100461533E+03 -0.21970573033E+03 -0.14672648516E+02  0.34148104453E+03  0.00000000000E+00 0. -1.
<mgrwt>
<rscale>  0 0.98988621E+03</rscale>
<asrwt>0</asrwt>
<pdfrwt beam="1">  1        4 0.10437520E+00 0.97350442E+03</pdfrwt>
<pdfrwt beam="2">  1       -4 0.30502343E+00 0.10065437E+04</pdfrwt>
<totfact> 0.26883423E-01</totfact>
</mgrwt>
</event>
<event>
 8    1  0.3025584E-006  0.1136633E+04  0.7818608E-02  0.8660626E-01
         -4   -1    0    0    0  501 -0.00000000000E+00  0.00000000000E+00  0.29245938015E+04  0.29245938015E+04  0.00000000000E+00 0. -1.
          4   -1    0    0  502    0  0.00000000000E+00 -0.00000000000E+00 -0.73285346134E+03  0.73285346134E+03  0.00000000000E+00 0.  1.
   -9000010    2    1    2    0  501 -0.25357798827E+03  0.50398916951E+03  0.22608102225E+04  0.25304540910E+04  0.98672598284E+03 0.  0.
    9000010    2    1    2  502    0  0.25357798827E+03 -0.50398916951E+03 -0.69069882426E+02  0.11269931718E+04  0.97315778860E+03 0.  0.
        -13    1    4    4    0    0  0.59597060895E+03 -0.37886545182E+03  0.12002546435E+03  0.71632822126E+03  0.10566000000E+00 0.  1.
          4    1    4    4  502    0 -0.34239262069E+03 -0.12512371768E+03 -0.18909534677E+03  0.41066495054E+03  0.00000000000E+00 0.  1.
         13    1    3    3    0    0  0.11938475038E+03  0.49663928959E+03  0.20266231615E+04  0.20900011370E+04  0.10566000000E+00 0. -1.
         -4    1    3    3    0  501 -0.37296273865E+03  0.73498799152E+01  0.23418706101E+03  0.44045295402E+03  0.00000000000E+00 0. -1.
<mgrwt>
<rscale>  0 0.11307386E+04</rscale>
<asrwt>0</asrwt>
<pdfrwt beam="2">  1        4 0.11274669E+00 0.11248746E+04</pdfrwt>
<pdfrwt beam="1">  1       -4 0.44993750E+00 0.11366332E+04</pdfrwt>
<totfact> 0.68314742E-02</totfact>
</mgrwt>
</event>
<event>
 8    1  0.3025584E-006  0.1325153E+04  0.7818608E-02  0.8522680E-01
          4   -1    0    0  502    0  0.00000000000E+00  0.00000000000E+00  0.16385441831E+04  0.16385441831E+04  0.00000000000E+00 0.  1.
         -4   -1    0    0    0  501 -0.00000000000E+00 -0.00000000000E+00 -0.15668889147E+04  0.15668889147E+04  0.00000000000E+00 0. -1.
   -9000010    2    1    2    0  501  0.51141612484E+03 -0.67184763675E+03 -0.87579292205E+03  0.15764183829E+04  0.10025746735E+04 0.  0.
    9000010    2    1    2  502    0 -0.51141612484E+03  0.67184763675E+03  0.94744819045E+03  0.16290147148E+04  0.10213252018E+04 0.  0.
        -13    1    4    4    0    0  0.13783940098E+02  0.28349098429E+03 -0.17276702310E+03  0.33227336730E+03  0.10566000000E+00 0.  1.
          4    1    4    4  502    0 -0.52520006494E+03  0.38835665246E+03  0.11202152136E+04  0.12967413475E+04  0.00000000000E+00 0.  1.
         13    1    3    3    0    0  0.69507341069E+03 -0.80727827484E+03 -0.61569324295E+03  0.12304078348E+04  0.10566000000E+00 0. -1.
         -4    1    3    3    0  501 -0.18365728585E+03  0.13543063809E+03 -0.26009967910E+03  0.34601054817E+03  0.00000000000E+00 0. -1.
<mgrwt>
<rscale>  0 0.13179350E+04</rscale>
<asrwt>0</asrwt>
<pdfrwt beam="1">  1        4 0.25208372E+00 0.13251531E+04</pdfrwt>
<pdfrwt beam="2">  1       -4 0.24105983E+00 0.13107561E+04</pdfrwt>
<totfact> 0.10418399E-01</totfact>
</mgrwt>
</event>
<event>
 8    1  0.3025584E-006  0.1069151E+04  0.7818608E-02  0.8716198E-01
         -4   -1    0    0    0  501 -0.00000000000E+00  0.00000000000E+00  0.40774338965E+04  0.40774338965E+04  0.00000000000E+00 0. -1.
          4   -1    0    0  502    0  0.00000000000E+00 -0.00000000000E+00 -0.45907797235E+03  0.45907797235E+03  0.00000000000E+00 0.  1.
   -9000010    2    1    2    0  501  0.29876344596E+03  0.24833474138E+03  0.32292403434E+04  0.33987531495E+04  0.98620486466E+03 0.  0.
    9000010    2    1    2  502    0 -0.29876344596E+03 -0.24833474138E+03  0.38911558076E+03  0.11377587194E+04  0.99606938913E+03 0.  0.
        -13    1    4    4    0    0 -0.23438609069E+02 -0.51618163780E+03 -0.89140816035E+02  0.52434620991E+03  0.10566000000E+00 0.  1.
          4    1    4    4  502    0 -0.27532483689E+03  0.26784689642E+03  0.47825639679E+03  0.61341250949E+03  0.00000000000E+00 0.  1.
         13    1    3    3    0    0 -0.13075042864E+03 -0.31571472879E+03  0.84960046808E+03  0.91574692525E+03  0.10566000000E+00 0. -1.
         -4    1    3    3    0  501  0.42951387460E+03  0.56404947017E+03  0.23796398753E+04  0.24830062242E+04  0.00000000000E+00 0. -1.
<mgrwt>
<rscale>  0 0.10645491E+04</rscale>
<asrwt>0</asrwt>
<pdfrwt beam="2">  1        4 0.70627383E-01 0.10691511E+04</pdfrwt>
<pdfrwt beam="1">  1       -4 0.62729750E+00 0.10599669E+04</pdfrwt>
<totfact> 0.22415339E-02</totfact>
</mgrwt>
</event>
<event>
 8    1  0.3025584E-006  0.1184732E+04  0.7818608E-02  0.8619621E-01
         -4   -1    0    0    0  501 -0.00000000000E+00  0.00000000000E+00  0.66480611804E+03  0.66480611804E+03  0.00000000000E+00 0. -1.
          4   -1    0    0  502    0  0.00000000000E+00 -0.00000000000E+00 -0.22817130153E+04  0.22817130153E+04  0.00000000000E+00 0.  1.
   -9000010    2    1    2    0  501  0.58672265052E+03  0.20216788138E+03 -0.39658890267E+03  0.12457056165E+04  0.10046812451E+04 0.  0.
    9000010    2    1    2  502    0 -0.58672265052E+03 -0.20216788138E+03 -0.12203179946E+04  0.17008135169E+04  0.10091953678E+04 0.  0.
        -13    1    4    4    0    0 -0.66378250583E+03 -0.50137642648E+03 -0.66366184990E+03  0.10641581641E+04  0.10566000000E+00 0.  1.
          4    1    4    4  502    0  0.77059855313E+02  0.29920854509E+03 -0.55665614472E+03  0.63665535277E+03  0.00000000000E+00 0.  1.
         13    1    3    3    0    0  0.41442456529E+03  0.51862895906E+03  0.57118144659E+02  0.66632290303E+03  0.10566000000E+00 0. -1.
         -4    1    3    3    0  501  0.17229808523E+03 -0.31646107767E+03 -0.45370704732E+03  0.57938271345E+03  0.00000000000E+00 0. -1.
<mgrwt>
<rscale>  0 0.11828093E+04</rscale>
<asrwt>0</asrwt>
<pdfrwt beam="2">  1        4 0.35103277E+00 0.11847323E+04</pdfrwt>
<pdfrwt beam="1">  1       -4 0.10227787E+00 0.11808894E+04</pdfrwt>
<totfact> 0.20299635E-01</totfact>
</mgrwt>
</event>
<event>
 8    1  0.3025584E-006  0.1108327E+04  0.7818608E-02  0.8702310E-01
          4   -1    0    0  502    0  0.00000000000E+00  0.00000000000E+00  0.10824086525E+04  0.10824086525E+04  0.00000000000E+00 0.  1.
         -4   -1    0    0    0  501 -0.00000000000E+00 -0.00000000000E+00 -0.15271884866E+04  0.15271884866E+04  0.00000000000E+00 0. -1.
   -9000010    2    1    2    0  501  0.30504291693E+03  0.76015722920E+02 -0.93261556267E+03  0.14485026316E+04  0.10628069038E+04 0.  0.
    9000010    2    1    2  502    0 -0.30504291693E+03 -0.76015722920E+02  0.48783572864E+03  0.11610945075E+04  0.10056476450E+04 0.  0.
        -13    1    4    4    0    0 -0.93710763173E+02  0.25412433054E+03  0.67456010098E+03  0.72690592480E+03  0.10566000000E+00 0.  1.
          4    1    4    4  502    0 -0.21133215376E+03 -0.33014005346E+03 -0.18672437234E+03  0.43418858269E+03  0.00000000000E+00 0.  1.
         13    1    3    3    0    0  0.61226710497E+03 -0.16643371693E+03 -0.29350539724E+03  0.69908269850E+03  0.10566000000E+00 0. -1.
         -4    1    3    3    0  501 -0.30722418804E+03  0.24244943985E+03 -0.63911016544E+03  0.74941993312E+03  0.00000000000E+00 0. -1.
<mgrwt>
<rscale>  0 0.10806374E+04</rscale>
<asrwt>0</asrwt>
<pdfrwt beam="1">  1        4 0.16652441E+00 0.10536398E+04</pdfrwt>
<pdfrwt beam="2">  1       -4 0.23495208E+00 0.11083267E+04</pdfrwt>
<totfact> 0.18929134E-01</totfact>
</mgrwt>
</event>
<event>
 8    1  0.3025584E-006  0.1081673E+04  0.7818608E-02  0.8708679E-01
         -4   -1    0    0    0  501 -0.00000000000E+00  0.00000000000E+00  0.17612756462E+04  0.17612756462E+04  0.00000000000E+00 0. -1.
          4   -1    0    0  502    0  0.00000000000E+00 -0.00000000000E+00 -0.23250413110E+04  0.23250413110E+04  0.00000000000E+00 0.  1.
   -9000010    2    1    2    0  501 -0.39404418235E+03  0.67186469251E+02  0.14496085571E+04  0.18086958075E+04  0.10051023410E+04 0.  0.
    9000010    2    1    2  502    0  0.39404418235E+03 -0.67186469251E+02 -0.20133742219E+04  0.22776211497E+04  0.98696378098E+03 0.  0.
        -13    1    4    4    0    0  0.15433636370E+03 -0.50318431801E+03 -0.13455799006E+04  0.14448527437E+04  0.10566000000E+00 0.  1.
          4    1    4    4  502    0  0.23970781864E+03  0.43599784876E+03 -0.66779432132E+03  0.83276840599E+03  0.00000000000E+00 0.  1.
         13    1    3    3    0    0 -0.66902929794E+03 -0.10558779325E+03  0.12655719294E+04  0.14354167699E+04  0.10566000000E+00 0. -1.
         -4    1    3    3    0  501  0.27498511559E+03  0.17277426250E+03  0.18403662773E+03  0.37327903762E+03  0.00000000000E+00 0. -1.
<mgrwt>
<rscale>  0 0.10732228E+04</rscale>
<asrwt>0</asrwt>
<pdfrwt beam="2">  1        4 0.35769866E+00 0.10648391E+04</pdfrwt>
<pdfrwt beam="1">  1       -4 0.27096548E+00 0.10816726E+04</pdfrwt>
<totfact> 0.46231639E-02</totfact>
</mgrwt>
</event>
<event>
 8    1  0.3025584E-006  0.1384337E+04  0.7818608E-02  0.8481249E-01
          4   -1    0    0  502    0  0.00000000000E+00  0.00000000000E+00  0.13936407004E+04  0.13936407004E+04  0.00000000000E+00 0.  1.
         -4   -1    0    0    0  501 -0.00000000000E+00 -0.00000000000E+00 -0.33396476334E+04  0.33396476334E+04  0.00000000000E+00 0. -1.
   -9000010    2    1    2    0  501 -0.93522499961E+03 -0.17423610651E+03 -0.27917820704E+04  0.31161573731E+04  0.10056766999E+04 0.  0.
    9000010    2    1    2  502    0  0.93522499961E+03  0.17423610651E+03  0.84577513735E+03  0.16171309606E+04  0.99738304587E+03 0.  0.
        -13    1    4    4    0    0  0.46409081162E+03 -0.16716278919E+03 -0.10323356670E+03  0.50396513766E+03  0.10566000000E+00 0.  1.
          4    1    4    4  502    0  0.47113418799E+03  0.34139889570E+03  0.94900870405E+03  0.11131658230E+04  0.00000000000E+00 0.  1.
         13    1    3    3    0    0 -0.35043156903E+03  0.37941575359E+03 -0.66496510813E+03  0.84198408823E+03  0.10566000000E+00 0. -1.
         -4    1    3    3    0  501 -0.58479343058E+03 -0.55365186010E+03 -0.21268169623E+04  0.22741732849E+04  0.00000000000E+00 0. -1.
<mgrwt>
<rscale>  0 0.13813273E+04</rscale>
<asrwt>0</asrwt>
<pdfrwt beam="1">  1        4 0.21440626E+00 0.13783240E+04</pdfrwt>
<pdfrwt beam="2">  1       -4 0.51379195E+00 0.13843373E+04</pdfrwt>
<totfact> 0.12916326E-02</totfact>
</mgrwt>
</event>
<event>
 8    1  0.3025584E-006  0.1333732E+04  0.7818608E-02  0.8513981E-01
         -4   -1    0    0    0  501 -0.00000000000E+00  0.00000000000E+00  0.17530167723E+04  0.17530167723E+04  0.00000000000E+00 0. -1.
          4   -1    0    0  502    0  0.00000000000E+00 -0.00000000000E+00 -0.12248686793E+04  0.12248686793E+04  0.00000000000E+00 0.  1.
   -9000010    2    1    2    0  501  0.84868269706E+03 -0.22679537613E+03  0.88650244309E+03  0.15968499554E+04  0.99616501413E+03 0.  0.
    9000010    2    1    2  502    0 -0.84868269706E+03  0.22679537613E+03 -0.35835435005E+03  0.13810354963E+04  0.10035650148E+04 0.  0.
        -13    1    4    4    0    0  0.24756511892E+02 -0.14972973093E+02 -0.46732989365E+03  0.46822464210E+03  0.10566000000E+00 0.  1.
          4    1    4    4  502    0 -0.87343920895E+03  0.24176834922E+03  0.10897554361E+03  0.91281085418E+03  0.00000000000E+00 0.  1.
         13    1    3    3    0    0 -0.60584548951E+02 -0.35444090577E+03  0.66233774614E+02  0.36563064329E+03  0.10566000000E+00 0. -1.
         -4    1    3    3    0  501  0.90926724601E+03  0.12764552964E+03  0.82026866847E+03  0.12312193121E+04  0.00000000000E+00 0. -1.
<mgrwt>
<rscale>  0 0.13309496E+04</rscale>
<asrwt>0</asrwt>
<pdfrwt beam="2">  1        4 0.18844133E+00 0.13337321E+04</pdfrwt>
<pdfrwt beam="1">  1       -4 0.26969489E+00 0.13281729E+04</pdfrwt>
<totfact> 0.13069180E-01</totfact>
</mgrwt>
</event>
<event>
 8    1  0.3025584E-006  0.1114899E+04  0.7818608E-02  0.8689597E-01
         -4   -1    0    0    0  501 -0.00000000000E+00  0.00000000000E+00  0.43540536687E+03  0.43540536687E+03  0.00000000000E+00 0. -1.
          4   -1    0    0  502    0  0.00000000000E+00 -0.00000000000E+00 -0.31819251715E+04  0.31819251715E+04  0.00000000000E+00 0.  1.
   -9000010    2    1    2    0  501  0.46596964949E+02  0.41708823797E+03 -0.69226284421E+03  0.12800306733E+04  0.99152246757E+03 0.  0.
    9000010    2    1    2  502    0 -0.46596964949E+02 -0.41708823797E+03 -0.20542569605E+04  0.23372998651E+04  0.10328916325E+04 0.  0.
        -13    1    4    4    0    0 -0.12100656804E+03 -0.33288519936E+03 -0.21564896471E+04  0.21853838918E+04  0.10566000000E+00 0.  1.
          4    1    4    4  502    0  0.74409603088E+02 -0.84203038611E+02  0.10223268659E+03  0.15191597332E+03  0.00000000000E+00 0.  1.
         13    1    3    3    0    0 -0.38441712924E+02  0.92806376912E+02  0.25559849358E+03  0.27462955044E+03  0.10566000000E+00 0. -1.
         -4    1    3    3    0  501  0.85038677873E+02  0.32428186105E+03 -0.94786133779E+03  0.10054011228E+04  0.00000000000E+00 0. -1.
<mgrwt>
<rscale>  0 0.10956253E+04</rscale>
<asrwt>0</asrwt>
<pdfrwt beam="2">  1        4 0.48952692E+00 0.11148987E+04</pdfrwt>
<pdfrwt beam="1">  1       -4 0.66985445E-01 0.10766850E+04</pdfrwt>
<totfact> 0.12549032E-01</totfact>
</mgrwt>
</event>
<event>
 8    1  0.3025584E-006  0.1300937E+04  0.7818608E-02  0.8535135E-01
         -4   -1    0    0    0  501 -0.00000000000E+00  0.00000000000E+00  0.16720429289E+04  0.16720429289E+04  0.00000000000E+00 0. -1.
          4   -1    0    0  502    0  0.00000000000E+00 -0.00000000000E+00 -0.11479784424E+04  0.11479784424E+04  0.00000000000E+00 0.  1.
   -9000010    2    1    2    0  501  0.20348716599E+03 -0.80689282013E+03  0.75050444669E+03  0.14995239804E+04  0.99640965137E+03 0.  0.
    9000010    2    1    2  502    0 -0.20348716599E+03  0.80689282013E+03 -0.22643996024E+03  0.13204973909E+04  0.99997762668E+03 0.  0.
        -13    1    4    4    0    0 -0.50551047640E+03  0.85484844051E+03 -0.20402428339E+03  0.10138701186E+04  0.10566000000E+00 0.  1.
          4    1    4    4  502    0  0.30202331041E+03 -0.47955620375E+02 -0.22415676843E+02  0.30662727231E+03  0.00000000000E+00 0.  1.
         13    1    3    3    0    0  0.96170590757E+02 -0.56532867104E+03  0.98918092628E+03  0.11433827902E+04  0.10566000000E+00 0. -1.
         -4    1    3    3    0  501  0.10731657523E+03 -0.24156414909E+03 -0.23867647959E+03  0.35614119020E+03  0.00000000000E+00 0. -1.
<mgrwt>
<rscale>  0 0.12995665E+04</rscale>
<asrwt>0</asrwt>
<pdfrwt beam="2">  1        4 0.17661207E+00 0.13009375E+04</pdfrwt>
<pdfrwt beam="1">  1       -4 0.25723737E+00 0.12981969E+04</pdfrwt>
<totfact> 0.15297041E-01</totfact>
</mgrwt>
</event>
<event>
 8    1  0.3025584E-006  0.1199025E+04  0.7818608E-02  0.8627246E-01
          4   -1    0    0  502    0  0.00000000000E+00  0.00000000000E+00  0.28276414447E+04  0.28276414447E+04  0.00000000000E+00 0.  1.
         -4   -1    0    0    0  501 -0.00000000000E+00 -0.00000000000E+00 -0.76907923468E+03  0.76907923468E+03  0.00000000000E+00 0. -1.
   -9000010    2    1    2    0  501  0.30235563326E+03 -0.48123133825E+03 -0.74478802666E+02  0.11497788211E+04  0.99671546370E+03 0.  0.
    9000010    2    1    2  502    0 -0.30235563326E+03  0.48123133825E+03  0.21330410127E+04  0.24469418583E+04  0.10557736339E+04 0.  0.
        -13    1    4    4    0    0 -0.16780726996E+03  0.27222998086E+03  0.21719348613E+04  0.21953517930E+04  0.10566000000E+00 0.  1.
          4    1    4    4  502    0 -0.13454836329E+03  0.20900135739E+03 -0.38893848620E+02  0.25159006522E+03  0.00000000000E+00 0.  1.
         13    1    3    3    0    0 -0.27577364347E+03 -0.60552615956E+02 -0.28827801075E+03  0.40351201268E+03  0.10566000000E+00 0. -1.
         -4    1    3    3    0  501  0.57812927673E+03 -0.42067872230E+03  0.21379920808E+03  0.74626680844E+03  0.00000000000E+00 0. -1.
<mgrwt>
<rscale>  0 0.11729100E+04</rscale>
<asrwt>0</asrwt>
<pdfrwt beam="1">  1        4 0.43502175E+00 0.11990248E+04</pdfrwt>
<pdfrwt beam="2">  1       -4 0.11831988E+00 0.11473640E+04</pdfrwt>
<totfact> 0.73136251E-02</totfact>
</mgrwt>
</event>
<event>
 8    1  0.3025584E-006  0.1464533E+04  0.7818608E-02  0.8440134E-01
          4   -1    0    0  502    0  0.00000000000E+00  0.00000000000E+00  0.22937451249E+04  0.22937451249E+04  0.00000000000E+00 0.  1.
         -4   -1    0    0    0  501 -0.00000000000E+00 -0.00000000000E+00 -0.22163441749E+04  0.22163441749E+04  0.00000000000E+00 0. -1.
   -9000010    2    1    2    0  501 -0.41421570030E+02 -0.10330517259E+04 -0.16896381251E+04  0.22360086481E+04  0.10372782008E+04 0.  0.
    9000010    2    1    2  502    0  0.41421570030E+02  0.10330517259E+04  0.17670390751E+04  0.22740806517E+04  0.99000207213E+03 0.  0.
        -13    1    4    4    0    0 -0.11980988306E+03  0.92318465129E+03  0.18429518944E+04  0.20647266174E+04  0.10566000000E+00 0.  1.
          4    1    4    4  502    0  0.16123145309E+03  0.10986707462E+03 -0.75912819300E+02  0.20935403432E+03  0.00000000000E+00 0.  1.
         13    1    3    3    0    0 -0.70472534487E+02 -0.54127592727E+03 -0.16543953265E+04  0.17421165045E+04  0.10566000000E+00 0. -1.
         -4    1    3    3    0  501  0.29050964457E+02 -0.49177579864E+03 -0.35242798529E+02  0.49389214360E+03  0.00000000000E+00 0. -1.
<mgrwt>
<rscale>  0 0.14478912E+04</rscale>
<asrwt>0</asrwt>
<pdfrwt beam="1">  1        4 0.35288386E+00 0.14314383E+04</pdfrwt>
<pdfrwt beam="2">  1       -4 0.34097603E+00 0.14645333E+04</pdfrwt>
<totfact> 0.29453465E-02</totfact>
</mgrwt>
</event>
<event>
 8    1  0.3025584E-006  0.1079413E+04  0.7818608E-02  0.8721846E-01
         -4   -1    0    0    0  501 -0.00000000000E+00  0.00000000000E+00  0.71633336919E+03  0.71633336919E+03  0.00000000000E+00 0. -1.
          4   -1    0    0  502    0  0.00000000000E+00 -0.00000000000E+00 -0.30184761574E+04  0.30184761574E+04  0.00000000000E+00 0.  1.
   -9000010    2    1    2    0  501 -0.37014731992E+03  0.94133148425E+02  0.13339303525E+03  0.10876240770E+04  0.10095852331E+04 0.  0.
    9000010    2    1    2  502    0  0.37014731992E+03 -0.94133148425E+02 -0.24355358234E+04  0.26471854496E+04  0.96430595202E+03 0.  0.
        -13    1    4    4    0    0  0.14636045606E+03  0.29205230777E+03 -0.23646683450E+03  0.40327721056E+03  0.10566000000E+00 0.  1.
          4    1    4    4  502    0  0.22378686387E+03 -0.38618545620E+03 -0.21990689889E+04  0.22439082390E+04  0.00000000000E+00 0.  1.
         13    1    3    3    0    0 -0.32856240206E+02  0.14086796290E+03 -0.41646390811E+03  0.44086904339E+03  0.10566000000E+00 0. -1.
         -4    1    3    3    0  501 -0.33729107972E+03 -0.46734814477E+02  0.54985694336E+03  0.64675503361E+03  0.00000000000E+00 0. -1.
<mgrwt>
<rscale>  0 0.10580892E+04</rscale>
<asrwt>0</asrwt>
<pdfrwt beam="2">  1        4 0.46438094E+00 0.10371866E+04</pdfrwt>
<pdfrwt beam="1">  1       -4 0.11020513E+00 0.10794130E+04</pdfrwt>
<totfact> 0.61238628E-02</totfact>
</mgrwt>
</event>
<event>
 8    1  0.3025584E-006  0.1643566E+04  0.7818608E-02  0.8333348E-01
         -4   -1    0    0    0  501 -0.00000000000E+00  0.00000000000E+00  0.29697483435E+04  0.29697483435E+04  0.00000000000E+00 0. -1.
          4   -1    0    0  502    0  0.00000000000E+00 -0.00000000000E+00 -0.11185565126E+04  0.11185565126E+04  0.00000000000E+00 0.  1.
   -9000010    2    1    2    0  501  0.74175174663E+03 -0.10733061228E+04  0.18163072696E+04  0.24443683751E+04  0.98680442276E+03 0.  0.
    9000010    2    1    2  502    0 -0.74175174663E+03  0.10733061228E+04  0.34884561289E+02  0.16439364810E+04  0.99956417205E+03 0.  0.
        -13    1    4    4    0    0  0.16121270754E+03  0.10365768957E+03 -0.22305269264E+03  0.29408666841E+03  0.10566000000E+00 0.  1.
          4    1    4    4  502    0 -0.90296445417E+03  0.96964843326E+03  0.25793725393E+03  0.13498498126E+04  0.00000000000E+00 0.  1.
         13    1    3    3    0    0 -0.13730137634E+03 -0.40662368904E+03  0.94719654464E+03  0.10398922049E+04  0.10566000000E+00 0. -1.
         -4    1    3    3    0  501  0.87905312298E+03 -0.66668243379E+03  0.86911072497E+03  0.14044761702E+04  0.00000000000E+00 0. -1.
<mgrwt>
<rscale>  0 0.16396974E+04</rscale>
<asrwt>0</asrwt>
<pdfrwt beam="2">  1        4 0.17208562E+00 0.16435663E+04</pdfrwt>
<pdfrwt beam="1">  1       -4 0.45688436E+00 0.16358376E+04</pdfrwt>
<totfact> 0.31447561E-02</totfact>
</mgrwt>
</event>
<event>
 8    1  0.3025584E-006  0.1215866E+04  0.7818608E-02  0.8597523E-01
          4   -1    0    0  502    0  0.00000000000E+00  0.00000000000E+00  0.29772918764E+04  0.29772918764E+04  0.00000000000E+00 0.  1.
         -4   -1    0    0    0  501 -0.00000000000E+00 -0.00000000000E+00 -0.57136909843E+03  0.57136909843E+03  0.00000000000E+00 0. -1.
   -9000010    2    1    2    0  501  0.63234727358E+02  0.67458656617E+03  0.55097112428E+03  0.13348780898E+04  0.10095863850E+04 0.  0.
    9000010    2    1    2  502    0 -0.63234727358E+02 -0.67458656617E+03  0.18549516537E+04  0.22137828850E+04  0.10004615728E+04 0.  0.
        -13    1    4    4    0    0 -0.45562966017E+02  0.17801915159E+03  0.13263979604E+02  0.18423557345E+03  0.10566000000E+00 0.  1.
          4    1    4    4  502    0 -0.17671761340E+02 -0.85260571776E+03  0.18416876741E+04  0.20295473116E+04  0.00000000000E+00 0.  1.
         13    1    3    3    0    0 -0.34739502795E+03  0.20380463444E+03 -0.11788437627E+03  0.41966221154E+03  0.10566000000E+00 0. -1.
         -4    1    3    3    0  501  0.41062975531E+03  0.47078193173E+03  0.66885550055E+03  0.91521587826E+03  0.00000000000E+00 0. -1.
<mgrwt>
<rscale>  0 0.12120772E+04</rscale>
<asrwt>0</asrwt>
<pdfrwt beam="1">  1        4 0.45804489E+00 0.12083001E+04</pdfrwt>
<pdfrwt beam="2">  1       -4 0.87902940E-01 0.12158661E+04</pdfrwt>
<totfact> 0.99812046E-02</totfact>
</mgrwt>
</event>
<event>
 8    1  0.3025584E-006  0.1087512E+04  0.7818608E-02  0.8700302E-01
          4   -1    0    0  502    0  0.00000000000E+00  0.00000000000E+00  0.13615855119E+04  0.13615855119E+04  0.00000000000E+00 0.  1.
         -4   -1    0    0    0  501 -0.00000000000E+00 -0.00000000000E+00 -0.14730609712E+04  0.14730609712E+04  0.00000000000E+00 0. -1.
   -9000010    2    1    2    0  501 -0.43282897763E+03 -0.10221067452E+02 -0.96916201633E+03  0.14566937214E+04  0.99761525150E+03 0.  0.
    9000010    2    1    2  502    0  0.43282897763E+03  0.10221067452E+02  0.85768655702E+03  0.13779527617E+04  0.98776626251E+03 0.  0.
        -13    1    4    4    0    0  0.36164403593E+03 -0.16504443029E+03 -0.93305676778E+02  0.40832833991E+03  0.10566000000E+00 0.  1.
          4    1    4    4  502    0  0.71184941699E+02  0.17526549775E+03  0.95099223380E+03  0.96962442181E+03  0.00000000000E+00 0.  1.
         13    1    3    3    0    0 -0.25001093339E+02  0.26055051092E+03 -0.92939495436E+03  0.96554990330E+03  0.10566000000E+00 0. -1.
         -4    1    3    3    0  501 -0.40782788429E+03 -0.27077157837E+03 -0.39767061971E+02  0.49114381812E+03  0.00000000000E+00 0. -1.
<mgrwt>
<rscale>  0 0.10829884E+04</rscale>
<asrwt>0</asrwt>
<pdfrwt beam="1">  1        4 0.20947469E+00 0.10784839E+04</pdfrwt>
<pdfrwt beam="2">  1       -4 0.22662476E+00 0.10875116E+04</pdfrwt>
<totfact> 0.14607596E-01</totfact>
</mgrwt>
</event>
<event>
 8    1  0.3025584E-006  0.1346518E+04  0.7818608E-02  0.8511731E-01
         -4   -1    0    0    0  501 -0.00000000000E+00  0.00000000000E+00  0.12951414969E+04  0.12951414969E+04  0.00000000000E+00 0. -1.
          4   -1    0    0  502    0  0.00000000000E+00 -0.00000000000E+00 -0.32184619129E+04  0.32184619129E+04  0.00000000000E+00 0.  1.
   -9000010    2    1    2    0  501  0.82856621042E+03 -0.33434990469E+03  0.74264560640E+03  0.15377361256E+04  0.10073718635E+04 0.  0.
    9000010    2    1    2  502    0 -0.82856621042E+03  0.33434990469E+03 -0.26659660224E+04  0.29758672843E+04  0.97473044338E+03 0.  0.
        -13    1    4    4    0    0 -0.38496923108E+03  0.28107902787E+01 -0.17288456880E+03  0.42201693653E+03  0.10566000000E+00 0.  1.
          4    1    4    4  502    0 -0.44359697934E+03  0.33153911441E+03 -0.24930814536E+04  0.25538503477E+04  0.00000000000E+00 0.  1.
         13    1    3    3    0    0 -0.12487314228E+03  0.20608574019E+03  0.66437573059E+02  0.24995718883E+03  0.10566000000E+00 0. -1.
         -4    1    3    3    0  501  0.95343935271E+03 -0.54043564488E+03  0.67620803334E+03  0.12877789367E+04  0.00000000000E+00 0. -1.
<mgrwt>
<rscale>  0 0.13343413E+04</rscale>
<asrwt>0</asrwt>
<pdfrwt beam="2">  1        4 0.49514799E+00 0.13222750E+04</pdfrwt>
<pdfrwt beam="1">  1       -4 0.19925254E+00 0.13465177E+04</pdfrwt>
<totfact> 0.17463900E-02</totfact>
</mgrwt>
</event>
<event>
 8    1  0.3025584E-006  0.1119780E+04  0.7818608E-02  0.8671358E-01
          4   -1    0    0  502    0  0.00000000000E+00  0.00000000000E+00  0.31049055924E+03  0.31049055924E+03  0.00000000000E+00 0.  1.
         -4   -1    0    0    0  501 -0.00000000000E+00 -0.00000000000E+00 -0.59497949411E+04  0.59497949411E+04  0.00000000000E+00 0. -1.
   -9000010    2    1    2    0  501 -0.57219122673E+02 -0.50029682502E+03 -0.45973538323E+04  0.47307204782E+04  0.99523014518E+03 0.  0.
    9000010    2    1    2  502    0  0.57219122673E+02  0.50029682502E+03 -0.10419505495E+04  0.15295650221E+04  0.10001686199E+04 0.  0.
        -13    1    4    4    0    0 -0.48845281356E+01 -0.19568702680E+03  0.77010246209E+02  0.21035175363E+03  0.10566000000E+00 0.  1.
          4    1    4    4  502    0  0.62103650808E+02  0.69598385182E+03 -0.11189607957E+04  0.13192132685E+04  0.00000000000E+00 0.  1.
         13    1    3    3    0    0  0.22574608946E+03 -0.14983818005E+03 -0.27891005215E+03  0.38884907800E+03  0.10566000000E+00 0. -1.
         -4    1    3    3    0  501 -0.28296521213E+03 -0.35045864498E+03 -0.43184437802E+04  0.43418714002E+04  0.00000000000E+00 0. -1.
<mgrwt>
<rscale>  0 0.11175739E+04</rscale>
<asrwt>0</asrwt>
<pdfrwt beam="1">  1        4 0.47767779E-01 0.11197804E+04</pdfrwt>
<pdfrwt beam="2">  1       -4 0.91535306E+00 0.11153717E+04</pdfrwt>
<totfact> 0.15842443E-04</totfact>
</mgrwt>
</event>
<event>
 8    1  0.3025584E-006  0.1108812E+04  0.7818608E-02  0.8687894E-01
         -4   -1    0    0    0  501 -0.00000000000E+00  0.00000000000E+00  0.16023541391E+04  0.16023541391E+04  0.00000000000E+00 0. -1.
          4   -1    0    0  502    0  0.00000000000E+00 -0.00000000000E+00 -0.93699564464E+03  0.93699564464E+03  0.00000000000E+00 0.  1.
   -9000010    2    1    2    0  501  0.18800543499E+03  0.40656009044E+03  0.89412397680E+03  0.14071843305E+04  0.98998631470E+03 0.  0.
    9000010    2    1    2  502    0 -0.18800543499E+03 -0.40656009044E+03 -0.22876548232E+03  0.11321654533E+04  0.10143114990E+04 0.  0.
        -13    1    4    4    0    0  0.29443675688E+03 -0.53126631832E+03 -0.83433612724E+02  0.61310527944E+03  0.10566000000E+00 0.  1.
          4    1    4    4  502    0 -0.48244219187E+03  0.12470622788E+03 -0.14533186960E+03  0.51906017386E+03  0.00000000000E+00 0.  1.
         13    1    3    3    0    0 -0.40071741708E+03  0.26439091474E+03  0.42354676905E+03  0.64021002873E+03  0.10566000000E+00 0. -1.
         -4    1    3    3    0  501  0.58872285207E+03  0.14216917570E+03  0.47057720776E+03  0.76697430174E+03  0.00000000000E+00 0. -1.
<mgrwt>
<rscale>  0 0.10976525E+04</rscale>
<asrwt>0</asrwt>
<pdfrwt beam="2">  1        4 0.14415318E+00 0.11088124E+04</pdfrwt>
<pdfrwt beam="1">  1       -4 0.24651602E+00 0.10866048E+04</pdfrwt>
<totfact> 0.21913738E-01</totfact>
</mgrwt>
</event>
<event>
 8    1  0.3025584E-006  0.1121431E+04  0.7818608E-02  0.8679968E-01
          4   -1    0    0  502    0  0.00000000000E+00  0.00000000000E+00  0.11988365082E+04  0.11988365082E+04  0.00000000000E+00 0.  1.
         -4   -1    0    0    0  501 -0.00000000000E+00 -0.00000000000E+00 -0.14985762666E+04  0.14985762666E+04  0.00000000000E+00 0. -1.
   -9000010    2    1    2    0  501  0.18968019382E+03 -0.34026111282E+03 -0.91120793110E+03  0.14449596109E+04  0.10515950659E+04 0.  0.
    9000010    2    1    2  502    0 -0.18968019382E+03  0.34026111282E+03  0.61146817268E+03  0.12524531638E+04  0.10212685252E+04 0.  0.
        -13    1    4    4    0    0  0.24341152973E+03  0.27136558259E+03 -0.13331542172E+03  0.38815134297E+03  0.10566000000E+00 0.  1.
          4    1    4    4  502    0 -0.43309172355E+03  0.68895530233E+02  0.74478359440E+03  0.86430182088E+03  0.00000000000E+00 0.  1.
         13    1    3    3    0    0  0.37458313190E+03 -0.57151630095E+03 -0.92325505107E+03  0.11486267041E+04  0.10566000000E+00 0. -1.
         -4    1    3    3    0  501 -0.18490293808E+03  0.23125518813E+03  0.12047119972E+02  0.29633290679E+03  0.00000000000E+00 0. -1.
<mgrwt>
<rscale>  0 0.11071468E+04</rscale>
<asrwt>0</asrwt>
<pdfrwt beam="1">  1        4 0.18443639E+00 0.10930442E+04</pdfrwt>
<pdfrwt beam="2">  1       -4 0.23055020E+00 0.11214314E+04</pdfrwt>
<totfact> 0.16833901E-01</totfact>
</mgrwt>
</event>
<event>
 8    1  0.3025584E-006  0.1135820E+04  0.7818608E-02  0.8657155E-01
          4   -1    0    0  502    0  0.00000000000E+00  0.00000000000E+00  0.16290201503E+04  0.16290201503E+04  0.00000000000E+00 0.  1.
         -4   -1    0    0    0  501 -0.00000000000E+00 -0.00000000000E+00 -0.99391032924E+03  0.99391032924E+03  0.00000000000E+00 0. -1.
   -9000010    2    1    2    0  501  0.52966898353E+03 -0.11802686973E+03 -0.27505329595E+03  0.11686494894E+04  0.99780145288E+03 0.  0.
    9000010    2    1    2  502    0 -0.52966898353E+03  0.11802686973E+03  0.91016311705E+03  0.14542809902E+04  0.99602044388E+03 0.  0.
        -13    1    4    4    0    0 -0.80981961932E+03  0.19909839281E+03  0.59215527279E+03  0.10227882792E+04  0.10566000000E+00 0.  1.
          4    1    4    4  502    0  0.28015063579E+03 -0.81071523077E+02  0.31800784426E+03  0.43149271095E+03  0.00000000000E+00 0.  1.
         13    1    3    3    0    0  0.10082285695E+03 -0.41237652894E+03  0.19537823610E+03  0.46732463706E+03  0.10566000000E+00 0. -1.
         -4    1    3    3    0  501  0.42884612657E+03  0.29434965920E+03 -0.47043153206E+03  0.70132485234E+03  0.00000000000E+00 0. -1.
<mgrwt>
<rscale>  0 0.11350377E+04</rscale>
<asrwt>0</asrwt>
<pdfrwt beam="1">  1        4 0.25061849E+00 0.11342558E+04</pdfrwt>
<pdfrwt beam="2">  1       -4 0.15290928E+00 0.11358201E+04</pdfrwt>
<totfact> 0.19595256E-01</totfact>
</mgrwt>
</event>
<event>
 8    1  0.3025584E-006  0.1229187E+04  0.7818608E-02  0.8585693E-01
         -4   -1    0    0    0  501 -0.00000000000E+00  0.00000000000E+00  0.22815176376E+04  0.22815176376E+04  0.00000000000E+00 0. -1.
          4   -1    0    0  502    0  0.00000000000E+00 -0.00000000000E+00 -0.66107901632E+03  0.66107901632E+03  0.00000000000E+00 0.  1.
   -9000010    2    1    2    0  501 -0.17999925069E+03  0.69522982145E+03  0.81446373666E+03  0.14727344089E+04  0.99491267249E+03 0.  0.
    9000010    2    1    2  502    0  0.17999925069E+03 -0.69522982145E+03  0.80597488457E+03  0.14698622450E+04  0.99757469386E+03 0.  0.
        -13    1    4    4    0    0  0.26267574626E+03 -0.93265413400E+03  0.70797504122E+03  0.12000295628E+04  0.10566000000E+00 0.  1.
          4    1    4    4  502    0 -0.82676495566E+02  0.23742431255E+03  0.97999843346E+02  0.26983268224E+03  0.00000000000E+00 0.  1.
         13    1    3    3    0    0  0.21457840922E+03  0.41137637686E+03 -0.64386245570E+02  0.46842290392E+03  0.10566000000E+00 0. -1.
         -4    1    3    3    0  501 -0.39457765992E+03  0.28385344459E+03  0.87884998223E+03  0.10043115050E+04  0.00000000000E+00 0. -1.
<mgrwt>
<rscale>  0 0.12281063E+04</rscale>
<asrwt>0</asrwt>
<pdfrwt beam="2">  1        4 0.10170446E+00 0.12291865E+04</pdfrwt>
<pdfrwt beam="1">  1       -4 0.35100271E+00 0.12270271E+04</pdfrwt>
<totfact> 0.20471378E-01</totfact>
</mgrwt>
</event>
<event>
 8    1  0.3025584E-006  0.1025369E+04  0.7818608E-02  0.8767041E-01
          4   -1    0    0  502    0  0.00000000000E+00  0.00000000000E+00  0.19491204634E+04  0.19491204634E+04  0.00000000000E+00 0.  1.
         -4   -1    0    0    0  501 -0.00000000000E+00 -0.00000000000E+00 -0.52167403501E+03  0.52167403501E+03  0.00000000000E+00 0. -1.
   -9000010    2    1    2    0  501  0.97458804040E+02  0.19195118005E+03  0.68052118811E+03  0.12022208114E+04  0.96741010847E+03 0.  0.
    9000010    2    1    2  502    0 -0.97458804040E+02 -0.19195118005E+03  0.74692524031E+03  0.12685736870E+04  0.10025160402E+04 0.  0.
        -13    1    4    4    0    0  0.23304586627E+03  0.32425146669E+03  0.39555458436E+03  0.56206123315E+03  0.10566000000E+00 0.  1.
          4    1    4    4  502    0 -0.33050467031E+03 -0.51620264674E+03  0.35137065596E+03  0.70651245387E+03  0.00000000000E+00 0.  1.
         13    1    3    3    0    0  0.23820841791E+03 -0.32484811145E+03  0.48861520092E+03  0.63325695544E+03  0.10566000000E+00 0. -1.
         -4    1    3    3    0  501 -0.14074961387E+03  0.51679929151E+03  0.19190598719E+03  0.56896385599E+03  0.00000000000E+00 0. -1.
<mgrwt>
<rscale>  0 0.10080753E+04</rscale>
<asrwt>0</asrwt>
<pdfrwt beam="1">  1        4 0.29986468E+00 0.10253691E+04</pdfrwt>
<pdfrwt beam="2">  1       -4 0.80257545E-01 0.99107305E+03</pdfrwt>
<totfact> 0.46672953E-01</totfact>
</mgrwt>
</event>
<event>
 8    1  0.3025584E-006  0.1068503E+04  0.7818608E-02  0.8720209E-01
          4   -1    0    0  502    0  0.00000000000E+00  0.00000000000E+00  0.22874427793E+04  0.22874427793E+04  0.00000000000E+00 0.  1.
         -4   -1    0    0    0  501 -0.00000000000E+00 -0.00000000000E+00 -0.54134085189E+03  0.54134085189E+03  0.00000000000E+00 0. -1.
   -9000010    2    1    2    0  501 -0.35706050554E+03  0.16154757740E+03  0.44894642094E+03  0.11589875542E+04  0.99403693967E+03 0.  0.
    9000010    2    1    2  502    0  0.35706050554E+03 -0.16154757740E+03  0.12971555065E+04  0.16697960770E+04  0.97571343464E+03 0.  0.
        -13    1    4    4    0    0 -0.25761449573E+03 -0.26058879108E+03  0.77484000797E+03  0.85711655892E+03  0.10566000000E+00 0.  1.
          4    1    4    4  502    0  0.61467500127E+03  0.99041213687E+02  0.52231549850E+03  0.81267951812E+03  0.00000000000E+00 0.  1.
         13    1    3    3    0    0 -0.39313721728E+03 -0.14371680551E+03 -0.18254570256E+03  0.45665559942E+03  0.10566000000E+00 0. -1.
         -4    1    3    3    0  501  0.36076711735E+02  0.30526438291E+03  0.63149212350E+03  0.70233195473E+03  0.00000000000E+00 0. -1.
<mgrwt>
<rscale>  0 0.10599566E+04</rscale>
<asrwt>0</asrwt>
<pdfrwt beam="1">  1        4 0.35191427E+00 0.10514783E+04</pdfrwt>
<pdfrwt beam="2">  1       -4 0.83283210E-01 0.10685033E+04</pdfrwt>
<totfact> 0.30555243E-01</totfact>
</mgrwt>
</event>
<event>
 8    1  0.3025584E-006  0.1035810E+04  0.7818608E-02  0.8754569E-01
         -4   -1    0    0    0  501 -0.00000000000E+00  0.00000000000E+00  0.12115641523E+04  0.12115641523E+04  0.00000000000E+00 0. -1.
          4   -1    0    0  502    0  0.00000000000E+00 -0.00000000000E+00 -0.95620686283E+03  0.95620686283E+03  0.00000000000E+00 0.  1.
   -9000010    2    1    2    0  501  0.53944093355E+01  0.31319997786E+03  0.46705644913E+03  0.11105483275E+04  0.95762859980E+03 0.  0.
    9000010    2    1    2  502    0 -0.53944093355E+01 -0.31319997786E+03 -0.21169915965E+03  0.10572226877E+04  0.98730945068E+03 0.  0.
        -13    1    4    4    0    0  0.48097274304E+03 -0.11407690110E+03 -0.10356695816E+02  0.49442450508E+03  0.10566000000E+00 0.  1.
          4    1    4    4  502    0 -0.48636715238E+03 -0.19912307676E+03 -0.20134246383E+03  0.56279818261E+03  0.00000000000E+00 0.  1.
         13    1    3    3    0    0  0.65561975214E+01 -0.30103671878E+03 -0.52980687558E+02  0.30573363276E+03  0.10566000000E+00 0. -1.
         -4    1    3    3    0  501 -0.11617881858E+01  0.61423669664E+03  0.52003713669E+03  0.80481469469E+03  0.00000000000E+00 0. -1.
<mgrwt>
<rscale>  0 0.10215872E+04</rscale>
<asrwt>0</asrwt>
<pdfrwt beam="2">  1        4 0.14710875E+00 0.10358104E+04</pdfrwt>
<pdfrwt beam="1">  1       -4 0.18639449E+00 0.10075594E+04</pdfrwt>
<totfact> 0.30585091E-01</totfact>
</mgrwt>
</event>
<event>
 8    1  0.3025584E-006  0.1092094E+04  0.7818608E-02  0.8726425E-01
         -4   -1    0    0    0  501 -0.00000000000E+00  0.00000000000E+00  0.36290160352E+04  0.36290160352E+04  0.00000000000E+00 0. -1.
          4   -1    0    0  502    0  0.00000000000E+00 -0.00000000000E+00 -0.12750646014E+04  0.12750646014E+04  0.00000000000E+00 0.  1.
   -9000010    2    1    2    0  501  0.15301135298E+03 -0.84213614775E+02  0.33040999527E+04  0.34565131651E+04  0.99995117700E+03 0.  0.
    9000010    2    1    2  502    0 -0.15301135298E+03  0.84213614775E+02 -0.95014851879E+03  0.14475674715E+04  0.10780375549E+04 0.  0.
        -13    1    4    4    0    0  0.27601898046E+03  0.42172830125E+03 -0.65665982871E+03  0.82779428571E+03  0.10566000000E+00 0.  1.
          4    1    4    4  502    0 -0.42903033344E+03 -0.33751468647E+03 -0.29348869007E+03  0.61977318577E+03  0.00000000000E+00 0.  1.
         13    1    3    3    0    0 -0.20606527548E+03  0.37060428939E+03  0.16590889793E+04  0.17124212944E+04  0.10566000000E+00 0. -1.
         -4    1    3    3    0  501  0.35907662846E+03 -0.45481790417E+03  0.16450109734E+04  0.17440918707E+04  0.00000000000E+00 0. -1.
<mgrwt>
<rscale>  0 0.10528880E+04</rscale>
<asrwt>0</asrwt>
<pdfrwt beam="2">  1        4 0.19616379E+00 0.10920940E+04</pdfrwt>
<pdfrwt beam="1">  1       -4 0.55831016E+00 0.10150895E+04</pdfrwt>
<totfact> 0.91742338E-03</totfact>
</mgrwt>
</event>
<event>
 8    1  0.3025584E-006  0.1105501E+04  0.7818608E-02  0.8697052E-01
          4   -1    0    0  502    0  0.00000000000E+00  0.00000000000E+00  0.10436362403E+04  0.10436362403E+04  0.00000000000E+00 0.  1.
         -4   -1    0    0    0  501 -0.00000000000E+00 -0.00000000000E+00 -0.14966462790E+04  0.14966462790E+04  0.00000000000E+00 0. -1.
   -9000010    2    1    2    0  501 -0.27551547953E+03 -0.38053054532E+03 -0.85037905609E+03  0.13655340104E+04  0.95959695664E+03 0.  0.
    9000010    2    1    2  502    0  0.27551547953E+03  0.38053054532E+03  0.39736901736E+03  0.11747485089E+04  0.10007095722E+04 0.  0.
        -13    1    4    4    0    0 -0.17067160103E+03  0.10798345977E+02 -0.25192120663E+03  0.30448268455E+03  0.10566000000E+00 0.  1.
          4    1    4    4  502    0  0.44618708056E+03  0.36973219934E+03  0.64929022399E+03  0.87026582436E+03  0.00000000000E+00 0.  1.
         13    1    3    3    0    0 -0.55323263736E+02  0.26038297243E+03 -0.57576800035E+03  0.63432543480E+03  0.10566000000E+00 0. -1.
         -4    1    3    3    0  501 -0.22019221579E+03 -0.64091351775E+03 -0.27461105574E+03  0.73120857562E+03  0.00000000000E+00 0. -1.
<mgrwt>
<rscale>  0 0.10868064E+04</rscale>
<asrwt>0</asrwt>
<pdfrwt beam="1">  1        4 0.16055942E+00 0.11055008E+04</pdfrwt>
<pdfrwt beam="2">  1       -4 0.23025327E+00 0.10684281E+04</pdfrwt>
<totfact> 0.20471990E-01</totfact>
</mgrwt>
</event>
<event>
 8    1  0.3025584E-006  0.1082599E+04  0.7818608E-02  0.8727925E-01
          4   -1    0    0  502    0  0.00000000000E+00  0.00000000000E+00  0.25330272241E+04  0.25330272241E+04  0.00000000000E+00 0.  1.
         -4   -1    0    0    0  501 -0.00000000000E+00 -0.00000000000E+00 -0.60658002854E+03  0.60658002854E+03  0.00000000000E+00 0. -1.
   -9000010    2    1    2    0  501  0.19166615583E+03 -0.37053239076E+03  0.15292939062E+03  0.10933469568E+04  0.99899449522E+03 0.  0.
    9000010    2    1    2  502    0 -0.19166615583E+03  0.37053239076E+03  0.17735178050E+04  0.20462602959E+04  0.93155012005E+03 0.  0.
        -13    1    4    4    0    0  0.29835383173E+03  0.43211630193E+03  0.97302193222E+03  0.11056722837E+04  0.10566000000E+00 0.  1.
          4    1    4    4  502    0 -0.49001998756E+03 -0.61583911174E+02  0.80049587274E+03  0.94058801215E+03  0.00000000000E+00 0.  1.
         13    1    3    3    0    0 -0.38344436869E+03 -0.14663583365E+03  0.23135285705E+03  0.47122797797E+03  0.10566000000E+00 0. -1.
         -4    1    3    3    0  501  0.57511052453E+03 -0.22389655711E+03 -0.78423466427E+02  0.62211897881E+03  0.00000000000E+00 0. -1.
<mgrwt>
<rscale>  0 0.10511907E+04</rscale>
<asrwt>0</asrwt>
<pdfrwt beam="1">  1        4 0.38969649E+00 0.10206938E+04</pdfrwt>
<pdfrwt beam="2">  1       -4 0.93320006E-01 0.10825988E+04</pdfrwt>
<totfact> 0.17675906E-01</totfact>
</mgrwt>
</event>
<event>
 8    1  0.3025584E-006  0.1230519E+04  0.7818608E-02  0.8588829E-01
          4   -1    0    0  502    0  0.00000000000E+00  0.00000000000E+00  0.61379637098E+03  0.61379637098E+03  0.00000000000E+00 0.  1.
         -4   -1    0    0    0  501 -0.00000000000E+00 -0.00000000000E+00 -0.48270675999E+04  0.48270675999E+04  0.00000000000E+00 0. -1.
   -9000010    2    1    2    0  501 -0.48332905823E+03 -0.51821680868E+03 -0.40253874499E+04  0.42092662415E+04  0.10059933056E+04 0.  0.
    9000010    2    1    2  502    0  0.48332905823E+03  0.51821680868E+03 -0.18788377904E+03  0.12315977294E+04  0.98963478781E+03 0.  0.
        -13    1    4    4    0    0 -0.20074814159E+03  0.95116743416E+02  0.23456618278E+03  0.32306085572E+03  0.10566000000E+00 0.  1.
          4    1    4    4  502    0  0.68407719982E+03  0.42310006526E+03 -0.42244996182E+03  0.90853687365E+03  0.00000000000E+00 0.  1.
         13    1    3    3    0    0 -0.78374100967E+03 -0.27312238372E+03 -0.24455095373E+04  0.25825109322E+04  0.10566000000E+00 0. -1.
         -4    1    3    3    0  501  0.30041195144E+03 -0.24509442496E+03 -0.15798779126E+04  0.16267553094E+04  0.00000000000E+00 0. -1.
<mgrwt>
<rscale>  0 0.12238327E+04</rscale>
<asrwt>0</asrwt>
<pdfrwt beam="1">  1        4 0.94430208E-01 0.12171823E+04</pdfrwt>
<pdfrwt beam="2">  1       -4 0.74262581E+00 0.12305195E+04</pdfrwt>
<totfact> 0.31107722E-03</totfact>
</mgrwt>
</event>
<event>
 8    1  0.3025584E-006  0.1108696E+04  0.7818608E-02  0.8684551E-01
         -4   -1    0    0    0  501 -0.00000000000E+00  0.00000000000E+00  0.24235180079E+04  0.24235180079E+04  0.00000000000E+00 0. -1.
          4   -1    0    0  502    0  0.00000000000E+00 -0.00000000000E+00 -0.18612844963E+04  0.18612844963E+04  0.00000000000E+00 0.  1.
   -9000010    2    1    2    0  501 -0.37802762475E+02 -0.48420826773E+03  0.21132411198E+04  0.23864186257E+04  0.99665396755E+03 0.  0.
    9000010    2    1    2  502    0  0.37802762475E+02  0.48420826773E+03 -0.15510076082E+04  0.18983838785E+04  0.98099442114E+03 0.  0.
        -13    1    4    4    0    0 -0.30460716364E+02  0.77330841716E+03 -0.92926868139E+03  0.12093279359E+04  0.10566000000E+00 0.  1.
          4    1    4    4  502    0  0.68263478838E+02 -0.28910014943E+03 -0.62173892678E+03  0.68905594259E+03  0.00000000000E+00 0.  1.
         13    1    3    3    0    0 -0.40866687777E+03  0.33548763726E+02  0.12369146980E+04  0.13031086362E+04  0.10566000000E+00 0. -1.
         -4    1    3    3    0  501  0.37086411529E+03 -0.51775703146E+03  0.87632642185E+03  0.10833099895E+04  0.00000000000E+00 0. -1.
<mgrwt>
<rscale>  0 0.11016454E+04</rscale>
<asrwt>0</asrwt>
<pdfrwt beam="2">  1        4 0.28635146E+00 0.10946400E+04</pdfrwt>
<pdfrwt beam="1">  1       -4 0.37284892E+00 0.11086956E+04</pdfrwt>
<totfact> 0.37058819E-02</totfact>
</mgrwt>
</event>
<event>
 8    1  0.3025584E-006  0.1109348E+04  0.7818608E-02  0.8693602E-01
         -4   -1    0    0    0  501 -0.00000000000E+00  0.00000000000E+00  0.20105519971E+04  0.20105519971E+04  0.00000000000E+00 0. -1.
          4   -1    0    0  502    0  0.00000000000E+00 -0.00000000000E+00 -0.10271783426E+04  0.10271783426E+04  0.00000000000E+00 0.  1.
   -9000010    2    1    2    0  501  0.39271503965E+03 -0.17455429167E+02  0.14754124881E+04  0.18241590682E+04  0.99809042766E+03 0.  0.
    9000010    2    1    2  502    0 -0.39271503965E+03  0.17455429167E+02 -0.49203883356E+03  0.12135712716E+04  0.10373635925E+04 0.  0.
        -13    1    4    4    0    0 -0.24483003411E+03  0.51027157038E+03 -0.39447490291E+03  0.68987627973E+03  0.10566000000E+00 0.  1.
          4    1    4    4  502    0 -0.14788500554E+03 -0.49281614121E+03 -0.97563930648E+02  0.52369499183E+03  0.00000000000E+00 0.  1.
         13    1    3    3    0    0  0.39650903129E+03  0.39003287945E+02  0.16203250104E+04  0.16685903688E+04  0.10566000000E+00 0. -1.
         -4    1    3    3    0  501 -0.37939916438E+01 -0.56458717112E+02 -0.14491252232E+03  0.15556869941E+03  0.00000000000E+00 0. -1.
<mgrwt>
<rscale>  0 0.10908770E+04</rscale>
<asrwt>0</asrwt>
<pdfrwt beam="2">  1        4 0.15802744E+00 0.11093480E+04</pdfrwt>
<pdfrwt beam="1">  1       -4 0.30931569E+00 0.10727135E+04</pdfrwt>
<totfact> 0.13315246E-01</totfact>
</mgrwt>
</event>
<event>
 8    1  0.3025584E-006  0.1189015E+04  0.7818608E-02  0.8615541E-01
         -4   -1    0    0    0  501 -0.00000000000E+00  0.00000000000E+00  0.21514081164E+04  0.21514081164E+04  0.00000000000E+00 0. -1.
          4   -1    0    0  502    0  0.00000000000E+00 -0.00000000000E+00 -0.11431387661E+04  0.11431387661E+04  0.00000000000E+00 0.  1.
   -9000010    2    1    2    0  501  0.42901524135E+03 -0.46722494980E+03  0.15790635126E+04  0.19756217994E+04  0.10036367304E+04 0.  0.
    9000010    2    1    2  502    0 -0.42901524135E+03  0.46722494980E+03 -0.57079416230E+03  0.13189250831E+04  0.10056859192E+04 0.  0.
        -13    1    4    4    0    0 -0.41693184669E+03  0.42377075072E+03  0.13669519647E+03  0.60999950971E+03  0.10566000000E+00 0.  1.
          4    1    4    4  502    0 -0.12083394666E+02  0.43454199081E+02 -0.70748935877E+03  0.70892557340E+03  0.00000000000E+00 0.  1.
         13    1    3    3    0    0 -0.16271842189E+03 -0.56166301197E+03  0.85355235776E+03  0.10346469265E+04  0.10566000000E+00 0. -1.
         -4    1    3    3    0  501  0.59173366324E+03  0.94438062167E+02  0.72551115481E+03  0.94097487297E+03  0.00000000000E+00 0. -1.
<mgrwt>
<rscale>  0 0.11881486E+04</rscale>
<asrwt>0</asrwt>
<pdfrwt beam="2">  1        4 0.17586750E+00 0.11890153E+04</pdfrwt>
<pdfrwt beam="1">  1       -4 0.33098587E+00 0.11872826E+04</pdfrwt>
<totfact> 0.98839728E-02</totfact>
</mgrwt>
</event>
<event>
 8    1  0.3025584E-006  0.1106786E+04  0.7818608E-02  0.8685462E-01
          4   -1    0    0  502    0  0.00000000000E+00  0.00000000000E+00  0.15627776669E+04  0.15627776669E+04  0.00000000000E+00 0.  1.
         -4   -1    0    0    0  501 -0.00000000000E+00 -0.00000000000E+00 -0.14312441170E+04  0.14312441170E+04  0.00000000000E+00 0. -1.
   -9000010    2    1    2    0  501  0.34718592247E+03  0.33497295918E+03 -0.94765036354E+03  0.14570577055E+04  0.99610792465E+03 0.  0.
    9000010    2    1    2  502    0 -0.34718592247E+03 -0.33497295918E+03  0.10791839134E+04  0.15369640784E+04  0.98228087188E+03 0.  0.
        -13    1    4    4    0    0 -0.35148376397E+03 -0.50037447648E+03  0.11899380903E+04  0.13378595303E+04  0.10566000000E+00 0.  1.
          4    1    4    4  502    0  0.42978415013E+01  0.16540151731E+03 -0.11075417688E+03  0.19910454808E+03  0.00000000000E+00 0.  1.
         13    1    3    3    0    0  0.59854328071E+03  0.24482136356E+03 -0.22181877821E+03  0.68366303138E+03  0.10566000000E+00 0. -1.
         -4    1    3    3    0  501 -0.25135735824E+03  0.90151595621E+02 -0.72583158532E+03  0.77339467414E+03  0.00000000000E+00 0. -1.
<mgrwt>
<rscale>  0 0.11005549E+04</rscale>
<asrwt>0</asrwt>
<pdfrwt beam="1">  1        4 0.24042733E+00 0.10943586E+04</pdfrwt>
<pdfrwt beam="2">  1       -4 0.22019140E+00 0.11067863E+04</pdfrwt>
<totfact> 0.12687104E-01</totfact>
</mgrwt>
</event>
<event>
 8    1  0.3025584E-006  0.1073057E+04  0.7818608E-02  0.8710466E-01
         -4   -1    0    0    0  501 -0.00000000000E+00  0.00000000000E+00  0.12823349680E+04  0.12823349680E+04  0.00000000000E+00 0. -1.
          4   -1    0    0  502    0  0.00000000000E+00 -0.00000000000E+00 -0.12720562206E+04  0.12720562206E+04  0.00000000000E+00 0.  1.
   -9000010    2    1    2    0  501  0.37191050709E+03 -0.11566189193E+03  0.70072922540E+03  0.12815902804E+04  0.99987854309E+03 0.  0.
    9000010    2    1    2  502    0 -0.37191050709E+03  0.11566189193E+03 -0.69045047800E+03  0.12728009081E+04  0.99579374906E+03 0.  0.
        -13    1    4    4    0    0 -0.35415092876E+03 -0.40947056475E+03 -0.39334772586E+03  0.66918716988E+03  0.10566000000E+00 0.  1.
          4    1    4    4  502    0 -0.17759578334E+02  0.52513245668E+03 -0.29710275215E+03  0.60361373826E+03  0.00000000000E+00 0.  1.
         13    1    3    3    0    0  0.63248549024E+03  0.19091288164E+03  0.34906232616E+03  0.74721492387E+03  0.10566000000E+00 0. -1.
         -4    1    3    3    0  501 -0.26057498315E+03 -0.30657477357E+03  0.35166689923E+03  0.53437535651E+03  0.00000000000E+00 0. -1.
<mgrwt>
<rscale>  0 0.10711531E+04</rscale>
<asrwt>0</asrwt>
<pdfrwt beam="2">  1        4 0.19570096E+00 0.10692522E+04</pdfrwt>
<pdfrwt beam="1">  1       -4 0.19728230E+00 0.10730574E+04</pdfrwt>
<totfact> 0.19068333E-01</totfact>
</mgrwt>
</event>
<event>
 8    1  0.3025584E-006  0.1227370E+04  0.7818608E-02  0.8591214E-01
          4   -1    0    0  502    0  0.00000000000E+00  0.00000000000E+00  0.55771552595E+03  0.55771552595E+03  0.00000000000E+00 0.  1.
         -4   -1    0    0    0  501 -0.00000000000E+00 -0.00000000000E+00 -0.26714646759E+04  0.26714646759E+04  0.00000000000E+00 0. -1.
   -9000010    2    1    2    0  501 -0.58193346670E+03  0.38802713078E+03 -0.10574526822E+04  0.16098595862E+04  0.99208371532E+03 0.  0.
    9000010    2    1    2  502    0  0.58193346670E+03 -0.38802713078E+03 -0.10562964677E+04  0.16193206156E+04  0.10085759340E+04 0.  0.
        -13    1    4    4    0    0 -0.14989206178E+03  0.20680069087E+03 -0.38384659336E+03  0.46105571716E+03  0.10566000000E+00 0.  1.
          4    1    4    4  502    0  0.73182552848E+03 -0.59482782165E+03 -0.67244987429E+03  0.11582648984E+04  0.00000000000E+00 0.  1.
         13    1    3    3    0    0 -0.57104112099E+03  0.21339144245E+03 -0.77625852638E+02  0.61453206079E+03  0.10566000000E+00 0. -1.
         -4    1    3    3    0  501 -0.10892345714E+02  0.17463568832E+03 -0.97982682960E+03  0.99532752541E+03  0.00000000000E+00 0. -1.
<mgrwt>
<rscale>  0 0.12205933E+04</rscale>
<asrwt>0</asrwt>
<pdfrwt beam="1">  1        4 0.85802388E-01 0.12273700E+04</pdfrwt>
<pdfrwt beam="2">  1       -4 0.41099457E+00 0.12138541E+04</pdfrwt>
<totfact> 0.16983953E-01</totfact>
</mgrwt>
</event>
<event>
 8    1  0.3025584E-006  0.1818380E+04  0.7818608E-02  0.8252103E-01
          4   -1    0    0  502    0  0.00000000000E+00  0.00000000000E+00  0.21122781669E+04  0.21122781669E+04  0.00000000000E+00 0.  1.
         -4   -1    0    0    0  501 -0.00000000000E+00 -0.00000000000E+00 -0.25091319086E+04  0.25091319086E+04  0.00000000000E+00 0. -1.
   -9000010    2    1    2    0  501  0.14349616739E+04  0.40595956238E+03 -0.16316023792E+04  0.24430787712E+04  0.10404755579E+04 0.  0.
    9000010    2    1    2  502    0 -0.14349616739E+04 -0.40595956238E+03  0.12347486376E+04  0.21783313043E+04  0.99830100743E+03 0.  0.
        -13    1    4    4    0    0  0.12538273658E+03 -0.16468475938E+03  0.21679577848E+03  0.29973708701E+03  0.10566000000E+00 0.  1.
          4    1    4    4  502    0 -0.15603444105E+04 -0.24127480300E+03  0.10179528591E+04  0.18785942173E+04  0.00000000000E+00 0.  1.
         13    1    3    3    0    0  0.23618918978E+03  0.51883986158E+03 -0.78927118962E+03  0.97361653502E+03  0.10566000000E+00 0. -1.
         -4    1    3    3    0  501  0.11987724841E+04 -0.11288029920E+03 -0.84233118959E+03  0.14694622362E+04  0.00000000000E+00 0. -1.
<mgrwt>
<rscale>  0 0.18064418E+04</rscale>
<asrwt>0</asrwt>
<pdfrwt beam="1">  1        4 0.32496587E+00 0.17945816E+04</pdfrwt>
<pdfrwt beam="2">  1       -4 0.38602029E+00 0.18183805E+04</pdfrwt>
<totfact> 0.23843145E-02</totfact>
</mgrwt>
</event>
<event>
 8    1  0.3025584E-006  0.1391142E+04  0.7818608E-02  0.8499408E-01
          4   -1    0    0  502    0  0.00000000000E+00  0.00000000000E+00  0.23458279357E+04  0.23458279357E+04  0.00000000000E+00 0.  1.
         -4   -1    0    0    0  501 -0.00000000000E+00 -0.00000000000E+00 -0.13056307202E+04  0.13056307202E+04  0.00000000000E+00 0. -1.
   -9000010    2    1    2    0  501  0.82188643652E+03  0.13625897122E+03 -0.64548349928E+03  0.14658703790E+04  0.10188538651E+04 0.  0.
    9000010    2    1    2  502    0 -0.82188643652E+03 -0.13625897122E+03  0.16856807148E+04  0.21855882768E+04  0.11140973125E+04 0.  0.
        -13    1    4    4    0    0 -0.34171335258E+03 -0.51363489127E+03  0.13601694586E+04  0.14935360003E+04  0.10566000000E+00 0.  1.
          4    1    4    4  502    0 -0.48017308394E+03  0.37737592006E+03  0.32551125621E+03  0.69205227657E+03  0.00000000000E+00 0.  1.
         13    1    3    3    0    0 -0.10137001413E+03 -0.28220152486E+03 -0.18661349081E+03  0.35318293633E+03  0.10566000000E+00 0. -1.
         -4    1    3    3    0  501  0.92325645065E+03  0.41846049608E+03 -0.45887000847E+03  0.11126874427E+04  0.00000000000E+00 0. -1.
<mgrwt>
<rscale>  0 0.13531025E+04</rscale>
<asrwt>0</asrwt>
<pdfrwt beam="1">  1        4 0.36089661E+00 0.13911422E+04</pdfrwt>
<pdfrwt beam="2">  1       -4 0.20086626E+00 0.13161030E+04</pdfrwt>
<totfact> 0.65056767E-02</totfact>
</mgrwt>
</event>
<event>
 8    1  0.3025584E-006  0.1093098E+04  0.7818608E-02  0.8697157E-01
          4   -1    0    0  502    0  0.00000000000E+00  0.00000000000E+00  0.23153174035E+04  0.23153174035E+04  0.00000000000E+00 0.  1.
         -4   -1    0    0    0  501 -0.00000000000E+00 -0.00000000000E+00 -0.54089910933E+03  0.54089910933E+03  0.00000000000E+00 0. -1.
   -9000010    2    1    2    0  501  0.41780918594E+03 -0.80591897291E+02  0.54121325616E+03  0.12082913212E+04  0.99297359404E+03 0.  0.
    9000010    2    1    2  502    0 -0.41780918594E+03  0.80591897291E+02  0.12332050380E+04  0.16479251916E+04  0.10068779478E+04 0.  0.
        -13    1    4    4    0    0  0.22711953283E+03  0.26442622798E+03  0.73183173036E+03  0.81060607261E+03  0.10566000000E+00 0.  1.
          4    1    4    4  502    0 -0.64492871877E+03 -0.18383433069E+03  0.50137330762E+03  0.83731911899E+03  0.00000000000E+00 0.  1.
         13    1    3    3    0    0  0.19087499431E+03  0.62060491234E+02 -0.27996193862E+03  0.34447563958E+03  0.10566000000E+00 0. -1.
         -4    1    3    3    0  501  0.22693419162E+03 -0.14265238853E+03  0.82117519478E+03  0.86381568161E+03  0.00000000000E+00 0. -1.
<mgrwt>
<rscale>  0 0.10866819E+04</rscale>
<asrwt>0</asrwt>
<pdfrwt beam="1">  1        4 0.35620267E+00 0.10930978E+04</pdfrwt>
<pdfrwt beam="2">  1       -4 0.83215249E-01 0.10803037E+04</pdfrwt>
<totfact> 0.29478306E-01</totfact>
</mgrwt>
</event>
<event>
 8    1  0.3025584E-006  0.1420967E+04  0.7818608E-02  0.8490465E-01
         -4   -1    0    0    0  501 -0.00000000000E+00  0.00000000000E+00  0.13171081744E+04  0.13171081744E+04  0.00000000000E+00 0. -1.
          4   -1    0    0  502    0  0.00000000000E+00 -0.00000000000E+00 -0.20137604650E+04  0.20137604650E+04  0.00000000000E+00 0.  1.
   -9000010    2    1    2    0  501  0.79177564664E+03  0.54158707647E+03  0.56449221560E+03  0.14309649443E+04  0.89932417639E+03 0.  0.
    9000010    2    1    2  502    0 -0.79177564664E+03 -0.54158707647E+03 -0.12611445062E+04  0.18999036951E+04  0.10482954493E+04 0.  0.
        -13    1    4    4    0    0 -0.23875880963E+03  0.31256238319E+03 -0.45710824075E+03  0.60303313962E+03  0.10566000000E+00 0.  1.
          4    1    4    4  502    0 -0.55301683700E+03 -0.85414945966E+03 -0.80403626543E+03  0.12968705554E+04  0.00000000000E+00 0.  1.
         13    1    3    3    0    0  0.10343078683E+03  0.26070428592E+03 -0.21528914280E+03  0.35357330008E+03  0.10566000000E+00 0. -1.
         -4    1    3    3    0  501  0.68834485981E+03  0.28088279055E+03  0.77978135840E+03  0.10773916442E+04  0.00000000000E+00 0. -1.
<mgrwt>
<rscale>  0 0.13669146E+04</rscale>
<asrwt>0</asrwt>
<pdfrwt beam="2">  1        4 0.30980930E+00 0.14209675E+04</pdfrwt>
<pdfrwt beam="1">  1       -4 0.20263203E+00 0.13149179E+04</pdfrwt>
<totfact> 0.92462903E-02</totfact>
</mgrwt>
</event>
<event>
 8    1  0.3025584E-006  0.1211398E+04  0.7818608E-02  0.8599547E-01
          4   -1    0    0  502    0  0.00000000000E+00  0.00000000000E+00  0.18722995856E+04  0.18722995856E+04  0.00000000000E+00 0.  1.
         -4   -1    0    0    0  501 -0.00000000000E+00 -0.00000000000E+00 -0.11864923510E+04  0.11864923510E+04  0.00000000000E+00 0. -1.
   -9000010    2    1    2    0  501  0.69266758201E+03 -0.10870602766E+02 -0.55138883915E+03  0.13272785383E+04  0.98880337631E+03 0.  0.
    9000010    2    1    2  502    0 -0.69266758201E+03  0.10870602766E+02  0.12371960738E+04  0.17315133983E+04  0.99376957813E+03 0.  0.
        -13    1    4    4    0    0 -0.66904604327E+03  0.20081910776E+03  0.13422720300E+04  0.15131573400E+04  0.10566000000E+00 0.  1.
          4    1    4    4  502    0 -0.23621538747E+02 -0.18994850499E+03 -0.10507595617E+03  0.21835605832E+03  0.00000000000E+00 0.  1.
         13    1    3    3    0    0 -0.24915515739E+03 -0.70012591437E+02 -0.71021244203E+02  0.26837303088E+03  0.10566000000E+00 0. -1.
         -4    1    3    3    0  501  0.94182273940E+03  0.59141988671E+02 -0.48036759495E+03  0.10589055074E+04  0.00000000000E+00 0. -1.
<mgrwt>
<rscale>  0 0.12093607E+04</rscale>
<asrwt>0</asrwt>
<pdfrwt beam="1">  1        4 0.28804609E+00 0.12113978E+04</pdfrwt>
<pdfrwt beam="2">  1       -4 0.18253729E+00 0.12073271E+04</pdfrwt>
<totfact> 0.12328480E-01</totfact>
</mgrwt>
</event>
<event>
 8    1  0.3025584E-006  0.1130759E+04  0.7818608E-02  0.8696164E-01
         -4   -1    0    0    0  501 -0.00000000000E+00  0.00000000000E+00  0.20572820360E+04  0.20572820360E+04  0.00000000000E+00 0. -1.
          4   -1    0    0  502    0  0.00000000000E+00 -0.00000000000E+00 -0.34600142497E+04  0.34600142497E+04  0.00000000000E+00 0.  1.
   -9000010    2    1    2    0  501  0.93061297651E+02 -0.23861224741E+03  0.18123449877E+04  0.21361671092E+04  0.11013715788E+04 0.  0.
    9000010    2    1    2  502    0 -0.93061297651E+02  0.23861224741E+03 -0.32150772013E+04  0.33811291765E+04  0.10147496675E+04 0.  0.
        -13    1    4    4    0    0 -0.35234579578E+03  0.43827781424E+03 -0.10467210193E+04  0.11882171122E+04  0.10566000000E+00 0.  1.
          4    1    4    4  502    0  0.25928449813E+03 -0.19966556683E+03 -0.21683561820E+04  0.21929120643E+04  0.00000000000E+00 0.  1.
         13    1    3    3    0    0  0.53945615706E+03 -0.26790054129E+03  0.62801765416E+03  0.87016655332E+03  0.10566000000E+00 0. -1.
         -4    1    3    3    0  501 -0.44639485941E+03  0.29288293881E+02  0.11843273335E+04  0.12660005559E+04  0.00000000000E+00 0. -1.
<mgrwt>
<rscale>  0 0.10878514E+04</rscale>
<asrwt>0</asrwt>
<pdfrwt beam="2">  1        4 0.53230988E+00 0.10465721E+04</pdfrwt>
<pdfrwt beam="1">  1       -4 0.31650493E+00 0.11307588E+04</pdfrwt>
<totfact> 0.60931363E-03</totfact>
</mgrwt>
</event>
<event>
 8    1  0.3025584E-006  0.1193522E+04  0.7818608E-02  0.8626900E-01
         -4   -1    0    0    0  501 -0.00000000000E+00  0.00000000000E+00  0.16067229743E+04  0.16067229743E+04  0.00000000000E+00 0. -1.
          4   -1    0    0  502    0  0.00000000000E+00 -0.00000000000E+00 -0.12088815088E+04  0.12088815088E+04  0.00000000000E+00 0.  1.
   -9000010    2    1    2    0  501 -0.54936492967E+03 -0.15924245640E+03  0.95583785247E+03  0.14980860426E+04  0.10017363950E+04 0.  0.
    9000010    2    1    2  502    0  0.54936492967E+03  0.15924245640E+03 -0.55799638692E+03  0.13175184404E+04  0.10475375349E+04 0.  0.
        -13    1    4    4    0    0  0.83587838435E+03  0.27113767995E+03 -0.47506249181E+03  0.99894579292E+03  0.10566000000E+00 0.  1.
          4    1    4    4  502    0 -0.28651345468E+03 -0.11189522355E+03 -0.82933895118E+02  0.31857264749E+03  0.00000000000E+00 0.  1.
         13    1    3    3    0    0 -0.15123109222E+03 -0.33207207424E+03 -0.81263113446E+02  0.37382671188E+03  0.10566000000E+00 0. -1.
         -4    1    3    3    0  501 -0.39813383745E+03  0.17282961784E+03  0.10371009659E+04  0.11242593308E+04  0.00000000000E+00 0. -1.
<mgrwt>
<rscale>  0 0.11733566E+04</rscale>
<asrwt>0</asrwt>
<pdfrwt beam="2">  1        4 0.18598177E+00 0.11935220E+04</pdfrwt>
<pdfrwt beam="1">  1       -4 0.24718815E+00 0.11535319E+04</pdfrwt>
<totfact> 0.15161523E-01</totfact>
</mgrwt>
</event>
<event>
 8    1  0.3025584E-006  0.1058959E+04  0.7818608E-02  0.8731260E-01
          4   -1    0    0  502    0  0.00000000000E+00  0.00000000000E+00  0.20879818124E+04  0.20879818124E+04  0.00000000000E+00 0.  1.
         -4   -1    0    0    0  501 -0.00000000000E+00 -0.00000000000E+00 -0.97656788823E+03  0.97656788823E+03  0.00000000000E+00 0. -1.
   -9000010    2    1    2    0  501 -0.35411461403E+03 -0.75278573196E+02 -0.48890230018E+03  0.11455899816E+04  0.97071464566E+03 0.  0.
    9000010    2    1    2  502    0  0.35411461403E+03  0.75278573196E+02  0.16003162244E+04  0.19189597191E+04  0.99515343642E+03 0.  0.
        -13    1    4    4    0    0  0.42103495000E+03  0.16191861870E+03  0.16630511875E+03  0.48077590611E+03  0.10566000000E+00 0.  1.
          4    1    4    4  502    0 -0.66920335976E+02 -0.86640045506E+02  0.14340111056E+04  0.14381838130E+04  0.00000000000E+00 0.  1.
         13    1    3    3    0    0 -0.51675434411E+03 -0.38535956680E+03 -0.46460274476E+03  0.79460227125E+03  0.10566000000E+00 0. -1.
         -4    1    3    3    0  501  0.16263973008E+03  0.31008099361E+03 -0.24299555421E+02  0.35098771031E+03  0.00000000000E+00 0. -1.
<mgrwt>
<rscale>  0 0.10474301E+04</rscale>
<asrwt>0</asrwt>
<pdfrwt beam="1">  1        4 0.32122797E+00 0.10589591E+04</pdfrwt>
<pdfrwt beam="2">  1       -4 0.15024121E+00 0.10360265E+04</pdfrwt>
<totfact> 0.13299103E-01</totfact>
</mgrwt>
</event>
<event>
 8    1  0.3025584E-006  0.1219190E+04  0.7818608E-02  0.8673404E-01
          4   -1    0    0  502    0  0.00000000000E+00  0.00000000000E+00  0.11183676991E+04  0.11183676991E+04  0.00000000000E+00 0.  1.
         -4   -1    0    0    0  501 -0.00000000000E+00 -0.00000000000E+00 -0.21644595382E+04  0.21644595382E+04  0.00000000000E+00 0. -1.
   -9000010    2    1    2    0  501  0.66695395699E+03 -0.89960443902E+02 -0.16364391119E+04  0.19282296199E+04  0.76630022694E+03 0.  0.
    9000010    2    1    2  502    0 -0.66695395699E+03  0.89960443902E+02  0.59034727285E+03  0.13545976175E+04  0.10166141552E+04 0.  0.
        -13    1    4    4    0    0 -0.61773323410E+03 -0.36179067175E+03  0.54138344104E+03  0.89754268983E+03  0.10566000000E+00 0.  1.
          4    1    4    4  502    0 -0.49220722886E+02  0.45175111565E+03  0.48963831816E+02  0.45705492764E+03  0.00000000000E+00 0.  1.
         13    1    3    3    0    0  0.24994383622E+03 -0.41932581412E+03 -0.75974974695E+03  0.90306464265E+03  0.10566000000E+00 0. -1.
         -4    1    3    3    0  501  0.41701012077E+03  0.32936537022E+03 -0.87668936495E+03  0.10251649772E+04  0.00000000000E+00 0. -1.
<mgrwt>
<rscale>  0 0.11150859E+04</rscale>
<asrwt>0</asrwt>
<pdfrwt beam="1">  1        4 0.17205657E+00 0.12191902E+04</pdfrwt>
<pdfrwt beam="2">  1       -4 0.33299378E+00 0.10198708E+04</pdfrwt>
<totfact> 0.10173098E-01</totfact>
</mgrwt>
</event>
<event>
 8    1  0.3025584E-006  0.1737981E+04  0.7818608E-02  0.8286712E-01
          4   -1    0    0  502    0  0.00000000000E+00  0.00000000000E+00  0.27497826321E+04  0.27497826321E+04  0.00000000000E+00 0.  1.
         -4   -1    0    0    0  501 -0.00000000000E+00 -0.00000000000E+00 -0.12243339672E+04  0.12243339672E+04  0.00000000000E+00 0. -1.
   -9000010    2    1    2    0  501  0.26813011773E+03  0.13864146306E+04  0.10808887041E+03  0.17314647881E+04  0.99611636894E+03 0.  0.
    9000010    2    1    2  502    0 -0.26813011773E+03 -0.13864146306E+04  0.14173597945E+04  0.22426518112E+04  0.10131826445E+04 0.  0.
        -13    1    4    4    0    0  0.13853452105E+03 -0.72906925401E+01 -0.85342060997E+02  0.16287494055E+03  0.10566000000E+00 0.  1.
          4    1    4    4  502    0 -0.40666463878E+03 -0.13791239381E+04  0.15027018555E+04  0.20797768706E+04  0.00000000000E+00 0.  1.
         13    1    3    3    0    0  0.53157835917E+03  0.52260210409E+03 -0.20922005918E+03  0.77424902678E+03  0.10566000000E+00 0. -1.
         -4    1    3    3    0  501 -0.26344824144E+03  0.86381252654E+03  0.31730892959E+03  0.95721576132E+03  0.00000000000E+00 0. -1.
<mgrwt>
<rscale>  0 0.17330273E+04</rscale>
<asrwt>0</asrwt>
<pdfrwt beam="1">  1        4 0.42304348E+00 0.17379811E+04</pdfrwt>
<pdfrwt beam="2">  1       -4 0.18835907E+00 0.17280877E+04</pdfrwt>
<totfact> 0.39256681E-02</totfact>
</mgrwt>
</event>
<event>
 8    1  0.3025584E-006  0.1539534E+04  0.7818608E-02  0.8388075E-01
         -4   -1    0    0    0  501 -0.00000000000E+00  0.00000000000E+00  0.30280399378E+04  0.30280399378E+04  0.00000000000E+00 0. -1.
          4   -1    0    0  502    0  0.00000000000E+00 -0.00000000000E+00 -0.17236348635E+04  0.17236348635E+04  0.00000000000E+00 0.  1.
   -9000010    2    1    2    0  501 -0.67147963349E+02 -0.11752293477E+04  0.24095391654E+04  0.28593783768E+04  0.99221612752E+03 0.  0.
    9000010    2    1    2  502    0  0.67147963349E+02  0.11752293477E+04 -0.11051340910E+04  0.18922964245E+04  0.98680876068E+03 0.  0.
        -13    1    4    4    0    0 -0.22685867201E+03  0.13449877438E+03  0.91712866673E+02  0.27922399333E+03  0.10566000000E+00 0.  1.
          4    1    4    4  502    0  0.29400663536E+03  0.10407305734E+04 -0.11968469577E+04  0.16130724311E+04  0.00000000000E+00 0.  1.
         13    1    3    3    0    0  0.10317486604E+03 -0.65475795806E+02  0.12108351121E+04  0.12169855433E+04  0.10566000000E+00 0. -1.
         -4    1    3    3    0  501 -0.17032282939E+03 -0.11097535519E+04  0.11987040533E+04  0.16423928335E+04  0.00000000000E+00 0. -1.
<mgrwt>
<rscale>  0 0.15377936E+04</rscale>
<asrwt>0</asrwt>
<pdfrwt beam="2">  1        4 0.26517459E+00 0.15360548E+04</pdfrwt>
<pdfrwt beam="1">  1       -4 0.46585230E+00 0.15395343E+04</pdfrwt>
<totfact> 0.15943535E-02</totfact>
</mgrwt>
</event>
<event>
 8    1  0.3025584E-006  0.1081212E+04  0.7818608E-02  0.8726224E-01
         -4   -1    0    0    0  501 -0.00000000000E+00  0.00000000000E+00  0.14438959350E+04  0.14438959350E+04  0.00000000000E+00 0. -1.
          4   -1    0    0  502    0  0.00000000000E+00 -0.00000000000E+00 -0.22421908950E+04  0.22421908950E+04  0.00000000000E+00 0.  1.
   -9000010    2    1    2    0  501  0.21093863695E+03 -0.63511670930E+02  0.10911859676E+04  0.15361337320E+04  0.10585325625E+04 0.  0.
    9000010    2    1    2  502    0 -0.21093863695E+03  0.63511670930E+02 -0.18894809276E+04  0.21499530979E+04  0.10018140081E+04 0.  0.
        -13    1    4    4    0    0  0.90028290699E+02 -0.30255280862E+03 -0.15455908419E+03  0.35147093308E+03  0.10566000000E+00 0.  1.
          4    1    4    4  502    0 -0.30096692764E+03  0.36606447955E+03 -0.17349218434E+04  0.17984821649E+04  0.00000000000E+00 0.  1.
         13    1    3    3    0    0 -0.42143720811E+03  0.77104173316E+02  0.50734284491E+03  0.66404152533E+03  0.10566000000E+00 0. -1.
         -4    1    3    3    0  501  0.63237584505E+03 -0.14061584425E+03  0.58384312269E+03  0.87209220669E+03  0.00000000000E+00 0. -1.
<mgrwt>
<rscale>  0 0.10531154E+04</rscale>
<asrwt>0</asrwt>
<pdfrwt beam="2">  1        4 0.34495245E+00 0.10257486E+04</pdfrwt>
<pdfrwt beam="1">  1       -4 0.22213784E+00 0.10812123E+04</pdfrwt>
<totfact> 0.67038716E-02</totfact>
</mgrwt>
</event>
<event>
 8    1  0.3025584E-006  0.1442649E+04  0.7818608E-02  0.8448019E-01
          4   -1    0    0  502    0  0.00000000000E+00  0.00000000000E+00  0.10100854778E+04  0.10100854778E+04  0.00000000000E+00 0.  1.
         -4   -1    0    0    0  501 -0.00000000000E+00 -0.00000000000E+00 -0.20515212836E+04  0.20515212836E+04  0.00000000000E+00 0. -1.
   -9000010    2    1    2    0  501  0.30572152992E+03  0.98365799912E+03 -0.64663623169E+03  0.15809408625E+04  0.10100430098E+04 0.  0.
    9000010    2    1    2  502    0 -0.30572152992E+03 -0.98365799912E+03 -0.39479957415E+03  0.14806658988E+04  0.98765180461E+03 0.  0.
        -13    1    4    4    0    0  0.29094134128E+03 -0.19506028250E+03 -0.34327198668E+03  0.49043964550E+03  0.10566000000E+00 0.  1.
          4    1    4    4  502    0 -0.59666287121E+03 -0.78859771662E+03 -0.51527587478E+02  0.99022625334E+03  0.00000000000E+00 0.  1.
         13    1    3    3    0    0 -0.55353327581E+01  0.86349387299E+03 -0.83212341782E+03  0.11992004429E+04  0.10566000000E+00 0. -1.
         -4    1    3    3    0  501  0.31125686268E+03  0.12016412612E+03  0.18548718612E+03  0.38174041964E+03  0.00000000000E+00 0. -1.
<mgrwt>
<rscale>  0 0.14348340E+04</rscale>
<asrwt>0</asrwt>
<pdfrwt beam="1">  1        4 0.15539777E+00 0.14270616E+04</pdfrwt>
<pdfrwt beam="2">  1       -4 0.31561865E+00 0.14426488E+04</pdfrwt>
<totfact> 0.12825579E-01</totfact>
</mgrwt>
</event>
<event>
 8    1  0.3025584E-006  0.1166331E+04  0.7818608E-02  0.8635711E-01
         -4   -1    0    0    0  501 -0.00000000000E+00  0.00000000000E+00  0.24565619765E+04  0.24565619765E+04  0.00000000000E+00 0.  1.
          4   -1    0    0  502    0  0.00000000000E+00 -0.00000000000E+00 -0.54975482526E+03  0.54975482526E+03  0.00000000000E+00 0. -1.
   -9000010    2    1    2    0  501 -0.58825214766E+03  0.12403824321E+03  0.96614809779E+03  0.15079284003E+04  0.98943410022E+03 0.  0.
    9000010    2    1    2  502    0  0.58825214766E+03 -0.12403824321E+03  0.94065905342E+03  0.14983884014E+04  0.99945098510E+03 0.  0.
        -13    1    4    4    0    0  0.61275888560E+02 -0.22518532946E+03 -0.15377877845E+03  0.27948361489E+03  0.10566000000E+00 0.  1.
          4    1    4    4  502    0  0.52697625910E+03  0.10114708626E+03  0.10944378319E+04  0.12189047865E+04  0.00000000000E+00 0.  1.
         13    1    3    3    0    0 -0.58868550753E+03  0.18615700107E+01  0.11472476099E+04  0.12894693411E+04  0.10566000000E+00 0. -1.
         -4    1    3    3    0  501  0.43335987065E+00  0.12217667320E+03 -0.18109951208E+03  0.21845905920E+03  0.00000000000E+00 0. -1.
<mgrwt>
<rscale>  0 0.11620372E+04</rscale>
<asrwt>0</asrwt>
<pdfrwt beam="2">  1        4 0.84577667E-01 0.11663311E+04</pdfrwt>
<pdfrwt beam="1">  1       -4 0.37793261E+00 0.11577590E+04</pdfrwt>
<totfact> 0.23661679E-01</totfact>
</mgrwt>
</event>
<event>
 8    1  0.3025584E-006  0.1184761E+04  0.7818608E-02  0.8624436E-01
         -4   -1    0    0    0  501 -0.00000000000E+00  0.00000000000E+00  0.13694871587E+04  0.13694871587E+04  0.00000000000E+00 0. -1.
          4   -1    0    0  502    0  0.00000000000E+00 -0.00000000000E+00 -0.20713074872E+04  0.20713074872E+04  0.00000000000E+00 0.  1.
   -9000010    2    1    2    0  501 -0.31201551286E+03  0.53685267233E+03  0.87887703143E+03  0.14751552636E+04  0.10090063149E+04 0.  0.
    9000010    2    1    2  502    0  0.31201551286E+03 -0.53685267233E+03 -0.15806973599E+04  0.19656393823E+04  0.98973206756E+03 0.  0.
        -13    1    4    4    0    0  0.61836127271E+03 -0.57876490265E+03 -0.12762241473E+04  0.15316943434E+04  0.10566000000E+00 0.  1.
          4    1    4    4  502    0 -0.30634575984E+03  0.41912230324E+02 -0.30447321253E+03  0.43394503888E+03  0.00000000000E+00 0.  1.
         13    1    3    3    0    0 -0.32926073162E+03  0.48054554307E+03  0.11008655815E+04  0.12454885339E+04  0.10566000000E+00 0. -1.
         -4    1    3    3    0  501  0.17245218757E+02  0.56307129256E+02 -0.22198855009E+03  0.22966672973E+03  0.00000000000E+00 0. -1.
<mgrwt>
<rscale>  0 0.11765467E+04</rscale>
<asrwt>0</asrwt>
<pdfrwt beam="2">  1        4 0.31866269E+00 0.11683895E+04</pdfrwt>
<pdfrwt beam="1">  1       -4 0.21069033E+00 0.11847608E+04</pdfrwt>
<totfact> 0.84421758E-02</totfact>
</mgrwt>
</event>
<event>
 8    1  0.3025584E-006  0.1061622E+04  0.7818608E-02  0.8718853E-01
          4   -1    0    0  502    0  0.00000000000E+00  0.00000000000E+00  0.85664595470E+03  0.85664595470E+03  0.00000000000E+00 0. -1.
         -4   -1    0    0    0  501 -0.00000000000E+00 -0.00000000000E+00 -0.15374733834E+04  0.15374733834E+04  0.00000000000E+00 0.  1.
   -9000010    2    1    2    0  501 -0.26193445946E+03 -0.22689036072E+03 -0.79537069525E+03  0.13263360051E+04  0.10032266736E+04 0.  0.
    9000010    2    1    2  502    0  0.26193445946E+03  0.22689036072E+03  0.11454326656E+03  0.10677833330E+04  0.10034700741E+04 0.  0.
        -13    1    4    4    0    0  0.14143251780E+03 -0.23553237244E+03 -0.32009036493E+03  0.42182521077E+03  0.10566000000E+00 0.  1.
          4    1    4    4  502    0  0.12050194166E+03  0.46242273316E+03  0.43463363149E+03  0.64595812226E+03  0.00000000000E+00 0.  1.
         13    1    3    3    0    0 -0.25509475543E+03 -0.53441734390E+03 -0.82695206623E+03  0.10171160026E+04  0.10566000000E+00 0. -1.
         -4    1    3    3    0  501 -0.68397040320E+01  0.30752698318E+03  0.31581370982E+02  0.30922000247E+03  0.00000000000E+00 0. -1.
<mgrwt>
<rscale>  0 0.10615069E+04</rscale>
<asrwt>0</asrwt>
<pdfrwt beam="1">  1        4 0.13179169E+00 0.10616219E+04</pdfrwt>
<pdfrwt beam="2">  1       -4 0.23653437E+00 0.10613918E+04</pdfrwt>
<totfact> 0.26554509E-01</totfact>
</mgrwt>
</event>
<event>
 8    1  0.3025584E-006  0.1032969E+04  0.7818608E-02  0.8762587E-01
          4   -1    0    0  502    0  0.00000000000E+00  0.00000000000E+00  0.27127346832E+04  0.27127346832E+04  0.00000000000E+00 0.  1.
         -4   -1    0    0    0  501 -0.00000000000E+00 -0.00000000000E+00 -0.41471073640E+03  0.41471073640E+03  0.00000000000E+00 0. -1.
   -9000010    2    1    2    0  501 -0.10878959380E+03 -0.21284544063E+03  0.66536276088E+03  0.11954496883E+04  0.96397821362E+03 0.  0.
    9000010    2    1    2  502    0  0.10878959380E+03  0.21284544063E+03  0.16326611859E+04  0.19319957313E+04  0.10049311422E+04 0.  0.
        -13    1    4    4    0    0  0.36181912549E+03  0.51601180047E+03  0.88507533240E+03  0.10865263977E+04  0.10566000000E+00 0.  1.
          4    1    4    4  502    0 -0.25302953168E+03 -0.30316635984E+03  0.74758585350E+03  0.84546933357E+03  0.00000000000E+00 0.  1.
         13    1    3    3    0    0  0.53134888986E+02 -0.57798365628E+03  0.29656054509E+03  0.65179489981E+03  0.10566000000E+00 0. -1.
         -4    1    3    3    0  501 -0.16192448279E+03  0.36513821565E+03  0.36880221579E+03  0.54365478847E+03  0.00000000000E+00 0. -1.
<mgrwt>
<rscale>  0 0.10128755E+04</rscale>
<asrwt>0</asrwt>
<pdfrwt beam="1">  1        4 0.41734379E+00 0.10329690E+04</pdfrwt>
<pdfrwt beam="2">  1       -4 0.63801653E-01 0.99317287E+03</pdfrwt>
<totfact> 0.29959182E-01</totfact>
</mgrwt>
</event>
<event>
 8    1  0.3025584E-006  0.1223695E+04  0.7818608E-02  0.8635980E-01
          4   -1    0    0  502    0  0.00000000000E+00  0.00000000000E+00  0.24949766649E+04  0.24949766649E+04  0.00000000000E+00 0.  1.
         -4   -1    0    0    0  501 -0.00000000000E+00 -0.00000000000E+00 -0.70934262892E+03  0.70934262892E+03  0.00000000000E+00 0. -1.
   -9000010    2    1    2    0  501 -0.68656276959E+03 -0.11539401180E+03  0.80819831631E+02  0.11057908478E+04  0.85531125287E+03 0.  0.
    9000010    2    1    2  502    0  0.68656276959E+03  0.11539401180E+03  0.17048142043E+04  0.20985284460E+04  0.10063527975E+04 0.  0.
        -13    1    4    4    0    0 -0.18283367225E+03 -0.19932853950E+03  0.59802241679E+03  0.65634658567E+03  0.10566000000E+00 0.  1.
          4    1    4    4  502    0  0.86939644184E+03  0.31472255130E+03  0.11067917875E+04  0.14421818603E+04  0.00000000000E+00 0.  1.
         13    1    3    3    0    0 -0.18787598962E+03 -0.43111517286E+03 -0.11463184204E+03  0.48404354155E+03  0.10566000000E+00 0. -1.
         -4    1    3    3    0  501 -0.49868677997E+03  0.31572116105E+03  0.19545167367E+03  0.62174730622E+03  0.00000000000E+00 0. -1.
<mgrwt>
<rscale>  0 0.11616936E+04</rscale>
<asrwt>0</asrwt>
<pdfrwt beam="1">  1        4 0.38384256E+00 0.12236953E+04</pdfrwt>
<pdfrwt beam="2">  1       -4 0.10912964E+00 0.11028334E+04</pdfrwt>
<totfact> 0.13610791E-01</totfact>
</mgrwt>
</event>
<event>
 8    1  0.3025584E-006  0.1041195E+04  0.7818608E-02  0.8751787E-01
          4   -1    0    0  502    0  0.00000000000E+00  0.00000000000E+00  0.18252893932E+04  0.18252893932E+04  0.00000000000E+00 0.  1.
         -4   -1    0    0    0  501 -0.00000000000E+00 -0.00000000000E+00 -0.20121403513E+04  0.20121403513E+04  0.00000000000E+00 0. -1.
   -9000010    2    1    2    0  501 -0.27732664603E+03  0.52749169936E+02 -0.17151619616E+04  0.20064562294E+04  0.10021943438E+04 0.  0.
    9000010    2    1    2  502    0  0.27732664603E+03 -0.52749169936E+02  0.15283110035E+04  0.18309735150E+04  0.96800668679E+03 0.  0.
        -13    1    4    4    0    0  0.52978272003E+03  0.11281433335E+03  0.42902447557E+03  0.69098394775E+03  0.10566000000E+00 0.  1.
          4    1    4    4  502    0 -0.25245607400E+03 -0.16556350329E+03  0.10992865279E+04  0.11399895673E+04  0.00000000000E+00 0.  1.
         13    1    3    3    0    0 -0.20130369717E+03 -0.23323868393E+02  0.72749526246E+02  0.21531299558E+03  0.10566000000E+00 0. -1.
         -4    1    3    3    0  501 -0.76022948855E+02  0.76073038330E+02 -0.17879114878E+04  0.17911432339E+04  0.00000000000E+00 0. -1.
<mgrwt>
<rscale>  0 0.10246305E+04</rscale>
<asrwt>0</asrwt>
<pdfrwt beam="1">  1        4 0.28081375E+00 0.10083300E+04</pdfrwt>
<pdfrwt beam="2">  1       -4 0.30956006E+00 0.10411945E+04</pdfrwt>
<totfact> 0.61328594E-02</totfact>
</mgrwt>
</event>
<event>
 8    1  0.3025584E-006  0.1053583E+04  0.7818608E-02  0.8736215E-01
         -4   -1    0    0    0  501 -0.00000000000E+00  0.00000000000E+00  0.75166128433E+03  0.75166128433E+03  0.00000000000E+00 0. -1.
          4   -1    0    0  502    0  0.00000000000E+00 -0.00000000000E+00 -0.24404078081E+04  0.24404078081E+04  0.00000000000E+00 0.  1.
   -9000010    2    1    2    0  501 -0.15151882906E+03 -0.19214551997E+03  0.16968032918E+03  0.10671587401E+04  0.10247724168E+04 0.  0.
    9000010    2    1    2  502    0  0.15151882906E+03  0.19214551997E+03 -0.18584268529E+04  0.21249103522E+04  0.10008075645E+04 0.  0.
        -13    1    4    4    0    0  0.53081489954E+03  0.15155726763E+03 -0.15119970122E+04  0.16096176686E+04  0.10566000000E+00 0.  1.
          4    1    4    4  502    0 -0.37929607047E+03  0.40588252343E+02 -0.34642984068E+03  0.51529268364E+03  0.00000000000E+00 0.  1.
         13    1    3    3    0    0 -0.41578976245E+03 -0.84216344115E+02  0.48329786075E+03  0.64307880741E+03  0.10566000000E+00 0. -1.
         -4    1    3    3    0  501  0.26427093339E+03 -0.10792917586E+03 -0.31361753157E+03  0.42407993273E+03  0.00000000000E+00 0. -1.
<mgrwt>
<rscale>  0 0.10418703E+04</rscale>
<asrwt>0</asrwt>
<pdfrwt beam="2">  1        4 0.37544735E+00 0.10302881E+04</pdfrwt>
<pdfrwt beam="1">  1       -4 0.11564020E+00 0.10535826E+04</pdfrwt>
<totfact> 0.13422137E-01</totfact>
</mgrwt>
</event>
<event>
 8    1  0.3025584E-006  0.1536762E+04  0.7818608E-02  0.8388970E-01
          4   -1    0    0  502    0  0.00000000000E+00  0.00000000000E+00  0.15515889769E+04  0.15515889769E+04  0.00000000000E+00 0.  1.
         -4   -1    0    0    0  501 -0.00000000000E+00 -0.00000000000E+00 -0.23220069608E+04  0.23220069608E+04  0.00000000000E+00 0. -1.
   -9000010    2    1    2    0  501  0.11678326967E+04  0.29765094885E+02 -0.15228912039E+04  0.21635237558E+04  0.99845793829E+03 0.  0.
    9000010    2    1    2  502    0 -0.11678326967E+04 -0.29765094885E+02  0.75247322000E+03  0.17100721819E+04  0.99670043251E+03 0.  0.
        -13    1    4    4    0    0 -0.23576458123E+03 -0.27276453961E+03 -0.14965549263E+03  0.39036163934E+03  0.10566000000E+00 0.  1.
          4    1    4    4  502    0 -0.93206811547E+03  0.24299944473E+03  0.90212871262E+03  0.13197105426E+04  0.00000000000E+00 0.  1.
         13    1    3    3    0    0  0.48184563179E+03  0.49785360259E+03 -0.55164289586E+03  0.88563159282E+03  0.10566000000E+00 0. -1.
         -4    1    3    3    0  501  0.68598706491E+03 -0.46808850770E+03 -0.97124830808E+03  0.12778921630E+04  0.00000000000E+00 0. -1.
<mgrwt>
<rscale>  0 0.15361912E+04</rscale>
<asrwt>0</asrwt>
<pdfrwt beam="1">  1        4 0.23870600E+00 0.15356207E+04</pdfrwt>
<pdfrwt beam="2">  1       -4 0.35723184E+00 0.15367620E+04</pdfrwt>
<totfact> 0.52753710E-02</totfact>
</mgrwt>
</event>
<event>
 8    1  0.3025584E-006  0.1089260E+04  0.7818608E-02  0.8695062E-01
          4   -1    0    0  502    0  0.00000000000E+00  0.00000000000E+00  0.60095680518E+03  0.60095680518E+03  0.00000000000E+00 0.  1.
         -4   -1    0    0    0  501 -0.00000000000E+00 -0.00000000000E+00 -0.22833077713E+04  0.22833077713E+04  0.00000000000E+00 0. -1.
   -9000010    2    1    2    0  501  0.24023084292E+03 -0.37216761734E+03 -0.13720830633E+04  0.17518842389E+04  0.99512153052E+03 0.  0.
    9000010    2    1    2  502    0 -0.24023084292E+03  0.37216761734E+03 -0.31026790288E+03  0.11323803377E+04  0.99488665901E+03 0.  0.
        -13    1    4    4    0    0  0.17593967951E+02 -0.15371944185E+03  0.26791452080E+03  0.30938231386E+03  0.10566000000E+00 0.  1.
          4    1    4    4  502    0 -0.25782481087E+03  0.52588705919E+03 -0.57818242368E+03  0.82299802380E+03  0.00000000000E+00 0.  1.
         13    1    3    3    0    0 -0.17222349859E+03  0.23553134433E+03 -0.69167177049E+03  0.75069687417E+03  0.10566000000E+00 0. -1.
         -4    1    3    3    0  501  0.41245434151E+03 -0.60769896167E+03 -0.68041129280E+03  0.10011873647E+04  0.00000000000E+00 0. -1.
<mgrwt>
<rscale>  0 0.10891523E+04</rscale>
<asrwt>0</asrwt>
<pdfrwt beam="1">  1        4 0.92454894E-01 0.10890450E+04</pdfrwt>
<pdfrwt beam="2">  1       -4 0.35127812E+00 0.10892596E+04</pdfrwt>
<totfact> 0.24758818E-01</totfact>
</mgrwt>
</event>
<event>
 8    1  0.3025584E-006  0.1095568E+04  0.7818608E-02  0.8707102E-01
          4   -1    0    0  502    0  0.00000000000E+00  0.00000000000E+00  0.17441351169E+04  0.17441351169E+04  0.00000000000E+00 0.  1.
         -4   -1    0    0    0  501 -0.00000000000E+00 -0.00000000000E+00 -0.68642825808E+03  0.68642825808E+03  0.00000000000E+00 0. -1.
   -9000010    2    1    2    0  501 -0.85296027434E+02 -0.36693840245E+03  0.76355806667E+03  0.13353988790E+04  0.10287614113E+04 0.  0.
    9000010    2    1    2  502    0  0.85296027434E+02  0.36693840245E+03  0.29414879212E+03  0.10951644960E+04  0.98536417524E+03 0.  0.
        -13    1    4    4    0    0  0.17407599554E+03  0.59682575217E+03  0.48088338790E+03  0.78597218437E+03  0.10566000000E+00 0.  1.
          4    1    4    4  502    0 -0.88779968105E+02 -0.22988734972E+03 -0.18673459578E+03  0.30919231161E+03  0.00000000000E+00 0.  1.
         13    1    3    3    0    0 -0.33392832242E+03 -0.41286960366E+03  0.90232951437E+03  0.10469804190E+04  0.10566000000E+00 0. -1.
         -4    1    3    3    0  501  0.24863229499E+03  0.45931201209E+02 -0.13877144769E+03  0.28841845997E+03  0.00000000000E+00 0. -1.
<mgrwt>
<rscale>  0 0.10750532E+04</rscale>
<asrwt>0</asrwt>
<pdfrwt beam="1">  1        4 0.26832848E+00 0.10549226E+04</pdfrwt>
<pdfrwt beam="2">  1       -4 0.10560435E+00 0.10955680E+04</pdfrwt>
<totfact> 0.32728154E-01</totfact>
</mgrwt>
</event>
<event>
 8    1  0.3025584E-006  0.1012860E+04  0.7818608E-02  0.8765005E-01
          4   -1    0    0  502    0  0.00000000000E+00  0.00000000000E+00  0.11551745776E+04  0.11551745776E+04  0.00000000000E+00 0.  1.
         -4   -1    0    0    0  501 -0.00000000000E+00 -0.00000000000E+00 -0.19946435850E+04  0.19946435850E+04  0.00000000000E+00 0. -1.
   -9000010    2    1    2    0  501 -0.54321955419E+02  0.18155681052E+03 -0.15946938718E+04  0.18863900330E+04  0.98969948036E+03 0.  0.
    9000010    2    1    2  502    0  0.54321955419E+02 -0.18155681052E+03  0.75522486445E+03  0.12634281296E+04  0.99497351348E+03 0.  0.
        -13    1    4    4    0    0  0.78981475400E+02 -0.59143349328E+03  0.38163341268E+03  0.70829070534E+03  0.10566000000E+00 0.  1.
          4    1    4    4  502    0 -0.24659519982E+02  0.40987668276E+03  0.37359145177E+03  0.55513742427E+03  0.00000000000E+00 0.  1.
         13    1    3    3    0    0 -0.17523340985E+03  0.51492498389E+03 -0.13502400749E+04  0.14556794832E+04  0.10566000000E+00 0. -1.
         -4    1    3    3    0  501  0.12091145443E+03 -0.33336817337E+03 -0.24445379698E+03  0.43071054977E+03  0.00000000000E+00 0. -1.
<mgrwt>
<rscale>  0 0.10102668E+04</rscale>
<asrwt>0</asrwt>
<pdfrwt beam="1">  1        4 0.17771917E+00 0.10128603E+04</pdfrwt>
<pdfrwt beam="2">  1       -4 0.30686824E+00 0.10076799E+04</pdfrwt>
<totfact> 0.11540847E-01</totfact>
</mgrwt>
</event>
<event>
 8    1  0.3025584E-006  0.1124382E+04  0.7818608E-02  0.8670451E-01
         -4   -1    0    0    0  501 -0.00000000000E+00  0.00000000000E+00  0.24436590646E+04  0.24436590646E+04  0.00000000000E+00 0. -1.
          4   -1    0    0  502    0  0.00000000000E+00 -0.00000000000E+00 -0.24879318516E+04  0.24879318516E+04  0.00000000000E+00 0.  1.
   -9000010    2    1    2    0  501  0.48883009662E+02  0.52605140347E+03  0.21752351733E+04  0.24486492158E+04  0.99252974538E+03 0.  0.
    9000010    2    1    2  502    0 -0.48883009662E+02 -0.52605140347E+03 -0.22195079603E+04  0.24829417003E+04  0.97962455742E+03 0.  0.
        -13    1    4    4    0    0  0.43531363925E+03 -0.30247250214E+03 -0.74018599265E+03  0.91041907600E+03  0.10566000000E+00 0.  1.
          4    1    4    4  502    0 -0.48419664891E+03 -0.22357890133E+03 -0.14793219676E+04  0.15725226243E+04  0.00000000000E+00 0.  1.
         13    1    3    3    0    0  0.48137270613E+03  0.29866207980E+03  0.15803530545E+04  0.16788193792E+04  0.10566000000E+00 0. -1.
         -4    1    3    3    0  501 -0.43248969647E+03  0.22738932367E+03  0.59488211882E+03  0.76982983663E+03  0.00000000000E+00 0. -1.
<mgrwt>
<rscale>  0 0.11186799E+04</rscale>
<asrwt>0</asrwt>
<pdfrwt beam="2">  1        4 0.38275874E+00 0.11130067E+04</pdfrwt>
<pdfrwt beam="1">  1       -4 0.37594755E+00 0.11243820E+04</pdfrwt>
<totfact> 0.18026251E-02</totfact>
</mgrwt>
</event>
<event>
 8    1  0.3025584E-006  0.1388472E+04  0.7818608E-02  0.8479042E-01
         -4   -1    0    0    0  501 -0.00000000000E+00  0.00000000000E+00  0.54571835659E+03  0.54571835659E+03  0.00000000000E+00 0. -1.
          4   -1    0    0  502    0  0.00000000000E+00 -0.00000000000E+00 -0.36229526379E+04  0.36229526379E+04  0.00000000000E+00 0.  1.
   -9000010    2    1    2    0  501 -0.41015006888E+03 -0.87036826154E+03 -0.11812593190E+04  0.18229721885E+04  0.10010444704E+04 0.  0.
    9000010    2    1    2  502    0  0.41015006888E+03  0.87036826154E+03 -0.18959749623E+04  0.23456988060E+04  0.99086721655E+03 0.  0.
        -13    1    4    4    0    0 -0.44458538120E+02  0.57112932757E+03 -0.16534107415E+04  0.17498378101E+04  0.10566000000E+00 0.  1.
          4    1    4    4  502    0  0.45460860700E+03  0.29923893398E+03 -0.24256422083E+03  0.59586099587E+03  0.00000000000E+00 0.  1.
         13    1    3    3    0    0 -0.53420933691E+03 -0.97950600777E+03 -0.70725079254E+03  0.13209902837E+04  0.10566000000E+00 0. -1.
         -4    1    3    3    0  501  0.12405926803E+03  0.10913774622E+03 -0.47400852642E+03  0.50198190480E+03  0.00000000000E+00 0. -1.
<mgrwt>
<rscale>  0 0.13848073E+04</rscale>
<asrwt>0</asrwt>
<pdfrwt beam="2">  1        4 0.55737731E+00 0.13811524E+04</pdfrwt>
<pdfrwt beam="1">  1       -4 0.83956673E-01 0.13884718E+04</pdfrwt>
<totfact> 0.36177986E-02</totfact>
</mgrwt>
</event>
<event>
 8    1  0.3025584E-006  0.1080677E+04  0.7818608E-02  0.8709740E-01
         -4   -1    0    0    0  501 -0.00000000000E+00  0.00000000000E+00  0.14109150140E+04  0.14109150140E+04  0.00000000000E+00 0. -1.
          4   -1    0    0  502    0  0.00000000000E+00 -0.00000000000E+00 -0.14364473229E+04  0.14364473229E+04  0.00000000000E+00 0.  1.
   -9000010    2    1    2    0  501 -0.22449659641E+03  0.30110395403E+03  0.92392435902E+03  0.14217940144E+04  0.10133112479E+04 0.  0.
    9000010    2    1    2  502    0  0.22449659641E+03 -0.30110395403E+03 -0.94945666794E+03  0.14255683225E+04  0.99484409076E+03 0.  0.
        -13    1    4    4    0    0  0.23198553040E+03  0.30908087651E+03 -0.62398661398E+03  0.73396701570E+03  0.10566000000E+00 0.  1.
          4    1    4    4  502    0 -0.74889339981E+01 -0.61018483055E+03 -0.32547005395E+03  0.69160130681E+03  0.00000000000E+00 0.  1.
         13    1    3    3    0    0  0.26404198929E+03  0.27124925983E+03  0.26243482790E+01  0.37855149113E+03  0.10566000000E+00 0. -1.
         -4    1    3    3    0  501 -0.48853858570E+03  0.29854694202E+02  0.92130001074E+03  0.10432425232E+04  0.00000000000E+00 0. -1.
<mgrwt>
<rscale>  0 0.10719934E+04</rscale>
<asrwt>0</asrwt>
<pdfrwt beam="2">  1        4 0.22099190E+00 0.10633800E+04</pdfrwt>
<pdfrwt beam="1">  1       -4 0.21706385E+00 0.10806766E+04</pdfrwt>
<totfact> 0.14448960E-01</totfact>
</mgrwt>
</event>
<event>
 8    1  0.3025584E-006  0.1029045E+04  0.7818608E-02  0.8754053E-01
          4   -1    0    0  502    0  0.00000000000E+00  0.00000000000E+00  0.13834125512E+04  0.13834125512E+04  0.00000000000E+00 0.  1.
         -4   -1    0    0    0  501 -0.00000000000E+00 -0.00000000000E+00 -0.11796433512E+04  0.11796433512E+04  0.00000000000E+00 0. -1.
   -9000010    2    1    2    0  501  0.19410631812E+03  0.99721491079E+02 -0.66631966436E+03  0.12259346444E+04  0.10056402034E+04 0.  0.
    9000010    2    1    2  502    0 -0.19410631812E+03 -0.99721491079E+02  0.87008886434E+03  0.13371212580E+04  0.99157298689E+03 0.  0.
        -13    1    4    4    0    0 -0.10099280476E+03  0.16700185525E+03  0.10051962883E+04  0.10239671652E+04  0.10566000000E+00 0.  1.
          4    1    4    4  502    0 -0.93113513367E+02 -0.26672334633E+03 -0.13510742395E+03  0.31315409283E+03  0.00000000000E+00 0.  1.
         13    1    3    3    0    0  0.27097758548E+02 -0.27602171958E+03 -0.75583711719E+03  0.80511616372E+03  0.10566000000E+00 0. -1.
         -4    1    3    3    0  501  0.16700855958E+03  0.37574321066E+03  0.89517452829E+02  0.42081848069E+03  0.00000000000E+00 0. -1.
<mgrwt>
<rscale>  0 0.10221506E+04</rscale>
<asrwt>0</asrwt>
<pdfrwt beam="1">  1        4 0.21283270E+00 0.10153022E+04</pdfrwt>
<pdfrwt beam="2">  1       -4 0.18148359E+00 0.10290451E+04</pdfrwt>
<totfact> 0.19158864E-01</totfact>
</mgrwt>
</event>
<event>
 8    1  0.3025584E-006  0.1095532E+04  0.7818608E-02  0.8691882E-01
          4   -1    0    0  502    0  0.00000000000E+00  0.00000000000E+00  0.72684308304E+03  0.72684308304E+03  0.00000000000E+00 0.  1.
         -4   -1    0    0    0  501 -0.00000000000E+00 -0.00000000000E+00 -0.34925796061E+04  0.34925796061E+04  0.00000000000E+00 0. -1.
   -9000010    2    1    2    0  501 -0.33982235723E+03 -0.26888123102E+03 -0.29164341274E+04  0.31135743866E+04  0.10004904251E+04 0.  0.
    9000010    2    1    2  502    0  0.33982235723E+03  0.26888123102E+03  0.15069760434E+03  0.11058483025E+04  0.10061880288E+04 0.  0.
        -13    1    4    4    0    0  0.67049174206E+03  0.23826345366E+01  0.78754512901E+02  0.67510527889E+03  0.10566000000E+00 0.  1.
          4    1    4    4  502    0 -0.33066938483E+03  0.26649859649E+03  0.71943091442E+02  0.43074302362E+03  0.00000000000E+00 0.  1.
         13    1    3    3    0    0 -0.47920617664E+03 -0.42984962506E+03 -0.10263172095E+04  0.12115016655E+04  0.10566000000E+00 0. -1.
         -4    1    3    3    0  501  0.13938381941E+03  0.16096839404E+03 -0.18901169179E+04  0.19020727211E+04  0.00000000000E+00 0. -1.
<mgrwt>
<rscale>  0 0.10929137E+04</rscale>
<asrwt>0</asrwt>
<pdfrwt beam="1">  1        4 0.11182201E+00 0.10955322E+04</pdfrwt>
<pdfrwt beam="2">  1       -4 0.53731995E+00 0.10903015E+04</pdfrwt>
<totfact> 0.27137037E-02</totfact>
</mgrwt>
</event>
<event>
 8    1  0.3025584E-006  0.1118659E+04  0.7818608E-02  0.8672258E-01
          4   -1    0    0  502    0  0.00000000000E+00  0.00000000000E+00  0.10766984800E+04  0.10766984800E+04  0.00000000000E+00 0.  1.
         -4   -1    0    0    0  501 -0.00000000000E+00 -0.00000000000E+00 -0.15272507875E+04  0.15272507875E+04  0.00000000000E+00 0. -1.
   -9000010    2    1    2    0  501  0.38766398342E+03 -0.29739095391E+03 -0.86602816706E+03  0.14147096731E+04  0.10063170124E+04 0.  0.
    9000010    2    1    2  502    0 -0.38766398342E+03  0.29739095391E+03  0.41547585962E+03  0.11892395944E+04  0.10014718565E+04 0.  0.
        -13    1    4    4    0    0 -0.40135614467E+03 -0.94359761860E+02 -0.20100644129E+03  0.45868738823E+03  0.10566000000E+00 0.  1.
          4    1    4    4  502    0  0.13692161247E+02  0.39175071577E+03  0.61648230091E+03  0.73055220616E+03  0.00000000000E+00 0.  1.
         13    1    3    3    0    0  0.76997173355E+02 -0.60134808617E+03 -0.75089884524E+03  0.96508920437E+03  0.10566000000E+00 0. -1.
         -4    1    3    3    0  501  0.31066681006E+03  0.30395713226E+03 -0.11512932182E+03  0.44962046870E+03  0.00000000000E+00 0. -1.
<mgrwt>
<rscale>  0 0.11164789E+04</rscale>
<asrwt>0</asrwt>
<pdfrwt beam="1">  1        4 0.16564592E+00 0.11143028E+04</pdfrwt>
<pdfrwt beam="2">  1       -4 0.23496166E+00 0.11186593E+04</pdfrwt>
<totfact> 0.19051113E-01</totfact>
</mgrwt>
</event>
<event>
 8    1  0.3025584E-006  0.1550420E+04  0.7818608E-02  0.8384407E-01
          4   -1    0    0  502    0  0.00000000000E+00  0.00000000000E+00  0.12225181197E+04  0.12225181197E+04  0.00000000000E+00 0.  1.
         -4   -1    0    0    0  501 -0.00000000000E+00 -0.00000000000E+00 -0.22167741559E+04  0.22167741559E+04  0.00000000000E+00 0. -1.
   -9000010    2    1    2    0  501  0.19380114637E+03 -0.11537383900E+04 -0.10908403708E+04  0.18858664698E+04  0.99894367744E+03 0.  0.
    9000010    2    1    2  502    0 -0.19380114637E+03  0.11537383900E+04  0.96584334574E+02  0.15534258058E+04  0.10174143913E+04 0.  0.
        -13    1    4    4    0    0 -0.24133246775E+03  0.80798646540E+03  0.53074538521E+03  0.99638053140E+03  0.10566000000E+00 0.  1.
          4    1    4    4  502    0  0.47531321383E+02  0.34575192460E+03 -0.43416105063E+03  0.55704527443E+03  0.00000000000E+00 0.  1.
         13    1    3    3    0    0  0.54759854696E+03 -0.33901636951E+03 -0.54194945450E+03  0.84172768151E+03  0.10566000000E+00 0. -1.
         -4    1    3    3    0  501 -0.35379740059E+03 -0.81472202049E+03 -0.54889091625E+03  0.10441387883E+04  0.00000000000E+00 0. -1.
<mgrwt>
<rscale>  0 0.15443797E+04</rscale>
<asrwt>0</asrwt>
<pdfrwt beam="1">  1        4 0.18807971E+00 0.15504203E+04</pdfrwt>
<pdfrwt beam="2">  1       -4 0.34104218E+00 0.15383626E+04</pdfrwt>
<totfact> 0.82096729E-02</totfact>
</mgrwt>
</event>
<event>
 8    1  0.3025584E-006  0.1228943E+04  0.7818608E-02  0.8614635E-01
         -4   -1    0    0    0  501 -0.00000000000E+00  0.00000000000E+00  0.20447927468E+04  0.20447927468E+04  0.00000000000E+00 0. -1.
          4   -1    0    0  502    0  0.00000000000E+00 -0.00000000000E+00 -0.99578694474E+03  0.99578694474E+03  0.00000000000E+00 0.  1.
   -9000010    2    1    2    0  501 -0.29714760770E+03  0.48561307656E+03  0.13512461214E+04  0.17750169067E+04  0.10003510272E+04 0.  0.
    9000010    2    1    2  502    0  0.29714760770E+03 -0.48561307656E+03 -0.30224031937E+03  0.12655627848E+04  0.10891203748E+04 0.  0.
        -13    1    4    4    0    0  0.10592102276E+03 -0.82319141032E+03 -0.12621088779E+03  0.83951924364E+03  0.10566000000E+00 0.  1.
          4    1    4    4  502    0  0.19122658495E+03  0.33757833375E+03 -0.17602943158E+03  0.42604354119E+03  0.00000000000E+00 0.  1.
         13    1    3    3    0    0  0.23280959449E+03  0.53785908917E+03  0.91503964036E+03  0.10866417357E+04  0.10566000000E+00 0. -1.
         -4    1    3    3    0  501 -0.52995720219E+03 -0.52246012606E+02  0.43620648105E+03  0.68837517104E+03  0.00000000000E+00 0. -1.
<mgrwt>
<rscale>  0 0.11893370E+04</rscale>
<asrwt>0</asrwt>
<pdfrwt beam="2">  1        4 0.15319799E+00 0.12289426E+04</pdfrwt>
<pdfrwt beam="1">  1       -4 0.31458350E+00 0.11510078E+04</pdfrwt>
<totfact> 0.13401516E-01</totfact>
</mgrwt>
</event>
<event>
 8    1  0.3025584E-006  0.1296367E+04  0.7818608E-02  0.8645147E-01
         -4   -1    0    0    0  501 -0.00000000000E+00  0.00000000000E+00  0.16197009425E+04  0.16197009425E+04  0.00000000000E+00 0. -1.
          4   -1    0    0  502    0  0.00000000000E+00 -0.00000000000E+00 -0.17028407562E+04  0.17028407562E+04  0.00000000000E+00 0.  1.
   -9000010    2    1    2    0  501  0.18116640733E+03  0.13237845551E+03  0.11423959572E+04  0.17278991621E+04  0.12768013428E+04 0.  0.
    9000010    2    1    2  502    0 -0.18116640733E+03 -0.13237845551E+03 -0.12255357709E+04  0.15946425365E+04  0.99528969199E+03 0.  0.
        -13    1    4    4    0    0 -0.12003039408E+03  0.28756323129E+03 -0.15102367800E+02  0.31197435820E+03  0.10566000000E+00 0.  1.
          4    1    4    4  502    0 -0.61136013252E+02 -0.41994168680E+03 -0.12104334031E+04  0.12826681783E+04  0.00000000000E+00 0.  1.
         13    1    3    3    0    0  0.53636954866E+02 -0.41911901833E+03 -0.32468375900E+02  0.42378282298E+03  0.10566000000E+00 0. -1.
         -4    1    3    3    0  501  0.12752945246E+03  0.55149747384E+03  0.11748643331E+04  0.13041163392E+04  0.00000000000E+00 0. -1.
<mgrwt>
<rscale>  0 0.11500616E+04</rscale>
<asrwt>0</asrwt>
<pdfrwt beam="2">  1        4 0.26197550E+00 0.10202680E+04</pdfrwt>
<pdfrwt beam="1">  1       -4 0.24918476E+00 0.12963668E+04</pdfrwt>
<totfact> 0.95560503E-02</totfact>
</mgrwt>
</event>
<event>
 8    1  0.3025584E-006  0.1214073E+04  0.7818608E-02  0.8601450E-01
         -4   -1    0    0    0  501 -0.00000000000E+00  0.00000000000E+00  0.15606785956E+04  0.15606785956E+04  0.00000000000E+00 0. -1.
          4   -1    0    0  502    0  0.00000000000E+00 -0.00000000000E+00 -0.20096178970E+04  0.20096178970E+04  0.00000000000E+00 0.  1.
   -9000010    2    1    2    0  501  0.66548725909E+03  0.43052656809E+02  0.10813812020E+04  0.16258405290E+04  0.10145172736E+04 0.  0.
    9000010    2    1    2  502    0 -0.66548725909E+03 -0.43052656809E+02 -0.15303205035E+04  0.19444559636E+04  0.99714659289E+03 0.  0.
        -13    1    4    4    0    0 -0.40894549924E+02 -0.28896793648E+03 -0.21006022948E+02  0.29260228415E+03  0.10566000000E+00 0.  1.
          4    1    4    4  502    0 -0.62459270916E+03  0.24591527967E+03 -0.15093144806E+04  0.16518536795E+04  0.00000000000E+00 0.  1.
         13    1    3    3    0    0  0.60856515912E+03  0.47495863543E+03  0.60919485343E+03  0.98338987125E+03  0.10566000000E+00 0. -1.
         -4    1    3    3    0  501  0.56922099973E+02 -0.43190597862E+03  0.47218634859E+03  0.64245065774E+03  0.00000000000E+00 0. -1.
<mgrwt>
<rscale>  0 0.12068121E+04</rscale>
<asrwt>0</asrwt>
<pdfrwt beam="2">  1        4 0.30917198E+00 0.11995950E+04</pdfrwt>
<pdfrwt beam="1">  1       -4 0.24010440E+00 0.12140725E+04</pdfrwt>
<totfact> 0.75456130E-02</totfact>
</mgrwt>
</event>
<event>
 8    1  0.3025584E-006  0.1304540E+04  0.7818608E-02  0.8531958E-01
         -4   -1    0    0    0  501 -0.00000000000E+00  0.00000000000E+00  0.16990806201E+04  0.16990806201E+04  0.00000000000E+00 0. -1.
          4   -1    0    0  502    0  0.00000000000E+00 -0.00000000000E+00 -0.34421349651E+04  0.34421349651E+04  0.00000000000E+00 0.  1.
   -9000010    2    1    2    0  501 -0.38073001319E+03  0.76318231947E+03  0.12932775381E+04  0.18365013071E+04  0.98628984825E+03 0.  0.
    9000010    2    1    2  502    0  0.38073001319E+03 -0.76318231947E+03 -0.30363318831E+04  0.33047142780E+04  0.98712844100E+03 0.  0.
        -13    1    4    4    0    0  0.80811200437E+02  0.23634198492E+03 -0.77389720179E+03  0.81320653837E+03  0.10566000000E+00 0.  1.
          4    1    4    4  502    0  0.29991881275E+03 -0.99952430439E+03 -0.22624346814E+04  0.24915077396E+04  0.00000000000E+00 0.  1.
         13    1    3    3    0    0  0.18594363175E+03  0.65885675083E+02 -0.65192918800E+02  0.20776449214E+03  0.10566000000E+00 0. -1.
         -4    1    3    3    0  501 -0.56667364494E+03  0.69729664439E+03  0.13584704569E+04  0.16287368150E+04  0.00000000000E+00 0. -1.
<mgrwt>
<rscale>  0 0.13042230E+04</rscale>
<asrwt>0</asrwt>
<pdfrwt beam="2">  1        4 0.52955921E+00 0.13045402E+04</pdfrwt>
<pdfrwt beam="1">  1       -4 0.26139702E+00 0.13039058E+04</pdfrwt>
<totfact> 0.84065381E-03</totfact>
</mgrwt>
</event>
<event>
 8    1  0.3025584E-006  0.1074145E+04  0.7818608E-02  0.8733673E-01
         -4   -1    0    0    0  501 -0.00000000000E+00  0.00000000000E+00  0.14846490591E+04  0.14846490591E+04  0.00000000000E+00 0. -1.
          4   -1    0    0  502    0  0.00000000000E+00 -0.00000000000E+00 -0.42261733032E+04  0.42261733032E+04  0.00000000000E+00 0.  1.
   -9000010    2    1    2    0  501  0.92294672003E+02  0.36503256914E+03  0.12174299252E+04  0.16235526329E+04  0.10059922693E+04 0.  0.
    9000010    2    1    2  502    0 -0.92294672003E+02 -0.36503256914E+03 -0.39589541694E+04  0.40872697294E+04  0.94376302247E+03 0.  0.
        -13    1    4    4    0    0 -0.65222998016E+02  0.76454760806E+02 -0.32506404739E+04  0.32521935477E+04  0.10566000000E+00 0.  1.
          4    1    4    4  502    0 -0.27071673987E+02 -0.44148732995E+03 -0.70831369543E+03  0.83507618165E+03  0.00000000000E+00 0.  1.
         13    1    3    3    0    0 -0.92710153188E+02 -0.32372466479E+03  0.56079711553E+03  0.65413014534E+03  0.10566000000E+00 0. -1.
         -4    1    3    3    0  501  0.18500482519E+03  0.68875723393E+03  0.65663280968E+03  0.96942248756E+03  0.00000000000E+00 0. -1.
<mgrwt>
<rscale>  0 0.10447186E+04</rscale>
<asrwt>0</asrwt>
<pdfrwt beam="2">  1        4 0.65018051E+00 0.10160983E+04</pdfrwt>
<pdfrwt beam="1">  1       -4 0.22840755E+00 0.10741450E+04</pdfrwt>
<totfact> 0.24197560E-03</totfact>
</mgrwt>
</event>
<event>
 8    1  0.3025584E-006  0.1496639E+04  0.7818608E-02  0.8415273E-01
          4   -1    0    0  502    0  0.00000000000E+00  0.00000000000E+00  0.10940491566E+04  0.10940491566E+04  0.00000000000E+00 0.  1.
         -4   -1    0    0    0  501 -0.00000000000E+00 -0.00000000000E+00 -0.29161597360E+04  0.29161597360E+04  0.00000000000E+00 0. -1.
   -9000010    2    1    2    0  501  0.97384297892E+03  0.53646041640E+03 -0.20139803031E+04  0.25013206589E+04  0.98200226641E+03 0.  0.
    9000010    2    1    2  502    0 -0.97384297892E+03 -0.53646041640E+03  0.19186972376E+03  0.15088882337E+04  0.10018831194E+04 0.  0.
        -13    1    4    4    0    0 -0.11560281443E+04 -0.39348422346E+03  0.21441357825E+02  0.12213478815E+04  0.10566000000E+00 0.  1.
          4    1    4    4  502    0  0.18218516542E+03 -0.14297619294E+03  0.17042836594E+03  0.28754035223E+03  0.00000000000E+00 0.  1.
         13    1    3    3    0    0  0.63668158645E+03  0.76664757998E+03 -0.10164072318E+04  0.14234449854E+04  0.10566000000E+00 0. -1.
         -4    1    3    3    0  501  0.33716139247E+03 -0.23018716358E+03 -0.99757307138E+03  0.10778756735E+04  0.00000000000E+00 0. -1.
<mgrwt>
<rscale>  0 0.14900072E+04</rscale>
<asrwt>0</asrwt>
<pdfrwt beam="1">  1        4 0.16831526E+00 0.14966395E+04</pdfrwt>
<pdfrwt beam="2">  1       -4 0.44863995E+00 0.14834043E+04</pdfrwt>
<totfact> 0.35968098E-02</totfact>
</mgrwt>
</event>
<event>
 8    1  0.3025584E-006  0.1508387E+04  0.7818608E-02  0.8406949E-01
         -4   -1    0    0    0  501 -0.00000000000E+00  0.00000000000E+00  0.19042293094E+04  0.19042293094E+04  0.00000000000E+00 0. -1.
          4   -1    0    0  502    0  0.00000000000E+00 -0.00000000000E+00 -0.14761415559E+04  0.14761415559E+04  0.00000000000E+00 0.  1.
   -9000010    2    1    2    0  501  0.99924925448E+03  0.52072244333E+03  0.95956796476E+03  0.17810892320E+04  0.99088709635E+03 0.  0.
    9000010    2    1    2  502    0 -0.99924925448E+03 -0.52072244333E+03 -0.53148021125E+03  0.15992816333E+04  0.10027859154E+04 0.  0.
        -13    1    4    4    0    0 -0.10064054398E+04 -0.19334702971E+02 -0.33832764685E+03  0.10619281274E+04  0.10566000000E+00 0.  1.
          4    1    4    4  502    0  0.71561853454E+01 -0.50138774036E+03 -0.19315256440E+03  0.53735350591E+03  0.00000000000E+00 0.  1.
         13    1    3    3    0    0  0.83781961277E+03  0.80099940478E+03  0.85785208336E+03  0.14420304983E+04  0.10566000000E+00 0. -1.
         -4    1    3    3    0  501  0.16142964171E+03 -0.28027696144E+03  0.10171588139E+03  0.33905873365E+03  0.00000000000E+00 0. -1.
<mgrwt>
<rscale>  0 0.15044395E+04</rscale>
<asrwt>0</asrwt>
<pdfrwt beam="2">  1        4 0.22709870E+00 0.15083867E+04</pdfrwt>
<pdfrwt beam="1">  1       -4 0.29295836E+00 0.15005026E+04</pdfrwt>
<totfact> 0.88088028E-02</totfact>
</mgrwt>
</event>
<event>
 8    1  0.3025584E-006  0.1192582E+04  0.7818608E-02  0.8613001E-01
          4   -1    0    0  502    0  0.00000000000E+00  0.00000000000E+00  0.80123287309E+03  0.80123287309E+03  0.00000000000E+00 0.  1.
         -4   -1    0    0    0  501 -0.00000000000E+00 -0.00000000000E+00 -0.17972137046E+04  0.17972137046E+04  0.00000000000E+00 0. -1.
   -9000010    2    1    2    0  501 -0.11014673759E+03 -0.63088860639E+03 -0.65196725292E+03  0.13572381749E+04  0.10034348145E+04 0.  0.
    9000010    2    1    2  502    0  0.11014673759E+03  0.63088860639E+03 -0.34401357860E+03  0.12412084028E+04  0.10060319178E+04 0.  0.
        -13    1    4    4    0    0 -0.12408600636E+03  0.71628803589E+03 -0.55500066655E+03  0.91459916815E+03  0.10566000000E+00 0.  1.
          4    1    4    4  502    0  0.23423274396E+03 -0.85399429504E+02  0.21098708795E+03  0.32660923469E+03  0.00000000000E+00 0.  1.
         13    1    3    3    0    0 -0.37780042573E+03  0.11383743057E+03 -0.27300939876E+03  0.47981899218E+03  0.10566000000E+00 0. -1.
         -4    1    3    3    0  501  0.26765368814E+03 -0.74472603696E+03 -0.37895785416E+03  0.87741918268E+03  0.00000000000E+00 0. -1.
<mgrwt>
<rscale>  0 0.11914870E+04</rscale>
<asrwt>0</asrwt>
<pdfrwt beam="1">  1        4 0.12326660E+00 0.11925825E+04</pdfrwt>
<pdfrwt beam="2">  1       -4 0.27649441E+00 0.11903924E+04</pdfrwt>
<totfact> 0.23722702E-01</totfact>
</mgrwt>
</event>
<event>
 8    1  0.3025584E-006  0.1179561E+04  0.7818608E-02  0.8643005E-01
         -4   -1    0    0    0  501 -0.00000000000E+00  0.00000000000E+00  0.67529031246E+03  0.67529031246E+03  0.00000000000E+00 0. -1.
          4   -1    0    0  502    0  0.00000000000E+00 -0.00000000000E+00 -0.29148310108E+04  0.29148310108E+04  0.00000000000E+00 0.  1.
   -9000010    2    1    2    0  501 -0.54162297484E+03 -0.60055597325E+02 -0.79979268368E+02  0.11294163642E+04  0.98601344754E+03 0.  0.
    9000010    2    1    2  502    0  0.54162297484E+03  0.60055597325E+02 -0.21595614300E+04  0.24607049591E+04  0.10461363219E+04 0.  0.
        -13    1    4    4    0    0  0.71382385453E+02  0.51659743963E+03 -0.10393612654E+04  0.11628586375E+04  0.10566000000E+00 0.  1.
          4    1    4    4  502    0  0.47024058939E+03 -0.45654184231E+03 -0.11202001646E+04  0.12978463216E+04  0.00000000000E+00 0.  1.
         13    1    3    3    0    0  0.12918680482E+03  0.63651303010E+02  0.31132868891E+03  0.34302519239E+03  0.10566000000E+00 0. -1.
         -4    1    3    3    0  501 -0.67080977967E+03 -0.12370690034E+03 -0.39130795727E+03  0.78639117182E+03  0.00000000000E+00 0. -1.
<mgrwt>
<rscale>  0 0.11527665E+04</rscale>
<asrwt>0</asrwt>
<pdfrwt beam="2">  1        4 0.44843553E+00 0.11795606E+04</pdfrwt>
<pdfrwt beam="1">  1       -4 0.10389082E+00 0.11265810E+04</pdfrwt>
<totfact> 0.80217014E-02</totfact>
</mgrwt>
</event>
<event>
 8    1  0.3025584E-006  0.1080354E+04  0.7818608E-02  0.8714496E-01
          4   -1    0    0  502    0  0.00000000000E+00  0.00000000000E+00  0.30572972577E+04  0.30572972577E+04  0.00000000000E+00 0.  1.
         -4   -1    0    0    0  501 -0.00000000000E+00 -0.00000000000E+00 -0.86108549555E+03  0.86108549555E+03  0.00000000000E+00 0. -1.
   -9000010    2    1    2    0  501  0.15583323067E+03 -0.28159515934E+03 -0.38435455875E+03  0.11207967713E+04  0.10024356071E+04 0.  0.
    9000010    2    1    2  502    0 -0.15583323067E+03  0.28159515934E+03  0.25805663209E+04  0.27975859819E+04  0.10313025551E+04 0.  0.
        -13    1    4    4    0    0  0.15047741040E+03 -0.33635858645E+03  0.64537415226E+03  0.74316105743E+03  0.10566000000E+00 0.  1.
          4    1    4    4  502    0 -0.30631064107E+03  0.61795374578E+03  0.19351921687E+04  0.20544249245E+04  0.00000000000E+00 0.  1.
         13    1    3    3    0    0  0.18103737754E+03  0.23715199972E+02 -0.67454867980E+03  0.69882249202E+03  0.10566000000E+00 0. -1.
         -4    1    3    3    0  501 -0.25204146868E+02 -0.30531035931E+03  0.29019412105E+03  0.42197427932E+03  0.00000000000E+00 0. -1.
<mgrwt>
<rscale>  0 0.10665047E+04</rscale>
<asrwt>0</asrwt>
<pdfrwt beam="1">  1        4 0.47035342E+00 0.10803540E+04</pdfrwt>
<pdfrwt beam="2">  1       -4 0.13247469E+00 0.10528328E+04</pdfrwt>
<totfact> 0.41903396E-02</totfact>
</mgrwt>
</event>
<event>
 8    1  0.3025584E-006  0.1101805E+04  0.7818608E-02  0.8684837E-01
          4   -1    0    0  502    0  0.00000000000E+00  0.00000000000E+00  0.21605356198E+04  0.21605356198E+04  0.00000000000E+00 0.  1.
         -4   -1    0    0    0  501 -0.00000000000E+00 -0.00000000000E+00 -0.10515603487E+04  0.10515603487E+04  0.00000000000E+00 0. -1.
   -9000010    2    1    2    0  501 -0.15845528074E+03  0.44233535506E+03 -0.54191171415E+03  0.12278610657E+04  0.99659713447E+03 0.  0.
    9000010    2    1    2  502    0  0.15845528074E+03 -0.44233535506E+03  0.16508869852E+04  0.19842349028E+04  0.99548564485E+03 0.  0.
        -13    1    4    4    0    0 -0.23576333539E+03 -0.41893629190E+03  0.14760368388E+04  0.15523455568E+04  0.10566000000E+00 0.  1.
          4    1    4    4  502    0  0.39421861613E+03 -0.23399063167E+02  0.17485014636E+03  0.43188934595E+03  0.00000000000E+00 0.  1.
         13    1    3    3    0    0  0.12723036080E+03 -0.24633516507E+03 -0.37064446229E+03  0.46286705094E+03  0.10566000000E+00 0. -1.
         -4    1    3    3    0  501 -0.28568564154E+03  0.68867052013E+03 -0.17126725186E+03  0.76499401478E+03  0.00000000000E+00 0. -1.
<mgrwt>
<rscale>  0 0.11013024E+04</rscale>
<asrwt>0</asrwt>
<pdfrwt beam="1">  1        4 0.33239010E+00 0.11007999E+04</pdfrwt>
<pdfrwt beam="2">  1       -4 0.16177852E+00 0.11018051E+04</pdfrwt>
<totfact> 0.11068058E-01</totfact>
</mgrwt>
</event>
<event>
 8    1  0.3025584E-006  0.1043009E+04  0.7818608E-02  0.8747804E-01
          4   -1    0    0  502    0  0.00000000000E+00  0.00000000000E+00  0.90410427914E+03  0.90410427914E+03  0.00000000000E+00 0.  1.
         -4   -1    0    0    0  501 -0.00000000000E+00 -0.00000000000E+00 -0.14995630106E+04  0.14995630106E+04  0.00000000000E+00 0. -1.
   -9000010    2    1    2    0  501 -0.29112041999E+03  0.87408502139E+02 -0.85678279787E+03  0.13284190561E+04  0.96862225898E+03 0.  0.
    9000010    2    1    2  502    0  0.29112041999E+03 -0.87408502139E+02  0.26132406637E+03  0.10752482337E+04  0.99773601283E+03 0.  0.
        -13    1    4    4    0    0  0.18033905663E+03 -0.32632378234E+03 -0.28465030165E+03  0.46907908892E+03  0.10566000000E+00 0.  1.
          4    1    4    4  502    0  0.11078136336E+03  0.23891528020E+03  0.54597436802E+03  0.60616914481E+03  0.00000000000E+00 0.  1.
         13    1    3    3    0    0 -0.18691012736E+03  0.51398828486E+03 -0.62970976470E+03  0.83405860202E+03  0.10566000000E+00 0. -1.
         -4    1    3    3    0  501 -0.10421029263E+03 -0.42657978272E+03 -0.22707303317E+03  0.49436045403E+03  0.00000000000E+00 0. -1.
<mgrwt>
<rscale>  0 0.10290081E+04</rscale>
<asrwt>0</asrwt>
<pdfrwt beam="1">  1        4 0.13909297E+00 0.10430093E+04</pdfrwt>
<pdfrwt beam="2">  1       -4 0.23070200E+00 0.10151948E+04</pdfrwt>
<totfact> 0.25256634E-01</totfact>
</mgrwt>
</event>
<event>
 8    1  0.3025584E-006  0.1074666E+04  0.7818608E-02  0.8766598E-01
          4   -1    0    0  502    0  0.00000000000E+00  0.00000000000E+00  0.68000028025E+03  0.68000028025E+03  0.00000000000E+00 0.  1.
         -4   -1    0    0    0  501 -0.00000000000E+00 -0.00000000000E+00 -0.29642823837E+04  0.29642823837E+04  0.00000000000E+00 0. -1.
   -9000010    2    1    2    0  501  0.22290594704E+03 -0.21305858873E+03 -0.24573688095E+04  0.26820828739E+04  0.10294785345E+04 0.  0.
    9000010    2    1    2  502    0 -0.22290594704E+03  0.21305858873E+03  0.17308670601E+03  0.96219979012E+03  0.89486781418E+03 0.  0.
        -13    1    4    4    0    0  0.13987915331E+03 -0.27777102581E+03  0.16441477405E+03  0.35178850095E+03  0.10566000000E+00 0.  1.
          4    1    4    4  502    0 -0.36278510035E+03  0.49082961454E+03  0.86719319599E+01  0.61041128917E+03  0.00000000000E+00 0.  1.
         13    1    3    3    0    0  0.16843907586E+03  0.40389616625E+03 -0.12632149574E+04  0.13368679348E+04  0.10566000000E+00 0. -1.
         -4    1    3    3    0  501  0.54466871174E+02 -0.61695475499E+03 -0.11941538521E+04  0.13452149390E+04  0.00000000000E+00 0. -1.
<mgrwt>
<rscale>  0 0.10085512E+04</rscale>
<asrwt>0</asrwt>
<pdfrwt beam="1">  1        4 0.10461543E+00 0.94650379E+03</pdfrwt>
<pdfrwt beam="2">  1       -4 0.45604344E+00 0.10746660E+04</pdfrwt>
<totfact> 0.73440591E-02</totfact>
</mgrwt>
</event>
<event>
 8    1  0.3025584E-006  0.1469161E+04  0.7818608E-02  0.8441631E-01
          4   -1    0    0  502    0  0.00000000000E+00  0.00000000000E+00  0.87389674206E+03  0.87389674206E+03  0.00000000000E+00 0.  1.
         -4   -1    0    0    0  501 -0.00000000000E+00 -0.00000000000E+00 -0.31464041302E+04  0.31464041302E+04  0.00000000000E+00 0. -1.
   -9000010    2    1    2    0  501  0.66856958063E+03  0.80407797119E+03 -0.21068301300E+04  0.25418280550E+04  0.96365450073E+03 0.  0.
    9000010    2    1    2  502    0 -0.66856958063E+03 -0.80407797119E+03 -0.16567725816E+03  0.14784728172E+04  0.10319429488E+04 0.  0.
        -13    1    4    4    0    0 -0.32299963471E+03 -0.55265768383E+03 -0.59410888564E+03  0.87334108954E+03  0.10566000000E+00 0.  1.
          4    1    4    4  502    0 -0.34556994593E+03 -0.25142028736E+03  0.42843162749E+03  0.60513172769E+03  0.00000000000E+00 0.  1.
         13    1    3    3    0    0  0.27398668796E+03  0.95583531685E+03 -0.15722403143E+04  0.18602767200E+04  0.10566000000E+00 0. -1.
         -4    1    3    3    0  501  0.39458289268E+03 -0.15175734566E+03 -0.53458981568E+03  0.68155133496E+03  0.00000000000E+00 0. -1.
<mgrwt>
<rscale>  0 0.14454010E+04</rscale>
<asrwt>0</asrwt>
<pdfrwt beam="1">  1        4 0.13444565E+00 0.14691606E+04</pdfrwt>
<pdfrwt beam="2">  1       -4 0.48406218E+00 0.14220255E+04</pdfrwt>
<totfact> 0.34258066E-02</totfact>
</mgrwt>
</event>
<event>
 8    1  0.3025584E-006  0.1105530E+04  0.7818608E-02  0.8684701E-01
          4   -1    0    0  502    0  0.00000000000E+00  0.00000000000E+00  0.23902810714E+04  0.23902810714E+04  0.00000000000E+00 0.  1.
         -4   -1    0    0    0  501 -0.00000000000E+00 -0.00000000000E+00 -0.20549434501E+04  0.20549434501E+04  0.00000000000E+00 0. -1.
   -9000010    2    1    2    0  501 -0.21322753675E+03  0.43192386158E+03 -0.17608588534E+04  0.20791391092E+04  0.99507352951E+03 0.  0.
    9000010    2    1    2  502    0  0.21322753675E+03 -0.43192386158E+03  0.20961964747E+04  0.23660854122E+04  0.98605086719E+03 0.  0.
        -13    1    4    4    0    0  0.24992489945E+03 -0.73719000731E+03  0.16477530112E+04  0.18223615337E+04  0.10566000000E+00 0.  1.
          4    1    4    4  502    0 -0.36697362700E+02  0.30526614573E+03  0.44844346348E+03  0.54372387854E+03  0.00000000000E+00 0.  1.
         13    1    3    3    0    0 -0.46186481318E+03  0.60705757889E+03 -0.98510926155E+03  0.12459046023E+04  0.10566000000E+00 0. -1.
         -4    1    3    3    0  501  0.24863727643E+03 -0.17513371730E+03 -0.77574959189E+03  0.83323450690E+03  0.00000000000E+00 0. -1.
<mgrwt>
<rscale>  0 0.11014650E+04</rscale>
<asrwt>0</asrwt>
<pdfrwt beam="1">  1        4 0.36773555E+00 0.10974154E+04</pdfrwt>
<pdfrwt beam="2">  1       -4 0.31614515E+00 0.11055295E+04</pdfrwt>
<totfact> 0.32141284E-02</totfact>
</mgrwt>
</event>
<event>
 8    1  0.3025584E-006  0.1602849E+04  0.7818608E-02  0.8352975E-01
          4   -1    0    0  502    0  0.00000000000E+00  0.00000000000E+00  0.17152222254E+04  0.17152222254E+04  0.00000000000E+00 0.  1.
         -4   -1    0    0    0  501 -0.00000000000E+00 -0.00000000000E+00 -0.17695800512E+04  0.17695800512E+04  0.00000000000E+00 0. -1.
   -9000010    2    1    2    0  501  0.12442271298E+04 -0.74411066877E+02 -0.71139939686E+03  0.17525122171E+04  0.10057692637E+04 0.  0.
    9000010    2    1    2  502    0 -0.12442271298E+04  0.74411066877E+02  0.65704157110E+03  0.17322900595E+04  0.10077137821E+04 0.  0.
        -13    1    4    4    0    0 -0.50509256835E+03  0.64338573689E+02 -0.24583239351E+03  0.56541270903E+03  0.10566000000E+00 0.  1.
          4    1    4    4  502    0 -0.73913456144E+03  0.10072493188E+02  0.90287396462E+03  0.11668773505E+04  0.00000000000E+00 0.  1.
         13    1    3    3    0    0  0.10105828055E+04  0.38867093820E+03 -0.49372135059E+03  0.11900014656E+04  0.10566000000E+00 0. -1.
         -4    1    3    3    0  501  0.23364432430E+03 -0.46308200508E+03 -0.21767804628E+03  0.56251075148E+03  0.00000000000E+00 0. -1.
<mgrwt>
<rscale>  0 0.16022381E+04</rscale>
<asrwt>0</asrwt>
<pdfrwt beam="1">  1        4 0.26388034E+00 0.16028491E+04</pdfrwt>
<pdfrwt beam="2">  1       -4 0.27224309E+00 0.16016273E+04</pdfrwt>
<totfact> 0.80743283E-02</totfact>
</mgrwt>
</event>
<event>
 8    1  0.3025584E-006  0.1188703E+04  0.7818608E-02  0.8615851E-01
          4   -1    0    0  502    0  0.00000000000E+00  0.00000000000E+00  0.35036423098E+04  0.35036423098E+04  0.00000000000E+00 0.  1.
         -4   -1    0    0    0  501 -0.00000000000E+00 -0.00000000000E+00 -0.40265880339E+03  0.40265880339E+03  0.00000000000E+00 0. -1.
   -9000010    2    1    2    0  501 -0.44856423847E+03 -0.46223482400E+03  0.15625724391E+04  0.19633258378E+04  0.99907197409E+03 0.  0.
    9000010    2    1    2  502    0  0.44856423847E+03  0.46223482400E+03  0.15384110674E+04  0.19429752754E+04  0.99678152079E+03 0.  0.
        -13    1    4    4    0    0  0.22768203749E+03  0.75082241181E+03  0.12635408184E+04  0.14873159769E+04  0.10566000000E+00 0.  1.
          4    1    4    4  502    0  0.22088220098E+03 -0.28858758781E+03  0.27487024896E+03  0.45565929850E+03  0.00000000000E+00 0.  1.
         13    1    3    3    0    0 -0.66918883442E+03 -0.55947158386E+03  0.14612781416E+04  0.17018096155E+04  0.10566000000E+00 0. -1.
         -4    1    3    3    0  501  0.22062459595E+03  0.97236759862E+02  0.10129429752E+03  0.26151622228E+03  0.00000000000E+00 0. -1.
<mgrwt>
<rscale>  0 0.11877408E+04</rscale>
<asrwt>0</asrwt>
<pdfrwt beam="1">  1        4 0.53902187E+00 0.11867790E+04</pdfrwt>
<pdfrwt beam="2">  1       -4 0.61947511E-01 0.11887034E+04</pdfrwt>
<totfact> 0.86527748E-02</totfact>
</mgrwt>
</event>
<event>
 8    1  0.3025584E-006  0.1121046E+04  0.7818608E-02  0.8671593E-01
          4   -1    0    0  502    0  0.00000000000E+00  0.00000000000E+00  0.19266001009E+04  0.19266001009E+04  0.00000000000E+00 0.  1.
         -4   -1    0    0    0  501 -0.00000000000E+00 -0.00000000000E+00 -0.74884984463E+03  0.74884984463E+03  0.00000000000E+00 0. -1.
   -9000010    2    1    2    0  501 -0.48520991980E+03 -0.16857584742E+03  0.99559487140E+02  0.11254582020E+04  0.99644246716E+03 0.  0.
    9000010    2    1    2  502    0  0.48520991980E+03  0.16857584742E+03  0.10781907692E+04  0.15499917436E+04  0.98799422459E+03 0.  0.
        -13    1    4    4    0    0 -0.58087283109E+02  0.20358803919E+03  0.97265927124E+03  0.99543372017E+03  0.10566000000E+00 0.  1.
          4    1    4    4  502    0  0.54329720291E+03 -0.35012191764E+02  0.10553149792E+03  0.55455802339E+03  0.00000000000E+00 0.  1.
         13    1    3    3    0    0  0.21400428729E+03  0.22790139376E+03  0.73920006541E+02  0.32124921601E+03  0.10566000000E+00 0. -1.
         -4    1    3    3    0  501 -0.69921420709E+03 -0.39647724118E+03  0.25639480599E+02  0.80420898598E+03  0.00000000000E+00 0. -1.
<mgrwt>
<rscale>  0 0.11172884E+04</rscale>
<asrwt>0</asrwt>
<pdfrwt beam="1">  1        4 0.29640001E+00 0.11135435E+04</pdfrwt>
<pdfrwt beam="2">  1       -4 0.11520767E+00 0.11210460E+04</pdfrwt>
<totfact> 0.23656077E-01</totfact>
</mgrwt>
</event>
<event>
 8    1  0.3025584E-006  0.1241726E+04  0.7818608E-02  0.8583098E-01
         -4   -1    0    0    0  501 -0.00000000000E+00  0.00000000000E+00  0.10733454059E+04  0.10733454059E+04  0.00000000000E+00 0. -1.
          4   -1    0    0  502    0  0.00000000000E+00 -0.00000000000E+00 -0.15037323117E+04  0.15037323117E+04  0.00000000000E+00 0.  1.
   -9000010    2    1    2    0  501 -0.58934358480E+03  0.83912894385E+02  0.98946161035E+02  0.12456620884E+04  0.10897322887E+04 0.  0.
    9000010    2    1    2  502    0  0.58934358480E+03 -0.83912894385E+02 -0.52933306678E+03  0.13314156292E+04  0.10668209068E+04 0.  0.
        -13    1    4    4    0    0  0.84408832156E+03 -0.26152106724E+03 -0.26211881078E+03  0.92172916051E+03  0.10566000000E+00 0.  1.
          4    1    4    4  502    0 -0.25474473676E+03  0.17760817286E+03 -0.26721425601E+03  0.40968646864E+03  0.00000000000E+00 0.  1.
         13    1    3    3    0    0 -0.29178095140E+03  0.47669355205E+03  0.38238391336E+03  0.67719298174E+03  0.10566000000E+00 0. -1.
         -4    1    3    3    0  501 -0.29756263340E+03 -0.39278065767E+03 -0.28343775232E+03  0.56846910670E+03  0.00000000000E+00 0. -1.
<mgrwt>
<rscale>  0 0.12316565E+04</rscale>
<asrwt>0</asrwt>
<pdfrwt beam="2">  1        4 0.23134343E+00 0.12216686E+04</pdfrwt>
<pdfrwt beam="1">  1       -4 0.16513006E+00 0.12417261E+04</pdfrwt>
<totfact> 0.19451246E-01</totfact>
</mgrwt>
</event>
<event>
 8    1  0.3025584E-006  0.1035474E+04  0.7818608E-02  0.8743223E-01
          4   -1    0    0  502    0  0.00000000000E+00  0.00000000000E+00  0.19739430641E+04  0.19739430641E+04  0.00000000000E+00 0.  1.
         -4   -1    0    0    0  501 -0.00000000000E+00 -0.00000000000E+00 -0.12466551651E+04  0.12466551651E+04  0.00000000000E+00 0. -1.
   -9000010    2    1    2    0  501 -0.22635848306E+03  0.15356355731E+03 -0.84747986933E+03  0.13358965647E+04  0.99577988209E+03 0.  0.
    9000010    2    1    2  502    0  0.22635848306E+03 -0.15356355731E+03  0.15747677684E+04  0.18847016645E+04  0.99869260086E+03 0.  0.
        -13    1    4    4    0    0  0.43949975259E+03 -0.34496877074E+03  0.43109198969E+03  0.70569384300E+03  0.10566000000E+00 0.  1.
          4    1    4    4  502    0 -0.21314126952E+03  0.19140521343E+03  0.11436757787E+04  0.11790078215E+04  0.00000000000E+00 0.  1.
         13    1    3    3    0    0 -0.37873100568E+03 -0.24645877298E+03 -0.78157235974E+03  0.90279259308E+03  0.10566000000E+00 0. -1.
         -4    1    3    3    0  501  0.15237252262E+03  0.40002233029E+03 -0.65907509581E+02  0.43310397158E+03  0.00000000000E+00 0. -1.
<mgrwt>
<rscale>  0 0.10340688E+04</rscale>
<asrwt>0</asrwt>
<pdfrwt beam="1">  1        4 0.30368355E+00 0.10354742E+04</pdfrwt>
<pdfrwt beam="2">  1       -4 0.19179310E+00 0.10326652E+04</pdfrwt>
<totfact> 0.10599208E-01</totfact>
</mgrwt>
</event>
<event>
 8    1  0.3025584E-006  0.1078207E+04  0.7818608E-02  0.8708546E-01
          4   -1    0    0  502    0  0.00000000000E+00  0.00000000000E+00  0.37074532939E+03  0.37074532939E+03  0.00000000000E+00 0.  1.
         -4   -1    0    0    0  501 -0.00000000000E+00 -0.00000000000E+00 -0.31379148726E+04  0.31379148726E+04  0.00000000000E+00 0. -1.
   -9000010    2    1    2    0  501 -0.27620424272E+02 -0.36634775591E+03 -0.12052480687E+04  0.16107326698E+04  0.10034257621E+04 0.  0.
    9000010    2    1    2  502    0  0.27620424272E+02  0.36634775591E+03 -0.15619214745E+04  0.18979275322E+04  0.10136846941E+04 0.  0.
        -13    1    4    4    0    0  0.13392030767E+03  0.56206030890E+02 -0.15633396286E+04  0.15700715182E+04  0.10566000000E+00 0.  1.
          4    1    4    4  502    0 -0.10629988340E+03  0.31014172502E+03  0.14181540914E+01  0.32785601408E+03  0.00000000000E+00 0.  1.
         13    1    3    3    0    0 -0.17573152115E+02  0.15559680418E+03 -0.10563212438E+04  0.10678641123E+04  0.10566000000E+00 0. -1.
         -4    1    3    3    0  501 -0.10047272157E+02 -0.52194456009E+03 -0.14892682498E+03  0.54286855746E+03  0.00000000000E+00 0. -1.
<mgrwt>
<rscale>  0 0.10733765E+04</rscale>
<asrwt>0</asrwt>
<pdfrwt beam="1">  1        4 0.57037743E-01 0.10782069E+04</pdfrwt>
<pdfrwt beam="2">  1       -4 0.48275614E+00 0.10685677E+04</pdfrwt>
<totfact> 0.19067165E-01</totfact>
</mgrwt>
</event>
<event>
 8    1  0.3025584E-006  0.1403689E+04  0.7818608E-02  0.8482391E-01
          4   -1    0    0  502    0  0.00000000000E+00  0.00000000000E+00  0.21608279362E+04  0.21608279362E+04  0.00000000000E+00 0.  1.
         -4   -1    0    0    0  501 -0.00000000000E+00 -0.00000000000E+00 -0.27009711591E+04  0.27009711591E+04  0.00000000000E+00 0. -1.
   -9000010    2    1    2    0  501  0.76841159154E+03  0.50073364141E+03 -0.22669476608E+04  0.26663449423E+04  0.10626161588E+04 0.  0.
    9000010    2    1    2  502    0 -0.76841159154E+03 -0.50073364141E+03  0.17268044379E+04  0.21954541530E+04  0.99848626308E+03 0.  0.
        -13    1    4    4    0    0 -0.84261729581E+03 -0.52774611071E+03  0.18196550658E+04  0.20735632217E+04  0.10566000000E+00 0.  1.
          4    1    4    4  502    0  0.74205704263E+02  0.27012469296E+02 -0.92850627903E+02  0.12189093135E+03  0.00000000000E+00 0.  1.
         13    1    3    3    0    0  0.77775332592E+03 -0.96205945983E+02 -0.15199310211E+04  0.17100719693E+04  0.10566000000E+00 0. -1.
         -4    1    3    3    0  501 -0.93417343781E+01  0.59693958740E+03 -0.74701663969E+03  0.95627297304E+03  0.00000000000E+00 0. -1.
<mgrwt>
<rscale>  0 0.13795316E+04</rscale>
<asrwt>0</asrwt>
<pdfrwt beam="1">  1        4 0.33243507E+00 0.13557896E+04</pdfrwt>
<pdfrwt beam="2">  1       -4 0.41553402E+00 0.14036893E+04</pdfrwt>
<totfact> 0.18060368E-02</totfact>
</mgrwt>
</event>
<event>
 8    1  0.3025584E-006  0.1373101E+04  0.7818608E-02  0.8493455E-01
          4   -1    0    0  502    0  0.00000000000E+00  0.00000000000E+00  0.72741839249E+03  0.72741839249E+03  0.00000000000E+00 0.  1.
         -4   -1    0    0    0  501 -0.00000000000E+00 -0.00000000000E+00 -0.27223642652E+04  0.27223642652E+04  0.00000000000E+00 0. -1.
   -9000010    2    1    2    0  501 -0.70892183613E+03  0.57395580346E+03 -0.14223490666E+04  0.19620753849E+04  0.99733019355E+03 0.  0.
    9000010    2    1    2  502    0  0.70892183613E+03 -0.57395580346E+03 -0.57259680613E+03  0.14877072727E+04  0.10263578289E+04 0.  0.
        -13    1    4    4    0    0 -0.23660282761E+03 -0.69439422540E+02 -0.28743767663E+03  0.37871250382E+03  0.10566000000E+00 0.  1.
          4    1    4    4  502    0  0.94552466374E+03 -0.50451638092E+03 -0.28515912950E+03  0.11089947689E+04  0.00000000000E+00 0.  1.
         13    1    3    3    0    0  0.25001128520E+03  0.11450736395E+03 -0.41167103936E+03  0.49506629347E+03  0.10566000000E+00 0. -1.
         -4    1    3    3    0  501 -0.95893312133E+03  0.45944843951E+03 -0.10106780272E+04  0.14670090915E+04  0.00000000000E+00 0. -1.
<mgrwt>
<rscale>  0 0.13622782E+04</rscale>
<asrwt>0</asrwt>
<pdfrwt beam="1">  1        4 0.11191052E+00 0.13731008E+04</pdfrwt>
<pdfrwt beam="2">  1       -4 0.41882527E+00 0.13515410E+04</pdfrwt>
<totfact> 0.93530514E-02</totfact>
</mgrwt>
</event>
<event>
 8    1  0.3025584E-006  0.1269944E+04  0.7818608E-02  0.8569348E-01
          4   -1    0    0  502    0  0.00000000000E+00  0.00000000000E+00  0.30901156382E+04  0.30901156382E+04  0.00000000000E+00 0. -1.
         -4   -1    0    0    0  501 -0.00000000000E+00 -0.00000000000E+00 -0.51089098156E+03  0.51089098156E+03  0.00000000000E+00 0.  1.
   -9000010    2    1    2    0  501  0.51690198092E+02  0.71802359024E+03  0.14405344012E+04  0.18953184143E+04  0.99943122708E+03 0.  0.
    9000010    2    1    2  502    0 -0.51690198092E+02 -0.71802359024E+03  0.11386902555E+04  0.17056882055E+04  0.10461964461E+04 0.  0.
        -13    1    4    4    0    0  0.20942610897E+02 -0.87555489230E+03  0.42923765956E+03  0.97533580983E+03  0.10566000000E+00 0.  1.
          4    1    4    4  502    0 -0.72632808989E+02  0.15753130206E+03  0.70945259591E+03  0.73035239571E+03  0.00000000000E+00 0.  1.
         13    1    3    3    0    0  0.23437159474E+03  0.81575059402E+02  0.11425848330E+04  0.11692239505E+04  0.10566000000E+00 0. -1.
         -4    1    3    3    0  501 -0.18268139665E+03  0.63644853084E+03  0.29794956823E+03  0.72609446376E+03  0.00000000000E+00 0. -1.
<mgrwt>
<rscale>  0 0.12506772E+04</rscale>
<asrwt>0</asrwt>
<pdfrwt beam="1">  1        4 0.47540239E+00 0.12699436E+04</pdfrwt>
<pdfrwt beam="2">  1       -4 0.78598614E-01 0.12317031E+04</pdfrwt>
<totfact> 0.10324788E-01</totfact>
</mgrwt>
</event>
<event>
 8    1  0.3025584E-006  0.2393230E+04  0.7818608E-02  0.8026401E-01
          4   -1    0    0  502    0  0.00000000000E+00  0.00000000000E+00  0.31669010036E+04  0.31669010036E+04  0.00000000000E+00 0. -1.
         -4   -1    0    0    0  501 -0.00000000000E+00 -0.00000000000E+00 -0.21690381518E+04  0.21690381518E+04  0.00000000000E+00 0.  1.
   -9000010    2    1    2    0  501 -0.94704400536E+03  0.19661976719E+04 -0.60056494260E+03  0.24580023684E+04  0.95826497369E+03 0.  0.
    9000010    2    1    2  502    0  0.94704400536E+03 -0.19661976719E+04  0.15984277944E+04  0.28779367870E+04  0.98220318801E+03 0.  0.
        -13    1    4    4    0    0  0.93167478090E+02 -0.12095356209E+04  0.10822477269E+04  0.16257050012E+04  0.10566000000E+00 0.  1.
          4    1    4    4  502    0  0.85387652727E+03 -0.75666205100E+03  0.51618006755E+03  0.12522317858E+04  0.00000000000E+00 0.  1.
         13    1    3    3    0    0  0.12197354975E+03  0.33000898936E+03 -0.33459670526E+03  0.48552903748E+03  0.10566000000E+00 0. -1.
         -4    1    3    3    0  501 -0.10690175551E+04  0.16361886826E+04 -0.26596823734E+03  0.19724733310E+04  0.00000000000E+00 0. -1.
<mgrwt>
<rscale>  0 0.23883626E+04</rscale>
<asrwt>0</asrwt>
<pdfrwt beam="1">  1        4 0.48721554E+00 0.23932298E+04</pdfrwt>
<pdfrwt beam="2">  1       -4 0.33369818E+00 0.23835053E+04</pdfrwt>
<totfact> 0.75636220E-03</totfact>
</mgrwt>
</event>
<event>
 8    1  0.3025584E-006  0.1306417E+04  0.7818608E-02  0.8534007E-01
          4   -1    0    0  502    0  0.00000000000E+00  0.00000000000E+00  0.26120373614E+04  0.26120373614E+04  0.00000000000E+00 0.  1.
         -4   -1    0    0    0  501 -0.00000000000E+00 -0.00000000000E+00 -0.11604823969E+04  0.11604823969E+04  0.00000000000E+00 0. -1.
   -9000010    2    1    2    0  501 -0.17539143633E+03  0.79582567908E+03 -0.52581411760E+03  0.14082631862E+04  0.10210896375E+04 0.  0.
    9000010    2    1    2  502    0  0.17539143633E+03 -0.79582567908E+03  0.19773690821E+04  0.23642565722E+04  0.10077797303E+04 0.  0.
        -13    1    4    4    0    0 -0.25539978270E+03 -0.38343142708E+03  0.15844963866E+04  0.16501143956E+04  0.10566000000E+00 0.  1.
          4    1    4    4  502    0  0.43079121903E+03 -0.41239425201E+03  0.39287269550E+03  0.71414217657E+03  0.00000000000E+00 0.  1.
         13    1    3    3    0    0 -0.87094410240E+02  0.91852303563E+03 -0.71416851822E+03  0.11667504818E+04  0.10566000000E+00 0. -1.
         -4    1    3    3    0  501 -0.88297026093E+02 -0.12269735655E+03  0.18835440063E+03  0.24151270434E+03  0.00000000000E+00 0. -1.
<mgrwt>
<rscale>  0 0.13012182E+04</rscale>
<asrwt>0</asrwt>
<pdfrwt beam="1">  1        4 0.40185190E+00 0.12960404E+04</pdfrwt>
<pdfrwt beam="2">  1       -4 0.17853575E+00 0.13064167E+04</pdfrwt>
<totfact> 0.53597585E-02</totfact>
</mgrwt>
</event>
<event>
 8    1  0.3025584E-006  0.1456920E+04  0.7818608E-02  0.8442552E-01
         -4   -1    0    0    0  501 -0.00000000000E+00  0.00000000000E+00  0.13718758628E+04  0.13718758628E+04  0.00000000000E+00 0. -1.
          4   -1    0    0  502    0  0.00000000000E+00 -0.00000000000E+00 -0.23668068981E+04  0.23668068981E+04  0.00000000000E+00 0.  1.
   -9000010    2    1    2    0  501  0.10109182336E+04  0.18533789477E+03  0.61793168129E+03  0.15825475009E+04  0.10326234645E+04 0.  0.
    9000010    2    1    2  502    0 -0.10109182336E+04 -0.18533789477E+03 -0.16128627165E+04  0.21561352601E+04  0.99563412309E+03 0.  0.
        -13    1    4    4    0    0 -0.28508853161E+03  0.39820592674E+03 -0.67962090158E+03  0.83769207468E+03  0.10566000000E+00 0.  1.
          4    1    4    4  502    0 -0.72582970203E+03 -0.58354382151E+03 -0.93324181497E+03  0.13184431854E+04  0.00000000000E+00 0.  1.
         13    1    3    3    0    0  0.18681541630E+03 -0.21114572000E+03 -0.20793511285E+03  0.35031348412E+03  0.10566000000E+00 0. -1.
         -4    1    3    3    0  501  0.82410281734E+03  0.39648361476E+03  0.82586679414E+03  0.12322340167E+04  0.00000000000E+00 0. -1.
<mgrwt>
<rscale>  0 0.14438724E+04</rscale>
<asrwt>0</asrwt>
<pdfrwt beam="2">  1        4 0.36412414E+00 0.14309413E+04</pdfrwt>
<pdfrwt beam="1">  1       -4 0.21105782E+00 0.14569204E+04</pdfrwt>
<totfact> 0.59051993E-02</totfact>
</mgrwt>
</event>
<event>
 8    1  0.3025584E-006  0.1266768E+04  0.7818608E-02  0.8561962E-01
         -4   -1    0    0    0  501 -0.00000000000E+00  0.00000000000E+00  0.12787728924E+04  0.12787728924E+04  0.00000000000E+00 0. -1.
          4   -1    0    0  502    0  0.00000000000E+00 -0.00000000000E+00 -0.16197371413E+04  0.16197371413E+04  0.00000000000E+00 0.  1.
   -9000010    2    1    2    0  501 -0.67637037908E+03  0.37661509484E+03  0.52732397478E+03  0.13721413089E+04  0.10026890734E+04 0.  0.
    9000010    2    1    2  502    0  0.67637037908E+03 -0.37661509484E+03 -0.86828822374E+03  0.15263687248E+04  0.98821112381E+03 0.  0.
        -13    1    4    4    0    0  0.42300494152E+03 -0.33307918912E+03  0.79586352538E+02  0.54425079279E+03  0.10566000000E+00 0.  1.
          4    1    4    4  502    0  0.25336543755E+03 -0.43535905716E+02 -0.94787457628E+03  0.98211793202E+03  0.00000000000E+00 0.  1.
         13    1    3    3    0    0  0.25255490414E+03  0.71594904670E+00  0.18544908127E+03  0.31333028117E+03  0.10566000000E+00 0. -1.
         -4    1    3    3    0  501 -0.92892528322E+03  0.37589914579E+03  0.34187489351E+03  0.10588110277E+04  0.00000000000E+00 0. -1.
<mgrwt>
<rscale>  0 0.12610408E+04</rscale>
<asrwt>0</asrwt>
<pdfrwt beam="2">  1        4 0.24919033E+00 0.12553394E+04</pdfrwt>
<pdfrwt beam="1">  1       -4 0.19673429E+00 0.12667680E+04</pdfrwt>
<totfact> 0.13855455E-01</totfact>
</mgrwt>
</event>
<event>
 8    1  0.3025584E-006  0.1811693E+04  0.7818608E-02  0.8252064E-01
         -4   -1    0    0    0  501 -0.00000000000E+00  0.00000000000E+00  0.10957189664E+04  0.10957189664E+04  0.00000000000E+00 0. -1.
          4   -1    0    0  502    0  0.00000000000E+00 -0.00000000000E+00 -0.30929304252E+04  0.30929304252E+04  0.00000000000E+00 0.  1.
   -9000010    2    1    2    0  501 -0.14195785921E+04  0.48567465351E+03 -0.59297047382E+03  0.18964619641E+04  0.99693066480E+03 0.  0.
    9000010    2    1    2  502    0  0.14195785921E+04 -0.48567465351E+03 -0.14042409850E+04  0.22921874275E+04  0.10154541894E+04 0.  0.
        -13    1    4    4    0    0  0.29495586359E+03 -0.57899297259E+03 -0.73133052728E+03  0.97830270115E+03  0.10566000000E+00 0.  1.
          4    1    4    4  502    0  0.11246227285E+04  0.93318319086E+02 -0.67291045769E+03  0.13138847264E+04  0.00000000000E+00 0.  1.
         13    1    3    3    0    0  0.75254872334E+02 -0.83748670315E+01 -0.28160419160E+03  0.29160652616E+03  0.10566000000E+00 0. -1.
         -4    1    3    3    0  501 -0.14948334644E+04  0.49404952054E+03 -0.31136628221E+03  0.16048554380E+04  0.00000000000E+00 0. -1.
<mgrwt>
<rscale>  0 0.18065268E+04</rscale>
<asrwt>0</asrwt>
<pdfrwt beam="2">  1        4 0.47583544E+00 0.18116927E+04</pdfrwt>
<pdfrwt beam="1">  1       -4 0.16857215E+00 0.18013756E+04</pdfrwt>
<totfact> 0.25951614E-02</totfact>
</mgrwt>
</event>
<event>
 8    1  0.3025584E-006  0.1248787E+04  0.7818608E-02  0.8621332E-01
          4   -1    0    0  502    0  0.00000000000E+00  0.00000000000E+00  0.96783057057E+03  0.96783057057E+03  0.00000000000E+00 0.  1.
         -4   -1    0    0    0  501 -0.00000000000E+00 -0.00000000000E+00 -0.15661699151E+04  0.15661699151E+04  0.00000000000E+00 0. -1.
   -9000010    2    1    2    0  501 -0.54425636272E+03  0.90413141580E+01  0.37769248300E+02  0.12493585110E+04  0.11239098892E+04 0.  0.
    9000010    2    1    2  502    0  0.54425636272E+03 -0.90413141580E+01 -0.63610859283E+03  0.12846419747E+04  0.97435831578E+03 0.  0.
        -13    1    4    4    0    0  0.60115764171E+03  0.30215466746E+03 -0.12617757063E+03  0.68455003013E+03  0.10566000000E+00 0.  1.
          4    1    4    4  502    0 -0.56901278988E+02 -0.31119598161E+03 -0.50993102220E+03  0.60009194456E+03  0.00000000000E+00 0.  1.
         13    1    3    3    0    0 -0.36231603261E+03 -0.50023628351E+03  0.25277297761E+03  0.66738552292E+03  0.10566000000E+00 0. -1.
         -4    1    3    3    0  501 -0.18194033012E+03  0.50927759767E+03 -0.21500372931E+03  0.58197298805E+03  0.00000000000E+00 0. -1.
<mgrwt>
<rscale>  0 0.11805791E+04</rscale>
<asrwt>0</asrwt>
<pdfrwt beam="1">  1        4 0.14889701E+00 0.11160963E+04</pdfrwt>
<pdfrwt beam="2">  1       -4 0.24094922E+00 0.12487875E+04</pdfrwt>
<totfact> 0.21404514E-01</totfact>
</mgrwt>
</event>
<event>
 8    1  0.3025584E-006  0.1021531E+04  0.7818608E-02  0.8757462E-01
          4   -1    0    0  502    0  0.00000000000E+00  0.00000000000E+00  0.72971430848E+03  0.72971430848E+03  0.00000000000E+00 0.  1.
         -4   -1    0    0    0  501 -0.00000000000E+00 -0.00000000000E+00 -0.26778467270E+04  0.26778467270E+04  0.00000000000E+00 0. -1.
   -9000010    2    1    2    0  501  0.24635549433E+02 -0.19539029671E+03 -0.21395517111E+04  0.23682504056E+04  0.99606434563E+03 0.  0.
    9000010    2    1    2  502    0 -0.24635549433E+02  0.19539029671E+03  0.19141929257E+03  0.10393106299E+04  0.10023676778E+04 0.  0.
        -13    1    4    4    0    0  0.48304657126E+03  0.89014479956E+02  0.14950760451E+02  0.49140726902E+03  0.10566000000E+00 0.  1.
          4    1    4    4  502    0 -0.50768212069E+03  0.10637581676E+03  0.17646853212E+03  0.54790336090E+03  0.00000000000E+00 0.  1.
         13    1    3    3    0    0 -0.73661526191E+02  0.36979416365E+03 -0.46799555574E+03  0.60099383962E+03  0.10566000000E+00 0. -1.
         -4    1    3    3    0  501  0.98297075624E+02 -0.56518446037E+03 -0.16715561554E+04  0.17672565660E+04  0.00000000000E+00 0. -1.
<mgrwt>
<rscale>  0 0.10184340E+04</rscale>
<asrwt>0</asrwt>
<pdfrwt beam="1">  1        4 0.11226374E+00 0.10215308E+04</pdfrwt>
<pdfrwt beam="2">  1       -4 0.41197642E+00 0.10153465E+04</pdfrwt>
<totfact> 0.10200681E-01</totfact>
</mgrwt>
</event>
<event>
 8    1  0.3025584E-006  0.1628119E+04  0.7818608E-02  0.8343699E-01
          4   -1    0    0  502    0  0.00000000000E+00  0.00000000000E+00  0.18902975900E+04  0.18902975900E+04  0.00000000000E+00 0.  1.
         -4   -1    0    0    0  501 -0.00000000000E+00 -0.00000000000E+00 -0.18053060222E+04  0.18053060222E+04  0.00000000000E+00 0. -1.
   -9000010    2    1    2    0  501 -0.11731865839E+04 -0.47402010597E+03 -0.84598924511E+03  0.18201044131E+04  0.99800824149E+03 0.  0.
    9000010    2    1    2  502    0  0.11731865839E+04  0.47402010597E+03  0.93098081297E+03  0.18754991991E+04  0.10245536346E+04 0.  0.
        -13    1    4    4    0    0  0.21118087977E+03 -0.10300273325E+02 -0.21589078090E+03  0.30217925152E+03  0.10566000000E+00 0.  1.
          4    1    4    4  502    0  0.96200570415E+03  0.48432037930E+03  0.11468715939E+04  0.15733199476E+04  0.00000000000E+00 0.  1.
         13    1    3    3    0    0 -0.59781144015E+03  0.12813136574E+03  0.29044636318E+02  0.61207823595E+03  0.10566000000E+00 0. -1.
         -4    1    3    3    0  501 -0.57537514377E+03 -0.60215147172E+03 -0.87503388143E+03  0.12080261771E+04  0.00000000000E+00 0. -1.
<mgrwt>
<rscale>  0 0.16198117E+04</rscale>
<asrwt>0</asrwt>
<pdfrwt beam="1">  1        4 0.29081501E+00 0.16281192E+04</pdfrwt>
<pdfrwt beam="2">  1       -4 0.27773939E+00 0.16115465E+04</pdfrwt>
<totfact> 0.66586909E-02</totfact>
</mgrwt>
</event>
<event>
 8    1  0.3025584E-006  0.1279231E+04  0.7818608E-02  0.8552248E-01
          4   -1    0    0  502    0  0.00000000000E+00  0.00000000000E+00  0.18590152826E+04  0.18590152826E+04  0.00000000000E+00 0.  1.
         -4   -1    0    0    0  501 -0.00000000000E+00 -0.00000000000E+00 -0.31279602214E+04  0.31279602214E+04  0.00000000000E+00 0. -1.
   -9000010    2    1    2    0  501  0.25407942646E+01 -0.76156607145E+03 -0.27516247901E+04  0.30344475149E+04  0.10278343245E+04 0.  0.
    9000010    2    1    2  502    0 -0.25407942646E+01  0.76156607145E+03  0.14826798513E+04  0.19525279891E+04  0.10168759363E+04 0.  0.
        -13    1    4    4    0    0  0.27433614976E+03 -0.21433529240E+02  0.26869200715E+02  0.27648089329E+03  0.10566000000E+00 0.  1.
          4    1    4    4  502    0 -0.27687694403E+03  0.78299960069E+03  0.14558106506E+04  0.16760470958E+04  0.00000000000E+00 0.  1.
         13    1    3    3    0    0  0.15768953485E+03 -0.95523132293E+03 -0.17236168328E+04  0.19769137228E+04  0.10566000000E+00 0. -1.
         -4    1    3    3    0  501 -0.15514874058E+03  0.19366525148E+03 -0.10280079572E+04  0.10575337921E+04  0.00000000000E+00 0. -1.
<mgrwt>
<rscale>  0 0.12748297E+04</rscale>
<asrwt>0</asrwt>
<pdfrwt beam="1">  1        4 0.28600235E+00 0.12704432E+04</pdfrwt>
<pdfrwt beam="2">  1       -4 0.48122464E+00 0.12792313E+04</pdfrwt>
<totfact> 0.12362165E-02</totfact>
</mgrwt>
</event>
<event>
 8    1  0.3025584E-006  0.1184573E+04  0.7818608E-02  0.8622622E-01
          4   -1    0    0  502    0  0.00000000000E+00  0.00000000000E+00  0.19513779312E+04  0.19513779312E+04  0.00000000000E+00 0.  1.
         -4   -1    0    0    0  501 -0.00000000000E+00 -0.00000000000E+00 -0.85030889074E+03  0.85030889074E+03  0.00000000000E+00 0. -1.
   -9000010    2    1    2    0  501  0.57398595806E+03  0.25005667086E+03 -0.16162847130E+02  0.11733683956E+04  0.99224187342E+03 0.  0.
    9000010    2    1    2  502    0 -0.57398595806E+03 -0.25005667086E+03  0.11172318876E+04  0.16283184264E+04  0.10055971302E+04 0.  0.
        -13    1    4    4    0    0  0.13286357983E+03 -0.14616893722E+02  0.81242818490E+03  0.82335044253E+03  0.10566000000E+00 0.  1.
          4    1    4    4  502    0 -0.70684953788E+03 -0.23543977714E+03  0.30480370271E+03  0.80496798387E+03  0.00000000000E+00 0.  1.
         13    1    3    3    0    0  0.73220147907E+03  0.38083629537E+03 -0.24986780897E+03  0.86231619662E+03  0.10566000000E+00 0. -1.
         -4    1    3    3    0  501 -0.15821552101E+03 -0.13077962450E+03  0.23370496184E+03  0.31105219894E+03  0.00000000000E+00 0. -1.
<mgrwt>
<rscale>  0 0.11789016E+04</rscale>
<asrwt>0</asrwt>
<pdfrwt beam="1">  1        4 0.30021199E+00 0.11845733E+04</pdfrwt>
<pdfrwt beam="2">  1       -4 0.13081675E+00 0.11732571E+04</pdfrwt>
<totfact> 0.18626830E-01</totfact>
</mgrwt>
</event>
<event>
 8    1  0.3025584E-006  0.1111660E+04  0.7818608E-02  0.8683207E-01
         -4   -1    0    0    0  501 -0.00000000000E+00  0.00000000000E+00  0.29420085565E+04  0.29420085565E+04  0.00000000000E+00 0. -1.
          4   -1    0    0  502    0  0.00000000000E+00 -0.00000000000E+00 -0.75949026348E+03  0.75949026348E+03  0.00000000000E+00 0.  1.
   -9000010    2    1    2    0  501  0.14974732736E+03  0.46778332832E+03  0.23354461870E+04  0.25793687312E+04  0.97856458898E+03 0.  0.
    9000010    2    1    2  502    0 -0.14974732736E+03 -0.46778332832E+03 -0.15292789391E+03  0.11221300888E+04  0.99726801375E+03 0.  0.
        -13    1    4    4    0    0  0.58507631704E+02 -0.22147248726E+02  0.38683002247E+03  0.39185599529E+03  0.10566000000E+00 0.  1.
          4    1    4    4  502    0 -0.20825495906E+03 -0.44563607959E+03 -0.53975791639E+03  0.73027409355E+03  0.00000000000E+00 0.  1.
         13    1    3    3    0    0 -0.13393324349E+03 -0.11953278228E+03  0.28218365144E+02  0.18172090427E+03  0.10566000000E+00 0. -1.
         -4    1    3    3    0  501  0.28368057085E+03  0.58731611060E+03  0.23072278218E+04  0.23976478269E+04  0.00000000000E+00 0. -1.
<mgrwt>
<rscale>  0 0.11032549E+04</rscale>
<asrwt>0</asrwt>
<pdfrwt beam="2">  1        4 0.11684466E+00 0.11116605E+04</pdfrwt>
<pdfrwt beam="1">  1       -4 0.45261669E+00 0.10949129E+04</pdfrwt>
<totfact> 0.62612904E-02</totfact>
</mgrwt>
</event>
<event>
 8    1  0.3025584E-006  0.1053442E+04  0.7818608E-02  0.8737475E-01
         -4   -1    0    0    0  501 -0.00000000000E+00  0.00000000000E+00  0.18053859960E+04  0.18053859960E+04  0.00000000000E+00 0. -1.
          4   -1    0    0  502    0  0.00000000000E+00 -0.00000000000E+00 -0.10934203461E+04  0.10934203461E+04  0.00000000000E+00 0.  1.
   -9000010    2    1    2    0  501  0.18216691447E+03 -0.18358541191E+03  0.13274483954E+04  0.16787414888E+04  0.99456792401E+03 0.  0.
    9000010    2    1    2  502    0 -0.18216691447E+03  0.18358541191E+03 -0.61548274556E+03  0.12200648534E+04  0.10212006894E+04 0.  0.
        -13    1    4    4    0    0 -0.44877429990E+03 -0.25208732299E+03 -0.44842547441E+03  0.68266522390E+03  0.10566000000E+00 0.  1.
          4    1    4    4  502    0  0.26660738543E+03  0.43567273490E+03 -0.16705727115E+03  0.53739962946E+03  0.00000000000E+00 0.  1.
         13    1    3    3    0    0 -0.35422987868E+03 -0.10711438283E+03  0.18372019306E+03  0.41316512251E+03  0.10566000000E+00 0. -1.
         -4    1    3    3    0  501  0.53639679315E+03 -0.76471029076E+02  0.11437282024E+04  0.12655763663E+04  0.00000000000E+00 0. -1.
<mgrwt>
<rscale>  0 0.10404632E+04</rscale>
<asrwt>0</asrwt>
<pdfrwt beam="2">  1        4 0.16821851E+00 0.10534416E+04</pdfrwt>
<pdfrwt beam="1">  1       -4 0.27775169E+00 0.10276448E+04</pdfrwt>
<totfact> 0.14851206E-01</totfact>
</mgrwt>
</event>
<event>
 8    1  0.3025584E-006  0.1546337E+04  0.7818608E-02  0.8384425E-01
          4   -1    0    0  502    0  0.00000000000E+00  0.00000000000E+00  0.29174471783E+04  0.29174471783E+04  0.00000000000E+00 0.  1.
         -4   -1    0    0    0  501 -0.00000000000E+00 -0.00000000000E+00 -0.11373631470E+04  0.11373631470E+04  0.00000000000E+00 0. -1.
   -9000010    2    1    2    0  501 -0.80019338845E+03  0.86568151734E+03 -0.18429512119E+03  0.15572809454E+04  0.10007223905E+04 0.  0.
    9000010    2    1    2  502    0  0.80019338845E+03 -0.86568151734E+03  0.19643791525E+04  0.24975293799E+04  0.99456201444E+03 0.  0.
        -13    1    4    4    0    0  0.50194061930E+03 -0.19524549128E+02  0.12614081189E+04  0.13577466799E+04  0.10566000000E+00 0.  1.
          4    1    4    4  502    0  0.29825276915E+03 -0.84615696821E+03  0.70297103360E+03  0.11397827000E+04  0.00000000000E+00 0.  1.
         13    1    3    3    0    0 -0.46750759338E+03 -0.99159319111E+02  0.11915279948E+03  0.49253763432E+03  0.10566000000E+00 0. -1.
         -4    1    3    3    0  501 -0.33268579507E+03  0.96484083645E+03 -0.30344792067E+03  0.10647433111E+04  0.00000000000E+00 0. -1.
<mgrwt>
<rscale>  0 0.15443463E+04</rscale>
<asrwt>0</asrwt>
<pdfrwt beam="1">  1        4 0.44883802E+00 0.15423578E+04</pdfrwt>
<pdfrwt beam="2">  1       -4 0.17497895E+00 0.15463374E+04</pdfrwt>
<totfact> 0.33824116E-02</totfact>
</mgrwt>
</event>
<event>
 8    1  0.3025584E-006  0.1397597E+04  0.7818608E-02  0.8473143E-01
         -4   -1    0    0    0  501 -0.00000000000E+00  0.00000000000E+00  0.20629565658E+04  0.20629565658E+04  0.00000000000E+00 0. -1.
          4   -1    0    0  502    0  0.00000000000E+00 -0.00000000000E+00 -0.23586804670E+04  0.23586804670E+04  0.00000000000E+00 0.  1.
   -9000010    2    1    2    0  501  0.45518210466E+03  0.85512808553E+03  0.15652627437E+04  0.20984101259E+04  0.10073940681E+04 0.  0.
    9000010    2    1    2  502    0 -0.45518210466E+03 -0.85512808553E+03 -0.18609866450E+04  0.23232269069E+04  0.99783624760E+03 0.  0.
        -13    1    4    4    0    0  0.14266670263E+03 -0.77321834643E+03 -0.10968240640E+04  0.13495345264E+04  0.10566000000E+00 0.  1.
          4    1    4    4  502    0 -0.59784880728E+03 -0.81909739105E+02 -0.76416258091E+03  0.97369238048E+03  0.00000000000E+00 0.  1.
         13    1    3    3    0    0  0.63515183790E+03  0.98752075053E+03  0.13098279675E+04  0.17590521327E+04  0.10566000000E+00 0. -1.
         -4    1    3    3    0  501 -0.17996973324E+03 -0.13239266500E+03  0.25543477624E+03  0.33935799319E+03  0.00000000000E+00 0. -1.
<mgrwt>
<rscale>  0 0.13941561E+04</rscale>
<asrwt>0</asrwt>
<pdfrwt beam="2">  1        4 0.36287392E+00 0.13907235E+04</pdfrwt>
<pdfrwt beam="1">  1       -4 0.31737793E+00 0.13975971E+04</pdfrwt>
<totfact> 0.31983539E-02</totfact>
</mgrwt>
</event>
<event>
 8    1  0.3025584E-006  0.1112591E+04  0.7818608E-02  0.8679369E-01
         -4   -1    0    0    0  501 -0.00000000000E+00  0.00000000000E+00  0.25518812874E+04  0.25518812874E+04  0.00000000000E+00 0. -1.
          4   -1    0    0  502    0  0.00000000000E+00 -0.00000000000E+00 -0.13434882881E+04  0.13434882881E+04  0.00000000000E+00 0.  1.
   -9000010    2    1    2    0  501  0.46111001332E+03  0.12157495969E+03  0.21656849166E+04  0.24347586792E+04  0.10052142820E+04 0.  0.
    9000010    2    1    2  502    0 -0.46111001332E+03 -0.12157495969E+03 -0.95729191729E+03  0.14606108963E+04  0.99477306980E+03 0.  0.
        -13    1    4    4    0    0  0.85037990444E+02 -0.41365359633E+03 -0.16131865823E+03  0.45206689575E+03  0.10566000000E+00 0.  1.
          4    1    4    4  502    0 -0.54614800377E+03  0.29207863664E+03 -0.79597325906E+03  0.10085440006E+04  0.00000000000E+00 0.  1.
         13    1    3    3    0    0 -0.13717340007E+02 -0.38353759821E+03  0.49802045153E+03  0.62873972036E+03  0.10566000000E+00 0. -1.
         -4    1    3    3    0  501  0.47482735333E+03  0.50511255791E+03  0.16676644651E+04  0.18060189588E+04  0.00000000000E+00 0. -1.
<mgrwt>
<rscale>  0 0.11078687E+04</rscale>
<asrwt>0</asrwt>
<pdfrwt beam="2">  1        4 0.20669051E+00 0.11031665E+04</pdfrwt>
<pdfrwt beam="1">  1       -4 0.39259712E+00 0.11125910E+04</pdfrwt>
<totfact> 0.48862402E-02</totfact>
</mgrwt>
</event>
<event>
 8    1  0.3025584E-006  0.1200191E+04  0.7818608E-02  0.8638228E-01
          4   -1    0    0  502    0  0.00000000000E+00  0.00000000000E+00  0.14764867659E+04  0.14764867659E+04  0.00000000000E+00 0.  1.
         -4   -1    0    0    0  501 -0.00000000000E+00 -0.00000000000E+00 -0.23220120886E+04  0.23220120886E+04  0.00000000000E+00 0. -1.
   -9000010    2    1    2    0  501 -0.59468911411E+03  0.79547885934E+02 -0.18973097565E+04  0.22026579271E+04  0.94442290490E+03 0.  0.
    9000010    2    1    2  502    0  0.59468911411E+03 -0.79547885934E+02  0.10517844338E+04  0.15958409274E+04  0.10394588793E+04 0.  0.
        -13    1    4    4    0    0  0.85492770967E+03 -0.22334855114E+03  0.90284988683E+03  0.12632988140E+04  0.10566000000E+00 0.  1.
          4    1    4    4  502    0 -0.26023859556E+03  0.14380066521E+03  0.14893454694E+03  0.33254211343E+03  0.00000000000E+00 0.  1.
         13    1    3    3    0    0 -0.29047352172E+03  0.51075887949E+03 -0.91121198788E+03  0.10842309707E+04  0.10566000000E+00 0. -1.
         -4    1    3    3    0  501 -0.30421559239E+03 -0.43121099356E+03 -0.98609776861E+03  0.11184269564E+04  0.00000000000E+00 0. -1.
<mgrwt>
<rscale>  0 0.11588282E+04</rscale>
<asrwt>0</asrwt>
<pdfrwt beam="1">  1        4 0.22715181E+00 0.12001907E+04</pdfrwt>
<pdfrwt beam="2">  1       -4 0.35723263E+00 0.11188913E+04</pdfrwt>
<totfact> 0.58444623E-02</totfact>
</mgrwt>
</event>
<event>
 8    1  0.3025584E-006  0.1157434E+04  0.7818608E-02  0.8681747E-01
          4   -1    0    0  502    0  0.00000000000E+00  0.00000000000E+00  0.29229956873E+04  0.29229956873E+04  0.00000000000E+00 0.  1.
         -4   -1    0    0    0  501 -0.00000000000E+00 -0.00000000000E+00 -0.42398903200E+03  0.42398903200E+03  0.00000000000E+00 0. -1.
   -9000010    2    1    2    0  501  0.31795662665E+03 -0.35009296402E+03  0.10044843711E+04  0.14566801266E+04  0.94300935288E+03 0.  0.
    9000010    2    1    2  502    0 -0.31795662665E+03  0.35009296402E+03  0.14945222842E+04  0.18903045927E+04  0.10564057437E+04 0.  0.
        -13    1    4    4    0    0  0.57460050927E+02  0.29591655440E+03  0.14803548036E+04  0.15107344639E+04  0.10566000000E+00 0.  1.
          4    1    4    4  502    0 -0.37541667758E+03  0.54176409618E+02  0.14167480580E+02  0.37957012879E+03  0.00000000000E+00 0.  1.
         13    1    3    3    0    0 -0.14417642913E+03 -0.39687118212E+03  0.87958538868E+03  0.97568644812E+03  0.10566000000E+00 0. -1.
         -4    1    3    3    0  501  0.46213305578E+03  0.46778218100E+02  0.12489898240E+03  0.48099367848E+03  0.00000000000E+00 0. -1.
<mgrwt>
<rscale>  0 0.11050069E+04</rscale>
<asrwt>0</asrwt>
<pdfrwt beam="1">  1        4 0.44969163E+00 0.11574345E+04</pdfrwt>
<pdfrwt beam="2">  1       -4 0.65229084E-01 0.10549541E+04</pdfrwt>
<totfact> 0.20357288E-01</totfact>
</mgrwt>
</event>
<event>
 8    1  0.3025584E-006  0.1462504E+04  0.7818608E-02  0.8437727E-01
          4   -1    0    0  502    0  0.00000000000E+00  0.00000000000E+00  0.24351597560E+04  0.24351597560E+04  0.00000000000E+00 0.  1.
         -4   -1    0    0    0  501 -0.00000000000E+00 -0.00000000000E+00 -0.21286793760E+04  0.21286793760E+04  0.00000000000E+00 0. -1.
   -9000010    2    1    2    0  501 -0.21517515171E+03  0.10291511147E+04 -0.16048810472E+04  0.21571359402E+04  0.98597156446E+03 0.  0.
    9000010    2    1    2  502    0  0.21517515171E+03 -0.10291511147E+04  0.19113614272E+04  0.24067031918E+04  0.10165949957E+04 0.  0.
        -13    1    4    4    0    0 -0.38927030201E+03 -0.37571769575E+03  0.97314287766E+03  0.11134191603E+04  0.10566000000E+00 0.  1.
          4    1    4    4  502    0  0.60444545372E+03 -0.65343341897E+03  0.93821854955E+03  0.12932840315E+04  0.00000000000E+00 0.  1.
         13    1    3    3    0    0 -0.22860689096E+03  0.10430223309E+04 -0.17286644320E+04  0.20318556600E+04  0.10566000000E+00 0. -1.
         -4    1    3    3    0  501  0.13431739246E+02 -0.13871216231E+02  0.12378338478E+03  0.12528028020E+03  0.00000000000E+00 0. -1.
<mgrwt>
<rscale>  0 0.14519063E+04</rscale>
<asrwt>0</asrwt>
<pdfrwt beam="1">  1        4 0.37463997E+00 0.14625039E+04</pdfrwt>
<pdfrwt beam="2">  1       -4 0.32748913E+00 0.14413855E+04</pdfrwt>
<totfact> 0.26862137E-02</totfact>
</mgrwt>
</event>
<event>
 8    1  0.3025584E-006  0.1225052E+04  0.7818608E-02  0.8595537E-01
         -4   -1    0    0    0  501 -0.00000000000E+00  0.00000000000E+00  0.10622335048E+04  0.10622335048E+04  0.00000000000E+00 0. -1.
          4   -1    0    0  502    0  0.00000000000E+00 -0.00000000000E+00 -0.16479024859E+04  0.16479024859E+04  0.00000000000E+00 0.  1.
   -9000010    2    1    2    0  501 -0.60508947923E+03 -0.29035869186E+03  0.24190121127E+03  0.12487068741E+04  0.10248469220E+04 0.  0.
    9000010    2    1    2  502    0  0.60508947923E+03  0.29035869186E+03 -0.82757019240E+03  0.14614291166E+04  0.10002305693E+04 0.  0.
        -13    1    4    4    0    0  0.81145479523E+03  0.30819540175E+03 -0.34097381209E+03  0.93258052846E+03  0.10566000000E+00 0.  1.
          4    1    4    4  502    0 -0.20636531601E+03 -0.17836709887E+02 -0.48659638031E+03  0.52884858816E+03  0.00000000000E+00 0.  1.
         13    1    3    3    0    0 -0.83887541254E+03 -0.19907548985E+03  0.40171721263E+03  0.95116756595E+03  0.10566000000E+00 0. -1.
         -4    1    3    3    0  501  0.23378593331E+03 -0.91283202012E+02 -0.15981600135E+03  0.29753930812E+03  0.00000000000E+00 0. -1.
<mgrwt>
<rscale>  0 0.12147498E+04</rscale>
<asrwt>0</asrwt>
<pdfrwt beam="2">  1        4 0.25352346E+00 0.12045342E+04</pdfrwt>
<pdfrwt beam="1">  1       -4 0.16342054E+00 0.12250521E+04</pdfrwt>
<totfact> 0.17471149E-01</totfact>
</mgrwt>
</event>
<event>
 8    1  0.3025584E-006  0.1138032E+04  0.7818608E-02  0.8655518E-01
          4   -1    0    0  502    0  0.00000000000E+00  0.00000000000E+00  0.13658835255E+04  0.13658835255E+04  0.00000000000E+00 0.  1.
         -4   -1    0    0    0  501 -0.00000000000E+00 -0.00000000000E+00 -0.22694058542E+04  0.22694058542E+04  0.00000000000E+00 0. -1.
   -9000010    2    1    2    0  501  0.35957166389E+03  0.38666589617E+03 -0.18396426962E+04  0.21631925763E+04  0.10081242858E+04 0.  0.
    9000010    2    1    2  502    0 -0.35957166389E+03 -0.38666589617E+03  0.93612036744E+03  0.14720968034E+04  0.10059549490E+04 0.  0.
        -13    1    4    4    0    0  0.31124360511E+03 -0.33938200442E+03  0.43468494744E+03  0.63324856206E+03  0.10566000000E+00 0.  1.
          4    1    4    4  502    0 -0.67081526900E+03 -0.47283891750E+02  0.50143542000E+03  0.83884824133E+03  0.00000000000E+00 0.  1.
         13    1    3    3    0    0  0.52129189551E+03  0.30944647586E+03 -0.43250734586E+03  0.74469119582E+03  0.10566000000E+00 0. -1.
         -4    1    3    3    0  501 -0.16172023162E+03  0.77219420317E+02 -0.14071353504E+04  0.14185013805E+04  0.00000000000E+00 0. -1.
<mgrwt>
<rscale>  0 0.11370710E+04</rscale>
<asrwt>0</asrwt>
<pdfrwt beam="1">  1        4 0.21013593E+00 0.11361108E+04</pdfrwt>
<pdfrwt beam="2">  1       -4 0.34913936E+00 0.11380320E+04</pdfrwt>
<totfact> 0.68935063E-02</totfact>
</mgrwt>
</event>
<event>
 8    1  0.3025584E-006  0.1069635E+04  0.7818608E-02  0.8712596E-01
          4   -1    0    0  502    0  0.00000000000E+00  0.00000000000E+00  0.17304754993E+04  0.17304754993E+04  0.00000000000E+00 0.  1.
         -4   -1    0    0    0  501 -0.00000000000E+00 -0.00000000000E+00 -0.34021022517E+04  0.34021022517E+04  0.00000000000E+00 0. -1.
   -9000010    2    1    2    0  501 -0.94298218448E+01  0.27347758720E+03 -0.31399109518E+04  0.33171011534E+04  0.10340407946E+04 0.  0.
    9000010    2    1    2  502    0  0.94298218448E+01 -0.27347758720E+03  0.14682841993E+04  0.18154765976E+04  0.10320939270E+04 0.  0.
        -13    1    4    4    0    0 -0.24571608266E+03  0.35842368948E+02  0.13835404699E+04  0.14056476484E+04  0.10566000000E+00 0.  1.
          4    1    4    4  502    0  0.25514590451E+03 -0.30931995615E+03  0.84743729440E+02  0.40982894912E+03  0.00000000000E+00 0.  1.
         13    1    3    3    0    0  0.93374246324E+02 -0.29218149208E+03 -0.33642028163E+03  0.45526628608E+03  0.10566000000E+00 0. -1.
         -4    1    3    3    0  501 -0.10280406817E+03  0.56565907928E+03 -0.28034906701E+04  0.28618348674E+04  0.00000000000E+00 0. -1.
<mgrwt>
<rscale>  0 0.10686937E+04</rscale>
<asrwt>0</asrwt>
<pdfrwt beam="1">  1        4 0.26622701E+00 0.10677531E+04</pdfrwt>
<pdfrwt beam="2">  1       -4 0.52340033E+00 0.10696351E+04</pdfrwt>
<totfact> 0.90731224E-03</totfact>
</mgrwt>
</event>
<event>
 8    1  0.3025584E-006  0.1204416E+04  0.7818608E-02  0.8610973E-01
          4   -1    0    0  502    0  0.00000000000E+00  0.00000000000E+00  0.81501737596E+03  0.81501737596E+03  0.00000000000E+00 0.  1.
         -4   -1    0    0    0  501 -0.00000000000E+00 -0.00000000000E+00 -0.22979440133E+04  0.22979440133E+04  0.00000000000E+00 0. -1.
   -9000010    2    1    2    0  501 -0.17926556358E+03 -0.62471506674E+03 -0.15064535612E+04  0.19287356884E+04  0.10140088593E+04 0.  0.
    9000010    2    1    2  502    0  0.17926556358E+03  0.62471506674E+03  0.23526923941E+02  0.11842257008E+04  0.98966253709E+03 0.  0.
        -13    1    4    4    0    0 -0.28771730350E+03  0.26309339372E+03 -0.31698205378E+03  0.50247090875E+03  0.10566000000E+00 0.  1.
          4    1    4    4  502    0  0.46698286708E+03  0.36162167301E+03  0.34050897772E+03  0.68175479202E+03  0.00000000000E+00 0.  1.
         13    1    3    3    0    0  0.61195029483E+02 -0.43113794835E+03 -0.48145109494E+02  0.43811268513E+03  0.10566000000E+00 0. -1.
         -4    1    3    3    0  501 -0.24046059306E+03 -0.19357711839E+03 -0.14583084517E+04  0.14906230033E+04  0.00000000000E+00 0. -1.
<mgrwt>
<rscale>  0 0.11941606E+04</rscale>
<asrwt>0</asrwt>
<pdfrwt beam="1">  1        4 0.12538729E+00 0.11839920E+04</pdfrwt>
<pdfrwt beam="2">  1       -4 0.35352985E+00 0.12044165E+04</pdfrwt>
<totfact> 0.13881369E-01</totfact>
</mgrwt>
</event>
<event>
 8    1  0.3025584E-006  0.1186261E+04  0.7818608E-02  0.8628447E-01
         -4   -1    0    0    0  501 -0.00000000000E+00  0.00000000000E+00  0.76744007198E+03  0.76744007198E+03  0.00000000000E+00 0.  1.
          4   -1    0    0  502    0  0.00000000000E+00 -0.00000000000E+00 -0.19673967593E+04  0.19673967593E+04  0.00000000000E+00 0. -1.
   -9000010    2    1    2    0  501  0.28388863119E+03 -0.55044227342E+03 -0.19416531116E+03  0.12020466412E+04  0.10117492319E+04 0.  0.
    9000010    2    1    2  502    0 -0.28388863119E+03  0.55044227342E+03 -0.10057913761E+04  0.15327901900E+04  0.97685721733E+03 0.  0.
        -13    1    4    4    0    0 -0.48149524065E+03  0.19173118483E+03 -0.99642079577E+03  0.11231442149E+04  0.10566000000E+00 0.  1.
          4    1    4    4  502    0  0.19760660946E+03  0.35871108860E+03 -0.93705803722E+01  0.40964597516E+03  0.00000000000E+00 0.  1.
         13    1    3    3    0    0  0.45035185247E+03  0.14189287402E+03 -0.11181153489E+03  0.48523417978E+03  0.10566000000E+00 0. -1.
         -4    1    3    3    0  501 -0.16646322128E+03 -0.69233514745E+03 -0.82353776269E+02  0.71681246145E+03  0.00000000000E+00 0. -1.
<mgrwt>
<rscale>  0 0.11713600E+04</rscale>
<asrwt>0</asrwt>
<pdfrwt beam="2">  1        4 0.30267642E+00 0.11566458E+04</pdfrwt>
<pdfrwt beam="1">  1       -4 0.11806770E+00 0.11862613E+04</pdfrwt>
<totfact> 0.21762159E-01</totfact>
</mgrwt>
</event>
<event>
 8    1  0.3025584E-006  0.1384212E+04  0.7818608E-02  0.8480383E-01
          4   -1    0    0  502    0  0.00000000000E+00  0.00000000000E+00  0.11633165734E+04  0.11633165734E+04  0.00000000000E+00 0.  1.
         -4   -1    0    0    0  501 -0.00000000000E+00 -0.00000000000E+00 -0.23617575823E+04  0.23617575823E+04  0.00000000000E+00 0. -1.
   -9000010    2    1    2    0  501  0.69167383941E+03 -0.65945931602E+03 -0.15707921112E+04  0.20916555443E+04  0.99716386305E+03 0.  0.
    9000010    2    1    2  502    0 -0.69167383941E+03  0.65945931602E+03  0.37235110228E+03  0.14334186114E+04  0.10013712012E+04 0.  0.
        -13    1    4    4    0    0 -0.72794213365E+03  0.66058913814E+03  0.63370657912E+03  0.11695562402E+04  0.10566000000E+00 0.  1.
          4    1    4    4  502    0  0.36268294242E+02 -0.11298221228E+01 -0.26135547684E+03  0.26386237120E+03  0.00000000000E+00 0.  1.
         13    1    3    3    0    0 -0.15703477170E+03 -0.44453942277E+03 -0.78254799481E+03  0.91359542100E+03  0.10566000000E+00 0. -1.
         -4    1    3    3    0  501  0.84870861111E+03 -0.21491989325E+03 -0.78824411638E+03  0.11780601233E+04  0.00000000000E+00 0. -1.
<mgrwt>
<rscale>  0 0.13826911E+04</rscale>
<asrwt>0</asrwt>
<pdfrwt beam="1">  1        4 0.17897178E+00 0.13842123E+04</pdfrwt>
<pdfrwt beam="2">  1       -4 0.36334732E+00 0.13811716E+04</pdfrwt>
<totfact> 0.74417676E-02</totfact>
</mgrwt>
</event>
<event>
 8    1  0.3025584E-006  0.1418765E+04  0.7818608E-02  0.8467854E-01
          4   -1    0    0  502    0  0.00000000000E+00  0.00000000000E+00  0.26384546475E+04  0.26384546475E+04  0.00000000000E+00 0. -1.
         -4   -1    0    0    0  501 -0.00000000000E+00 -0.00000000000E+00 -0.74572292642E+03  0.74572292642E+03  0.00000000000E+00 0.  1.
   -9000010    2    1    2    0  501 -0.25189656324E+03 -0.93287700451E+03  0.95942356349E+03  0.17127132531E+04  0.10388367192E+04 0.  0.
    9000010    2    1    2  502    0  0.25189656324E+03  0.93287700451E+03  0.93330815758E+03  0.16714643208E+04  0.99449357693E+03 0.  0.
        -13    1    4    4    0    0  0.73627668057E+02  0.10829339444E+04  0.53527880861E+03  0.12102439322E+04  0.10566000000E+00 0.  1.
          4    1    4    4  502    0  0.17826889518E+03 -0.15005693986E+03  0.39802934897E+03  0.46122038857E+03  0.00000000000E+00 0.  1.
         13    1    3    3    0    0  0.14743758368E+03 -0.87717741444E+03  0.29798162404E+03  0.93806775710E+03  0.10566000000E+00 0. -1.
         -4    1    3    3    0  501 -0.39933414692E+03 -0.55699590064E+02  0.66144193945E+03  0.77464549601E+03  0.00000000000E+00 0. -1.
<mgrwt>
<rscale>  0 0.14026028E+04</rscale>
<asrwt>0</asrwt>
<pdfrwt beam="1">  1        4 0.40591610E+00 0.13866250E+04</pdfrwt>
<pdfrwt beam="2">  1       -4 0.11472661E+00 0.14187646E+04</pdfrwt>
<totfact> 0.10097973E-01</totfact>
</mgrwt>
</event>
<event>
 8    1  0.3025584E-006  0.1094795E+04  0.7818608E-02  0.8697235E-01
          4   -1    0    0  502    0  0.00000000000E+00  0.00000000000E+00  0.17731040897E+04  0.17731040897E+04  0.00000000000E+00 0.  1.
         -4   -1    0    0    0  501 -0.00000000000E+00 -0.00000000000E+00 -0.80426266459E+03  0.80426266459E+03  0.00000000000E+00 0. -1.
   -9000010    2    1    2    0  501 -0.38874973147E+03  0.21670182855E+03 -0.53054543658E+02  0.10797531501E+04  0.98232685213E+03 0.  0.
    9000010    2    1    2  502    0  0.38874973147E+03 -0.21670182855E+03  0.10218959688E+04  0.14976136042E+04  0.10002445202E+04 0.  0.
        -13    1    4    4    0    0 -0.26389454310E+03 -0.16560957186E+03  0.70402007621E+03  0.76987735325E+03  0.10566000000E+00 0.  1.
          4    1    4    4  502    0  0.65264427457E+03 -0.51092256693E+02  0.31787589256E+03  0.72773625092E+03  0.00000000000E+00 0.  1.
         13    1    3    3    0    0  0.94567917205E+02  0.31894440482E+03 -0.36628495393E+03  0.49480632875E+03  0.10566000000E+00 0. -1.
         -4    1    3    3    0  501 -0.48331764868E+03 -0.10224257627E+03  0.31323041028E+03  0.58494682139E+03  0.00000000000E+00 0. -1.
<mgrwt>
<rscale>  0 0.10865910E+04</rscale>
<asrwt>0</asrwt>
<pdfrwt beam="1">  1        4 0.27278524E+00 0.10947946E+04</pdfrwt>
<pdfrwt beam="2">  1       -4 0.12373272E+00 0.10784489E+04</pdfrwt>
<totfact> 0.24172107E-01</totfact>
</mgrwt>
</event>
<event>
 8    1  0.3025584E-006  0.1121300E+04  0.7818608E-02  0.8670604E-01
          4   -1    0    0  502    0  0.00000000000E+00  0.00000000000E+00  0.17592159961E+04  0.17592159961E+04  0.00000000000E+00 0.  1.
         -4   -1    0    0    0  501 -0.00000000000E+00 -0.00000000000E+00 -0.29609160917E+04  0.29609160917E+04  0.00000000000E+00 0. -1.
   -9000010    2    1    2    0  501 -0.20976732648E+03  0.43198389260E+03 -0.26584341883E+04  0.28852359973E+04  0.10132630515E+04 0.  0.
    9000010    2    1    2  502    0  0.20976732648E+03 -0.43198389260E+03  0.14567340927E+04  0.18348960905E+04  0.10070536389E+04 0.  0.
        -13    1    4    4    0    0 -0.50347275634E+02  0.29533048892E+03  0.66198543045E+03  0.72662209376E+03  0.10566000000E+00 0.  1.
          4    1    4    4  502    0  0.26011460211E+03 -0.72731438152E+03  0.79474866223E+03  0.11082739968E+04  0.00000000000E+00 0.  1.
         13    1    3    3    0    0 -0.17519751454E+03  0.40800833429E+03 -0.32217917688E+03  0.54860222669E+03  0.10566000000E+00 0. -1.
         -4    1    3    3    0  501 -0.34569811940E+02  0.23975558313E+02 -0.23362550115E+04  0.23366337706E+04  0.00000000000E+00 0. -1.
<mgrwt>
<rscale>  0 0.11184928E+04</rscale>
<asrwt>0</asrwt>
<pdfrwt beam="1">  1        4 0.27064862E+00 0.11156924E+04</pdfrwt>
<pdfrwt beam="2">  1       -4 0.45552555E+00 0.11213003E+04</pdfrwt>
<totfact> 0.18315169E-02</totfact>
</mgrwt>
</event>
<event>
 8    1  0.3025584E-006  0.1607416E+04  0.7818608E-02  0.8351951E-01
          4   -1    0    0  502    0  0.00000000000E+00  0.00000000000E+00  0.21928546290E+04  0.21928546290E+04  0.00000000000E+00 0.  1.
         -4   -1    0    0    0  501 -0.00000000000E+00 -0.00000000000E+00 -0.11933653393E+04  0.11933653393E+04  0.00000000000E+00 0. -1.
   -9000010    2    1    2    0  501  0.37958541017E+03 -0.12089297861E+04  0.28240897303E+03  0.16320354112E+04  0.98903409658E+03 0.  0.
    9000010    2    1    2  502    0 -0.37958541017E+03  0.12089297861E+04  0.71708031673E+03  0.17541845571E+04  0.97844926712E+03 0.  0.
        -13    1    4    4    0    0  0.23217133385E+03  0.34853772907E+03 -0.86264064405E+02  0.42757873756E+03  0.10566000000E+00 0.  1.
          4    1    4    4  502    0 -0.61175674403E+03  0.86039205701E+03  0.80334438114E+03  0.13266058195E+04  0.00000000000E+00 0.  1.
         13    1    3    3    0    0  0.24199475778E+03 -0.56122647966E+03  0.63543147657E+03  0.88165174352E+03  0.10566000000E+00 0. -1.
         -4    1    3    3    0  501  0.13759065239E+03 -0.64770330641E+03 -0.35302250355E+03  0.75038366771E+03  0.00000000000E+00 0. -1.
<mgrwt>
<rscale>  0 0.16041667E+04</rscale>
<asrwt>0</asrwt>
<pdfrwt beam="1">  1        4 0.33736225E+00 0.16009245E+04</pdfrwt>
<pdfrwt beam="2">  1       -4 0.18359467E+00 0.16074156E+04</pdfrwt>
<totfact> 0.86722836E-02</totfact>
</mgrwt>
</event>
<event>
 8    1  0.3025584E-006  0.1055519E+04  0.7818608E-02  0.8740888E-01
         -4   -1    0    0    0  501 -0.00000000000E+00  0.00000000000E+00  0.18825921742E+04  0.18825921742E+04  0.00000000000E+00 0. -1.
          4   -1    0    0  502    0  0.00000000000E+00 -0.00000000000E+00 -0.25244033995E+04  0.25244033995E+04  0.00000000000E+00 0.  1.
   -9000010    2    1    2    0  501 -0.61570797571E+02  0.13807219909E+03  0.16160370795E+04  0.19302060809E+04  0.10446361937E+04 0.  0.
    9000010    2    1    2  502    0  0.61570797571E+02 -0.13807219909E+03 -0.22578483048E+04  0.24767894928E+04  0.10068526847E+04 0.  0.
        -13    1    4    4    0    0  0.44716866386E+03  0.20706886253E+03 -0.94826958185E+03  0.10686685823E+04  0.10566000000E+00 0.  1.
          4    1    4    4  502    0 -0.38559786629E+03 -0.34514106162E+03 -0.13095787230E+04  0.14081209105E+04  0.00000000000E+00 0.  1.
         13    1    3    3    0    0  0.10765601016E+03  0.14877672085E+03  0.17210085293E+04  0.17307786393E+04  0.10566000000E+00 0. -1.
         -4    1    3    3    0  501 -0.16922680773E+03 -0.10704521759E+02 -0.10497144972E+03  0.19942744169E+03  0.00000000000E+00 0. -1.
<mgrwt>
<rscale>  0 0.10366604E+04</rscale>
<asrwt>0</asrwt>
<pdfrwt beam="2">  1        4 0.38836975E+00 0.10181391E+04</pdfrwt>
<pdfrwt beam="1">  1       -4 0.28962956E+00 0.10555187E+04</pdfrwt>
<totfact> 0.32085738E-02</totfact>
</mgrwt>
</event>
<event>
 8    1  0.3025584E-006  0.1713946E+04  0.7818608E-02  0.8296717E-01
          4   -1    0    0  502    0  0.00000000000E+00  0.00000000000E+00  0.13868837675E+04  0.13868837675E+04  0.00000000000E+00 0.  1.
         -4   -1    0    0    0  501 -0.00000000000E+00 -0.00000000000E+00 -0.21334130808E+04  0.21334130808E+04  0.00000000000E+00 0. -1.
   -9000010    2    1    2    0  501 -0.64776985236E+03  0.12290716743E+04 -0.20726958650E+03  0.17235184769E+04  0.99866525761E+03 0.  0.
    9000010    2    1    2  502    0  0.64776985236E+03 -0.12290716743E+04 -0.53925972676E+03  0.17967783713E+04  0.10036874517E+04 0.  0.
        -13    1    4    4    0    0  0.87202836391E+03 -0.10239799772E+04 -0.23241445583E+03  0.13649120674E+04  0.10566000000E+00 0.  1.
          4    1    4    4  502    0 -0.22425851155E+03 -0.20509169701E+03 -0.30684527094E+03  0.43186630394E+03  0.00000000000E+00 0.  1.
         13    1    3    3    0    0 -0.50554125775E+03  0.97769973051E+03 -0.58622514028E+03  0.12470479753E+04  0.10566000000E+00 0. -1.
         -4    1    3    3    0  501 -0.14222859461E+03  0.25137194376E+03  0.37895555378E+03  0.47647050168E+03  0.00000000000E+00 0. -1.
<mgrwt>
<rscale>  0 0.17124775E+04</rscale>
<asrwt>0</asrwt>
<pdfrwt beam="1">  1        4 0.21336673E+00 0.17139462E+04</pdfrwt>
<pdfrwt beam="2">  1       -4 0.32821740E+00 0.17110100E+04</pdfrwt>
<totfact> 0.75046375E-02</totfact>
</mgrwt>
</event>
<event>
 8    1  0.3025584E-006  0.1315666E+04  0.7818608E-02  0.8551638E-01
          4   -1    0    0  502    0  0.00000000000E+00  0.00000000000E+00  0.15554872892E+04  0.15554872892E+04  0.00000000000E+00 0.  1.
         -4   -1    0    0    0  501 -0.00000000000E+00 -0.00000000000E+00 -0.16219607545E+04  0.16219607545E+04  0.00000000000E+00 0. -1.
   -9000010    2    1    2    0  501  0.51047362171E+03  0.52469526149E+03 -0.97799383214E+03  0.15768707843E+04  0.99707627536E+03 0.  0.
    9000010    2    1    2  502    0 -0.51047362171E+03 -0.52469526149E+03  0.91152036688E+03  0.16005772594E+04  0.10932016046E+04 0.  0.
        -13    1    4    4    0    0 -0.82486956545E+03 -0.55985977615E+03  0.64983652568E+03  0.11900169286E+04  0.10566000000E+00 0.  1.
          4    1    4    4  502    0  0.31439594374E+03  0.35164514664E+02  0.26168384119E+03  0.41056033086E+03  0.00000000000E+00 0.  1.
         13    1    3    3    0    0  0.39753988584E+03  0.46175860308E+03 -0.11851929052E+04  0.13326444394E+04  0.10566000000E+00 0. -1.
         -4    1    3    3    0  501  0.11293373587E+03  0.62936658410E+02  0.20719907304E+03  0.24422634489E+03  0.00000000000E+00 0. -1.
<mgrwt>
<rscale>  0 0.12757021E+04</rscale>
<asrwt>0</asrwt>
<pdfrwt beam="1">  1        4 0.23930574E+00 0.13156664E+04</pdfrwt>
<pdfrwt beam="2">  1       -4 0.24953242E+00 0.12369517E+04</pdfrwt>
<totfact> 0.10700688E-01</totfact>
</mgrwt>
</event>
<event>
 8    1  0.3025584E-006  0.1103066E+04  0.7818608E-02  0.8687755E-01
          4   -1    0    0  502    0  0.00000000000E+00  0.00000000000E+00  0.38150056432E+03  0.38150056432E+03  0.00000000000E+00 0.  1.
         -4   -1    0    0    0  501 -0.00000000000E+00 -0.00000000000E+00 -0.37096157770E+04  0.37096157770E+04  0.00000000000E+00 0. -1.
   -9000010    2    1    2    0  501  0.43243430331E+03 -0.70056207804E+02 -0.24452382922E+04  0.26782378519E+04  0.10009297612E+04 0.  0.
    9000010    2    1    2  502    0 -0.43243430331E+03  0.70056207804E+02 -0.88287692051E+03  0.14128784894E+04  0.10123471095E+04 0.  0.
        -13    1    4    4    0    0 -0.56774706339E+02 -0.25990628279E+03  0.12032577299E+03  0.29198107117E+03  0.10566000000E+00 0.  1.
          4    1    4    4  502    0 -0.37565959697E+03  0.32996249060E+03 -0.10032026935E+04  0.11208974183E+04  0.00000000000E+00 0.  1.
         13    1    3    3    0    0  0.15633546247E+03  0.42125219369E+03 -0.60479096110E+03  0.75343633129E+03  0.10566000000E+00 0. -1.
         -4    1    3    3    0  501  0.27609884084E+03 -0.49130840149E+03 -0.18404473311E+04  0.19248015206E+04  0.00000000000E+00 0. -1.
<mgrwt>
<rscale>  0 0.10978188E+04</rscale>
<asrwt>0</asrwt>
<pdfrwt beam="1">  1        4 0.58692397E-01 0.11030657E+04</pdfrwt>
<pdfrwt beam="2">  1       -4 0.57071010E+00 0.10925968E+04</pdfrwt>
<totfact> 0.66191063E-02</totfact>
</mgrwt>
</event>
<event>
 8    1  0.3025584E-006  0.1113548E+04  0.7818608E-02  0.8674798E-01
         -4   -1    0    0    0  501 -0.00000000000E+00  0.00000000000E+00  0.16548247616E+04  0.16548247616E+04  0.00000000000E+00 0. -1.
          4   -1    0    0  502    0  0.00000000000E+00 -0.00000000000E+00 -0.13672370283E+04  0.13672370283E+04  0.00000000000E+00 0.  1.
   -9000010    2    1    2    0  501  0.41781694472E+03 -0.27634502250E+03  0.11597970193E+04  0.16078300355E+04  0.99451029470E+03 0.  0.
    9000010    2    1    2  502    0 -0.41781694472E+03  0.27634502250E+03 -0.87220928596E+03  0.14142317544E+04  0.99416540166E+03 0.  0.
        -13    1    4    4    0    0 -0.49311906482E+03  0.33764175151E+03 -0.10519953009E+04  0.12099018509E+04  0.10566000000E+00 0.  1.
          4    1    4    4  502    0  0.75302120108E+02 -0.61296729014E+02  0.17978601498E+03  0.20432990349E+03  0.00000000000E+00 0.  1.
         13    1    3    3    0    0 -0.88385220011E+02 -0.29926695383E+03  0.10418309467E+04  0.10875589131E+04  0.10566000000E+00 0. -1.
         -4    1    3    3    0  501  0.50620216473E+03  0.22921931333E+02  0.11796607262E+03  0.52027112239E+03  0.00000000000E+00 0. -1.
<mgrwt>
<rscale>  0 0.11133936E+04</rscale>
<asrwt>0</asrwt>
<pdfrwt beam="2">  1        4 0.21034416E+00 0.11132396E+04</pdfrwt>
<pdfrwt beam="1">  1       -4 0.25458843E+00 0.11135476E+04</pdfrwt>
<totfact> 0.12420885E-01</totfact>
</mgrwt>
</event>
<event>
 8    1  0.3025584E-006  0.1216536E+04  0.7818608E-02  0.8599593E-01
          4   -1    0    0  502    0  0.00000000000E+00  0.00000000000E+00  0.91884569676E+03  0.91884569676E+03  0.00000000000E+00 0.  1.
         -4   -1    0    0    0  501 -0.00000000000E+00 -0.00000000000E+00 -0.16953148757E+04  0.16953148757E+04  0.00000000000E+00 0. -1.
   -9000010    2    1    2    0  501  0.54907951239E+03  0.41067333522E+03 -0.71366419144E+03  0.14104170552E+04  0.10048974038E+04 0.  0.
    9000010    2    1    2  502    0 -0.54907951239E+03 -0.41067333522E+03 -0.62804987476E+02  0.12037435172E+04  0.98737687317E+03 0.  0.
        -13    1    4    4    0    0  0.16828974295E+03 -0.42110888464E+03  0.10815647660E+03  0.46621021536E+03  0.10566000000E+00 0.  1.
          4    1    4    4  502    0 -0.71736925534E+03  0.10435549421E+02 -0.17096146407E+03  0.73753330189E+03  0.00000000000E+00 0.  1.
         13    1    3    3    0    0  0.48152492226E+03 -0.25068048960E+03 -0.23674607839E+03  0.59224629625E+03  0.10566000000E+00 0. -1.
         -4    1    3    3    0  501  0.67554590131E+02  0.66135382482E+03 -0.47691811305E+03  0.81817075895E+03  0.00000000000E+00 0. -1.
<mgrwt>
<rscale>  0 0.12092984E+04</rscale>
<asrwt>0</asrwt>
<pdfrwt beam="1">  1        4 0.14136088E+00 0.12021040E+04</pdfrwt>
<pdfrwt beam="2">  1       -4 0.26081767E+00 0.12165359E+04</pdfrwt>
<totfact> 0.20747284E-01</totfact>
</mgrwt>
</event>
<event>
 8    1  0.3025584E-006  0.2349624E+04  0.7818608E-02  0.8040168E-01
         -4   -1    0    0    0  501 -0.00000000000E+00  0.00000000000E+00  0.25134626927E+04  0.25134626927E+04  0.00000000000E+00 0. -1.
          4   -1    0    0  502    0  0.00000000000E+00 -0.00000000000E+00 -0.24959881054E+04  0.24959881054E+04  0.00000000000E+00 0.  1.
   -9000010    2    1    2    0  501  0.29957066368E+03  0.21012070741E+04  0.88358961980E+03  0.25102713767E+04  0.10079275855E+04 0.  0.
    9000010    2    1    2  502    0 -0.29957066368E+03 -0.21012070741E+04 -0.86611503244E+03  0.24991794214E+04  0.99545405714E+03 0.  0.
        -13    1    4    4    0    0 -0.18056218088E+03 -0.10535096729E+04  0.94158573296E+02  0.10730103355E+04  0.10566000000E+00 0.  1.
          4    1    4    4  502    0 -0.11900848280E+03 -0.10476974012E+04 -0.96027360574E+03  0.14261690858E+04  0.00000000000E+00 0.  1.
         13    1    3    3    0    0  0.46891468420E+02  0.20529691120E+04  0.62737801408E+03  0.21472038023E+04  0.10566000000E+00 0. -1.
         -4    1    3    3    0  501  0.25267919526E+03  0.48237962104E+02  0.25621160572E+03  0.36306757445E+03  0.00000000000E+00 0. -1.
<mgrwt>
<rscale>  0 0.23469604E+04</rscale>
<asrwt>0</asrwt>
<pdfrwt beam="2">  1        4 0.38399817E+00 0.23443000E+04</pdfrwt>
<pdfrwt beam="1">  1       -4 0.38668657E+00 0.23496238E+04</pdfrwt>
<totfact> 0.14116389E-02</totfact>
</mgrwt>
</event>
<event>
 8    1  0.3025584E-006  0.1144787E+04  0.7818608E-02  0.8655511E-01
          4   -1    0    0  502    0  0.00000000000E+00  0.00000000000E+00  0.10506722633E+04  0.10506722633E+04  0.00000000000E+00 0.  1.
         -4   -1    0    0    0  501 -0.00000000000E+00 -0.00000000000E+00 -0.24876887502E+04  0.24876887502E+04  0.00000000000E+00 0. -1.
   -9000010    2    1    2    0  501 -0.30713889443E+03  0.49802297876E+03 -0.19737102267E+04  0.22740126576E+04  0.96604364292E+03 0.  0.
    9000010    2    1    2  502    0  0.30713889443E+03 -0.49802297876E+03  0.53669373969E+03  0.12643483560E+04  0.98395904749E+03 0.  0.
        -13    1    4    4    0    0  0.63332601151E+03 -0.12283795134E+03  0.34439892430E+03  0.73130132597E+03  0.10566000000E+00 0.  1.
          4    1    4    4  502    0 -0.32618711708E+03 -0.37518502742E+03  0.19229481538E+03  0.53304702998E+03  0.00000000000E+00 0.  1.
         13    1    3    3    0    0 -0.33528593536E+03 -0.21252466414E+03 -0.50619899042E+03  0.64328906440E+03  0.10566000000E+00 0. -1.
         -4    1    3    3    0  501  0.28147040932E+02  0.71054764290E+03 -0.14675112363E+04  0.16307235932E+04  0.00000000000E+00 0. -1.
<mgrwt>
<rscale>  0 0.11370801E+04</rscale>
<asrwt>0</asrwt>
<pdfrwt beam="1">  1        4 0.16164189E+00 0.11447867E+04</pdfrwt>
<pdfrwt beam="2">  1       -4 0.38272135E+00 0.11294253E+04</pdfrwt>
<totfact> 0.74197424E-02</totfact>
</mgrwt>
</event>
<event>
 8    1  0.3025584E-006  0.1337478E+04  0.7818608E-02  0.8519678E-01
         -4   -1    0    0    0  501 -0.00000000000E+00  0.00000000000E+00  0.65876148903E+03  0.65876148903E+03  0.00000000000E+00 0. -1.
          4   -1    0    0  502    0  0.00000000000E+00 -0.00000000000E+00 -0.33023552618E+04  0.33023552618E+04  0.00000000000E+00 0.  1.
   -9000010    2    1    2    0  501  0.36468073907E+03 -0.77386476605E+03 -0.43288478105E+03  0.13773051093E+04  0.98879796366E+03 0.  0.
    9000010    2    1    2  502    0 -0.36468073907E+03  0.77386476605E+03 -0.22107089917E+04  0.25838116415E+04  0.10281000122E+04 0.  0.
        -13    1    4    4    0    0 -0.46586858512E+03  0.14022558420E+03 -0.16864000335E+04  0.17551757283E+04  0.10566000000E+00 0.  1.
          4    1    4    4  502    0  0.10118784605E+03  0.63363918185E+03 -0.52430895823E+03  0.82863591320E+03  0.00000000000E+00 0.  1.
         13    1    3    3    0    0  0.22743681203E+03 -0.77651047281E+03  0.11068707470E+03  0.81666863385E+03  0.10566000000E+00 0. -1.
         -4    1    3    3    0  501  0.13724392704E+03  0.26457067573E+01 -0.54357185575E+03  0.56063647548E+03  0.00000000000E+00 0. -1.
<mgrwt>
<rscale>  0 0.13224088E+04</rscale>
<asrwt>0</asrwt>
<pdfrwt beam="2">  1        4 0.50805466E+00 0.13374784E+04</pdfrwt>
<pdfrwt beam="1">  1       -4 0.10134792E+00 0.13075091E+04</pdfrwt>
<totfact> 0.43469824E-02</totfact>
</mgrwt>
</event>
<event>
 8    1  0.3025584E-006  0.1092201E+04  0.7818608E-02  0.8694631E-01
         -4   -1    0    0    0  501 -0.00000000000E+00  0.00000000000E+00  0.21875264322E+04  0.21875264322E+04  0.00000000000E+00 0. -1.
          4   -1    0    0  502    0  0.00000000000E+00 -0.00000000000E+00 -0.91528237316E+03  0.91528237316E+03  0.00000000000E+00 0.  1.
   -9000010    2    1    2    0  501 -0.39471917356E+03 -0.12097969858E+03  0.16267048711E+04  0.19593548196E+04  0.10111692530E+04 0.  0.
    9000010    2    1    2  502    0  0.39471917356E+03  0.12097969858E+03 -0.35446081200E+03  0.11434539858E+04  0.10056864506E+04 0.  0.
        -13    1    4    4    0    0  0.45031257434E+02  0.50924917997E+03 -0.35239504332E+03  0.62092255489E+03  0.10566000000E+00 0.  1.
          4    1    4    4  502    0  0.34968791613E+03 -0.38826948139E+03 -0.20657686729E+01  0.52253143089E+03  0.00000000000E+00 0.  1.
         13    1    3    3    0    0 -0.37331745612E+03 -0.47629829171E+03  0.52360135386E+03  0.80024019810E+03  0.10566000000E+00 0. -1.
         -4    1    3    3    0  501 -0.21401717443E+02  0.35531859313E+03  0.11031035172E+04  0.11591146215E+04  0.00000000000E+00 0. -1.
<mgrwt>
<rscale>  0 0.10896608E+04</rscale>
<asrwt>0</asrwt>
<pdfrwt beam="2">  1        4 0.14081267E+00 0.10871267E+04</pdfrwt>
<pdfrwt beam="1">  1       -4 0.33654253E+00 0.10922008E+04</pdfrwt>
<totfact> 0.13202733E-01</totfact>
</mgrwt>
</event>
<event>
 8    1  0.3025584E-006  0.1023507E+04  0.7818608E-02  0.8761242E-01
         -4   -1    0    0    0  501 -0.00000000000E+00  0.00000000000E+00  0.36068699326E+04  0.36068699326E+04  0.00000000000E+00 0. -1.
          4   -1    0    0  502    0  0.00000000000E+00 -0.00000000000E+00 -0.12149107816E+04  0.12149107816E+04  0.00000000000E+00 0.  1.
   -9000010    2    1    2    0  501  0.67971920756E+02  0.17934183711E+03  0.33023576923E+04  0.34519660880E+04  0.98677245033E+03 0.  0.
    9000010    2    1    2  502    0 -0.67971920756E+02 -0.17934183711E+03 -0.91039854130E+03  0.13698146262E+04  0.10053770087E+04 0.  0.
        -13    1    4    4    0    0  0.37706094610E+03  0.90255240006E+02 -0.71624171230E+03  0.81444654031E+03  0.10566000000E+00 0.  1.
          4    1    4    4  502    0 -0.44503286686E+03 -0.26959707712E+03 -0.19415682900E+03  0.55536808589E+03  0.00000000000E+00 0.  1.
         13    1    3    3    0    0  0.33343886338E+03  0.25675168919E+03  0.30458675317E+04  0.30748027477E+04  0.10566000000E+00 0. -1.
         -4    1    3    3    0  501 -0.26546694262E+03 -0.77409852074E+02  0.25649016059E+03  0.37716334034E+03  0.00000000000E+00 0. -1.
<mgrwt>
<rscale>  0 0.10143314E+04</rscale>
<asrwt>0</asrwt>
<pdfrwt beam="2">  1        4 0.18690935E+00 0.10235070E+04</pdfrwt>
<pdfrwt beam="1">  1       -4 0.55490306E+00 0.10052381E+04</pdfrwt>
<totfact> 0.10235730E-02</totfact>
</mgrwt>
</event>
<event>
 8    1  0.3025584E-006  0.1030917E+04  0.7818608E-02  0.8751763E-01
         -4   -1    0    0    0  501 -0.00000000000E+00  0.00000000000E+00  0.18711816826E+04  0.18711816826E+04  0.00000000000E+00 0. -1.
          4   -1    0    0  502    0  0.00000000000E+00 -0.00000000000E+00 -0.56117157451E+03  0.56117157451E+03  0.00000000000E+00 0.  1.
   -9000010    2    1    2    0  501  0.16186930273E+03 -0.19778571144E+03  0.67046496639E+03  0.12297615552E+04  0.99873387476E+03 0.  0.
    9000010    2    1    2  502    0 -0.16186930273E+03  0.19778571144E+03  0.63954514170E+03  0.12025917019E+04  0.98584377792E+03 0.  0.
        -13    1    4    4    0    0  0.33606846189E+03 -0.19109376273E+03  0.23781347118E+03  0.45388775647E+03  0.10566000000E+00 0.  1.
          4    1    4    4  502    0 -0.49793776462E+03  0.38887947416E+03  0.40173167052E+03  0.74870394546E+03  0.00000000000E+00 0.  1.
         13    1    3    3    0    0  0.22660642599E+03  0.38381784181E+03  0.29091424862E+03  0.53225719272E+03  0.10566000000E+00 0. -1.
         -4    1    3    3    0  501 -0.64737123263E+02 -0.58160355324E+03  0.37955071777E+03  0.69750436245E+03  0.00000000000E+00 0. -1.
<mgrwt>
<rscale>  0 0.10246568E+04</rscale>
<asrwt>0</asrwt>
<pdfrwt beam="2">  1        4 0.86334089E-01 0.10184345E+04</pdfrwt>
<pdfrwt beam="1">  1       -4 0.28787410E+00 0.10309172E+04</pdfrwt>
<totfact> 0.43300094E-01</totfact>
</mgrwt>
</event>
<event>
 8    1  0.3025584E-006  0.1304457E+04  0.7818608E-02  0.8538434E-01
          4   -1    0    0  502    0  0.00000000000E+00  0.00000000000E+00  0.23131278102E+04  0.23131278102E+04  0.00000000000E+00 0.  1.
         -4   -1    0    0    0  501 -0.00000000000E+00 -0.00000000000E+00 -0.92107183529E+03  0.92107183529E+03  0.00000000000E+00 0. -1.
   -9000010    2    1    2    0  501 -0.12230865828E+03 -0.80769393091E+03 -0.46410339771E+02  0.13052818432E+04  0.10169945313E+04 0.  0.
    9000010    2    1    2  502    0  0.12230865828E+03  0.80769393091E+03  0.14384663147E+04  0.19289178023E+04  0.99207341238E+03 0.  0.
        -13    1    4    4    0    0 -0.37596228502E+03  0.65374316845E+02  0.54176269583E+03  0.66266754170E+03  0.10566000000E+00 0.  1.
          4    1    4    4  502    0  0.49827094329E+03  0.74231961407E+03  0.89670361882E+03  0.12662502606E+04  0.00000000000E+00 0.  1.
         13    1    3    3    0    0 -0.28923011311E+03 -0.88412805390E+03 -0.31309707297E+03  0.98151223237E+03  0.10566000000E+00 0. -1.
         -4    1    3    3    0  501  0.16692145483E+03  0.76434122985E+02  0.26668673320E+03  0.32376961084E+03  0.00000000000E+00 0. -1.
<mgrwt>
<rscale>  0 0.12947532E+04</rscale>
<asrwt>0</asrwt>
<pdfrwt beam="1">  1        4 0.35586581E+00 0.12851220E+04</pdfrwt>
<pdfrwt beam="2">  1       -4 0.14170336E+00 0.13044565E+04</pdfrwt>
<totfact> 0.11163408E-01</totfact>
</mgrwt>
</event>
<event>
 8    1  0.3025584E-006  0.1341591E+04  0.7818608E-02  0.8507282E-01
          4   -1    0    0  502    0  0.00000000000E+00  0.00000000000E+00  0.24401089401E+04  0.24401089401E+04  0.00000000000E+00 0.  1.
         -4   -1    0    0    0  501 -0.00000000000E+00 -0.00000000000E+00 -0.18008836349E+04  0.18008836349E+04  0.00000000000E+00 0. -1.
   -9000010    2    1    2    0  501 -0.58933420372E+03 -0.65509724187E+03 -0.13101235113E+04  0.18751776419E+04  0.10116325291E+04 0.  0.
    9000010    2    1    2  502    0  0.58933420372E+03  0.65509724187E+03  0.19493488165E+04  0.23658149331E+04  0.10102733736E+04 0.  0.
        -13    1    4    4    0    0  0.71124555623E+03  0.44820806897E+03  0.70107768548E+03  0.10946554922E+04  0.10566000000E+00 0.  1.
          4    1    4    4  502    0 -0.12191135250E+03  0.20688917291E+03  0.12482711310E+04  0.12711594409E+04  0.00000000000E+00 0.  1.
         13    1    3    3    0    0 -0.57358025192E+03 -0.74366231906E+03 -0.50746947888E+03  0.10674985870E+04  0.10566000000E+00 0. -1.
         -4    1    3    3    0  501 -0.15753951805E+02  0.88565077183E+02 -0.80265403243E+03  0.80767905487E+03  0.00000000000E+00 0. -1.
<mgrwt>
<rscale>  0 0.13410790E+04</rscale>
<asrwt>0</asrwt>
<pdfrwt beam="1">  1        4 0.37540138E+00 0.13405669E+04</pdfrwt>
<pdfrwt beam="2">  1       -4 0.27705902E+00 0.13415914E+04</pdfrwt>
<totfact> 0.37222546E-02</totfact>
</mgrwt>
</event>
<event>
 8    1  0.3025584E-006  0.1068614E+04  0.7818608E-02  0.8719677E-01
          4   -1    0    0  502    0  0.00000000000E+00  0.00000000000E+00  0.13888018975E+04  0.13888018975E+04  0.00000000000E+00 0.  1.
         -4   -1    0    0    0  501 -0.00000000000E+00 -0.00000000000E+00 -0.15317233684E+04  0.15317233684E+04  0.00000000000E+00 0. -1.
   -9000010    2    1    2    0  501  0.30465590932E+03 -0.10749704634E+03 -0.10741305206E+04  0.15151540982E+04  0.10186092126E+04 0.  0.
    9000010    2    1    2  502    0 -0.30465590932E+03  0.10749704634E+03  0.93120904969E+03  0.14053711676E+04  0.10017719234E+04 0.  0.
        -13    1    4    4    0    0  0.25893705788E+03  0.25407481129E+03  0.75882098284E+02  0.37062179331E+03  0.10566000000E+00 0.  1.
          4    1    4    4  502    0 -0.56359296720E+03 -0.14657776494E+03  0.85532695140E+03  0.10347493743E+04  0.00000000000E+00 0.  1.
         13    1    3    3    0    0  0.40368875128E+03  0.37912151502E+03 -0.42623879697E+03  0.69883993466E+03  0.10566000000E+00 0. -1.
         -4    1    3    3    0  501 -0.99032841963E+02 -0.48661856137E+03 -0.64789172364E+03  0.81631416355E+03  0.00000000000E+00 0. -1.
<mgrwt>
<rscale>  0 0.10605650E+04</rscale>
<asrwt>0</asrwt>
<pdfrwt beam="1">  1        4 0.21366183E+00 0.10525768E+04</pdfrwt>
<pdfrwt beam="2">  1       -4 0.23564975E+00 0.10686139E+04</pdfrwt>
<totfact> 0.13547314E-01</totfact>
</mgrwt>
</event>
<event>
 8    1  0.3025584E-006  0.1030979E+04  0.7818608E-02  0.8749673E-01
          4   -1    0    0  502    0  0.00000000000E+00  0.00000000000E+00  0.27527321737E+04  0.27527321737E+04  0.00000000000E+00 0.  1.
         -4   -1    0    0    0  501 -0.00000000000E+00 -0.00000000000E+00 -0.98918176086E+03  0.98918176086E+03  0.00000000000E+00 0. -1.
   -9000010    2    1    2    0  501 -0.11814548884E+03 -0.12702479904E+03 -0.58135854035E+03  0.11835939791E+04  0.10162791441E+04 0.  0.
    9000010    2    1    2  502    0  0.11814548884E+03  0.12702479904E+03  0.23449089532E+04  0.25583199555E+04  0.10081216889E+04 0.  0.
        -13    1    4    4    0    0 -0.36990904116E+03 -0.73143208513E+02  0.42919675114E+03  0.57130770172E+03  0.10566000000E+00 0.  1.
          4    1    4    4  502    0  0.48805453001E+03  0.20016800755E+03  0.19157122020E+04  0.19870122537E+04  0.00000000000E+00 0.  1.
         13    1    3    3    0    0 -0.16889419794E+03 -0.27277183381E+03  0.20598973493E+03  0.38126303975E+03  0.10566000000E+00 0. -1.
         -4    1    3    3    0  501  0.50748709098E+02  0.14574703477E+03 -0.78734827528E+03  0.80233093933E+03  0.00000000000E+00 0. -1.
<mgrwt>
<rscale>  0 0.10269507E+04</rscale>
<asrwt>0</asrwt>
<pdfrwt beam="1">  1        4 0.42349725E+00 0.10229384E+04</pdfrwt>
<pdfrwt beam="2">  1       -4 0.15218181E+00 0.10309786E+04</pdfrwt>
<totfact> 0.56182760E-02</totfact>
</mgrwt>
</event>
<event>
 8    1  0.3025584E-006  0.1185826E+04  0.7818608E-02  0.8626162E-01
          4   -1    0    0  502    0  0.00000000000E+00  0.00000000000E+00  0.32041701856E+04  0.32041701856E+04  0.00000000000E+00 0.  1.
         -4   -1    0    0    0  501 -0.00000000000E+00 -0.00000000000E+00 -0.76538853427E+03  0.76538853427E+03  0.00000000000E+00 0. -1.
   -9000010    2    1    2    0  501 -0.16565201098E+03 -0.60032286953E+03 -0.86909263349E+02  0.11890067770E+04  0.10091361450E+04 0.  0.
    9000010    2    1    2  502    0  0.16565201098E+03  0.60032286953E+03  0.25256909146E+04  0.27805519429E+04  0.98210303653E+03 0.  0.
        -13    1    4    4    0    0  0.15407891493E+03 -0.22460384320E+03  0.11013561819E+04  0.11345363145E+04  0.10566000000E+00 0.  1.
          4    1    4    4  502    0  0.11573096053E+02  0.82492671273E+03  0.14243347328E+04  0.16460156284E+04  0.00000000000E+00 0.  1.
         13    1    3    3    0    0 -0.85140363212E+01 -0.26747346335E+03  0.45857834120E+03  0.53095070260E+03  0.10566000000E+00 0. -1.
         -4    1    3    3    0  501 -0.15713797466E+03 -0.33284940618E+03 -0.54548760455E+03  0.65805607435E+03  0.00000000000E+00 0. -1.
<mgrwt>
<rscale>  0 0.11743111E+04</rscale>
<asrwt>0</asrwt>
<pdfrwt beam="1">  1        4 0.49294925E+00 0.11629078E+04</pdfrwt>
<pdfrwt beam="2">  1       -4 0.11775208E+00 0.11858263E+04</pdfrwt>
<totfact> 0.39635553E-02</totfact>
</mgrwt>
</event>
<event>
 8    1  0.3025584E-006  0.1199563E+04  0.7818608E-02  0.8611338E-01
          4   -1    0    0  502    0  0.00000000000E+00  0.00000000000E+00  0.16447020143E+04  0.16447020143E+04  0.00000000000E+00 0.  1.
         -4   -1    0    0    0  501 -0.00000000000E+00 -0.00000000000E+00 -0.16319109900E+04  0.16319109900E+04  0.00000000000E+00 0. -1.
   -9000010    2    1    2    0  501  0.67116154977E+03 -0.32192996525E+02 -0.11157204729E+04  0.16296493402E+04  0.97950527476E+03 0.  0.
    9000010    2    1    2  502    0 -0.67116154977E+03  0.32192996525E+02  0.11285114971E+04  0.16469636641E+04  0.99370865800E+03 0.  0.
        -13    1    4    4    0    0 -0.57659295760E+02 -0.36884698981E+03  0.10450957533E+03  0.38767893775E+03  0.10566000000E+00 0.  1.
          4    1    4    4  502    0 -0.61350225402E+03  0.40103998633E+03  0.10240019218E+04  0.12592847264E+04  0.00000000000E+00 0.  1.
         13    1    3    3    0    0  0.33082180209E+03  0.42159702038E+03 -0.84624540681E+03  0.10016578318E+04  0.10566000000E+00 0. -1.
         -4    1    3    3    0  501  0.34033974768E+03 -0.45379001690E+03 -0.26947506609E+03  0.62799150833E+03  0.00000000000E+00 0. -1.
<mgrwt>
<rscale>  0 0.11936788E+04</rscale>
<asrwt>0</asrwt>
<pdfrwt beam="1">  1        4 0.25303108E+00 0.11995629E+04</pdfrwt>
<pdfrwt beam="2">  1       -4 0.25106323E+00 0.11878236E+04</pdfrwt>
<totfact> 0.98868676E-02</totfact>
</mgrwt>
</event>
<event>
 8    1  0.3025584E-006  0.1183134E+04  0.7818608E-02  0.8630632E-01
         -4   -1    0    0    0  501 -0.00000000000E+00  0.00000000000E+00  0.17533306694E+04  0.17533306694E+04  0.00000000000E+00 0. -1.
          4   -1    0    0  502    0  0.00000000000E+00 -0.00000000000E+00 -0.81321095883E+03  0.81321095883E+03  0.00000000000E+00 0.  1.
   -9000010    2    1    2    0  501  0.41402702193E+03  0.46000603078E+03  0.73913156122E+03  0.13950341842E+04  0.10083555856E+04 0.  0.
    9000010    2    1    2  502    0 -0.41402702193E+03 -0.46000603078E+03  0.20098814935E+03  0.11715074440E+04  0.97417120262E+03 0.  0.
        -13    1    4    4    0    0 -0.16114001280E+03 -0.72440197786E+03 -0.23105771360E+02  0.74246765390E+03  0.10566000000E+00 0.  1.
          4    1    4    4  502    0 -0.25288700913E+03  0.26439594708E+03  0.22409392071E+03  0.42903979013E+03  0.00000000000E+00 0.  1.
         13    1    3    3    0    0  0.86793102978E+02  0.50435444129E+03  0.89413888666E+03  0.10302382273E+04  0.10566000000E+00 0. -1.
         -4    1    3    3    0  501  0.32723391895E+03 -0.44348410513E+02 -0.15500732544E+03  0.36479595690E+03  0.00000000000E+00 0. -1.
<mgrwt>
<rscale>  0 0.11685456E+04</rscale>
<asrwt>0</asrwt>
<pdfrwt beam="2">  1        4 0.12510938E+00 0.11541375E+04</pdfrwt>
<pdfrwt beam="1">  1       -4 0.26974318E+00 0.11831335E+04</pdfrwt>
<totfact> 0.24054097E-01</totfact>
</mgrwt>
</event>
<event>
 8    1  0.3025584E-006  0.1806146E+04  0.7818608E-02  0.8253290E-01
          4   -1    0    0  502    0  0.00000000000E+00  0.00000000000E+00  0.18027789687E+04  0.18027789687E+04  0.00000000000E+00 0.  1.
         -4   -1    0    0    0  501 -0.00000000000E+00 -0.00000000000E+00 -0.23866422175E+04  0.23866422175E+04  0.00000000000E+00 0. -1.
   -9000010    2    1    2    0  501 -0.21431769860E+03 -0.14758435341E+04 -0.13263445766E+04  0.22408373761E+04  0.10188797756E+04 0.  0.
    9000010    2    1    2  502    0  0.21431769860E+03  0.14758435341E+04  0.74248132773E+03  0.19485838101E+04  0.10107690784E+04 0.  0.
        -13    1    4    4    0    0  0.69660094946E+02  0.15583104852E+04  0.82295565485E+03  0.17636439885E+04  0.10566000000E+00 0.  1.
          4    1    4    4  502    0  0.14465760365E+03 -0.82466951050E+02 -0.80474327119E+02  0.18493982166E+03  0.00000000000E+00 0.  1.
         13    1    3    3    0    0  0.12743681482E+03 -0.31081809564E+03  0.11611247343E+03  0.35542952607E+03  0.10566000000E+00 0. -1.
         -4    1    3    3    0  501 -0.34175451342E+03 -0.11650254385E+04 -0.14424570500E+04  0.18854078500E+04  0.00000000000E+00 0. -1.
<mgrwt>
<rscale>  0 0.18038628E+04</rscale>
<asrwt>0</asrwt>
<pdfrwt beam="1">  1        4 0.27735061E+00 0.18015827E+04</pdfrwt>
<pdfrwt beam="2">  1       -4 0.36717572E+00 0.18061457E+04</pdfrwt>
<totfact> 0.38199942E-02</totfact>
</mgrwt>
</event>
<event>
 8    1  0.3025584E-006  0.1032819E+04  0.7818608E-02  0.8765969E-01
         -4   -1    0    0    0  501 -0.00000000000E+00  0.00000000000E+00  0.20449424001E+04  0.20449424001E+04  0.00000000000E+00 0. -1.
          4   -1    0    0  502    0  0.00000000000E+00 -0.00000000000E+00 -0.11717038157E+04  0.11717038157E+04  0.00000000000E+00 0.  1.
   -9000010    2    1    2    0  501  0.23415644214E+03  0.12008302333E+03  0.16514272295E+04  0.19234744819E+04  0.95041728531E+03 0.  0.
    9000010    2    1    2  502    0 -0.23415644214E+03 -0.12008302333E+03 -0.77818864517E+03  0.12931717339E+04  0.99873239357E+03 0.  0.
        -13    1    4    4    0    0 -0.14748494052E+02 -0.21873278051E+03 -0.96437071049E+03  0.98897544245E+03  0.10566000000E+00 0.  1.
          4    1    4    4  502    0 -0.21940794809E+03  0.98649757186E+02  0.18618206532E+03  0.30419629144E+03  0.00000000000E+00 0.  1.
         13    1    3    3    0    0  0.25050389310E+03 -0.35557515090E+03  0.42579336302E+03  0.60867551910E+03  0.10566000000E+00 0. -1.
         -4    1    3    3    0  501 -0.16347450964E+02  0.47565817422E+03  0.12256338665E+04  0.13147989628E+04  0.00000000000E+00 0. -1.
<mgrwt>
<rscale>  0 0.10092280E+04</rscale>
<asrwt>0</asrwt>
<pdfrwt beam="2">  1        4 0.18026213E+00 0.10328192E+04</pdfrwt>
<pdfrwt beam="1">  1       -4 0.31460652E+00 0.98617554E+03</pdfrwt>
<totfact> 0.10795458E-01</totfact>
</mgrwt>
</event>
<event>
 8    1  0.3025584E-006  0.1200230E+04  0.7818608E-02  0.8608811E-01
          4   -1    0    0  502    0  0.00000000000E+00  0.00000000000E+00  0.74954120313E+03  0.74954120313E+03  0.00000000000E+00 0.  1.
         -4   -1    0    0    0  501 -0.00000000000E+00 -0.00000000000E+00 -0.21657107730E+04  0.21657107730E+04  0.00000000000E+00 0. -1.
   -9000010    2    1    2    0  501 -0.57299670828E+01  0.66736291933E+03 -0.12090030004E+04  0.17035964702E+04  0.99757033822E+03 0.  0.
    9000010    2    1    2  502    0  0.57299670828E+01 -0.66736291933E+03 -0.20716656948E+03  0.12116555059E+04  0.98984088567E+03 0.  0.
        -13    1    4    4    0    0  0.34696785831E+03  0.93040662897E+02 -0.38322501706E+02  0.36126428685E+03  0.10566000000E+00 0.  1.
          4    1    4    4  502    0 -0.34123789123E+03 -0.76040358223E+03 -0.16884406778E+03  0.85039121908E+03  0.00000000000E+00 0.  1.
         13    1    3    3    0    0 -0.27132597105E+03  0.62624526099E+03 -0.28207194294E+03  0.73848866046E+03  0.10566000000E+00 0. -1.
         -4    1    3    3    0  501  0.26559600397E+03  0.41117658339E+02 -0.92693105744E+03  0.96510780972E+03  0.00000000000E+00 0. -1.
<mgrwt>
<rscale>  0 0.11970177E+04</rscale>
<asrwt>0</asrwt>
<pdfrwt beam="1">  1        4 0.11531403E+00 0.11938137E+04</pdfrwt>
<pdfrwt beam="2">  1       -4 0.33318627E+00 0.12002303E+04</pdfrwt>
<totfact> 0.18548447E-01</totfact>
</mgrwt>
</event>
<event>
 8    1  0.3025584E-006  0.1123933E+04  0.7818608E-02  0.8666645E-01
          4   -1    0    0  502    0  0.00000000000E+00  0.00000000000E+00  0.26062925906E+04  0.26062925906E+04  0.00000000000E+00 0.  1.
         -4   -1    0    0    0  501 -0.00000000000E+00 -0.00000000000E+00 -0.77007787885E+03  0.77007787885E+03  0.00000000000E+00 0. -1.
   -9000010    2    1    2    0  501 -0.34166668296E+02 -0.51589485678E+03 -0.11023825541E+03  0.11293263535E+04  0.99795324305E+03 0.  0.
    9000010    2    1    2  502    0  0.34166668296E+02  0.51589485678E+03  0.19464529672E+04  0.22470441159E+04  0.99660084340E+03 0.  0.
        -13    1    4    4    0    0  0.46782622802E+03  0.50319726815E+03  0.11301768120E+04  0.13226369524E+04  0.10566000000E+00 0.  1.
          4    1    4    4  502    0 -0.43365955972E+03  0.12697588629E+02  0.81627615517E+03  0.92440716353E+03  0.00000000000E+00 0.  1.
         13    1    3    3    0    0 -0.15516849042E+03 -0.70739643128E+03 -0.34578414407E+03  0.80252953644E+03  0.10566000000E+00 0. -1.
         -4    1    3    3    0  501  0.12100182213E+03  0.19150157449E+03  0.23554588866E+03  0.32679681708E+03  0.00000000000E+00 0. -1.
<mgrwt>
<rscale>  0 0.11233326E+04</rscale>
<asrwt>0</asrwt>
<pdfrwt beam="1">  1        4 0.40096809E+00 0.11227324E+04</pdfrwt>
<pdfrwt beam="2">  1       -4 0.11847352E+00 0.11239331E+04</pdfrwt>
<totfact> 0.10197698E-01</totfact>
</mgrwt>
</event>
<event>
 8    1  0.3025584E-006  0.1125259E+04  0.7818608E-02  0.8667656E-01
          4   -1    0    0  502    0  0.00000000000E+00  0.00000000000E+00  0.21653216799E+04  0.21653216799E+04  0.00000000000E+00 0.  1.
         -4   -1    0    0    0  501 -0.00000000000E+00 -0.00000000000E+00 -0.14031979931E+04  0.14031979931E+04  0.00000000000E+00 0. -1.
   -9000010    2    1    2    0  501  0.37045992467E+03 -0.34789389777E+03 -0.98477525776E+03  0.14905724253E+04  0.99687167016E+03 0.  0.
    9000010    2    1    2  502    0 -0.37045992467E+03  0.34789389777E+03  0.17468989445E+04  0.20779472478E+04  0.10039612155E+04 0.  0.
        -13    1    4    4    0    0  0.28569314086E+03  0.29478011165E+03  0.10077344349E+04  0.10881381289E+04  0.10566000000E+00 0.  1.
          4    1    4    4  502    0 -0.65615306553E+03  0.53113786126E+02  0.73916450957E+03  0.98980911891E+03  0.00000000000E+00 0.  1.
         13    1    3    3    0    0 -0.32833378366E+03 -0.22170916548E+03 -0.24849043225E+03  0.46765963439E+03  0.10566000000E+00 0. -1.
         -4    1    3    3    0  501  0.69879370833E+03 -0.12618473229E+03 -0.73628482551E+03  0.10229127909E+04  0.00000000000E+00 0. -1.
<mgrwt>
<rscale>  0 0.11220946E+04</rscale>
<asrwt>0</asrwt>
<pdfrwt beam="1">  1        4 0.33312641E+00 0.11252595E+04</pdfrwt>
<pdfrwt beam="2">  1       -4 0.21587661E+00 0.11189387E+04</pdfrwt>
<totfact> 0.74718330E-02</totfact>
</mgrwt>
</event>
<event>
 8    1  0.3025584E-006  0.1327398E+04  0.7818608E-02  0.8517017E-01
          4   -1    0    0  502    0  0.00000000000E+00  0.00000000000E+00  0.37654812256E+04  0.37654812256E+04  0.00000000000E+00 0.  1.
         -4   -1    0    0    0  501 -0.00000000000E+00 -0.00000000000E+00 -0.10549465017E+04  0.10549465017E+04  0.00000000000E+00 0. -1.
   -9000010    2    1    2    0  501  0.37621841236E+03 -0.79115457738E+03 -0.44417359748E+03  0.13978309082E+04  0.99457287522E+03 0.  0.
    9000010    2    1    2  502    0 -0.37621841236E+03  0.79115457738E+03  0.31547083213E+04  0.34225968191E+04  0.99725550091E+03 0.  0.
        -13    1    4    4    0    0 -0.68059669171E+03  0.46296556295E+03  0.24789620735E+04  0.26120493759E+04  0.10566000000E+00 0.  1.
          4    1    4    4  502    0  0.30437827935E+03  0.32818901444E+03  0.67574624786E+03  0.81054744317E+03  0.00000000000E+00 0.  1.
         13    1    3    3    0    0  0.13478178994E+03 -0.99464881115E+03 -0.39310562787E+03  0.10779723717E+04  0.10566000000E+00 0. -1.
         -4    1    3    3    0  501  0.24143662242E+03  0.20349423377E+03 -0.51067969616E+02  0.31985853646E+03  0.00000000000E+00 0. -1.
<mgrwt>
<rscale>  0 0.13263901E+04</rscale>
<asrwt>0</asrwt>
<pdfrwt beam="1">  1        4 0.57930480E+00 0.13273976E+04</pdfrwt>
<pdfrwt beam="2">  1       -4 0.16229946E+00 0.13253834E+04</pdfrwt>
<totfact> 0.87381001E-03</totfact>
</mgrwt>
</event>
<event>
 8    1  0.3025584E-006  0.1213114E+04  0.7818608E-02  0.8605585E-01
         -4   -1    0    0    0  501 -0.00000000000E+00  0.00000000000E+00  0.17886447346E+04  0.17886447346E+04  0.00000000000E+00 0. -1.
          4   -1    0    0  502    0  0.00000000000E+00 -0.00000000000E+00 -0.96831254503E+03  0.96831254503E+03  0.00000000000E+00 0.  1.
   -9000010    2    1    2    0  501  0.54100404978E+03 -0.43207177238E+03  0.97629774853E+03  0.15571781052E+04  0.99612999111E+03 0.  0.
    9000010    2    1    2  502    0 -0.54100404978E+03  0.43207177238E+03 -0.15596555893E+03  0.11997791745E+04  0.96735382023E+03 0.  0.
        -13    1    4    4    0    0 -0.16476097875E+03  0.15250206237E+03 -0.54576555121E+03  0.59013821025E+03  0.10566000000E+00 0.  1.
          4    1    4    4  502    0 -0.37624307104E+03  0.27956971001E+03  0.38979999228E+03  0.60964096421E+03  0.00000000000E+00 0.  1.
         13    1    3    3    0    0 -0.82538568565E+02  0.14376617362E+03  0.61109736191E+03  0.63318348437E+03  0.10566000000E+00 0. -1.
         -4    1    3    3    0  501  0.62354261835E+03 -0.57583794600E+03  0.36520038662E+03  0.92399462084E+03  0.00000000000E+00 0. -1.
<mgrwt>
<rscale>  0 0.12012989E+04</rscale>
<asrwt>0</asrwt>
<pdfrwt beam="2">  1        4 0.14897116E+00 0.11895986E+04</pdfrwt>
<pdfrwt beam="1">  1       -4 0.27517611E+00 0.12131143E+04</pdfrwt>
<totfact> 0.17754858E-01</totfact>
</mgrwt>
</event>
<event>
 8    1  0.3025584E-006  0.1197110E+04  0.7818608E-02  0.8610059E-01
          4   -1    0    0  502    0  0.00000000000E+00  0.00000000000E+00  0.91156518859E+03  0.91156518859E+03  0.00000000000E+00 0.  1.
         -4   -1    0    0    0  501 -0.00000000000E+00 -0.00000000000E+00 -0.21672691707E+04  0.21672691707E+04  0.00000000000E+00 0. -1.
   -9000010    2    1    2    0  501  0.40963658527E+03  0.50476863682E+03 -0.14369958393E+04  0.18680744691E+04  0.10010752576E+04 0.  0.
    9000010    2    1    2  502    0 -0.40963658527E+03 -0.50476863682E+03  0.18129185711E+03  0.12107598903E+04  0.10052259774E+04 0.  0.
        -13    1    4    4    0    0  0.51545692534E+01 -0.65493756164E+03 -0.13400851458E+03  0.66852679256E+03  0.10566000000E+00 0.  1.
          4    1    4    4  502    0 -0.41479115453E+03  0.15016892481E+03  0.31530037168E+03  0.54223309770E+03  0.00000000000E+00 0.  1.
         13    1    3    3    0    0 -0.32419967184E+03  0.25000886422E+03 -0.39974962867E+03  0.57219720045E+03  0.10566000000E+00 0. -1.
         -4    1    3    3    0  501  0.73383625712E+03  0.25475977261E+03 -0.10372462106E+04  0.12958772686E+04  0.00000000000E+00 0. -1.
<mgrwt>
<rscale>  0 0.11953673E+04</rscale>
<asrwt>0</asrwt>
<pdfrwt beam="1">  1        4 0.14024080E+00 0.11971102E+04</pdfrwt>
<pdfrwt beam="2">  1       -4 0.33342602E+00 0.11936269E+04</pdfrwt>
<totfact> 0.13466889E-01</totfact>
</mgrwt>
</event>
<event>
 8    1  0.3025584E-006  0.1361465E+04  0.7818608E-02  0.8538742E-01
          4   -1    0    0  502    0  0.00000000000E+00  0.00000000000E+00  0.94974299514E+03  0.94974299514E+03  0.00000000000E+00 0.  1.
         -4   -1    0    0    0  501 -0.00000000000E+00 -0.00000000000E+00 -0.18313295896E+04  0.18313295896E+04  0.00000000000E+00 0. -1.
   -9000010    2    1    2    0  501 -0.52036063671E+03 -0.46858860316E+03 -0.67674671909E+03  0.14042838437E+04  0.10117690055E+04 0.  0.
    9000010    2    1    2  502    0  0.52036063671E+03  0.46858860316E+03 -0.20483987537E+03  0.13767887411E+04  0.11675775742E+04 0.  0.
        -13    1    4    4    0    0 -0.23551948373E+02 -0.35826651133E+03  0.27759751192E+02  0.36011137494E+03  0.10566000000E+00 0.  1.
          4    1    4    4  502    0  0.54391258508E+03  0.82685511449E+03 -0.23259962656E+03  0.10166773662E+04  0.00000000000E+00 0.  1.
         13    1    3    3    0    0 -0.60685887796E+03  0.11433898421E+03 -0.20913155702E+03  0.65198705537E+03  0.10566000000E+00 0. -1.
         -4    1    3    3    0  501  0.86498241250E+02 -0.58292758737E+03 -0.46761516208E+03  0.75229678828E+03  0.00000000000E+00 0. -1.
<mgrwt>
<rscale>  0 0.12943052E+04</rscale>
<asrwt>0</asrwt>
<pdfrwt beam="1">  1        4 0.14611431E+00 0.13614653E+04</pdfrwt>
<pdfrwt beam="2">  1       -4 0.28174301E+00 0.12304580E+04</pdfrwt>
<totfact> 0.17559905E-01</totfact>
</mgrwt>
</event>
<event>
 8    1  0.3025584E-006  0.1115189E+04  0.7818608E-02  0.8674410E-01
         -4   -1    0    0    0  501 -0.00000000000E+00  0.00000000000E+00  0.20939336465E+04  0.20939336465E+04  0.00000000000E+00 0. -1.
          4   -1    0    0  502    0  0.00000000000E+00 -0.00000000000E+00 -0.14538624357E+04  0.14538624357E+04  0.00000000000E+00 0.  1.
   -9000010    2    1    2    0  501 -0.43396413032E+03 -0.19429897733E+03  0.16855753096E+04  0.20210912590E+04  0.10087461494E+04 0.  0.
    9000010    2    1    2  502    0  0.43396413032E+03  0.19429897733E+03 -0.10455040988E+04  0.15267048232E+04  0.10058189884E+04 0.  0.
        -13    1    4    4    0    0  0.70673999768E+03  0.35970014688E+03 -0.76660350647E+03  0.11029716983E+04  0.10566000000E+00 0.  1.
          4    1    4    4  502    0 -0.27277586736E+03 -0.16540116955E+03 -0.27890059232E+03  0.42373312485E+03  0.00000000000E+00 0.  1.
         13    1    3    3    0    0 -0.46784529698E+03 -0.34003568680E+03  0.34761044701E+03  0.67478628042E+03  0.10566000000E+00 0. -1.
         -4    1    3    3    0  501  0.33881166658E+02  0.14573670947E+03  0.13379648626E+04  0.13463049786E+04  0.00000000000E+00 0. -1.
<mgrwt>
<rscale>  0 0.11138643E+04</rscale>
<asrwt>0</asrwt>
<pdfrwt beam="2">  1        4 0.22367114E+00 0.11125416E+04</pdfrwt>
<pdfrwt beam="1">  1       -4 0.32214364E+00 0.11151887E+04</pdfrwt>
<totfact> 0.76877766E-02</totfact>
</mgrwt>
</event>
<event>
 8    1  0.3025584E-006  0.2111603E+04  0.7818608E-02  0.8136074E-01
         -4   -1    0    0    0  501 -0.00000000000E+00  0.00000000000E+00  0.31787181810E+04  0.31787181810E+04  0.00000000000E+00 0. -1.
          4   -1    0    0  502    0  0.00000000000E+00 -0.00000000000E+00 -0.13875589811E+04  0.13875589811E+04  0.00000000000E+00 0.  1.
   -9000010    2    1    2    0  501  0.16410635676E+04  0.72147712578E+03  0.12118555089E+04  0.24346380227E+04  0.11159075459E+04 0.  0.
    9000010    2    1    2  502    0 -0.16410635676E+04 -0.72147712578E+03  0.57930369108E+03  0.21316391394E+04  0.99733333351E+03 0.  0.
        -13    1    4    4    0    0  0.93082656226E+02 -0.16493481847E+03 -0.64291553152E+02  0.20000322549E+03  0.10566000000E+00 0.  1.
          4    1    4    4  502    0 -0.17341462239E+04 -0.55654230731E+03  0.64359524423E+03  0.19316359139E+04  0.00000000000E+00 0.  1.
         13    1    3    3    0    0  0.26146172794E+03 -0.27477214369E+03  0.39294545487E+03  0.54613927509E+03  0.10566000000E+00 0. -1.
         -4    1    3    3    0  501  0.13796018397E+04  0.99624926947E+03  0.81891005400E+03  0.18884987476E+04  0.00000000000E+00 0. -1.
<mgrwt>
<rscale>  0 0.20812903E+04</rscale>
<asrwt>0</asrwt>
<pdfrwt beam="2">  1        4 0.21347061E+00 0.20514124E+04</pdfrwt>
<pdfrwt beam="1">  1       -4 0.48903357E+00 0.21116033E+04</pdfrwt>
<totfact> 0.15958370E-02</totfact>
</mgrwt>
</event>
<event>
 8    1  0.3025584E-006  0.1047131E+04  0.7818608E-02  0.8736096E-01
         -4   -1    0    0    0  501 -0.00000000000E+00  0.00000000000E+00  0.93204689625E+03  0.93204689625E+03  0.00000000000E+00 0. -1.
          4   -1    0    0  502    0  0.00000000000E+00 -0.00000000000E+00 -0.14128532275E+04  0.14128532275E+04  0.00000000000E+00 0.  1.
   -9000010    2    1    2    0  501  0.24148551966E+03 -0.10099170134E+03  0.24972710075E+03  0.10764972574E+04  0.10138876369E+04 0.  0.
    9000010    2    1    2  502    0 -0.24148551966E+03  0.10099170134E+03 -0.73053343205E+03  0.12684028664E+04  0.10033205651E+04 0.  0.
        -13    1    4    4    0    0 -0.87046406006E+02  0.21817221499E+03  0.20574704559E+03  0.31226279017E+03  0.10566000000E+00 0.  1.
          4    1    4    4  502    0 -0.15443911365E+03 -0.11718051365E+03 -0.93628047764E+03  0.95614007625E+03  0.00000000000E+00 0.  1.
         13    1    3    3    0    0  0.48312103963E+03 -0.57932464098E+02 -0.22956382234E+03  0.53801642077E+03  0.10566000000E+00 0. -1.
         -4    1    3    3    0  501 -0.24163551997E+03 -0.43059237244E+02  0.47929092309E+03  0.53848083660E+03  0.00000000000E+00 0. -1.
<mgrwt>
<rscale>  0 0.10420040E+04</rscale>
<asrwt>0</asrwt>
<pdfrwt beam="2">  1        4 0.21736203E+00 0.10369025E+04</pdfrwt>
<pdfrwt beam="1">  1       -4 0.14339183E+00 0.10471307E+04</pdfrwt>
<totfact> 0.26056360E-01</totfact>
</mgrwt>
</event>
<event>
 8    1  0.3025584E-006  0.1058933E+04  0.7818608E-02  0.8723818E-01
         -4   -1    0    0    0  501 -0.00000000000E+00  0.00000000000E+00  0.11633898814E+04  0.11633898814E+04  0.00000000000E+00 0. -1.
          4   -1    0    0  502    0  0.00000000000E+00 -0.00000000000E+00 -0.96381245501E+03  0.96381245501E+03  0.00000000000E+00 0.  1.
   -9000010    2    1    2    0  501 -0.18675028019E+03 -0.25439112491E+03  0.18086978753E+03  0.10742686831E+04  0.10108159140E+04 0.  0.
    9000010    2    1    2  502    0  0.18675028019E+03  0.25439112491E+03  0.18707638829E+02  0.10529336532E+04  0.10043549128E+04 0.  0.
        -13    1    4    4    0    0  0.19870625284E+03 -0.36652404336E+03 -0.78775443340E+02  0.42429898764E+03  0.10566000000E+00 0.  1.
          4    1    4    4  502    0 -0.11955972657E+02  0.62091516826E+03  0.97483082169E+02  0.62863466558E+03  0.00000000000E+00 0.  1.
         13    1    3    3    0    0  0.41365454651E+03 -0.10592723706E+03 -0.96202822294E+01  0.42711031876E+03  0.10566000000E+00 0. -1.
         -4    1    3    3    0  501 -0.60040482670E+03 -0.14846388785E+03  0.19049006976E+03  0.64715836438E+03  0.00000000000E+00 0. -1.
<mgrwt>
<rscale>  0 0.10558458E+04</rscale>
<asrwt>0</asrwt>
<pdfrwt beam="2">  1        4 0.14827884E+00 0.10527674E+04</pdfrwt>
<pdfrwt beam="1">  1       -4 0.17898306E+00 0.10589331E+04</pdfrwt>
<totfact> 0.31933920E-01</totfact>
</mgrwt>
</event>
<event>
 8    1  0.3025584E-006  0.1252528E+04  0.7818608E-02  0.8575696E-01
          4   -1    0    0  502    0  0.00000000000E+00  0.00000000000E+00  0.25700780709E+04  0.25700780709E+04  0.00000000000E+00 0.  1.
         -4   -1    0    0    0  501 -0.00000000000E+00 -0.00000000000E+00 -0.69155632833E+03  0.69155632833E+03  0.00000000000E+00 0. -1.
   -9000010    2    1    2    0  501 -0.28720373873E+02  0.71375920194E+03  0.35320531869E+03  0.13013766776E+04  0.10288586889E+04 0.  0.
    9000010    2    1    2  502    0  0.28720373873E+02 -0.71375920194E+03  0.15253164239E+04  0.19602577216E+04  0.10028674309E+04 0.  0.
        -13    1    4    4    0    0 -0.38550697900E+02  0.22674796325E+03  0.98903732898E+02  0.25036524258E+03  0.10566000000E+00 0.  1.
          4    1    4    4  502    0  0.67271071773E+02 -0.94050716519E+03  0.14264126910E+04  0.17098924790E+04  0.00000000000E+00 0.  1.
         13    1    3    3    0    0  0.28664959289E+02  0.43563592403E+03 -0.33928797928E+03  0.55291652375E+03  0.10566000000E+00 0. -1.
         -4    1    3    3    0  501 -0.57385333162E+02  0.27812327791E+03  0.69249329797E+03  0.74846015386E+03  0.00000000000E+00 0. -1.
<mgrwt>
<rscale>  0 0.12418525E+04</rscale>
<asrwt>0</asrwt>
<pdfrwt beam="1">  1        4 0.39539662E+00 0.12312677E+04</pdfrwt>
<pdfrwt beam="2">  1       -4 0.10639328E+00 0.12525283E+04</pdfrwt>
<totfact> 0.12873479E-01</totfact>
</mgrwt>
</event>
<event>
 8    1  0.3025584E-006  0.1220604E+04  0.7818608E-02  0.8599793E-01
         -4   -1    0    0    0  501 -0.00000000000E+00  0.00000000000E+00  0.12929010630E+04  0.12929010630E+04  0.00000000000E+00 0. -1.
          4   -1    0    0  502    0  0.00000000000E+00 -0.00000000000E+00 -0.28311436702E+04  0.28311436702E+04  0.00000000000E+00 0.  1.
   -9000010    2    1    2    0  501  0.53285710030E+03  0.46777716401E+03  0.83183639302E+03  0.14581211386E+04  0.96509756275E+03 0.  0.
    9000010    2    1    2  502    0 -0.53285710030E+03 -0.46777716401E+03 -0.23700790003E+04  0.26659235946E+04  0.99354012511E+03 0.  0.
        -13    1    4    4    0    0 -0.42505793337E+03  0.87726294400E+02 -0.32013177064E+03  0.53930929084E+03  0.10566000000E+00 0.  1.
          4    1    4    4  502    0 -0.10779916693E+03 -0.55550345841E+03 -0.20499472296E+04  0.21266143037E+04  0.00000000000E+00 0.  1.
         13    1    3    3    0    0  0.53166357044E+03  0.37280693841E+03  0.29324588585E+02  0.65000854465E+03  0.10566000000E+00 0. -1.
         -4    1    3    3    0  501  0.11935298593E+01  0.94970225597E+02  0.80251180443E+03  0.80811259396E+03  0.00000000000E+00 0. -1.
<mgrwt>
<rscale>  0 0.12090304E+04</rscale>
<asrwt>0</asrwt>
<pdfrwt beam="2">  1        4 0.43556056E+00 0.12206040E+04</pdfrwt>
<pdfrwt beam="1">  1       -4 0.19890786E+00 0.11975665E+04</pdfrwt>
<totfact> 0.33721067E-02</totfact>
</mgrwt>
</event>
<event>
 8    1  0.3025584E-006  0.1139699E+04  0.7818608E-02  0.8697884E-01
         -4   -1    0    0    0  501 -0.00000000000E+00  0.00000000000E+00  0.14456595609E+04  0.14456595609E+04  0.00000000000E+00 0. -1.
          4   -1    0    0  502    0  0.00000000000E+00 -0.00000000000E+00 -0.85999906994E+03  0.85999906994E+03  0.00000000000E+00 0.  1.
   -9000010    2    1    2    0  501 -0.33916348263E+02  0.49962537727E+03  0.56237133105E+03  0.12708952042E+04  0.10237857538E+04 0.  0.
    9000010    2    1    2  502    0  0.33916348263E+02 -0.49962537727E+03  0.23289159892E+02  0.10347634267E+04  0.90521661934E+03 0.  0.
        -13    1    4    4    0    0  0.24668293322E+03 -0.48064381607E+03 -0.32185980321E+03  0.62885983458E+03  0.10566000000E+00 0.  1.
          4    1    4    4  502    0 -0.21276658495E+03 -0.18981561201E+02  0.34514896311E+03  0.40590359209E+03  0.00000000000E+00 0.  1.
         13    1    3    3    0    0  0.12609966511E+03  0.77124086988E+03  0.54959732343E+03  0.95539040921E+03  0.10566000000E+00 0. -1.
         -4    1    3    3    0  501 -0.16001601337E+03 -0.27161549262E+03  0.12774007616E+02  0.31550479495E+03  0.00000000000E+00 0. -1.
<mgrwt>
<rscale>  0 0.10858268E+04</rscale>
<asrwt>0</asrwt>
<pdfrwt beam="2">  1        4 0.13230755E+00 0.10345013E+04</pdfrwt>
<pdfrwt beam="1">  1       -4 0.22240916E+00 0.11396987E+04</pdfrwt>
<totfact> 0.28556974E-01</totfact>
</mgrwt>
</event>
<event>
 8    1  0.3025584E-006  0.1029305E+04  0.7818608E-02  0.8757314E-01
          4   -1    0    0  502    0  0.00000000000E+00  0.00000000000E+00  0.34115713187E+04  0.34115713187E+04  0.00000000000E+00 0.  1.
         -4   -1    0    0    0  501 -0.00000000000E+00 -0.00000000000E+00 -0.10644980908E+04  0.10644980908E+04  0.00000000000E+00 0. -1.
   -9000010    2    1    2    0  501 -0.14428080476E+03 -0.16883352512E+03 -0.72140891702E+03  0.12395510674E+04  0.98322648123E+03 0.  0.
    9000010    2    1    2  502    0  0.14428080476E+03  0.16883352512E+03  0.30684821449E+04  0.32365183420E+04  0.10050604929E+04 0.  0.
        -13    1    4    4    0    0  0.10158128495E+03 -0.42346027728E+03  0.12988340877E+04  0.13698931938E+04  0.10566000000E+00 0.  1.
          4    1    4    4  502    0  0.42699519808E+02  0.59229380240E+03  0.17696480572E+04  0.18666251481E+04  0.00000000000E+00 0.  1.
         13    1    3    3    0    0  0.90988648891E+01 -0.26804862586E+02  0.24711200658E+03  0.24872805423E+03  0.10566000000E+00 0. -1.
         -4    1    3    3    0  501 -0.15337966965E+03 -0.14202866254E+03 -0.96852092360E+03  0.99082301321E+03  0.00000000000E+00 0. -1.
<mgrwt>
<rscale>  0 0.10185947E+04</rscale>
<asrwt>0</asrwt>
<pdfrwt beam="1">  1        4 0.52485712E+00 0.10293048E+04</pdfrwt>
<pdfrwt beam="2">  1       -4 0.16376894E+00 0.10079960E+04</pdfrwt>
<totfact> 0.17145653E-02</totfact>
</mgrwt>
</event>
<event>
 8    1  0.3025584E-006  0.1097502E+04  0.7818608E-02  0.8718479E-01
          4   -1    0    0  502    0  0.00000000000E+00  0.00000000000E+00  0.19204989915E+04  0.19204989915E+04  0.00000000000E+00 0.  1.
         -4   -1    0    0    0  501 -0.00000000000E+00 -0.00000000000E+00 -0.12796320737E+04  0.12796320737E+04  0.00000000000E+00 0. -1.
   -9000010    2    1    2    0  501 -0.28506927446E+03 -0.27147977982E+01 -0.85090938440E+03  0.13887252226E+04  0.10598297514E+04 0.  0.
    9000010    2    1    2  502    0  0.28506927446E+03  0.27147977982E+01  0.14917763022E+04  0.18114058426E+04  0.98717917792E+03 0.  0.
        -13    1    4    4    0    0  0.13283676083E+03  0.39315728523E+03  0.12724475393E+04  0.13384098802E+04  0.10566000000E+00 0.  1.
          4    1    4    4  502    0  0.15223251363E+03 -0.39044248743E+03  0.21932876293E+03  0.47299596240E+03  0.00000000000E+00 0.  1.
         13    1    3    3    0    0 -0.53248337556E+03  0.17063164139E+03 -0.92206723580E+03  0.10783606543E+04  0.10566000000E+00 0. -1.
         -4    1    3    3    0  501  0.24741410110E+03 -0.17334643918E+03  0.71157851406E+02  0.31036456824E+03  0.00000000000E+00 0. -1.
<mgrwt>
<rscale>  0 0.10619341E+04</rscale>
<asrwt>0</asrwt>
<pdfrwt beam="1">  1        4 0.29546138E+00 0.10275187E+04</pdfrwt>
<pdfrwt beam="2">  1       -4 0.19686647E+00 0.10975021E+04</pdfrwt>
<totfact> 0.10779453E-01</totfact>
</mgrwt>
</event>
<event>
 8    1  0.3025584E-006  0.1301612E+04  0.7818608E-02  0.8536661E-01
          4   -1    0    0  502    0  0.00000000000E+00  0.00000000000E+00  0.10580399457E+04  0.10580399457E+04  0.00000000000E+00 0.  1.
         -4   -1    0    0    0  501 -0.00000000000E+00 -0.00000000000E+00 -0.17013726631E+04  0.17013726631E+04  0.00000000000E+00 0. -1.
   -9000010    2    1    2    0  501  0.72954710378E+03  0.34851277537E+03 -0.67244676532E+03  0.14574752068E+04  0.10091328926E+04 0.  0.
    9000010    2    1    2  502    0 -0.72954710378E+03 -0.34851277537E+03  0.29114047988E+02  0.13019374020E+04  0.10200457047E+04 0.  0.
        -13    1    4    4    0    0 -0.25213252850E+03 -0.22562374088E+03 -0.48389936604E+03  0.59045363238E+03  0.10566000000E+00 0.  1.
          4    1    4    4  502    0 -0.47741457528E+03 -0.12288903449E+03  0.51301341403E+03  0.71148376964E+03  0.00000000000E+00 0.  1.
         13    1    3    3    0    0  0.11815364668E+03 -0.30059293585E+03  0.27099055943E+02  0.32411536110E+03  0.10566000000E+00 0. -1.
         -4    1    3    3    0  501  0.61139345709E+03  0.64910571122E+03 -0.69954582126E+03  0.11333598457E+04  0.00000000000E+00 0. -1.
<mgrwt>
<rscale>  0 0.12973376E+04</rscale>
<asrwt>0</asrwt>
<pdfrwt beam="1">  1        4 0.16277538E+00 0.13016118E+04</pdfrwt>
<pdfrwt beam="2">  1       -4 0.26174964E+00 0.12930775E+04</pdfrwt>
<totfact> 0.16735370E-01</totfact>
</mgrwt>
</event>
<event>
 8    1  0.3025584E-006  0.1036925E+04  0.7818608E-02  0.8747852E-01
          4   -1    0    0  502    0  0.00000000000E+00  0.00000000000E+00  0.28840387066E+04  0.28840387066E+04  0.00000000000E+00 0.  1.
         -4   -1    0    0    0  501 -0.00000000000E+00 -0.00000000000E+00 -0.10818964442E+04  0.10818964442E+04  0.00000000000E+00 0. -1.
   -9000010    2    1    2    0  501 -0.35674735578E+02 -0.26728009870E+03 -0.70833221820E+03  0.12557658496E+04  0.10012502184E+04 0.  0.
    9000010    2    1    2  502    0  0.35674735578E+02  0.26728009870E+03  0.25104744806E+04  0.27101693011E+04  0.98479651959E+03 0.  0.
        -13    1    4    4    0    0  0.34865884506E+03 -0.24111644788E+03  0.10218594143E+04  0.11062986963E+04  0.10566000000E+00 0.  1.
          4    1    4    4  502    0 -0.31298410948E+03  0.50839654658E+03  0.14886150663E+04  0.16038706048E+04  0.00000000000E+00 0.  1.
         13    1    3    3    0    0 -0.95777000042E+01  0.23606601578E+03  0.13587444516E+03  0.27254499106E+03  0.10566000000E+00 0. -1.
         -4    1    3    3    0  501 -0.26097035574E+02 -0.50334611448E+03 -0.84420666336E+03  0.98322085855E+03  0.00000000000E+00 0. -1.
<mgrwt>
<rscale>  0 0.10289550E+04</rscale>
<asrwt>0</asrwt>
<pdfrwt beam="1">  1        4 0.44369826E+00 0.10210463E+04</pdfrwt>
<pdfrwt beam="2">  1       -4 0.16644561E+00 0.10369249E+04</pdfrwt>
<totfact> 0.40358342E-02</totfact>
</mgrwt>
</event>
<event>
 8    1  0.3025584E-006  0.1042860E+04  0.7818608E-02  0.8736096E-01
          4   -1    0    0  502    0  0.00000000000E+00  0.00000000000E+00  0.17610115392E+04  0.17610115392E+04  0.00000000000E+00 0.  1.
         -4   -1    0    0    0  501 -0.00000000000E+00 -0.00000000000E+00 -0.22190241960E+04  0.22190241960E+04  0.00000000000E+00 0. -1.
   -9000010    2    1    2    0  501  0.28831599592E+03 -0.18404767173E+03 -0.19200563742E+04  0.21841711107E+04  0.98335512500E+03 0.  0.
    9000010    2    1    2  502    0 -0.28831599592E+03  0.18404767173E+03  0.14620437174E+04  0.17958646246E+04  0.98516915255E+03 0.  0.
        -13    1    4    4    0    0  0.15723363277E+03 -0.29799987552E+03  0.25747369211E+03  0.42405076863E+03  0.10566000000E+00 0.  1.
          4    1    4    4  502    0 -0.44554962869E+03  0.48204754725E+03  0.12045700253E+04  0.13718138559E+04  0.00000000000E+00 0.  1.
         13    1    3    3    0    0 -0.27787852268E+03 -0.29952052054E+03 -0.11569033763E+04  0.12269288687E+04  0.10566000000E+00 0. -1.
         -4    1    3    3    0  501  0.56619451860E+03  0.11547284881E+03 -0.76315299785E+03  0.95724224198E+03  0.00000000000E+00 0. -1.
<mgrwt>
<rscale>  0 0.10420033E+04</rscale>
<asrwt>0</asrwt>
<pdfrwt beam="1">  1        4 0.27092485E+00 0.10428604E+04</pdfrwt>
<pdfrwt beam="2">  1       -4 0.34138834E+00 0.10411469E+04</pdfrwt>
<totfact> 0.52657280E-02</totfact>
</mgrwt>
</event>
<event>
 8    1  0.3025584E-006  0.2077586E+04  0.7818608E-02  0.8138111E-01
          4   -1    0    0  502    0  0.00000000000E+00  0.00000000000E+00  0.19441198036E+04  0.19441198036E+04  0.00000000000E+00 0.  1.
         -4   -1    0    0    0  501 -0.00000000000E+00 -0.00000000000E+00 -0.33752506444E+04  0.33752506444E+04  0.00000000000E+00 0. -1.
   -9000010    2    1    2    0  501  0.49350195746E+03 -0.17477454186E+04 -0.22733012127E+04  0.30775823674E+04  0.10027245853E+04 0.  0.
    9000010    2    1    2  502    0 -0.49350195746E+03  0.17477454186E+04  0.84217037184E+03  0.22417880806E+04  0.10090612632E+04 0.  0.
        -13    1    4    4    0    0 -0.70584611734E+03  0.16224711119E+04  0.53614529869E+03  0.18488058424E+04  0.10566000000E+00 0.  1.
          4    1    4    4  502    0  0.21234415988E+03  0.12527430668E+03  0.30602507315E+03  0.39298223821E+03  0.00000000000E+00 0.  1.
         13    1    3    3    0    0  0.26917300103E+03 -0.17795198485E+04 -0.17636655815E+04  0.25198534264E+04  0.10566000000E+00 0. -1.
         -4    1    3    3    0  501  0.22432895643E+03  0.31774429899E+02 -0.50963563117E+03  0.55772894101E+03  0.00000000000E+00 0. -1.
<mgrwt>
<rscale>  0 0.20760501E+04</rscale>
<asrwt>0</asrwt>
<pdfrwt beam="1">  1        4 0.29909536E+00 0.20775858E+04</pdfrwt>
<pdfrwt beam="2">  1       -4 0.51926933E+00 0.20745156E+04</pdfrwt>
<totfact> 0.69078464E-03</totfact>
</mgrwt>
</event>
<event>
 8    1  0.3025584E-006  0.1244186E+04  0.7818608E-02  0.8636822E-01
          4   -1    0    0  502    0  0.00000000000E+00  0.00000000000E+00  0.54149445875E+03  0.54149445875E+03  0.00000000000E+00 0.  1.
         -4   -1    0    0    0  501 -0.00000000000E+00 -0.00000000000E+00 -0.28291899638E+04  0.28291899638E+04  0.00000000000E+00 0. -1.
   -9000010    2    1    2    0  501 -0.42289095899E+03  0.95916757466E+02 -0.17879453213E+04  0.21782438428E+04  0.11661736487E+04 0.  0.
    9000010    2    1    2  502    0  0.42289095899E+03 -0.95916757466E+02 -0.49975018375E+03  0.11924405798E+04  0.99203200686E+03 0.  0.
        -13    1    4    4    0    0  0.59146516101E+03  0.28590981860E+03 -0.37676155488E+03  0.75731416298E+03  0.10566000000E+00 0.  1.
          4    1    4    4  502    0 -0.16857420201E+03 -0.38182657607E+03 -0.12298862887E+03  0.43512641681E+03  0.00000000000E+00 0.  1.
         13    1    3    3    0    0 -0.10052859695E+03 -0.24501239025E+03 -0.16747776021E+04  0.16955875376E+04  0.10566000000E+00 0. -1.
         -4    1    3    3    0  501 -0.32236236204E+03  0.34092914771E+03 -0.11316771926E+03  0.48265630515E+03  0.00000000000E+00 0. -1.
<mgrwt>
<rscale>  0 0.11606191E+04</rscale>
<asrwt>0</asrwt>
<pdfrwt beam="1">  1        4 0.83306839E-01 0.10826654E+04</pdfrwt>
<pdfrwt beam="2">  1       -4 0.43526000E+00 0.12441856E+04</pdfrwt>
<totfact> 0.14158453E-01</totfact>
</mgrwt>
</event>
<event>
 8    1  0.3025584E-006  0.1177998E+04  0.7818608E-02  0.8640577E-01
         -4   -1    0    0    0  501 -0.00000000000E+00  0.00000000000E+00  0.20832957417E+04  0.20832957417E+04  0.00000000000E+00 0. -1.
          4   -1    0    0  502    0  0.00000000000E+00 -0.00000000000E+00 -0.20826546073E+04  0.20826546073E+04  0.00000000000E+00 0.  1.
   -9000010    2    1    2    0  501 -0.39865004542E+03  0.42818800512E+03  0.17329502590E+04  0.20954224907E+04  0.10224539050E+04 0.  0.
    9000010    2    1    2  502    0  0.39865004542E+03 -0.42818800512E+03 -0.17323091246E+04  0.20705278583E+04  0.97155745194E+03 0.  0.
        -13    1    4    4    0    0 -0.25769541884E+01  0.24939860684E+03 -0.12127024354E+03  0.27733155053E+03  0.10566000000E+00 0.  1.
          4    1    4    4  502    0  0.40122699961E+03 -0.67758661196E+03 -0.16110388811E+04  0.17931963078E+04  0.00000000000E+00 0.  1.
         13    1    3    3    0    0 -0.25189435980E+03 -0.10833110861E+03  0.14417226293E+04  0.14675661990E+04  0.10566000000E+00 0. -1.
         -4    1    3    3    0  501 -0.14675568562E+03  0.53651911373E+03  0.29122762971E+03  0.62785629165E+03  0.00000000000E+00 0. -1.
<mgrwt>
<rscale>  0 0.11558423E+04</rscale>
<asrwt>0</asrwt>
<pdfrwt beam="2">  1        4 0.32040840E+00 0.11341035E+04</pdfrwt>
<pdfrwt beam="1">  1       -4 0.32050704E+00 0.11779978E+04</pdfrwt>
<totfact> 0.44013847E-02</totfact>
</mgrwt>
</event>
<event>
 8    1  0.3025584E-006  0.1088804E+04  0.7818608E-02  0.8704270E-01
          4   -1    0    0  502    0  0.00000000000E+00  0.00000000000E+00  0.12242701239E+04  0.12242701239E+04  0.00000000000E+00 0.  1.
         -4   -1    0    0    0  501 -0.00000000000E+00 -0.00000000000E+00 -0.11101939369E+04  0.11101939369E+04  0.00000000000E+00 0. -1.
   -9000010    2    1    2    0  501  0.23257301775E+03 -0.35884585769E+03 -0.38598406429E+03  0.11551959302E+04  0.10013158249E+04 0.  0.
    9000010    2    1    2  502    0 -0.23257301775E+03  0.35884585769E+03  0.50006025136E+03  0.11792681306E+04  0.97864830798E+03 0.  0.
        -13    1    4    4    0    0 -0.34625773690E+03 -0.13978899767E+03 -0.10415470521E+03  0.38766428519E+03  0.10566000000E+00 0.  1.
          4    1    4    4  502    0  0.11368471914E+03  0.49863485535E+03  0.60421495657E+03  0.79160384542E+03  0.00000000000E+00 0.  1.
         13    1    3    3    0    0  0.50336722192E+03 -0.55874664641E+03 -0.27606252623E+03  0.80111603687E+03  0.10566000000E+00 0. -1.
         -4    1    3    3    0  501 -0.27079420417E+03  0.19990078872E+03 -0.10992153806E+03  0.35407989334E+03  0.00000000000E+00 0. -1.
<mgrwt>
<rscale>  0 0.10783492E+04</rscale>
<asrwt>0</asrwt>
<pdfrwt beam="1">  1        4 0.18834925E+00 0.10679949E+04</pdfrwt>
<pdfrwt beam="2">  1       -4 0.17079907E+00 0.10888039E+04</pdfrwt>
<totfact> 0.24362366E-01</totfact>
</mgrwt>
</event>
<event>
 8    1  0.3025584E-006  0.1122940E+04  0.7818608E-02  0.8672412E-01
         -4   -1    0    0    0  501 -0.00000000000E+00  0.00000000000E+00  0.13641655797E+04  0.13641655797E+04  0.00000000000E+00 0. -1.
          4   -1    0    0  502    0  0.00000000000E+00 -0.00000000000E+00 -0.24064688671E+04  0.24064688671E+04  0.00000000000E+00 0.  1.
   -9000010    2    1    2    0  501 -0.98095753866E+02  0.48728312089E+03  0.96499565139E+03  0.14705817343E+04  0.99213225595E+03 0.  0.
    9000010    2    1    2  502    0  0.98095753866E+02 -0.48728312089E+03 -0.20072989389E+04  0.23000527125E+04  0.10069388429E+04 0.  0.
        -13    1    4    4    0    0 -0.23033359445E+03 -0.42638359774E+02 -0.17504775366E+02  0.23490002720E+03  0.10566000000E+00 0.  1.
          4    1    4    4  502    0  0.32842934831E+03 -0.44464476111E+03 -0.19897941635E+04  0.20651526853E+04  0.00000000000E+00 0.  1.
         13    1    3    3    0    0  0.10482840691E+03  0.71772298497E+03  0.90143191637E+03  0.11570197877E+04  0.10566000000E+00 0. -1.
         -4    1    3    3    0  501 -0.20292416078E+03 -0.23043986408E+03  0.63563735022E+02  0.31356194666E+03  0.00000000000E+00 0. -1.
<mgrwt>
<rscale>  0 0.11162911E+04</rscale>
<asrwt>0</asrwt>
<pdfrwt beam="2">  1        4 0.37022597E+00 0.11229396E+04</pdfrwt>
<pdfrwt beam="1">  1       -4 0.20987163E+00 0.11096819E+04</pdfrwt>
<totfact> 0.58154105E-02</totfact>
</mgrwt>
</event>
<event>
 8    1  0.3025584E-006  0.1239086E+04  0.7818608E-02  0.8599918E-01
         -4   -1    0    0    0  501 -0.00000000000E+00  0.00000000000E+00  0.26728921398E+04  0.26728921398E+04  0.00000000000E+00 0. -1.
          4   -1    0    0  502    0  0.00000000000E+00 -0.00000000000E+00 -0.12459920073E+04  0.12459920073E+04  0.00000000000E+00 0.  1.
   -9000010    2    1    2    0  501 -0.42106563519E+03  0.58790542724E+03  0.21885320565E+04  0.25149566086E+04  0.10061834426E+04 0.  0.
    9000010    2    1    2  502    0  0.42106563519E+03 -0.58790542724E+03 -0.76163192400E+03  0.14039275386E+04  0.93166532903E+03 0.  0.
        -13    1    4    4    0    0  0.31309230820E+03  0.18068863869E+03 -0.42495778574E+03  0.55791066348E+03  0.10566000000E+00 0.  1.
          4    1    4    4  502    0  0.10797332698E+03 -0.76859406593E+03 -0.33667413827E+03  0.84601687507E+03  0.00000000000E+00 0.  1.
         13    1    3    3    0    0  0.22582841094E+03  0.13895489403E+03  0.10080199717E+03  0.28366879906E+03  0.10566000000E+00 0. -1.
         -4    1    3    3    0  501 -0.64689404612E+03  0.44895053321E+03  0.20877300594E+04  0.22312878095E+04  0.00000000000E+00 0. -1.
<mgrwt>
<rscale>  0 0.12088628E+04</rscale>
<asrwt>0</asrwt>
<pdfrwt beam="2">  1        4 0.19169108E+00 0.11793767E+04</pdfrwt>
<pdfrwt beam="1">  1       -4 0.41121417E+00 0.12390860E+04</pdfrwt>
<totfact> 0.44854938E-02</totfact>
</mgrwt>
</event>
<event>
 8    1  0.3025584E-006  0.1062205E+04  0.7818608E-02  0.8735412E-01
          4   -1    0    0  502    0  0.00000000000E+00  0.00000000000E+00  0.44904547121E+03  0.44904547121E+03  0.00000000000E+00 0.  1.
         -4   -1    0    0    0  501 -0.00000000000E+00 -0.00000000000E+00 -0.36689474675E+04  0.36689474675E+04  0.00000000000E+00 0. -1.
   -9000010    2    1    2    0  501  0.17716230354E+03 -0.13568564717E+03 -0.28296331934E+04  0.30224333705E+04  0.10385000688E+04 0.  0.
    9000010    2    1    2  502    0 -0.17716230354E+03  0.13568564717E+03 -0.39026880282E+03  0.10955595682E+04  0.99907154518E+03 0.  0.
        -13    1    4    4    0    0  0.25399014524E+02  0.44829878916E+03  0.11907405879E+03  0.46453800376E+03  0.10566000000E+00 0.  1.
          4    1    4    4  502    0 -0.20256131806E+03 -0.31261314199E+03 -0.50934286160E+03  0.63102156444E+03  0.00000000000E+00 0.  1.
         13    1    3    3    0    0  0.53895268760E+03 -0.54694614142E+02 -0.23739888349E+04  0.24350122175E+04  0.10566000000E+00 0. -1.
         -4    1    3    3    0  501 -0.36179038406E+03 -0.80991033024E+02 -0.45564435855E+03  0.58742115293E+03  0.00000000000E+00 0. -1.
<mgrwt>
<rscale>  0 0.10427697E+04</rscale>
<asrwt>0</asrwt>
<pdfrwt beam="1">  1        4 0.69083920E-01 0.10236899E+04</pdfrwt>
<pdfrwt beam="2">  1       -4 0.56445345E+00 0.10622050E+04</pdfrwt>
<totfact> 0.50906322E-02</totfact>
</mgrwt>
</event>
<event>
 8    1  0.3025584E-006  0.1055700E+04  0.7818608E-02  0.8738499E-01
         -4   -1    0    0    0  501 -0.00000000000E+00  0.00000000000E+00  0.98003273457E+03  0.98003273457E+03  0.00000000000E+00 0. -1.
          4   -1    0    0  502    0  0.00000000000E+00 -0.00000000000E+00 -0.25904691730E+04  0.25904691730E+04  0.00000000000E+00 0.  1.
   -9000010    2    1    2    0  501 -0.23595808356E+03 -0.14937004421E+03  0.54239801295E+03  0.11868857046E+04  0.10180935340E+04 0.  0.
    9000010    2    1    2  502    0  0.23595808356E+03  0.14937004421E+03 -0.21528344514E+04  0.23836162030E+04  0.98434871909E+03 0.  0.
        -13    1    4    4    0    0  0.40335719456E+03  0.49507099679E+03 -0.13075176628E+04  0.14551270625E+04  0.10566000000E+00 0.  1.
          4    1    4    4  502    0 -0.16739911100E+03 -0.34570095258E+03 -0.84531678857E+03  0.92848914049E+03  0.00000000000E+00 0.  1.
         13    1    3    3    0    0 -0.41870478690E+03 -0.24760630084E+03  0.74964030369E+03  0.89363481069E+03  0.10566000000E+00 0. -1.
         -4    1    3    3    0  501  0.18274670335E+03  0.98236256633E+02 -0.20724229075E+03  0.29325089390E+03  0.00000000000E+00 0. -1.
<mgrwt>
<rscale>  0 0.10393208E+04</rscale>
<asrwt>0</asrwt>
<pdfrwt beam="2">  1        4 0.39853372E+00 0.10231960E+04</pdfrwt>
<pdfrwt beam="1">  1       -4 0.15077427E+00 0.10556998E+04</pdfrwt>
<totfact> 0.71988527E-02</totfact>
</mgrwt>
</event>
<event>
 8    1  0.3025584E-006  0.1065573E+04  0.7818608E-02  0.8722506E-01
          4   -1    0    0  502    0  0.00000000000E+00  0.00000000000E+00  0.51167309313E+03  0.51167309313E+03  0.00000000000E+00 0. -1.
         -4   -1    0    0    0  501 -0.00000000000E+00 -0.00000000000E+00 -0.21892591219E+04  0.21892591219E+04  0.00000000000E+00 0.  1.
   -9000010    2    1    2    0  501  0.27580002057E+03 -0.29490710488E+03 -0.77308463050E+03  0.13032312411E+04  0.96835735659E+03 0.  0.
    9000010    2    1    2  502    0 -0.27580002057E+03  0.29490710488E+03 -0.90450139829E+03  0.13977009739E+04  0.98610819950E+03 0.  0.
        -13    1    4    4    0    0 -0.93210496922E+02  0.59506566027E+03 -0.24458125401E+03  0.65008563878E+03  0.10566000000E+00 0.  1.
          4    1    4    4  502    0 -0.18258952365E+03 -0.30015855538E+03 -0.65992014428E+03  0.74761533515E+03  0.00000000000E+00 0.  1.
         13    1    3    3    0    0 -0.39639274067E+02 -0.57261643651E+03 -0.23440941846E+03  0.62000696935E+03  0.10566000000E+00 0. -1.
         -4    1    3    3    0  501  0.31543929464E+03  0.27770933163E+03 -0.53867521204E+03  0.68322427177E+03  0.00000000000E+00 0. -1.
<mgrwt>
<rscale>  0 0.10573381E+04</rscale>
<asrwt>0</asrwt>
<pdfrwt beam="1">  1        4 0.78718937E-01 0.10655727E+04</pdfrwt>
<pdfrwt beam="2">  1       -4 0.33680910E+00 0.10491672E+04</pdfrwt>
<totfact> 0.38293263E-01</totfact>
</mgrwt>
</event>
<event>
 8    1  0.3025584E-006  0.1113490E+04  0.7818608E-02  0.8703503E-01
         -4   -1    0    0    0  501 -0.00000000000E+00  0.00000000000E+00  0.18960937530E+04  0.18960937530E+04  0.00000000000E+00 0. -1.
          4   -1    0    0  502    0  0.00000000000E+00 -0.00000000000E+00 -0.16230985178E+04  0.16230985178E+04  0.00000000000E+00 0.  1.
   -9000010    2    1    2    0  501 -0.49469704130E+03 -0.14568440436E+03  0.15246564382E+04  0.18879718363E+04  0.98686944000E+03 0.  0.
    9000010    2    1    2  502    0  0.49469704130E+03  0.14568440436E+03 -0.12516612030E+04  0.16312204345E+04  0.91009627546E+03 0.  0.
        -13    1    4    4    0    0  0.12614217662E+03 -0.29426604120E+03 -0.90678672368E+03  0.96164781762E+03  0.10566000000E+00 0.  1.
          4    1    4    4  502    0  0.36855486468E+03  0.43995044556E+03 -0.34487447928E+03  0.66957261689E+03  0.00000000000E+00 0.  1.
         13    1    3    3    0    0 -0.31002035112E+03 -0.47509379701E+03  0.13645730876E+04  0.14777978403E+04  0.10566000000E+00 0. -1.
         -4    1    3    3    0  501 -0.18467669018E+03  0.32940939265E+03  0.16008335060E+03  0.41017399601E+03  0.00000000000E+00 0. -1.
<mgrwt>
<rscale>  0 0.10792444E+04</rscale>
<asrwt>0</asrwt>
<pdfrwt beam="2">  1        4 0.24970746E+00 0.10460518E+04</pdfrwt>
<pdfrwt beam="1">  1       -4 0.29170673E+00 0.11134902E+04</pdfrwt>
<totfact> 0.80783124E-02</totfact>
</mgrwt>
</event>
<event>
 8    1  0.3025584E-006  0.1068570E+04  0.7818608E-02  0.8789669E-01
          4   -1    0    0  502    0  0.00000000000E+00  0.00000000000E+00  0.13907518391E+04  0.13907518391E+04  0.00000000000E+00 0.  1.
         -4   -1    0    0    0  501 -0.00000000000E+00 -0.00000000000E+00 -0.24316780579E+04  0.24316780579E+04  0.00000000000E+00 0. -1.
   -9000010    2    1    2    0  501  0.29611587269E+03  0.19099374171E+03 -0.21188911056E+04  0.23045860316E+04  0.83501738927E+03 0.  0.
    9000010    2    1    2  502    0 -0.29611587269E+03 -0.19099374171E+03  0.10779648867E+04  0.15178438654E+04  0.10088005170E+04 0.  0.
        -13    1    4    4    0    0 -0.66200165308E+03 -0.22656900461E+03  0.74129484838E+03  0.10193614501E+04  0.10566000000E+00 0.  1.
          4    1    4    4  502    0  0.36588578038E+03  0.35575262898E+02  0.33667003835E+03  0.49848241528E+03  0.00000000000E+00 0.  1.
         13    1    3    3    0    0  0.57742856386E+03  0.16451666488E+03 -0.11780181846E+04  0.13222013212E+04  0.10566000000E+00 0. -1.
         -4    1    3    3    0  501 -0.28131269117E+03  0.26477076839E+02 -0.94087292102E+03  0.98238471045E+03  0.00000000000E+00 0. -1.
<mgrwt>
<rscale>  0 0.98410725E+03</rscale>
<asrwt>0</asrwt>
<pdfrwt beam="1">  1        4 0.21396182E+00 0.10685699E+04</pdfrwt>
<pdfrwt beam="2">  1       -4 0.37410431E+00 0.90632073E+03</pdfrwt>
<totfact> 0.56101510E-02</totfact>
</mgrwt>
</event>
<event>
 8    1  0.3025584E-006  0.1327851E+04  0.7818608E-02  0.8522885E-01
          4   -1    0    0  502    0  0.00000000000E+00  0.00000000000E+00  0.15436840587E+04  0.15436840587E+04  0.00000000000E+00 0.  1.
         -4   -1    0    0    0  501 -0.00000000000E+00 -0.00000000000E+00 -0.16597691154E+04  0.16597691154E+04  0.00000000000E+00 0. -1.
   -9000010    2    1    2    0  501 -0.68525913701E+02 -0.84261309228E+03 -0.96771930545E+03  0.16430668205E+04  0.10239605941E+04 0.  0.
    9000010    2    1    2  502    0  0.68525913701E+02  0.84261309228E+03  0.85163424873E+03  0.15603863537E+04  0.99741268037E+03 0.  0.
        -13    1    4    4    0    0 -0.37680504152E+03  0.76838142311E+03  0.54406672830E+03  0.10141009154E+04  0.10566000000E+00 0.  1.
          4    1    4    4  502    0  0.44533095522E+03  0.74231669172E+02  0.30756752043E+03  0.54628543822E+03  0.00000000000E+00 0.  1.
         13    1    3    3    0    0 -0.34019776885E+03 -0.78044369524E+03 -0.27225519197E+03  0.89383990965E+03  0.10566000000E+00 0. -1.
         -4    1    3    3    0  501  0.27167185514E+03 -0.62169397048E+02 -0.69546411348E+03  0.74922691085E+03  0.00000000000E+00 0. -1.
<mgrwt>
<rscale>  0 0.13176301E+04</rscale>
<asrwt>0</asrwt>
<pdfrwt beam="1">  1        4 0.23748985E+00 0.13074879E+04</pdfrwt>
<pdfrwt beam="2">  1       -4 0.25534910E+00 0.13278509E+04</pdfrwt>
<totfact> 0.10425702E-01</totfact>
</mgrwt>
</event>
<event>
 8    1  0.3025584E-006  0.1055656E+04  0.7818608E-02  0.8742846E-01
          4   -1    0    0  502    0  0.00000000000E+00  0.00000000000E+00  0.25790253666E+04  0.25790253666E+04  0.00000000000E+00 0.  1.
         -4   -1    0    0    0  501 -0.00000000000E+00 -0.00000000000E+00 -0.59019964359E+03  0.59019964359E+03  0.00000000000E+00 0. -1.
   -9000010    2    1    2    0  501 -0.22551335378E+03 -0.19075097912E+03  0.14564150293E+03  0.10656556910E+04  0.10134931651E+04 0.  0.
    9000010    2    1    2  502    0  0.22551335378E+03  0.19075097912E+03  0.18431842201E+04  0.21035693192E+04  0.96975955921E+03 0.  0.
        -13    1    4    4    0    0 -0.34839626505E+03 -0.17398254878E+02  0.10249525143E+04  0.10826866234E+04  0.10566000000E+00 0.  1.
          4    1    4    4  502    0  0.57390961883E+03  0.20814923399E+03  0.81823170584E+03  0.10208826958E+04  0.00000000000E+00 0.  1.
         13    1    3    3    0    0 -0.36853185177E+03 -0.44526148144E+03  0.37963118639E+03  0.69151526481E+03  0.10566000000E+00 0. -1.
         -4    1    3    3    0  501  0.14301849799E+03  0.25451050232E+03 -0.23398968346E+03  0.37414042621E+03  0.00000000000E+00 0. -1.
<mgrwt>
<rscale>  0 0.10344877E+04</rscale>
<asrwt>0</asrwt>
<pdfrwt beam="1">  1        4 0.39677313E+00 0.10137435E+04</pdfrwt>
<pdfrwt beam="2">  1       -4 0.90799947E-01 0.10556565E+04</pdfrwt>
<totfact> 0.17523962E-01</totfact>
</mgrwt>
</event>
<event>
 8    1  0.3025584E-006  0.1112545E+04  0.7818608E-02  0.8689282E-01
          4   -1    0    0  502    0  0.00000000000E+00  0.00000000000E+00  0.14795096400E+04  0.14795096400E+04  0.00000000000E+00 0.  1.
         -4   -1    0    0    0  501 -0.00000000000E+00 -0.00000000000E+00 -0.12878601770E+04  0.12878601770E+04  0.00000000000E+00 0. -1.
   -9000010    2    1    2    0  501 -0.18254535006E+03 -0.37621135956E+03 -0.74603622361E+03  0.13123746579E+04  0.99543930194E+03 0.  0.
    9000010    2    1    2  502    0  0.18254535006E+03  0.37621135956E+03  0.93768568663E+03  0.14549951592E+04  0.10309697738E+04 0.  0.
        -13    1    4    4    0    0  0.45740409524E+03 -0.15432900449E+03  0.24879479843E+03  0.54307900978E+03  0.10566000000E+00 0.  1.
          4    1    4    4  502    0 -0.27485874519E+03  0.53054036405E+03  0.68889088820E+03  0.91191614940E+03  0.00000000000E+00 0.  1.
         13    1    3    3    0    0  0.29267037264E+03  0.16963330849E+03 -0.35257180659E+03  0.48860853076E+03  0.10566000000E+00 0. -1.
         -4    1    3    3    0  501 -0.47521572269E+03 -0.54584466805E+03 -0.39346441703E+03  0.82376612713E+03  0.00000000000E+00 0. -1.
<mgrwt>
<rscale>  0 0.10960007E+04</rscale>
<asrwt>0</asrwt>
<pdfrwt beam="1">  1        4 0.22761687E+00 0.11125450E+04</pdfrwt>
<pdfrwt beam="2">  1       -4 0.19813233E+00 0.10797024E+04</pdfrwt>
<totfact> 0.15592803E-01</totfact>
</mgrwt>
</event>
<event>
 8    1  0.3025584E-006  0.1080070E+04  0.7818608E-02  0.8723129E-01
          4   -1    0    0  502    0  0.00000000000E+00  0.00000000000E+00  0.25067138965E+03  0.25067138965E+03  0.00000000000E+00 0.  1.
         -4   -1    0    0    0  501 -0.00000000000E+00 -0.00000000000E+00 -0.44811972726E+04  0.44811972726E+04  0.00000000000E+00 0. -1.
   -9000010    2    1    2    0  501 -0.20512158808E+03 -0.32705288294E+03 -0.23386398864E+04  0.25760020897E+04  0.10087178961E+04 0.  0.
    9000010    2    1    2  502    0  0.20512158808E+03  0.32705288294E+03 -0.18918859965E+04  0.21558665725E+04  0.95890020363E+03 0.  0.
        -13    1    4    4    0    0  0.58394941031E+03  0.25256556281E+03 -0.13271450507E+04  0.14717677378E+04  0.10566000000E+00 0.  1.
          4    1    4    4  502    0 -0.37882782222E+03  0.74487320125E+02 -0.56474094582E+03  0.68409883470E+03  0.00000000000E+00 0.  1.
         13    1    3    3    0    0 -0.41857193188E+03 -0.46946885341E+03 -0.21920088902E+04  0.22804618946E+04  0.10566000000E+00 0. -1.
         -4    1    3    3    0  501  0.21345034379E+03  0.14241597048E+03 -0.14663099614E+03  0.29554019514E+03  0.00000000000E+00 0. -1.
<mgrwt>
<rscale>  0 0.10566286E+04</rscale>
<asrwt>0</asrwt>
<pdfrwt beam="1">  1        4 0.38564828E-01 0.10336963E+04</pdfrwt>
<pdfrwt beam="2">  1       -4 0.68941499E+00 0.10800696E+04</pdfrwt>
<totfact> 0.37251697E-02</totfact>
</mgrwt>
</event>
<event>
 8    1  0.3025584E-006  0.1104576E+04  0.7818608E-02  0.8690792E-01
         -4   -1    0    0    0  501 -0.00000000000E+00  0.00000000000E+00  0.83997951755E+03  0.83997951755E+03  0.00000000000E+00 0. -1.
          4   -1    0    0  502    0  0.00000000000E+00 -0.00000000000E+00 -0.18564719478E+04  0.18564719478E+04  0.00000000000E+00 0.  1.
   -9000010    2    1    2    0  501 -0.27059898938E+03  0.33480978559E+03  0.14500699199E+03  0.10935886414E+04  0.99478021860E+03 0.  0.
    9000010    2    1    2  502    0  0.27059898938E+03 -0.33480978559E+03 -0.11614994222E+04  0.16028628239E+04  0.10172349379E+04 0.  0.
        -13    1    4    4    0    0  0.17619879365E+03  0.36341015028E+02 -0.12041608529E+04  0.12175262030E+04  0.10566000000E+00 0.  1.
          4    1    4    4  502    0  0.94400195724E+02 -0.37115080062E+03  0.42661430655E+02  0.38533662091E+03  0.00000000000E+00 0.  1.
         13    1    3    3    0    0  0.73598518891E+02 -0.26831749527E+03 -0.17529792028E+03  0.32884706517E+03  0.10566000000E+00 0. -1.
         -4    1    3    3    0  501 -0.34419750827E+03  0.60312728086E+03  0.32030491227E+03  0.76474157625E+03  0.00000000000E+00 0. -1.
<mgrwt>
<rscale>  0 0.10942055E+04</rscale>
<asrwt>0</asrwt>
<pdfrwt beam="2">  1        4 0.28561107E+00 0.11045761E+04</pdfrwt>
<pdfrwt beam="1">  1       -4 0.12922762E+00 0.10839322E+04</pdfrwt>
<totfact> 0.20871586E-01</totfact>
</mgrwt>
</event>
<event>
 8    1  0.3025584E-006  0.1490943E+04  0.7818608E-02  0.8414862E-01
         -4   -1    0    0    0  501 -0.00000000000E+00  0.00000000000E+00  0.26105736452E+04  0.26105736452E+04  0.00000000000E+00 0.  1.
          4   -1    0    0  502    0  0.00000000000E+00 -0.00000000000E+00 -0.97911463990E+03  0.97911463990E+03  0.00000000000E+00 0. -1.
   -9000010    2    1    2    0  501  0.10572402816E+04 -0.28432261685E+03  0.14642487885E+04  0.20893981764E+04  0.10114167596E+04 0.  0.
    9000010    2    1    2  502    0 -0.10572402816E+04  0.28432261685E+03  0.16721021675E+03  0.15002901087E+04  0.10120843789E+04 0.  0.
        -13    1    4    4    0    0 -0.56121754185E+02  0.14493852630E+03  0.42889638431E+03  0.45618959582E+03  0.10566000000E+00 0.  1.
          4    1    4    4  502    0 -0.10011185274E+04  0.13938409055E+03 -0.26168616757E+03  0.10441005128E+04  0.00000000000E+00 0.  1.
         13    1    3    3    0    0  0.61790057408E+03  0.13456784702E+03  0.16228505889E+03  0.65287523801E+03  0.10566000000E+00 0. -1.
         -4    1    3    3    0  501  0.43933970751E+03 -0.41889046387E+03  0.13019637297E+04  0.14365229384E+04  0.00000000000E+00 0. -1.
<mgrwt>
<rscale>  0 0.14907165E+04</rscale>
<asrwt>0</asrwt>
<pdfrwt beam="2">  1        4 0.15063302E+00 0.14909430E+04</pdfrwt>
<pdfrwt beam="1">  1       -4 0.40162671E+00 0.14904899E+04</pdfrwt>
<totfact> 0.67383766E-02</totfact>
</mgrwt>
</event>
<event>
 8    1  0.3025584E-006  0.1516572E+04  0.7818608E-02  0.8400458E-01
          4   -1    0    0  502    0  0.00000000000E+00  0.00000000000E+00  0.17330881585E+04  0.17330881585E+04  0.00000000000E+00 0.  1.
         -4   -1    0    0    0  501 -0.00000000000E+00 -0.00000000000E+00 -0.15414031656E+04  0.15414031656E+04  0.00000000000E+00 0. -1.
   -9000010    2    1    2    0  501  0.37987885450E+03 -0.10773646297E+04 -0.51648282404E+03  0.16021066596E+04  0.99748120372E+03 0.  0.
    9000010    2    1    2  502    0 -0.37987885450E+03  0.10773646297E+04  0.70816781697E+03  0.16723846644E+04  0.99516145393E+03 0.  0.
        -13    1    4    4    0    0  0.70517788418E+02  0.29485637604E+03 -0.22224813622E+03  0.37590861415E+03  0.10566000000E+00 0.  1.
          4    1    4    4  502    0 -0.45039664292E+03  0.78250825369E+03  0.93041595319E+03  0.12964760503E+04  0.00000000000E+00 0.  1.
         13    1    3    3    0    0 -0.29971686650E+03 -0.45997978303E+03 -0.73302334261E+00  0.54901015414E+03  0.10566000000E+00 0. -1.
         -4    1    3    3    0  501  0.67959572099E+03 -0.61738484669E+03 -0.51574980070E+03  0.10530965055E+04  0.00000000000E+00 0. -1.
<mgrwt>
<rscale>  0 0.15158096E+04</rscale>
<asrwt>0</asrwt>
<pdfrwt beam="1">  1        4 0.26662895E+00 0.15150475E+04</pdfrwt>
<pdfrwt beam="2">  1       -4 0.23713895E+00 0.15165722E+04</pdfrwt>
<totfact> 0.97175452E-02</totfact>
</mgrwt>
</event>
<event>
 8    1  0.3025584E-006  0.1150732E+04  0.7818608E-02  0.8646191E-01
         -4   -1    0    0    0  501 -0.00000000000E+00  0.00000000000E+00  0.92637095476E+03  0.92637095476E+03  0.00000000000E+00 0. -1.
          4   -1    0    0  502    0  0.00000000000E+00 -0.00000000000E+00 -0.15700497274E+04  0.15700497274E+04  0.00000000000E+00 0.  1.
   -9000010    2    1    2    0  501 -0.55049996754E+03 -0.16112431979E+03  0.57696357254E+02  0.11521779820E+04  0.99758406758E+03 0.  0.
    9000010    2    1    2  502    0  0.55049996754E+03  0.16112431979E+03 -0.70137512993E+03  0.13442427002E+04  0.99300055562E+03 0.  0.
        -13    1    4    4    0    0  0.11718982343E+03 -0.38089240236E+03 -0.67119379144E+02  0.40412559819E+03  0.10566000000E+00 0.  1.
          4    1    4    4  502    0  0.43331014411E+03  0.54201672216E+03 -0.63425575079E+03  0.94011710201E+03  0.00000000000E+00 0.  1.
         13    1    3    3    0    0 -0.67228158221E+03 -0.42244259672E+03 -0.13503061518E+03  0.80539031004E+03  0.10566000000E+00 0. -1.
         -4    1    3    3    0  501  0.12178161467E+03  0.26131827693E+03  0.19272697243E+03  0.34678767197E+03  0.00000000000E+00 0. -1.
<mgrwt>
<rscale>  0 0.11487451E+04</rscale>
<asrwt>0</asrwt>
<pdfrwt beam="2">  1        4 0.24154611E+00 0.11467612E+04</pdfrwt>
<pdfrwt beam="1">  1       -4 0.14251861E+00 0.11507325E+04</pdfrwt>
<totfact> 0.22846802E-01</totfact>
</mgrwt>
</event>
<event>
 8    1  0.3025584E-006  0.1306353E+04  0.7818608E-02  0.8537298E-01
          4   -1    0    0  502    0  0.00000000000E+00  0.00000000000E+00  0.11953421937E+04  0.11953421937E+04  0.00000000000E+00 0.  1.
         -4   -1    0    0    0  501 -0.00000000000E+00 -0.00000000000E+00 -0.22885846689E+04  0.22885846689E+04  0.00000000000E+00 0. -1.
   -9000010    2    1    2    0  501 -0.79206086163E+03  0.12681625635E+03 -0.16308735763E+04  0.20895708960E+04  0.10310747480E+04 0.  0.
    9000010    2    1    2  502    0  0.79206086163E+03 -0.12681625635E+03  0.53763110112E+03  0.13943559667E+04  0.10058521708E+04 0.  0.
        -13    1    4    4    0    0  0.60127637412E+03 -0.14749971505E+03 -0.18541854294E+03  0.64627354213E+03  0.10566000000E+00 0.  1.
          4    1    4    4  502    0  0.19078448751E+03  0.20683458699E+02  0.72304964407E+03  0.74808242455E+03  0.00000000000E+00 0.  1.
         13    1    3    3    0    0  0.83418973575E+02  0.36871725806E+03 -0.65610271149E+03  0.75721986288E+03  0.10566000000E+00 0. -1.
         -4    1    3    3    0  501 -0.87547983520E+03 -0.24190100171E+03 -0.97477086482E+03  0.13323510331E+04  0.00000000000E+00 0. -1.
<mgrwt>
<rscale>  0 0.12964079E+04</rscale>
<asrwt>0</asrwt>
<pdfrwt beam="1">  1        4 0.18389880E+00 0.12865385E+04</pdfrwt>
<pdfrwt beam="2">  1       -4 0.35208995E+00 0.13063529E+04</pdfrwt>
<totfact> 0.79081936E-02</totfact>
</mgrwt>
</event>
<event>
 8    1  0.3025584E-006  0.1400246E+04  0.7818608E-02  0.8561273E-01
         -4   -1    0    0    0  501 -0.00000000000E+00  0.00000000000E+00  0.18792053353E+04  0.18792053353E+04  0.00000000000E+00 0. -1.
          4   -1    0    0  502    0  0.00000000000E+00 -0.00000000000E+00 -0.12940156707E+04  0.12940156707E+04  0.00000000000E+00 0.  1.
   -9000010    2    1    2    0  501  0.52886475932E+03 -0.19190614295E+03  0.11915902369E+04  0.16473078148E+04  0.98853924693E+03 0.  0.
    9000010    2    1    2  502    0 -0.52886475932E+03  0.19190614295E+03 -0.60640057231E+03  0.15259131912E+04  0.12822493952E+04 0.  0.
        -13    1    4    4    0    0 -0.80138812817E+03 -0.14337952232E+03 -0.71153830577E+03  0.10812341981E+04  0.10566000000E+00 0.  1.
          4    1    4    4  502    0  0.27252336885E+03  0.33528566526E+03  0.10513773345E+03  0.44467899309E+03  0.00000000000E+00 0.  1.
         13    1    3    3    0    0  0.53923609236E+03  0.61129168013E+02  0.13286818936E+03  0.55871844912E+03  0.10566000000E+00 0. -1.
         -4    1    3    3    0  501 -0.10371333034E+02 -0.25303531096E+03  0.10587220476E+04  0.10885893657E+04  0.00000000000E+00 0. -1.
<mgrwt>
<rscale>  0 0.12620123E+04</rscale>
<asrwt>0</asrwt>
<pdfrwt beam="2">  1        4 0.19907933E+00 0.14002462E+04</pdfrwt>
<pdfrwt beam="1">  1       -4 0.28910851E+00 0.11374250E+04</pdfrwt>
<totfact> 0.10921231E-01</totfact>
</mgrwt>
</event>
<event>
 8    1  0.3025584E-006  0.1630216E+04  0.7818608E-02  0.8339370E-01
          4   -1    0    0  502    0  0.00000000000E+00  0.00000000000E+00  0.27737408380E+04  0.27737408380E+04  0.00000000000E+00 0.  1.
         -4   -1    0    0    0  501 -0.00000000000E+00 -0.00000000000E+00 -0.12430830881E+04  0.12430830881E+04  0.00000000000E+00 0. -1.
   -9000010    2    1    2    0  501 -0.30048312104E+03 -0.12503375925E+04 -0.20122430545E+03  0.16383752594E+04  0.99506184135E+03 0.  0.
    9000010    2    1    2  502    0  0.30048312104E+03  0.12503375925E+04  0.17318820554E+04  0.23784486667E+04  0.10019822380E+04 0.  0.
        -13    1    4    4    0    0  0.34542079610E+03  0.76913626558E+03  0.16957636960E+04  0.18938058626E+04  0.10566000000E+00 0.  1.
          4    1    4    4  502    0 -0.44937675059E+02  0.48120132696E+03  0.36118359370E+02  0.48464280413E+03  0.00000000000E+00 0.  1.
         13    1    3    3    0    0 -0.26191898561E+02 -0.39871443945E+03  0.39607423264E+03  0.56261356960E+03  0.10566000000E+00 0. -1.
         -4    1    3    3    0  501 -0.27429122248E+03 -0.85162315309E+03 -0.59729853809E+03  0.10757616898E+04  0.00000000000E+00 0. -1.
<mgrwt>
<rscale>  0 0.16280920E+04</rscale>
<asrwt>0</asrwt>
<pdfrwt beam="1">  1        4 0.42672936E+00 0.16302155E+04</pdfrwt>
<pdfrwt beam="2">  1       -4 0.19124355E+00 0.16259712E+04</pdfrwt>
<totfact> 0.37380664E-02</totfact>
</mgrwt>
</event>
<event>
 8    1  0.3025584E-006  0.1228519E+04  0.7818608E-02  0.8588421E-01
          4   -1    0    0  502    0  0.00000000000E+00  0.00000000000E+00  0.30890512602E+04  0.30890512602E+04  0.00000000000E+00 0.  1.
         -4   -1    0    0    0  501 -0.00000000000E+00 -0.00000000000E+00 -0.15711653003E+04  0.15711653003E+04  0.00000000000E+00 0. -1.
   -9000010    2    1    2    0  501 -0.15642462350E+03  0.69039679462E+03 -0.11789417550E+04  0.16967491151E+04  0.99395045202E+03 0.  0.
    9000010    2    1    2  502    0  0.15642462350E+03 -0.69039679462E+03  0.26968277148E+04  0.29634674454E+04  0.10040633345E+04 0.  0.
        -13    1    4    4    0    0 -0.11934724490E+03 -0.14867625189E+03 -0.83484188722E+01  0.19083526928E+03  0.10566000000E+00 0.  1.
          4    1    4    4  502    0  0.27577186840E+03 -0.54172054273E+03  0.27051761337E+04  0.27726321761E+04  0.00000000000E+00 0.  1.
         13    1    3    3    0    0 -0.24070772414E+03 -0.27813233308E+02 -0.88257944052E+03  0.91523781850E+03  0.10566000000E+00 0. -1.
         -4    1    3    3    0  501  0.84283100647E+02  0.71821002793E+03 -0.29636231444E+03  0.78151129659E+03  0.00000000000E+00 0. -1.
<mgrwt>
<rscale>  0 0.12243867E+04</rscale>
<asrwt>0</asrwt>
<pdfrwt beam="1">  1        4 0.47523866E+00 0.12285193E+04</pdfrwt>
<pdfrwt beam="2">  1       -4 0.24171774E+00 0.12202680E+04</pdfrwt>
<totfact> 0.17004229E-02</totfact>
</mgrwt>
</event>
<event>
 8    1  0.3025584E-006  0.1071971E+04  0.7818608E-02  0.8727636E-01
         -4   -1    0    0    0  501 -0.00000000000E+00  0.00000000000E+00  0.31268343237E+04  0.31268343237E+04  0.00000000000E+00 0. -1.
          4   -1    0    0  502    0  0.00000000000E+00 -0.00000000000E+00 -0.14219071087E+04  0.14219071087E+04  0.00000000000E+00 0.  1.
   -9000010    2    1    2    0  501 -0.17350880955E+03  0.17328542505E+03  0.28277201328E+04  0.30240903501E+04  0.10435459504E+04 0.  0.
    9000010    2    1    2  502    0  0.17350880955E+03 -0.17328542505E+03 -0.11227929178E+04  0.15246510824E+04  0.10018801531E+04 0.  0.
        -13    1    4    4    0    0  0.18646489387E+03 -0.46608412731E+03 -0.17348757767E+03  0.53113230098E+03  0.10566000000E+00 0.  1.
          4    1    4    4  502    0 -0.12956084316E+02  0.29279870226E+03 -0.94930534014E+03  0.99351878140E+03  0.00000000000E+00 0.  1.
         13    1    3    3    0    0  0.41683115735E+03  0.20093141511E+03  0.15234129079E+04  0.15921396128E+04  0.10566000000E+00 0. -1.
         -4    1    3    3    0  501 -0.59033996690E+03 -0.27645990062E+02  0.13043072249E+04  0.14319507373E+04  0.00000000000E+00 0. -1.
<mgrwt>
<rscale>  0 0.10515172E+04</rscale>
<asrwt>0</asrwt>
<pdfrwt beam="2">  1        4 0.21875494E+00 0.10314538E+04</pdfrwt>
<pdfrwt beam="1">  1       -4 0.48105143E+00 0.10719708E+04</pdfrwt>
<totfact> 0.18613206E-02</totfact>
</mgrwt>
</event>
<event>
 8    1  0.3025584E-006  0.1042836E+04  0.7818608E-02  0.8752015E-01
          4   -1    0    0  502    0  0.00000000000E+00  0.00000000000E+00  0.13950301311E+04  0.13950301311E+04  0.00000000000E+00 0.  1.
         -4   -1    0    0    0  501 -0.00000000000E+00 -0.00000000000E+00 -0.10375117391E+04  0.10375117391E+04  0.00000000000E+00 0. -1.
   -9000010    2    1    2    0  501  0.26728733737E+03 -0.13330060997E+03 -0.45638513122E+03  0.11383296787E+04  0.99914738453E+03 0.  0.
    9000010    2    1    2  502    0 -0.26728733737E+03  0.13330060997E+03  0.81390352323E+03  0.12942121915E+04  0.96090305349E+03 0.  0.
        -13    1    4    4    0    0 -0.20903129830E+03 -0.40663634259E+03  0.30233074825E+03  0.54813419095E+03  0.10566000000E+00 0.  1.
          4    1    4    4  502    0 -0.58256039072E+02  0.53993695256E+03  0.51157277497E+03  0.74607800056E+03  0.00000000000E+00 0.  1.
         13    1    3    3    0    0  0.37445146049E+03  0.37067976494E+03 -0.20997792502E+03  0.56719319862E+03  0.10566000000E+00 0. -1.
         -4    1    3    3    0  501 -0.10716412312E+03 -0.50398037491E+03 -0.24640720620E+03  0.57113648006E+03  0.00000000000E+00 0. -1.
<mgrwt>
<rscale>  0 0.10243815E+04</rscale>
<asrwt>0</asrwt>
<pdfrwt beam="1">  1        4 0.21462002E+00 0.10062536E+04</pdfrwt>
<pdfrwt beam="2">  1       -4 0.15961719E+00 0.10428361E+04</pdfrwt>
<totfact> 0.22659538E-01</totfact>
</mgrwt>
</event>
<event>
 8    1  0.3025584E-006  0.1293982E+04  0.7818608E-02  0.8547408E-01
          4   -1    0    0  502    0  0.00000000000E+00  0.00000000000E+00  0.33314797273E+04  0.33314797273E+04  0.00000000000E+00 0.  1.
         -4   -1    0    0    0  501 -0.00000000000E+00 -0.00000000000E+00 -0.22575433882E+04  0.22575433882E+04  0.00000000000E+00 0. -1.
   -9000010    2    1    2    0  501 -0.75335144927E+03  0.30427345837E+03 -0.19345906431E+04  0.23140233224E+04  0.97567527216E+03 0.  0.
    9000010    2    1    2  502    0  0.75335144927E+03 -0.30427345837E+03  0.30085269822E+04  0.32749997931E+04  0.10071088813E+04 0.  0.
        -13    1    4    4    0    0  0.70570258494E+03  0.23739089604E+03  0.15854731204E+04  0.17515980140E+04  0.10566000000E+00 0.  1.
          4    1    4    4  502    0  0.47648864326E+02 -0.54166435442E+03  0.14230538618E+04  0.15234017791E+04  0.00000000000E+00 0.  1.
         13    1    3    3    0    0 -0.41052172761E+03  0.10207668989E+03 -0.97236688422E+02  0.43405382638E+03  0.10566000000E+00 0. -1.
         -4    1    3    3    0  501 -0.34282972166E+03  0.20219676849E+03 -0.18373539546E+04  0.18799694960E+04  0.00000000000E+00 0. -1.
<mgrwt>
<rscale>  0 0.12817685E+04</rscale>
<asrwt>0</asrwt>
<pdfrwt beam="1">  1        4 0.51253534E+00 0.12939819E+04</pdfrwt>
<pdfrwt beam="2">  1       -4 0.34731437E+00 0.12696704E+04</pdfrwt>
<totfact> 0.59008851E-03</totfact>
</mgrwt>
</event>
<event>
 8    1  0.3025584E-006  0.1118704E+04  0.7818608E-02  0.8670502E-01
         -4   -1    0    0    0  501 -0.00000000000E+00  0.00000000000E+00  0.10268439126E+04  0.10268439126E+04  0.00000000000E+00 0. -1.
          4   -1    0    0  502    0  0.00000000000E+00 -0.00000000000E+00 -0.15495765151E+04  0.15495765151E+04  0.00000000000E+00 0.  1.
   -9000010    2    1    2    0  501 -0.38458495019E+03  0.31696707562E+03  0.33398320695E+03  0.11674948163E+04  0.10015616070E+04 0.  0.
    9000010    2    1    2  502    0  0.38458495019E+03 -0.31696707562E+03 -0.85671580943E+03  0.14089256115E+04  0.10013669106E+04 0.  0.
        -13    1    4    4    0    0  0.39648284249E+03 -0.35089959531E+03  0.21573480490E+02  0.52990055350E+03  0.10566000000E+00 0.  1.
          4    1    4    4  502    0 -0.11897892294E+02  0.33932519692E+02 -0.87828928992E+03  0.87902505796E+03  0.00000000000E+00 0.  1.
         13    1    3    3    0    0  0.76429596078E+02 -0.32185013658E+03  0.91370652713E+02  0.34318741369E+03  0.10566000000E+00 0. -1.
         -4    1    3    3    0  501 -0.46101454627E+03  0.63881721221E+03  0.24261255424E+03  0.82430740258E+03  0.00000000000E+00 0. -1.
<mgrwt>
<rscale>  0 0.11186172E+04</rscale>
<asrwt>0</asrwt>
<pdfrwt beam="2">  1        4 0.23839639E+00 0.11185300E+04</pdfrwt>
<pdfrwt beam="1">  1       -4 0.15797599E+00 0.11187043E+04</pdfrwt>
<totfact> 0.19991049E-01</totfact>
</mgrwt>
</event>
<event>
 8    1  0.3025584E-006  0.1229815E+04  0.7818608E-02  0.8610189E-01
         -4   -1    0    0    0  501 -0.00000000000E+00  0.00000000000E+00  0.19405866614E+04  0.19405866614E+04  0.00000000000E+00 0. -1.
          4   -1    0    0  502    0  0.00000000000E+00 -0.00000000000E+00 -0.86117360216E+03  0.86117360216E+03  0.00000000000E+00 0.  1.
   -9000010    2    1    2    0  501  0.45078309792E+03  0.39703041679E+03  0.10852635201E+04  0.16401960357E+04  0.10731298030E+04 0.  0.
    9000010    2    1    2  502    0 -0.45078309792E+03 -0.39703041679E+03 -0.58504608811E+01  0.11615642279E+04  0.99416229782E+03 0.  0.
        -13    1    4    4    0    0 -0.74424464169E+03 -0.30123126822E+03 -0.15659313807E+03  0.81802309606E+03  0.10566000000E+00 0.  1.
          4    1    4    4  502    0  0.29346154377E+03 -0.95799148573E+02  0.15074267719E+03  0.34354113184E+03  0.00000000000E+00 0.  1.
         13    1    3    3    0    0 -0.34296417669E+03  0.13765836358E+02  0.37351024767E+03  0.50727097396E+03  0.10566000000E+00 0. -1.
         -4    1    3    3    0  501  0.79374727461E+03  0.38326458044E+03  0.71175327245E+03  0.11329250617E+04  0.00000000000E+00 0. -1.
<mgrwt>
<rscale>  0 0.11951952E+04</rscale>
<asrwt>0</asrwt>
<pdfrwt beam="2">  1        4 0.13248825E+00 0.11615495E+04</pdfrwt>
<pdfrwt beam="1">  1       -4 0.29855179E+00 0.12298155E+04</pdfrwt>
<totfact> 0.18401628E-01</totfact>
</mgrwt>
</event>
<event>
 8    1  0.3025584E-006  0.1222765E+04  0.7818608E-02  0.8601722E-01
         -4   -1    0    0    0  501 -0.00000000000E+00  0.00000000000E+00  0.20406954754E+04  0.20406954754E+04  0.00000000000E+00 0.  1.
          4   -1    0    0  502    0  0.00000000000E+00 -0.00000000000E+00 -0.72989384853E+03  0.72989384853E+03  0.00000000000E+00 0. -1.
   -9000010    2    1    2    0  501  0.65350359309E+03 -0.19374740416E+03  0.85517616882E+03  0.14656949598E+04  0.97587418898E+03 0.  0.
    9000010    2    1    2  502    0 -0.65350359309E+03  0.19374740416E+03  0.45562545800E+03  0.13048943641E+04  0.10151599581E+04 0.  0.
        -13    1    4    4    0    0 -0.10947285926E+03 -0.25528451065E+03 -0.19966561990E+03  0.34208311742E+03  0.10566000000E+00 0.  1.
          4    1    4    4  502    0 -0.54403073384E+03  0.44903191481E+03  0.65529107790E+03  0.96281124664E+03  0.00000000000E+00 0.  1.
         13    1    3    3    0    0  0.83114643394E+03 -0.16133048628E+03  0.32718681025E+03  0.90768008705E+03  0.10566000000E+00 0. -1.
         -4    1    3    3    0  501 -0.17764284085E+03 -0.32416917875E+02  0.52798935857E+03  0.55801487277E+03  0.00000000000E+00 0. -1.
<mgrwt>
<rscale>  0 0.12064492E+04</rscale>
<asrwt>0</asrwt>
<pdfrwt beam="2">  1        4 0.11229136E+00 0.12227652E+04</pdfrwt>
<pdfrwt beam="1">  1       -4 0.31395315E+00 0.11903510E+04</pdfrwt>
<totfact> 0.22077514E-01</totfact>
</mgrwt>
</event>
<event>
 8    1  0.3025584E-006  0.1673605E+04  0.7818608E-02  0.8316697E-01
         -4   -1    0    0    0  501 -0.00000000000E+00  0.00000000000E+00  0.19558257439E+04  0.19558257439E+04  0.00000000000E+00 0. -1.
          4   -1    0    0  502    0  0.00000000000E+00 -0.00000000000E+00 -0.18279906270E+04  0.18279906270E+04  0.00000000000E+00 0.  1.
   -9000010    2    1    2    0  501  0.43697020623E+03  0.12510092930E+04  0.94685388103E+03  0.19228847222E+04  0.10222456509E+04 0.  0.
    9000010    2    1    2  502    0 -0.43697020623E+03 -0.12510092930E+04 -0.81901876413E+03  0.18609316486E+04  0.10179919708E+04 0.  0.
        -13    1    4    4    0    0  0.16504462910E+03 -0.45588769890E+03  0.11086933861E+03  0.49735836678E+03  0.10566000000E+00 0.  1.
          4    1    4    4  502    0 -0.60201483534E+03 -0.79512159405E+03 -0.92988810273E+03  0.13635732818E+04  0.00000000000E+00 0.  1.
         13    1    3    3    0    0 -0.19912789721E+03  0.80659364474E+03  0.21949249935E+03  0.85931495717E+03  0.10566000000E+00 0. -1.
         -4    1    3    3    0  501  0.63609810344E+03  0.44441564822E+03  0.72736138168E+03  0.10635697651E+04  0.00000000000E+00 0. -1.
<mgrwt>
<rscale>  0 0.16723070E+04</rscale>
<asrwt>0</asrwt>
<pdfrwt beam="2">  1        4 0.28122933E+00 0.16710101E+04</pdfrwt>
<pdfrwt beam="1">  1       -4 0.30089627E+00 0.16736049E+04</pdfrwt>
<totfact> 0.60912354E-02</totfact>
</mgrwt>
</event>
<event>
 8    1  0.3025584E-006  0.1282288E+04  0.7818608E-02  0.8566944E-01
         -4   -1    0    0    0  501 -0.00000000000E+00  0.00000000000E+00  0.23022047328E+04  0.23022047328E+04  0.00000000000E+00 0. -1.
          4   -1    0    0  502    0  0.00000000000E+00 -0.00000000000E+00 -0.73563681230E+03  0.73563681230E+03  0.00000000000E+00 0.  1.
   -9000010    2    1    2    0  501  0.70596154631E+03  0.26296838505E+02  0.11716238216E+04  0.16961103285E+04  0.10025041838E+04 0.  0.
    9000010    2    1    2  502    0 -0.70596154631E+03 -0.26296838505E+02  0.39494409887E+03  0.13417312166E+04  0.10701348456E+04 0.  0.
        -13    1    4    4    0    0 -0.24766012695E+03  0.15183897657E+03 -0.34643561823E+03  0.45211531939E+03  0.10566000000E+00 0.  1.
          4    1    4    4  502    0 -0.45830141935E+03 -0.17813581507E+03  0.74137971711E+03  0.88961589719E+03  0.00000000000E+00 0.  1.
         13    1    3    3    0    0  0.91806487074E+03 -0.17330621585E+03  0.92007064642E+03  0.13112620474E+04  0.10566000000E+00 0. -1.
         -4    1    3    3    0  501 -0.21210332444E+03  0.19960305435E+03  0.25155317523E+03  0.38484828116E+03  0.00000000000E+00 0. -1.
<mgrwt>
<rscale>  0 0.12540390E+04</rscale>
<asrwt>0</asrwt>
<pdfrwt beam="2">  1        4 0.11317489E+00 0.12822877E+04</pdfrwt>
<pdfrwt beam="1">  1       -4 0.35418534E+00 0.12264126E+04</pdfrwt>
<totfact> 0.16420369E-01</totfact>
</mgrwt>
</event>
<event>
 8    1  0.3025584E-006  0.2136072E+04  0.7818608E-02  0.8120070E-01
         -4   -1    0    0    0  501 -0.00000000000E+00  0.00000000000E+00  0.32299222325E+04  0.32299222325E+04  0.00000000000E+00 0. -1.
          4   -1    0    0  502    0  0.00000000000E+00 -0.00000000000E+00 -0.14201479489E+04  0.14201479489E+04  0.00000000000E+00 0.  1.
   -9000010    2    1    2    0  501 -0.54928875686E+03  0.17829754669E+04  0.12167492246E+04  0.24583090281E+04  0.10402331220E+04 0.  0.
    9000010    2    1    2  502    0  0.54928875686E+03 -0.17829754669E+04  0.59302505897E+03  0.21917611533E+04  0.98560569127E+03 0.  0.
        -13    1    4    4    0    0 -0.11309530084E+03  0.25427877306E+02 -0.91658288442E+02  0.14777813445E+03  0.10566000000E+00 0.  1.
          4    1    4    4  502    0  0.66238405770E+03 -0.18084033442E+04  0.68468334741E+03  0.20439830189E+04  0.00000000000E+00 0.  1.
         13    1    3    3    0    0 -0.68451812742E+03  0.18495597754E+04  0.11951405070E+04  0.23060349677E+04  0.10566000000E+00 0. -1.
         -4    1    3    3    0  501  0.13522937055E+03 -0.66584308537E+02  0.21608717665E+02  0.15227406044E+03  0.00000000000E+00 0. -1.
<mgrwt>
<rscale>  0 0.21230007E+04</rscale>
<asrwt>0</asrwt>
<pdfrwt beam="2">  1        4 0.21848430E+00 0.21100091E+04</pdfrwt>
<pdfrwt beam="1">  1       -4 0.49691111E+00 0.21360722E+04</pdfrwt>
<totfact> 0.14172674E-02</totfact>
</mgrwt>
</event>
<event>
 8    1  0.3025584E-006  0.1088872E+04  0.7818608E-02  0.8704061E-01
         -4   -1    0    0    0  501 -0.00000000000E+00  0.00000000000E+00  0.66609412555E+03  0.66609412555E+03  0.00000000000E+00 0. -1.
          4   -1    0    0  502    0  0.00000000000E+00 -0.00000000000E+00 -0.31960600324E+04  0.31960600324E+04  0.00000000000E+00 0.  1.
   -9000010    2    1    2    0  501 -0.82579761617E+02  0.37274067697E+03  0.41953189231E+02  0.10692325416E+04  0.99786929436E+03 0.  0.
    9000010    2    1    2  502    0  0.82579761617E+02 -0.37274067697E+03 -0.25719190961E+04  0.27929216164E+04  0.10197491305E+04 0.  0.
        -13    1    4    4    0    0  0.48836254574E+03 -0.45903003082E+03 -0.14733746822E+04  0.16186536105E+04  0.10566000000E+00 0.  1.
          4    1    4    4  502    0 -0.40578278412E+03  0.86289353850E+02 -0.10985444138E+04  0.11742680059E+04  0.00000000000E+00 0.  1.
         13    1    3    3    0    0 -0.45712782372E+03  0.49240859211E+03  0.67096890900E+02  0.67522890396E+03  0.10566000000E+00 0. -1.
         -4    1    3    3    0  501  0.37454806210E+03 -0.11966791514E+03 -0.25143701669E+02  0.39400363764E+03  0.00000000000E+00 0. -1.
<mgrwt>
<rscale>  0 0.10785923E+04</rscale>
<asrwt>0</asrwt>
<pdfrwt beam="2">  1        4 0.49170155E+00 0.10888725E+04</pdfrwt>
<pdfrwt beam="1">  1       -4 0.10247602E+00 0.10684092E+04</pdfrwt>
<totfact> 0.51908831E-02</totfact>
</mgrwt>
</event>
<event>
 8    1  0.3025584E-006  0.2016661E+04  0.7818608E-02  0.8162423E-01
          4   -1    0    0  502    0  0.00000000000E+00  0.00000000000E+00  0.34436319463E+04  0.34436319463E+04  0.00000000000E+00 0.  1.
         -4   -1    0    0    0  501 -0.00000000000E+00 -0.00000000000E+00 -0.35058374186E+04  0.35058374186E+04  0.00000000000E+00 0. -1.
   -9000010    2    1    2    0  501  0.32551404409E+03 -0.17128593714E+04 -0.28620729432E+04  0.35011975611E+04  0.10134476855E+04 0.  0.
    9000010    2    1    2  502    0 -0.32551404409E+03  0.17128593714E+04  0.27998674709E+04  0.34482718038E+04  0.10057206170E+04 0.  0.
        -13    1    4    4    0    0  0.22958421849E+03  0.11807311515E+04  0.13575315288E+04  0.18137604109E+04  0.10566000000E+00 0.  1.
          4    1    4    4  502    0 -0.55509826259E+03  0.53212821987E+03  0.14423359421E+04  0.16345113929E+04  0.00000000000E+00 0.  1.
         13    1    3    3    0    0  0.54973638594E+03 -0.15125061018E+04 -0.27379618176E+04  0.31758966809E+04  0.10566000000E+00 0. -1.
         -4    1    3    3    0  501 -0.22422234184E+03 -0.20035326958E+03 -0.12411112562E+03  0.32530088028E+03  0.00000000000E+00 0. -1.
<mgrwt>
<rscale>  0 0.20147244E+04</rscale>
<asrwt>0</asrwt>
<pdfrwt beam="1">  1        4 0.52978953E+00 0.20127893E+04</pdfrwt>
<pdfrwt beam="2">  1       -4 0.53935961E+00 0.20166613E+04</pdfrwt>
<totfact> 0.64191160E-04</totfact>
</mgrwt>
</event>
<event>
 8    1  0.3025584E-006  0.1056715E+04  0.7818608E-02  0.8732516E-01
          4   -1    0    0  502    0  0.00000000000E+00  0.00000000000E+00  0.10774287628E+04  0.10774287628E+04  0.00000000000E+00 0.  1.
         -4   -1    0    0    0  501 -0.00000000000E+00 -0.00000000000E+00 -0.17157128444E+04  0.17157128444E+04  0.00000000000E+00 0. -1.
   -9000010    2    1    2    0  501 -0.93516669161E+02 -0.27221477184E+03 -0.12092980916E+04  0.15920160112E+04  0.99461895025E+03 0.  0.
    9000010    2    1    2  502    0  0.93516669161E+02  0.27221477184E+03  0.57101401000E+03  0.12011255960E+04  0.10167592873E+04 0.  0.
        -13    1    4    4    0    0 -0.12708655457E+02  0.56472576728E+03  0.16328452950E+02  0.56510470861E+03  0.10566000000E+00 0.  1.
          4    1    4    4  502    0  0.10622532462E+03 -0.29251099544E+03  0.55468555705E+03  0.63602088743E+03  0.00000000000E+00 0.  1.
         13    1    3    3    0    0 -0.11133344154E+03  0.33351895995E+03 -0.76075012117E+03  0.83807564687E+03  0.10566000000E+00 0. -1.
         -4    1    3    3    0  501  0.17816772381E+02 -0.60573373178E+03 -0.44854797040E+03  0.75394036432E+03  0.00000000000E+00 0. -1.
<mgrwt>
<rscale>  0 0.10460176E+04</rscale>
<asrwt>0</asrwt>
<pdfrwt beam="1">  1        4 0.16575827E+00 0.10567146E+04</pdfrwt>
<pdfrwt beam="2">  1       -4 0.26395582E+00 0.10354289E+04</pdfrwt>
<totfact> 0.16334055E-01</totfact>
</mgrwt>
</event>
<event>
 8    1  0.3025584E-006  0.1209617E+04  0.7818608E-02  0.8614296E-01
         -4   -1    0    0    0  501 -0.00000000000E+00  0.00000000000E+00  0.20072532004E+04  0.20072532004E+04  0.00000000000E+00 0. -1.
          4   -1    0    0  502    0  0.00000000000E+00 -0.00000000000E+00 -0.14024298401E+04  0.14024298401E+04  0.00000000000E+00 0.  1.
   -9000010    2    1    2    0  501  0.41353207628E+02 -0.60860270826E+03  0.15016929625E+04  0.19038447408E+04  0.99871702663E+03 0.  0.
    9000010    2    1    2  502    0 -0.41353207628E+02  0.60860270826E+03 -0.89686960217E+03  0.15058382996E+04  0.10445413142E+04 0.  0.
        -13    1    4    4    0    0  0.47302173722E+02  0.89311914645E+03 -0.77656238959E+03  0.11844612537E+04  0.10566000000E+00 0.  1.
          4    1    4    4  502    0 -0.88655381350E+02 -0.28451643819E+03 -0.12030721259E+03  0.32137704592E+03  0.00000000000E+00 0.  1.
         13    1    3    3    0    0 -0.25890838244E+03 -0.75828456882E+03  0.83365632955E+03  0.11562923180E+04  0.10566000000E+00 0. -1.
         -4    1    3    3    0  501  0.30026159007E+03  0.14968186056E+03  0.66803663292E+03  0.74755242276E+03  0.00000000000E+00 0. -1.
<mgrwt>
<rscale>  0 0.11897834E+04</rscale>
<asrwt>0</asrwt>
<pdfrwt beam="2">  1        4 0.21575844E+00 0.12096173E+04</pdfrwt>
<pdfrwt beam="1">  1       -4 0.30880818E+00 0.11702748E+04</pdfrwt>
<totfact> 0.87149898E-02</totfact>
</mgrwt>
</event>
<event>
 8    1  0.3025584E-006  0.1027186E+04  0.7818608E-02  0.8762222E-01
         -4   -1    0    0    0  501 -0.00000000000E+00  0.00000000000E+00  0.28078858761E+04  0.28078858761E+04  0.00000000000E+00 0. -1.
          4   -1    0    0  502    0  0.00000000000E+00 -0.00000000000E+00 -0.32625132101E+04  0.32625132101E+04  0.00000000000E+00 0.  1.
   -9000010    2    1    2    0  501  0.94082781481E+01 -0.19694619696E+03  0.26330277413E+04  0.28163669641E+04  0.97990380646E+03 0.  0.
    9000010    2    1    2  502    0 -0.94082781481E+01  0.19694619696E+03 -0.30876550753E+04  0.32540321221E+04  0.10080847523E+04 0.  0.
        -13    1    4    4    0    0 -0.12271978734E+03  0.59798342623E+03 -0.18315949530E+04  0.19306435216E+04  0.10566000000E+00 0.  1.
          4    1    4    4  502    0  0.11331150919E+03 -0.40103722927E+03 -0.12560601222E+04  0.13233886005E+04  0.00000000000E+00 0.  1.
         13    1    3    3    0    0  0.38436194928E+03 -0.90943011665E+02  0.44963603294E+03  0.59847916647E+03  0.10566000000E+00 0. -1.
         -4    1    3    3    0  501 -0.37495367113E+03 -0.10600318529E+03  0.21833917083E+04  0.22178877976E+04  0.00000000000E+00 0. -1.
<mgrwt>
<rscale>  0 0.10132707E+04</rscale>
<asrwt>0</asrwt>
<pdfrwt beam="2">  1        4 0.50192511E+00 0.10271861E+04</pdfrwt>
<pdfrwt beam="1">  1       -4 0.43198244E+00 0.99954379E+03</pdfrwt>
<totfact> 0.32722156E-03</totfact>
</mgrwt>
</event>
<event>
 8    1  0.3025584E-006  0.1221663E+04  0.7818608E-02  0.8595436E-01
          4   -1    0    0  502    0  0.00000000000E+00  0.00000000000E+00  0.13951332826E+04  0.13951332826E+04  0.00000000000E+00 0.  1.
         -4   -1    0    0    0  501 -0.00000000000E+00 -0.00000000000E+00 -0.14174305214E+04  0.14174305214E+04  0.00000000000E+00 0. -1.
   -9000010    2    1    2    0  501  0.70203538681E+03  0.54061633404E+02 -0.71929079048E+03  0.14060571225E+04  0.98175406586E+03 0.  0.
    9000010    2    1    2  502    0 -0.70203538681E+03 -0.54061633404E+02  0.69699355164E+03  0.14065066815E+04  0.99834096863E+03 0.  0.
        -13    1    4    4    0    0  0.50973245682E+02 -0.16001771044E+03 -0.17970859660E+03  0.24596570958E+03  0.10566000000E+00 0.  1.
          4    1    4    4  502    0 -0.75300863249E+03  0.10595607704E+03  0.87670214824E+03  0.11605409720E+04  0.00000000000E+00 0.  1.
         13    1    3    3    0    0  0.60763854764E+03 -0.33514583365E+03 -0.14992668420E+03  0.70994743199E+03  0.10566000000E+00 0. -1.
         -4    1    3    3    0  501  0.94396839170E+02  0.38920746706E+03 -0.56936410628E+03  0.69610969048E+03  0.00000000000E+00 0. -1.
<mgrwt>
<rscale>  0 0.12148859E+04</rscale>
<asrwt>0</asrwt>
<pdfrwt beam="1">  1        4 0.21463589E+00 0.12216632E+04</pdfrwt>
<pdfrwt beam="2">  1       -4 0.21806623E+00 0.12081463E+04</pdfrwt>
<totfact> 0.14798626E-01</totfact>
</mgrwt>
</event>
<event>
 8    1  0.3025584E-006  0.1425048E+04  0.7818608E-02  0.8455175E-01
         -4   -1    0    0    0  501 -0.00000000000E+00  0.00000000000E+00  0.22947699549E+04  0.22947699549E+04  0.00000000000E+00 0. -1.
          4   -1    0    0  502    0  0.00000000000E+00 -0.00000000000E+00 -0.10477865433E+04  0.10477865433E+04  0.00000000000E+00 0.  1.
   -9000010    2    1    2    0  501  0.76417893004E+03 -0.66563389872E+03  0.12879139785E+04  0.19208030122E+04  0.10018602055E+04 0.  0.
    9000010    2    1    2  502    0 -0.76417893004E+03  0.66563389872E+03 -0.40930566904E+02  0.14217534861E+04  0.99632812853E+03 0.  0.
        -13    1    4    4    0    0 -0.32420408464E+03 -0.22573199873E+03 -0.14822788657E+03  0.42194163254E+03  0.10566000000E+00 0.  1.
          4    1    4    4  502    0 -0.43997484540E+03  0.89136589745E+03  0.10729731966E+03  0.99981185357E+03  0.00000000000E+00 0.  1.
         13    1    3    3    0    0 -0.23054659964E+02 -0.60414607538E+03  0.36513521295E+03  0.70629153516E+03  0.10566000000E+00 0. -1.
         -4    1    3    3    0  501  0.78723359001E+03 -0.61487823341E+02  0.92277876553E+03  0.12145114770E+04  0.00000000000E+00 0. -1.
<mgrwt>
<rscale>  0 0.14231048E+04</rscale>
<asrwt>0</asrwt>
<pdfrwt beam="2">  1        4 0.16119793E+00 0.14211642E+04</pdfrwt>
<pdfrwt beam="1">  1       -4 0.35304153E+00 0.14250480E+04</pdfrwt>
<totfact> 0.93574444E-02</totfact>
</mgrwt>
</event>
<event>
 8    1  0.3025584E-006  0.1020983E+04  0.7818608E-02  0.8771676E-01
          4   -1    0    0  502    0  0.00000000000E+00  0.00000000000E+00  0.64335490904E+03  0.64335490904E+03  0.00000000000E+00 0.  1.
         -4   -1    0    0    0  501 -0.00000000000E+00 -0.00000000000E+00 -0.18862008112E+04  0.18862008112E+04  0.00000000000E+00 0. -1.
   -9000010    2    1    2    0  501 -0.33578615225E+02  0.20471222847E+03 -0.11527745130E+04  0.15399010802E+04  0.99968577018E+03 0.  0.
    9000010    2    1    2  502    0  0.33578615225E+02 -0.20471222847E+03 -0.90071389120E+02  0.98965464000E+03  0.96346708892E+03 0.  0.
        -13    1    4    4    0    0  0.14757379922E+03 -0.56759131843E+03  0.39594316692E+02  0.58779728823E+03  0.10566000000E+00 0.  1.
          4    1    4    4  502    0 -0.11399518400E+03  0.36287908996E+03 -0.12966570581E+03  0.40185735176E+03  0.00000000000E+00 0.  1.
         13    1    3    3    0    0  0.19320242533E+03 -0.27434668990E+03 -0.82450296968E+02  0.34553052838E+03  0.10566000000E+00 0. -1.
         -4    1    3    3    0  501 -0.22678104056E+03  0.47905891837E+03 -0.10703242160E+04  0.11943705518E+04  0.00000000000E+00 0. -1.
<mgrwt>
<rscale>  0 0.10031087E+04</rscale>
<asrwt>0</asrwt>
<pdfrwt beam="1">  1        4 0.98977681E-01 0.98554729E+03</pdfrwt>
<pdfrwt beam="2">  1       -4 0.29018473E+00 0.10209830E+04</pdfrwt>
<totfact> 0.32560855E-01</totfact>
</mgrwt>
</event>
<event>
 8    1  0.3025584E-006  0.1178825E+04  0.7818608E-02  0.8669542E-01
         -4   -1    0    0    0  501 -0.00000000000E+00  0.00000000000E+00  0.15194887300E+04  0.15194887300E+04  0.00000000000E+00 0. -1.
          4   -1    0    0  502    0  0.00000000000E+00 -0.00000000000E+00 -0.16091915769E+04  0.16091915769E+04  0.00000000000E+00 0.  1.
   -9000010    2    1    2    0  501 -0.28487427629E+01 -0.51151432536E+03  0.10459543151E+04  0.14918094404E+04  0.93264138704E+03 0.  0.
    9000010    2    1    2  502    0  0.28487427629E+01  0.51151432536E+03 -0.11356571620E+04  0.16368708665E+04  0.10620612147E+04 0.  0.
        -13    1    4    4    0    0 -0.70184398380E+02  0.83883523264E+03 -0.77185192228E+03  0.11420708377E+04  0.10566000000E+00 0.  1.
          4    1    4    4  502    0  0.73033141143E+02 -0.32732090729E+03 -0.36380523971E+03  0.49480002879E+03  0.00000000000E+00 0.  1.
         13    1    3    3    0    0 -0.39430395563E+03 -0.48848413565E+03  0.84065269127E+03  0.10491850736E+04  0.10566000000E+00 0. -1.
         -4    1    3    3    0  501  0.39145521286E+03 -0.23030189704E+02  0.20530162380E+03  0.44262436676E+03  0.00000000000E+00 0. -1.
<mgrwt>
<rscale>  0 0.11197884E+04</rscale>
<asrwt>0</asrwt>
<pdfrwt beam="2">  1        4 0.24756794E+00 0.11788253E+04</pdfrwt>
<pdfrwt beam="1">  1       -4 0.23376750E+00 0.10637081E+04</pdfrwt>
<totfact> 0.11260061E-01</totfact>
</mgrwt>
</event>
<event>
 8    1  0.3025584E-006  0.1068161E+04  0.7818608E-02  0.8718674E-01
          4   -1    0    0  502    0  0.00000000000E+00  0.00000000000E+00  0.10006876703E+04  0.10006876703E+04  0.00000000000E+00 0.  1.
         -4   -1    0    0    0  501 -0.00000000000E+00 -0.00000000000E+00 -0.25416402511E+04  0.25416402511E+04  0.00000000000E+00 0. -1.
   -9000010    2    1    2    0  501 -0.36347344837E+03  0.30494505224E+02 -0.20900028591E+04  0.23413181830E+04  0.99026058210E+03 0.  0.
    9000010    2    1    2  502    0  0.36347344837E+03 -0.30494505224E+02  0.54905027828E+03  0.12010097384E+04  0.10039548402E+04 0.  0.
        -13    1    4    4    0    0  0.34888689548E+03  0.14590139939E+03 -0.20245015090E+03  0.42894680200E+03  0.10566000000E+00 0.  1.
          4    1    4    4  502    0  0.14586552890E+02 -0.17639590461E+03  0.75150042918E+03  0.77206293639E+03  0.00000000000E+00 0.  1.
         13    1    3    3    0    0 -0.35046991292E+03 -0.43085471298E+03 -0.82300057022E+03  0.99287204277E+03  0.10566000000E+00 0. -1.
         -4    1    3    3    0  501 -0.13003535452E+02  0.46134921821E+03 -0.12670022889E+04  0.13484461402E+04  0.00000000000E+00 0. -1.
<mgrwt>
<rscale>  0 0.10617113E+04</rscale>
<asrwt>0</asrwt>
<pdfrwt beam="1">  1        4 0.15395195E+00 0.10681611E+04</pdfrwt>
<pdfrwt beam="2">  1       -4 0.39102158E+00 0.10553004E+04</pdfrwt>
<totfact> 0.74465607E-02</totfact>
</mgrwt>
</event>
<event>
 8    1  0.3025584E-006  0.1149816E+04  0.7818608E-02  0.8660227E-01
         -4   -1    0    0    0  501 -0.00000000000E+00  0.00000000000E+00  0.14771598886E+04  0.14771598886E+04  0.00000000000E+00 0. -1.
          4   -1    0    0  502    0  0.00000000000E+00 -0.00000000000E+00 -0.38249140206E+04  0.38249140206E+04  0.00000000000E+00 0.  1.
   -9000010    2    1    2    0  501  0.27024451463E+03 -0.45358775878E+03  0.11618626813E+04  0.16089063425E+04  0.97973505409E+03 0.  0.
    9000010    2    1    2  502    0 -0.27024451463E+03  0.45358775878E+03 -0.35096168132E+04  0.36931675667E+04  0.10214218263E+04 0.  0.
        -13    1    4    4    0    0 -0.31720041124E+03  0.40477188977E+03 -0.63215558656E+03  0.81490924674E+03  0.10566000000E+00 0.  1.
          4    1    4    4  502    0  0.46955896603E+02  0.48815869012E+02 -0.28774612267E+04  0.28782583199E+04  0.00000000000E+00 0.  1.
         13    1    3    3    0    0  0.12294248773E+03 -0.29344664526E+03  0.13084328749E+04  0.13465594633E+04  0.10566000000E+00 0. -1.
         -4    1    3    3    0  501  0.14730202690E+03 -0.16014111353E+03 -0.14657019362E+03  0.26234687921E+03  0.00000000000E+00 0. -1.
<mgrwt>
<rscale>  0 0.11312321E+04</rscale>
<asrwt>0</asrwt>
<pdfrwt beam="2">  1        4 0.58844830E+00 0.11498159E+04</pdfrwt>
<pdfrwt beam="1">  1       -4 0.22725537E+00 0.11129487E+04</pdfrwt>
<totfact> 0.51025139E-03</totfact>
</mgrwt>
</event>
<event>
 8    1  0.3025584E-006  0.1098170E+04  0.7818608E-02  0.8690402E-01
          4   -1    0    0  502    0  0.00000000000E+00  0.00000000000E+00  0.14150494251E+04  0.14150494251E+04  0.00000000000E+00 0.  1.
         -4   -1    0    0    0  501 -0.00000000000E+00 -0.00000000000E+00 -0.12493004488E+04  0.12493004488E+04  0.00000000000E+00 0. -1.
   -9000010    2    1    2    0  501  0.24290078019E+03  0.37851946784E+03 -0.67306660201E+03  0.12880200974E+04  0.10018479645E+04 0.  0.
    9000010    2    1    2  502    0 -0.24290078019E+03 -0.37851946784E+03  0.83881557834E+03  0.13763297765E+04  0.99418021640E+03 0.  0.
        -13    1    4    4    0    0 -0.54276434522E+03 -0.26888824156E+03  0.86498878231E+03  0.10559827771E+04  0.10566000000E+00 0.  1.
          4    1    4    4  502    0  0.29986356503E+03 -0.10963122628E+03 -0.26173203974E+02  0.32034699938E+03  0.00000000000E+00 0.  1.
         13    1    3    3    0    0 -0.37078512132E+03  0.23301354194E+03 -0.13296728299E+03  0.45766497182E+03  0.10566000000E+00 0. -1.
         -4    1    3    3    0  501  0.61368590151E+03  0.14550592589E+03 -0.54009931902E+03  0.83035512559E+03  0.00000000000E+00 0. -1.
<mgrwt>
<rscale>  0 0.10946690E+04</rscale>
<asrwt>0</asrwt>
<pdfrwt beam="1">  1        4 0.21769991E+00 0.10911792E+04</pdfrwt>
<pdfrwt beam="2">  1       -4 0.19220007E+00 0.10981699E+04</pdfrwt>
<totfact> 0.17197020E-01</totfact>
</mgrwt>
</event>
<event>
 8    1  0.3025584E-006  0.1113048E+04  0.7818608E-02  0.8685460E-01
          4   -1    0    0  502    0  0.00000000000E+00  0.00000000000E+00  0.17025411593E+04  0.17025411593E+04  0.00000000000E+00 0.  1.
         -4   -1    0    0    0  501 -0.00000000000E+00 -0.00000000000E+00 -0.18832042242E+04  0.18832042242E+04  0.00000000000E+00 0. -1.
   -9000010    2    1    2    0  501 -0.37441925409E+03 -0.35347733641E+03 -0.15048712450E+04  0.18717674797E+04  0.98678266545E+03 0.  0.
    9000010    2    1    2  502    0  0.37441925409E+03  0.35347733641E+03  0.13242081802E+04  0.17139779038E+04  0.95867457715E+03 0.  0.
        -13    1    4    4    0    0 -0.14018122569E+03  0.44772189540E+03  0.98346452467E+03  0.10896367074E+04  0.10566000000E+00 0.  1.
          4    1    4    4  502    0  0.51460047979E+03 -0.94244558991E+02  0.34074365554E+03  0.62434119637E+03  0.00000000000E+00 0.  1.
         13    1    3    3    0    0  0.32694176266E+03 -0.16350141707E+03 -0.68352829574E+03  0.77513519582E+03  0.10566000000E+00 0. -1.
         -4    1    3    3    0  501 -0.70136101675E+03 -0.18997591934E+03 -0.82134294929E+03  0.10966322839E+04  0.00000000000E+00 0. -1.
<mgrwt>
<rscale>  0 0.11005571E+04</rscale>
<asrwt>0</asrwt>
<pdfrwt beam="1">  1        4 0.26192941E+00 0.10882063E+04</pdfrwt>
<pdfrwt beam="2">  1       -4 0.28972373E+00 0.11130481E+04</pdfrwt>
<totfact> 0.76366328E-02</totfact>
</mgrwt>
</event>
<event>
 8    1  0.3025584E-006  0.1039988E+04  0.7818608E-02  0.8741683E-01
         -4   -1    0    0    0  501 -0.00000000000E+00  0.00000000000E+00  0.21011824548E+04  0.21011824548E+04  0.00000000000E+00 0. -1.
          4   -1    0    0  502    0  0.00000000000E+00 -0.00000000000E+00 -0.17404167048E+04  0.17404167048E+04  0.00000000000E+00 0.  1.
   -9000010    2    1    2    0  501  0.24752995870E+02  0.28953411658E+03  0.17952366837E+04  0.20747168263E+04  0.99856519242E+03 0.  0.
    9000010    2    1    2  502    0 -0.24752995870E+02 -0.28953411658E+03 -0.14344709337E+04  0.17668823333E+04  0.98980988317E+03 0.  0.
        -13    1    4    4    0    0  0.26663022399E+03 -0.46860360296E+03 -0.12852198229E+04  0.13937255890E+04  0.10566000000E+00 0.  1.
          4    1    4    4  502    0 -0.29138321986E+03  0.17906948638E+03 -0.14925111072E+03  0.37315674430E+03  0.00000000000E+00 0.  1.
         13    1    3    3    0    0  0.40705680874E+03  0.43083629940E+03  0.77200426364E+03  0.97329633548E+03  0.10566000000E+00 0. -1.
         -4    1    3    3    0  501 -0.38230381287E+03 -0.14130218282E+03  0.10232324200E+04  0.11014204908E+04  0.00000000000E+00 0. -1.
<mgrwt>
<rscale>  0 0.10357777E+04</rscale>
<asrwt>0</asrwt>
<pdfrwt beam="2">  1        4 0.26775642E+00 0.10315844E+04</pdfrwt>
<pdfrwt beam="1">  1       -4 0.32325884E+00 0.10399881E+04</pdfrwt>
<totfact> 0.60441641E-02</totfact>
</mgrwt>
</event>
<event>
 8    1  0.3025584E-006  0.1257552E+04  0.7818608E-02  0.8579314E-01
         -4   -1    0    0    0  501 -0.00000000000E+00  0.00000000000E+00  0.23933704460E+04  0.23933704460E+04  0.00000000000E+00 0. -1.
          4   -1    0    0  502    0  0.00000000000E+00 -0.00000000000E+00 -0.19899058140E+04  0.19899058140E+04  0.00000000000E+00 0.  1.
   -9000010    2    1    2    0  501  0.71215069986E+03  0.74162867900E+02  0.20061150900E+04  0.23461398203E+04  0.98347117475E+03 0.  0.
    9000010    2    1    2  502    0 -0.71215069986E+03 -0.74162867900E+02 -0.16026504580E+04  0.20371364397E+04  0.10338170210E+04 0.  0.
        -13    1    4    4    0    0 -0.37034617706E+03  0.31307639569E+03 -0.14011725780E+04  0.14827197054E+04  0.10566000000E+00 0.  1.
          4    1    4    4  502    0 -0.34180452280E+03 -0.38723926359E+03 -0.20147788004E+03  0.55441673425E+03  0.00000000000E+00 0.  1.
         13    1    3    3    0    0  0.34403938285E+02 -0.26311292732E+03  0.80865908662E+02  0.27740106316E+03  0.10566000000E+00 0. -1.
         -4    1    3    3    0  501  0.67774676157E+03  0.33727579522E+03  0.19252491814E+04  0.20687387571E+04  0.00000000000E+00 0. -1.
<mgrwt>
<rscale>  0 0.12368560E+04</rscale>
<asrwt>0</asrwt>
<pdfrwt beam="2">  1        4 0.30613936E+00 0.12575517E+04</pdfrwt>
<pdfrwt beam="1">  1       -4 0.36821084E+00 0.12165008E+04</pdfrwt>
<totfact> 0.33482707E-02</totfact>
</mgrwt>
</event>
<event>
 8    1  0.3025584E-006  0.1179999E+04  0.7818608E-02  0.8658792E-01
          4   -1    0    0  502    0  0.00000000000E+00  0.00000000000E+00  0.12871168555E+04  0.12871168555E+04  0.00000000000E+00 0.  1.
         -4   -1    0    0    0  501 -0.00000000000E+00 -0.00000000000E+00 -0.10444988978E+04  0.10444988978E+04  0.00000000000E+00 0. -1.
   -9000010    2    1    2    0  501  0.27951201317E+02 -0.61639389281E+03 -0.11710790932E+03  0.11857962976E+04  0.10058210060E+04 0.  0.
    9000010    2    1    2  502    0 -0.27951201317E+02  0.61639389281E+03  0.35972586705E+03  0.11458194558E+04  0.89597813869E+03 0.  0.
        -13    1    4    4    0    0 -0.33338240130E+03 -0.58706997576E+02  0.47831744736E+02  0.34187457353E+03  0.10566000000E+00 0.  1.
          4    1    4    4  502    0  0.30543119998E+03  0.67510089038E+03  0.31189412232E+03  0.80394488222E+03  0.00000000000E+00 0.  1.
         13    1    3    3    0    0 -0.23834327496E+03 -0.55045448043E+03  0.31227500231E+03  0.67625685946E+03  0.10566000000E+00 0. -1.
         -4    1    3    3    0  501  0.26629447628E+03 -0.65939412378E+02 -0.42938291163E+03  0.50953943812E+03  0.00000000000E+00 0. -1.
<mgrwt>
<rscale>  0 0.11330078E+04</rscale>
<asrwt>0</asrwt>
<pdfrwt beam="1">  1        4 0.19801798E+00 0.10878876E+04</pdfrwt>
<pdfrwt beam="2">  1       -4 0.16069214E+00 0.11799994E+04</pdfrwt>
<totfact> 0.24812698E-01</totfact>
</mgrwt>
</event>
<event>
 8    1  0.3025584E-006  0.1081733E+04  0.7818608E-02  0.8705204E-01
          4   -1    0    0  502    0  0.00000000000E+00  0.00000000000E+00  0.20507712028E+04  0.20507712028E+04  0.00000000000E+00 0.  1.
         -4   -1    0    0    0  501 -0.00000000000E+00 -0.00000000000E+00 -0.15710627115E+04  0.15710627115E+04  0.00000000000E+00 0. -1.
   -9000010    2    1    2    0  501 -0.89462815931E+02  0.38741142268E+03 -0.12082958250E+04  0.16217658660E+04  0.10060092036E+04 0.  0.
    9000010    2    1    2  502    0  0.89462815931E+02 -0.38741142268E+03  0.16880043163E+04  0.20000680483E+04  0.99640474715E+03 0.  0.
        -13    1    4    4    0    0  0.18749045059E+03 -0.39148547694E+03  0.17997550633E+04  0.18513594591E+04  0.10566000000E+00 0.  1.
          4    1    4    4  502    0 -0.98027634655E+02  0.40740542572E+01 -0.11175074695E+03  0.14870858926E+03  0.00000000000E+00 0.  1.
         13    1    3    3    0    0  0.27862408665E+03  0.37873394233E+03 -0.11584336803E+04  0.12502157348E+04  0.10566000000E+00 0. -1.
         -4    1    3    3    0  501 -0.36808690258E+03  0.86774803471E+01 -0.49862144645E+02  0.37155013119E+03  0.00000000000E+00 0. -1.
<mgrwt>
<rscale>  0 0.10772603E+04</rscale>
<asrwt>0</asrwt>
<pdfrwt beam="1">  1        4 0.31550326E+00 0.10728064E+04</pdfrwt>
<pdfrwt beam="2">  1       -4 0.24170196E+00 0.10817327E+04</pdfrwt>
<totfact> 0.72774492E-02</totfact>
</mgrwt>
</event>
<event>
 8    1  0.3025584E-006  0.1362799E+04  0.7818608E-02  0.8496347E-01
          4   -1    0    0  502    0  0.00000000000E+00  0.00000000000E+00  0.20840353441E+04  0.20840353441E+04  0.00000000000E+00 0.  1.
         -4   -1    0    0    0  501 -0.00000000000E+00 -0.00000000000E+00 -0.13023751853E+04  0.13023751853E+04  0.00000000000E+00 0. -1.
   -9000010    2    1    2    0  501  0.91048580984E+03 -0.16707009173E+03 -0.56905150660E+03  0.14676495831E+04  0.98654896282E+03 0.  0.
    9000010    2    1    2  502    0 -0.91048580984E+03  0.16707009173E+03  0.13507116654E+04  0.19187609463E+04  0.10001623570E+04 0.  0.
        -13    1    4    4    0    0 -0.10742679655E+04  0.15256467382E+03  0.81122507527E+03  0.13547744370E+04  0.10566000000E+00 0.  1.
          4    1    4    4  502    0  0.16378215563E+03  0.14505417912E+02  0.53948659016E+03  0.56398650925E+03  0.00000000000E+00 0.  1.
         13    1    3    3    0    0  0.27542198304E+03 -0.46603763511E+03  0.33785672276E+02  0.54239268883E+03  0.10566000000E+00 0. -1.
         -4    1    3    3    0  501  0.63506382680E+03  0.29896754338E+03 -0.60283717888E+03  0.92525689424E+03  0.00000000000E+00 0. -1.
<mgrwt>
<rscale>  0 0.13578104E+04</rscale>
<asrwt>0</asrwt>
<pdfrwt beam="1">  1        4 0.32062082E+00 0.13627992E+04</pdfrwt>
<pdfrwt beam="2">  1       -4 0.20036541E+00 0.13528399E+04</pdfrwt>
<totfact> 0.87715739E-02</totfact>
</mgrwt>
</event>
<event>
 8    1  0.3025584E-006  0.1534320E+04  0.7818608E-02  0.8391671E-01
          4   -1    0    0  502    0  0.00000000000E+00  0.00000000000E+00  0.27696434236E+04  0.27696434236E+04  0.00000000000E+00 0.  1.
         -4   -1    0    0    0  501 -0.00000000000E+00 -0.00000000000E+00 -0.17607321677E+04  0.17607321677E+04  0.00000000000E+00 0. -1.
   -9000010    2    1    2    0  501  0.11625004073E+04  0.34764070389E+02 -0.11271297426E+04  0.19038272301E+04  0.10007601750E+04 0.  0.
    9000010    2    1    2  502    0 -0.11625004073E+04 -0.34764070389E+02  0.21360409985E+04  0.26265483613E+04  0.99170026191E+03 0.  0.
        -13    1    4    4    0    0 -0.13185262915E+04 -0.16010918089E+03  0.18474520179E+04  0.22753517312E+04  0.10566000000E+00 0.  1.
          4    1    4    4  502    0  0.15602588419E+03  0.12534511050E+03  0.28858898061E+03  0.35119663010E+03  0.00000000000E+00 0.  1.
         13    1    3    3    0    0  0.11862152150E+04 -0.83097103136E+02 -0.54261030789E+03  0.13070721564E+04  0.10566000000E+00 0. -1.
         -4    1    3    3    0  501 -0.23714807683E+02  0.11786117353E+03 -0.58451943474E+03  0.59675507364E+03  0.00000000000E+00 0. -1.
<mgrwt>
<rscale>  0 0.15313698E+04</rscale>
<asrwt>0</asrwt>
<pdfrwt beam="1">  1        4 0.42609899E+00 0.15284257E+04</pdfrwt>
<pdfrwt beam="2">  1       -4 0.27088187E+00 0.15343196E+04</pdfrwt>
<totfact> 0.23670267E-02</totfact>
</mgrwt>
</event>
<event>
 8    1  0.3025584E-006  0.1514601E+04  0.7818608E-02  0.8443653E-01
         -4   -1    0    0    0  501 -0.00000000000E+00  0.00000000000E+00  0.19461822314E+04  0.19461822314E+04  0.00000000000E+00 0. -1.
          4   -1    0    0  502    0  0.00000000000E+00 -0.00000000000E+00 -0.28577219120E+04  0.28577219120E+04  0.00000000000E+00 0.  1.
   -9000010    2    1    2    0  501  0.94908527807E+03 -0.51512218827E+02  0.14342064939E+04  0.20858967491E+04  0.11792372988E+04 0.  0.
    9000010    2    1    2  502    0 -0.94908527807E+03  0.51512218827E+02 -0.23457461746E+04  0.27180073943E+04  0.99076874516E+03 0.  0.
        -13    1    4    4    0    0 -0.61567710699E+03 -0.24187150510E+03 -0.21180247160E+04  0.22189161395E+04  0.10566000000E+00 0.  1.
          4    1    4    4  502    0 -0.33340817108E+03  0.29338372393E+03 -0.22772145853E+03  0.49909125487E+03  0.00000000000E+00 0.  1.
         13    1    3    3    0    0  0.40580924697E+03  0.18555200316E+03 -0.85810614175E+02  0.45439428196E+03  0.10566000000E+00 0. -1.
         -4    1    3    3    0  501  0.54327603110E+03 -0.23706422199E+03  0.15200171081E+04  0.16315024671E+04  0.00000000000E+00 0. -1.
<mgrwt>
<rscale>  0 0.14420464E+04</rscale>
<asrwt>0</asrwt>
<pdfrwt beam="2">  1        4 0.43964953E+00 0.13729673E+04</pdfrwt>
<pdfrwt beam="1">  1       -4 0.29941265E+00 0.15146013E+04</pdfrwt>
<totfact> 0.17537379E-02</totfact>
</mgrwt>
</event>
<event>
 8    1  0.3025584E-006  0.1034879E+04  0.7818608E-02  0.8744645E-01
         -4   -1    0    0    0  501 -0.00000000000E+00  0.00000000000E+00  0.14918445021E+04  0.14918445021E+04  0.00000000000E+00 0. -1.
          4   -1    0    0  502    0  0.00000000000E+00 -0.00000000000E+00 -0.17377834281E+04  0.17377834281E+04  0.00000000000E+00 0.  1.
   -9000010    2    1    2    0  501  0.19046539592E+03 -0.19013042348E+03  0.11160065147E+04  0.15219869249E+04  0.99927324272E+03 0.  0.
    9000010    2    1    2  502    0 -0.19046539592E+03  0.19013042348E+03 -0.13619454407E+04  0.17076410053E+04  0.99434188014E+03 0.  0.
        -13    1    4    4    0    0  0.40148590096E+03  0.13420142120E+03 -0.69833654462E+03  0.81662408172E+03  0.10566000000E+00 0.  1.
          4    1    4    4  502    0 -0.59195129688E+03  0.55929002279E+02 -0.66360889610E+03  0.89101692361E+03  0.00000000000E+00 0.  1.
         13    1    3    3    0    0  0.25279726677E+03 -0.52681208311E+03  0.34550499839E+03  0.67883071828E+03  0.10566000000E+00 0. -1.
         -4    1    3    3    0  501 -0.62331870856E+02  0.33668165963E+03  0.77050151633E+03  0.84315620660E+03  0.00000000000E+00 0. -1.
<mgrwt>
<rscale>  0 0.10324954E+04</rscale>
<asrwt>0</asrwt>
<pdfrwt beam="2">  1        4 0.26735130E+00 0.10301177E+04</pdfrwt>
<pdfrwt beam="1">  1       -4 0.22951454E+00 0.10348786E+04</pdfrwt>
<totfact> 0.10443734E-01</totfact>
</mgrwt>
</event>
<event>
 8    1  0.3025584E-006  0.1084084E+04  0.7818608E-02  0.8706167E-01
         -4   -1    0    0    0  501 -0.00000000000E+00  0.00000000000E+00  0.10525187062E+04  0.10525187062E+04  0.00000000000E+00 0. -1.
          4   -1    0    0  502    0  0.00000000000E+00 -0.00000000000E+00 -0.16021722713E+04  0.16021722713E+04  0.00000000000E+00 0.  1.
   -9000010    2    1    2    0  501 -0.28952603355E+03  0.27135950379E+03  0.46662583865E+03  0.11802444145E+04  0.10088487995E+04 0.  0.
    9000010    2    1    2  502    0  0.28952603355E+03 -0.27135950379E+03 -0.10162794037E+04  0.14744465631E+04  0.99182031466E+03 0.  0.
        -13    1    4    4    0    0  0.43138296728E+03 -0.41714267370E+03 -0.19897619331E+03  0.63221104969E+03  0.10566000000E+00 0.  1.
          4    1    4    4  502    0 -0.14185693373E+03  0.14578316991E+03 -0.81730321041E+03  0.84223551339E+03  0.00000000000E+00 0.  1.
         13    1    3    3    0    0 -0.14113616548E+01 -0.21633546049E+03 -0.20747710966E+03  0.29974953812E+03  0.10566000000E+00 0. -1.
         -4    1    3    3    0  501 -0.28811467189E+03  0.48769496428E+03  0.67410294831E+03  0.88049487634E+03  0.00000000000E+00 0. -1.
<mgrwt>
<rscale>  0 0.10761402E+04</rscale>
<asrwt>0</asrwt>
<pdfrwt beam="2">  1        4 0.24648804E+00 0.10682550E+04</pdfrwt>
<pdfrwt beam="1">  1       -4 0.16192595E+00 0.10840836E+04</pdfrwt>
<totfact> 0.18521917E-01</totfact>
</mgrwt>
</event>
<event>
 8    1  0.3025584E-006  0.1202814E+04  0.7818608E-02  0.8607977E-01
         -4   -1    0    0    0  501 -0.00000000000E+00  0.00000000000E+00  0.15407128393E+04  0.15407128393E+04  0.00000000000E+00 0. -1.
          4   -1    0    0  502    0  0.00000000000E+00 -0.00000000000E+00 -0.12337045450E+04  0.12337045450E+04  0.00000000000E+00 0.  1.
   -9000010    2    1    2    0  501 -0.56990510000E+03 -0.33680118980E+03  0.84027090406E+03  0.14672476144E+04  0.10042576886E+04 0.  0.
    9000010    2    1    2  502    0  0.56990510000E+03  0.33680118980E+03 -0.53326260977E+03  0.13071697700E+04  0.99302413475E+03 0.  0.
        -13    1    4    4    0    0 -0.21019658212E+03 -0.34490214946E+02  0.10066018118E+03  0.23559427264E+03  0.10566000000E+00 0.  1.
          4    1    4    4  502    0  0.78010168212E+03  0.37129140474E+03 -0.63392279095E+03  0.10715754974E+04  0.00000000000E+00 0.  1.
         13    1    3    3    0    0 -0.58936281300E+03  0.23215580477E+03  0.43383187111E+03  0.76775969326E+03  0.10566000000E+00 0. -1.
         -4    1    3    3    0  501  0.19457712998E+02 -0.56895699457E+03  0.40643903295E+03  0.69948792110E+03  0.00000000000E+00 0. -1.
<mgrwt>
<rscale>  0 0.11981228E+04</rscale>
<asrwt>0</asrwt>
<pdfrwt beam="2">  1        4 0.18980070E+00 0.11934504E+04</pdfrwt>
<pdfrwt beam="1">  1       -4 0.23703274E+00 0.12028135E+04</pdfrwt>
<totfact> 0.15560854E-01</totfact>
</mgrwt>
</event>
<event>
 8    1  0.3025584E-006  0.1183189E+04  0.7818608E-02  0.8669474E-01
         -4   -1    0    0    0  501 -0.00000000000E+00  0.00000000000E+00  0.29318218919E+04  0.29318218919E+04  0.00000000000E+00 0. -1.
          4   -1    0    0  502    0  0.00000000000E+00 -0.00000000000E+00 -0.68123916482E+03  0.68123916482E+03  0.00000000000E+00 0.  1.
   -9000010    2    1    2    0  501  0.33032999531E+03  0.13619626274E+03  0.21844525188E+04  0.24280258136E+04  0.99790240839E+03 0.  0.
    9000010    2    1    2  502    0 -0.33032999531E+03 -0.13619626274E+03  0.66130208271E+02  0.11850352431E+04  0.11279485783E+04 0.  0.
        -13    1    4    4    0    0 -0.13541362397E+03  0.48990321540E+03  0.13442734229E+03  0.52574968524E+03  0.10566000000E+00 0.  1.
          4    1    4    4  502    0 -0.19491637134E+03 -0.62609947814E+03 -0.68297134021E+02  0.65928555790E+03  0.00000000000E+00 0.  1.
         13    1    3    3    0    0  0.37665572301E+02  0.54933280602E+03  0.12293403936E+04  0.13470200599E+04  0.10566000000E+00 0. -1.
         -4    1    3    3    0  501  0.29266442300E+03 -0.41313654328E+03  0.95511212517E+03  0.10810057537E+04  0.00000000000E+00 0. -1.
<mgrwt>
<rscale>  0 0.11198710E+04</rscale>
<asrwt>0</asrwt>
<pdfrwt beam="2">  1        4 0.10480603E+00 0.11831886E+04</pdfrwt>
<pdfrwt beam="1">  1       -4 0.45104952E+00 0.10599418E+04</pdfrwt>
<totfact> 0.77719850E-02</totfact>
</mgrwt>
</event>
<event>
 8    1  0.3025584E-006  0.1110240E+04  0.7818608E-02  0.8686222E-01
          4   -1    0    0  502    0  0.00000000000E+00  0.00000000000E+00  0.19789489453E+04  0.19789489453E+04  0.00000000000E+00 0.  1.
         -4   -1    0    0    0  501 -0.00000000000E+00 -0.00000000000E+00 -0.75583593571E+03  0.75583593571E+03  0.00000000000E+00 0. -1.
   -9000010    2    1    2    0  501  0.22948036593E+03  0.34404406160E+03  0.17951503466E+02  0.11103850090E+04  0.10303422038E+04 0.  0.
    9000010    2    1    2  502    0 -0.22948036593E+03 -0.34404406160E+03  0.12051615061E+04  0.16243998721E+04  0.10075877797E+04 0.  0.
        -13    1    4    4    0    0 -0.36263412859E+03  0.53134450922E+02  0.19625729568E+02  0.36703128139E+03  0.10566000000E+00 0.  1.
          4    1    4    4  502    0  0.13315376266E+03 -0.39717851252E+03  0.11855357766E+04  0.12573685907E+04  0.00000000000E+00 0.  1.
         13    1    3    3    0    0 -0.72732930861E+02  0.50397018303E+03  0.36244505846E+03  0.62501396479E+03  0.10566000000E+00 0. -1.
         -4    1    3    3    0  501  0.30221329679E+03 -0.15992612144E+03 -0.34449355499E+03  0.48537104416E+03  0.00000000000E+00 0. -1.
<mgrwt>
<rscale>  0 0.10996474E+04</rscale>
<asrwt>0</asrwt>
<pdfrwt beam="1">  1        4 0.30445368E+00 0.10891560E+04</pdfrwt>
<pdfrwt beam="2">  1       -4 0.11628245E+00 0.11102399E+04</pdfrwt>
<totfact> 0.22158672E-01</totfact>
</mgrwt>
</event>
<event>
 8    1  0.3025584E-006  0.1118914E+04  0.7818608E-02  0.8683820E-01
         -4   -1    0    0    0  501 -0.00000000000E+00  0.00000000000E+00  0.17169650077E+04  0.17169650077E+04  0.00000000000E+00 0. -1.
          4   -1    0    0  502    0  0.00000000000E+00 -0.00000000000E+00 -0.16554590741E+04  0.16554590741E+04  0.00000000000E+00 0.  1.
   -9000010    2    1    2    0  501 -0.78549339797E+02  0.52622039405E+03  0.13064623120E+04  0.17201198392E+04  0.98432239982E+03 0.  0.
    9000010    2    1    2  502    0  0.78549339797E+02 -0.52622039405E+03 -0.12449563784E+04  0.16523042425E+04  0.94716156164E+03 0.  0.
        -13    1    4    4    0    0 -0.18937911175E+03  0.20186862128E+03 -0.16392942186E+03  0.32169590414E+03  0.10566000000E+00 0.  1.
          4    1    4    4  502    0  0.26792845155E+03 -0.72808901533E+03 -0.10810269566E+04  0.13306083384E+04  0.00000000000E+00 0.  1.
         13    1    3    3    0    0  0.32747777491E+03  0.11733405078E+03  0.10178429041E+04  0.10756454626E+04  0.10566000000E+00 0. -1.
         -4    1    3    3    0  501 -0.40602711470E+03  0.40888634327E+03  0.28861940789E+03  0.64447437668E+03  0.00000000000E+00 0. -1.
<mgrwt>
<rscale>  0 0.11025203E+04</rscale>
<asrwt>0</asrwt>
<pdfrwt beam="2">  1        4 0.25468601E+00 0.10863668E+04</pdfrwt>
<pdfrwt beam="1">  1       -4 0.26414846E+00 0.11189140E+04</pdfrwt>
<totfact> 0.91902702E-02</totfact>
</mgrwt>
</event>
<event>
 8    1  0.3025584E-006  0.1917651E+04  0.7818608E-02  0.8209394E-01
          4   -1    0    0  502    0  0.00000000000E+00  0.00000000000E+00  0.15994441133E+04  0.15994441133E+04  0.00000000000E+00 0.  1.
         -4   -1    0    0    0  501 -0.00000000000E+00 -0.00000000000E+00 -0.27445218145E+04  0.27445218145E+04  0.00000000000E+00 0. -1.
   -9000010    2    1    2    0  501 -0.13177359309E+04  0.90132210435E+03 -0.14865349635E+04  0.24263493449E+04  0.10623443070E+04 0.  0.
    9000010    2    1    2  502    0  0.13177359309E+04 -0.90132210435E+03  0.34145726235E+03  0.19176165828E+04  0.10059079368E+04 0.  0.
        -13    1    4    4    0    0  0.69490415300E+03 -0.20016299728E+01  0.43476989382E+03  0.81970766747E+03  0.10566000000E+00 0.  1.
          4    1    4    4  502    0  0.62283177792E+03 -0.89932047438E+03 -0.93312631471E+02  0.10979089154E+04  0.00000000000E+00 0.  1.
         13    1    3    3    0    0 -0.34028865406E+03 -0.18296149835E+03 -0.61460950414E+03  0.72595876722E+03  0.10566000000E+00 0. -1.
         -4    1    3    3    0  501 -0.97744727685E+03  0.10842836027E+04 -0.87192545935E+03  0.17003905777E+04  0.00000000000E+00 0. -1.
<mgrwt>
<rscale>  0 0.19022492E+04</rscale>
<asrwt>0</asrwt>
<pdfrwt beam="1">  1        4 0.24606833E+00 0.18869712E+04</pdfrwt>
<pdfrwt beam="2">  1       -4 0.42223412E+00 0.19176509E+04</pdfrwt>
<totfact> 0.27323960E-02</totfact>
</mgrwt>
</event>
<event>
 8    1  0.3025584E-006  0.1181350E+04  0.7818608E-02  0.8672732E-01
         -4   -1    0    0    0  501 -0.00000000000E+00  0.00000000000E+00  0.99351570755E+03  0.99351570755E+03  0.00000000000E+00 0. -1.
          4   -1    0    0  502    0  0.00000000000E+00 -0.00000000000E+00 -0.28426639739E+04  0.28426639739E+04  0.00000000000E+00 0.  1.
   -9000010    2    1    2    0  501  0.22761422625E+03 -0.21213697897E+03  0.48347125610E+03  0.12764532493E+04  0.11396394642E+04 0.  0.
    9000010    2    1    2  502    0 -0.22761422625E+03  0.21213697897E+03 -0.23326195224E+04  0.25597264322E+04  0.10071123260E+04 0.  0.
        -13    1    4    4    0    0 -0.29842121904E+03 -0.22774058086E+03 -0.30484459016E+03  0.48358166989E+03  0.10566000000E+00 0.  1.
          4    1    4    4  502    0  0.70806992794E+02  0.43987755983E+03 -0.20277749323E+04  0.20761447623E+04  0.00000000000E+00 0.  1.
         13    1    3    3    0    0 -0.40185956994E+03  0.17391425307E+03  0.23748685700E+03  0.49813381715E+03  0.10566000000E+00 0. -1.
         -4    1    3    3    0  501  0.62947379619E+03 -0.38605123204E+03  0.24598439910E+03  0.77831943214E+03  0.00000000000E+00 0. -1.
<mgrwt>
<rscale>  0 0.11159024E+04</rscale>
<asrwt>0</asrwt>
<pdfrwt beam="2">  1        4 0.43733292E+00 0.10540804E+04</pdfrwt>
<pdfrwt beam="1">  1       -4 0.15284857E+00 0.11813503E+04</pdfrwt>
<totfact> 0.48457216E-02</totfact>
</mgrwt>
</event>
<event>
 8    1  0.3025584E-006  0.1012435E+04  0.7818608E-02  0.8804632E-01
          4   -1    0    0  502    0  0.00000000000E+00  0.00000000000E+00  0.19487485530E+04  0.19487485530E+04  0.00000000000E+00 0.  1.
         -4   -1    0    0    0  501 -0.00000000000E+00 -0.00000000000E+00 -0.14347804566E+04  0.14347804566E+04  0.00000000000E+00 0. -1.
   -9000010    2    1    2    0  501 -0.12634484880E+03 -0.11734720442E+02 -0.11247041207E+04  0.14573227259E+04  0.91800296507E+03 0.  0.
    9000010    2    1    2  502    0  0.12634484880E+03  0.11734720442E+02  0.16386722171E+04  0.19262062837E+04  0.10044517348E+04 0.  0.
        -13    1    4    4    0    0  0.37345142723E+03 -0.85253236916E+02  0.16148724352E+04  0.16596828239E+04  0.10566000000E+00 0.  1.
          4    1    4    4  502    0 -0.24710657843E+03  0.96987957358E+02  0.23799781914E+02  0.26652345974E+03  0.00000000000E+00 0.  1.
         13    1    3    3    0    0 -0.37135112369E+03 -0.24032551236E+03 -0.10109017684E+04  0.11034402592E+04  0.10566000000E+00 0. -1.
         -4    1    3    3    0  501  0.24500627489E+03  0.22859079192E+03 -0.11380235223E+03  0.35388246673E+03  0.00000000000E+00 0. -1.
<mgrwt>
<rscale>  0 0.96863539E+03</rscale>
<asrwt>0</asrwt>
<pdfrwt beam="1">  1        4 0.29980747E+00 0.10124347E+04</pdfrwt>
<pdfrwt beam="2">  1       -4 0.22073545E+00 0.92673090E+03</pdfrwt>
<totfact> 0.91180579E-02</totfact>
</mgrwt>
</event>
<event>
 8    1  0.3025584E-006  0.1226391E+04  0.7818608E-02  0.8591995E-01
          4   -1    0    0  502    0  0.00000000000E+00  0.00000000000E+00  0.15211981798E+04  0.15211981798E+04  0.00000000000E+00 0.  1.
         -4   -1    0    0    0  501 -0.00000000000E+00 -0.00000000000E+00 -0.22515748875E+04  0.22515748875E+04  0.00000000000E+00 0. -1.
   -9000010    2    1    2    0  501 -0.57007459748E+03  0.39315209898E+03 -0.17831725387E+04  0.21564766396E+04  0.99555691688E+03 0.  0.
    9000010    2    1    2  502    0  0.57007459748E+03 -0.39315209898E+03  0.10527958309E+04  0.16162964277E+04  0.10121667160E+04 0.  0.
        -13    1    4    4    0    0  0.38729953022E+02 -0.63765236405E+03  0.60268166695E+03  0.87825152974E+03  0.10566000000E+00 0.  1.
          4    1    4    4  502    0  0.53134464446E+03  0.24450026508E+03  0.45011416396E+03  0.73804489796E+03  0.00000000000E+00 0.  1.
         13    1    3    3    0    0 -0.67597441862E+03  0.61025677576E+03 -0.16394245764E+04  0.18753846805E+04  0.10566000000E+00 0. -1.
         -4    1    3    3    0  501  0.10589982114E+03 -0.21710467678E+03 -0.14374796226E+03  0.28109195907E+03  0.00000000000E+00 0. -1.
<mgrwt>
<rscale>  0 0.12195358E+04</rscale>
<asrwt>0</asrwt>
<pdfrwt beam="1">  1        4 0.23403049E+00 0.12263911E+04</pdfrwt>
<pdfrwt beam="2">  1       -4 0.34639614E+00 0.12127189E+04</pdfrwt>
<totfact> 0.60740044E-02</totfact>
</mgrwt>
</event>
<event>
 8    1  0.3025584E-006  0.1196614E+04  0.7818608E-02  0.8610098E-01
          4   -1    0    0  502    0  0.00000000000E+00  0.00000000000E+00  0.28755236464E+04  0.28755236464E+04  0.00000000000E+00 0.  1.
         -4   -1    0    0    0  501 -0.00000000000E+00 -0.00000000000E+00 -0.51402935821E+03  0.51402935821E+03  0.00000000000E+00 0. -1.
   -9000010    2    1    2    0  501  0.21995949864E+03  0.60769772084E+03  0.86992071394E+03  0.14773089460E+04  0.10039925162E+04 0.  0.
    9000010    2    1    2  502    0 -0.21995949864E+03 -0.60769772084E+03  0.14915735743E+04  0.19122440586E+04  0.10070784038E+04 0.  0.
        -13    1    4    4    0    0 -0.27758522933E+03 -0.45899425842E+03  0.16206260226E+04  0.17070905088E+04  0.10566000000E+00 0.  1.
          4    1    4    4  502    0  0.57625730691E+02 -0.14870346242E+03 -0.12905244837E+03  0.20515354982E+03  0.00000000000E+00 0.  1.
         13    1    3    3    0    0  0.65803466134E+02  0.59257210170E+03  0.10696282926E+04  0.12245719608E+04  0.10566000000E+00 0. -1.
         -4    1    3    3    0  501  0.15415603250E+03  0.15125619146E+02 -0.19970757863E+03  0.25273698517E+03  0.00000000000E+00 0. -1.
<mgrwt>
<rscale>  0 0.11953156E+04</rscale>
<asrwt>0</asrwt>
<pdfrwt beam="1">  1        4 0.44238824E+00 0.11966142E+04</pdfrwt>
<pdfrwt beam="2">  1       -4 0.79081442E-01 0.11940183E+04</pdfrwt>
<totfact> 0.14720686E-01</totfact>
</mgrwt>
</event>
<event>
 8    1  0.3025584E-006  0.1234506E+04  0.7818608E-02  0.8588568E-01
          4   -1    0    0  502    0  0.00000000000E+00  0.00000000000E+00  0.31344510343E+04  0.31344510343E+04  0.00000000000E+00 0.  1.
         -4   -1    0    0    0  501 -0.00000000000E+00 -0.00000000000E+00 -0.89731423183E+03  0.89731423183E+03  0.00000000000E+00 0. -1.
   -9000010    2    1    2    0  501 -0.46772669916E+03  0.51783829888E+03 -0.26420400209E+03  0.12423725084E+04  0.99335840761E+03 0.  0.
    9000010    2    1    2  502    0  0.46772669916E+03 -0.51783829888E+03  0.25013408046E+04  0.27893927578E+04  0.10183719200E+04 0.  0.
        -13    1    4    4    0    0  0.20981708993E+03 -0.62422361024E+02 -0.14790415048E+02  0.21940494507E+03  0.10566000000E+00 0.  1.
          4    1    4    4  502    0  0.25790960923E+03 -0.45541593786E+03  0.25161312197E+04  0.25699878127E+04  0.00000000000E+00 0.  1.
         13    1    3    3    0    0  0.29174669013E+03  0.19176410687E+03 -0.22415063283E+03  0.41488928794E+03  0.10566000000E+00 0. -1.
         -4    1    3    3    0  501 -0.75947338928E+03  0.32607419202E+03 -0.40053369260E+02  0.82748322045E+03  0.00000000000E+00 0. -1.
<mgrwt>
<rscale>  0 0.12241874E+04</rscale>
<asrwt>0</asrwt>
<pdfrwt beam="1">  1        4 0.48222323E+00 0.12345064E+04</pdfrwt>
<pdfrwt beam="2">  1       -4 0.13804834E+00 0.12139546E+04</pdfrwt>
<totfact> 0.34074120E-02</totfact>
</mgrwt>
</event>
<event>
 8    1  0.3025584E-006  0.1324850E+04  0.7818608E-02  0.8542345E-01
         -4   -1    0    0    0  501 -0.00000000000E+00  0.00000000000E+00  0.18522743502E+04  0.18522743502E+04  0.00000000000E+00 0. -1.
          4   -1    0    0  502    0  0.00000000000E+00 -0.00000000000E+00 -0.19919203350E+04  0.19919203350E+04  0.00000000000E+00 0.  1.
   -9000010    2    1    2    0  501 -0.70657733440E+03  0.23658483252E+03  0.13553329275E+04  0.18466490895E+04  0.10089408322E+04 0.  0.
    9000010    2    1    2  502    0  0.70657733440E+03 -0.23658483252E+03 -0.14949789122E+04  0.19975455957E+04  0.10954462773E+04 0.  0.
        -13    1    4    4    0    0  0.65166806267E+02 -0.29726862284E+03 -0.12840507495E+04  0.13196217963E+04  0.10566000000E+00 0.  1.
          4    1    4    4  502    0  0.64141052813E+03  0.60683790317E+02 -0.21092816273E+03  0.67792379944E+03  0.00000000000E+00 0.  1.
         13    1    3    3    0    0  0.21400570453E+03 -0.95899817252E+02  0.47708297481E+03  0.53160454526E+03  0.10566000000E+00 0. -1.
         -4    1    3    3    0  501 -0.92058303893E+03  0.33248464977E+03  0.87824995268E+03  0.13150445442E+04  0.00000000000E+00 0. -1.
<mgrwt>
<rscale>  0 0.12890753E+04</rscale>
<asrwt>0</asrwt>
<pdfrwt beam="2">  1        4 0.30644928E+00 0.13248496E+04</pdfrwt>
<pdfrwt beam="1">  1       -4 0.28496528E+00 0.12542669E+04</pdfrwt>
<totfact> 0.59288934E-02</totfact>
</mgrwt>
</event>
<event>
 8    1  0.3025584E-006  0.1122563E+04  0.7818608E-02  0.8671532E-01
          4   -1    0    0  502    0  0.00000000000E+00  0.00000000000E+00  0.54689434054E+03  0.54689434054E+03  0.00000000000E+00 0.  1.
         -4   -1    0    0    0  501 -0.00000000000E+00 -0.00000000000E+00 -0.25712560082E+04  0.25712560082E+04  0.00000000000E+00 0. -1.
   -9000010    2    1    2    0  501  0.57961839622E+02 -0.48344107344E+03 -0.15384234503E+04  0.19044404476E+04  0.10114701477E+04 0.  0.
    9000010    2    1    2  502    0 -0.57961839622E+02  0.48344107344E+03 -0.48593821741E+03  0.12137099012E+04  0.99994046157E+03 0.  0.
        -13    1    4    4    0    0 -0.47704675583E+03  0.40931894394E+03 -0.94815014173E+02  0.63569293153E+03  0.10566000000E+00 0.  1.
          4    1    4    4  502    0  0.41908491621E+03  0.74122129501E+02 -0.39112320323E+03  0.57801696963E+03  0.00000000000E+00 0.  1.
         13    1    3    3    0    0 -0.22224296273E+03  0.44506309097E+02  0.27507858599E+02  0.22831872346E+03  0.10566000000E+00 0. -1.
         -4    1    3    3    0  501  0.28020480236E+03 -0.52794738254E+03 -0.15659313089E+04  0.16761217241E+04  0.00000000000E+00 0. -1.
<mgrwt>
<rscale>  0 0.11173618E+04</rscale>
<asrwt>0</asrwt>
<pdfrwt beam="1">  1        4 0.84137593E-01 0.11121851E+04</pdfrwt>
<pdfrwt beam="2">  1       -4 0.39557784E+00 0.11225626E+04</pdfrwt>
<totfact> 0.20509344E-01</totfact>
</mgrwt>
</event>
<event>
 8    1  0.3025584E-006  0.1091116E+04  0.7818608E-02  0.8694277E-01
          4   -1    0    0  502    0  0.00000000000E+00  0.00000000000E+00  0.17076410506E+04  0.17076410506E+04  0.00000000000E+00 0.  1.
         -4   -1    0    0    0  501 -0.00000000000E+00 -0.00000000000E+00 -0.77287002286E+03  0.77287002286E+03  0.00000000000E+00 0. -1.
   -9000010    2    1    2    0  501 -0.44133094619E+03 -0.28862227527E+02  0.76275736975E+02  0.10937784237E+04  0.99746038508E+03 0.  0.
    9000010    2    1    2  502    0  0.44133094619E+03  0.28862227527E+02  0.85849529074E+03  0.13867326498E+04  0.99519206461E+03 0.  0.
        -13    1    4    4    0    0 -0.17500588231E+03 -0.32934268446E+03  0.34629112622E+03  0.50893144716E+03  0.10566000000E+00 0.  1.
          4    1    4    4  502    0  0.61633682850E+03  0.35820491199E+03  0.51220416452E+03  0.87780120260E+03  0.00000000000E+00 0.  1.
         13    1    3    3    0    0 -0.67055693684E+03  0.26224177555E+03  0.67268491066E+02  0.72314757515E+03  0.10566000000E+00 0. -1.
         -4    1    3    3    0  501  0.22922599065E+03 -0.29110400308E+03  0.90072459091E+01  0.37063084852E+03  0.00000000000E+00 0. -1.
<mgrwt>
<rscale>  0 0.10900785E+04</rscale>
<asrwt>0</asrwt>
<pdfrwt beam="1">  1        4 0.26271401E+00 0.10890424E+04</pdfrwt>
<pdfrwt beam="2">  1       -4 0.11890308E+00 0.10911156E+04</pdfrwt>
<totfact> 0.27264257E-01</totfact>
</mgrwt>
</event>
<event>
 8    1  0.3025584E-006  0.1385088E+04  0.7818608E-02  0.8483261E-01
          4   -1    0    0  502    0  0.00000000000E+00  0.00000000000E+00  0.23709501023E+04  0.23709501023E+04  0.00000000000E+00 0.  1.
         -4   -1    0    0    0  501 -0.00000000000E+00 -0.00000000000E+00 -0.81944659645E+03  0.81944659645E+03  0.00000000000E+00 0. -1.
   -9000010    2    1    2    0  501  0.17621765944E+03  0.94051731423E+03  0.10105850088E+04  0.17034324716E+04  0.98222942507E+03 0.  0.
    9000010    2    1    2  502    0 -0.17621765944E+03 -0.94051731423E+03  0.54091849712E+03  0.14869642272E+04  0.10014211454E+04 0.  0.
        -13    1    4    4    0    0  0.38164587945E+03 -0.47408897704E+03  0.52246252777E+02  0.61085482526E+03  0.10566000000E+00 0.  1.
          4    1    4    4  502    0 -0.55786353889E+03 -0.46642833719E+03  0.48867224434E+03  0.87610940193E+03  0.00000000000E+00 0.  1.
         13    1    3    3    0    0 -0.10470693182E+03  0.35280396629E+03  0.98502687154E+03  0.10515284728E+04  0.10566000000E+00 0. -1.
         -4    1    3    3    0  501  0.28092459126E+03  0.58771334794E+03  0.25558137226E+02  0.65190399884E+03  0.00000000000E+00 0. -1.
<mgrwt>
<rscale>  0 0.13781653E+04</rscale>
<asrwt>0</asrwt>
<pdfrwt beam="1">  1        4 0.36476155E+00 0.13850884E+04</pdfrwt>
<pdfrwt beam="2">  1       -4 0.12606871E+00 0.13712768E+04</pdfrwt>
<totfact> 0.12394747E-01</totfact>
</mgrwt>
</event>
<event>
 8    1  0.3025584E-006  0.1153936E+04  0.7818608E-02  0.8648589E-01
          4   -1    0    0  502    0  0.00000000000E+00  0.00000000000E+00  0.11931477530E+04  0.11931477530E+04  0.00000000000E+00 0.  1.
         -4   -1    0    0    0  501 -0.00000000000E+00 -0.00000000000E+00 -0.13062642599E+04  0.13062642599E+04  0.00000000000E+00 0. -1.
   -9000010    2    1    2    0  501  0.49759566836E+03 -0.24915922507E+03 -0.55317918591E+03  0.12796775392E+04  0.10108835857E+04 0.  0.
    9000010    2    1    2  502    0 -0.49759566836E+03  0.24915922507E+03  0.44006267902E+03  0.12197344738E+04  0.99217702882E+03 0.  0.
        -13    1    4    4    0    0  0.46708091234E+01  0.47216235286E+03 -0.60926627490E+02  0.47609995696E+03  0.10566000000E+00 0.  1.
          4    1    4    4  502    0 -0.50226647749E+03 -0.22300312779E+03  0.50098930651E+03  0.74363451685E+03  0.00000000000E+00 0.  1.
         13    1    3    3    0    0  0.19050247702E+03 -0.22905551298E+02  0.29372236721E+03  0.35083998945E+03  0.10566000000E+00 0. -1.
         -4    1    3    3    0  501  0.30709319134E+03 -0.22625367377E+03 -0.84690155312E+03  0.92883754970E+03  0.00000000000E+00 0. -1.
<mgrwt>
<rscale>  0 0.11457306E+04</rscale>
<asrwt>0</asrwt>
<pdfrwt beam="1">  1        4 0.18356119E+00 0.11375839E+04</pdfrwt>
<pdfrwt beam="2">  1       -4 0.20096373E+00 0.11539356E+04</pdfrwt>
<totfact> 0.20207196E-01</totfact>
</mgrwt>
</event>
<event>
 8    1  0.3025584E-006  0.1110981E+04  0.7818608E-02  0.8678170E-01
          4   -1    0    0  502    0  0.00000000000E+00  0.00000000000E+00  0.40101335884E+03  0.40101335884E+03  0.00000000000E+00 0.  1.
         -4   -1    0    0    0  501 -0.00000000000E+00 -0.00000000000E+00 -0.30862071967E+04  0.30862071967E+04  0.00000000000E+00 0. -1.
   -9000010    2    1    2    0  501 -0.48046660029E+03  0.20839782621E+02 -0.14760112801E+04  0.18474003716E+04  0.10014970711E+04 0.  0.
    9000010    2    1    2  502    0  0.48046660029E+03 -0.20839782621E+02 -0.12091825577E+04  0.16398201839E+04  0.99780024407E+03 0.  0.
        -13    1    4    4    0    0  0.16110962597E+03  0.17234855325E+03  0.11612676998E+03  0.26295583899E+03  0.10566000000E+00 0.  1.
          4    1    4    4  502    0  0.31935697432E+03 -0.19318833587E+03 -0.13253093277E+04  0.13768643449E+04  0.00000000000E+00 0.  1.
         13    1    3    3    0    0  0.30219306046E+03 -0.35284104133E+02 -0.26003761991E+03  0.40023141897E+03  0.10566000000E+00 0. -1.
         -4    1    3    3    0  501 -0.78265966075E+03  0.56123886754E+02 -0.12159736602E+04  0.14471689526E+04  0.00000000000E+00 0. -1.
<mgrwt>
<rscale>  0 0.11093141E+04</rscale>
<asrwt>0</asrwt>
<pdfrwt beam="1">  1        4 0.61694362E-01 0.11076497E+04</pdfrwt>
<pdfrwt beam="2">  1       -4 0.47480111E+00 0.11109810E+04</pdfrwt>
<totfact> 0.17500552E-01</totfact>
</mgrwt>
</event>
<event>
 8    1  0.3025584E-006  0.1132626E+04  0.7818608E-02  0.8662613E-01
          4   -1    0    0  502    0  0.00000000000E+00  0.00000000000E+00  0.28119326371E+04  0.28119326371E+04  0.00000000000E+00 0.  1.
         -4   -1    0    0    0  501 -0.00000000000E+00 -0.00000000000E+00 -0.11183588916E+04  0.11183588916E+04  0.00000000000E+00 0. -1.
   -9000010    2    1    2    0  501  0.44957651945E+03 -0.27227759011E+03 -0.67059571524E+03  0.13088152188E+04  0.99350114788E+03 0.  0.
    9000010    2    1    2  502    0 -0.44957651945E+03  0.27227759011E+03  0.23641694608E+04  0.26214763098E+04  0.10032879302E+04 0.  0.
        -13    1    4    4    0    0  0.26674225598E+02  0.42994008549E+03  0.37854953115E+03  0.57346294573E+03  0.10566000000E+00 0.  1.
          4    1    4    4  502    0 -0.47625074505E+03 -0.15766249538E+03  0.19856199296E+04  0.20480133641E+04  0.00000000000E+00 0.  1.
         13    1    3    3    0    0 -0.18306602468E+03 -0.38330037145E+03 -0.47534627093E+03  0.63748445675E+03  0.10566000000E+00 0. -1.
         -4    1    3    3    0  501  0.63264254413E+03  0.11102278134E+03 -0.19524944431E+03  0.67133076209E+03  0.00000000000E+00 0. -1.
<mgrwt>
<rscale>  0 0.11282873E+04</rscale>
<asrwt>0</asrwt>
<pdfrwt beam="1">  1        4 0.43260502E+00 0.11326256E+04</pdfrwt>
<pdfrwt beam="2">  1       -4 0.17205521E+00 0.11239656E+04</pdfrwt>
<totfact> 0.42690375E-02</totfact>
</mgrwt>
</event>
<event>
 8    1  0.3025584E-006  0.1230978E+04  0.7818608E-02  0.8593325E-01
          4   -1    0    0  502    0  0.00000000000E+00  0.00000000000E+00  0.39650967323E+04  0.39650967323E+04  0.00000000000E+00 0.  1.
         -4   -1    0    0    0  501 -0.00000000000E+00 -0.00000000000E+00 -0.10539894915E+04  0.10539894915E+04  0.00000000000E+00 0. -1.
   -9000010    2    1    2    0  501 -0.66705882228E+03 -0.27223842910E+03 -0.55448565715E+03  0.13500962773E+04  0.99811040435E+03 0.  0.
    9000010    2    1    2  502    0  0.66705882228E+03  0.27223842910E+03  0.34655928980E+04  0.36689899465E+04  0.96543868693E+03 0.  0.
        -13    1    4    4    0    0  0.17381547576E+03  0.20521593888E+03  0.13409748070E+03  0.30051214065E+03  0.10566000000E+00 0.  1.
          4    1    4    4  502    0  0.49324334653E+03  0.67022490228E+02  0.33314954173E+04  0.33684778059E+04  0.00000000000E+00 0.  1.
         13    1    3    3    0    0  0.18453050006E+03 -0.16293586954E+03  0.10484561966E+03  0.26756722176E+03  0.10566000000E+00 0. -1.
         -4    1    3    3    0  501 -0.85158932235E+03 -0.10930255957E+03 -0.65933127681E+03  0.10825290555E+04  0.00000000000E+00 0. -1.
<mgrwt>
<rscale>  0 0.12177366E+04</rscale>
<asrwt>0</asrwt>
<pdfrwt beam="1">  1        4 0.61001487E+00 0.12046382E+04</pdfrwt>
<pdfrwt beam="2">  1       -4 0.16215223E+00 0.12309775E+04</pdfrwt>
<totfact> 0.61178828E-03</totfact>
</mgrwt>
</event>
<event>
 8    1  0.3025584E-006  0.1076090E+04  0.7818608E-02  0.8715860E-01
         -4   -1    0    0    0  501 -0.00000000000E+00  0.00000000000E+00  0.23055346313E+04  0.23055346313E+04  0.00000000000E+00 0. -1.
          4   -1    0    0  502    0  0.00000000000E+00 -0.00000000000E+00 -0.58583499556E+03  0.58583499556E+03  0.00000000000E+00 0.  1.
   -9000010    2    1    2    0  501 -0.32404979176E+03 -0.11527349850E+03  0.14460779613E+04  0.18025290099E+04  0.10196436213E+04 0.  0.
    9000010    2    1    2  502    0  0.32404979176E+03  0.11527349850E+03  0.27362167443E+03  0.10888406169E+04  0.99619717998E+03 0.  0.
        -13    1    4    4    0    0  0.51509392765E+03  0.10320416299E+03  0.54485388746E+03  0.75686103308E+03  0.10566000000E+00 0.  1.
          4    1    4    4  502    0 -0.19104413589E+03  0.12069335508E+02 -0.27123221303E+03  0.33197958386E+03  0.00000000000E+00 0.  1.
         13    1    3    3    0    0 -0.39674550360E+03  0.38686141665E+03  0.90176670216E+03  0.10584195513E+04  0.10566000000E+00 0. -1.
         -4    1    3    3    0  501  0.72695711836E+02 -0.50213491515E+03  0.54431125917E+03  0.74410945861E+03  0.00000000000E+00 0. -1.
<mgrwt>
<rscale>  0 0.10649371E+04</rscale>
<asrwt>0</asrwt>
<pdfrwt beam="2">  1        4 0.90128462E-01 0.10538999E+04</pdfrwt>
<pdfrwt beam="1">  1       -4 0.35469763E+00 0.10760898E+04</pdfrwt>
<totfact> 0.25360761E-01</totfact>
</mgrwt>
</event>
<event>
 8    1  0.3025584E-006  0.1105090E+04  0.7818608E-02  0.8701178E-01
         -4   -1    0    0    0  501 -0.00000000000E+00  0.00000000000E+00  0.21329237288E+04  0.21329237288E+04  0.00000000000E+00 0. -1.
          4   -1    0    0  502    0  0.00000000000E+00 -0.00000000000E+00 -0.83965870279E+03  0.83965870279E+03  0.00000000000E+00 0.  1.
   -9000010    2    1    2    0  501 -0.32538423089E+03  0.35173513595E+03  0.15297814790E+04  0.18871816721E+04  0.99580660099E+03 0.  0.
    9000010    2    1    2  502    0  0.32538423089E+03 -0.35173513595E+03 -0.23651645299E+03  0.10854007594E+04  0.94475513891E+03 0.  0.
        -13    1    4    4    0    0 -0.31801552384E+03 -0.16291154815E+03  0.41093230494E+02  0.35967028051E+03  0.10566000000E+00 0.  1.
          4    1    4    4  502    0  0.64339975473E+03 -0.18882358779E+03 -0.27760968349E+03  0.72573047894E+03  0.00000000000E+00 0.  1.
         13    1    3    3    0    0  0.67385084793E+02  0.47479631239E+03  0.24587365807E+03  0.53891201027E+03  0.10566000000E+00 0. -1.
         -4    1    3    3    0  501 -0.39276931568E+03 -0.12306117644E+03  0.12839078209E+04  0.13482696618E+04  0.00000000000E+00 0. -1.
<mgrwt>
<rscale>  0 0.10819619E+04</rscale>
<asrwt>0</asrwt>
<pdfrwt beam="2">  1        4 0.12917826E+00 0.10593181E+04</pdfrwt>
<pdfrwt beam="1">  1       -4 0.32814211E+00 0.11050897E+04</pdfrwt>
<totfact> 0.15955142E-01</totfact>
</mgrwt>
</event>
<event>
 8    1  0.3025584E-006  0.1209337E+04  0.7818608E-02  0.8600297E-01
         -4   -1    0    0    0  501 -0.00000000000E+00  0.00000000000E+00  0.40209259649E+03  0.40209259649E+03  0.00000000000E+00 0. -1.
          4   -1    0    0  502    0  0.00000000000E+00 -0.00000000000E+00 -0.41758094116E+04  0.41758094116E+04  0.00000000000E+00 0.  1.
   -9000010    2    1    2    0  501 -0.51121355598E+03 -0.44099831526E+03 -0.10616503446E+04  0.16092225124E+04  0.10033328593E+04 0.  0.
    9000010    2    1    2  502    0  0.51121355598E+03  0.44099831526E+03 -0.27120664705E+04  0.29686794957E+04  0.10009668294E+04 0.  0.
        -13    1    4    4    0    0 -0.69693482306E+02 -0.24493215207E+03 -0.10355483666E+04  0.10664001928E+04  0.10566000000E+00 0.  1.
          4    1    4    4  502    0  0.58090703829E+03  0.68593046732E+03 -0.16765181039E+04  0.19022793028E+04  0.00000000000E+00 0.  1.
         13    1    3    3    0    0 -0.52362502517E+03  0.20503966728E+03 -0.52399448903E+03  0.76863168542E+03  0.10566000000E+00 0. -1.
         -4    1    3    3    0  501  0.12411469184E+02 -0.64603798253E+03 -0.53765585557E+03  0.84059082702E+03  0.00000000000E+00 0. -1.
<mgrwt>
<rscale>  0 0.12083553E+04</rscale>
<asrwt>0</asrwt>
<pdfrwt beam="2">  1        4 0.64243216E+00 0.12073746E+04</pdfrwt>
<pdfrwt beam="1">  1       -4 0.61860404E-01 0.12093369E+04</pdfrwt>
<totfact> 0.24197012E-02</totfact>
</mgrwt>
</event>
<event>
 8    1  0.3025584E-006  0.1288965E+04  0.7818608E-02  0.8554424E-01
          4   -1    0    0  502    0  0.00000000000E+00  0.00000000000E+00  0.26860211286E+04  0.26860211286E+04  0.00000000000E+00 0.  1.
         -4   -1    0    0    0  501 -0.00000000000E+00 -0.00000000000E+00 -0.12528844141E+04  0.12528844141E+04  0.00000000000E+00 0. -1.
   -9000010    2    1    2    0  501 -0.61745579632E+03  0.45007877277E+03 -0.70728755393E+03  0.14403363323E+04  0.99523389417E+03 0.  0.
    9000010    2    1    2  502    0  0.61745579632E+03 -0.45007877277E+03  0.21404242684E+04  0.24985692104E+04  0.10380797120E+04 0.  0.
        -13    1    4    4    0    0  0.89784107712E+03 -0.43977725214E+03  0.17831130988E+04  0.20442639178E+04  0.10566000000E+00 0.  1.
          4    1    4    4  502    0 -0.28038528080E+03 -0.10301520628E+02  0.35731116952E+03  0.45430529260E+03  0.00000000000E+00 0.  1.
         13    1    3    3    0    0  0.12687347049E+03  0.12399580625E+03  0.16916302657E+03  0.24512849325E+03  0.10566000000E+00 0. -1.
         -4    1    3    3    0  501 -0.74432926681E+03  0.32608296653E+03 -0.87645058050E+03  0.11952078391E+04  0.00000000000E+00 0. -1.
<mgrwt>
<rscale>  0 0.12717256E+04</rscale>
<asrwt>0</asrwt>
<pdfrwt beam="1">  1        4 0.41323402E+00 0.12889655E+04</pdfrwt>
<pdfrwt beam="2">  1       -4 0.19275145E+00 0.12547163E+04</pdfrwt>
<totfact> 0.43453618E-02</totfact>
</mgrwt>
</event>
<event>
 8    1  0.3025584E-006  0.1178576E+04  0.7818608E-02  0.8626482E-01
         -4   -1    0    0    0  501 -0.00000000000E+00  0.00000000000E+00  0.12343513745E+04  0.12343513745E+04  0.00000000000E+00 0. -1.
          4   -1    0    0  502    0  0.00000000000E+00 -0.00000000000E+00 -0.11522710620E+04  0.11522710620E+04  0.00000000000E+00 0.  1.
   -9000010    2    1    2    0  501 -0.17916471958E+03  0.57245953934E+03  0.25136275727E+03  0.11959509196E+04  0.10036460758E+04 0.  0.
    9000010    2    1    2  502    0  0.17916471958E+03 -0.57245953934E+03 -0.16928244476E+03  0.11906715169E+04  0.10145108152E+04 0.  0.
        -13    1    4    4    0    0  0.26381988786E+03 -0.37865094514E+02  0.35045091498E+03  0.44028462792E+03  0.10566000000E+00 0.  1.
          4    1    4    4  502    0 -0.84655168276E+02 -0.53459444482E+03 -0.51973335975E+03  0.75038688900E+03  0.00000000000E+00 0.  1.
         13    1    3    3    0    0 -0.57371401918E+03  0.41644190739E+03  0.12450241464E+02  0.70903219794E+03  0.10566000000E+00 0. -1.
         -4    1    3    3    0  501  0.39454929960E+03  0.15601763195E+03  0.23891251581E+03  0.48691872166E+03  0.00000000000E+00 0. -1.
<mgrwt>
<rscale>  0 0.11738974E+04</rscale>
<asrwt>0</asrwt>
<pdfrwt beam="2">  1        4 0.17727247E+00 0.11785763E+04</pdfrwt>
<pdfrwt beam="1">  1       -4 0.18990021E+00 0.11692371E+04</pdfrwt>
<totfact> 0.22825474E-01</totfact>
</mgrwt>
</event>
<event>
 8    1  0.3025584E-006  0.1090665E+04  0.7818608E-02  0.8699599E-01
          4   -1    0    0  502    0  0.00000000000E+00  0.00000000000E+00  0.63390050237E+03  0.63390050237E+03  0.00000000000E+00 0.  1.
         -4   -1    0    0    0  501 -0.00000000000E+00 -0.00000000000E+00 -0.21868961426E+04  0.21868961426E+04  0.00000000000E+00 0. -1.
   -9000010    2    1    2    0  501 -0.39750451058E+03 -0.24467777441E+03 -0.13233418377E+04  0.17062158752E+04  0.97059875546E+03 0.  0.
    9000010    2    1    2  502    0  0.39750451058E+03  0.24467777441E+03 -0.22965380244E+03  0.11145807697E+04  0.98573443382E+03 0.  0.
        -13    1    4    4    0    0  0.47636583224E+03  0.56539719443E+03 -0.56007674623E+02  0.74144134250E+03  0.10566000000E+00 0.  1.
          4    1    4    4  502    0 -0.78861321660E+02 -0.32071942002E+03 -0.17364612782E+03  0.37313942721E+03  0.00000000000E+00 0.  1.
         13    1    3    3    0    0  0.30275843373E+03  0.27933649466E+02 -0.54658646615E+03  0.62545961829E+03  0.10566000000E+00 0. -1.
         -4    1    3    3    0  501 -0.70026294430E+03 -0.27261142388E+03 -0.77675537159E+03  0.10807562569E+04  0.00000000000E+00 0. -1.
<mgrwt>
<rscale>  0 0.10838131E+04</rscale>
<asrwt>0</asrwt>
<pdfrwt beam="1">  1        4 0.97523153E-01 0.10906647E+04</pdfrwt>
<pdfrwt beam="2">  1       -4 0.33644556E+00 0.10770046E+04</pdfrwt>
<totfact> 0.24887001E-01</totfact>
</mgrwt>
</event>
<event>
 8    1  0.3025584E-006  0.1017920E+04  0.7818608E-02  0.8760138E-01
          4   -1    0    0  502    0  0.00000000000E+00  0.00000000000E+00  0.14254291108E+04  0.14254291108E+04  0.00000000000E+00 0.  1.
         -4   -1    0    0    0  501 -0.00000000000E+00 -0.00000000000E+00 -0.88182757529E+03  0.88182757529E+03  0.00000000000E+00 0. -1.
   -9000010    2    1    2    0  501 -0.44278205874E+01 -0.11707210600E+03 -0.21754276146E+03  0.10362324360E+04  0.10063435421E+04 0.  0.
    9000010    2    1    2  502    0  0.44278205874E+01  0.11707210600E+03  0.76114429694E+03  0.12710242501E+04  0.10111560314E+04 0.  0.
        -13    1    4    4    0    0  0.10776464542E+03 -0.63271048080E+01  0.98744224272E+03  0.99332544764E+03  0.10566000000E+00 0.  1.
          4    1    4    4  502    0 -0.10333682484E+03  0.12339921081E+03 -0.22629794579E+03  0.27769880241E+03  0.00000000000E+00 0.  1.
         13    1    3    3    0    0  0.32309700369E+03 -0.22165210675E+03 -0.46836805209E+03  0.61064717604E+03  0.10566000000E+00 0. -1.
         -4    1    3    3    0  501 -0.32752482428E+03  0.10458000075E+03  0.25082529064E+03  0.42558525997E+03  0.00000000000E+00 0. -1.
<mgrwt>
<rscale>  0 0.10155274E+04</rscale>
<asrwt>0</asrwt>
<pdfrwt beam="1">  1        4 0.21929679E+00 0.10179204E+04</pdfrwt>
<pdfrwt beam="2">  1       -4 0.13566578E+00 0.10131401E+04</pdfrwt>
<totfact> 0.28048726E-01</totfact>
</mgrwt>
</event>
<event>
 8    1  0.3025584E-006  0.1092145E+04  0.7818608E-02  0.8704945E-01
         -4   -1    0    0    0  501 -0.00000000000E+00  0.00000000000E+00  0.15405596490E+04  0.15405596490E+04  0.00000000000E+00 0. -1.
          4   -1    0    0  502    0  0.00000000000E+00 -0.00000000000E+00 -0.88502159222E+03  0.88502159222E+03  0.00000000000E+00 0.  1.
   -9000010    2    1    2    0  501 -0.32759321251E+03 -0.14735101632E+03  0.79088647630E+03  0.13250818038E+04  0.10006551521E+04 0.  0.
    9000010    2    1    2  502    0  0.32759321251E+03  0.14735101632E+03 -0.13534841949E+03  0.11004994375E+04  0.10313826556E+04 0.  0.
        -13    1    4    4    0    0  0.54686156388E+02  0.24128205918E+03  0.41265598407E+03  0.48113675824E+03  0.10566000000E+00 0.  1.
          4    1    4    4  502    0  0.27290705612E+03 -0.93931042857E+02 -0.54800440356E+03  0.61936267922E+03  0.00000000000E+00 0.  1.
         13    1    3    3    0    0 -0.64660776988E+03 -0.23208244357E+03  0.34065379098E+03  0.76681737405E+03  0.10566000000E+00 0. -1.
         -4    1    3    3    0  501  0.31901455737E+03  0.84731427250E+02  0.45023268532E+03  0.55826442974E+03  0.00000000000E+00 0. -1.
<mgrwt>
<rscale>  0 0.10775623E+04</rscale>
<asrwt>0</asrwt>
<pdfrwt beam="2">  1        4 0.13615717E+00 0.10921446E+04</pdfrwt>
<pdfrwt beam="1">  1       -4 0.23700918E+00 0.10631747E+04</pdfrwt>
<totfact> 0.25165368E-01</totfact>
</mgrwt>
</event>
<event>
 8    1  0.3025584E-006  0.1128635E+04  0.7818608E-02  0.8669525E-01
          4   -1    0    0  502    0  0.00000000000E+00  0.00000000000E+00  0.25325468831E+04  0.25325468831E+04  0.00000000000E+00 0.  1.
         -4   -1    0    0    0  501 -0.00000000000E+00 -0.00000000000E+00 -0.73328537776E+03  0.73328537776E+03  0.00000000000E+00 0. -1.
   -9000010    2    1    2    0  501 -0.47075816906E+03  0.23316822350E+03 -0.35623195988E+02  0.11116226369E+04  0.97900725257E+03 0.  0.
    9000010    2    1    2  502    0  0.47075816906E+03 -0.23316822350E+03  0.18348847013E+04  0.21542096239E+04  0.99891769561E+03 0.  0.
        -13    1    4    4    0    0 -0.59264351599E+02  0.18258898453E+03  0.12422508802E+04  0.12569957284E+04  0.10566000000E+00 0.  1.
          4    1    4    4  502    0  0.53002252066E+03 -0.41575720803E+03  0.59263382104E+03  0.89721389550E+03  0.00000000000E+00 0.  1.
         13    1    3    3    0    0  0.59369654286E+01  0.50696768727E+03  0.15437456535E+03  0.52998396304E+03  0.10566000000E+00 0. -1.
         -4    1    3    3    0  501 -0.47669513449E+03 -0.27379946377E+03 -0.18999776134E+03  0.58163867385E+03  0.00000000000E+00 0. -1.
<mgrwt>
<rscale>  0 0.11198089E+04</rscale>
<asrwt>0</asrwt>
<pdfrwt beam="1">  1        4 0.38962259E+00 0.11286351E+04</pdfrwt>
<pdfrwt beam="2">  1       -4 0.11281314E+00 0.11110517E+04</pdfrwt>
<totfact> 0.12284424E-01</totfact>
</mgrwt>
</event>
<event>
 8    1  0.3025584E-006  0.1689059E+04  0.7818608E-02  0.8313213E-01
          4   -1    0    0  502    0  0.00000000000E+00  0.00000000000E+00  0.23260253518E+04  0.23260253518E+04  0.00000000000E+00 0.  1.
         -4   -1    0    0    0  501 -0.00000000000E+00 -0.00000000000E+00 -0.14853087511E+04  0.14853087511E+04  0.00000000000E+00 0. -1.
   -9000010    2    1    2    0  501 -0.10355517221E+04  0.81534135920E+03 -0.39459464710E+03  0.17345385781E+04  0.10563002614E+04 0.  0.
    9000010    2    1    2  502    0  0.10355517221E+04 -0.81534135920E+03  0.12353112477E+04  0.20767955248E+04  0.10246642728E+04 0.  0.
        -13    1    4    4    0    0 -0.13903954456E+03  0.33307621582E+02  0.35145569368E+03  0.37942391647E+03  0.10566000000E+00 0.  1.
          4    1    4    4  502    0  0.11745912667E+04 -0.84864898078E+03  0.88385555403E+03  0.16973716083E+04  0.00000000000E+00 0.  1.
         13    1    3    3    0    0 -0.42134254700E+03 -0.33250199140E+02 -0.53042143986E+03  0.67821975250E+03  0.10566000000E+00 0. -1.
         -4    1    3    3    0  501 -0.61420917514E+03  0.84859155834E+03  0.13582679276E+03  0.10563188256E+04  0.00000000000E+00 0. -1.
<mgrwt>
<rscale>  0 0.16792291E+04</rscale>
<asrwt>0</asrwt>
<pdfrwt beam="1">  1        4 0.35785005E+00 0.16694567E+04</pdfrwt>
<pdfrwt beam="2">  1       -4 0.22850904E+00 0.16890587E+04</pdfrwt>
<totfact> 0.55072959E-02</totfact>
</mgrwt>
</event>
<event>
 8    1  0.3025584E-006  0.1131683E+04  0.7818608E-02  0.8663837E-01
          4   -1    0    0  502    0  0.00000000000E+00  0.00000000000E+00  0.34685607662E+04  0.34685607662E+04  0.00000000000E+00 0.  1.
         -4   -1    0    0    0  501 -0.00000000000E+00 -0.00000000000E+00 -0.53184673665E+03  0.53184673665E+03  0.00000000000E+00 0. -1.
   -9000010    2    1    2    0  501 -0.12069349525E+03 -0.52906716244E+03  0.34718271967E+03  0.11743891263E+04  0.98192412998E+03 0.  0.
    9000010    2    1    2  502    0  0.12069349525E+03  0.52906716244E+03  0.25895313099E+04  0.28260183765E+04  0.99309036720E+03 0.  0.
        -13    1    4    4    0    0 -0.14411027236E+03  0.75690181327E+03  0.19609366504E+04  0.21068793709E+04  0.10566000000E+00 0.  1.
          4    1    4    4  502    0  0.26480376761E+03 -0.22783465083E+03  0.62859465944E+03  0.71913900557E+03  0.00000000000E+00 0.  1.
         13    1    3    3    0    0 -0.99229128766E+02  0.28742998060E+03  0.11683881754E+03  0.32575103099E+03  0.10566000000E+00 0. -1.
         -4    1    3    3    0  501 -0.21464366486E+02 -0.81649714304E+03  0.23034390213E+03  0.84863809534E+03  0.00000000000E+00 0. -1.
<mgrwt>
<rscale>  0 0.11267799E+04</rscale>
<asrwt>0</asrwt>
<pdfrwt beam="1">  1        4 0.53362472E+00 0.11316835E+04</pdfrwt>
<pdfrwt beam="2">  1       -4 0.81822577E-01 0.11218975E+04</pdfrwt>
<totfact> 0.51529776E-02</totfact>
</mgrwt>
</event>
<event>
 8    1  0.3025584E-006  0.1088256E+04  0.7818608E-02  0.8696854E-01
          4   -1    0    0  502    0  0.00000000000E+00  0.00000000000E+00  0.11474696084E+04  0.11474696084E+04  0.00000000000E+00 0.  1.
         -4   -1    0    0    0  501 -0.00000000000E+00 -0.00000000000E+00 -0.18289704467E+04  0.18289704467E+04  0.00000000000E+00 0. -1.
   -9000010    2    1    2    0  501  0.40256407423E+03  0.10752486315E+02 -0.13247172244E+04  0.17144026833E+04  0.10110031583E+04 0.  0.
    9000010    2    1    2  502    0 -0.40256407423E+03 -0.10752486315E+02  0.64321638610E+03  0.12620373718E+04  0.10083836366E+04 0.  0.
        -13    1    4    4    0    0 -0.19417193313E+03 -0.25534983816E+03  0.83036644139E+03  0.89017679009E+03  0.10566000000E+00 0.  1.
          4    1    4    4  502    0 -0.20839214110E+03  0.24459735184E+03 -0.18715005529E+03  0.37186058166E+03  0.00000000000E+00 0.  1.
         13    1    3    3    0    0  0.43274636970E+03  0.40704677776E+03 -0.42396521316E+03  0.72986506487E+03  0.10566000000E+00 0. -1.
         -4    1    3    3    0  501 -0.30182295466E+02 -0.39629429145E+03 -0.90075201126E+03  0.98453761847E+03  0.00000000000E+00 0. -1.
<mgrwt>
<rscale>  0 0.10870386E+04</rscale>
<asrwt>0</asrwt>
<pdfrwt beam="1">  1        4 0.17653379E+00 0.10858227E+04</pdfrwt>
<pdfrwt beam="2">  1       -4 0.28138007E+00 0.10882559E+04</pdfrwt>
<totfact> 0.13550834E-01</totfact>
</mgrwt>
</event>
<event>
 8    1  0.3025584E-006  0.1152962E+04  0.7818608E-02  0.8648992E-01
          4   -1    0    0  502    0  0.00000000000E+00  0.00000000000E+00  0.30922849698E+04  0.30922849698E+04  0.00000000000E+00 0.  1.
         -4   -1    0    0    0  501 -0.00000000000E+00 -0.00000000000E+00 -0.42516784086E+03  0.42516784086E+03  0.00000000000E+00 0. -1.
   -9000010    2    1    2    0  501 -0.33222430702E+03 -0.43521261943E+03  0.12386433591E+04  0.16817351833E+04  0.99710222216E+03 0.  0.
    9000010    2    1    2  502    0  0.33222430702E+03  0.43521261943E+03  0.14284737698E+04  0.18357176273E+04  0.10146619545E+04 0.  0.
        -13    1    4    4    0    0 -0.20707155974E+03  0.46662425465E+03  0.31970998795E+03  0.60235480694E+03  0.10566000000E+00 0.  1.
          4    1    4    4  502    0  0.53929586676E+03 -0.31411635221E+02  0.11087637819E+04  0.12333628204E+04  0.00000000000E+00 0.  1.
         13    1    3    3    0    0 -0.62043689304E+03 -0.36306695124E+03  0.47312897622E+03  0.86058735096E+03  0.10566000000E+00 0. -1.
         -4    1    3    3    0  501  0.28821258601E+03 -0.72145668191E+02  0.76551438287E+03  0.82114783234E+03  0.00000000000E+00 0. -1.
<mgrwt>
<rscale>  0 0.11452248E+04</rscale>
<asrwt>0</asrwt>
<pdfrwt beam="1">  1        4 0.47573613E+00 0.11529622E+04</pdfrwt>
<pdfrwt beam="2">  1       -4 0.65410439E-01 0.11375394E+04</pdfrwt>
<totfact> 0.15246474E-01</totfact>
</mgrwt>
</event>
<event>
 8    1  0.3025584E-006  0.1545532E+04  0.7818608E-02  0.8393278E-01
          4   -1    0    0  502    0  0.00000000000E+00  0.00000000000E+00  0.14569897928E+04  0.14569897928E+04  0.00000000000E+00 0.  1.
         -4   -1    0    0    0  501 -0.00000000000E+00 -0.00000000000E+00 -0.24402567039E+04  0.24402567039E+04  0.00000000000E+00 0. -1.
   -9000010    2    1    2    0  501  0.98677376518E+03 -0.55415824961E+03 -0.16289115585E+04  0.22222758801E+04  0.10021693433E+04 0.  0.
    9000010    2    1    2  502    0 -0.98677376518E+03  0.55415824961E+03  0.64564464745E+03  0.16749706166E+04  0.10525472561E+04 0.  0.
        -13    1    4    4    0    0 -0.10625939530E+04  0.26648017317E+03  0.16237077396E+03  0.11074664198E+04  0.10566000000E+00 0.  1.
          4    1    4    4  502    0  0.75820187786E+02  0.28767807644E+03  0.48327387350E+03  0.56750419676E+03  0.00000000000E+00 0.  1.
         13    1    3    3    0    0  0.19320994216E+03 -0.52361905688E+03 -0.11912354110E+04  0.13155032550E+04  0.10566000000E+00 0. -1.
         -4    1    3    3    0  501  0.79356382302E+03 -0.30539192734E+02 -0.43767614753E+03  0.90677262509E+03  0.00000000000E+00 0. -1.
<mgrwt>
<rscale>  0 0.15285091E+04</rscale>
<asrwt>0</asrwt>
<pdfrwt beam="1">  1        4 0.22415228E+00 0.15455321E+04</pdfrwt>
<pdfrwt beam="2">  1       -4 0.37542410E+00 0.15116736E+04</pdfrwt>
<totfact> 0.49253385E-02</totfact>
</mgrwt>
</event>
<event>
 8    1  0.3025584E-006  0.1262845E+04  0.7818608E-02  0.8595647E-01
          4   -1    0    0  502    0  0.00000000000E+00  0.00000000000E+00  0.74485191549E+03  0.74485191549E+03  0.00000000000E+00 0. -1.
         -4   -1    0    0    0  501 -0.00000000000E+00 -0.00000000000E+00 -0.20007397194E+04  0.20007397194E+04  0.00000000000E+00 0.  1.
   -9000010    2    1    2    0  501  0.67183872901E+03 -0.25950782727E+03 -0.77910005147E+03  0.14838379438E+04  0.10373362826E+04 0.  0.
    9000010    2    1    2  502    0 -0.67183872901E+03  0.25950782727E+03 -0.47678775248E+03  0.12617536911E+04  0.91977400805E+03 0.  0.
        -13    1    4    4    0    0 -0.70940269035E+03  0.16590502363E+03  0.45359202611E+02  0.72995487693E+03  0.10566000000E+00 0.  1.
          4    1    4    4  502    0  0.37563961334E+02  0.93602803642E+02 -0.52214695509E+03  0.53179881417E+03  0.00000000000E+00 0.  1.
         13    1    3    3    0    0  0.42233455988E+03  0.34298661770E+03 -0.59497977531E+03  0.80623026772E+03  0.10566000000E+00 0. -1.
         -4    1    3    3    0  501  0.24950416913E+03 -0.60249444497E+03 -0.18412027615E+03  0.67760767611E+03  0.00000000000E+00 0. -1.
<mgrwt>
<rscale>  0 0.12146021E+04</rscale>
<asrwt>0</asrwt>
<pdfrwt beam="1">  1        4 0.11459260E+00 0.11682020E+04</pdfrwt>
<pdfrwt beam="2">  1       -4 0.30780611E+00 0.12628453E+04</pdfrwt>
<totfact> 0.22045363E-01</totfact>
</mgrwt>
</event>
<event>
 8    1  0.3025584E-006  0.1038730E+04  0.7818608E-02  0.8748307E-01
          4   -1    0    0  502    0  0.00000000000E+00  0.00000000000E+00  0.13493417027E+04  0.13493417027E+04  0.00000000000E+00 0.  1.
         -4   -1    0    0    0  501 -0.00000000000E+00 -0.00000000000E+00 -0.22922041383E+04  0.22922041383E+04  0.00000000000E+00 0. -1.
   -9000010    2    1    2    0  501  0.99701863362E+02 -0.18747378717E+03 -0.19499595923E+04  0.22093667888E+04  0.10167951188E+04 0.  0.
    9000010    2    1    2  502    0 -0.99701863362E+02  0.18747378717E+03  0.10070971567E+04  0.14321790521E+04  0.99589420723E+03 0.  0.
        -13    1    4    4    0    0  0.16766667362E+03  0.15193608045E+03 -0.13174885411E+03  0.26182906200E+03  0.10566000000E+00 0.  1.
          4    1    4    4  502    0 -0.26736853698E+03  0.35537706725E+02  0.11388460108E+04  0.11703499901E+04  0.00000000000E+00 0.  1.
         13    1    3    3    0    0 -0.49480669246E+02  0.41410566693E+03 -0.85012482073E+03  0.94691291152E+03  0.10566000000E+00 0. -1.
         -4    1    3    3    0  501  0.14918253261E+03 -0.60157945410E+03 -0.10998347715E+04  0.12624538773E+04  0.00000000000E+00 0. -1.
<mgrwt>
<rscale>  0 0.10284535E+04</rscale>
<asrwt>0</asrwt>
<pdfrwt beam="1">  1        4 0.20759103E+00 0.10182790E+04</pdfrwt>
<pdfrwt beam="2">  1       -4 0.35264679E+00 0.10387296E+04</pdfrwt>
<totfact> 0.68823871E-02</totfact>
</mgrwt>
</event>
<event>
 8    1  0.3025584E-006  0.1029575E+04  0.7818608E-02  0.8748400E-01
         -4   -1    0    0    0  501 -0.00000000000E+00  0.00000000000E+00  0.14816781877E+04  0.14816781877E+04  0.00000000000E+00 0. -1.
          4   -1    0    0  502    0  0.00000000000E+00 -0.00000000000E+00 -0.19536716003E+04  0.19536716003E+04  0.00000000000E+00 0.  1.
   -9000010    2    1    2    0  501 -0.25433020687E+03  0.13825476479E+03  0.11323131047E+04  0.15304109864E+04  0.98804179370E+03 0.  0.
    9000010    2    1    2  502    0  0.25433020687E+03 -0.13825476479E+03 -0.16043065173E+04  0.19049388017E+04  0.98549185814E+03 0.  0.
        -13    1    4    4    0    0  0.15378470199E+03 -0.56345122838E+03 -0.81341954481E+03  0.10013882306E+04  0.10566000000E+00 0.  1.
          4    1    4    4  502    0  0.10054550487E+03  0.42519646359E+03 -0.79088697252E+03  0.90355057108E+03  0.00000000000E+00 0.  1.
         13    1    3    3    0    0 -0.15583320647E+03 -0.13426797541E+02 -0.16102754636E+03  0.22448641157E+03  0.10566000000E+00 0. -1.
         -4    1    3    3    0  501 -0.98497000401E+02  0.15168156233E+03  0.12933406511E+04  0.13059245748E+04  0.00000000000E+00 0. -1.
<mgrwt>
<rscale>  0 0.10283509E+04</rscale>
<asrwt>0</asrwt>
<pdfrwt beam="2">  1        4 0.30056486E+00 0.10271282E+04</pdfrwt>
<pdfrwt beam="1">  1       -4 0.22795049E+00 0.10295751E+04</pdfrwt>
<totfact> 0.86637659E-02</totfact>
</mgrwt>
</event>
<event>
 8    1  0.3025584E-006  0.1212100E+04  0.7818608E-02  0.8604958E-01
          4   -1    0    0  502    0  0.00000000000E+00  0.00000000000E+00  0.16125545182E+04  0.16125545182E+04  0.00000000000E+00 0.  1.
         -4   -1    0    0    0  501 -0.00000000000E+00 -0.00000000000E+00 -0.14613720420E+04  0.14613720420E+04  0.00000000000E+00 0. -1.
   -9000010    2    1    2    0  501  0.62124702826E+03 -0.65269357157E+02 -0.87979390208E+03  0.14977394904E+04  0.10387388083E+04 0.  0.
    9000010    2    1    2  502    0 -0.62124702826E+03  0.65269357157E+02  0.10309763784E+04  0.15761870698E+04  0.10155025491E+04 0.  0.
        -13    1    4    4    0    0 -0.73119938840E+03 -0.59703622812E+02  0.11552133852E+04  0.13684790991E+04  0.10566000000E+00 0.  1.
          4    1    4    4  502    0  0.10995236013E+03  0.12497297997E+03 -0.12423700684E+03  0.20770797070E+03  0.00000000000E+00 0.  1.
         13    1    3    3    0    0 -0.23627927177E+03  0.15688450135E+03 -0.58157838657E+02  0.28952199639E+03  0.10566000000E+00 0. -1.
         -4    1    3    3    0  501  0.85752630003E+03 -0.22215385850E+03 -0.82163606343E+03  0.12082174940E+04  0.00000000000E+00 0. -1.
<mgrwt>
<rscale>  0 0.12021326E+04</rscale>
<asrwt>0</asrwt>
<pdfrwt beam="1">  1        4 0.24808531E+00 0.11922472E+04</pdfrwt>
<pdfrwt beam="2">  1       -4 0.22482647E+00 0.12120999E+04</pdfrwt>
<totfact> 0.11770899E-01</totfact>
</mgrwt>
</event>
<event>
 8    1  0.3025584E-006  0.1674385E+04  0.7818608E-02  0.8320835E-01
          4   -1    0    0  502    0  0.00000000000E+00  0.00000000000E+00  0.11179551281E+04  0.11179551281E+04  0.00000000000E+00 0.  1.
         -4   -1    0    0    0  501 -0.00000000000E+00 -0.00000000000E+00 -0.26431429780E+04  0.26431429780E+04  0.00000000000E+00 0. -1.
   -9000010    2    1    2    0  501 -0.12758679212E+04  0.32298431714E+03 -0.12293458340E+04  0.20607782106E+04  0.10016775090E+04 0.  0.
    9000010    2    1    2  502    0  0.12758679212E+04 -0.32298431714E+03 -0.29584201598E+03  0.17003198955E+04  0.10350881253E+04 0.  0.
        -13    1    4    4    0    0  0.62141398771E+03  0.34709657833E+03 -0.27611391101E+03  0.76345941728E+03  0.10566000000E+00 0.  1.
          4    1    4    4  502    0  0.65445393351E+03 -0.67008089547E+03 -0.19728104968E+02  0.93686047824E+03  0.00000000000E+00 0.  1.
         13    1    3    3    0    0 -0.11903485311E+04  0.25763166450E+03 -0.14021244420E+04  0.18572174514E+04  0.10566000000E+00 0. -1.
         -4    1    3    3    0  501 -0.85519390127E+02  0.65352652638E+02  0.17277860796E+03  0.20356075914E+03  0.00000000000E+00 0. -1.
<mgrwt>
<rscale>  0 0.16641308E+04</rscale>
<asrwt>0</asrwt>
<pdfrwt beam="1">  1        4 0.17199310E+00 0.16743850E+04</pdfrwt>
<pdfrwt beam="2">  1       -4 0.40663738E+00 0.16539394E+04</pdfrwt>
<totfact> 0.52546099E-02</totfact>
</mgrwt>
</event>
<event>
 8    1  0.3025584E-006  0.1016032E+04  0.7818608E-02  0.8776287E-01
         -4   -1    0    0    0  501 -0.00000000000E+00  0.00000000000E+00  0.20297750262E+04  0.20297750262E+04  0.00000000000E+00 0. -1.
          4   -1    0    0  502    0  0.00000000000E+00 -0.00000000000E+00 -0.87702230281E+03  0.87702230281E+03  0.00000000000E+00 0.  1.
   -9000010    2    1    2    0  501  0.13819497485E+03  0.13372937254E+03  0.15347624949E+04  0.18213236824E+04  0.96163540093E+03 0.  0.
    9000010    2    1    2  502    0 -0.13819497485E+03 -0.13372937254E+03 -0.38200977150E+03  0.10854736466E+04  0.99766736727E+03 0.  0.
        -13    1    4    4    0    0  0.16706274300E+03  0.35371398104E+03  0.68026816230E+01  0.39124139367E+03  0.10566000000E+00 0.  1.
          4    1    4    4  502    0 -0.30525771785E+03 -0.48744335358E+03 -0.38881245313E+03  0.69423225290E+03  0.00000000000E+00 0.  1.
         13    1    3    3    0    0 -0.33028950390E+03  0.32369914135E+03  0.58830498851E+03  0.74831481422E+03  0.10566000000E+00 0. -1.
         -4    1    3    3    0  501  0.46848447875E+03 -0.18996976881E+03  0.94645750636E+03  0.10730088682E+04  0.00000000000E+00 0. -1.
<mgrwt>
<rscale>  0 0.99819725E+03</rscale>
<asrwt>0</asrwt>
<pdfrwt beam="2">  1        4 0.13492651E+00 0.10160323E+04</pdfrwt>
<pdfrwt beam="1">  1       -4 0.31227308E+00 0.98067530E+03</pdfrwt>
<totfact> 0.16641154E-01</totfact>
</mgrwt>
</event>
<event>
 8    1  0.3025584E-006  0.1110556E+04  0.7818608E-02  0.8691758E-01
         -4   -1    0    0    0  501 -0.00000000000E+00  0.00000000000E+00  0.33797553814E+03  0.33797553814E+03  0.00000000000E+00 0. -1.
          4   -1    0    0  502    0  0.00000000000E+00 -0.00000000000E+00 -0.39658975389E+04  0.39658975389E+04  0.00000000000E+00 0.  1.
   -9000010    2    1    2    0  501 -0.26988812645E+03  0.38395289918E+03 -0.10798581300E+04  0.15243110500E+04  0.96807601278E+03 0.  0.
    9000010    2    1    2  502    0  0.26988812645E+03 -0.38395289918E+03 -0.25480638707E+04  0.27795620271E+04  0.10065168371E+04 0.  0.
        -13    1    4    4    0    0 -0.35786821111E+03 -0.28949480060E+02 -0.11749045492E+04  0.12285391487E+04  0.10566000000E+00 0.  1.
          4    1    4    4  502    0  0.62775633756E+03 -0.35500341912E+03 -0.13731593215E+04  0.15510228784E+04  0.00000000000E+00 0.  1.
         13    1    3    3    0    0 -0.55366700374E+03  0.33801639661E+01 -0.80101786972E+03  0.97374956499E+03  0.10566000000E+00 0. -1.
         -4    1    3    3    0  501  0.28377887729E+03  0.38057273522E+03 -0.27884026026E+03  0.55056148497E+03  0.00000000000E+00 0. -1.
<mgrwt>
<rscale>  0 0.10930601E+04</rscale>
<asrwt>0</asrwt>
<pdfrwt beam="2">  1        4 0.61013807E+00 0.11105564E+04</pdfrwt>
<pdfrwt beam="1">  1       -4 0.51996238E-01 0.10758395E+04</pdfrwt>
<totfact> 0.52711396E-02</totfact>
</mgrwt>
</event>
<event>
 8    1  0.3025584E-006  0.1930234E+04  0.7818608E-02  0.8197843E-01
          4   -1    0    0  502    0  0.00000000000E+00  0.00000000000E+00  0.18565437790E+04  0.18565437790E+04  0.00000000000E+00 0.  1.
         -4   -1    0    0    0  501 -0.00000000000E+00 -0.00000000000E+00 -0.22635543652E+04  0.22635543652E+04  0.00000000000E+00 0. -1.
   -9000010    2    1    2    0  501 -0.16266211704E+04  0.24709876781E+03 -0.90005266099E+03  0.21278899500E+04  0.10054186261E+04 0.  0.
    9000010    2    1    2  502    0  0.16266211704E+04 -0.24709876781E+03  0.49304207486E+03  0.19922081943E+04  0.10093803885E+04 0.  0.
        -13    1    4    4    0    0  0.89725391757E+03 -0.63421489391E+03  0.20535285764E+03  0.11177937786E+04  0.10566000000E+00 0.  1.
          4    1    4    4  502    0  0.72936725279E+03  0.38711612610E+03  0.28768921722E+03  0.87441441562E+03  0.00000000000E+00 0.  1.
         13    1    3    3    0    0 -0.14459539822E+04 -0.18054670611E+03 -0.60477292395E+03  0.15776977951E+04  0.10566000000E+00 0. -1.
         -4    1    3    3    0  501 -0.18066718813E+03  0.42764547391E+03 -0.29527973704E+03  0.55019215491E+03  0.00000000000E+00 0. -1.
<mgrwt>
<rscale>  0 0.19291993E+04</rscale>
<asrwt>0</asrwt>
<pdfrwt beam="1">  1        4 0.28562212E+00 0.19302339E+04</pdfrwt>
<pdfrwt beam="2">  1       -4 0.34823913E+00 0.19281652E+04</pdfrwt>
<totfact> 0.42118924E-02</totfact>
</mgrwt>
</event>
<event>
 8    1  0.3025584E-006  0.1148799E+04  0.7818608E-02  0.8659495E-01
         -4   -1    0    0    0  501 -0.00000000000E+00  0.00000000000E+00  0.18471386120E+04  0.18471386120E+04  0.00000000000E+00 0. -1.
          4   -1    0    0  502    0  0.00000000000E+00 -0.00000000000E+00 -0.15572094411E+04  0.15572094411E+04  0.00000000000E+00 0.  1.
   -9000010    2    1    2    0  501  0.21906393457E+03  0.34219964531E+03  0.14131369229E+04  0.18211794744E+04  0.10745460020E+04 0.  0.
    9000010    2    1    2  502    0 -0.21906393457E+03 -0.34219964531E+03 -0.11232077521E+04  0.15831685788E+04  0.10391041766E+04 0.  0.
        -13    1    4    4    0    0  0.23462442958E+03 -0.47658270477E+03 -0.93213771394E+03  0.10728748419E+04  0.10566000000E+00 0.  1.
          4    1    4    4  502    0 -0.45368836415E+03  0.13438305946E+03 -0.19107003813E+03  0.51029373688E+03  0.00000000000E+00 0.  1.
         13    1    3    3    0    0 -0.32627523029E+03  0.45471807500E+03  0.49382882894E+03  0.74638527390E+03  0.10566000000E+00 0. -1.
         -4    1    3    3    0  501  0.54533916485E+03 -0.11251842969E+03  0.91930809399E+03  0.10747942005E+04  0.00000000000E+00 0. -1.
<mgrwt>
<rscale>  0 0.11321377E+04</rscale>
<asrwt>0</asrwt>
<pdfrwt beam="2">  1        4 0.23957068E+00 0.11157182E+04</pdfrwt>
<pdfrwt beam="1">  1       -4 0.28417517E+00 0.11487988E+04</pdfrwt>
<totfact> 0.88955499E-02</totfact>
</mgrwt>
</event>
<event>
 8    1  0.3025584E-006  0.1089993E+04  0.7818608E-02  0.8699413E-01
         -4   -1    0    0    0  501 -0.00000000000E+00  0.00000000000E+00  0.65704002306E+03  0.65704002306E+03  0.00000000000E+00 0. -1.
          4   -1    0    0  502    0  0.00000000000E+00 -0.00000000000E+00 -0.19545767051E+04  0.19545767051E+04  0.00000000000E+00 0.  1.
   -9000010    2    1    2    0  501 -0.28199068570E+03 -0.27911035232E+03 -0.26495923371E+03  0.11101836731E+04  0.10024385552E+04 0.  0.
    9000010    2    1    2  502    0  0.28199068570E+03  0.27911035232E+03 -0.10325774483E+04  0.15014330550E+04  0.10152160836E+04 0.  0.
        -13    1    4    4    0    0 -0.43737265625E+02  0.95731640434E+02  0.19315577445E+03  0.21996967916E+03  0.10566000000E+00 0.  1.
          4    1    4    4  502    0  0.32572795132E+03  0.18337871188E+03 -0.12257332227E+04  0.12814633758E+04  0.00000000000E+00 0.  1.
         13    1    3    3    0    0  0.11227388664E+02 -0.55301087283E+03  0.10662473530E+03  0.56330801971E+03  0.10566000000E+00 0. -1.
         -4    1    3    3    0  501 -0.29321807436E+03  0.27390052052E+03 -0.37158396901E+03  0.54687565341E+03  0.00000000000E+00 0. -1.
<mgrwt>
<rscale>  0 0.10840314E+04</rscale>
<asrwt>0</asrwt>
<pdfrwt beam="2">  1        4 0.30070410E+00 0.10899931E+04</pdfrwt>
<pdfrwt beam="1">  1       -4 0.10108308E+00 0.10781022E+04</pdfrwt>
<totfact> 0.29229179E-01</totfact>
</mgrwt>
</event>
<event>
 8    1  0.3025584E-006  0.1023795E+04  0.7818608E-02  0.8755626E-01
         -4   -1    0    0    0  501 -0.00000000000E+00  0.00000000000E+00  0.26512090355E+04  0.26512090355E+04  0.00000000000E+00 0. -1.
          4   -1    0    0  502    0  0.00000000000E+00 -0.00000000000E+00 -0.17947868378E+04  0.17947868378E+04  0.00000000000E+00 0.  1.
   -9000010    2    1    2    0  501 -0.39329834773E+02  0.21561290631E+03  0.23932807002E+04  0.26030653255E+04  0.10000604072E+04 0.  0.
    9000010    2    1    2  502    0  0.39329834773E+02 -0.21561290631E+03 -0.15368585024E+04  0.18429305478E+04  0.99318839402E+03 0.  0.
        -13    1    4    4    0    0  0.10453312785E+03 -0.12347517120E+03 -0.16646120916E+04  0.16724552967E+04  0.10566000000E+00 0.  1.
          4    1    4    4  502    0 -0.65203293075E+02 -0.92137735118E+02  0.12775358920E+03  0.17047525103E+03  0.00000000000E+00 0.  1.
         13    1    3    3    0    0 -0.22973687558E+03 -0.30178339052E+02  0.22479511184E+04  0.22598615015E+04  0.10566000000E+00 0. -1.
         -4    1    3    3    0  501  0.19040704080E+03  0.24579124536E+03  0.14532958175E+03  0.34320382402E+03  0.00000000000E+00 0. -1.
<mgrwt>
<rscale>  0 0.10204338E+04</rscale>
<asrwt>0</asrwt>
<pdfrwt beam="2">  1        4 0.27612105E+00 0.10170835E+04</pdfrwt>
<pdfrwt beam="1">  1       -4 0.40787831E+00 0.10237952E+04</pdfrwt>
<totfact> 0.29183297E-02</totfact>
</mgrwt>
</event>
<event>
 8    1  0.3025584E-006  0.1036860E+04  0.7818608E-02  0.8746436E-01
          4   -1    0    0  502    0  0.00000000000E+00  0.00000000000E+00  0.34323824825E+04  0.34323824825E+04  0.00000000000E+00 0.  1.
         -4   -1    0    0    0  501 -0.00000000000E+00 -0.00000000000E+00 -0.10755946634E+04  0.10755946634E+04  0.00000000000E+00 0. -1.
   -9000010    2    1    2    0  501 -0.10120800138E+03  0.24574820327E+03 -0.72188515195E+03  0.12634067439E+04  0.10022191322E+04 0.  0.
    9000010    2    1    2  502    0  0.10120800138E+03 -0.24574820327E+03  0.30786729711E+04  0.32445704020E+04  0.98912819778E+03 0.  0.
        -13    1    4    4    0    0 -0.43904725524E+03 -0.53996284012E+02  0.11363755926E+04  0.12194374070E+04  0.10566000000E+00 0.  1.
          4    1    4    4  502    0  0.54025525663E+03 -0.19175191926E+03  0.19422973785E+04  0.20251329950E+04  0.00000000000E+00 0.  1.
         13    1    3    3    0    0  0.96307444827E+02 -0.34173433289E+02  0.23003640870E+03  0.25171354346E+03  0.10566000000E+00 0. -1.
         -4    1    3    3    0  501 -0.19751544621E+03  0.27992163656E+03 -0.95192156065E+03  0.10116932004E+04  0.00000000000E+00 0. -1.
<mgrwt>
<rscale>  0 0.10305164E+04</rscale>
<asrwt>0</asrwt>
<pdfrwt beam="1">  1        4 0.52805884E+00 0.10242118E+04</pdfrwt>
<pdfrwt beam="2">  1       -4 0.16547610E+00 0.10368599E+04</pdfrwt>
<totfact> 0.16342146E-02</totfact>
</mgrwt>
</event>
<event>
 8    1  0.3025584E-006  0.1426617E+04  0.7818608E-02  0.8463705E-01
          4   -1    0    0  502    0  0.00000000000E+00  0.00000000000E+00  0.11022597695E+04  0.11022597695E+04  0.00000000000E+00 0.  1.
         -4   -1    0    0    0  501 -0.00000000000E+00 -0.00000000000E+00 -0.18023013474E+04  0.18023013474E+04  0.00000000000E+00 0. -1.
   -9000010    2    1    2    0  501  0.28011862506E+03  0.96994810044E+03 -0.36230662761E+03  0.14385118630E+04  0.95853248557E+03 0.  0.
    9000010    2    1    2  502    0 -0.28011862506E+03 -0.96994810044E+03 -0.33773495023E+03  0.14660492539E+04  0.10079532513E+04 0.  0.
        -13    1    4    4    0    0  0.73325720905E+02 -0.80928495419E+03  0.16668105744E+03  0.82951876681E+03  0.10566000000E+00 0.  1.
          4    1    4    4  502    0 -0.35344434596E+03 -0.16066314625E+03 -0.50441600766E+03  0.63653048713E+03  0.00000000000E+00 0.  1.
         13    1    3    3    0    0 -0.30389687663E+03  0.65701167138E+03 -0.12428562547E+03  0.73448252247E+03  0.10566000000E+00 0. -1.
         -4    1    3    3    0  501  0.58401550169E+03  0.31293642906E+03 -0.23802100214E+03  0.70402934051E+03  0.00000000000E+00 0. -1.
<mgrwt>
<rscale>  0 0.14092723E+04</rscale>
<asrwt>0</asrwt>
<pdfrwt beam="1">  1        4 0.16957843E+00 0.14266168E+04</pdfrwt>
<pdfrwt beam="2">  1       -4 0.27727713E+00 0.13921387E+04</pdfrwt>
<totfact> 0.14439175E-01</totfact>
</mgrwt>
</event>
<event>
 8    1  0.3025584E-006  0.1108074E+04  0.7818608E-02  0.8703465E-01
          4   -1    0    0  502    0  0.00000000000E+00  0.00000000000E+00  0.63968050859E+03  0.63968050859E+03  0.00000000000E+00 0.  1.
         -4   -1    0    0    0  501 -0.00000000000E+00 -0.00000000000E+00 -0.23819251628E+04  0.23819251628E+04  0.00000000000E+00 0. -1.
   -9000010    2    1    2    0  501  0.16218557610E+03 -0.26795033682E+03 -0.16207928646E+04  0.19633638289E+04  0.10628859160E+04 0.  0.
    9000010    2    1    2  502    0 -0.16218557610E+03  0.26795033682E+03 -0.12145178958E+03  0.10582418425E+04  0.10035057129E+04 0.  0.
        -13    1    4    4    0    0 -0.20610470446E+03 -0.24850528863E+03  0.26013106154E+03  0.41461091161E+03  0.10566000000E+00 0.  1.
          4    1    4    4  502    0  0.43919128367E+02  0.51645562545E+03 -0.38158285112E+03  0.64363093086E+03  0.00000000000E+00 0.  1.
         13    1    3    3    0    0  0.56965943223E+03 -0.33576906603E+03 -0.75205986445E+03  0.10014223811E+04  0.10566000000E+00 0. -1.
         -4    1    3    3    0  501 -0.40747385613E+03  0.67818729214E+02 -0.86873300015E+03  0.96194144781E+03  0.00000000000E+00 0. -1.
<mgrwt>
<rscale>  0 0.10792878E+04</rscale>
<asrwt>0</asrwt>
<pdfrwt beam="1">  1        4 0.98412385E-01 0.10512494E+04</pdfrwt>
<pdfrwt beam="2">  1       -4 0.36645003E+00 0.11080740E+04</pdfrwt>
<totfact> 0.19324054E-01</totfact>
</mgrwt>
</event>
<event>
 8    1  0.3025584E-006  0.1178290E+04  0.7818608E-02  0.8627318E-01
         -4   -1    0    0    0  501 -0.00000000000E+00  0.00000000000E+00  0.93362327882E+03  0.93362327882E+03  0.00000000000E+00 0. -1.
          4   -1    0    0  502    0  0.00000000000E+00 -0.00000000000E+00 -0.17640103467E+04  0.17640103467E+04  0.00000000000E+00 0.  1.
   -9000010    2    1    2    0  501  0.14379120183E+03  0.60114143128E+03  0.13072644967E+03  0.11855199473E+04  0.10031556263E+04 0.  0.
    9000010    2    1    2  502    0 -0.14379120183E+03 -0.60114143128E+03 -0.96111351752E+03  0.15121136782E+04  0.99030381809E+03 0.  0.
        -13    1    4    4    0    0  0.96655947929E+02 -0.50442708209E+02 -0.90171518281E+03  0.90828251175E+03  0.10566000000E+00 0.  1.
          4    1    4    4  502    0 -0.24044714976E+03 -0.55069872307E+03 -0.59398334719E+02  0.60383116646E+03  0.00000000000E+00 0.  1.
         13    1    3    3    0    0 -0.32530752131E+03  0.10100971652E+03 -0.22972232274E+03  0.41085314040E+03  0.10566000000E+00 0. -1.
         -4    1    3    3    0  501  0.46909872313E+03  0.50013171476E+03  0.36044877240E+03  0.77466680688E+03  0.00000000000E+00 0. -1.
<mgrwt>
<rscale>  0 0.11728166E+04</rscale>
<asrwt>0</asrwt>
<pdfrwt beam="2">  1        4 0.27138620E+00 0.11673682E+04</pdfrwt>
<pdfrwt beam="1">  1       -4 0.14363435E+00 0.11782903E+04</pdfrwt>
<totfact> 0.19194575E-01</totfact>
</mgrwt>
</event>
<event>
 8    1  0.3025584E-006  0.1058183E+04  0.7818608E-02  0.8731727E-01
         -4   -1    0    0    0  501 -0.00000000000E+00  0.00000000000E+00  0.30029180449E+04  0.30029180449E+04  0.00000000000E+00 0. -1.
          4   -1    0    0  502    0  0.00000000000E+00 -0.00000000000E+00 -0.18454601123E+04  0.18454601123E+04  0.00000000000E+00 0.  1.
   -9000010    2    1    2    0  501  0.18557669450E+03  0.15753654462E+03  0.27511772144E+04  0.29476648102E+04  0.10298035227E+04 0.  0.
    9000010    2    1    2  502    0 -0.18557669450E+03 -0.15753654462E+03 -0.15937192818E+04  0.19007133470E+04  0.10067341287E+04 0.  0.
        -13    1    4    4    0    0 -0.30996656415E+03 -0.48495700314E+03 -0.53590308171E+03  0.78641890233E+03  0.10566000000E+00 0.  1.
          4    1    4    4  502    0  0.12438986965E+03  0.32742045852E+03 -0.10578162001E+04  0.11142944447E+04  0.00000000000E+00 0.  1.
         13    1    3    3    0    0 -0.28644290041E+03  0.97327027280E+02  0.21948188983E+04  0.22155703764E+04  0.10566000000E+00 0. -1.
         -4    1    3    3    0  501  0.47201959491E+03  0.60209517336E+02  0.55635831613E+03  0.73209443372E+03  0.00000000000E+00 0. -1.
<mgrwt>
<rscale>  0 0.10469046E+04</rscale>
<asrwt>0</asrwt>
<pdfrwt beam="2">  1        4 0.28391694E+00 0.10357461E+04</pdfrwt>
<pdfrwt beam="1">  1       -4 0.46198739E+00 0.10581832E+04</pdfrwt>
<totfact> 0.15948317E-02</totfact>
</mgrwt>
</event>
<event>
 8    1  0.3025584E-006  0.1288380E+04  0.7818608E-02  0.8543659E-01
          4   -1    0    0  502    0  0.00000000000E+00  0.00000000000E+00  0.98609887150E+03  0.98609887150E+03  0.00000000000E+00 0.  1.
         -4   -1    0    0    0  501 -0.00000000000E+00 -0.00000000000E+00 -0.16815140233E+04  0.16815140233E+04  0.00000000000E+00 0. -1.
   -9000010    2    1    2    0  501  0.72832387966E+03 -0.26701948355E+03 -0.31037222962E+03  0.13252373191E+04  0.10286729086E+04 0.  0.
    9000010    2    1    2  502    0 -0.72832387966E+03  0.26701948355E+03 -0.38504292222E+03  0.13423755757E+04  0.10256505526E+04 0.  0.
        -13    1    4    4    0    0  0.14490664754E+03 -0.14534667683E+03  0.13489489952E+03  0.24560178755E+03  0.10566000000E+00 0.  1.
          4    1    4    4  502    0 -0.87323052720E+03  0.41236616038E+03 -0.51993782174E+03  0.10967737881E+04  0.00000000000E+00 0.  1.
         13    1    3    3    0    0  0.74608332255E+03 -0.55832083884E+03 -0.40832614816E+03  0.10173950745E+04  0.10566000000E+00 0. -1.
         -4    1    3    3    0  501 -0.17759442886E+02  0.29130135529E+03  0.97953918539E+02  0.30784224460E+03  0.00000000000E+00 0. -1.
<mgrwt>
<rscale>  0 0.12871735E+04</rscale>
<asrwt>0</asrwt>
<pdfrwt beam="1">  1        4 0.15170752E+00 0.12859682E+04</pdfrwt>
<pdfrwt beam="2">  1       -4 0.25869446E+00 0.12883800E+04</pdfrwt>
<totfact> 0.18833953E-01</totfact>
</mgrwt>
</event>
<event>
 8    1  0.3025584E-006  0.1094891E+04  0.7818608E-02  0.8702873E-01
         -4   -1    0    0    0  501 -0.00000000000E+00  0.00000000000E+00  0.47568470680E+03  0.47568470680E+03  0.00000000000E+00 0. -1.
          4   -1    0    0  502    0  0.00000000000E+00 -0.00000000000E+00 -0.33341257087E+04  0.33341257087E+04  0.00000000000E+00 0.  1.
   -9000010    2    1    2    0  501 -0.19290429586E+03 -0.38204202476E+03 -0.43528020729E+03  0.11507702613E+04  0.97551789291E+03 0.  0.
    9000010    2    1    2  502    0  0.19290429586E+03  0.38204202476E+03 -0.24231607946E+04  0.26590401542E+04  0.10077788096E+04 0.  0.
        -13    1    4    4    0    0  0.29408160470E+03 -0.27826420196E+03 -0.11837307610E+04  0.12510529494E+04  0.10566000000E+00 0.  1.
          4    1    4    4  502    0 -0.10117730884E+03  0.66030622672E+03 -0.12394300336E+04  0.14079872048E+04  0.00000000000E+00 0.  1.
         13    1    3    3    0    0 -0.45877073764E+03 -0.57097916198E+03 -0.35949150350E+03  0.81591785455E+03  0.10566000000E+00 0. -1.
         -4    1    3    3    0  501  0.26586644178E+03  0.18893713722E+03 -0.75788703793E+02  0.33485240675E+03  0.00000000000E+00 0. -1.
<mgrwt>
<rscale>  0 0.10799797E+04</rscale>
<asrwt>0</asrwt>
<pdfrwt beam="2">  1        4 0.51294241E+00 0.10948910E+04</pdfrwt>
<pdfrwt beam="1">  1       -4 0.73182264E-01 0.10652715E+04</pdfrwt>
<totfact> 0.81240033E-02</totfact>
</mgrwt>
</event>
<event>
 8    1  0.3025584E-006  0.1178712E+04  0.7818608E-02  0.8631007E-01
         -4   -1    0    0    0  501 -0.00000000000E+00  0.00000000000E+00  0.10762670341E+04  0.10762670341E+04  0.00000000000E+00 0. -1.
          4   -1    0    0  502    0  0.00000000000E+00 -0.00000000000E+00 -0.14422162397E+04  0.14422162397E+04  0.00000000000E+00 0.  1.
   -9000010    2    1    2    0  501 -0.61539478620E+03  0.64479616051E+02  0.25346924789E+03  0.12056568235E+04  0.10032414229E+04 0.  0.
    9000010    2    1    2  502    0  0.61539478620E+03 -0.64479616051E+02 -0.61941845353E+03  0.13128264503E+04  0.97824623904E+03 0.  0.
        -13    1    4    4    0    0  0.69917253830E+03  0.15842110263E+03 -0.77715922138E+02  0.72109587420E+03  0.10566000000E+00 0.  1.
          4    1    4    4  502    0 -0.83777752099E+02 -0.22290071869E+03 -0.54170253139E+03  0.59173057607E+03  0.00000000000E+00 0.  1.
         13    1    3    3    0    0  0.94405993282E+02  0.26145358122E+03 -0.19836750590E+03  0.34149691837E+03  0.10566000000E+00 0. -1.
         -4    1    3    3    0  501 -0.70980077948E+03 -0.19697396517E+03  0.45183675379E+03  0.86415990510E+03  0.00000000000E+00 0. -1.
<mgrwt>
<rscale>  0 0.11680639E+04</rscale>
<asrwt>0</asrwt>
<pdfrwt beam="2">  1        4 0.22187942E+00 0.11575120E+04</pdfrwt>
<pdfrwt beam="1">  1       -4 0.16557954E+00 0.11787119E+04</pdfrwt>
<totfact> 0.20536274E-01</totfact>
</mgrwt>
</event>
<event>
 8    1  0.3025584E-006  0.1096808E+04  0.7818608E-02  0.8696687E-01
         -4   -1    0    0    0  501 -0.00000000000E+00  0.00000000000E+00  0.13250280393E+04  0.13250280393E+04  0.00000000000E+00 0. -1.
          4   -1    0    0  502    0  0.00000000000E+00 -0.00000000000E+00 -0.12736644854E+04  0.12736644854E+04  0.00000000000E+00 0.  1.
   -9000010    2    1    2    0  501  0.16015955587E+03  0.42324849478E+03  0.73660765491E+03  0.13054225323E+04  0.97813433583E+03 0.  0.
    9000010    2    1    2  502    0 -0.16015955587E+03 -0.42324849478E+03 -0.68524410095E+03  0.12932699924E+04  0.99909830532E+03 0.  0.
        -13    1    4    4    0    0 -0.23179781621E+03  0.72234057484E+02  0.17407866801E+03  0.29874969537E+03  0.10566000000E+00 0.  1.
          4    1    4    4  502    0  0.71638260341E+02 -0.49548255227E+03 -0.85932276897E+03  0.99452029703E+03  0.00000000000E+00 0.  1.
         13    1    3    3    0    0  0.19002858634E+03  0.43317157145E+03  0.96509253814E+03  0.10747800204E+04  0.10566000000E+00 0. -1.
         -4    1    3    3    0  501 -0.29869030462E+02 -0.99230766725E+01 -0.22848488323E+03  0.23064251190E+03  0.00000000000E+00 0. -1.
<mgrwt>
<rscale>  0 0.10872354E+04</rscale>
<asrwt>0</asrwt>
<pdfrwt beam="2">  1        4 0.19594838E+00 0.10968080E+04</pdfrwt>
<pdfrwt beam="1">  1       -4 0.20385047E+00 0.10777463E+04</pdfrwt>
<totfact> 0.18233869E-01</totfact>
</mgrwt>
</event>
<event>
 8    1  0.3025584E-006  0.1076724E+04  0.7818608E-02  0.8705810E-01
          4   -1    0    0  502    0  0.00000000000E+00  0.00000000000E+00  0.12700736955E+04  0.12700736955E+04  0.00000000000E+00 0.  1.
         -4   -1    0    0    0  501 -0.00000000000E+00 -0.00000000000E+00 -0.14236562701E+04  0.14236562701E+04  0.00000000000E+00 0. -1.
   -9000010    2    1    2    0  501  0.24255101696E+03  0.32707088155E+03 -0.88382713730E+03  0.13930125881E+04  0.99675839834E+03 0.  0.
    9000010    2    1    2  502    0 -0.24255101696E+03 -0.32707088155E+03  0.73024456268E+03  0.13007173776E+04  0.99639460936E+03 0.  0.
        -13    1    4    4    0    0 -0.18434438759E+03 -0.27133757120E+03  0.98254580525E+03  0.10358586783E+04  0.10566000000E+00 0.  1.
          4    1    4    4  502    0 -0.58206629363E+02 -0.55733310348E+02 -0.25230124256E+03  0.26485869928E+03  0.00000000000E+00 0.  1.
         13    1    3    3    0    0  0.44237171561E+03 -0.15544039393E+03 -0.69355348145E+03  0.83718032325E+03  0.10566000000E+00 0. -1.
         -4    1    3    3    0  501 -0.19982069865E+03  0.48251127547E+03 -0.19027365585E+03  0.55583226488E+03  0.00000000000E+00 0. -1.
<mgrwt>
<rscale>  0 0.10765552E+04</rscale>
<asrwt>0</asrwt>
<pdfrwt beam="1">  1        4 0.19539595E+00 0.10763868E+04</pdfrwt>
<pdfrwt beam="2">  1       -4 0.21902404E+00 0.10767236E+04</pdfrwt>
<totfact> 0.16716562E-01</totfact>
</mgrwt>
</event>
<event>
 8    1  0.3025584E-006  0.1284034E+04  0.7818608E-02  0.8569881E-01
         -4   -1    0    0    0  501 -0.00000000000E+00  0.00000000000E+00  0.26269669816E+04  0.26269669816E+04  0.00000000000E+00 0. -1.
          4   -1    0    0  502    0  0.00000000000E+00 -0.00000000000E+00 -0.19745392593E+04  0.19745392593E+04  0.00000000000E+00 0.  1.
   -9000010    2    1    2    0  501  0.67394403830E+03  0.13322204263E+03  0.22516488678E+04  0.25920391548E+04  0.10848021372E+04 0.  0.
    9000010    2    1    2  502    0 -0.67394403830E+03 -0.13322204263E+03 -0.15992211455E+04  0.20094670860E+04  0.10042415138E+04 0.  0.
        -13    1    4    4    0    0 -0.54421174566E+02  0.25866878924E+03 -0.10781417025E+04  0.11100724069E+04  0.10566000000E+00 0.  1.
          4    1    4    4  502    0 -0.61952286374E+03 -0.39189083187E+03 -0.52107944301E+03  0.89939467906E+03  0.00000000000E+00 0.  1.
         13    1    3    3    0    0 -0.14219989231E+03  0.17263979444E+03  0.13772223419E+04  0.13952658163E+04  0.10566000000E+00 0. -1.
         -4    1    3    3    0  501  0.81614393061E+03 -0.39417751810E+02  0.87442652594E+03  0.11967733386E+04  0.00000000000E+00 0. -1.
<mgrwt>
<rscale>  0 0.12499330E+04</rscale>
<asrwt>0</asrwt>
<pdfrwt beam="2">  1        4 0.30377527E+00 0.12167373E+04</pdfrwt>
<pdfrwt beam="1">  1       -4 0.40414877E+00 0.12840344E+04</pdfrwt>
<totfact> 0.24658906E-02</totfact>
</mgrwt>
</event>
<event>
 8    1  0.3025584E-006  0.1157687E+04  0.7818608E-02  0.8643924E-01
         -4   -1    0    0    0  501 -0.00000000000E+00  0.00000000000E+00  0.25629850479E+04  0.25629850479E+04  0.00000000000E+00 0. -1.
          4   -1    0    0  502    0  0.00000000000E+00 -0.00000000000E+00 -0.62258452056E+03  0.62258452056E+03  0.00000000000E+00 0.  1.
   -9000010    2    1    2    0  501 -0.25641914499E+03  0.55100275342E+03  0.16289567398E+04  0.19984343369E+04  0.98533493106E+03 0.  0.
    9000010    2    1    2  502    0  0.25641914499E+03 -0.55100275342E+03  0.31144378753E+03  0.11871352316E+04  0.97104995396E+03 0.  0.
        -13    1    4    4    0    0  0.22187709612E+03 -0.82459467721E+02  0.59363473818E+03  0.63908624077E+03  0.10566000000E+00 0.  1.
          4    1    4    4  502    0  0.34542048871E+02 -0.46854328570E+03 -0.28219095065E+03  0.54804899082E+03  0.00000000000E+00 0.  1.
         13    1    3    3    0    0 -0.45235896490E+02  0.38024170868E+02  0.13951951437E+04  0.13964460692E+04  0.10566000000E+00 0. -1.
         -4    1    3    3    0  501 -0.21118324850E+03  0.51297858255E+03  0.23376159607E+03  0.60198826766E+03  0.00000000000E+00 0. -1.
<mgrwt>
<rscale>  0 0.11516044E+04</rscale>
<asrwt>0</asrwt>
<pdfrwt beam="2">  1        4 0.95782235E-01 0.11455535E+04</pdfrwt>
<pdfrwt beam="1">  1       -4 0.39430539E+00 0.11576872E+04</pdfrwt>
<totfact> 0.15938695E-01</totfact>
</mgrwt>
</event>
<event>
 8    1  0.3025584E-006  0.1054725E+04  0.7818608E-02  0.8732704E-01
         -4   -1    0    0    0  501 -0.00000000000E+00  0.00000000000E+00  0.28680498679E+04  0.28680498679E+04  0.00000000000E+00 0. -1.
          4   -1    0    0  502    0  0.00000000000E+00 -0.00000000000E+00 -0.23124140837E+04  0.23124140837E+04  0.00000000000E+00 0.  1.
   -9000010    2    1    2    0  501 -0.35769014818E+03 -0.16149937473E+01  0.26452128946E+04  0.28477353219E+04  0.99221991267E+03 0.  0.
    9000010    2    1    2  502    0  0.35769014818E+03  0.16149937473E+01 -0.20895771104E+04  0.23327286297E+04  0.97331675695E+03 0.  0.
        -13    1    4    4    0    0  0.43533880711E+03  0.32659032961E+03 -0.61699869968E+03  0.82272019967E+03  0.10566000000E+00 0.  1.
          4    1    4    4  502    0 -0.77648658926E+02 -0.32497533586E+03 -0.14725784107E+04  0.15100084301E+04  0.00000000000E+00 0.  1.
         13    1    3    3    0    0  0.27707115475E+03  0.24170072386E+03  0.77471832623E+03  0.85754076339E+03  0.10566000000E+00 0. -1.
         -4    1    3    3    0  501 -0.63476130293E+03 -0.24331571761E+03  0.18704945684E+04  0.19901945585E+04  0.00000000000E+00 0. -1.
<mgrwt>
<rscale>  0 0.10458059E+04</rscale>
<asrwt>0</asrwt>
<pdfrwt beam="2">  1        4 0.35575601E+00 0.10369621E+04</pdfrwt>
<pdfrwt beam="1">  1       -4 0.44123844E+00 0.10547252E+04</pdfrwt>
<totfact> 0.12434258E-02</totfact>
</mgrwt>
</event>
<event>
 8    1  0.3025584E-006  0.2007921E+04  0.7818608E-02  0.8168200E-01
         -4   -1    0    0    0  501 -0.00000000000E+00  0.00000000000E+00  0.17869236906E+04  0.17869236906E+04  0.00000000000E+00 0. -1.
          4   -1    0    0  502    0  0.00000000000E+00 -0.00000000000E+00 -0.22504005078E+04  0.22504005078E+04  0.00000000000E+00 0.  1.
   -9000010    2    1    2    0  501 -0.12452627172E+04 -0.11953267196E+04 -0.92565505610E+02  0.20100535056E+04  0.10257979924E+04 0.  0.
    9000010    2    1    2  502    0  0.12452627172E+04  0.11953267196E+04 -0.37091131151E+03  0.20272706928E+04  0.99637646478E+03 0.  0.
        -13    1    4    4    0    0 -0.76835682413E+02  0.45578324045E+03  0.20399872488E+02  0.46266429550E+03  0.10566000000E+00 0.  1.
          4    1    4    4  502    0  0.13220983996E+04  0.73954347910E+03 -0.39131118400E+03  0.15646063973E+04  0.00000000000E+00 0.  1.
         13    1    3    3    0    0 -0.81387689208E+03 -0.58000085837E+03 -0.53949498505E+03  0.11357162679E+04  0.10566000000E+00 0. -1.
         -4    1    3    3    0  501 -0.43138582515E+03 -0.61532586118E+03  0.44692947944E+03  0.87433723767E+03  0.00000000000E+00 0. -1.
<mgrwt>
<rscale>  0 0.20004721E+04</rscale>
<asrwt>0</asrwt>
<pdfrwt beam="2">  1        4 0.34621546E+00 0.19930507E+04</pdfrwt>
<pdfrwt beam="1">  1       -4 0.27491134E+00 0.20079210E+04</pdfrwt>
<totfact> 0.45486242E-02</totfact>
</mgrwt>
</event>
<event>
 8    1  0.3025584E-006  0.1069221E+04  0.7818608E-02  0.8824198E-01
         -4   -1    0    0    0  501 -0.00000000000E+00  0.00000000000E+00  0.94041020657E+03  0.94041020657E+03  0.00000000000E+00 0. -1.
          4   -1    0    0  502    0  0.00000000000E+00 -0.00000000000E+00 -0.31032925244E+04  0.31032925244E+04  0.00000000000E+00 0.  1.
   -9000010    2    1    2    0  501  0.32843979126E+03 -0.21047799458E+03  0.55054114144E+03  0.12026342515E+04  0.99551992031E+03 0.  0.
    9000010    2    1    2  502    0 -0.32843979126E+03  0.21047799458E+03 -0.27134234593E+04  0.28410684795E+04  0.74621012665E+03 0.  0.
        -13    1    4    4    0    0 -0.54315010161E+03  0.11610062175E+03 -0.22964273805E+04  0.23626404958E+04  0.10566000000E+00 0.  1.
          4    1    4    4  502    0  0.21471031035E+03  0.94377372832E+02 -0.41699607873E+03  0.47842798366E+03  0.00000000000E+00 0.  1.
         13    1    3    3    0    0 -0.97875681154E+02  0.27125114717E+03 -0.82676208252E+02  0.29998700035E+03  0.10566000000E+00 0. -1.
         -4    1    3    3    0  501  0.42631547242E+03 -0.48172914175E+03  0.63321734969E+03  0.90264725114E+03  0.00000000000E+00 0. -1.
<mgrwt>
<rscale>  0 0.94884615E+03</rscale>
<asrwt>0</asrwt>
<pdfrwt beam="2">  1        4 0.47742962E+00 0.84202330E+03</pdfrwt>
<pdfrwt beam="1">  1       -4 0.14467849E+00 0.10692210E+04</pdfrwt>
<totfact> 0.34986841E-02</totfact>
</mgrwt>
</event>
<event>
 8    1  0.3025584E-006  0.1250637E+04  0.7818608E-02  0.8570144E-01
         -4   -1    0    0    0  501 -0.00000000000E+00  0.00000000000E+00  0.14580065023E+04  0.14580065023E+04  0.00000000000E+00 0. -1.
          4   -1    0    0  502    0  0.00000000000E+00 -0.00000000000E+00 -0.22283865772E+04  0.22283865772E+04  0.00000000000E+00 0.  1.
   -9000010    2    1    2    0  501 -0.73058032474E+03 -0.18359359845E+03  0.94305248337E+03  0.15663463596E+04  0.99831794117E+03 0.  0.
    9000010    2    1    2  502    0  0.73058032474E+03  0.18359359845E+03 -0.17134325582E+04  0.21200467198E+04  0.99563685259E+03 0.  0.
        -13    1    4    4    0    0  0.58986936440E+03  0.42605137902E+03 -0.52056135985E+03  0.89467859321E+03  0.10566000000E+00 0.  1.
          4    1    4    4  502    0  0.14071096034E+03 -0.24245778057E+03 -0.11928711984E+04  0.12253681266E+04  0.00000000000E+00 0.  1.
         13    1    3    3    0    0 -0.40701109726E+03 -0.55849350513E+03  0.78648206179E+03  0.10469608747E+04  0.10566000000E+00 0. -1.
         -4    1    3    3    0  501 -0.32356922748E+03  0.37489990668E+03  0.15657042158E+03  0.51938548489E+03  0.00000000000E+00 0. -1.
<mgrwt>
<rscale>  0 0.12495670E+04</rscale>
<asrwt>0</asrwt>
<pdfrwt beam="2">  1        4 0.34282871E+00 0.12484979E+04</pdfrwt>
<pdfrwt beam="1">  1       -4 0.22430869E+00 0.12506370E+04</pdfrwt>
<totfact> 0.65829515E-02</totfact>
</mgrwt>
</event>
<event>
 8    1  0.3025584E-006  0.1070777E+04  0.7818608E-02  0.8726706E-01
         -4   -1    0    0    0  501 -0.00000000000E+00  0.00000000000E+00  0.13824018335E+04  0.13824018335E+04  0.00000000000E+00 0. -1.
          4   -1    0    0  502    0  0.00000000000E+00 -0.00000000000E+00 -0.80550606311E+03  0.80550606311E+03  0.00000000000E+00 0.  1.
   -9000010    2    1    2    0  501 -0.92176904642E+02 -0.25069395822E+03  0.36886378534E+03  0.11325295450E+04  0.10369274979E+04 0.  0.
    9000010    2    1    2  502    0  0.92176904642E+02  0.25069395822E+03  0.20803198507E+03  0.10553783516E+04  0.99960097827E+03 0.  0.
        -13    1    4    4    0    0  0.36329214443E+03  0.17493470452E+03 -0.28075075531E+03  0.49132914713E+03  0.10566000000E+00 0.  1.
          4    1    4    4  502    0 -0.27111523979E+03  0.75759253693E+02  0.48878274038E+03  0.56404920446E+03  0.00000000000E+00 0.  1.
         13    1    3    3    0    0 -0.45715196371E+02 -0.38349089456E+03  0.68507249688E+03  0.78643466514E+03  0.10566000000E+00 0. -1.
         -4    1    3    3    0  501 -0.46461708270E+02  0.13279693635E+03 -0.31620871154E+03  0.34609487990E+03  0.00000000000E+00 0. -1.
<mgrwt>
<rscale>  0 0.10525695E+04</rscale>
<asrwt>0</asrwt>
<pdfrwt beam="2">  1        4 0.12392401E+00 0.10346720E+04</pdfrwt>
<pdfrwt beam="1">  1       -4 0.21267721E+00 0.10707767E+04</pdfrwt>
<totfact> 0.33657607E-01</totfact>
</mgrwt>
</event>
<event>
 8    1  0.3025584E-006  0.1364578E+04  0.7818608E-02  0.8493851E-01
         -4   -1    0    0    0  501 -0.00000000000E+00  0.00000000000E+00  0.23125062397E+04  0.23125062397E+04  0.00000000000E+00 0. -1.
          4   -1    0    0  502    0  0.00000000000E+00 -0.00000000000E+00 -0.15064995575E+04  0.15064995575E+04  0.00000000000E+00 0.  1.
   -9000010    2    1    2    0  501  0.10265353372E+03  0.91796713594E+03  0.17085373027E+04  0.21829630818E+04  0.99650724595E+03 0.  0.
    9000010    2    1    2  502    0 -0.10265353372E+03 -0.91796713594E+03 -0.90253062049E+03  0.16360427154E+04  0.10044266201E+04 0.  0.
        -13    1    4    4    0    0 -0.41118820861E+03 -0.19621625094E+03 -0.21559472556E+02  0.45611553586E+03  0.10566000000E+00 0.  1.
          4    1    4    4  502    0  0.30853467490E+03 -0.72175088500E+03 -0.88097114793E+03  0.11799271796E+04  0.00000000000E+00 0.  1.
         13    1    3    3    0    0  0.25841995164E+03 -0.10306312695E+03  0.15808542288E+03  0.31999045553E+03  0.10566000000E+00 0. -1.
         -4    1    3    3    0  501 -0.15576641792E+03  0.10210302629E+04  0.15504518798E+04  0.18629726263E+04  0.00000000000E+00 0. -1.
<mgrwt>
<rscale>  0 0.13616660E+04</rscale>
<asrwt>0</asrwt>
<pdfrwt beam="2">  1        4 0.23176916E+00 0.13645784E+04</pdfrwt>
<pdfrwt beam="1">  1       -4 0.35577019E+00 0.13587598E+04</pdfrwt>
<totfact> 0.56342483E-02</totfact>
</mgrwt>
</event>
<event>
 8    1  0.3025584E-006  0.1031978E+04  0.7818608E-02  0.8749377E-01
          4   -1    0    0  502    0  0.00000000000E+00  0.00000000000E+00  0.59425199984E+03  0.59425199984E+03  0.00000000000E+00 0.  1.
         -4   -1    0    0    0  501 -0.00000000000E+00 -0.00000000000E+00 -0.19217568420E+04  0.19217568420E+04  0.00000000000E+00 0. -1.
   -9000010    2    1    2    0  501  0.10002023628E+03  0.29324253573E+03 -0.31435168687E+03  0.10698211220E+04  0.97452809998E+03 0.  0.
    9000010    2    1    2  502    0 -0.10002023628E+03 -0.29324253573E+03 -0.10131531553E+04  0.14461877199E+04  0.98437003840E+03 0.  0.
        -13    1    4    4    0    0 -0.48116702800E+03 -0.38141001391E+03 -0.45333720774E+03  0.76322338973E+03  0.10566000000E+00 0.  1.
          4    1    4    4  502    0  0.38114679173E+03  0.88167478185E+02 -0.55981594760E+03  0.68296433013E+03  0.00000000000E+00 0.  1.
         13    1    3    3    0    0 -0.33641750257E+03 -0.14294695433E+03  0.23609275812E+02  0.36628947140E+03  0.10566000000E+00 0. -1.
         -4    1    3    3    0  501  0.43643773885E+03  0.43618949006E+03 -0.33796096268E+03  0.70353165062E+03  0.00000000000E+00 0. -1.
<mgrwt>
<rscale>  0 0.10272760E+04</rscale>
<asrwt>0</asrwt>
<pdfrwt beam="1">  1        4 0.91423385E-01 0.10319785E+04</pdfrwt>
<pdfrwt beam="2">  1       -4 0.29565490E+00 0.10225949E+04</pdfrwt>
<totfact> 0.36765361E-01</totfact>
</mgrwt>
</event>
<event>
 8    1  0.3025584E-006  0.1062801E+04  0.7818608E-02  0.8723336E-01
          4   -1    0    0  502    0  0.00000000000E+00  0.00000000000E+00  0.34122483676E+03  0.34122483676E+03  0.00000000000E+00 0.  1.
         -4   -1    0    0    0  501 -0.00000000000E+00 -0.00000000000E+00 -0.33500411110E+04  0.33500411110E+04  0.00000000000E+00 0. -1.
   -9000010    2    1    2    0  501  0.26474330382E+03 -0.94965494970E+02 -0.12290749457E+04  0.16248601040E+04  0.10249086171E+04 0.  0.
    9000010    2    1    2  502    0 -0.26474330382E+03  0.94965494970E+02 -0.17797413285E+04  0.20664058437E+04  0.10116553032E+04 0.  0.
        -13    1    4    4    0    0 -0.36717738654E+03 -0.36754586422E+03 -0.12614270651E+04  0.13642241192E+04  0.10566000000E+00 0.  1.
          4    1    4    4  502    0  0.10243408272E+03  0.46251135919E+03 -0.51831426336E+03  0.70218172455E+03  0.00000000000E+00 0.  1.
         13    1    3    3    0    0  0.37718659968E+03 -0.24900809820E+03 -0.13330900359E+04  0.14076234649E+04  0.10566000000E+00 0. -1.
         -4    1    3    3    0  501 -0.11244329586E+03  0.15404260323E+03  0.10401509018E+03  0.21723663913E+03  0.00000000000E+00 0. -1.
<mgrwt>
<rscale>  0 0.10563938E+04</rscale>
<asrwt>0</asrwt>
<pdfrwt beam="1">  1        4 0.52496129E-01 0.10500257E+04</pdfrwt>
<pdfrwt beam="2">  1       -4 0.51539094E+00 0.10628006E+04</pdfrwt>
<totfact> 0.16021792E-01</totfact>
</mgrwt>
</event>
<event>
 8    1  0.3025584E-006  0.1079541E+04  0.7818608E-02  0.8706727E-01
          4   -1    0    0  502    0  0.00000000000E+00  0.00000000000E+00  0.37304544930E+03  0.37304544930E+03  0.00000000000E+00 0.  1.
         -4   -1    0    0    0  501 -0.00000000000E+00 -0.00000000000E+00 -0.33494557411E+04  0.33494557411E+04  0.00000000000E+00 0. -1.
   -9000010    2    1    2    0  501 -0.12783175614E+03  0.42041188493E+03 -0.19902756635E+04  0.22603553863E+04  0.97720117940E+03 0.  0.
    9000010    2    1    2  502    0  0.12783175614E+03 -0.42041188493E+03 -0.98613462835E+03  0.14621458041E+04  0.98606375877E+03 0.  0.
        -13    1    4    4    0    0  0.13081375577E+03 -0.17913110833E+02 -0.10467964700E+04  0.10550905075E+04  0.10566000000E+00 0.  1.
          4    1    4    4  502    0 -0.29819996377E+01 -0.40249877409E+03  0.60661841643E+02  0.40705529661E+03  0.00000000000E+00 0.  1.
         13    1    3    3    0    0  0.35514590397E+03  0.18312141045E+03 -0.34030995377E+03  0.52485516085E+03  0.10566000000E+00 0. -1.
         -4    1    3    3    0  501 -0.48297766010E+03  0.23729047448E+03 -0.16499657097E+04  0.17355002255E+04  0.00000000000E+00 0. -1.
<mgrwt>
<rscale>  0 0.10754889E+04</rscale>
<asrwt>0</asrwt>
<pdfrwt beam="1">  1        4 0.57391607E-01 0.10795410E+04</pdfrwt>
<pdfrwt beam="2">  1       -4 0.51530089E+00 0.10714519E+04</pdfrwt>
<totfact> 0.13277854E-01</totfact>
</mgrwt>
</event>
<event>
 8    1  0.3025584E-006  0.1486600E+04  0.7818608E-02  0.8456100E-01
         -4   -1    0    0    0  501 -0.00000000000E+00  0.00000000000E+00  0.23109174899E+04  0.23109174899E+04  0.00000000000E+00 0. -1.
          4   -1    0    0  502    0  0.00000000000E+00 -0.00000000000E+00 -0.10660363924E+04  0.10660363924E+04  0.00000000000E+00 0.  1.
   -9000010    2    1    2    0  501  0.10708760875E+04 -0.22166827623E+03  0.13113920820E+04  0.18888663539E+04  0.80756082797E+03 0.  0.
    9000010    2    1    2  502    0 -0.10708760875E+04  0.22166827623E+03 -0.66510984499E+02  0.14880875284E+04  0.10070096135E+04 0.  0.
        -13    1    4    4    0    0 -0.54334674257E+03  0.61939119677E+03  0.14907308576E+01  0.82393772261E+03  0.10566000000E+00 0.  1.
          4    1    4    4  502    0 -0.52752934493E+03 -0.39772292054E+03 -0.68001715357E+02  0.66414980582E+03  0.00000000000E+00 0.  1.
         13    1    3    3    0    0  0.11622158572E+04 -0.57054931017E+02  0.10542183067E+04  0.15701519713E+04  0.10566000000E+00 0. -1.
         -4    1    3    3    0  501 -0.91339769700E+02 -0.16461334522E+03  0.25717377530E+03  0.31871438256E+03  0.00000000000E+00 0. -1.
<mgrwt>
<rscale>  0 0.14215972E+04</rscale>
<asrwt>0</asrwt>
<pdfrwt beam="2">  1        4 0.16400560E+00 0.14866004E+04</pdfrwt>
<pdfrwt beam="1">  1       -4 0.35552577E+00 0.13594362E+04</pdfrwt>
<totfact> 0.89818825E-02</totfact>
</mgrwt>
</event>
<event>
 8    1  0.3025584E-006  0.1561404E+04  0.7818608E-02  0.8384849E-01
         -4   -1    0    0    0  501 -0.00000000000E+00  0.00000000000E+00  0.15498348066E+04  0.15498348066E+04  0.00000000000E+00 0. -1.
          4   -1    0    0  502    0  0.00000000000E+00 -0.00000000000E+00 -0.16597485316E+04  0.16597485316E+04  0.00000000000E+00 0.  1.
   -9000010    2    1    2    0  501  0.32062173982E+03 -0.11375124187E+04  0.38102429175E+03  0.15728172758E+04  0.96531956852E+03 0.  0.
    9000010    2    1    2  502    0 -0.32062173982E+03  0.11375124187E+04 -0.49093801677E+03  0.16367660624E+04  0.10204166816E+04 0.  0.
        -13    1    4    4    0    0 -0.27909643567E+03 -0.11916243743E+03 -0.78016710768E+02  0.31333867495E+03  0.10566000000E+00 0.  1.
          4    1    4    4  502    0 -0.41525304150E+02  0.12566748562E+04 -0.41292130600E+03  0.13234273875E+04  0.00000000000E+00 0.  1.
         13    1    3    3    0    0 -0.33919511610E+03 -0.42878307239E+03  0.22849205432E+03  0.59255116235E+03  0.10566000000E+00 0. -1.
         -4    1    3    3    0  501  0.65981685592E+03 -0.70872934634E+03  0.15253223742E+03  0.98026611345E+03  0.00000000000E+00 0. -1.
<mgrwt>
<rscale>  0 0.15435838E+04</rscale>
<asrwt>0</asrwt>
<pdfrwt beam="2">  1        4 0.25534593E+00 0.15614042E+04</pdfrwt>
<pdfrwt beam="1">  1       -4 0.23843612E+00 0.15259668E+04</pdfrwt>
<totfact> 0.10239828E-01</totfact>
</mgrwt>
</event>
<event>
 8    1  0.3025584E-006  0.1181206E+04  0.7818608E-02  0.8623218E-01
         -4   -1    0    0    0  501 -0.00000000000E+00  0.00000000000E+00  0.93095237638E+03  0.93095237638E+03  0.00000000000E+00 0. -1.
          4   -1    0    0  502    0  0.00000000000E+00 -0.00000000000E+00 -0.36341864364E+04  0.36341864364E+04  0.00000000000E+00 0.  1.
   -9000010    2    1    2    0  501 -0.56354022889E+03  0.25309059733E+03  0.39983149703E+03  0.12470412599E+04  0.10067841069E+04 0.  0.
    9000010    2    1    2  502    0  0.56354022889E+03 -0.25309059733E+03 -0.31030655571E+04  0.33180975529E+04  0.99956144332E+03 0.  0.
        -13    1    4    4    0    0 -0.20258199965E+03 -0.24283799936E+03 -0.16006579724E+04  0.16315991285E+04  0.10566000000E+00 0.  1.
          4    1    4    4  502    0  0.76612222854E+03 -0.10252597973E+02 -0.15024075847E+04  0.16864984244E+04  0.00000000000E+00 0.  1.
         13    1    3    3    0    0  0.45047617324E+02 -0.27546327844E+03 -0.10239924246E+03  0.29731283460E+03  0.10566000000E+00 0. -1.
         -4    1    3    3    0  501 -0.60858784621E+03  0.52855387577E+03  0.50223073949E+03  0.94972842531E+03  0.00000000000E+00 0. -1.
<mgrwt>
<rscale>  0 0.11781266E+04</rscale>
<asrwt>0</asrwt>
<pdfrwt beam="2">  1        4 0.55910561E+00 0.11750555E+04</pdfrwt>
<pdfrwt beam="1">  1       -4 0.14322344E+00 0.11812056E+04</pdfrwt>
<totfact> 0.13819646E-02</totfact>
</mgrwt>
</event>
<event>
 8    1  0.3025584E-006  0.1215279E+04  0.7818608E-02  0.8597105E-01
          4   -1    0    0  502    0  0.00000000000E+00  0.00000000000E+00  0.17361145231E+04  0.17361145231E+04  0.00000000000E+00 0.  1.
         -4   -1    0    0    0  501 -0.00000000000E+00 -0.00000000000E+00 -0.10880907549E+04  0.10880907549E+04  0.00000000000E+00 0. -1.
   -9000010    2    1    2    0  501  0.18478878763E+03  0.67964745509E+03 -0.34122442903E+03  0.12571973109E+04  0.98389196989E+03 0.  0.
    9000010    2    1    2  502    0 -0.18478878763E+03 -0.67964745509E+03  0.98924819724E+03  0.15670079671E+04  0.99037084676E+03 0.  0.
        -13    1    4    4    0    0  0.12667778065E+03  0.21580852882E+03  0.32135263191E+03  0.40729363660E+03  0.10566000000E+00 0.  1.
          4    1    4    4  502    0 -0.31146656828E+03 -0.89545598391E+03  0.66789556533E+03  0.11597143305E+04  0.00000000000E+00 0.  1.
         13    1    3    3    0    0  0.12899149989E+03  0.92533772657E+03 -0.16253623181E+03  0.94831785445E+03  0.10566000000E+00 0. -1.
         -4    1    3    3    0  501  0.55797287744E+02 -0.24569027147E+03 -0.17868819722E+03  0.30887945649E+03  0.00000000000E+00 0. -1.
<mgrwt>
<rscale>  0 0.12126387E+04</rscale>
<asrwt>0</asrwt>
<pdfrwt beam="1">  1        4 0.26709454E+00 0.12152786E+04</pdfrwt>
<pdfrwt beam="2">  1       -4 0.16739858E+00 0.12100045E+04</pdfrwt>
<totfact> 0.15710961E-01</totfact>
</mgrwt>
</event>
<event>
 8    1  0.3025584E-006  0.1128335E+04  0.7818608E-02  0.8674433E-01
          4   -1    0    0  502    0  0.00000000000E+00  0.00000000000E+00  0.18945397028E+04  0.18945397028E+04  0.00000000000E+00 0.  1.
         -4   -1    0    0    0  501 -0.00000000000E+00 -0.00000000000E+00 -0.13214525109E+04  0.13214525109E+04  0.00000000000E+00 0. -1.
   -9000010    2    1    2    0  501 -0.91622633790E+02  0.46425112149E+03 -0.85722496107E+03  0.13941983629E+04  0.99248709327E+03 0.  0.
    9000010    2    1    2  502    0  0.91622633790E+02 -0.46425112149E+03  0.14303121529E+04  0.18217938508E+04  0.10243125350E+04 0.  0.
        -13    1    4    4    0    0 -0.23366429002E+03  0.22544293212E+03  0.67223098829E+03  0.74653735931E+03  0.10566000000E+00 0.  1.
          4    1    4    4  502    0  0.32528692381E+03 -0.68969405360E+03  0.75808116462E+03  0.10752564915E+04  0.00000000000E+00 0.  1.
         13    1    3    3    0    0  0.21439180938E+03  0.47435383265E+03 -0.94220651009E+03  0.10764425323E+04  0.10566000000E+00 0. -1.
         -4    1    3    3    0  501 -0.30601444317E+03 -0.10102711158E+02  0.84981549022E+02  0.31775583059E+03  0.00000000000E+00 0. -1.
<mgrwt>
<rscale>  0 0.11138367E+04</rscale>
<asrwt>0</asrwt>
<pdfrwt beam="1">  1        4 0.29146765E+00 0.11283350E+04</pdfrwt>
<pdfrwt beam="2">  1       -4 0.20330039E+00 0.10995246E+04</pdfrwt>
<totfact> 0.10533987E-01</totfact>
</mgrwt>
</event>
<event>
 8    1  0.3025584E-006  0.1054053E+04  0.7818608E-02  0.8733069E-01
         -4   -1    0    0    0  501 -0.00000000000E+00  0.00000000000E+00  0.19124356029E+04  0.19124356029E+04  0.00000000000E+00 0. -1.
          4   -1    0    0  502    0  0.00000000000E+00 -0.00000000000E+00 -0.22883242489E+04  0.22883242489E+04  0.00000000000E+00 0.  1.
   -9000010    2    1    2    0  501 -0.31774686404E+03 -0.24939372762E+03  0.16309518903E+04  0.19419144395E+04  0.97358477857E+03 0.  0.
    9000010    2    1    2  502    0  0.31774686404E+03  0.24939372762E+03 -0.20068405362E+04  0.22588454123E+04  0.95488918616E+03 0.  0.
        -13    1    4    4    0    0  0.41532848776E+03 -0.81395515137E+02 -0.30315231804E+03  0.52059996324E+03  0.10566000000E+00 0.  1.
          4    1    4    4  502    0 -0.97581623717E+02  0.33078924276E+03 -0.17036882182E+04  0.17382454491E+04  0.00000000000E+00 0.  1.
         13    1    3    3    0    0  0.20945086270E+03  0.11234470188E+03  0.10548116231E+04  0.10812578634E+04  0.10566000000E+00 0. -1.
         -4    1    3    3    0  501 -0.52719772674E+03 -0.36173842950E+03  0.57614026720E+03  0.86065657608E+03  0.00000000000E+00 0. -1.
<mgrwt>
<rscale>  0 0.10453956E+04</rscale>
<asrwt>0</asrwt>
<pdfrwt beam="2">  1        4 0.35204988E+00 0.10368094E+04</pdfrwt>
<pdfrwt beam="1">  1       -4 0.29422086E+00 0.10540530E+04</pdfrwt>
<totfact> 0.42309681E-02</totfact>
</mgrwt>
</event>
<event>
 8    1  0.3025584E-006  0.1190257E+04  0.7818608E-02  0.8623117E-01
          4   -1    0    0  502    0  0.00000000000E+00  0.00000000000E+00  0.14171481507E+04  0.14171481507E+04  0.00000000000E+00 0.  1.
         -4   -1    0    0    0  501 -0.00000000000E+00 -0.00000000000E+00 -0.27378282013E+04  0.27378282013E+04  0.00000000000E+00 0. -1.
   -9000010    2    1    2    0  501  0.41136183979E+03 -0.42543174624E+03 -0.23226920731E+04  0.25991036284E+04  0.10051022192E+04 0.  0.
    9000010    2    1    2  502    0 -0.41136183979E+03  0.42543174624E+03  0.10020120225E+04  0.15558727236E+04  0.10327154036E+04 0.  0.
        -13    1    4    4    0    0  0.33886896260E+03  0.24632415452E+03  0.35508981003E+03  0.54917806517E+03  0.10566000000E+00 0.  1.
          4    1    4    4  502    0 -0.75023080239E+03  0.17910759171E+03  0.64692221249E+03  0.10066946584E+04  0.00000000000E+00 0.  1.
         13    1    3    3    0    0  0.13165099441E+03 -0.69984286202E+03 -0.10598648148E+04  0.12768811428E+04  0.10566000000E+00 0. -1.
         -4    1    3    3    0  501  0.27971084538E+03  0.27441111578E+03 -0.12628272582E+04  0.13222224857E+04  0.00000000000E+00 0. -1.
<mgrwt>
<rscale>  0 0.11782578E+04</rscale>
<asrwt>0</asrwt>
<pdfrwt beam="1">  1        4 0.21802280E+00 0.11902570E+04</pdfrwt>
<pdfrwt beam="2">  1       -4 0.42120433E+00 0.11663795E+04</pdfrwt>
<totfact> 0.34741342E-02</totfact>
</mgrwt>
</event>
<event>
 8    1  0.3025584E-006  0.1265109E+04  0.7818608E-02  0.8563508E-01
         -4   -1    0    0    0  501 -0.00000000000E+00  0.00000000000E+00  0.16109120061E+04  0.16109120061E+04  0.00000000000E+00 0. -1.
          4   -1    0    0  502    0  0.00000000000E+00 -0.00000000000E+00 -0.19620227808E+04  0.19620227808E+04  0.00000000000E+00 0.  1.
   -9000010    2    1    2    0  501 -0.78233934166E+03 -0.27753731918E+02  0.10854434150E+04  0.16669397574E+04  0.99381871203E+03 0.  0.
    9000010    2    1    2  502    0  0.78233934166E+03  0.27753731918E+02 -0.14365541896E+04  0.19059950295E+04  0.97790796991E+03 0.  0.
        -13    1    4    4    0    0 -0.19988273568E+03  0.16062926446E+03 -0.22941568215E+03  0.34407329888E+03  0.10566000000E+00 0.  1.
          4    1    4    4  502    0  0.98222207733E+03 -0.13287553254E+03 -0.12071385075E+04  0.15619217306E+04  0.00000000000E+00 0.  1.
         13    1    3    3    0    0 -0.90552330025E+03 -0.62271737402E+02  0.43953542199E+03  0.10084848114E+04  0.10566000000E+00 0. -1.
         -4    1    3    3    0  501  0.12318395859E+03  0.34518005484E+02  0.64590799304E+03  0.65845494594E+03  0.00000000000E+00 0. -1.
<mgrwt>
<rscale>  0 0.12588635E+04</rscale>
<asrwt>0</asrwt>
<pdfrwt beam="2">  1        4 0.30184966E+00 0.12526488E+04</pdfrwt>
<pdfrwt beam="1">  1       -4 0.24783262E+00 0.12651090E+04</pdfrwt>
<totfact> 0.75448299E-02</totfact>
</mgrwt>
</event>
<event>
 8    1  0.3025584E-006  0.1028337E+04  0.7818608E-02  0.8749944E-01
          4   -1    0    0  502    0  0.00000000000E+00  0.00000000000E+00  0.25218491992E+04  0.25218491992E+04  0.00000000000E+00 0.  1.
         -4   -1    0    0    0  501 -0.00000000000E+00 -0.00000000000E+00 -0.12221901033E+04  0.12221901033E+04  0.00000000000E+00 0. -1.
   -9000010    2    1    2    0  501 -0.43769120060E+02  0.22574757874E+03 -0.86909575774E+03  0.13438362122E+04  0.99884464456E+03 0.  0.
    9000010    2    1    2  502    0  0.43769120060E+02 -0.22574757874E+03  0.21687548536E+04  0.24002030903E+04  0.10022971388E+04 0.  0.
        -13    1    4    4    0    0 -0.11032928502E+03 -0.26475753980E+03  0.22159105469E+04  0.22343967125E+04  0.10566000000E+00 0.  1.
          4    1    4    4  502    0  0.15409840508E+03  0.39009961061E+02 -0.47155693241E+02  0.16580637778E+03  0.00000000000E+00 0.  1.
         13    1    3    3    0    0 -0.38061908272E+03 -0.74213603207E+02 -0.27215056402E+02  0.38874055036E+03  0.10566000000E+00 0. -1.
         -4    1    3    3    0  501  0.33684996266E+03  0.29996118195E+03 -0.84188070133E+03  0.95509566186E+03  0.00000000000E+00 0. -1.
<mgrwt>
<rscale>  0 0.10266534E+04</rscale>
<asrwt>0</asrwt>
<pdfrwt beam="1">  1        4 0.38797680E+00 0.10283371E+04</pdfrwt>
<pdfrwt beam="2">  1       -4 0.18802925E+00 0.10249724E+04</pdfrwt>
<totfact> 0.58112003E-02</totfact>
</mgrwt>
</event>
<event>
 8    1  0.3025584E-006  0.1093657E+04  0.7818608E-02  0.8697092E-01
          4   -1    0    0  502    0  0.00000000000E+00  0.00000000000E+00  0.74375938817E+03  0.74375938817E+03  0.00000000000E+00 0.  1.
         -4   -1    0    0    0  501 -0.00000000000E+00 -0.00000000000E+00 -0.20487222980E+04  0.20487222980E+04  0.00000000000E+00 0. -1.
   -9000010    2    1    2    0  501  0.35493044395E+03  0.24272936769E+03 -0.13177924237E+04  0.17125019948E+04  0.10055809487E+04 0.  0.
    9000010    2    1    2  502    0 -0.35493044395E+03 -0.24272936769E+03  0.12829513887E+02  0.10799796913E+04  0.99060505313E+03 0.  0.
        -13    1    4    4    0    0 -0.19679484513E+03  0.37565359977E+03 -0.89842747984E+02  0.43349229361E+03  0.10566000000E+00 0.  1.
          4    1    4    4  502    0 -0.15813559882E+03 -0.61838296746E+03  0.10267226187E+03  0.64648739773E+03  0.00000000000E+00 0.  1.
         13    1    3    3    0    0  0.33025410546E+03  0.28663936585E+02 -0.14311366951E+04  0.14690274493E+04  0.10566000000E+00 0. -1.
         -4    1    3    3    0  501  0.24676338488E+02  0.21406543110E+03  0.11334427141E+03  0.24347454556E+03  0.00000000000E+00 0. -1.
<mgrwt>
<rscale>  0 0.10867586E+04</rscale>
<asrwt>0</asrwt>
<pdfrwt beam="1">  1        4 0.11442452E+00 0.10799035E+04</pdfrwt>
<pdfrwt beam="2">  1       -4 0.31518804E+00 0.10936573E+04</pdfrwt>
<totfact> 0.21286916E-01</totfact>
</mgrwt>
</event>
<event>
 8    1  0.3025584E-006  0.1227766E+04  0.7818608E-02  0.8615318E-01
          4   -1    0    0  502    0  0.00000000000E+00  0.00000000000E+00  0.78849547753E+03  0.78849547753E+03  0.00000000000E+00 0.  1.
         -4   -1    0    0    0  501 -0.00000000000E+00 -0.00000000000E+00 -0.33498891897E+04  0.33498891897E+04  0.00000000000E+00 0. -1.
   -9000010    2    1    2    0  501  0.25816589762E+03 -0.65809782436E+03 -0.26685554828E+04  0.29059506274E+04  0.90753419044E+03 0.  0.
    9000010    2    1    2  502    0 -0.25816589762E+03  0.65809782436E+03  0.10716177061E+03  0.12324340399E+04  0.10038264992E+04 0.  0.
        -13    1    4    4    0    0 -0.30903463731E+03  0.60538230774E+03  0.49302349084E+03  0.83967989095E+03  0.10566000000E+00 0.  1.
          4    1    4    4  502    0  0.50868739690E+02  0.52715516618E+02 -0.38586172023E+03  0.39275414894E+03  0.00000000000E+00 0.  1.
         13    1    3    3    0    0  0.12630598854E+03  0.21887947117E+03 -0.43973863994E+03  0.50717995648E+03  0.10566000000E+00 0. -1.
         -4    1    3    3    0  501  0.13185990907E+03 -0.87697729552E+03 -0.22288168429E+04  0.23987706709E+04  0.00000000000E+00 0. -1.
<mgrwt>
<rscale>  0 0.11884404E+04</rscale>
<asrwt>0</asrwt>
<pdfrwt beam="1">  1        4 0.12130700E+00 0.12277663E+04</pdfrwt>
<pdfrwt beam="2">  1       -4 0.51536756E+00 0.11503741E+04</pdfrwt>
<totfact> 0.29684183E-02</totfact>
</mgrwt>
</event>
<event>
 8    1  0.3025584E-006  0.1081909E+04  0.7818608E-02  0.8705851E-01
         -4   -1    0    0    0  501 -0.00000000000E+00  0.00000000000E+00  0.13028986343E+04  0.13028986343E+04  0.00000000000E+00 0. -1.
          4   -1    0    0  502    0  0.00000000000E+00 -0.00000000000E+00 -0.16805317007E+04  0.16805317007E+04  0.00000000000E+00 0.  1.
   -9000010    2    1    2    0  501  0.41490515884E+03 -0.14297644851E+03  0.83512612858E+03  0.13582186990E+04  0.97710481936E+03 0.  0.
    9000010    2    1    2  502    0 -0.41490515884E+03  0.14297644851E+03 -0.12127591950E+04  0.16252116360E+04  0.98890820655E+03 0.  0.
        -13    1    4    4    0    0 -0.48531126611E+03 -0.33925517856E+03 -0.61077354188E+03  0.85068527190E+03  0.10566000000E+00 0.  1.
          4    1    4    4  502    0  0.70406107269E+02  0.48223162707E+03 -0.60198565313E+03  0.77452636408E+03  0.00000000000E+00 0.  1.
         13    1    3    3    0    0  0.37769697381E+03 -0.55262810868E+02 -0.11862051197E+03  0.39972467939E+03  0.10566000000E+00 0. -1.
         -4    1    3    3    0  501  0.37208185027E+02 -0.87713637645E+02  0.95374664055E+03  0.95849401961E+03  0.00000000000E+00 0. -1.
<mgrwt>
<rscale>  0 0.10765069E+04</rscale>
<asrwt>0</asrwt>
<pdfrwt beam="2">  1        4 0.25854334E+00 0.10819094E+04</pdfrwt>
<pdfrwt beam="1">  1       -4 0.20044594E+00 0.10711314E+04</pdfrwt>
<totfact> 0.12961688E-01</totfact>
</mgrwt>
</event>
<event>
 8    1  0.3025584E-006  0.1133438E+04  0.7818608E-02  0.8695534E-01
         -4   -1    0    0    0  501 -0.00000000000E+00  0.00000000000E+00  0.65765932044E+03  0.65765932044E+03  0.00000000000E+00 0. -1.
          4   -1    0    0  502    0  0.00000000000E+00 -0.00000000000E+00 -0.25310149659E+04  0.25310149659E+04  0.00000000000E+00 0.  1.
   -9000010    2    1    2    0  501  0.25847181032E+03 -0.37769230819E+03 -0.56235003308E+02  0.10470370984E+04  0.94003465544E+03 0.  0.
    9000010    2    1    2  502    0 -0.25847181032E+03  0.37769230819E+03 -0.18171206422E+04  0.21416371880E+04  0.10369297277E+04 0.  0.
        -13    1    4    4    0    0  0.18605116960E+03  0.38105286567E+03 -0.20813772923E+03  0.47237448030E+03  0.10566000000E+00 0.  1.
          4    1    4    4  502    0 -0.44452297993E+03 -0.33605574825E+01 -0.16089829130E+04  0.16692627077E+04  0.00000000000E+00 0.  1.
         13    1    3    3    0    0  0.41348959046E+03 -0.51892729666E+02 -0.37872837995E+03  0.56311783292E+03  0.10566000000E+00 0. -1.
         -4    1    3    3    0  501 -0.15501778013E+03 -0.32579957853E+03  0.32249337664E+03  0.48391926548E+03  0.00000000000E+00 0. -1.
<mgrwt>
<rscale>  0 0.10885950E+04</rscale>
<asrwt>0</asrwt>
<pdfrwt beam="2">  1        4 0.38938692E+00 0.11334383E+04</pdfrwt>
<pdfrwt beam="1">  1       -4 0.10117836E+00 0.10455259E+04</pdfrwt>
<totfact> 0.15002997E-01</totfact>
</mgrwt>
</event>
<event>
 8    1  0.3025584E-006  0.1190527E+04  0.7818608E-02  0.8617355E-01
          4   -1    0    0  502    0  0.00000000000E+00  0.00000000000E+00  0.18609479718E+04  0.18609479718E+04  0.00000000000E+00 0.  1.
         -4   -1    0    0    0  501 -0.00000000000E+00 -0.00000000000E+00 -0.10283100405E+04  0.10283100405E+04  0.00000000000E+00 0. -1.
   -9000010    2    1    2    0  501 -0.60660770896E+03  0.30868402284E+03 -0.32889577163E+03  0.12259733740E+04  0.96518368544E+03 0.  0.
    9000010    2    1    2  502    0  0.60660770896E+03 -0.30868402284E+03  0.11615337029E+04  0.16632846383E+04  0.97677863742E+03 0.  0.
        -13    1    4    4    0    0 -0.22614977856E+03 -0.24560345411E+03  0.48342944058E+03  0.58751069283E+03  0.10566000000E+00 0.  1.
          4    1    4    4  502    0  0.83275748752E+03 -0.63080568726E+02  0.67810426230E+03  0.10757739455E+04  0.00000000000E+00 0.  1.
         13    1    3    3    0    0 -0.67507016261E+03  0.44773565479E+03 -0.53300895560E+03  0.96968319514E+03  0.10566000000E+00 0. -1.
         -4    1    3    3    0  501  0.68462453648E+02 -0.13905163195E+03  0.20411318398E+03  0.25629017886E+03  0.00000000000E+00 0. -1.
<mgrwt>
<rscale>  0 0.11857705E+04</rscale>
<asrwt>0</asrwt>
<pdfrwt beam="1">  1        4 0.28629969E+00 0.11905273E+04</pdfrwt>
<pdfrwt beam="2">  1       -4 0.15820155E+00 0.11810327E+04</pdfrwt>
<totfact> 0.15240171E-01</totfact>
</mgrwt>
</event>
<event>
 8    1  0.3025584E-006  0.1415272E+04  0.7818608E-02  0.8464882E-01
          4   -1    0    0  502    0  0.00000000000E+00  0.00000000000E+00  0.44087428753E+04  0.44087428753E+04  0.00000000000E+00 0.  1.
         -4   -1    0    0    0  501 -0.00000000000E+00 -0.00000000000E+00 -0.15348679591E+04  0.15348679591E+04  0.00000000000E+00 0. -1.
   -9000010    2    1    2    0  501 -0.79934571616E+03  0.58931158348E+03 -0.10646952075E+04  0.17584790134E+04  0.98611907969E+03 0.  0.
    9000010    2    1    2  502    0  0.79934571616E+03 -0.58931158348E+03  0.39385701237E+04  0.41851318210E+04  0.10083412238E+04 0.  0.
        -13    1    4    4    0    0  0.34498632930E+03 -0.21531111084E+02  0.25261632330E+03  0.42812868873E+03  0.10566000000E+00 0.  1.
          4    1    4    4  502    0  0.45435938685E+03 -0.56778047240E+03  0.36859538004E+04  0.37570031323E+04  0.00000000000E+00 0.  1.
         13    1    3    3    0    0 -0.40848103587E+03  0.90869859979E+02 -0.10439751940E+04  0.11247214344E+04  0.10566000000E+00 0. -1.
         -4    1    3    3    0  501 -0.39086468029E+03  0.49844172350E+03 -0.20720013527E+02  0.63375757903E+03  0.00000000000E+00 0. -1.
<mgrwt>
<rscale>  0 0.14073767E+04</rscale>
<asrwt>0</asrwt>
<pdfrwt beam="1">  1        4 0.67826813E+00 0.14152716E+04</pdfrwt>
<pdfrwt beam="2">  1       -4 0.23613353E+00 0.13995258E+04</pdfrwt>
<totfact> 0.15384937E-03</totfact>
</mgrwt>
</event>
<event>
 8    1  0.3025584E-006  0.1087586E+04  0.7818608E-02  0.8715735E-01
         -4   -1    0    0    0  501 -0.00000000000E+00  0.00000000000E+00  0.71684750017E+03  0.71684750017E+03  0.00000000000E+00 0. -1.
          4   -1    0    0  502    0  0.00000000000E+00 -0.00000000000E+00 -0.20447943744E+04  0.20447943744E+04  0.00000000000E+00 0.  1.
   -9000010    2    1    2    0  501 -0.34129914757E+03  0.19025882739E+03  0.27423316014E+01  0.10430444500E+04  0.96708359248E+03 0.  0.
    9000010    2    1    2  502    0  0.34129914757E+03 -0.19025882739E+03 -0.13306892059E+04  0.17185974246E+04  0.10149678889E+04 0.  0.
        -13    1    4    4    0    0  0.81231923751E+02 -0.48043874156E+03 -0.20725573542E+03  0.52950444838E+03  0.10566000000E+00 0.  1.
          4    1    4    4  502    0  0.26006722382E+03  0.29017991417E+03 -0.11234334704E+04  0.11890929762E+04  0.00000000000E+00 0.  1.
         13    1    3    3    0    0  0.27047844340E+03  0.28658248202E+03  0.12165544154E+03  0.41241746443E+03  0.10566000000E+00 0. -1.
         -4    1    3    3    0  501 -0.61177759098E+03 -0.96323654627E+02 -0.11891310994E+03  0.63062698561E+03  0.00000000000E+00 0. -1.
<mgrwt>
<rscale>  0 0.10650806E+04</rscale>
<asrwt>0</asrwt>
<pdfrwt beam="2">  1        4 0.31458375E+00 0.10875860E+04</pdfrwt>
<pdfrwt beam="1">  1       -4 0.11028423E+00 0.10430408E+04</pdfrwt>
<totfact> 0.22809560E-01</totfact>
</mgrwt>
</event>
<event>
 8    1  0.3025584E-006  0.1017055E+04  0.7818608E-02  0.8767411E-01
          4   -1    0    0  502    0  0.00000000000E+00  0.00000000000E+00  0.28422657617E+04  0.28422657617E+04  0.00000000000E+00 0.  1.
         -4   -1    0    0    0  501 -0.00000000000E+00 -0.00000000000E+00 -0.23587567134E+04  0.23587567134E+04  0.00000000000E+00 0. -1.
   -9000010    2    1    2    0  501 -0.30540835951E+00 -0.38311019601E+02 -0.21540447569E+04  0.23741708338E+04  0.99765249756E+03 0.  0.
    9000010    2    1    2  502    0  0.30540835951E+00  0.38311019601E+02  0.26375538052E+04  0.28268516413E+04  0.10163327699E+04 0.  0.
        -13    1    4    4    0    0 -0.83015925656E+02  0.24418859029E+03  0.95366500637E+02  0.27498089415E+03  0.10566000000E+00 0.  1.
          4    1    4    4  502    0  0.83321334016E+02 -0.20587757069E+03  0.25421873045E+04  0.25518707472E+04  0.00000000000E+00 0.  1.
         13    1    3    3    0    0 -0.41993580487E+03 -0.25153184907E+03 -0.14216627981E+04  0.15035755631E+04  0.10566000000E+00 0. -1.
         -4    1    3    3    0  501  0.41963039651E+03  0.21322082947E+03 -0.73238195879E+03  0.87059527070E+03  0.00000000000E+00 0. -1.
<mgrwt>
<rscale>  0 0.10076780E+04</rscale>
<asrwt>0</asrwt>
<pdfrwt beam="1">  1        4 0.43727165E+00 0.10170546E+04</pdfrwt>
<pdfrwt beam="2">  1       -4 0.36288565E+00 0.99838787E+03</pdfrwt>
<totfact> 0.12311209E-02</totfact>
</mgrwt>
</event>
<event>
 8    1  0.3025584E-006  0.1316590E+04  0.7818608E-02  0.8534691E-01
          4   -1    0    0  502    0  0.00000000000E+00  0.00000000000E+00  0.15783412775E+04  0.15783412775E+04  0.00000000000E+00 0.  1.
         -4   -1    0    0    0  501 -0.00000000000E+00 -0.00000000000E+00 -0.11517913420E+04  0.11517913420E+04  0.00000000000E+00 0. -1.
   -9000010    2    1    2    0  501 -0.68523573359E+03  0.46517453380E+03 -0.14514863915E+03  0.13245672001E+04  0.10234621550E+04 0.  0.
    9000010    2    1    2  502    0  0.68523573359E+03 -0.46517453380E+03  0.57169857459E+03  0.14055654194E+04  0.98124386905E+03 0.  0.
        -13    1    4    4    0    0  0.78042080237E+03 -0.58281879109E+02  0.60088557524E+03  0.98666959612E+03  0.10566000000E+00 0.  1.
          4    1    4    4  502    0 -0.95185068778E+02 -0.40689265469E+03 -0.29187000650E+02  0.41889582329E+03  0.00000000000E+00 0.  1.
         13    1    3    3    0    0 -0.95514153862E+02 -0.13983414788E+03  0.31858542688E+03  0.36079527143E+03  0.10566000000E+00 0. -1.
         -4    1    3    3    0  501 -0.58972157973E+03  0.60500868168E+03 -0.46373406603E+03  0.96377192868E+03  0.00000000000E+00 0. -1.
<mgrwt>
<rscale>  0 0.13002165E+04</rscale>
<asrwt>0</asrwt>
<pdfrwt beam="1">  1        4 0.24282174E+00 0.12840463E+04</pdfrwt>
<pdfrwt beam="2">  1       -4 0.17719867E+00 0.13165903E+04</pdfrwt>
<totfact> 0.16511383E-01</totfact>
</mgrwt>
</event>
<event>
 8    1  0.3025584E-006  0.1658664E+04  0.7818608E-02  0.8323671E-01
          4   -1    0    0  502    0  0.00000000000E+00  0.00000000000E+00  0.14037299920E+04  0.14037299920E+04  0.00000000000E+00 0.  1.
         -4   -1    0    0    0  501 -0.00000000000E+00 -0.00000000000E+00 -0.23808025262E+04  0.23808025262E+04  0.00000000000E+00 0. -1.
   -9000010    2    1    2    0  501 -0.33633840240E+03 -0.12731868741E+04 -0.12843874947E+04  0.20976392042E+04  0.10081223424E+04 0.  0.
    9000010    2    1    2  502    0  0.33633840240E+03  0.12731868741E+04  0.30731496057E+03  0.16868933140E+04  0.10084831335E+04 0.  0.
        -13    1    4    4    0    0  0.17248940605E+03  0.11064820675E+04 -0.19143059705E+03  0.11360901574E+04  0.10566000000E+00 0.  1.
          4    1    4    4  502    0  0.16384899634E+03  0.16670480651E+03  0.49874555762E+03  0.55080315663E+03  0.00000000000E+00 0.  1.
         13    1    3    3    0    0 -0.65311079089E+03 -0.75300311932E+03 -0.10424103017E+04  0.14422852184E+04  0.10566000000E+00 0. -1.
         -4    1    3    3    0  501  0.31677238849E+03 -0.52018375473E+03 -0.24197719299E+03  0.65535398582E+03  0.00000000000E+00 0. -1.
<mgrwt>
<rscale>  0 0.16585544E+04</rscale>
<asrwt>0</asrwt>
<pdfrwt beam="1">  1        4 0.21595846E+00 0.16586641E+04</pdfrwt>
<pdfrwt beam="2">  1       -4 0.36627731E+00 0.16584448E+04</pdfrwt>
<totfact> 0.55364935E-02</totfact>
</mgrwt>
</event>
<event>
 8    1  0.3025584E-006  0.1271857E+04  0.7818608E-02  0.8565401E-01
          4   -1    0    0  502    0  0.00000000000E+00  0.00000000000E+00  0.27538750302E+04  0.27538750302E+04  0.00000000000E+00 0.  1.
         -4   -1    0    0    0  501 -0.00000000000E+00 -0.00000000000E+00 -0.21250124529E+04  0.21250124529E+04  0.00000000000E+00 0. -1.
   -9000010    2    1    2    0  501  0.55360784952E+03  0.49394803280E+03 -0.17712665827E+04  0.21625956574E+04  0.99446888356E+03 0.  0.
    9000010    2    1    2  502    0 -0.55360784952E+03 -0.49394803280E+03  0.24001291599E+04  0.27162918257E+04  0.10330319394E+04 0.  0.
        -13    1    4    4    0    0  0.10240087672E+03 -0.22999248977E+03  0.43028771119E+02  0.25540941880E+03  0.10566000000E+00 0.  1.
          4    1    4    4  502    0 -0.65600872623E+03 -0.26395554303E+03  0.23571003888E+04  0.24608824069E+04  0.00000000000E+00 0.  1.
         13    1    3    3    0    0 -0.21239041299E+03  0.30797961038E+02 -0.46811106741E+02  0.21965767187E+03  0.10566000000E+00 0. -1.
         -4    1    3    3    0  501  0.76599826251E+03  0.46315007176E+03 -0.17244554759E+04  0.19429379855E+04  0.00000000000E+00 0. -1.
<mgrwt>
<rscale>  0 0.12562021E+04</rscale>
<asrwt>0</asrwt>
<pdfrwt beam="1">  1        4 0.42367308E+00 0.12718574E+04</pdfrwt>
<pdfrwt beam="2">  1       -4 0.32692499E+00 0.12407396E+04</pdfrwt>
<totfact> 0.17624172E-02</totfact>
</mgrwt>
</event>
<event>
 8    1  0.3025584E-006  0.1308844E+04  0.7818608E-02  0.8530304E-01
          4   -1    0    0  502    0  0.00000000000E+00  0.00000000000E+00  0.17562473307E+04  0.17562473307E+04  0.00000000000E+00 0. -1.
         -4   -1    0    0    0  501 -0.00000000000E+00 -0.00000000000E+00 -0.97724626354E+03  0.97724626354E+03  0.00000000000E+00 0.  1.
   -9000010    2    1    2    0  501  0.53373727162E+03 -0.64056555476E+03  0.29024346475E+03  0.13363694632E+04  0.10032160127E+04 0.  0.
    9000010    2    1    2  502    0 -0.53373727162E+03  0.64056555476E+03  0.48875760236E+03  0.13971241310E+04  0.10088964955E+04 0.  0.
        -13    1    4    4    0    0 -0.67376911506E+03  0.97665785514E+02  0.48594538950E+03  0.83644865880E+03  0.10566000000E+00 0.  1.
          4    1    4    4  502    0  0.14003184344E+03  0.54289976925E+03  0.28122128595E+01  0.56067547223E+03  0.00000000000E+00 0.  1.
         13    1    3    3    0    0  0.36257629907E+03 -0.56695900507E+03 -0.28564371622E+03  0.73109262742E+03  0.10566000000E+00 0. -1.
         -4    1    3    3    0  501  0.17116097255E+03 -0.73606549685E+02  0.57588718097E+03  0.60527683574E+03  0.00000000000E+00 0. -1.
<mgrwt>
<rscale>  0 0.13066550E+04</rscale>
<asrwt>0</asrwt>
<pdfrwt beam="1">  1        4 0.27019190E+00 0.13088437E+04</pdfrwt>
<pdfrwt beam="2">  1       -4 0.15034558E+00 0.13044700E+04</pdfrwt>
<totfact> 0.17943814E-01</totfact>
</mgrwt>
</event>
<event>
 8    1  0.3025584E-006  0.1248597E+04  0.7818608E-02  0.8598141E-01
          4   -1    0    0  502    0  0.00000000000E+00  0.00000000000E+00  0.16041264151E+04  0.16041264151E+04  0.00000000000E+00 0.  1.
         -4   -1    0    0    0  501 -0.00000000000E+00 -0.00000000000E+00 -0.26760720214E+04  0.26760720214E+04  0.00000000000E+00 0. -1.
   -9000010    2    1    2    0  501 -0.42163251976E+03  0.62288987675E+03 -0.22771466868E+04  0.25969964417E+04  0.99660810003E+03 0.  0.
    9000010    2    1    2  502    0  0.42163251976E+03 -0.62288987675E+03  0.12052010804E+04  0.16832019948E+04  0.90271453444E+03 0.  0.
        -13    1    4    4    0    0  0.14849907580E+03 -0.47208723319E+03  0.62679054630E+02  0.49884567384E+03  0.10566000000E+00 0.  1.
          4    1    4    4  502    0  0.27313344396E+03 -0.15080264356E+03  0.11425220258E+04  0.11843563209E+04  0.00000000000E+00 0.  1.
         13    1    3    3    0    0 -0.34058868561E+03 -0.21195911294E+03 -0.59925756430E+03  0.72113588031E+03  0.10566000000E+00 0. -1.
         -4    1    3    3    0  501 -0.81043834155E+02  0.83484898970E+03 -0.16778891225E+04  0.18758605614E+04  0.00000000000E+00 0. -1.
<mgrwt>
<rscale>  0 0.12112470E+04</rscale>
<asrwt>0</asrwt>
<pdfrwt beam="1">  1        4 0.24678868E+00 0.11750146E+04</pdfrwt>
<pdfrwt beam="2">  1       -4 0.41170339E+00 0.12485966E+04</pdfrwt>
<totfact> 0.32119880E-02</totfact>
</mgrwt>
</event>
<event>
 8    1  0.3025584E-006  0.1127193E+04  0.7818608E-02  0.8669736E-01
         -4   -1    0    0    0  501 -0.00000000000E+00  0.00000000000E+00  0.14617120045E+04  0.14617120045E+04  0.00000000000E+00 0. -1.
          4   -1    0    0  502    0  0.00000000000E+00 -0.00000000000E+00 -0.11780055259E+04  0.11780055259E+04  0.00000000000E+00 0.  1.
   -9000010    2    1    2    0  501  0.48639880319E+03  0.54838508435E+02  0.83096581349E+03  0.14003816189E+04  0.10153686216E+04 0.  0.
    9000010    2    1    2  502    0 -0.48639880319E+03 -0.54838508435E+02 -0.54725933488E+03  0.12393359115E+04  0.99843360525E+03 0.  0.
        -13    1    4    4    0    0 -0.30628950432E+03 -0.43464631209E+03 -0.61562383753E+03  0.81346382683E+03  0.10566000000E+00 0.  1.
          4    1    4    4  502    0 -0.18010929887E+03  0.37980780365E+03  0.68364502643E+02  0.42587208464E+03  0.00000000000E+00 0.  1.
         13    1    3    3    0    0  0.72690053354E+03 -0.13792981205E+03  0.32539398557E+03  0.80826374143E+03  0.10566000000E+00 0. -1.
         -4    1    3    3    0  501 -0.24050173035E+03  0.19276832048E+03  0.50557182792E+03  0.59211787751E+03  0.00000000000E+00 0. -1.
<mgrwt>
<rscale>  0 0.11195520E+04</rscale>
<asrwt>0</asrwt>
<pdfrwt beam="2">  1        4 0.18123162E+00 0.11119626E+04</pdfrwt>
<pdfrwt beam="1">  1       -4 0.22487877E+00 0.11271932E+04</pdfrwt>
<totfact> 0.17822390E-01</totfact>
</mgrwt>
</event>
<event>
 8    1  0.3025584E-006  0.1196085E+04  0.7818608E-02  0.8609851E-01
          4   -1    0    0  502    0  0.00000000000E+00  0.00000000000E+00  0.21607345065E+04  0.21607345065E+04  0.00000000000E+00 0.  1.
         -4   -1    0    0    0  501 -0.00000000000E+00 -0.00000000000E+00 -0.80655866136E+03  0.80655866136E+03  0.00000000000E+00 0. -1.
   -9000010    2    1    2    0  501 -0.59272244911E+03  0.28730901441E+03  0.47925174561E+02  0.11961605756E+04  0.99731485941E+03 0.  0.
    9000010    2    1    2  502    0  0.59272244911E+03 -0.28730901441E+03  0.13062506705E+04  0.17711325922E+04  0.99837541714E+03 0.  0.
        -13    1    4    4    0    0  0.54386075648E+03  0.27553051391E+03  0.84396933921E+03  0.10411464082E+04  0.10566000000E+00 0.  1.
          4    1    4    4  502    0  0.48861692629E+02 -0.56283952832E+03  0.46228133133E+03  0.72998618407E+03  0.00000000000E+00 0.  1.
         13    1    3    3    0    0 -0.14724870058E+03  0.13917112702E+03 -0.46113133683E+03  0.50367936566E+03  0.10566000000E+00 0. -1.
         -4    1    3    3    0  501 -0.44547374853E+03  0.14813788739E+03  0.50905651139E+03  0.69248120993E+03  0.00000000000E+00 0. -1.
<mgrwt>
<rscale>  0 0.11956426E+04</rscale>
<asrwt>0</asrwt>
<pdfrwt beam="1">  1        4 0.33242069E+00 0.11960852E+04</pdfrwt>
<pdfrwt beam="2">  1       -4 0.12408595E+00 0.11952001E+04</pdfrwt>
<totfact> 0.16474309E-01</totfact>
</mgrwt>
</event>
<event>
 8    1  0.3025584E-006  0.1187790E+04  0.7818608E-02  0.8620568E-01
          4   -1    0    0  502    0  0.00000000000E+00  0.00000000000E+00  0.24466258519E+04  0.24466258519E+04  0.00000000000E+00 0.  1.
         -4   -1    0    0    0  501 -0.00000000000E+00 -0.00000000000E+00 -0.12325101758E+04  0.12325101758E+04  0.00000000000E+00 0. -1.
   -9000010    2    1    2    0  501  0.43022039258E+03  0.44152080555E+03 -0.74245589456E+03  0.13902462496E+04  0.10007565494E+04 0.  0.
    9000010    2    1    2  502    0 -0.43022039258E+03 -0.44152080555E+03  0.19565715707E+04  0.22888897781E+04  0.10152900556E+04 0.  0.
        -13    1    4    4    0    0 -0.59599194192E+03 -0.62320853141E+03  0.11000173737E+04  0.13977244014E+04  0.10566000000E+00 0.  1.
          4    1    4    4  502    0  0.16577154934E+03  0.18168772586E+03  0.85655419695E+03  0.89116537669E+03  0.00000000000E+00 0.  1.
         13    1    3    3    0    0  0.42508723918E+03 -0.21255027460E+03 -0.12656872376E+03  0.49182967900E+03  0.10566000000E+00 0. -1.
         -4    1    3    3    0  501  0.51331534032E+01  0.65407108015E+03 -0.61588717080E+03  0.89841657059E+03  0.00000000000E+00 0. -1.
<mgrwt>
<rscale>  0 0.11815740E+04</rscale>
<asrwt>0</asrwt>
<pdfrwt beam="1">  1        4 0.37640398E+00 0.11877896E+04</pdfrwt>
<pdfrwt beam="2">  1       -4 0.18961695E+00 0.11753909E+04</pdfrwt>
<totfact> 0.62543543E-02</totfact>
</mgrwt>
</event>
<event>
 8    1  0.3025584E-006  0.1200427E+04  0.7818608E-02  0.8614935E-01
          4   -1    0    0  502    0  0.00000000000E+00  0.00000000000E+00  0.13471717544E+04  0.13471717544E+04  0.00000000000E+00 0.  1.
         -4   -1    0    0    0  501 -0.00000000000E+00 -0.00000000000E+00 -0.10731215696E+04  0.10731215696E+04  0.00000000000E+00 0. -1.
   -9000010    2    1    2    0  501 -0.62417291475E+03 -0.54342509439E+01 -0.41617098395E+02  0.12011482145E+04  0.10253797792E+04 0.  0.
    9000010    2    1    2  502    0  0.62417291475E+03  0.54342509439E+01  0.31566728320E+03  0.12191451095E+04  0.99852271174E+03 0.  0.
        -13    1    4    4    0    0  0.66189545373E+03 -0.67881505694E+02 -0.20168583250E+03  0.69526302697E+03  0.10566000000E+00 0.  1.
          4    1    4    4  502    0 -0.37722538980E+02  0.73315756637E+02  0.51735311570E+03  0.52388208257E+03  0.00000000000E+00 0.  1.
         13    1    3    3    0    0 -0.27587006225E+03 -0.20043391624E+03  0.45208099600E+03  0.56626432356E+03  0.10566000000E+00 0. -1.
         -4    1    3    3    0  501 -0.34830285249E+03  0.19499966530E+03 -0.49369809440E+03  0.63488389091E+03  0.00000000000E+00 0. -1.
<mgrwt>
<rscale>  0 0.11889431E+04</rscale>
<asrwt>0</asrwt>
<pdfrwt beam="1">  1        4 0.20725719E+00 0.11775691E+04</pdfrwt>
<pdfrwt beam="2">  1       -4 0.16509563E+00 0.12004270E+04</pdfrwt>
<totfact> 0.22472470E-01</totfact>
</mgrwt>
</event>
<event>
 8    1  0.3025584E-006  0.1077643E+04  0.7818608E-02  0.8705569E-01
         -4   -1    0    0    0  501 -0.00000000000E+00  0.00000000000E+00  0.85532521057E+03  0.85532521057E+03  0.00000000000E+00 0. -1.
          4   -1    0    0  502    0  0.00000000000E+00 -0.00000000000E+00 -0.13843990963E+04  0.13843990963E+04  0.00000000000E+00 0.  1.
   -9000010    2    1    2    0  501  0.35268175794E+03 -0.17107057228E+03 -0.10313983247E+03  0.10809597601E+04  0.10020911210E+04 0.  0.
    9000010    2    1    2  502    0 -0.35268175794E+03  0.17107057228E+03 -0.42593405324E+03  0.11587645468E+04  0.10038256293E+04 0.  0.
        -13    1    4    4    0    0 -0.11520354511E+03  0.57108564319E+03 -0.37015490559E+03  0.69023570899E+03  0.10566000000E+00 0.  1.
          4    1    4    4  502    0 -0.23747821283E+03 -0.40001507091E+03 -0.55779147649E+02  0.46852883779E+03  0.00000000000E+00 0.  1.
         13    1    3    3    0    0  0.63200265036E+03 -0.26272534979E+03 -0.27819407301E+03  0.73881250186E+03  0.10566000000E+00 0. -1.
         -4    1    3    3    0  501 -0.27932089241E+03  0.91654777506E+02  0.17505424053E+03  0.34214725822E+03  0.00000000000E+00 0. -1.
<mgrwt>
<rscale>  0 0.10768354E+04</rscale>
<asrwt>0</asrwt>
<pdfrwt beam="2">  1        4 0.21298448E+00 0.10776435E+04</pdfrwt>
<pdfrwt beam="1">  1       -4 0.13158849E+00 0.10760280E+04</pdfrwt>
<totfact> 0.30482763E-01</totfact>
</mgrwt>
</event>
<event>
 8    1  0.3025584E-006  0.1213225E+04  0.7818608E-02  0.8608910E-01
          4   -1    0    0  502    0  0.00000000000E+00  0.00000000000E+00  0.12945581234E+04  0.12945581234E+04  0.00000000000E+00 0.  1.
         -4   -1    0    0    0  501 -0.00000000000E+00 -0.00000000000E+00 -0.12859217525E+04  0.12859217525E+04  0.00000000000E+00 0. -1.
   -9000010    2    1    2    0  501  0.67940331023E+03  0.44700091303E+02 -0.47715443250E+03  0.13036839219E+04  0.10041555953E+04 0.  0.
    9000010    2    1    2  502    0 -0.67940331023E+03 -0.44700091303E+02  0.48579080339E+03  0.12767959541E+04  0.96469075235E+03 0.  0.
        -13    1    4    4    0    0 -0.10082551776E+03  0.38470263673E+02  0.65850434070E+03  0.66728833656E+03  0.10566000000E+00 0.  1.
          4    1    4    4  502    0 -0.57857779247E+03 -0.83170354976E+02 -0.17271353731E+03  0.60950761755E+03  0.00000000000E+00 0.  1.
         13    1    3    3    0    0  0.83599366726E+03 -0.22512683867E+03 -0.48352276408E+03  0.99164599517E+03  0.10566000000E+00 0. -1.
         -4    1    3    3    0  501 -0.15659035704E+03  0.26982692997E+03  0.63683315726E+01  0.31203792670E+03  0.00000000000E+00 0. -1.
<mgrwt>
<rscale>  0 0.11968870E+04</rscale>
<asrwt>0</asrwt>
<pdfrwt beam="1">  1        4 0.19916279E+00 0.11807689E+04</pdfrwt>
<pdfrwt beam="2">  1       -4 0.19783412E+00 0.12132252E+04</pdfrwt>
<totfact> 0.18484813E-01</totfact>
</mgrwt>
</event>
<event>
 8    1  0.3025584E-006  0.1322230E+04  0.7818608E-02  0.8595521E-01
          4   -1    0    0  502    0  0.00000000000E+00  0.00000000000E+00  0.16133742384E+04  0.16133742384E+04  0.00000000000E+00 0.  1.
         -4   -1    0    0    0  501 -0.00000000000E+00 -0.00000000000E+00 -0.17973255228E+04  0.17973255228E+04  0.00000000000E+00 0. -1.
   -9000010    2    1    2    0  501  0.72577225998E+03  0.32665393903E+02 -0.12844016395E+04  0.18433607217E+04  0.11047528128E+04 0.  0.
    9000010    2    1    2  502    0 -0.72577225998E+03 -0.32665393903E+02  0.11004503551E+04  0.15673390395E+04  0.84720025926E+03 0.  0.
        -13    1    4    4    0    0 -0.69514670296E+03  0.24600487711E+03  0.10491025616E+04  0.12823273896E+04  0.10566000000E+00 0.  1.
          4    1    4    4  502    0 -0.30625557021E+02 -0.27867027101E+03  0.51347793563E+02  0.28501164992E+03  0.00000000000E+00 0.  1.
         13    1    3    3    0    0 -0.25934949410E+03 -0.17456038045E+03 -0.35799516613E+03  0.47528311210E+03  0.10566000000E+00 0. -1.
         -4    1    3    3    0  501  0.98512175408E+03  0.20722577435E+03 -0.92640647338E+03  0.13680776096E+04  0.00000000000E+00 0. -1.
<mgrwt>
<rscale>  0 0.12147717E+04</rscale>
<asrwt>0</asrwt>
<pdfrwt beam="1">  1        4 0.24821142E+00 0.11160469E+04</pdfrwt>
<pdfrwt beam="2">  1       -4 0.27651162E+00 0.13222296E+04</pdfrwt>
<totfact> 0.88166561E-02</totfact>
</mgrwt>
</event>
<event>
 8    1  0.3025584E-006  0.1577260E+04  0.7818608E-02  0.8369387E-01
         -4   -1    0    0    0  501 -0.00000000000E+00  0.00000000000E+00  0.12003852313E+04  0.12003852313E+04  0.00000000000E+00 0. -1.
          4   -1    0    0  502    0  0.00000000000E+00 -0.00000000000E+00 -0.26896910093E+04  0.26896910093E+04  0.00000000000E+00 0.  1.
   -9000010    2    1    2    0  501  0.79082006144E+03 -0.90599366997E+03  0.19599945775E+03  0.15893913076E+04  0.10205528119E+04 0.  0.
    9000010    2    1    2  502    0 -0.79082006144E+03  0.90599366997E+03 -0.16853052357E+04  0.23006849330E+04  0.10033327084E+04 0.  0.
        -13    1    4    4    0    0  0.19435051668E+03 -0.16793058216E+01 -0.39760848878E+03  0.44256916399E+03  0.10566000000E+00 0.  1.
          4    1    4    4  502    0 -0.98517057812E+03  0.90767297579E+03 -0.12876967469E+04  0.18581157690E+04  0.00000000000E+00 0.  1.
         13    1    3    3    0    0  0.88146973612E+03 -0.31702925096E+03 -0.64658807921E+02  0.93897668462E+03  0.10566000000E+00 0. -1.
         -4    1    3    3    0  501 -0.90649674680E+02 -0.58896441902E+03  0.26065826567E+03  0.65041462303E+03  0.00000000000E+00 0. -1.
<mgrwt>
<rscale>  0 0.15717066E+04</rscale>
<asrwt>0</asrwt>
<pdfrwt beam="2">  1        4 0.41379862E+00 0.15661729E+04</pdfrwt>
<pdfrwt beam="1">  1       -4 0.18467465E+00 0.15772599E+04</pdfrwt>
<totfact> 0.44671362E-02</totfact>
</mgrwt>
</event>
<event>
 8    1  0.3025584E-006  0.1197204E+04  0.7818608E-02  0.8655953E-01
         -4   -1    0    0    0  501 -0.00000000000E+00  0.00000000000E+00  0.32231209375E+04  0.32231209375E+04  0.00000000000E+00 0. -1.
          4   -1    0    0  502    0  0.00000000000E+00 -0.00000000000E+00 -0.75015692705E+03  0.75015692705E+03  0.00000000000E+00 0.  1.
   -9000010    2    1    2    0  501  0.45727139918E+03  0.57527115915E+02  0.25547976841E+04  0.27732800892E+04  0.97554330763E+03 0.  0.
    9000010    2    1    2  502    0 -0.45727139918E+03 -0.57527115915E+02 -0.81833673646E+02  0.11999977753E+04  0.11049395500E+04 0.  0.
        -13    1    4    4    0    0  0.14830169258E+03  0.36774464614E+03  0.15092198063E+03  0.42427228544E+03  0.10566000000E+00 0.  1.
          4    1    4    4  502    0 -0.60557309176E+03 -0.42527176206E+03 -0.23275565428E+03  0.77572548989E+03  0.00000000000E+00 0.  1.
         13    1    3    3    0    0 -0.56402260748E+02  0.32681910753E+03  0.30722981208E+03  0.45208639955E+03  0.10566000000E+00 0. -1.
         -4    1    3    3    0  501  0.51367365992E+03 -0.26929199162E+03  0.22475678720E+04  0.23211936896E+04  0.00000000000E+00 0. -1.
<mgrwt>
<rscale>  0 0.11365299E+04</rscale>
<asrwt>0</asrwt>
<pdfrwt beam="2">  1        4 0.11540876E+00 0.11972042E+04</pdfrwt>
<pdfrwt beam="1">  1       -4 0.49586475E+00 0.10789306E+04</pdfrwt>
<totfact> 0.40123040E-02</totfact>
</mgrwt>
</event>
<event>
 8    1  0.3025584E-006  0.1095972E+04  0.7818608E-02  0.8709807E-01
         -4   -1    0    0    0  501 -0.00000000000E+00  0.00000000000E+00  0.19063054386E+04  0.19063054386E+04  0.00000000000E+00 0. -1.
          4   -1    0    0  502    0  0.00000000000E+00 -0.00000000000E+00 -0.62720716462E+03  0.62720716462E+03  0.00000000000E+00 0.  1.
   -9000010    2    1    2    0  501  0.36918015415E+03 -0.81201898753E+02  0.87452685709E+03  0.13652523668E+04  0.97786965736E+03 0.  0.
    9000010    2    1    2  502    0 -0.36918015415E+03  0.81201898753E+02  0.40457141688E+03  0.11682602364E+04  0.10287206686E+04 0.  0.
        -13    1    4    4    0    0 -0.22425885623E+03 -0.20181003381E+03 -0.28116231485E+03  0.41239736032E+03  0.10566000000E+00 0.  1.
          4    1    4    4  502    0 -0.14492129791E+03  0.28301193257E+03  0.68573373172E+03  0.75586287605E+03  0.00000000000E+00 0.  1.
         13    1    3    3    0    0  0.18392999965E+03 -0.30859548014E+03 -0.78829932478E+02  0.36779829330E+03  0.10566000000E+00 0. -1.
         -4    1    3    3    0  501  0.18525015450E+03  0.22739358139E+03  0.95335678957E+03  0.99745407354E+03  0.00000000000E+00 0. -1.
<mgrwt>
<rscale>  0 0.10719157E+04</rscale>
<asrwt>0</asrwt>
<pdfrwt beam="2">  1        4 0.96493411E-01 0.10959717E+04</pdfrwt>
<pdfrwt beam="1">  1       -4 0.29327776E+00 0.10483877E+04</pdfrwt>
<totfact> 0.33553305E-01</totfact>
</mgrwt>
</event>
<event>
 8    1  0.3025584E-006  0.1328265E+04  0.7818608E-02  0.8517934E-01
         -4   -1    0    0    0  501 -0.00000000000E+00  0.00000000000E+00  0.56730635290E+03  0.56730635290E+03  0.00000000000E+00 0. -1.
          4   -1    0    0  502    0  0.00000000000E+00 -0.00000000000E+00 -0.46449549775E+04  0.46449549775E+04  0.00000000000E+00 0.  1.
   -9000010    2    1    2    0  501 -0.71269261452E+03  0.48688893661E+03 -0.52994145509E+03  0.14240541932E+04  0.10010498489E+04 0.  0.
    9000010    2    1    2  502    0  0.71269261452E+03 -0.48688893661E+03 -0.35477071695E+04  0.37882071372E+04  0.10096016811E+04 0.  0.
        -13    1    4    4    0    0  0.42050297493E+03  0.47812057810E+02 -0.40089773811E+03  0.58294746966E+03  0.10566000000E+00 0.  1.
          4    1    4    4  502    0  0.29218963958E+03 -0.53470099442E+03 -0.31468094314E+04  0.32052596676E+04  0.00000000000E+00 0.  1.
         13    1    3    3    0    0 -0.43546600999E+03  0.72433510318E+03 -0.61989076402E+03  0.10481204883E+04  0.10566000000E+00 0. -1.
         -4    1    3    3    0  501 -0.27722660453E+03 -0.23744616657E+03  0.89949308927E+02  0.37593370487E+03  0.00000000000E+00 0. -1.
<mgrwt>
<rscale>  0 0.13250165E+04</rscale>
<asrwt>0</asrwt>
<pdfrwt beam="2">  1        4 0.71460849E+00 0.13282647E+04</pdfrwt>
<pdfrwt beam="1">  1       -4 0.87277897E-01 0.13217762E+04</pdfrwt>
<totfact> 0.52563565E-03</totfact>
</mgrwt>
</event>
<event>
 8    1  0.3025584E-006  0.1400828E+04  0.7818608E-02  0.8478691E-01
          4   -1    0    0  502    0  0.00000000000E+00  0.00000000000E+00  0.14283918726E+04  0.14283918726E+04  0.00000000000E+00 0.  1.
         -4   -1    0    0    0  501 -0.00000000000E+00 -0.00000000000E+00 -0.20471622395E+04  0.20471622395E+04  0.00000000000E+00 0. -1.
   -9000010    2    1    2    0  501 -0.90590199475E+03  0.27748356090E+03 -0.13302147085E+04  0.19317843348E+04  0.10318255641E+04 0.  0.
    9000010    2    1    2  502    0  0.90590199475E+03 -0.27748356090E+03  0.71144434160E+03  0.15437697773E+04  0.98965474960E+03 0.  0.
        -13    1    4    4    0    0  0.43463147690E+03  0.21301766186E+03 -0.90272527265E+02  0.49237199892E+03  0.10566000000E+00 0.  1.
          4    1    4    4  502    0  0.47127051786E+03 -0.49050122277E+03  0.80171686887E+03  0.10513977784E+04  0.00000000000E+00 0.  1.
         13    1    3    3    0    0 -0.45907820613E+03  0.60890738304E+03 -0.10792468845E+04  0.13214744982E+04  0.10566000000E+00 0. -1.
         -4    1    3    3    0  501 -0.44682378862E+03 -0.33142382213E+03 -0.25096782396E+03  0.61030983658E+03  0.00000000000E+00 0. -1.
<mgrwt>
<rscale>  0 0.13853601E+04</rscale>
<asrwt>0</asrwt>
<pdfrwt beam="1">  1        4 0.21975260E+00 0.13700628E+04</pdfrwt>
<pdfrwt beam="2">  1       -4 0.31494804E+00 0.14008282E+04</pdfrwt>
<totfact> 0.80592396E-02</totfact>
</mgrwt>
</event>
<event>
 8    1  0.3025584E-006  0.1093397E+04  0.7818608E-02  0.8692070E-01
         -4   -1    0    0    0  501 -0.00000000000E+00  0.00000000000E+00  0.56338399457E+03  0.56338399457E+03  0.00000000000E+00 0. -1.
          4   -1    0    0  502    0  0.00000000000E+00 -0.00000000000E+00 -0.30855426103E+04  0.30855426103E+04  0.00000000000E+00 0.  1.
   -9000010    2    1    2    0  501  0.35539819785E+03  0.20743361614E+03 -0.24066325171E+03  0.11195693383E+04  0.10130054879E+04 0.  0.
    9000010    2    1    2  502    0 -0.35539819785E+03 -0.20743361614E+03 -0.22814953641E+04  0.25293572666E+04  0.10114793629E+04 0.  0.
        -13    1    4    4    0    0 -0.21382847792E+03 -0.43162467890E+03 -0.21997837004E+04  0.22519038215E+04  0.10566000000E+00 0.  1.
          4    1    4    4  502    0 -0.14156971993E+03  0.22419106276E+03 -0.81711663650E+02  0.27745344510E+03  0.00000000000E+00 0.  1.
         13    1    3    3    0    0  0.51406224285E+03 -0.22831618324E+03 -0.32292892354E+03  0.64859183612E+03  0.10566000000E+00 0. -1.
         -4    1    3    3    0  501 -0.15866404500E+03  0.43574979939E+03  0.82265671829E+02  0.47097750223E+03  0.00000000000E+00 0. -1.
<mgrwt>
<rscale>  0 0.10926898E+04</rscale>
<asrwt>0</asrwt>
<pdfrwt beam="2">  1        4 0.47469885E+00 0.10919831E+04</pdfrwt>
<pdfrwt beam="1">  1       -4 0.86674462E-01 0.10933969E+04</pdfrwt>
<totfact> 0.86491344E-02</totfact>
</mgrwt>
</event>
<event>
 8    1  0.3025584E-006  0.1031899E+04  0.7818608E-02  0.8749245E-01
         -4   -1    0    0    0  501 -0.00000000000E+00  0.00000000000E+00  0.15919101300E+04  0.15919101300E+04  0.00000000000E+00 0. -1.
          4   -1    0    0  502    0  0.00000000000E+00 -0.00000000000E+00 -0.17081161023E+04  0.17081161023E+04  0.00000000000E+00 0.  1.
   -9000010    2    1    2    0  501 -0.13335049900E+03 -0.17832582317E+02  0.12323818552E+04  0.16073522897E+04  0.10230913887E+04 0.  0.
    9000010    2    1    2  502    0  0.13335049900E+03  0.17832582317E+02 -0.13485878275E+04  0.16926739425E+04  0.10140786905E+04 0.  0.
        -13    1    4    4    0    0  0.51007053398E+03 -0.24258388568E+03 -0.76044333258E+03  0.94725549059E+03  0.10566000000E+00 0.  1.
          4    1    4    4  502    0 -0.37672003498E+03  0.26041646799E+03 -0.58814449496E+03  0.74541845195E+03  0.00000000000E+00 0.  1.
         13    1    3    3    0    0  0.24657585370E+03 -0.26349358343E+02 -0.64258684366E+02  0.25617011925E+03  0.10566000000E+00 0. -1.
         -4    1    3    3    0  501 -0.37992635270E+03  0.85167760259E+01  0.12966405396E+04  0.13511821705E+04  0.00000000000E+00 0. -1.
<mgrwt>
<rscale>  0 0.10274221E+04</rscale>
<asrwt>0</asrwt>
<pdfrwt beam="2">  1        4 0.26278709E+00 0.10229643E+04</pdfrwt>
<pdfrwt beam="1">  1       -4 0.24490925E+00 0.10318994E+04</pdfrwt>
<totfact> 0.98354339E-02</totfact>
</mgrwt>
</event>
<event>
 8    1  0.3025584E-006  0.1004396E+04  0.7818608E-02  0.8822815E-01
          4   -1    0    0  502    0  0.00000000000E+00  0.00000000000E+00  0.13294308540E+04  0.13294308540E+04  0.00000000000E+00 0.  1.
         -4   -1    0    0    0  501 -0.00000000000E+00 -0.00000000000E+00 -0.29198759646E+04  0.29198759646E+04  0.00000000000E+00 0. -1.
   -9000010    2    1    2    0  501 -0.17997406998E+03  0.15179995980E+02 -0.26651797598E+04  0.28481564126E+04  0.98802363355E+03 0.  0.
    9000010    2    1    2  502    0  0.17997406998E+03 -0.15179995980E+02  0.10747346492E+04  0.14011504060E+04  0.88065134751E+03 0.  0.
        -13    1    4    4    0    0  0.26818799157E+03  0.39245025068E+03  0.65638417433E+03  0.81042099773E+03  0.10566000000E+00 0.  1.
          4    1    4    4  502    0 -0.88213921586E+02 -0.40763024666E+03  0.41835047482E+03  0.59072940823E+03  0.00000000000E+00 0.  1.
         13    1    3    3    0    0  0.35349278003E+03  0.19578392934E+03 -0.15078913285E+04  0.15610972943E+04  0.10566000000E+00 0. -1.
         -4    1    3    3    0  501 -0.53346685001E+03 -0.18060393336E+03 -0.11572884313E+04  0.12870591183E+04  0.00000000000E+00 0. -1.
<mgrwt>
<rscale>  0 0.95022825E+03</rscale>
<asrwt>0</asrwt>
<pdfrwt beam="1">  1        4 0.20452782E+00 0.89898159E+03</pdfrwt>
<pdfrwt beam="2">  1       -4 0.44921169E+00 0.10043962E+04</pdfrwt>
<totfact> 0.28983680E-02</totfact>
</mgrwt>
</event>
<event>
 8    1  0.3025584E-006  0.2185766E+04  0.7818608E-02  0.8099631E-01
          4   -1    0    0  502    0  0.00000000000E+00  0.00000000000E+00  0.24313646349E+04  0.24313646349E+04  0.00000000000E+00 0. -1.
         -4   -1    0    0    0  501 -0.00000000000E+00 -0.00000000000E+00 -0.30021251314E+04  0.30021251314E+04  0.00000000000E+00 0.  1.
   -9000010    2    1    2    0  501  0.19400846656E+04 -0.59303811510E+02 -0.18938901223E+04  0.28921261238E+04  0.10050513762E+04 0.  0.
    9000010    2    1    2  502    0 -0.19400846656E+04  0.59303811510E+02  0.13231296258E+04  0.25413636426E+04  0.96974826899E+03 0.  0.
        -13    1    4    4    0    0 -0.25139680539E+02 -0.87867894757E+01 -0.13241568693E+03  0.13506715558E+03  0.10566000000E+00 0.  1.
          4    1    4    4  502    0 -0.19149449851E+04  0.68090600986E+02  0.14555453127E+04  0.24062964870E+04  0.00000000000E+00 0.  1.
         13    1    3    3    0    0  0.11883661795E+04  0.58809076420E+02 -0.47316399586E+03  0.12804518195E+04  0.10566000000E+00 0. -1.
         -4    1    3    3    0  501  0.75171848617E+03 -0.11811288793E+03 -0.14207261264E+04  0.16116743043E+04  0.00000000000E+00 0. -1.
<mgrwt>
<rscale>  0 0.21777482E+04</rscale>
<asrwt>0</asrwt>
<pdfrwt beam="1">  1        4 0.37405610E+00 0.21697597E+04</pdfrwt>
<pdfrwt beam="2">  1       -4 0.46186541E+00 0.21857662E+04</pdfrwt>
<totfact> 0.73226184E-03</totfact>
</mgrwt>
</event>
<event>
 8    1  0.3025584E-006  0.1469341E+04  0.7818608E-02  0.8428319E-01
          4   -1    0    0  502    0  0.00000000000E+00  0.00000000000E+00  0.17761667748E+04  0.17761667748E+04  0.00000000000E+00 0.  1.
         -4   -1    0    0    0  501 -0.00000000000E+00 -0.00000000000E+00 -0.31161643127E+04  0.31161643127E+04  0.00000000000E+00 0. -1.
   -9000010    2    1    2    0  501 -0.77560380518E+03 -0.73766388341E+03 -0.25820352343E+04  0.29708362410E+04  0.10066045658E+04 0.  0.
    9000010    2    1    2  502    0  0.77560380518E+03  0.73766388341E+03  0.12420376965E+04  0.19214948465E+04  0.10018859907E+04 0.  0.
        -13    1    4    4    0    0  0.77258765602E+03  0.15921536845E+03  0.36093371028E+03  0.86747586373E+03  0.10566000000E+00 0.  1.
          4    1    4    4  502    0  0.30161491644E+01  0.57844851496E+03  0.88110398617E+03  0.10540189828E+04  0.00000000000E+00 0.  1.
         13    1    3    3    0    0 -0.13015628220E+03 -0.20278950381E+03 -0.18265108761E+04  0.18423371658E+04  0.10566000000E+00 0. -1.
         -4    1    3    3    0  501 -0.64544752298E+03 -0.53487437959E+03 -0.75552435819E+03  0.11284990752E+04  0.00000000000E+00 0. -1.
<mgrwt>
<rscale>  0 0.14677255E+04</rscale>
<asrwt>0</asrwt>
<pdfrwt beam="1">  1        4 0.27325643E+00 0.14661121E+04</pdfrwt>
<pdfrwt beam="2">  1       -4 0.47940989E+00 0.14693407E+04</pdfrwt>
<totfact> 0.13273788E-02</totfact>
</mgrwt>
</event>
<event>
 8    1  0.3025584E-006  0.1089173E+04  0.7818608E-02  0.8710495E-01
          4   -1    0    0  502    0  0.00000000000E+00  0.00000000000E+00  0.16008076698E+04  0.16008076698E+04  0.00000000000E+00 0.  1.
         -4   -1    0    0    0  501 -0.00000000000E+00 -0.00000000000E+00 -0.19604990940E+04  0.19604990940E+04  0.00000000000E+00 0. -1.
   -9000010    2    1    2    0  501 -0.37618445328E+03  0.86906528447E+02 -0.15968708331E+04  0.19130013094E+04  0.98005615366E+03 0.  0.
    9000010    2    1    2  502    0  0.37618445328E+03 -0.86906528447E+02  0.12371794090E+04  0.16483054545E+04  0.10184451354E+04 0.  0.
        -13    1    4    4    0    0  0.26575486759E+03  0.10807310996E+03  0.13619447534E+04  0.13918329531E+04  0.10566000000E+00 0.  1.
          4    1    4    4  502    0  0.11042958569E+03 -0.19497963840E+03 -0.12476534447E+03  0.25647250139E+03  0.00000000000E+00 0.  1.
         13    1    3    3    0    0 -0.15591798287E+03 -0.10578520484E+02 -0.16573083537E+04  0.16646601194E+04  0.10566000000E+00 0. -1.
         -4    1    3    3    0  501 -0.22026647041E+03  0.97485048932E+02  0.60437520602E+02  0.24834118999E+03  0.00000000000E+00 0. -1.
<mgrwt>
<rscale>  0 0.10711193E+04</rscale>
<asrwt>0</asrwt>
<pdfrwt beam="1">  1        4 0.24627810E+00 0.10891731E+04</pdfrwt>
<pdfrwt beam="2">  1       -4 0.30161524E+00 0.10533649E+04</pdfrwt>
<totfact> 0.77551165E-02</totfact>
</mgrwt>
</event>
<event>
 8    1  0.3025584E-006  0.1006555E+04  0.7818608E-02  0.8769657E-01
          4   -1    0    0  502    0  0.00000000000E+00  0.00000000000E+00  0.10200654964E+04  0.10200654964E+04  0.00000000000E+00 0.  1.
         -4   -1    0    0    0  501 -0.00000000000E+00 -0.00000000000E+00 -0.19249055469E+04  0.19249055469E+04  0.00000000000E+00 0. -1.
   -9000010    2    1    2    0  501  0.77603022083E+02 -0.14838829800E+03 -0.14779401874E+04  0.17866974629E+04  0.98991884029E+03 0.  0.
    9000010    2    1    2  502    0 -0.77603022083E+02  0.14838829800E+03  0.57310013687E+03  0.11582735805E+04  0.99252838969E+03 0.  0.
        -13    1    4    4    0    0  0.34182951292E+03  0.35705701196E+03  0.12469960512E+03  0.50979125961E+03  0.10566000000E+00 0.  1.
          4    1    4    4  502    0 -0.41943253501E+03 -0.20866871396E+03  0.44840053175E+03  0.64848232087E+03  0.00000000000E+00 0.  1.
         13    1    3    3    0    0  0.22046176811E+03  0.32435016585E+03 -0.25496747730E+03  0.46777649249E+03  0.10566000000E+00 0. -1.
         -4    1    3    3    0  501 -0.14285874603E+03 -0.47273846385E+03 -0.12229727101E+04  0.13189209704E+04  0.00000000000E+00 0. -1.
<mgrwt>
<rscale>  0 0.10052681E+04</rscale>
<asrwt>0</asrwt>
<pdfrwt beam="1">  1        4 0.15693316E+00 0.10065555E+04</pdfrwt>
<pdfrwt beam="2">  1       -4 0.29613931E+00 0.10039824E+04</pdfrwt>
<totfact> 0.14676663E-01</totfact>
</mgrwt>
</event>
<event>
 8    1  0.3025584E-006  0.1088047E+04  0.7818608E-02  0.8703145E-01
          4   -1    0    0  502    0  0.00000000000E+00  0.00000000000E+00  0.16725239488E+04  0.16725239488E+04  0.00000000000E+00 0.  1.
         -4   -1    0    0    0  501 -0.00000000000E+00 -0.00000000000E+00 -0.13399121539E+04  0.13399121539E+04  0.00000000000E+00 0. -1.
   -9000010    2    1    2    0  501  0.24045527934E+03  0.33773216420E+03 -0.87635248670E+03  0.13970825773E+04  0.10059643585E+04 0.  0.
    9000010    2    1    2  502    0 -0.24045527934E+03 -0.33773216420E+03  0.12089642816E+04  0.16153535254E+04  0.98787176389E+03 0.  0.
        -13    1    4    4    0    0  0.19232045850E+02 -0.28518712506E+03 -0.82093102645E+02  0.29739007474E+03  0.10566000000E+00 0.  1.
          4    1    4    4  502    0 -0.25968732519E+03 -0.52545039146E+02  0.12910573842E+04  0.13179634507E+04  0.00000000000E+00 0.  1.
         13    1    3    3    0    0  0.18750624680E+03  0.69470392377E+03 -0.65945753941E+03  0.97604118342E+03  0.10566000000E+00 0. -1.
         -4    1    3    3    0  501  0.52949032537E+02 -0.35697175956E+03 -0.21689494728E+03  0.42104139384E+03  0.00000000000E+00 0. -1.
<mgrwt>
<rscale>  0 0.10796618E+04</rscale>
<asrwt>0</asrwt>
<pdfrwt beam="1">  1        4 0.25731138E+00 0.10713414E+04</pdfrwt>
<pdfrwt beam="2">  1       -4 0.20614033E+00 0.10880469E+04</pdfrwt>
<totfact> 0.12585036E-01</totfact>
</mgrwt>
</event>
<event>
 8    1  0.3025584E-006  0.1538149E+04  0.7818608E-02  0.8389804E-01
          4   -1    0    0  502    0  0.00000000000E+00  0.00000000000E+00  0.16691991450E+04  0.16691991450E+04  0.00000000000E+00 0.  1.
         -4   -1    0    0    0  501 -0.00000000000E+00 -0.00000000000E+00 -0.15058612280E+04  0.15058612280E+04  0.00000000000E+00 0. -1.
   -9000010    2    1    2    0  501 -0.53748286652E+03  0.10365797551E+04 -0.31685343143E+03  0.15636991432E+04  0.99064296953E+03 0.  0.
    9000010    2    1    2  502    0  0.53748286652E+03 -0.10365797551E+04  0.48019134841E+03  0.16113612298E+04  0.10012571404E+04 0.  0.
        -13    1    4    4    0    0  0.49876438833E+03  0.36871612524E+00  0.12046493380E+03  0.51310609279E+03  0.10566000000E+00 0.  1.
          4    1    4    4  502    0  0.38718478192E+02 -0.10369484712E+04  0.35972641461E+03  0.10982551370E+04  0.00000000000E+00 0.  1.
         13    1    3    3    0    0 -0.66667196327E+03  0.10748861362E+04 -0.51264948780E+02  0.12658830193E+04  0.10566000000E+00 0. -1.
         -4    1    3    3    0  501  0.12918909675E+03 -0.38306381124E+02 -0.26558848265E+03  0.29781612393E+03  0.00000000000E+00 0. -1.
<mgrwt>
<rscale>  0 0.15347007E+04</rscale>
<asrwt>0</asrwt>
<pdfrwt beam="1">  1        4 0.25679987E+00 0.15381487E+04</pdfrwt>
<pdfrwt beam="2">  1       -4 0.23167096E+00 0.15312606E+04</pdfrwt>
<totfact> 0.10557140E-01</totfact>
</mgrwt>
</event>
<event>
 8    1  0.3025584E-006  0.1059975E+04  0.7818608E-02  0.8727699E-01
         -4   -1    0    0    0  501 -0.00000000000E+00  0.00000000000E+00  0.19572380349E+04  0.19572380349E+04  0.00000000000E+00 0. -1.
          4   -1    0    0  502    0  0.00000000000E+00 -0.00000000000E+00 -0.10769388619E+04  0.10769388619E+04  0.00000000000E+00 0.  1.
   -9000010    2    1    2    0  501  0.37566987911E+03  0.76272005066E+02  0.14843678839E+04  0.18141583187E+04  0.96998820290E+03 0.  0.
    9000010    2    1    2  502    0 -0.37566987911E+03 -0.76272005066E+02 -0.60406871089E+03  0.12200185781E+04  0.98823127187E+03 0.  0.
        -13    1    4    4    0    0 -0.71042485647E+03 -0.86174482189E+02 -0.33374149588E+03  0.78962833998E+03  0.10566000000E+00 0.  1.
          4    1    4    4  502    0  0.33475497736E+03  0.99024771227E+01 -0.27032721501E+03  0.43039023815E+03  0.00000000000E+00 0.  1.
         13    1    3    3    0    0  0.45169921874E+03  0.15581836820E+03  0.18854808877E+03  0.51367493711E+03  0.10566000000E+00 0. -1.
         -4    1    3    3    0  501 -0.76029339631E+02 -0.79546363130E+02  0.12958197951E+04  0.13004833816E+04  0.00000000000E+00 0. -1.
<mgrwt>
<rscale>  0 0.10514467E+04</rscale>
<asrwt>0</asrwt>
<pdfrwt beam="2">  1        4 0.16568290E+00 0.10599747E+04</pdfrwt>
<pdfrwt beam="1">  1       -4 0.30111354E+00 0.10429872E+04</pdfrwt>
<totfact> 0.13146345E-01</totfact>
</mgrwt>
</event>
<event>
 8    1  0.3025584E-006  0.1040597E+04  0.7818608E-02  0.8738005E-01
         -4   -1    0    0    0  501 -0.00000000000E+00  0.00000000000E+00  0.13712110997E+04  0.13712110997E+04  0.00000000000E+00 0. -1.
          4   -1    0    0  502    0  0.00000000000E+00 -0.00000000000E+00 -0.13519676991E+04  0.13519676991E+04  0.00000000000E+00 0.  1.
   -9000010    2    1    2    0  501 -0.27700928138E+03 -0.12069779808E+03  0.88856718310E+03  0.13683546776E+04  0.99576140943E+03 0.  0.
    9000010    2    1    2  502    0  0.27700928138E+03  0.12069779808E+03 -0.86932378251E+03  0.13548241211E+04  0.99424466804E+03 0.  0.
        -13    1    4    4    0    0 -0.26373583740E+03  0.51259332465E+02 -0.75008636166E+03  0.79675195149E+03  0.10566000000E+00 0.  1.
          4    1    4    4  502    0  0.54074511878E+03  0.69438465615E+02 -0.11923742086E+03  0.55807216964E+03  0.00000000000E+00 0.  1.
         13    1    3    3    0    0 -0.53303624756E+03  0.23456752757E+03  0.37149802178E+03  0.69076794769E+03  0.10566000000E+00 0. -1.
         -4    1    3    3    0  501  0.25602696618E+03 -0.35526532565E+03  0.51706916132E+03  0.67758672995E+03  0.00000000000E+00 0. -1.
<mgrwt>
<rscale>  0 0.10398715E+04</rscale>
<asrwt>0</asrwt>
<pdfrwt beam="2">  1        4 0.20799503E+00 0.10391461E+04</pdfrwt>
<pdfrwt beam="1">  1       -4 0.21095555E+00 0.10405974E+04</pdfrwt>
<totfact> 0.16188061E-01</totfact>
</mgrwt>
</event>
<event>
 8    1  0.3025584E-006  0.1281623E+04  0.7818608E-02  0.8549362E-01
         -4   -1    0    0    0  501 -0.00000000000E+00  0.00000000000E+00  0.12355392098E+04  0.12355392098E+04  0.00000000000E+00 0. -1.
          4   -1    0    0  502    0  0.00000000000E+00 -0.00000000000E+00 -0.16095521984E+04  0.16095521984E+04  0.00000000000E+00 0.  1.
   -9000010    2    1    2    0  501  0.78893123984E+03  0.10935065704E+03  0.41194137364E+03  0.13461991644E+04  0.10040848707E+04 0.  0.
    9000010    2    1    2  502    0 -0.78893123984E+03 -0.10935065704E+03 -0.78595436219E+03  0.14988922437E+04  0.99728813865E+03 0.  0.
        -13    1    4    4    0    0 -0.43824589865E+03  0.43630659180E+03 -0.47387671544E+03  0.77909053539E+03  0.10566000000E+00 0.  1.
          4    1    4    4  502    0 -0.35068534119E+03 -0.54565724884E+03 -0.31207764675E+03  0.71980170834E+03  0.00000000000E+00 0.  1.
         13    1    3    3    0    0  0.84745340181E+03 -0.21537657782E+03  0.49657403634E+03  0.10055596070E+04  0.10566000000E+00 0. -1.
         -4    1    3    3    0  501 -0.58522161972E+02  0.32472723486E+03 -0.84632662693E+02  0.34063955744E+03  0.00000000000E+00 0. -1.
<mgrwt>
<rscale>  0 0.12789609E+04</rscale>
<asrwt>0</asrwt>
<pdfrwt beam="2">  1        4 0.24762342E+00 0.12763047E+04</pdfrwt>
<pdfrwt beam="1">  1       -4 0.19008296E+00 0.12816226E+04</pdfrwt>
<totfact> 0.14611630E-01</totfact>
</mgrwt>
</event>
<event>
 8    1  0.3025584E-006  0.1040132E+04  0.7818608E-02  0.8749960E-01
          4   -1    0    0  502    0  0.00000000000E+00  0.00000000000E+00  0.79711112987E+03  0.79711112987E+03  0.00000000000E+00 0.  1.
         -4   -1    0    0    0  501 -0.00000000000E+00 -0.00000000000E+00 -0.17274006979E+04  0.17274006979E+04  0.00000000000E+00 0. -1.
   -9000010    2    1    2    0  501  0.21907184392E+03  0.74570175932E+01 -0.10808904764E+04  0.15000660011E+04  0.10167721995E+04 0.  0.
    9000010    2    1    2  502    0 -0.21907184392E+03 -0.74570175932E+01  0.15060090835E+03  0.10244458267E+04  0.98932327292E+03 0.  0.
        -13    1    4    4    0    0  0.12384394058E+02  0.44810066501E+03  0.23564221750E+03  0.50643345568E+03  0.10566000000E+00 0.  1.
          4    1    4    4  502    0 -0.23145623798E+03 -0.45555768260E+03 -0.85041309154E+02  0.51801237103E+03  0.00000000000E+00 0.  1.
         13    1    3    3    0    0  0.17479814468E+03 -0.46419451273E+03 -0.82241027392E+03  0.96041116551E+03  0.10566000000E+00 0. -1.
         -4    1    3    3    0  501  0.44273699237E+02  0.47165153032E+03 -0.25848020251E+03  0.53965483560E+03  0.00000000000E+00 0. -1.
<mgrwt>
<rscale>  0 0.10266361E+04</rscale>
<asrwt>0</asrwt>
<pdfrwt beam="1">  1        4 0.12263248E+00 0.10133157E+04</pdfrwt>
<pdfrwt beam="2">  1       -4 0.26575395E+00 0.10401316E+04</pdfrwt>
<totfact> 0.25531596E-01</totfact>
</mgrwt>
</event>
<event>
 8    1  0.3025584E-006  0.1384466E+04  0.7818608E-02  0.8483713E-01
          4   -1    0    0  502    0  0.00000000000E+00  0.00000000000E+00  0.20932381306E+04  0.20932381306E+04  0.00000000000E+00 0.  1.
         -4   -1    0    0    0  501 -0.00000000000E+00 -0.00000000000E+00 -0.21643376960E+04  0.21643376960E+04  0.00000000000E+00 0. -1.
   -9000010    2    1    2    0  501  0.14469047621E+03 -0.94101555486E+03 -0.16585071553E+04  0.21604147515E+04  0.10051369588E+04 0.  0.
    9000010    2    1    2  502    0 -0.14469047621E+03  0.94101555486E+03  0.15874075900E+04  0.20971610751E+04  0.98578705089E+03 0.  0.
        -13    1    4    4    0    0  0.41355854707E+03  0.40491546866E+03  0.84848529042E+03  0.10270903114E+04  0.10566000000E+00 0.  1.
          4    1    4    4  502    0 -0.55824902328E+03  0.53610008621E+03  0.73892229955E+03  0.10700707636E+04  0.00000000000E+00 0.  1.
         13    1    3    3    0    0 -0.85184648626E+02 -0.79270691882E+03 -0.17056790063E+04  0.18828121433E+04  0.10566000000E+00 0. -1.
         -4    1    3    3    0  501  0.22987512484E+03 -0.14830863604E+03  0.47171850972E+02  0.27760260818E+03  0.00000000000E+00 0. -1.
<mgrwt>
<rscale>  0 0.13774564E+04</rscale>
<asrwt>0</asrwt>
<pdfrwt beam="1">  1        4 0.32203664E+00 0.13704823E+04</pdfrwt>
<pdfrwt beam="2">  1       -4 0.33297503E+00 0.13844659E+04</pdfrwt>
<totfact> 0.39038296E-02</totfact>
</mgrwt>
</event>
<event>
 8    1  0.3025584E-006  0.1149310E+04  0.7818608E-02  0.8652122E-01
         -4   -1    0    0    0  501 -0.00000000000E+00  0.00000000000E+00  0.16492819185E+04  0.16492819185E+04  0.00000000000E+00 0. -1.
          4   -1    0    0  502    0  0.00000000000E+00 -0.00000000000E+00 -0.11242172201E+04  0.11242172201E+04  0.00000000000E+00 0.  1.
   -9000010    2    1    2    0  501 -0.49383782317E+03 -0.28530805593E+03  0.10201219938E+04  0.15367377425E+04  0.99781637819E+03 0.  0.
    9000010    2    1    2  502    0  0.49383782317E+03  0.28530805593E+03 -0.49505729532E+03  0.12367613962E+04  0.97939805135E+03 0.  0.
        -13    1    4    4    0    0 -0.21940923342E+03 -0.16084240644E+03 -0.22545093498E+03  0.35332538356E+03  0.10566000000E+00 0.  1.
          4    1    4    4  502    0  0.71324705659E+03  0.44615046237E+03 -0.26960636035E+03  0.88343601259E+03  0.00000000000E+00 0.  1.
         13    1    3    3    0    0 -0.76598909496E+03 -0.88205111328E+02  0.88704545178E+03  0.11753165871E+04  0.10566000000E+00 0. -1.
         -4    1    3    3    0  501  0.27215127179E+03 -0.19710294461E+03  0.13307654198E+03  0.36142115535E+03  0.00000000000E+00 0. -1.
<mgrwt>
<rscale>  0 0.11413055E+04</rscale>
<asrwt>0</asrwt>
<pdfrwt beam="2">  1        4 0.17295649E+00 0.11333565E+04</pdfrwt>
<pdfrwt beam="1">  1       -4 0.25373568E+00 0.11493102E+04</pdfrwt>
<totfact> 0.16177946E-01</totfact>
</mgrwt>
</event>
<event>
 8    1  0.3025584E-006  0.1161101E+04  0.7818608E-02  0.8641227E-01
          4   -1    0    0  502    0  0.00000000000E+00  0.00000000000E+00  0.77873548242E+03  0.77873548242E+03  0.00000000000E+00 0.  1.
         -4   -1    0    0    0  501 -0.00000000000E+00 -0.00000000000E+00 -0.31286016934E+04  0.31286016934E+04  0.00000000000E+00 0. -1.
   -9000010    2    1    2    0  501 -0.42300947873E+03 -0.38898928993E+03 -0.24856200896E+04  0.27383270094E+04  0.99492607461E+03 0.  0.
    9000010    2    1    2  502    0  0.42300947873E+03  0.38898928993E+03  0.13575387864E+03  0.11690101664E+04  0.10089132603E+04 0.  0.
        -13    1    4    4    0    0 -0.12667212443E+03 -0.15757937336E+03 -0.23477834515E+03  0.30983538941E+03  0.10566000000E+00 0.  1.
          4    1    4    4  502    0  0.54968160316E+03  0.54656866329E+03  0.37053222379E+03  0.85917477698E+03  0.00000000000E+00 0.  1.
         13    1    3    3    0    0 -0.91847256658E+02 -0.29393294180E+03 -0.93940190646E+02  0.32195848088E+03  0.10566000000E+00 0. -1.
         -4    1    3    3    0  501 -0.33116222207E+03 -0.95056348127E+02 -0.23916798990E+04  0.24163685286E+04  0.00000000000E+00 0. -1.
<mgrwt>
<rscale>  0 0.11550186E+04</rscale>
<asrwt>0</asrwt>
<pdfrwt beam="1">  1        4 0.11980546E+00 0.11611011E+04</pdfrwt>
<pdfrwt beam="2">  1       -4 0.48132333E+00 0.11489681E+04</pdfrwt>
<totfact> 0.43644014E-02</totfact>
</mgrwt>
</event>
<event>
 8    1  0.3025584E-006  0.1003313E+04  0.7818608E-02  0.8827980E-01
         -4   -1    0    0    0  501 -0.00000000000E+00  0.00000000000E+00  0.14990765454E+04  0.14990765454E+04  0.00000000000E+00 0. -1.
          4   -1    0    0  502    0  0.00000000000E+00 -0.00000000000E+00 -0.21387412383E+04  0.21387412383E+04  0.00000000000E+00 0.  1.
   -9000010    2    1    2    0  501  0.56783904903E+02 -0.75815595070E+02  0.12285847048E+04  0.15172062500E+04  0.88516778741E+03 0.  0.
    9000010    2    1    2  502    0 -0.56783904903E+02  0.75815595070E+02 -0.18682493977E+04  0.21206115337E+04  0.99883184198E+03 0.  0.
        -13    1    4    4    0    0  0.44804567876E+03  0.15690700651E+03 -0.10965028336E+04  0.11948569848E+04  0.10566000000E+00 0.  1.
          4    1    4    4  502    0 -0.50482958367E+03 -0.81091411437E+02 -0.77174656408E+03  0.92575454886E+03  0.00000000000E+00 0.  1.
         13    1    3    3    0    0 -0.40313384887E+03 -0.11827471848E+03  0.68850252204E+03  0.80656155571E+03  0.10566000000E+00 0. -1.
         -4    1    3    3    0  501  0.45991775377E+03  0.42459123407E+02  0.54008218278E+03  0.71064469431E+03  0.00000000000E+00 0. -1.
<mgrwt>
<rscale>  0 0.94507729E+03</rscale>
<asrwt>0</asrwt>
<pdfrwt beam="2">  1        4 0.32903711E+00 0.10033132E+04</pdfrwt>
<pdfrwt beam="1">  1       -4 0.23062716E+00 0.89022156E+03</pdfrwt>
<totfact> 0.71598755E-02</totfact>
</mgrwt>
</event>
<event>
 8    1  0.3025584E-006  0.1028039E+04  0.7818608E-02  0.8758212E-01
         -4   -1    0    0    0  501 -0.00000000000E+00  0.00000000000E+00  0.19934226890E+04  0.19934226890E+04  0.00000000000E+00 0. -1.
          4   -1    0    0  502    0  0.00000000000E+00 -0.00000000000E+00 -0.88849193207E+03  0.88849193207E+03  0.00000000000E+00 0.  1.
   -9000010    2    1    2    0  501  0.14301940874E+03  0.13030743893E+03  0.14777095490E+04  0.17883753128E+04  0.98854750434E+03 0.  0.
    9000010    2    1    2  502    0 -0.14301940874E+03 -0.13030743893E+03 -0.37277879209E+03  0.10935393082E+04  0.10096680697E+04 0.  0.
        -13    1    4    4    0    0 -0.11219159235E+02  0.20491232531E+03 -0.62236003157E+03  0.65532202058E+03  0.10566000000E+00 0.  1.
          4    1    4    4  502    0 -0.13180024951E+03 -0.33521976425E+03  0.24958123948E+03  0.43821728767E+03  0.00000000000E+00 0.  1.
         13    1    3    3    0    0  0.13687109386E+03 -0.30189697350E+03  0.12629322486E+04  0.13057079898E+04  0.10566000000E+00 0. -1.
         -4    1    3    3    0  501  0.61483148799E+01  0.43220441243E+03  0.21477730036E+03  0.48266732296E+03  0.00000000000E+00 0. -1.
<mgrwt>
<rscale>  0 0.10176185E+04</rscale>
<asrwt>0</asrwt>
<pdfrwt beam="2">  1        4 0.13669107E+00 0.10280390E+04</pdfrwt>
<pdfrwt beam="1">  1       -4 0.30668041E+00 0.10073037E+04</pdfrwt>
<totfact> 0.16855182E-01</totfact>
</mgrwt>
</event>
<event>
 8    1  0.3025584E-006  0.1883062E+04  0.7818608E-02  0.8223065E-01
         -4   -1    0    0    0  501 -0.00000000000E+00  0.00000000000E+00  0.15227499972E+04  0.15227499972E+04  0.00000000000E+00 0. -1.
          4   -1    0    0  502    0  0.00000000000E+00 -0.00000000000E+00 -0.28694251341E+04  0.28694251341E+04  0.00000000000E+00 0.  1.
   -9000010    2    1    2    0  501  0.12407118665E+04  0.96328602276E+03  0.30246218322E+03  0.19071981645E+04  0.10385738149E+04 0.  0.
    9000010    2    1    2  502    0 -0.12407118665E+04 -0.96328602276E+03 -0.16491373201E+04  0.24849769668E+04  0.99406776816E+03 0.  0.
        -13    1    4    4    0    0 -0.10222716834E+04 -0.11369616045E+04 -0.11501759557E+04  0.19132762020E+04  0.10566000000E+00 0.  1.
          4    1    4    4  502    0 -0.21844018303E+03  0.17367558179E+03 -0.49896136442E+03  0.57170076478E+03  0.00000000000E+00 0.  1.
         13    1    3    3    0    0  0.14024248925E+04  0.89704020730E+03  0.39277944575E+03  0.17104830945E+04  0.10566000000E+00 0. -1.
         -4    1    3    3    0  501 -0.16171302599E+03  0.66245815462E+02 -0.90317262524E+02  0.19671506996E+03  0.00000000000E+00 0. -1.
<mgrwt>
<rscale>  0 0.18709347E+04</rscale>
<asrwt>0</asrwt>
<pdfrwt beam="2">  1        4 0.44145001E+00 0.18588859E+04</pdfrwt>
<pdfrwt beam="1">  1       -4 0.23426923E+00 0.18830617E+04</pdfrwt>
<totfact> 0.24081666E-02</totfact>
</mgrwt>
</event>
<event>
 8    1  0.3025584E-006  0.1246074E+04  0.7818608E-02  0.8575683E-01
         -4   -1    0    0    0  501 -0.00000000000E+00  0.00000000000E+00  0.14884445765E+04  0.14884445765E+04  0.00000000000E+00 0. -1.
          4   -1    0    0  502    0  0.00000000000E+00 -0.00000000000E+00 -0.23253730203E+04  0.23253730203E+04  0.00000000000E+00 0.  1.
   -9000010    2    1    2    0  501 -0.71525433240E+03 -0.12122867396E+03  0.10007660984E+04  0.15981964966E+04  0.10131209734E+04 0.  0.
    9000010    2    1    2  502    0  0.71525433240E+03  0.12122867396E+03 -0.18376945423E+04  0.22156211001E+04  0.10027813706E+04 0.  0.
        -13    1    4    4    0    0  0.64887099278E+03 -0.35851156232E+03 -0.95698434683E+03  0.12105301140E+04  0.10566000000E+00 0.  1.
          4    1    4    4  502    0  0.66383339617E+02  0.47974023628E+03 -0.88071019543E+03  0.10050909861E+04  0.00000000000E+00 0.  1.
         13    1    3    3    0    0 -0.11417130970E+03  0.38664437050E+03  0.57857236810E+03  0.70517724970E+03  0.10566000000E+00 0. -1.
         -4    1    3    3    0  501 -0.60108302270E+03 -0.50787304446E+03  0.42219373032E+03  0.89301924693E+03  0.00000000000E+00 0. -1.
<mgrwt>
<rscale>  0 0.12418705E+04</rscale>
<asrwt>0</asrwt>
<pdfrwt beam="2">  1        4 0.35774970E+00 0.12376816E+04</pdfrwt>
<pdfrwt beam="1">  1       -4 0.22899147E+00 0.12460735E+04</pdfrwt>
<totfact> 0.56985771E-02</totfact>
</mgrwt>
</event>
<event>
 8    1  0.3025584E-006  0.1027311E+04  0.7818608E-02  0.8752523E-01
         -4   -1    0    0    0  501 -0.00000000000E+00  0.00000000000E+00  0.28097313354E+04  0.28097313354E+04  0.00000000000E+00 0. -1.
          4   -1    0    0  502    0  0.00000000000E+00 -0.00000000000E+00 -0.15968467509E+04  0.15968467509E+04  0.00000000000E+00 0.  1.
   -9000010    2    1    2    0  501 -0.22170839456E+03  0.45113920998E+02  0.25347737888E+04  0.27324338462E+04  0.99495059449E+03 0.  0.
    9000010    2    1    2  502    0  0.22170839456E+03 -0.45113920998E+02 -0.13218892043E+04  0.16741442400E+04  0.10020868176E+04 0.  0.
        -13    1    4    4    0    0 -0.18251560934E+03  0.38179437879E+03 -0.70285103412E+03  0.82041360463E+03  0.10566000000E+00 0.  1.
          4    1    4    4  502    0  0.40422400390E+03 -0.42690829979E+03 -0.61903817014E+03  0.85373063542E+03  0.00000000000E+00 0.  1.
         13    1    3    3    0    0  0.20145222633E+03 -0.35048711482E+03  0.14161174957E+04  0.14726890337E+04  0.10566000000E+00 0. -1.
         -4    1    3    3    0  501 -0.42316062089E+03  0.39560103582E+03  0.11186562932E+04  0.12597448126E+04  0.00000000000E+00 0. -1.
<mgrwt>
<rscale>  0 0.10238252E+04</rscale>
<asrwt>0</asrwt>
<pdfrwt beam="2">  1        4 0.24566873E+00 0.10273110E+04</pdfrwt>
<pdfrwt beam="1">  1       -4 0.43226636E+00 0.10203512E+04</pdfrwt>
<totfact> 0.27203137E-02</totfact>
</mgrwt>
</event>
<event>
 8    1  0.3025584E-006  0.1254504E+04  0.7818608E-02  0.8634806E-01
         -4   -1    0    0    0  501 -0.00000000000E+00  0.00000000000E+00  0.31081671679E+04  0.31081671679E+04  0.00000000000E+00 0. -1.
          4   -1    0    0  502    0  0.00000000000E+00 -0.00000000000E+00 -0.10012331450E+04  0.10012331450E+04  0.00000000000E+00 0.  1.
   -9000010    2    1    2    0  501 -0.31442213662E+03  0.30592398746E+03  0.26276441205E+04  0.29117509597E+04  0.11752996473E+04 0.  0.
    9000010    2    1    2  502    0  0.31442213662E+03 -0.30592398746E+03 -0.52071009764E+03  0.11976493532E+04  0.98527874300E+03 0.  0.
        -13    1    4    4    0    0 -0.22423451805E+03 -0.45893117603E+03 -0.17684528054E+03  0.54053048742E+03  0.10566000000E+00 0.  1.
          4    1    4    4  502    0  0.53865665467E+03  0.15300718856E+03 -0.34386481710E+03  0.65711886582E+03  0.00000000000E+00 0.  1.
         13    1    3    3    0    0 -0.50493733265E+03  0.14176251173E+03  0.26072100454E+04  0.26594365101E+04  0.10566000000E+00 0. -1.
         -4    1    3    3    0  501  0.19051519603E+03  0.16416147573E+03  0.20434075178E+02  0.25231444957E+03  0.00000000000E+00 0. -1.
<mgrwt>
<rscale>  0 0.11631934E+04</rscale>
<asrwt>0</asrwt>
<pdfrwt beam="2">  1        4 0.15403587E+00 0.10785291E+04</pdfrwt>
<pdfrwt beam="1">  1       -4 0.47817956E+00 0.12545039E+04</pdfrwt>
<totfact> 0.30158919E-02</totfact>
</mgrwt>
</event>
<event>
 8    1  0.3025584E-006  0.1350666E+04  0.7818608E-02  0.8506297E-01
         -4   -1    0    0    0  501 -0.00000000000E+00  0.00000000000E+00  0.19815681156E+04  0.19815681156E+04  0.00000000000E+00 0. -1.
          4   -1    0    0  502    0  0.00000000000E+00 -0.00000000000E+00 -0.16955974895E+04  0.16955974895E+04  0.00000000000E+00 0.  1.
   -9000010    2    1    2    0  501  0.39343184793E+03 -0.78727144667E+03  0.13951702528E+04  0.19418547237E+04  0.10245558961E+04 0.  0.
    9000010    2    1    2  502    0 -0.39343184793E+03  0.78727144667E+03 -0.11091996267E+04  0.17353108813E+04  0.10031924508E+04 0.  0.
        -13    1    4    4    0    0 -0.61207400786E+02  0.63324034307E+02  0.19110892658E+03  0.21042555029E+03  0.10566000000E+00 0.  1.
          4    1    4    4  502    0 -0.33222444714E+03  0.72394741237E+03 -0.13003085533E+04  0.15248853311E+04  0.00000000000E+00 0.  1.
         13    1    3    3    0    0 -0.21139236749E+03 -0.21208814735E+03  0.94964098982E+03  0.99573396849E+03  0.10566000000E+00 0. -1.
         -4    1    3    3    0  501  0.60482421542E+03 -0.57518329932E+03  0.44552926297E+03  0.94612075526E+03  0.00000000000E+00 0. -1.
<mgrwt>
<rscale>  0 0.13425758E+04</rscale>
<asrwt>0</asrwt>
<pdfrwt beam="2">  1        4 0.26086115E+00 0.13345336E+04</pdfrwt>
<pdfrwt beam="1">  1       -4 0.30485663E+00 0.13506664E+04</pdfrwt>
<totfact> 0.68327151E-02</totfact>
</mgrwt>
</event>
<event>
 8    1  0.3025584E-006  0.1099055E+04  0.7818608E-02  0.8742189E-01
          4   -1    0    0  502    0  0.00000000000E+00  0.00000000000E+00  0.17745764750E+04  0.17745764750E+04  0.00000000000E+00 0.  1.
         -4   -1    0    0    0  501 -0.00000000000E+00 -0.00000000000E+00 -0.64670884460E+03  0.64670884460E+03  0.00000000000E+00 0. -1.
   -9000010    2    1    2    0  501 -0.35062537818E+02 -0.46633757089E+03  0.22936478447E+03  0.10016973463E+04  0.85562214655E+03 0.  0.
    9000010    2    1    2  502    0  0.35062537818E+02  0.46633757089E+03  0.89850284596E+03  0.14195879733E+04  0.99459667113E+03 0.  0.
        -13    1    4    4    0    0 -0.39043960124E+03 -0.87568356471E+02  0.30794334126E+03  0.50491624243E+03  0.10566000000E+00 0.  1.
          4    1    4    4  502    0  0.42550213906E+03  0.55390592736E+03  0.59055950470E+03  0.91467173090E+03  0.00000000000E+00 0.  1.
         13    1    3    3    0    0  0.23220063029E+03 -0.58901076412E+03  0.29795192329E+03  0.69973292957E+03  0.10566000000E+00 0. -1.
         -4    1    3    3    0  501 -0.26726316811E+03  0.12267319324E+03 -0.68587138822E+02  0.30196441674E+03  0.00000000000E+00 0. -1.
<mgrwt>
<rscale>  0 0.10352157E+04</rscale>
<asrwt>0</asrwt>
<pdfrwt beam="1">  1        4 0.27301176E+00 0.10990553E+04</pdfrwt>
<pdfrwt beam="2">  1       -4 0.99493669E-01 0.97508429E+03</pdfrwt>
<totfact> 0.35529138E-01</totfact>
</mgrwt>
</event>
<event>
 8    1  0.3025584E-006  0.1182383E+04  0.7818608E-02  0.8636996E-01
          4   -1    0    0  502    0  0.00000000000E+00  0.00000000000E+00  0.32944848139E+04  0.32944848139E+04  0.00000000000E+00 0.  1.
         -4   -1    0    0    0  501 -0.00000000000E+00 -0.00000000000E+00 -0.41774443124E+03  0.41774443124E+03  0.00000000000E+00 0. -1.
   -9000010    2    1    2    0  501 -0.20396770200E+02 -0.63393143610E+03  0.11413704188E+04  0.16123389922E+04  0.94584644576E+03 0.  0.
    9000010    2    1    2  502    0  0.20396770200E+02  0.63393143610E+03  0.17353699639E+04  0.20998902529E+04  0.99787026663E+03 0.  0.
        -13    1    4    4    0    0  0.47524627247E+03  0.23520411591E+03  0.52187248422E+03  0.74399657028E+03  0.10566000000E+00 0.  1.
          4    1    4    4  502    0 -0.45484950227E+03  0.39872732019E+03  0.12134974796E+04  0.13558936827E+04  0.00000000000E+00 0.  1.
         13    1    3    3    0    0  0.98597647711E+02 -0.20932810352E+03 -0.13087966240E+03  0.26583688279E+03  0.10566000000E+00 0. -1.
         -4    1    3    3    0  501 -0.11899441791E+03 -0.42460333257E+03  0.12722500812E+04  0.13465021094E+04  0.00000000000E+00 0. -1.
<mgrwt>
<rscale>  0 0.11603971E+04</rscale>
<asrwt>0</asrwt>
<pdfrwt beam="1">  1        4 0.50684380E+00 0.11823833E+04</pdfrwt>
<pdfrwt beam="2">  1       -4 0.64268376E-01 0.11388198E+04</pdfrwt>
<totfact> 0.11304018E-01</totfact>
</mgrwt>
</event>
<event>
 8    1  0.3025584E-006  0.1169384E+04  0.7818608E-02  0.8691101E-01
          4   -1    0    0  502    0  0.00000000000E+00  0.00000000000E+00  0.18414462398E+04  0.18414462398E+04  0.00000000000E+00 0.  1.
         -4   -1    0    0    0  501 -0.00000000000E+00 -0.00000000000E+00 -0.15933060201E+04  0.15933060201E+04  0.00000000000E+00 0. -1.
   -9000010    2    1    2    0  501  0.61507144331E+03 -0.28266425496E+03 -0.11976800180E+04  0.15752216348E+04  0.76725081410E+03 0.  0.
    9000010    2    1    2  502    0 -0.61507144331E+03  0.28266425496E+03  0.14458202377E+04  0.18595306252E+04  0.95354392927E+03 0.  0.
        -13    1    4    4    0    0 -0.37252897734E+03  0.43358007642E+03  0.14656504781E+04  0.15731817621E+04  0.10566000000E+00 0.  1.
          4    1    4    4  502    0 -0.24254246597E+03 -0.15091582147E+03 -0.19830240394E+02  0.28634886310E+03  0.00000000000E+00 0.  1.
         13    1    3    3    0    0  0.14944221520E+03  0.19165964799E+03 -0.71107999689E+03  0.75146601353E+03  0.10566000000E+00 0. -1.
         -4    1    3    3    0  501  0.46562922811E+03 -0.47432390294E+03 -0.48660002109E+03  0.82375562123E+03  0.00000000000E+00 0. -1.
<mgrwt>
<rscale>  0 0.10938388E+04</rscale>
<asrwt>0</asrwt>
<pdfrwt beam="1">  1        4 0.28329942E+00 0.11693836E+04</pdfrwt>
<pdfrwt beam="2">  1       -4 0.24512400E+00 0.10231744E+04</pdfrwt>
<totfact> 0.87028546E-02</totfact>
</mgrwt>
</event>
<event>
 8    1  0.3025584E-006  0.1077729E+04  0.7818608E-02  0.8707214E-01
         -4   -1    0    0    0  501 -0.00000000000E+00  0.00000000000E+00  0.15479342105E+04  0.15479342105E+04  0.00000000000E+00 0. -1.
          4   -1    0    0  502    0  0.00000000000E+00 -0.00000000000E+00 -0.14686064913E+04  0.14686064913E+04  0.00000000000E+00 0.  1.
   -9000010    2    1    2    0  501 -0.13839910950E+02 -0.29750178906E+03  0.10973600321E+04  0.15380826486E+04  0.10357607524E+04 0.  0.
    9000010    2    1    2  502    0  0.13839910950E+02  0.29750178906E+03 -0.10180323128E+04  0.14784580533E+04  0.10299269720E+04 0.  0.
        -13    1    4    4    0    0 -0.39914014370E+03  0.64099456057E+02 -0.59025743431E+02  0.40854087204E+03  0.10566000000E+00 0.  1.
          4    1    4    4  502    0  0.41298005465E+03  0.23340233301E+03 -0.95900656936E+03  0.10699171812E+04  0.00000000000E+00 0.  1.
         13    1    3    3    0    0  0.33372523475E+03 -0.53503372491E+03  0.81802303074E+03  0.10328578359E+04  0.10566000000E+00 0. -1.
         -4    1    3    3    0  501 -0.34756514570E+03  0.23753193585E+03  0.27933700132E+03  0.50522481269E+03  0.00000000000E+00 0. -1.
<mgrwt>
<rscale>  0 0.10749224E+04</rscale>
<asrwt>0</asrwt>
<pdfrwt beam="2">  1        4 0.22593946E+00 0.10721233E+04</pdfrwt>
<pdfrwt beam="1">  1       -4 0.23814372E+00 0.10777287E+04</pdfrwt>
<totfact> 0.12434756E-01</totfact>
</mgrwt>
</event>
<event>
 8    1  0.3025584E-006  0.1060271E+04  0.7818608E-02  0.8732991E-01
          4   -1    0    0  502    0  0.00000000000E+00  0.00000000000E+00  0.37998685632E+03  0.37998685632E+03  0.00000000000E+00 0. -1.
         -4   -1    0    0    0  501 -0.00000000000E+00 -0.00000000000E+00 -0.31758403393E+04  0.31758403393E+04  0.00000000000E+00 0.  1.
   -9000010    2    1    2    0  501 -0.30169568613E+03  0.49487719613E+02 -0.19609742187E+04  0.22292589443E+04  0.10152370328E+04 0.  0.
    9000010    2    1    2  502    0  0.30169568613E+03 -0.49487719613E+02 -0.83487926435E+03  0.13265682514E+04  0.98452558026E+03 0.  0.
        -13    1    4    4    0    0  0.27483722514E+03  0.41613965727E+03 -0.66273450250E+03  0.82941228990E+03  0.10566000000E+00 0.  1.
          4    1    4    4  502    0  0.26858460997E+02 -0.46562737688E+03 -0.17214476185E+03  0.49715596151E+03  0.00000000000E+00 0.  1.
         13    1    3    3    0    0 -0.25907017230E+03 -0.23703545011E+03 -0.12832762926E+03  0.37385980043E+03  0.10566000000E+00 0. -1.
         -4    1    3    3    0  501 -0.42625513835E+02  0.28652316972E+03 -0.18326465894E+04  0.18553991438E+04  0.00000000000E+00 0. -1.
<mgrwt>
<rscale>  0 0.10454838E+04</rscale>
<asrwt>0</asrwt>
<pdfrwt beam="1">  1        4 0.58459519E-01 0.10309025E+04</pdfrwt>
<pdfrwt beam="2">  1       -4 0.48859080E+00 0.10602715E+04</pdfrwt>
<totfact> 0.17003510E-01</totfact>
</mgrwt>
</event>
<event>
 8    1  0.3025584E-006  0.1214977E+04  0.7818608E-02  0.8599108E-01
         -4   -1    0    0    0  501 -0.00000000000E+00  0.00000000000E+00  0.19120490624E+04  0.19120490624E+04  0.00000000000E+00 0. -1.
          4   -1    0    0  502    0  0.00000000000E+00 -0.00000000000E+00 -0.12720096998E+04  0.12720096998E+04  0.00000000000E+00 0.  1.
   -9000010    2    1    2    0  501 -0.33162643130E+03 -0.59296314886E+03  0.13252587244E+04  0.17979096707E+04  0.10072671501E+04 0.  0.
    9000010    2    1    2  502    0  0.33162643130E+03  0.59296314886E+03 -0.68521936179E+03  0.13861490915E+04  0.99513935916E+03 0.  0.
        -13    1    4    4    0    0  0.27287025263E+03  0.84862523812E+03 -0.34340449011E+03  0.95527463304E+03  0.10566000000E+00 0.  1.
          4    1    4    4  502    0  0.58756178668E+02 -0.25566208926E+03 -0.34181487168E+03  0.43087445842E+03  0.00000000000E+00 0.  1.
         13    1    3    3    0    0 -0.43424904922E+03 -0.62103967523E+03  0.14487095569E+04  0.16349378907E+04  0.10566000000E+00 0. -1.
         -4    1    3    3    0  501  0.10262261792E+03  0.28076526370E+02 -0.12345083250E+03  0.16297178003E+03  0.00000000000E+00 0. -1.
<mgrwt>
<rscale>  0 0.12099487E+04</rscale>
<asrwt>0</asrwt>
<pdfrwt beam="2">  1        4 0.19569380E+00 0.12049414E+04</pdfrwt>
<pdfrwt beam="1">  1       -4 0.29416139E+00 0.12149767E+04</pdfrwt>
<totfact> 0.10817643E-01</totfact>
</mgrwt>
</event>
<event>
 8    1  0.3025584E-006  0.1541876E+04  0.7818608E-02  0.8386120E-01
         -4   -1    0    0    0  501 -0.00000000000E+00  0.00000000000E+00  0.12546044290E+04  0.12546044290E+04  0.00000000000E+00 0. -1.
          4   -1    0    0  502    0  0.00000000000E+00 -0.00000000000E+00 -0.42493375463E+04  0.42493375463E+04  0.00000000000E+00 0.  1.
   -9000010    2    1    2    0  501  0.11781054247E+04  0.69352473724E+02  0.55194534822E+03  0.16366030784E+04  0.99049674978E+03 0.  0.
    9000010    2    1    2  502    0 -0.11781054247E+04 -0.69352473724E+02 -0.35466784655E+04  0.38673388970E+04  0.99229020404E+03 0.  0.
        -13    1    4    4    0    0 -0.68129879474E+03  0.20479262439E+03 -0.83516849062E+03  0.10970936540E+04  0.10566000000E+00 0.  1.
          4    1    4    4  502    0 -0.49680662997E+03 -0.27414509812E+03 -0.27115099749E+04  0.27702452430E+04  0.00000000000E+00 0.  1.
         13    1    3    3    0    0  0.10283620405E+04  0.19497199159E+03  0.80243447328E+03  0.13188796984E+04  0.10566000000E+00 0. -1.
         -4    1    3    3    0  501  0.14974338425E+03 -0.12561951787E+03 -0.25048912507E+03  0.31772337996E+03  0.00000000000E+00 0. -1.
<mgrwt>
<rscale>  0 0.15412992E+04</rscale>
<asrwt>0</asrwt>
<pdfrwt beam="2">  1        4 0.65374423E+00 0.15418761E+04</pdfrwt>
<pdfrwt beam="1">  1       -4 0.19301607E+00 0.15407225E+04</pdfrwt>
<totfact> 0.26808829E-03</totfact>
</mgrwt>
</event>
<event>
 8    1  0.3025584E-006  0.1082264E+04  0.7818608E-02  0.8738201E-01
         -4   -1    0    0    0  501 -0.00000000000E+00  0.00000000000E+00  0.79640778012E+03  0.79640778012E+03  0.00000000000E+00 0. -1.
          4   -1    0    0  502    0  0.00000000000E+00 -0.00000000000E+00 -0.35220403053E+04  0.35220403053E+04  0.00000000000E+00 0.  1.
   -9000010    2    1    2    0  501  0.28634202482E+03 -0.29734985094E+03  0.30751724538E+03  0.11251050150E+04  0.10004427768E+04 0.  0.
    9000010    2    1    2  502    0 -0.28634202482E+03  0.29734985094E+03 -0.30331497706E+04  0.31933430704E+04  0.90941395720E+03 0.  0.
        -13    1    4    4    0    0 -0.53748143937E+03 -0.15522902031E+02 -0.22506117831E+04  0.23139534714E+04  0.10566000000E+00 0.  1.
          4    1    4    4  502    0  0.25113941456E+03  0.31287275297E+03 -0.78253798745E+03  0.87938959904E+03  0.00000000000E+00 0.  1.
         13    1    3    3    0    0  0.35262239602E+03 -0.57709831589E+03  0.44177722083E+03  0.80780699699E+03  0.10566000000E+00 0. -1.
         -4    1    3    3    0  501 -0.66280371199E+02  0.27974846495E+03 -0.13425997546E+03  0.31729801805E+03  0.00000000000E+00 0. -1.
<mgrwt>
<rscale>  0 0.10396532E+04</rscale>
<asrwt>0</asrwt>
<pdfrwt beam="2">  1        4 0.54185235E+00 0.99872040E+03</pdfrwt>
<pdfrwt beam="1">  1       -4 0.12252428E+00 0.10822636E+04</pdfrwt>
<totfact> 0.22324664E-02</totfact>
</mgrwt>
</event>
<event>
 8    1  0.3025584E-006  0.1063060E+04  0.7818608E-02  0.8724444E-01
         -4   -1    0    0    0  501 -0.00000000000E+00  0.00000000000E+00  0.83796429089E+03  0.83796429089E+03  0.00000000000E+00 0. -1.
          4   -1    0    0  502    0  0.00000000000E+00 -0.00000000000E+00 -0.25696462221E+04  0.25696462221E+04  0.00000000000E+00 0.  1.
   -9000010    2    1    2    0  501 -0.62317317887E+02  0.30700354847E+03  0.31483176067E+03  0.11086996874E+04  0.10158549760E+04 0.  0.
    9000010    2    1    2  502    0  0.62317317887E+02 -0.30700354847E+03 -0.20465136919E+04  0.22989108256E+04  0.99931880110E+03 0.  0.
        -13    1    4    4    0    0  0.34600409826E+03  0.16733759338E+02 -0.17307223926E+04  0.17650492532E+04  0.10566000000E+00 0.  1.
          4    1    4    4  502    0 -0.28368678037E+03 -0.32373730781E+03 -0.31579129925E+03  0.53386157242E+03  0.00000000000E+00 0.  1.
         13    1    3    3    0    0  0.21310729085E+03  0.36696087457E+03 -0.23917042281E+03  0.48711138684E+03  0.10566000000E+00 0. -1.
         -4    1    3    3    0  501 -0.27542460874E+03 -0.59957326095E+02  0.55400218348E+03  0.62158830053E+03  0.00000000000E+00 0. -1.
<mgrwt>
<rscale>  0 0.10551349E+04</rscale>
<asrwt>0</asrwt>
<pdfrwt beam="2">  1        4 0.39533019E+00 0.10472692E+04</pdfrwt>
<pdfrwt beam="1">  1       -4 0.12891758E+00 0.10630597E+04</pdfrwt>
<totfact> 0.93928948E-02</totfact>
</mgrwt>
</event>
<event>
 8    1  0.3025584E-006  0.1092892E+04  0.7818608E-02  0.8694725E-01
          4   -1    0    0  502    0  0.00000000000E+00  0.00000000000E+00  0.28843290787E+04  0.28843290787E+04  0.00000000000E+00 0.  1.
         -4   -1    0    0    0  501 -0.00000000000E+00 -0.00000000000E+00 -0.57525683241E+03  0.57525683241E+03  0.00000000000E+00 0. -1.
   -9000010    2    1    2    0  501 -0.43966721654E+03  0.34846585672E+02  0.23437363880E+03  0.11177400964E+04  0.99994518585E+03 0.  0.
    9000010    2    1    2  502    0  0.43966721654E+03 -0.34846585672E+02  0.20746986075E+04  0.23418458147E+04  0.99264593995E+03 0.  0.
        -13    1    4    4    0    0  0.27277548897E+03  0.44015979194E+03  0.14489311720E+04  0.15386840683E+04  0.10566000000E+00 0.  1.
          4    1    4    4  502    0  0.16689172757E+03 -0.47500637761E+03  0.62576743554E+03  0.80316174641E+03  0.00000000000E+00 0.  1.
         13    1    3    3    0    0 -0.59722189190E+03 -0.25766870232E+03 -0.86113510854E+02  0.65611180163E+03  0.10566000000E+00 0. -1.
         -4    1    3    3    0  501  0.15755467536E+03  0.29251528800E+03  0.32048714965E+03  0.46162829477E+03  0.00000000000E+00 0. -1.
<mgrwt>
<rscale>  0 0.10895492E+04</rscale>
<asrwt>0</asrwt>
<pdfrwt beam="1">  1        4 0.44374292E+00 0.10862171E+04</pdfrwt>
<pdfrwt beam="2">  1       -4 0.88501053E-01 0.10928915E+04</pdfrwt>
<totfact> 0.11630555E-01</totfact>
</mgrwt>
</event>
<event>
 8    1  0.3025584E-006  0.1515548E+04  0.7818608E-02  0.8411458E-01
         -4   -1    0    0    0  501 -0.00000000000E+00  0.00000000000E+00  0.22991226901E+04  0.22991226901E+04  0.00000000000E+00 0. -1.
          4   -1    0    0  502    0  0.00000000000E+00 -0.00000000000E+00 -0.13546277307E+04  0.13546277307E+04  0.00000000000E+00 0.  1.
   -9000010    2    1    2    0  501 -0.10301841587E+04 -0.48039507462E+03  0.14358501434E+04  0.20605408432E+04  0.94451262750E+03 0.  0.
    9000010    2    1    2  502    0  0.10301841587E+04  0.48039507462E+03 -0.49135518402E+03  0.15932095776E+04  0.10024110997E+04 0.  0.
        -13    1    4    4    0    0  0.82734949341E+03  0.79082257179E+03 -0.35949042842E+03  0.11996419898E+04  0.10566000000E+00 0.  1.
          4    1    4    4  502    0  0.20283466528E+03 -0.31042749717E+03 -0.13186475560E+03  0.39356758785E+03  0.00000000000E+00 0.  1.
         13    1    3    3    0    0 -0.12000719139E+04 -0.33497549082E+03  0.11329172762E+04  0.16840079405E+04  0.10566000000E+00 0. -1.
         -4    1    3    3    0  501  0.16988775520E+03 -0.14541958380E+03  0.30293286726E+03  0.37653290266E+03  0.00000000000E+00 0. -1.
<mgrwt>
<rscale>  0 0.14966014E+04</rscale>
<asrwt>0</asrwt>
<pdfrwt beam="2">  1        4 0.20840427E+00 0.15155484E+04</pdfrwt>
<pdfrwt beam="1">  1       -4 0.35371118E+00 0.14778914E+04</pdfrwt>
<totfact> 0.65203238E-02</totfact>
</mgrwt>
</event>
<event>
 8    1  0.3025584E-006  0.1174631E+04  0.7818608E-02  0.8650034E-01
          4   -1    0    0  502    0  0.00000000000E+00  0.00000000000E+00  0.20260307786E+04  0.20260307786E+04  0.00000000000E+00 0.  1.
         -4   -1    0    0    0  501 -0.00000000000E+00 -0.00000000000E+00 -0.78485489031E+03  0.78485489031E+03  0.00000000000E+00 0. -1.
   -9000010    2    1    2    0  501 -0.19001110518E+03  0.47517726853E+03  0.43827313818E+02  0.11754483766E+04  0.10572891734E+04 0.  0.
    9000010    2    1    2  502    0  0.19001110518E+03 -0.47517726853E+03  0.11973485745E+04  0.16354372923E+04  0.98950182999E+03 0.  0.
        -13    1    4    4    0    0 -0.38063801331E+02 -0.55712751572E+02  0.11540462398E+04  0.11560170839E+04  0.10566000000E+00 0.  1.
          4    1    4    4  502    0  0.22807490651E+03 -0.41946451695E+03  0.43302334694E+02  0.47942020832E+03  0.00000000000E+00 0.  1.
         13    1    3    3    0    0 -0.10100191694E+03 -0.22369171202E+03 -0.30321071523E+03  0.39009757529E+03  0.10566000000E+00 0. -1.
         -4    1    3    3    0  501 -0.89009188232E+02  0.69886898055E+03  0.34703802905E+03  0.78535080134E+03  0.00000000000E+00 0. -1.
<mgrwt>
<rscale>  0 0.11439175E+04</rscale>
<asrwt>0</asrwt>
<pdfrwt beam="1">  1        4 0.31169704E+00 0.11140070E+04</pdfrwt>
<pdfrwt beam="2">  1       -4 0.12074691E+00 0.11746310E+04</pdfrwt>
<totfact> 0.19843753E-01</totfact>
</mgrwt>
</event>
<event>
 8    1  0.3025584E-006  0.1171348E+04  0.7818608E-02  0.8629443E-01
         -4   -1    0    0    0  501 -0.00000000000E+00  0.00000000000E+00  0.34755809725E+04  0.34755809725E+04  0.00000000000E+00 0. -1.
          4   -1    0    0  502    0  0.00000000000E+00 -0.00000000000E+00 -0.39660617997E+03  0.39660617997E+03  0.00000000000E+00 0.  1.
   -9000010    2    1    2    0  501 -0.32439780760E+03 -0.50394227685E+03  0.17006783824E+04  0.20650334887E+04  0.10064117412E+04 0.  0.
    9000010    2    1    2  502    0  0.32439780760E+03  0.50394227685E+03  0.13782964101E+04  0.18071536638E+04  0.10034498565E+04 0.  0.
        -13    1    4    4    0    0  0.31823104852E+03  0.61668641763E+03  0.35842641580E+03  0.78105226755E+03  0.10566000000E+00 0.  1.
          4    1    4    4  502    0  0.61667590811E+01 -0.11274414078E+03  0.10198699943E+04  0.10261013963E+04  0.00000000000E+00 0.  1.
         13    1    3    3    0    0 -0.44471127627E+02  0.23706480767E+03  0.68407409221E+02  0.25071296143E+03  0.10566000000E+00 0. -1.
         -4    1    3    3    0  501 -0.27992667997E+03 -0.74100708453E+03  0.16322709732E+04  0.18143205272E+04  0.00000000000E+00 0. -1.
<mgrwt>
<rscale>  0 0.11700755E+04</rscale>
<asrwt>0</asrwt>
<pdfrwt beam="2">  1        4 0.61016338E-01 0.11688042E+04</pdfrwt>
<pdfrwt beam="1">  1       -4 0.53470475E+00 0.11713481E+04</pdfrwt>
<totfact> 0.93755177E-02</totfact>
</mgrwt>
</event>
<event>
 8    1  0.3025584E-006  0.1145229E+04  0.7818608E-02  0.8649517E-01
          4   -1    0    0  502    0  0.00000000000E+00  0.00000000000E+00  0.11839548263E+04  0.11839548263E+04  0.00000000000E+00 0.  1.
         -4   -1    0    0    0  501 -0.00000000000E+00 -0.00000000000E+00 -0.15317382117E+04  0.15317382117E+04  0.00000000000E+00 0. -1.
   -9000010    2    1    2    0  501 -0.42539865038E+02 -0.55584582348E+03 -0.88927064587E+03  0.14489023910E+04  0.99887018042E+03 0.  0.
    9000010    2    1    2  502    0  0.42539865038E+02  0.55584582348E+03  0.54148726049E+03  0.12667906470E+04  0.10003878600E+04 0.  0.
        -13    1    4    4    0    0  0.29319303990E+03  0.69811204043E+02  0.64342060397E+03  0.71051097643E+03  0.10566000000E+00 0.  1.
          4    1    4    4  502    0 -0.25065317486E+03  0.48603461944E+03 -0.10193334348E+03  0.55627967056E+03  0.00000000000E+00 0.  1.
         13    1    3    3    0    0 -0.33139009174E+03  0.19172545651E+02 -0.70549093877E+03  0.77968227841E+03  0.10566000000E+00 0. -1.
         -4    1    3    3    0  501  0.28885022670E+03 -0.57501836913E+03 -0.18377970710E+03  0.66922011256E+03  0.00000000000E+00 0. -1.
<mgrwt>
<rscale>  0 0.11445663E+04</rscale>
<asrwt>0</asrwt>
<pdfrwt beam="1">  1        4 0.18214690E+00 0.11452293E+04</pdfrwt>
<pdfrwt beam="2">  1       -4 0.23565203E+00 0.11439038E+04</pdfrwt>
<totfact> 0.16615446E-01</totfact>
</mgrwt>
</event>
<event>
 8    1  0.3025584E-006  0.1141922E+04  0.7818608E-02  0.8655936E-01
         -4   -1    0    0    0  501 -0.00000000000E+00  0.00000000000E+00  0.17269691437E+04  0.17269691437E+04  0.00000000000E+00 0. -1.
          4   -1    0    0  502    0  0.00000000000E+00 -0.00000000000E+00 -0.14221834206E+04  0.14221834206E+04  0.00000000000E+00 0.  1.
   -9000010    2    1    2    0  501 -0.62864242803E+01  0.58295496868E+03  0.12361202231E+04  0.16755956268E+04  0.96940780058E+03 0.  0.
    9000010    2    1    2  502    0  0.62864242803E+01 -0.58295496868E+03 -0.93133450007E+03  0.14735569374E+04  0.98189107453E+03 0.  0.
        -13    1    4    4    0    0 -0.75095877225E+02 -0.47991465422E+03  0.45552073604E+02  0.48788571273E+03  0.10566000000E+00 0.  1.
          4    1    4    4  502    0  0.81382301505E+02 -0.10304031446E+03 -0.97688657368E+03  0.98567122472E+03  0.00000000000E+00 0.  1.
         13    1    3    3    0    0  0.76535653026E+02  0.38770704690E+03  0.13692820207E+04  0.14251693667E+04  0.10566000000E+00 0. -1.
         -4    1    3    3    0  501 -0.82822077306E+02  0.19524792178E+03 -0.13316179752E+03  0.25042626013E+03  0.00000000000E+00 0. -1.
<mgrwt>
<rscale>  0 0.11365515E+04</rscale>
<asrwt>0</asrwt>
<pdfrwt beam="2">  1        4 0.21879745E+00 0.11419221E+04</pdfrwt>
<pdfrwt beam="1">  1       -4 0.26568756E+00 0.11312062E+04</pdfrwt>
<totfact> 0.11130376E-01</totfact>
</mgrwt>
</event>
<event>
 8    1  0.3025584E-006  0.1062109E+04  0.7818608E-02  0.8729835E-01
         -4   -1    0    0    0  501 -0.00000000000E+00  0.00000000000E+00  0.16475025138E+04  0.16475025138E+04  0.00000000000E+00 0. -1.
          4   -1    0    0  502    0  0.00000000000E+00 -0.00000000000E+00 -0.31289344409E+04  0.31289344409E+04  0.00000000000E+00 0.  1.
   -9000010    2    1    2    0  501 -0.13753053477E+02 -0.34483462839E+03  0.13752608512E+04  0.17376471835E+04  0.10044776046E+04 0.  0.
    9000010    2    1    2  502    0  0.13753053477E+02  0.34483462839E+03 -0.28566927783E+04  0.30387897712E+04  0.97695935279E+03 0.  0.
        -13    1    4    4    0    0  0.20895828942E+03 -0.29751942424E+03 -0.10741926035E+04  0.11340507639E+04  0.10566000000E+00 0.  1.
          4    1    4    4  502    0 -0.19520523594E+03  0.64235405263E+03 -0.17825001747E+04  0.19047390073E+04  0.00000000000E+00 0.  1.
         13    1    3    3    0    0  0.11423239535E+03 -0.64595791827E+03  0.57213876297E+03  0.87043290814E+03  0.10566000000E+00 0. -1.
         -4    1    3    3    0  501 -0.12798544883E+03  0.30112328987E+03  0.80312208822E+03  0.86721427536E+03  0.00000000000E+00 0. -1.
<mgrwt>
<rscale>  0 0.10490352E+04</rscale>
<asrwt>0</asrwt>
<pdfrwt beam="2">  1        4 0.48137453E+00 0.10361224E+04</pdfrwt>
<pdfrwt beam="1">  1       -4 0.25346192E+00 0.10621089E+04</pdfrwt>
<totfact> 0.15321130E-02</totfact>
</mgrwt>
</event>
<event>
 8    1  0.3025584E-006  0.1524562E+04  0.7818608E-02  0.8404943E-01
          4   -1    0    0  502    0  0.00000000000E+00  0.00000000000E+00  0.17269722052E+04  0.17269722052E+04  0.00000000000E+00 0.  1.
         -4   -1    0    0    0  501 -0.00000000000E+00 -0.00000000000E+00 -0.42515349432E+04  0.42515349432E+04  0.00000000000E+00 0. -1.
   -9000010    2    1    2    0  501  0.11434708039E+04  0.48574183664E+02 -0.37414871129E+04  0.40278163424E+04  0.95639622636E+03 0.  0.
    9000010    2    1    2  502    0 -0.11434708039E+04 -0.48574183664E+02  0.12169243749E+04  0.19506908060E+04  0.10071766259E+04 0.  0.
        -13    1    4    4    0    0 -0.28939961017E+03 -0.36511710807E+03  0.47378465830E+02  0.46830264484E+03  0.10566000000E+00 0.  1.
          4    1    4    4  502    0 -0.85407119375E+03  0.31654292441E+03  0.11695459091E+04  0.14823881612E+04  0.00000000000E+00 0.  1.
         13    1    3    3    0    0 -0.25905608136E+01 -0.25129772224E+03 -0.31898096814E+03  0.40608635215E+03  0.10566000000E+00 0. -1.
         -4    1    3    3    0  501  0.11460613647E+04  0.29987190590E+03 -0.34225061447E+04  0.36217299903E+04  0.00000000000E+00 0. -1.
<mgrwt>
<rscale>  0 0.15079415E+04</rscale>
<asrwt>0</asrwt>
<pdfrwt beam="1">  1        4 0.26568803E+00 0.15245621E+04</pdfrwt>
<pdfrwt beam="2">  1       -4 0.65408230E+00 0.14915022E+04</pdfrwt>
<totfact> 0.17446384E-03</totfact>
</mgrwt>
</event>
<event>
 8    1  0.3025584E-006  0.1221141E+04  0.7818608E-02  0.8591074E-01
          4   -1    0    0  502    0  0.00000000000E+00  0.00000000000E+00  0.13567707572E+04  0.13567707572E+04  0.00000000000E+00 0.  1.
         -4   -1    0    0    0  501 -0.00000000000E+00 -0.00000000000E+00 -0.15787330612E+04  0.15787330612E+04  0.00000000000E+00 0. -1.
   -9000010    2    1    2    0  501 -0.63367602324E+03 -0.29954438931E+03 -0.92053474226E+03  0.15286672733E+04  0.99908321835E+03 0.  0.
    9000010    2    1    2  502    0  0.63367602324E+03  0.29954438931E+03  0.69857243827E+03  0.14068365450E+04  0.99995673371E+03 0.  0.
        -13    1    4    4    0    0  0.85019574506E+03  0.13677783522E+03  0.73674437999E+03  0.11332842864E+04  0.10566000000E+00 0.  1.
          4    1    4    4  502    0 -0.21651972183E+03  0.16276655409E+03 -0.38171941730E+02  0.27355225864E+03  0.00000000000E+00 0.  1.
         13    1    3    3    0    0 -0.43636912534E+02 -0.13062857809E+03  0.20482797503E+03  0.24682486923E+03  0.10566000000E+00 0. -1.
         -4    1    3    3    0  501 -0.59003911070E+03 -0.16891581122E+03 -0.11253627173E+04  0.12818424041E+04  0.00000000000E+00 0. -1.
<mgrwt>
<rscale>  0 0.12207835E+04</rscale>
<asrwt>0</asrwt>
<pdfrwt beam="1">  1        4 0.20873396E+00 0.12211411E+04</pdfrwt>
<pdfrwt beam="2">  1       -4 0.24288201E+00 0.12204259E+04</pdfrwt>
<totfact> 0.13306271E-01</totfact>
</mgrwt>
</event>
<event>
 8    1  0.3025584E-006  0.1215733E+04  0.7818608E-02  0.8608135E-01
         -4   -1    0    0    0  501 -0.00000000000E+00  0.00000000000E+00  0.16874113050E+04  0.16874113050E+04  0.00000000000E+00 0. -1.
          4   -1    0    0  502    0  0.00000000000E+00 -0.00000000000E+00 -0.19282213554E+04  0.19282213554E+04  0.00000000000E+00 0.  1.
   -9000010    2    1    2    0  501 -0.13122753238E+03  0.61579859607E+03  0.12317923215E+04  0.17060348800E+04  0.99840578540E+03 0.  0.
    9000010    2    1    2  502    0  0.13122753238E+03 -0.61579859607E+03 -0.14726023719E+04  0.19095977805E+04  0.10399891160E+04 0.  0.
        -13    1    4    4    0    0 -0.13477574896E+03 -0.92360708837E+02  0.12616204145E+03  0.20642643946E+03  0.10566000000E+00 0.  1.
          4    1    4    4  502    0  0.26600328133E+03 -0.52343788723E+03 -0.15987644133E+04  0.17031713410E+04  0.00000000000E+00 0.  1.
         13    1    3    3    0    0  0.38891285210E+03  0.33812688989E+03  0.28023897036E+03  0.58661477298E+03  0.10566000000E+00 0. -1.
         -4    1    3    3    0  501 -0.52014038448E+03  0.27767170618E+03  0.95155335110E+03  0.11194201070E+04  0.00000000000E+00 0. -1.
<mgrwt>
<rscale>  0 0.11979143E+04</rscale>
<asrwt>0</asrwt>
<pdfrwt beam="2">  1        4 0.29664944E+00 0.12157327E+04</pdfrwt>
<pdfrwt beam="1">  1       -4 0.25960174E+00 0.11803570E+04</pdfrwt>
<totfact> 0.73369983E-02</totfact>
</mgrwt>
</event>
<event>
 8    1  0.3025584E-006  0.1171821E+04  0.7818608E-02  0.8636751E-01
         -4   -1    0    0    0  501 -0.00000000000E+00  0.00000000000E+00  0.19829770051E+04  0.19829770051E+04  0.00000000000E+00 0. -1.
          4   -1    0    0  502    0  0.00000000000E+00 -0.00000000000E+00 -0.68330891324E+03  0.68330891324E+03  0.00000000000E+00 0.  1.
   -9000010    2    1    2    0  501 -0.52110582624E+03 -0.26844147558E+03  0.74362202046E+03  0.13692305066E+04  0.98904315531E+03 0.  0.
    9000010    2    1    2  502    0  0.52110582624E+03  0.26844147558E+03  0.55604607142E+03  0.12970554117E+04  0.10146691084E+04 0.  0.
        -13    1    4    4    0    0  0.18540149770E+03  0.64223746243E+03  0.34314441610E+03  0.75139255717E+03  0.10566000000E+00 0.  1.
          4    1    4    4  502    0  0.33570432854E+03 -0.37379598685E+03  0.21290165532E+03  0.54566285454E+03  0.00000000000E+00 0.  1.
         13    1    3    3    0    0  0.24316855453E+03 -0.18945194904E+03  0.45262860278E+03  0.54762729126E+03  0.10566000000E+00 0. -1.
         -4    1    3    3    0  501 -0.76427438077E+03 -0.78989526543E+02  0.29099341768E+03  0.82160321539E+03  0.00000000000E+00 0. -1.
<mgrwt>
<rscale>  0 0.11607099E+04</rscale>
<asrwt>0</asrwt>
<pdfrwt beam="2">  1        4 0.10512445E+00 0.11718214E+04</pdfrwt>
<pdfrwt beam="1">  1       -4 0.30507338E+00 0.11497036E+04</pdfrwt>
<totfact> 0.26362744E-01</totfact>
</mgrwt>
</event>
<event>
 8    1  0.3025584E-006  0.1103998E+04  0.7818608E-02  0.8698758E-01
         -4   -1    0    0    0  501 -0.00000000000E+00  0.00000000000E+00  0.15168939272E+04  0.15168939272E+04  0.00000000000E+00 0. -1.
          4   -1    0    0  502    0  0.00000000000E+00 -0.00000000000E+00 -0.84297118501E+03  0.84297118501E+03  0.00000000000E+00 0.  1.
   -9000010    2    1    2    0  501  0.95219896607E+02  0.40594365784E+03 -0.94109524155E+00  0.10659355955E+04  0.98099986032E+03 0.  0.
    9000010    2    1    2  502    0 -0.95219896607E+02 -0.40594365784E+03  0.67486383746E+03  0.12939295168E+04  0.10222305578E+04 0.  0.
        -13    1    4    4    0    0 -0.27014810688E+02 -0.75034504826E+03  0.42240537456E+03  0.86149509753E+03  0.10566000000E+00 0.  1.
          4    1    4    4  502    0 -0.68205085919E+02  0.34440139043E+03  0.25245846290E+03  0.43243441926E+03  0.00000000000E+00 0.  1.
         13    1    3    3    0    0  0.51018503148E+03  0.25177812899E+03  0.16627436266E+03  0.59272942177E+03  0.10566000000E+00 0. -1.
         -4    1    3    3    0  501 -0.41496513488E+03  0.15416552884E+03 -0.16721545790E+03  0.47320617368E+03  0.00000000000E+00 0. -1.
<mgrwt>
<rscale>  0 0.10847998E+04</rscale>
<asrwt>0</asrwt>
<pdfrwt beam="2">  1        4 0.12968787E+00 0.11039984E+04</pdfrwt>
<pdfrwt beam="1">  1       -4 0.23336830E+00 0.10659352E+04</pdfrwt>
<totfact> 0.27725104E-01</totfact>
</mgrwt>
</event>
<event>
 8    1  0.3025584E-006  0.1125287E+04  0.7818608E-02  0.8670996E-01
         -4   -1    0    0    0  501 -0.00000000000E+00  0.00000000000E+00  0.25780902837E+04  0.25780902837E+04  0.00000000000E+00 0. -1.
          4   -1    0    0  502    0  0.00000000000E+00 -0.00000000000E+00 -0.98508182172E+03  0.98508182172E+03  0.00000000000E+00 0.  1.
   -9000010    2    1    2    0  501 -0.21831381424E+03 -0.44698308658E+03  0.20685913820E+04  0.23548550238E+04  0.10093646895E+04 0.  0.
    9000010    2    1    2  502    0  0.21831381424E+03  0.44698308658E+03 -0.47558292002E+03  0.12083170816E+04  0.99317483589E+03 0.  0.
        -13    1    4    4    0    0  0.53881852942E+03  0.22899468050E+03 -0.56160756427E+03  0.81127494646E+03  0.10566000000E+00 0.  1.
          4    1    4    4  502    0 -0.32050471518E+03  0.21798840608E+03  0.86024644257E+02  0.39704213511E+03  0.00000000000E+00 0.  1.
         13    1    3    3    0    0  0.36675006401E+03 -0.69978119569E+01  0.46654122509E+03  0.59347729922E+03  0.10566000000E+00 0. -1.
         -4    1    3    3    0  501 -0.58506387825E+03 -0.43998527462E+03  0.16020501569E+04  0.17613777246E+04  0.00000000000E+00 0. -1.
<mgrwt>
<rscale>  0 0.11180145E+04</rscale>
<asrwt>0</asrwt>
<pdfrwt beam="2">  1        4 0.15155105E+00 0.11107885E+04</pdfrwt>
<pdfrwt beam="1">  1       -4 0.39662927E+00 0.11252875E+04</pdfrwt>
<totfact> 0.71980610E-02</totfact>
</mgrwt>
</event>
<event>
 8    1  0.3025584E-006  0.1089186E+04  0.7818608E-02  0.8706687E-01
         -4   -1    0    0    0  501 -0.00000000000E+00  0.00000000000E+00  0.14596326598E+04  0.14596326598E+04  0.00000000000E+00 0. -1.
          4   -1    0    0  502    0  0.00000000000E+00 -0.00000000000E+00 -0.14692546766E+04  0.14692546766E+04  0.00000000000E+00 0.  1.
   -9000010    2    1    2    0  501  0.18459766908E+03 -0.28847913502E+03  0.98890612755E+03  0.14711428411E+04  0.10339387888E+04 0.  0.
    9000010    2    1    2  502    0 -0.18459766908E+03  0.28847913502E+03 -0.99852814439E+03  0.14577444953E+04  0.10053178840E+04 0.  0.
        -13    1    4    4    0    0 -0.56597059577E+03  0.55919966800E+02 -0.76632767417E+03  0.95431015573E+03  0.10566000000E+00 0.  1.
          4    1    4    4  502    0  0.38137292669E+03  0.23255916822E+03 -0.23220047022E+03  0.50343433962E+03  0.00000000000E+00 0.  1.
         13    1    3    3    0    0 -0.34133492845E+03 -0.38184134728E+03  0.68915128606E+03  0.85862789037E+03  0.10566000000E+00 0. -1.
         -4    1    3    3    0  501  0.52593259753E+03  0.93362212262E+02  0.29975484149E+03  0.61251495069E+03  0.00000000000E+00 0. -1.
<mgrwt>
<rscale>  0 0.10755348E+04</rscale>
<asrwt>0</asrwt>
<pdfrwt beam="2">  1        4 0.22603918E+00 0.10620549E+04</pdfrwt>
<pdfrwt beam="1">  1       -4 0.22455887E+00 0.10891859E+04</pdfrwt>
<totfact> 0.13425217E-01</totfact>
</mgrwt>
</event>
<event>
 8    1  0.3025584E-006  0.1261834E+04  0.7818608E-02  0.8562371E-01
          4   -1    0    0  502    0  0.00000000000E+00  0.00000000000E+00  0.13829700853E+04  0.13829700853E+04  0.00000000000E+00 0.  1.
         -4   -1    0    0    0  501 -0.00000000000E+00 -0.00000000000E+00 -0.16804711070E+04  0.16804711070E+04  0.00000000000E+00 0. -1.
   -9000010    2    1    2    0  501  0.47065708602E+03  0.58806627680E+03 -0.10104123286E+04  0.16165266424E+04  0.10123661755E+04 0.  0.
    9000010    2    1    2  502    0 -0.47065708602E+03 -0.58806627680E+03  0.71291130685E+03  0.14469145499E+04  0.10089495253E+04 0.  0.
        -13    1    4    4    0    0 -0.56043301308E+03  0.88957136524E+02  0.40850344598E+03  0.69919497340E+03  0.10566000000E+00 0.  1.
          4    1    4    4  502    0  0.89775927053E+02 -0.67702341332E+03  0.30440786087E+03  0.74771957646E+03  0.00000000000E+00 0.  1.
         13    1    3    3    0    0  0.68930883814E+03  0.47185673835E+03 -0.34006534240E+03  0.90190903318E+03  0.10566000000E+00 0. -1.
         -4    1    3    3    0  501 -0.21865175212E+03  0.11620953845E+03 -0.67034698621E+03  0.71461760925E+03  0.00000000000E+00 0. -1.
<mgrwt>
<rscale>  0 0.12604636E+04</rscale>
<asrwt>0</asrwt>
<pdfrwt beam="1">  1        4 0.21276463E+00 0.12590946E+04</pdfrwt>
<pdfrwt beam="2">  1       -4 0.25853402E+00 0.12618341E+04</pdfrwt>
<totfact> 0.11873287E-01</totfact>
</mgrwt>
</event>
<event>
 8    1  0.3025584E-006  0.1217121E+04  0.7818608E-02  0.8618761E-01
          4   -1    0    0  502    0  0.00000000000E+00  0.00000000000E+00  0.21634897319E+04  0.21634897319E+04  0.00000000000E+00 0.  1.
         -4   -1    0    0    0  501 -0.00000000000E+00 -0.00000000000E+00 -0.12876446278E+04  0.12876446278E+04  0.00000000000E+00 0. -1.
   -9000010    2    1    2    0  501 -0.57678327280E+03 -0.41275203444E+02 -0.78377088718E+03  0.13930505176E+04  0.99594696392E+03 0.  0.
    9000010    2    1    2  502    0  0.57678327280E+03  0.41275203444E+02  0.16596159912E+04  0.20580838420E+04  0.10709814546E+04 0.  0.
        -13    1    4    4    0    0  0.81000341824E+03  0.16060580749E+03  0.76417135216E+03  0.11251033862E+04  0.10566000000E+00 0.  1.
          4    1    4    4  502    0 -0.23322014544E+03 -0.11933060404E+03  0.89544463909E+03  0.93298045583E+03  0.00000000000E+00 0.  1.
         13    1    3    3    0    0 -0.31503671171E+03  0.45534240807E+03 -0.21522148990E+03  0.59405819512E+03  0.10566000000E+00 0. -1.
         -4    1    3    3    0  501 -0.26174656109E+03 -0.49661761152E+03 -0.56854939728E+03  0.79899232252E+03  0.00000000000E+00 0. -1.
<mgrwt>
<rscale>  0 0.11839320E+04</rscale>
<asrwt>0</asrwt>
<pdfrwt beam="1">  1        4 0.33284457E+00 0.12171211E+04</pdfrwt>
<pdfrwt beam="2">  1       -4 0.19809917E+00 0.11516479E+04</pdfrwt>
<totfact> 0.83018876E-02</totfact>
</mgrwt>
</event>
<event>
 8    1  0.3025584E-006  0.1358858E+04  0.7818608E-02  0.8501986E-01
          4   -1    0    0  502    0  0.00000000000E+00  0.00000000000E+00  0.20027086447E+04  0.20027086447E+04  0.00000000000E+00 0.  1.
         -4   -1    0    0    0  501 -0.00000000000E+00 -0.00000000000E+00 -0.10284972531E+04  0.10284972531E+04  0.00000000000E+00 0. -1.
   -9000010    2    1    2    0  501  0.86221880917E+03 -0.21303096918E+03 -0.32753183805E+02  0.13399123437E+04  0.10027406689E+04 0.  0.
    9000010    2    1    2  502    0 -0.86221880917E+03  0.21303096918E+03  0.10069645754E+04  0.16912935541E+04  0.10284419095E+04 0.  0.
        -13    1    4    4    0    0 -0.54055883591E+03  0.22971584195E+03 -0.46990138817E+02  0.58922093262E+03  0.10566000000E+00 0.  1.
          4    1    4    4  502    0 -0.32165997325E+03 -0.16684872772E+02  0.10539547142E+04  0.11020726215E+04  0.00000000000E+00 0.  1.
         13    1    3    3    0    0  0.74086628495E+03 -0.58757963440E+03 -0.33905719878E+02  0.94619357847E+03  0.10566000000E+00 0. -1.
         -4    1    3    3    0  501  0.12135252422E+03  0.37454866522E+03  0.11525360728E+01  0.39371876523E+03  0.00000000000E+00 0. -1.
<mgrwt>
<rscale>  0 0.13491505E+04</rscale>
<asrwt>0</asrwt>
<pdfrwt beam="1">  1        4 0.30810902E+00 0.13588584E+04</pdfrwt>
<pdfrwt beam="2">  1       -4 0.15823035E+00 0.13395120E+04</pdfrwt>
<totfact> 0.13166095E-01</totfact>
</mgrwt>
</event>
<event>
 8    1  0.3025584E-006  0.1075483E+04  0.7818608E-02  0.8714208E-01
         -4   -1    0    0    0  501 -0.00000000000E+00  0.00000000000E+00  0.40538453947E+04  0.40538453947E+04  0.00000000000E+00 0. -1.
          4   -1    0    0  502    0  0.00000000000E+00 -0.00000000000E+00 -0.41992779632E+03  0.41992779632E+03  0.00000000000E+00 0.  1.
   -9000010    2    1    2    0  501  0.18645409781E+03 -0.28652295914E+03  0.30947939959E+04  0.32707278363E+04  0.10015239214E+04 0.  0.
    9000010    2    1    2  502    0 -0.18645409781E+03  0.28652295914E+03  0.53912360241E+03  0.12030453547E+04  0.10197074728E+04 0.  0.
        -13    1    4    4    0    0  0.16649227325E+03  0.21770740543E+02  0.71023865536E+03  0.72981682697E+03  0.10566000000E+00 0.  1.
          4    1    4    4  502    0 -0.35294637106E+03  0.26475221860E+03 -0.17111505296E+03  0.47322852772E+03  0.00000000000E+00 0.  1.
         13    1    3    3    0    0  0.40617524232E+03 -0.35503667743E+03  0.80288690128E+03  0.96729352175E+03  0.10566000000E+00 0. -1.
         -4    1    3    3    0  501 -0.21972114451E+03  0.68513718288E+02  0.22919070946E+04  0.23034343145E+04  0.00000000000E+00 0. -1.
<mgrwt>
<rscale>  0 0.10668359E+04</rscale>
<asrwt>0</asrwt>
<pdfrwt beam="2">  1        4 0.64604279E-01 0.10754831E+04</pdfrwt>
<pdfrwt beam="1">  1       -4 0.62366850E+00 0.10582583E+04</pdfrwt>
<totfact> 0.28349291E-02</totfact>
</mgrwt>
</event>
<event>
 8    1  0.3025584E-006  0.1576128E+04  0.7818608E-02  0.8371503E-01
          4   -1    0    0  502    0  0.00000000000E+00  0.00000000000E+00  0.18801525659E+04  0.18801525659E+04  0.00000000000E+00 0.  1.
         -4   -1    0    0    0  501 -0.00000000000E+00 -0.00000000000E+00 -0.22682407480E+04  0.22682407480E+04  0.00000000000E+00 0. -1.
   -9000010    2    1    2    0  501  0.30744436794E+03  0.11703068021E+04 -0.15446092509E+04  0.22068066790E+04  0.10099692719E+04 0.  0.
    9000010    2    1    2  502    0 -0.30744436794E+03 -0.11703068021E+04  0.11565210687E+04  0.19415866350E+04  0.98390935982E+03 0.  0.
        -13    1    4    4    0    0 -0.91913287773E+02 -0.10508761173E+04  0.12859395662E+04  0.16632586226E+04  0.10566000000E+00 0.  1.
          4    1    4    4  502    0 -0.21553108017E+03 -0.11943068479E+03 -0.12941849753E+03  0.27832801241E+03  0.00000000000E+00 0.  1.
         13    1    3    3    0    0 -0.22662036915E+03 -0.36093016062E+02 -0.39531106323E+03  0.45708899068E+03  0.10566000000E+00 0. -1.
         -4    1    3    3    0  501  0.53406473710E+03  0.12063998181E+04 -0.11492981876E+04  0.17497176883E+04  0.00000000000E+00 0. -1.
<mgrwt>
<rscale>  0 0.15678203E+04</rscale>
<asrwt>0</asrwt>
<pdfrwt beam="1">  1        4 0.28925424E+00 0.15595569E+04</pdfrwt>
<pdfrwt beam="2">  1       -4 0.34896012E+00 0.15761275E+04</pdfrwt>
<totfact> 0.42140244E-02</totfact>
</mgrwt>
</event>
<event>
 8    1  0.3025584E-006  0.1116615E+04  0.7818608E-02  0.8710289E-01
         -4   -1    0    0    0  501 -0.00000000000E+00  0.00000000000E+00  0.15758630873E+04  0.15758630873E+04  0.00000000000E+00 0. -1.
          4   -1    0    0  502    0  0.00000000000E+00 -0.00000000000E+00 -0.21210138999E+04  0.21210138999E+04  0.00000000000E+00 0.  1.
   -9000010    2    1    2    0  501  0.47775536984E+02  0.23708983322E+03  0.12202348375E+04  0.16540262115E+04  0.10901080490E+04 0.  0.
    9000010    2    1    2  502    0 -0.47775536984E+02 -0.23708983322E+03 -0.17653856502E+04  0.20428507758E+04  0.99907892948E+03 0.  0.
        -13    1    4    4    0    0 -0.48855506841E+03  0.13662484371E+02 -0.61427751546E+03  0.78499018816E+03  0.10566000000E+00 0.  1.
          4    1    4    4  502    0  0.44077953142E+03 -0.25075231759E+03 -0.11511081347E+04  0.12578605876E+04  0.00000000000E+00 0.  1.
         13    1    3    3    0    0  0.55425832829E+03  0.12600459610E+03  0.82590741009E+03  0.10025978825E+04  0.10566000000E+00 0. -1.
         -4    1    3    3    0  501 -0.50648279130E+03  0.11108523713E+03  0.39432742745E+03  0.65142832901E+03  0.00000000000E+00 0. -1.
<mgrwt>
<rscale>  0 0.10713586E+04</rscale>
<asrwt>0</asrwt>
<pdfrwt beam="2">  1        4 0.32630983E+00 0.10279362E+04</pdfrwt>
<pdfrwt beam="1">  1       -4 0.24244048E+00 0.11166153E+04</pdfrwt>
<totfact> 0.67702677E-02</totfact>
</mgrwt>
</event>
<event>
 8    1  0.3025584E-006  0.1241251E+04  0.7818608E-02  0.8576929E-01
         -4   -1    0    0    0  501 -0.00000000000E+00  0.00000000000E+00  0.20135670489E+04  0.20135670489E+04  0.00000000000E+00 0. -1.
          4   -1    0    0  502    0  0.00000000000E+00 -0.00000000000E+00 -0.22106025796E+04  0.22106025796E+04  0.00000000000E+00 0.  1.
   -9000010    2    1    2    0  501 -0.31240360470E+03 -0.65745656317E+03  0.16101308815E+04  0.20330336866E+04  0.10054150241E+04 0.  0.
    9000010    2    1    2  502    0  0.31240360470E+03  0.65745656317E+03 -0.18071664122E+04  0.21911359419E+04  0.10026869550E+04 0.  0.
        -13    1    4    4    0    0  0.42681492829E+03  0.44721644287E+02 -0.21230779454E+03  0.47879601008E+03  0.10566000000E+00 0.  1.
          4    1    4    4  502    0 -0.11441132358E+03  0.61273491888E+03 -0.15948586176E+04  0.17123399318E+04  0.00000000000E+00 0.  1.
         13    1    3    3    0    0  0.19593670368E+03 -0.61557259654E+02 -0.37431285774E+02  0.20876206644E+03  0.10566000000E+00 0. -1.
         -4    1    3    3    0  501 -0.50834030839E+03 -0.59589930351E+03  0.16475621673E+04  0.18242716202E+04  0.00000000000E+00 0. -1.
<mgrwt>
<rscale>  0 0.12401463E+04</rscale>
<asrwt>0</asrwt>
<pdfrwt beam="2">  1        4 0.34009271E+00 0.12390425E+04</pdfrwt>
<pdfrwt beam="1">  1       -4 0.30977954E+00 0.12412512E+04</pdfrwt>
<totfact> 0.40912234E-02</totfact>
</mgrwt>
</event>
<event>
 8    1  0.3025584E-006  0.1707553E+04  0.7818608E-02  0.8332554E-01
         -4   -1    0    0    0  501 -0.00000000000E+00  0.00000000000E+00  0.11088561127E+04  0.11088561127E+04  0.00000000000E+00 0. -1.
          4   -1    0    0  502    0  0.00000000000E+00 -0.00000000000E+00 -0.29831838538E+04  0.29831838538E+04  0.00000000000E+00 0.  1.
   -9000010    2    1    2    0  501 -0.10999931356E+04  0.55363175511E+03 -0.89345149297E+02  0.17098887430E+04  0.11828964195E+04 0.  0.
    9000010    2    1    2  502    0  0.10999931356E+04 -0.55363175511E+03 -0.17849825918E+04  0.23821512235E+04  0.98589481188E+03 0.  0.
        -13    1    4    4    0    0  0.38316753588E+03  0.24201628436E+03 -0.27218088082E+03  0.52865081622E+03  0.10566000000E+00 0.  1.
          4    1    4    4  502    0  0.71682559968E+03 -0.79564803947E+03 -0.15128017109E+04  0.18535004073E+04  0.00000000000E+00 0.  1.
         13    1    3    3    0    0 -0.36420479794E+03 -0.10925036238E+03  0.44439553059E+03  0.58486594644E+03  0.10566000000E+00 0. -1.
         -4    1    3    3    0  501 -0.73578833762E+03  0.66288211750E+03 -0.53374067989E+03  0.11250227966E+04  0.00000000000E+00 0. -1.
<mgrwt>
<rscale>  0 0.16412347E+04</rscale>
<asrwt>0</asrwt>
<pdfrwt beam="2">  1        4 0.45895136E+00 0.15774922E+04</pdfrwt>
<pdfrwt beam="1">  1       -4 0.17059325E+00 0.17075529E+04</pdfrwt>
<totfact> 0.31217109E-02</totfact>
</mgrwt>
</event>
<event>
 8    1  0.3025584E-006  0.1621009E+04  0.7818608E-02  0.8390535E-01
          4   -1    0    0  502    0  0.00000000000E+00  0.00000000000E+00  0.17744447243E+04  0.17744447243E+04  0.00000000000E+00 0.  1.
         -4   -1    0    0    0  501 -0.00000000000E+00 -0.00000000000E+00 -0.24772783112E+04  0.24772783112E+04  0.00000000000E+00 0. -1.
   -9000010    2    1    2    0  501 -0.69005125598E+03  0.83905921930E+03 -0.17869785432E+04  0.23015847818E+04  0.96114987624E+03 0.  0.
    9000010    2    1    2  502    0  0.69005125598E+03 -0.83905921930E+03  0.10841449562E+04  0.19501382537E+04  0.12031117209E+04 0.  0.
        -13    1    4    4    0    0  0.83762546177E+03 -0.78280317811E+03  0.34928388026E+03  0.11984975887E+04  0.10566000000E+00 0.  1.
          4    1    4    4  502    0 -0.14757420580E+03 -0.56256041197E+02  0.73486107595E+03  0.75164066503E+03  0.00000000000E+00 0.  1.
         13    1    3    3    0    0 -0.63899836814E+02  0.31017397232E+02 -0.10228296011E+04  0.10252929689E+04  0.10566000000E+00 0. -1.
         -4    1    3    3    0  501 -0.62615141916E+03  0.80804182207E+03 -0.76414894211E+03  0.12762918129E+04  0.00000000000E+00 0. -1.
<mgrwt>
<rscale>  0 0.15333952E+04</rscale>
<asrwt>0</asrwt>
<pdfrwt beam="1">  1        4 0.27299150E+00 0.16210086E+04</pdfrwt>
<pdfrwt beam="2">  1       -4 0.38111974E+00 0.14505172E+04</pdfrwt>
<totfact> 0.35645849E-02</totfact>
</mgrwt>
</event>
<event>
 8    1  0.3025584E-006  0.1442715E+04  0.7818608E-02  0.8443514E-01
          4   -1    0    0  502    0  0.00000000000E+00  0.00000000000E+00  0.70385445144E+03  0.70385445144E+03  0.00000000000E+00 0.  1.
         -4   -1    0    0    0  501 -0.00000000000E+00 -0.00000000000E+00 -0.39399424153E+04  0.39399424153E+04  0.00000000000E+00 0. -1.
   -9000010    2    1    2    0  501  0.55097794956E+03  0.87583621204E+03 -0.27791070142E+04  0.31312718831E+04  0.10053666188E+04 0.  0.
    9000010    2    1    2  502    0 -0.55097794956E+03 -0.87583621204E+03 -0.45698094974E+03  0.15125249837E+04  0.10041087923E+04 0.  0.
        -13    1    4    4    0    0 -0.49499054843E+03 -0.19609641040E+03 -0.61395105502E+03  0.81265328051E+03  0.10566000000E+00 0.  1.
          4    1    4    4  502    0 -0.55987401137E+02 -0.67973980164E+03  0.15697010528E+03  0.69987170322E+03  0.00000000000E+00 0.  1.
         13    1    3    3    0    0  0.12986114300E+03  0.69771469875E+03 -0.24926501170E+04  0.25917126257E+04  0.10566000000E+00 0. -1.
         -4    1    3    3    0  501  0.42111680656E+03  0.17812151328E+03 -0.28645689717E+03  0.53955925736E+03  0.00000000000E+00 0. -1.
<mgrwt>
<rscale>  0 0.14422772E+04</rscale>
<asrwt>0</asrwt>
<pdfrwt beam="1">  1        4 0.10828530E+00 0.14418392E+04</pdfrwt>
<pdfrwt beam="2">  1       -4 0.60614499E+00 0.14427154E+04</pdfrwt>
<totfact> 0.11940701E-02</totfact>
</mgrwt>
</event>
<event>
 8    1  0.3025584E-006  0.1148160E+04  0.7818608E-02  0.8647453E-01
          4   -1    0    0  502    0  0.00000000000E+00  0.00000000000E+00  0.21351134846E+04  0.21351134846E+04  0.00000000000E+00 0.  1.
         -4   -1    0    0    0  501 -0.00000000000E+00 -0.00000000000E+00 -0.18749769166E+04  0.18749769166E+04  0.00000000000E+00 0. -1.
   -9000010    2    1    2    0  501 -0.33673136506E+03 -0.45657275435E+03 -0.15126578797E+04  0.18990538041E+04  0.99821079824E+03 0.  0.
    9000010    2    1    2  502    0  0.33673136506E+03  0.45657275435E+03  0.17727944477E+04  0.21110365971E+04  0.99590595350E+03 0.  0.
        -13    1    4    4    0    0  0.30170534981E+03  0.74545267128E+03  0.98731881530E+03  0.12733908502E+04  0.10566000000E+00 0.  1.
          4    1    4    4  502    0  0.35026015245E+02 -0.28887991693E+03  0.78547563239E+03  0.83764574685E+03  0.00000000000E+00 0.  1.
         13    1    3    3    0    0 -0.55455372253E+03 -0.45927623549E+03 -0.53401100816E+03  0.89645538632E+03  0.10566000000E+00 0. -1.
         -4    1    3    3    0  501  0.21782235748E+03  0.27034811402E+01 -0.97864687150E+03  0.10025984178E+04  0.00000000000E+00 0. -1.
<mgrwt>
<rscale>  0 0.11471580E+04</rscale>
<asrwt>0</asrwt>
<pdfrwt beam="1">  1        4 0.32847900E+00 0.11461568E+04</pdfrwt>
<pdfrwt beam="2">  1       -4 0.28845799E+00 0.11481600E+04</pdfrwt>
<totfact> 0.51100814E-02</totfact>
</mgrwt>
</event>
<event>
 8    1  0.3025584E-006  0.1118778E+04  0.7818608E-02  0.8674979E-01
          4   -1    0    0  502    0  0.00000000000E+00  0.00000000000E+00  0.30740086293E+04  0.30740086293E+04  0.00000000000E+00 0.  1.
         -4   -1    0    0    0  501 -0.00000000000E+00 -0.00000000000E+00 -0.55917340980E+03  0.55917340980E+03  0.00000000000E+00 0. -1.
   -9000010    2    1    2    0  501 -0.49165459405E+03 -0.74114329970E+02  0.29320079844E+03  0.11457488649E+04  0.98972550718E+03 0.  0.
    9000010    2    1    2  502    0  0.49165459405E+03  0.74114329970E+02  0.22216344211E+04  0.24874331742E+04  0.10022210940E+04 0.  0.
        -13    1    4    4    0    0  0.61827759149E+03 -0.28176745523E+03  0.10020252742E+04  0.12106670642E+04  0.10566000000E+00 0.  1.
          4    1    4    4  502    0 -0.12662299744E+03  0.35588178520E+03  0.12196091468E+04  0.12767661099E+04  0.00000000000E+00 0.  1.
         13    1    3    3    0    0 -0.12135285476E+03  0.42944058948E+03  0.26724117295E+03  0.52015727519E+03  0.10566000000E+00 0. -1.
         -4    1    3    3    0  501 -0.37030173930E+03 -0.50355491945E+03  0.25959625498E+02  0.62559158976E+03  0.00000000000E+00 0. -1.
<mgrwt>
<rscale>  0 0.11131741E+04</rscale>
<asrwt>0</asrwt>
<pdfrwt beam="1">  1        4 0.47292440E+00 0.11187780E+04</pdfrwt>
<pdfrwt beam="2">  1       -4 0.86026680E-01 0.11075982E+04</pdfrwt>
<totfact> 0.89278179E-02</totfact>
</mgrwt>
</event>
<event>
 8    1  0.3025584E-006  0.1514987E+04  0.7818608E-02  0.8402861E-01
         -4   -1    0    0    0  501 -0.00000000000E+00  0.00000000000E+00  0.26723288390E+04  0.26723288390E+04  0.00000000000E+00 0. -1.
          4   -1    0    0  502    0  0.00000000000E+00 -0.00000000000E+00 -0.13077689335E+04  0.13077689335E+04  0.00000000000E+00 0.  1.
   -9000010    2    1    2    0  501  0.68736947711E+03 -0.89242541897E+03  0.18541920898E+04  0.23944131110E+04  0.10130577051E+04 0.  0.
    9000010    2    1    2  502    0 -0.68736947711E+03  0.89242541897E+03 -0.48963218434E+03  0.15856846614E+04  0.10028739916E+04 0.  0.
        -13    1    4    4    0    0 -0.20599742350E+03  0.57228478298E+03  0.24079628196E+03  0.65416180865E+03  0.10566000000E+00 0.  1.
          4    1    4    4  502    0 -0.48137205360E+03  0.32014063599E+03 -0.73042846630E+03  0.93152285274E+03  0.00000000000E+00 0.  1.
         13    1    3    3    0    0  0.13190346004E+03 -0.75488337355E+03  0.15881149561E+04  0.17633367674E+04  0.10566000000E+00 0. -1.
         -4    1    3    3    0  501  0.55546601706E+03 -0.13754204542E+03  0.26607713377E+03  0.63107634363E+03  0.00000000000E+00 0. -1.
<mgrwt>
<rscale>  0 0.15115879E+04</rscale>
<asrwt>0</asrwt>
<pdfrwt beam="2">  1        4 0.20119522E+00 0.15081963E+04</pdfrwt>
<pdfrwt beam="1">  1       -4 0.41112751E+00 0.15149871E+04</pdfrwt>
<totfact> 0.41044215E-02</totfact>
</mgrwt>
</event>
<event>
 8    1  0.3025584E-006  0.1024820E+04  0.7818608E-02  0.8752269E-01
          4   -1    0    0  502    0  0.00000000000E+00  0.00000000000E+00  0.17544793595E+04  0.17544793595E+04  0.00000000000E+00 0.  1.
         -4   -1    0    0    0  501 -0.00000000000E+00 -0.00000000000E+00 -0.17330084032E+04  0.17330084032E+04  0.00000000000E+00 0. -1.
   -9000010    2    1    2    0  501 -0.15228239648E+03  0.17219745848E+03 -0.14005841209E+04  0.17346337978E+04  0.99723449594E+03 0.  0.
    9000010    2    1    2  502    0  0.15228239648E+03 -0.17219745848E+03  0.14220550772E+04  0.17528539649E+04  0.99870640672E+03 0.  0.
        -13    1    4    4    0    0  0.33118977705E+03 -0.28166460218E+03  0.14739963226E+04  0.15367780539E+04  0.10566000000E+00 0.  1.
          4    1    4    4  502    0 -0.17890738058E+03  0.10946714370E+03 -0.51941245418E+02  0.21607591108E+03  0.00000000000E+00 0.  1.
         13    1    3    3    0    0 -0.21642032526E+03  0.10357083674E+03 -0.15443640390E+04  0.15628899422E+04  0.10566000000E+00 0. -1.
         -4    1    3    3    0  501  0.64137928786E+02  0.68626621742E+02  0.14377991805E+03  0.17174385565E+03  0.00000000000E+00 0. -1.
<mgrwt>
<rscale>  0 0.10241027E+04</rscale>
<asrwt>0</asrwt>
<pdfrwt beam="1">  1        4 0.26991990E+00 0.10248202E+04</pdfrwt>
<pdfrwt beam="2">  1       -4 0.26661668E+00 0.10233858E+04</pdfrwt>
<totfact> 0.84372452E-02</totfact>
</mgrwt>
</event>
<event>
 8    1  0.3025584E-006  0.1055711E+04  0.7818608E-02  0.8728313E-01
          4   -1    0    0  502    0  0.00000000000E+00  0.00000000000E+00  0.76400406108E+03  0.76400406108E+03  0.00000000000E+00 0.  1.
         -4   -1    0    0    0  501 -0.00000000000E+00 -0.00000000000E+00 -0.21535972557E+04  0.21535972557E+04  0.00000000000E+00 0. -1.
   -9000010    2    1    2    0  501 -0.18753804119E+03  0.24019917167E+03 -0.15336769974E+04  0.18619053043E+04  0.10107720172E+04 0.  0.
    9000010    2    1    2  502    0  0.18753804119E+03 -0.24019917167E+03  0.14408380277E+03  0.10556960125E+04  0.10004337908E+04 0.  0.
        -13    1    4    4    0    0 -0.29971260557E+03 -0.42882990637E+03  0.80823575659E+02  0.52939134492E+03  0.10566000000E+00 0.  1.
          4    1    4    4  502    0  0.48725064675E+03  0.18863073470E+03  0.63260227113E+02  0.52630466763E+03  0.00000000000E+00 0.  1.
         13    1    3    3    0    0  0.30585989921E+03 -0.22546250763E+02 -0.11339572242E+04  0.11746989439E+04  0.10566000000E+00 0. -1.
         -4    1    3    3    0  501 -0.49339794039E+03  0.26274542243E+03 -0.39971977322E+03  0.68720636035E+03  0.00000000000E+00 0. -1.
<mgrwt>
<rscale>  0 0.10507527E+04</rscale>
<asrwt>0</asrwt>
<pdfrwt beam="1">  1        4 0.11753909E+00 0.10458173E+04</pdfrwt>
<pdfrwt beam="2">  1       -4 0.33132265E+00 0.10557112E+04</pdfrwt>
<totfact> 0.18328149E-01</totfact>
</mgrwt>
</event>
<event>
 8    1  0.3025584E-006  0.1044940E+04  0.7818608E-02  0.8737024E-01
         -4   -1    0    0    0  501 -0.00000000000E+00  0.00000000000E+00  0.24807048809E+04  0.24807048809E+04  0.00000000000E+00 0. -1.
          4   -1    0    0  502    0  0.00000000000E+00 -0.00000000000E+00 -0.70673812121E+03  0.70673812121E+03  0.00000000000E+00 0.  1.
   -9000010    2    1    2    0  501  0.49518515919E+00  0.29135823103E+03  0.18698020067E+04  0.21381179143E+04  0.99523806578E+03 0.  0.
    9000010    2    1    2  502    0 -0.49518515919E+00 -0.29135823103E+03 -0.95835246980E+02  0.10493250877E+04  0.10034983215E+04 0.  0.
        -13    1    4    4    0    0 -0.33004788949E+01 -0.25084017314E+03 -0.54414078084E+03  0.59918351626E+03  0.10566000000E+00 0.  1.
          4    1    4    4  502    0  0.28052937357E+01 -0.40518057889E+02  0.44830553386E+03  0.45014157148E+03  0.00000000000E+00 0.  1.
         13    1    3    3    0    0  0.27818870678E+03  0.29165232373E+03  0.18096407411E+04  0.18539821082E+04  0.10566000000E+00 0. -1.
         -4    1    3    3    0  501 -0.27769352162E+03 -0.29409270015E+00  0.60161265505E+02  0.28413580610E+03  0.00000000000E+00 0. -1.
<mgrwt>
<rscale>  0 0.10409670E+04</rscale>
<asrwt>0</asrwt>
<pdfrwt beam="2">  1        4 0.10872894E+00 0.10449396E+04</pdfrwt>
<pdfrwt beam="1">  1       -4 0.38164690E+00 0.10370095E+04</pdfrwt>
<totfact> 0.14182048E-01</totfact>
</mgrwt>
</event>
<event>
 8    1  0.3025584E-006  0.1484120E+04  0.7818608E-02  0.8430064E-01
          4   -1    0    0  502    0  0.00000000000E+00  0.00000000000E+00  0.20999959117E+04  0.20999959117E+04  0.00000000000E+00 0.  1.
         -4   -1    0    0    0  501 -0.00000000000E+00 -0.00000000000E+00 -0.25650445011E+04  0.25650445011E+04  0.00000000000E+00 0. -1.
   -9000010    2    1    2    0  501 -0.56743466480E+03  0.88169235221E+03 -0.20404377063E+04  0.25006786696E+04  0.99531114368E+03 0.  0.
    9000010    2    1    2  502    0  0.56743466480E+03 -0.88169235221E+03  0.15753891169E+04  0.21643617432E+04  0.10503558364E+04 0.  0.
        -13    1    4    4    0    0  0.80299372603E+03 -0.77148121626E+03  0.15421803296E+04  0.19021835798E+04  0.10566000000E+00 0.  1.
          4    1    4    4  502    0 -0.23555906123E+03 -0.11021113595E+03  0.33208787302E+02  0.26217816341E+03  0.00000000000E+00 0.  1.
         13    1    3    3    0    0 -0.41378610757E+02 -0.20821739811E+03 -0.48860095636E+03  0.53272655276E+03  0.10566000000E+00 0. -1.
         -4    1    3    3    0  501 -0.52605605404E+03  0.10899097503E+04 -0.15518367499E+04  0.19679521168E+04  0.00000000000E+00 0. -1.
<mgrwt>
<rscale>  0 0.14647767E+04</rscale>
<asrwt>0</asrwt>
<pdfrwt beam="1">  1        4 0.32307629E+00 0.14841196E+04</pdfrwt>
<pdfrwt beam="2">  1       -4 0.39462223E+00 0.14456859E+04</pdfrwt>
<totfact> 0.23162683E-02</totfact>
</mgrwt>
</event>
<event>
 8    1  0.3025584E-006  0.1207538E+04  0.7818608E-02  0.8601000E-01
          4   -1    0    0  502    0  0.00000000000E+00  0.00000000000E+00  0.21450459138E+04  0.21450459138E+04  0.00000000000E+00 0.  1.
         -4   -1    0    0    0  501 -0.00000000000E+00 -0.00000000000E+00 -0.14577927796E+04  0.14577927796E+04  0.00000000000E+00 0. -1.
   -9000010    2    1    2    0  501 -0.66325144018E+03  0.15020811519E+03 -0.97249216382E+03  0.15504480274E+04  0.99783922861E+03 0.  0.
    9000010    2    1    2  502    0  0.66325144018E+03 -0.15020811519E+03  0.16597452980E+04  0.20523906661E+04  0.99754099726E+03 0.  0.
        -13    1    4    4    0    0  0.59183832537E+02  0.39143336297E+03  0.53401477415E+03  0.66475152790E+03  0.10566000000E+00 0.  1.
          4    1    4    4  502    0  0.60406760764E+03 -0.54164147816E+03  0.11257305238E+04  0.13876391382E+04  0.00000000000E+00 0.  1.
         13    1    3    3    0    0 -0.41272756643E+03 -0.21363167452E+03  0.18865988371E+02  0.46512199811E+03  0.10566000000E+00 0. -1.
         -4    1    3    3    0  501 -0.25052387375E+03  0.36383978971E+03 -0.99135815220E+03  0.10853260293E+04  0.00000000000E+00 0. -1.
<mgrwt>
<rscale>  0 0.12074148E+04</rscale>
<asrwt>0</asrwt>
<pdfrwt beam="1">  1        4 0.33000706E+00 0.12072916E+04</pdfrwt>
<pdfrwt beam="2">  1       -4 0.22427581E+00 0.12075380E+04</pdfrwt>
<totfact> 0.72075409E-02</totfact>
</mgrwt>
</event>
<event>
 8    1  0.3025584E-006  0.1138318E+04  0.7818608E-02  0.8671876E-01
         -4   -1    0    0    0  501 -0.00000000000E+00  0.00000000000E+00  0.35725063276E+04  0.35725063276E+04  0.00000000000E+00 0. -1.
          4   -1    0    0  502    0  0.00000000000E+00 -0.00000000000E+00 -0.57549996680E+03  0.57549996680E+03  0.00000000000E+00 0.  1.
   -9000010    2    1    2    0  501 -0.43610747820E+03 -0.96858323686E+02  0.28157641666E+04  0.30371527249E+04  0.10469945391E+04 0.  0.
    9000010    2    1    2  502    0  0.43610747820E+03  0.96858323686E+02  0.18124219420E+03  0.11108535695E+04  0.10007875162E+04 0.  0.
        -13    1    4    4    0    0  0.35859202201E+03 -0.19556670388E+03 -0.32441196726E+03  0.52161068775E+03  0.10566000000E+00 0.  1.
          4    1    4    4  502    0  0.77515456188E+02  0.29242502757E+03  0.50565416146E+03  0.58924288175E+03  0.00000000000E+00 0.  1.
         13    1    3    3    0    0  0.11376478983E+03 -0.41656763122E+03  0.16882570687E+04  0.17426080914E+04  0.10566000000E+00 0. -1.
         -4    1    3    3    0  501 -0.54987226803E+03  0.31970930753E+03  0.11275070979E+04  0.12945446336E+04  0.00000000000E+00 0. -1.
<mgrwt>
<rscale>  0 0.11169428E+04</rscale>
<asrwt>0</asrwt>
<pdfrwt beam="2">  1        4 0.88538458E-01 0.10959685E+04</pdfrwt>
<pdfrwt beam="1">  1       -4 0.54961635E+00 0.11383184E+04</pdfrwt>
<totfact> 0.36555905E-02</totfact>
</mgrwt>
</event>
<event>
 8    1  0.3025584E-006  0.1091618E+04  0.7818608E-02  0.8705386E-01
          4   -1    0    0  502    0  0.00000000000E+00  0.00000000000E+00  0.21210154086E+04  0.21210154086E+04  0.00000000000E+00 0.  1.
         -4   -1    0    0    0  501 -0.00000000000E+00 -0.00000000000E+00 -0.19337139664E+04  0.19337139664E+04  0.00000000000E+00 0. -1.
   -9000010    2    1    2    0  501 -0.43227683118E+02 -0.33951725875E+03 -0.16227732137E+04  0.19557667282E+04  0.10365760901E+04 0.  0.
    9000010    2    1    2  502    0  0.43227683118E+02  0.33951725875E+03  0.18100746559E+04  0.20989626468E+04  0.10060483740E+04 0.  0.
        -13    1    4    4    0    0  0.52587805557E+02  0.51484253943E+03  0.34175103676E+03  0.62017908703E+03  0.10566000000E+00 0.  1.
          4    1    4    4  502    0 -0.93601224391E+01 -0.17532528067E+03  0.14683236192E+04  0.14787835597E+04  0.00000000000E+00 0.  1.
         13    1    3    3    0    0 -0.21424410691E+03 -0.45561923206E+03 -0.24022296801E+03  0.55784989692E+03  0.10566000000E+00 0. -1.
         -4    1    3    3    0  501  0.17101642380E+03  0.11610197331E+03 -0.13825502457E+04  0.13979168313E+04  0.00000000000E+00 0. -1.
<mgrwt>
<rscale>  0 0.10770484E+04</rscale>
<asrwt>0</asrwt>
<pdfrwt beam="1">  1        4 0.32631006E+00 0.10626730E+04</pdfrwt>
<pdfrwt beam="2">  1       -4 0.29749446E+00 0.10916183E+04</pdfrwt>
<totfact> 0.49464730E-02</totfact>
</mgrwt>
</event>
<event>
 8    1  0.3025584E-006  0.1078410E+04  0.7818608E-02  0.8706606E-01
          4   -1    0    0  502    0  0.00000000000E+00  0.00000000000E+00  0.14088431515E+04  0.14088431515E+04  0.00000000000E+00 0.  1.
         -4   -1    0    0    0  501 -0.00000000000E+00 -0.00000000000E+00 -0.28053282231E+04  0.28053282231E+04  0.00000000000E+00 0. -1.
   -9000010    2    1    2    0  501 -0.21808336508E+03  0.44210481710E+03 -0.24708016055E+04  0.26958911344E+04  0.95914097594E+03 0.  0.
    9000010    2    1    2  502    0  0.21808336508E+03 -0.44210481710E+03  0.10743165338E+04  0.15182802401E+04  0.95289131032E+03 0.  0.
        -13    1    4    4    0    0  0.53592873884E+02 -0.39045718276E+03  0.12265293525E+04  0.12882947145E+04  0.10566000000E+00 0.  1.
          4    1    4    4  502    0  0.16449049120E+03 -0.51647634340E+02 -0.15221281868E+03  0.22998552563E+03  0.00000000000E+00 0.  1.
         13    1    3    3    0    0 -0.48648398608E+03 -0.27172002157E+02 -0.76974478391E+03  0.91099507679E+03  0.10566000000E+00 0. -1.
         -4    1    3    3    0  501  0.26840062100E+03  0.46927681925E+03 -0.17010568216E+04  0.17848960577E+04  0.00000000000E+00 0. -1.
<mgrwt>
<rscale>  0 0.10756292E+04</rscale>
<asrwt>0</asrwt>
<pdfrwt beam="1">  1        4 0.21674510E+00 0.10728555E+04</pdfrwt>
<pdfrwt beam="2">  1       -4 0.43158895E+00 0.10784101E+04</pdfrwt>
<totfact> 0.31971657E-02</totfact>
</mgrwt>
</event>
<event>
 8    1  0.3025584E-006  0.1452483E+04  0.7818608E-02  0.8445085E-01
         -4   -1    0    0    0  501 -0.00000000000E+00  0.00000000000E+00  0.17593573693E+04  0.17593573693E+04  0.00000000000E+00 0. -1.
          4   -1    0    0  502    0  0.00000000000E+00 -0.00000000000E+00 -0.22564306923E+04  0.22564306923E+04  0.00000000000E+00 0.  1.
   -9000010    2    1    2    0  501 -0.80894593116E+03 -0.60266859501E+03  0.11405894095E+04  0.18268049176E+04  0.10092913609E+04 0.  0.
    9000010    2    1    2  502    0  0.80894593116E+03  0.60266859501E+03 -0.16376627324E+04  0.21889831439E+04  0.10450382884E+04 0.  0.
        -13    1    4    4    0    0  0.10323721921E+04  0.46146028118E+03 -0.10436110330E+04  0.15387858634E+04  0.10566000000E+00 0.  1.
          4    1    4    4  502    0 -0.22342626092E+03  0.14120831384E+03 -0.59405169945E+03  0.65019728051E+03  0.00000000000E+00 0.  1.
         13    1    3    3    0    0 -0.85815962475E+03 -0.67273656237E+03  0.12685800290E+04  0.16728143128E+04  0.10566000000E+00 0. -1.
         -4    1    3    3    0  501  0.49213693583E+02  0.70067967356E+02 -0.12799061956E+03  0.15399060485E+03  0.00000000000E+00 0. -1.
<mgrwt>
<rscale>  0 0.14396752E+04</rscale>
<asrwt>0</asrwt>
<pdfrwt beam="2">  1        4 0.34714318E+00 0.14524834E+04</pdfrwt>
<pdfrwt beam="1">  1       -4 0.27067037E+00 0.14269800E+04</pdfrwt>
<totfact> 0.48360394E-02</totfact>
</mgrwt>
</event>
<event>
 8    1  0.3025584E-006  0.1390623E+04  0.7818608E-02  0.8487211E-01
          4   -1    0    0  502    0  0.00000000000E+00  0.00000000000E+00  0.27268633100E+04  0.27268633100E+04  0.00000000000E+00 0.  1.
         -4   -1    0    0    0  501 -0.00000000000E+00 -0.00000000000E+00 -0.15014091756E+04  0.15014091756E+04  0.00000000000E+00 0. -1.
   -9000010    2    1    2    0  501 -0.88978619889E+03  0.39822373032E+03 -0.93719068807E+03  0.16769490026E+04  0.99173078622E+03 0.  0.
    9000010    2    1    2  502    0  0.88978619889E+03 -0.39822373032E+03  0.21626448224E+04  0.25513234830E+04  0.93910450299E+03 0.  0.
        -13    1    4    4    0    0 -0.11939798044E+03  0.12346451823E+03  0.10617030325E+03  0.20191956184E+03  0.10566000000E+00 0.  1.
          4    1    4    4  502    0  0.10091841793E+04 -0.52168824855E+03  0.20564745192E+04  0.23494039211E+04  0.00000000000E+00 0.  1.
         13    1    3    3    0    0 -0.42397862053E+02  0.40372809165E+03 -0.67897360197E+03  0.79107465768E+03  0.10566000000E+00 0. -1.
         -4    1    3    3    0  501 -0.84738833683E+03 -0.55043613337E+01 -0.25821708610E+03  0.88587434490E+03  0.00000000000E+00 0. -1.
<mgrwt>
<rscale>  0 0.13719839E+04</rscale>
<asrwt>0</asrwt>
<pdfrwt beam="1">  1        4 0.41951743E+00 0.13535948E+04</pdfrwt>
<pdfrwt beam="2">  1       -4 0.23098603E+00 0.13906227E+04</pdfrwt>
<totfact> 0.32030725E-02</totfact>
</mgrwt>
</event>
<event>
 8    1  0.3025584E-006  0.1429842E+04  0.7818608E-02  0.8459837E-01
          4   -1    0    0  502    0  0.00000000000E+00  0.00000000000E+00  0.17337004558E+04  0.17337004558E+04  0.00000000000E+00 0.  1.
         -4   -1    0    0    0  501 -0.00000000000E+00 -0.00000000000E+00 -0.25422472464E+04  0.25422472464E+04  0.00000000000E+00 0. -1.
   -9000010    2    1    2    0  501 -0.10386454711E+03  0.10097734623E+04 -0.19849181894E+04  0.24462926820E+04  0.10069842988E+04 0.  0.
    9000010    2    1    2  502    0  0.10386454711E+03 -0.10097734623E+04  0.11763713987E+04  0.18296550202E+04  0.96610430895E+03 0.  0.
        -13    1    4    4    0    0 -0.20747021677E+03 -0.99348823154E+03  0.11224598206E+04  0.15132675960E+04  0.10566000000E+00 0.  1.
          4    1    4    4  502    0  0.31133476388E+03 -0.16285230805E+02  0.53911578143E+02  0.31638742421E+03  0.00000000000E+00 0.  1.
         13    1    3    3    0    0 -0.31705287027E+03  0.14142406306E+03 -0.10196632745E+03  0.36182928468E+03  0.10566000000E+00 0. -1.
         -4    1    3    3    0  501  0.21318832315E+03  0.86834939929E+03 -0.18829518619E+04  0.20844633973E+04  0.00000000000E+00 0. -1.
<mgrwt>
<rscale>  0 0.14155253E+04</rscale>
<asrwt>0</asrwt>
<pdfrwt beam="1">  1        4 0.26672315E+00 0.14013521E+04</pdfrwt>
<pdfrwt beam="2">  1       -4 0.39111496E+00 0.14298418E+04</pdfrwt>
<totfact> 0.34077353E-02</totfact>
</mgrwt>
</event>
<event>
 8    1  0.3025584E-006  0.1260362E+04  0.7818608E-02  0.8566455E-01
          4   -1    0    0  502    0  0.00000000000E+00  0.00000000000E+00  0.15569993068E+04  0.15569993068E+04  0.00000000000E+00 0.  1.
         -4   -1    0    0    0  501 -0.00000000000E+00 -0.00000000000E+00 -0.15787782795E+04  0.15787782795E+04  0.00000000000E+00 0. -1.
   -9000010    2    1    2    0  501  0.34010983527E+03 -0.68835405300E+03 -0.95104027549E+03  0.15789202135E+04  0.99950259258E+03 0.  0.
    9000010    2    1    2  502    0 -0.34010983527E+03  0.68835405300E+03  0.92926130283E+03  0.15568573728E+04  0.98527778212E+03 0.  0.
        -13    1    4    4    0    0  0.10241397276E+03 -0.21569219481E+03  0.13206850841E+03  0.27286232205E+03  0.10566000000E+00 0.  1.
          4    1    4    4  502    0 -0.44252380803E+03  0.90404624781E+03  0.79719279442E+03  0.12839950507E+04  0.00000000000E+00 0.  1.
         13    1    3    3    0    0  0.32803447500E+03 -0.23159204605E+03  0.11616445842E+03  0.41801397721E+03  0.10566000000E+00 0. -1.
         -4    1    3    3    0  501  0.12075360271E+02 -0.45676200695E+03 -0.10672047339E+04  0.11609062363E+04  0.00000000000E+00 0. -1.
<mgrwt>
<rscale>  0 0.12547237E+04</rscale>
<asrwt>0</asrwt>
<pdfrwt beam="1">  1        4 0.23953835E+00 0.12491110E+04</pdfrwt>
<pdfrwt beam="2">  1       -4 0.24288897E+00 0.12603616E+04</pdfrwt>
<totfact> 0.11100700E-01</totfact>
</mgrwt>
</event>
<event>
 8    1  0.3025584E-006  0.1180962E+04  0.7818608E-02  0.8625439E-01
          4   -1    0    0  502    0  0.00000000000E+00  0.00000000000E+00  0.15696079359E+04  0.15696079359E+04  0.00000000000E+00 0.  1.
         -4   -1    0    0    0  501 -0.00000000000E+00 -0.00000000000E+00 -0.25153452234E+04  0.25153452234E+04  0.00000000000E+00 0. -1.
   -9000010    2    1    2    0  501 -0.34603501824E+03  0.52350153596E+03 -0.21205542563E+04  0.24272252428E+04  0.10004388703E+04 0.  0.
    9000010    2    1    2  502    0  0.34603501824E+03 -0.52350153596E+03  0.11748169689E+04  0.16577279166E+04  0.98695128704E+03 0.  0.
        -13    1    4    4    0    0  0.41529947667E+03 -0.59465660858E+03  0.31260691222E+03  0.78981847926E+03  0.10566000000E+00 0.  1.
          4    1    4    4  502    0 -0.69264458432E+02  0.71155072621E+02  0.86221005664E+03  0.86790943729E+03  0.00000000000E+00 0.  1.
         13    1    3    3    0    0 -0.46324189517E+03 -0.48487783069E+02 -0.41264504278E+03  0.62227008690E+03  0.10566000000E+00 0. -1.
         -4    1    3    3    0  501  0.11720687693E+03  0.57198931903E+03 -0.17079092135E+04  0.18049551559E+04  0.00000000000E+00 0. -1.
<mgrwt>
<rscale>  0 0.11752466E+04</rscale>
<asrwt>0</asrwt>
<pdfrwt beam="1">  1        4 0.24147815E+00 0.11695584E+04</pdfrwt>
<pdfrwt beam="2">  1       -4 0.38697618E+00 0.11809623E+04</pdfrwt>
<totfact> 0.41686739E-02</totfact>
</mgrwt>
</event>
<event>
 8    1  0.3025584E-006  0.1212712E+04  0.7818608E-02  0.8598293E-01
         -4   -1    0    0    0  501 -0.00000000000E+00  0.00000000000E+00  0.48046602750E+04  0.48046602750E+04  0.00000000000E+00 0. -1.
          4   -1    0    0  502    0  0.00000000000E+00 -0.00000000000E+00 -0.10626799597E+04  0.10626799597E+04  0.00000000000E+00 0.  1.
   -9000010    2    1    2    0  501 -0.26767598502E+03 -0.67677055386E+03  0.43484723896E+04  0.45144083265E+04  0.97005236977E+03 0.  0.
    9000010    2    1    2  502    0  0.26767598502E+03  0.67677055386E+03 -0.60649207426E+03  0.13529319081E+04  0.96587954549E+03 0.  0.
        -13    1    4    4    0    0 -0.35459283176E+03  0.19509433204E+03 -0.31835952770E+03  0.51492783453E+03  0.10566000000E+00 0.  1.
          4    1    4    4  502    0  0.62226881678E+03  0.48167622182E+03 -0.28813254655E+03  0.83800407361E+03  0.00000000000E+00 0.  1.
         13    1    3    3    0    0 -0.42143099229E+03 -0.86660002117E+03  0.32975499189E+04  0.34354672399E+04  0.10566000000E+00 0. -1.
         -4    1    3    3    0  501  0.15375500727E+03  0.18982946730E+03  0.10509224707E+04  0.10789410866E+04  0.00000000000E+00 0. -1.
<mgrwt>
<rscale>  0 0.12110432E+04</rscale>
<asrwt>0</asrwt>
<pdfrwt beam="2">  1        4 0.16348923E+00 0.12093767E+04</pdfrwt>
<pdfrwt beam="1">  1       -4 0.73917849E+00 0.12127120E+04</pdfrwt>
<totfact> 0.13213325E-03</totfact>
</mgrwt>
</event>
<event>
 8    1  0.3025584E-006  0.1276796E+04  0.7818608E-02  0.8554032E-01
          4   -1    0    0  502    0  0.00000000000E+00  0.00000000000E+00  0.10587019553E+04  0.10587019553E+04  0.00000000000E+00 0.  1.
         -4   -1    0    0    0  501 -0.00000000000E+00 -0.00000000000E+00 -0.20882939135E+04  0.20882939135E+04  0.00000000000E+00 0. -1.
   -9000010    2    1    2    0  501 -0.10303780937E+02 -0.80618741764E+03 -0.13304582341E+04  0.18439977482E+04  0.99003245525E+03 0.  0.
    9000010    2    1    2  502    0  0.10303780937E+02  0.80618741764E+03  0.30086627599E+03  0.13029981206E+04  0.97838605161E+03 0.  0.
        -13    1    4    4    0    0  0.24214579553E+03  0.68575040095E+03 -0.18582954707E+03  0.75061363592E+03  0.10566000000E+00 0.  1.
          4    1    4    4  502    0 -0.23184201459E+03  0.12043701668E+03  0.48669582306E+03  0.55238448467E+03  0.00000000000E+00 0.  1.
         13    1    3    3    0    0 -0.14560710569E+03 -0.81250546794E+03 -0.14466219892E+04  0.16655574909E+04  0.10566000000E+00 0. -1.
         -4    1    3    3    0  501  0.13530332476E+03  0.63180503012E+01  0.11616375507E+03  0.17844025734E+03  0.00000000000E+00 0. -1.
<mgrwt>
<rscale>  0 0.12722836E+04</rscale>
<asrwt>0</asrwt>
<pdfrwt beam="1">  1        4 0.16287722E+00 0.12677869E+04</pdfrwt>
<pdfrwt beam="2">  1       -4 0.32127599E+00 0.12767962E+04</pdfrwt>
<totfact> 0.11663424E-01</totfact>
</mgrwt>
</event>
<event>
 8    1  0.3025584E-006  0.1035700E+04  0.7818608E-02  0.8747803E-01
          4   -1    0    0  502    0  0.00000000000E+00  0.00000000000E+00  0.20430505126E+04  0.20430505126E+04  0.00000000000E+00 0.  1.
         -4   -1    0    0    0  501 -0.00000000000E+00 -0.00000000000E+00 -0.67710910892E+03  0.67710910892E+03  0.00000000000E+00 0. -1.
   -9000010    2    1    2    0  501  0.11719987706E+03  0.20848789576E+03  0.27681883211E+02  0.10360702380E+04  0.10077064243E+04 0.  0.
    9000010    2    1    2  502    0 -0.11719987706E+03 -0.20848789576E+03  0.13382595204E+04  0.16840893835E+04  0.99398968493E+03 0.  0.
        -13    1    4    4    0    0 -0.33352982007E+03 -0.83983463021E+02  0.22294604116E+02  0.34466276775E+03  0.10566000000E+00 0.  1.
          4    1    4    4  502    0  0.21632994301E+03 -0.12450443273E+03  0.13159649163E+04  0.13394266157E+04  0.00000000000E+00 0.  1.
         13    1    3    3    0    0 -0.21703829860E+03 -0.32129021385E+03  0.11306091271E+03  0.40387597814E+03  0.10566000000E+00 0. -1.
         -4    1    3    3    0  501  0.33423817566E+03  0.52977810961E+03 -0.85379029499E+02  0.63219425983E+03  0.00000000000E+00 0. -1.
<mgrwt>
<rscale>  0 0.10290082E+04</rscale>
<asrwt>0</asrwt>
<pdfrwt beam="1">  1        4 0.31431546E+00 0.10223593E+04</pdfrwt>
<pdfrwt beam="2">  1       -4 0.10417063E+00 0.10357004E+04</pdfrwt>
<totfact> 0.25458419E-01</totfact>
</mgrwt>
</event>
<event>
 8    1  0.3025584E-006  0.1173349E+04  0.7818608E-02  0.8662598E-01
         -4   -1    0    0    0  501 -0.00000000000E+00  0.00000000000E+00  0.10108752431E+04  0.10108752431E+04  0.00000000000E+00 0. -1.
          4   -1    0    0  502    0  0.00000000000E+00 -0.00000000000E+00 -0.22005075289E+04  0.22005075289E+04  0.00000000000E+00 0.  1.
   -9000010    2    1    2    0  501  0.39797560231E+03 -0.11898014484E+03  0.46707240049E+03  0.11812551764E+04  0.10023304393E+04 0.  0.
    9000010    2    1    2  502    0 -0.39797560231E+03  0.11898014484E+03 -0.16567046863E+04  0.20301275956E+04  0.10973635597E+04 0.  0.
        -13    1    4    4    0    0  0.12611854125E+03  0.11724662458E+03 -0.14603312727E+04  0.14704489432E+04  0.10566000000E+00 0.  1.
          4    1    4    4  502    0 -0.52409414356E+03  0.17335202619E+01 -0.19637341356E+03  0.55967865241E+03  0.00000000000E+00 0.  1.
         13    1    3    3    0    0  0.19318287755E+03 -0.54085007272E+03  0.41679568103E+03  0.70961755632E+03  0.10566000000E+00 0. -1.
         -4    1    3    3    0  501  0.20479272476E+03  0.42186992788E+03  0.50276719460E+02  0.47163762009E+03  0.00000000000E+00 0. -1.
<mgrwt>
<rscale>  0 0.11283058E+04</rscale>
<asrwt>0</asrwt>
<pdfrwt beam="2">  1        4 0.33853962E+00 0.11733489E+04</pdfrwt>
<pdfrwt beam="1">  1       -4 0.15551927E+00 0.10849918E+04</pdfrwt>
<totfact> 0.11187086E-01</totfact>
</mgrwt>
</event>
<event>
 8    1  0.3025584E-006  0.1210333E+04  0.7818608E-02  0.8608700E-01
          4   -1    0    0  502    0  0.00000000000E+00  0.00000000000E+00  0.21358240454E+04  0.21358240454E+04  0.00000000000E+00 0.  1.
         -4   -1    0    0    0  501 -0.00000000000E+00 -0.00000000000E+00 -0.14462389620E+04  0.14462389620E+04  0.00000000000E+00 0. -1.
   -9000010    2    1    2    0  501 -0.64993732989E+03 -0.64213331229E+02 -0.96812399992E+03  0.15295265021E+04  0.98774761796E+03 0.  0.
    9000010    2    1    2  502    0  0.64993732989E+03  0.64213331229E+02  0.16577090833E+04  0.20525365053E+04  0.10190018725E+04 0.  0.
        -13    1    4    4    0    0 -0.43526970205E+01 -0.40509612030E+03  0.55952400256E+03  0.69078863139E+03  0.10566000000E+00 0.  1.
          4    1    4    4  502    0  0.65429002692E+03  0.46930945153E+03  0.10981850807E+04  0.13617478739E+04  0.00000000000E+00 0.  1.
         13    1    3    3    0    0 -0.56015348379E+03  0.41423531307E+03 -0.59493650472E+03  0.91613987786E+03  0.10566000000E+00 0. -1.
         -4    1    3    3    0  501 -0.89783846107E+02 -0.47844864430E+03 -0.37318749520E+03  0.61338662427E+03  0.00000000000E+00 0. -1.
<mgrwt>
<rscale>  0 0.11971650E+04</rscale>
<asrwt>0</asrwt>
<pdfrwt beam="1">  1        4 0.32858832E+00 0.12103333E+04</pdfrwt>
<pdfrwt beam="2">  1       -4 0.22249830E+00 0.11841399E+04</pdfrwt>
<totfact> 0.73566124E-02</totfact>
</mgrwt>
</event>
<event>
 8    1  0.3025584E-006  0.1019079E+04  0.7818608E-02  0.8758573E-01
         -4   -1    0    0    0  501 -0.00000000000E+00  0.00000000000E+00  0.16903395596E+04  0.16903395596E+04  0.00000000000E+00 0. -1.
          4   -1    0    0  502    0  0.00000000000E+00 -0.00000000000E+00 -0.17054018222E+04  0.17054018222E+04  0.00000000000E+00 0.  1.
   -9000010    2    1    2    0  501  0.97834081477E+02 -0.43140402541E+01  0.13518822675E+04  0.16907311028E+04  0.10106413203E+04 0.  0.
    9000010    2    1    2  502    0 -0.97834081477E+02  0.43140402541E+01 -0.13669445302E+04  0.17050102790E+04  0.10143631423E+04 0.  0.
        -13    1    4    4    0    0  0.20630465595E+03  0.32255295304E+03 -0.11542889409E+04  0.12161352675E+04  0.10566000000E+00 0.  1.
          4    1    4    4  502    0 -0.30413873743E+03 -0.31823891279E+03 -0.21265558928E+03  0.48887501150E+03  0.00000000000E+00 0.  1.
         13    1    3    3    0    0 -0.35036370773E+03 -0.26380291622E+03  0.90908073076E+03  0.10093435949E+04  0.10566000000E+00 0. -1.
         -4    1    3    3    0  501  0.44819778920E+03  0.25948887597E+03  0.44280153676E+03  0.68138750792E+03  0.00000000000E+00 0. -1.
<mgrwt>
<rscale>  0 0.10172254E+04</rscale>
<asrwt>0</asrwt>
<pdfrwt beam="2">  1        4 0.26236951E+00 0.10190793E+04</pdfrwt>
<pdfrwt beam="1">  1       -4 0.26005224E+00 0.10153748E+04</pdfrwt>
<totfact> 0.90771690E-02</totfact>
</mgrwt>
</event>
<event>
 8    1  0.3025584E-006  0.1023913E+04  0.7818608E-02  0.8754667E-01
          4   -1    0    0  502    0  0.00000000000E+00  0.00000000000E+00  0.73187242580E+03  0.73187242580E+03  0.00000000000E+00 0.  1.
         -4   -1    0    0    0  501 -0.00000000000E+00 -0.00000000000E+00 -0.14652802158E+04  0.14652802158E+04  0.00000000000E+00 0. -1.
   -9000010    2    1    2    0  501 -0.79334421212E+02  0.24095490214E+03 -0.54642110639E+03  0.11563055914E+04  0.98697182331E+03 0.  0.
    9000010    2    1    2  502    0  0.79334421212E+02 -0.24095490214E+03 -0.18698668362E+03  0.10408470502E+04  0.99199059812E+03 0.  0.
        -13    1    4    4    0    0  0.58137152207E+02 -0.62595312080E+03 -0.46109145319E+02  0.63033586472E+03  0.10566000000E+00 0.  1.
          4    1    4    4  502    0  0.21197269005E+02  0.38499821866E+03 -0.14087753830E+03  0.41051118546E+03  0.00000000000E+00 0.  1.
         13    1    3    3    0    0  0.35043775253E+03 -0.73617495418E+02 -0.50907377777E+03  0.62240041485E+03  0.10566000000E+00 0. -1.
         -4    1    3    3    0  501 -0.42977217374E+03  0.31457239756E+03 -0.37347328623E+02  0.53390517658E+03  0.00000000000E+00 0. -1.
<mgrwt>
<rscale>  0 0.10214797E+04</rscale>
<asrwt>0</asrwt>
<pdfrwt beam="1">  1        4 0.11259576E+00 0.10239134E+04</pdfrwt>
<pdfrwt beam="2">  1       -4 0.22542772E+00 0.10190518E+04</pdfrwt>
<totfact> 0.36836346E-01</totfact>
</mgrwt>
</event>
<event>
 8    1  0.3025584E-006  0.1294936E+04  0.7818608E-02  0.8549198E-01
          4   -1    0    0  502    0  0.00000000000E+00  0.00000000000E+00  0.13073780855E+04  0.13073780855E+04  0.00000000000E+00 0.  1.
         -4   -1    0    0    0  501 -0.00000000000E+00 -0.00000000000E+00 -0.23865480706E+04  0.23865480706E+04  0.00000000000E+00 0. -1.
   -9000010    2    1    2    0  501 -0.18983650380E+03 -0.74095837491E+03 -0.18165598319E+04  0.22308629213E+04  0.10448935541E+04 0.  0.
    9000010    2    1    2  502    0  0.18983650380E+03  0.74095837491E+03  0.73738984672E+03  0.14630632347E+04  0.10058593497E+04 0.  0.
        -13    1    4    4    0    0 -0.19881464686E+03  0.19213300468E+03  0.74062965469E+03  0.79055338331E+03  0.10566000000E+00 0.  1.
          4    1    4    4  502    0  0.38865115066E+03  0.54882537023E+03 -0.32398079698E+01  0.67250985144E+03  0.00000000000E+00 0.  1.
         13    1    3    3    0    0 -0.30097048940E+03 -0.64711242803E+03 -0.19226452806E+04  0.20508297385E+04  0.10566000000E+00 0. -1.
         -4    1    3    3    0  501  0.11113398560E+03 -0.93845946879E+02  0.10608544872E+03  0.18003318286E+03  0.00000000000E+00 0. -1.
<mgrwt>
<rscale>  0 0.12791972E+04</rscale>
<asrwt>0</asrwt>
<pdfrwt beam="1">  1        4 0.20113509E+00 0.12636496E+04</pdfrwt>
<pdfrwt beam="2">  1       -4 0.36716124E+00 0.12949362E+04</pdfrwt>
<totfact> 0.62048484E-02</totfact>
</mgrwt>
</event>
<event>
 8    1  0.3025584E-006  0.1050384E+04  0.7818608E-02  0.8738869E-01
          4   -1    0    0  502    0  0.00000000000E+00  0.00000000000E+00  0.16011104187E+04  0.16011104187E+04  0.00000000000E+00 0.  1.
         -4   -1    0    0    0  501 -0.00000000000E+00 -0.00000000000E+00 -0.16025535106E+04  0.16025535106E+04  0.00000000000E+00 0. -1.
   -9000010    2    1    2    0  501  0.23818887624E+03 -0.24581494168E+02 -0.12198694170E+04  0.15949780885E+04  0.99926749061E+03 0.  0.
    9000010    2    1    2  502    0 -0.23818887624E+03  0.24581494168E+02  0.12184263251E+04  0.16086858407E+04  0.10227263729E+04 0.  0.
        -13    1    4    4    0    0  0.39304823943E+03 -0.97521467254E+02  0.41770958170E+03  0.58178918940E+03  0.10566000000E+00 0.  1.
          4    1    4    4  502    0 -0.63123711567E+03  0.12210296142E+03  0.80071674338E+03  0.10268966513E+04  0.00000000000E+00 0.  1.
         13    1    3    3    0    0  0.63039389712E+03 -0.68687480233E+01 -0.67778406834E+03  0.92565376879E+03  0.10566000000E+00 0. -1.
         -4    1    3    3    0  501 -0.39220502088E+03 -0.17712746145E+02 -0.54208534867E+03  0.66932431976E+03  0.00000000000E+00 0. -1.
<mgrwt>
<rscale>  0 0.10389081E+04</rscale>
<asrwt>0</asrwt>
<pdfrwt beam="1">  1        4 0.24632468E+00 0.10503844E+04</pdfrwt>
<pdfrwt beam="2">  1       -4 0.24654670E+00 0.10275572E+04</pdfrwt>
<totfact> 0.10651963E-01</totfact>
</mgrwt>
</event>
<event>
 8    1  0.3025584E-006  0.1350010E+04  0.7818608E-02  0.8525920E-01
         -4   -1    0    0    0  501 -0.00000000000E+00  0.00000000000E+00  0.22832579416E+04  0.22832579416E+04  0.00000000000E+00 0. -1.
          4   -1    0    0  502    0  0.00000000000E+00 -0.00000000000E+00 -0.84004736066E+03  0.84004736066E+03  0.00000000000E+00 0.  1.
   -9000010    2    1    2    0  501  0.80434987884E+03  0.11225024640E+02  0.12340413175E+04  0.18290392636E+04  0.10841687719E+04 0.  0.
    9000010    2    1    2  502    0 -0.80434987884E+03 -0.11225024640E+02  0.20916926349E+03  0.12942660386E+04  0.99210285214E+03 0.  0.
        -13    1    4    4    0    0 -0.19205144211E+03 -0.19395623635E+03 -0.35090921791E+03  0.44456728221E+03  0.10566000000E+00 0.  1.
          4    1    4    4  502    0 -0.61229843673E+03  0.18273121171E+03  0.56007848140E+03  0.84969875643E+03  0.00000000000E+00 0.  1.
         13    1    3    3    0    0  0.49120671996E+03  0.42236119764E+03  0.20834707738E+03  0.68050094697E+03  0.10566000000E+00 0. -1.
         -4    1    3    3    0  501  0.31314315888E+03 -0.41113617300E+03  0.10256942401E+04  0.11485383167E+04  0.00000000000E+00 0. -1.
<mgrwt>
<rscale>  0 0.13131271E+04</rscale>
<asrwt>0</asrwt>
<pdfrwt beam="2">  1        4 0.12923806E+00 0.12772520E+04</pdfrwt>
<pdfrwt beam="1">  1       -4 0.35127045E+00 0.13500099E+04</pdfrwt>
<totfact> 0.13329109E-01</totfact>
</mgrwt>
</event>
<event>
 8    1  0.3025584E-006  0.1064294E+04  0.7818608E-02  0.8766996E-01
          4   -1    0    0  502    0  0.00000000000E+00  0.00000000000E+00  0.83089484181E+03  0.83089484181E+03  0.00000000000E+00 0.  1.
         -4   -1    0    0    0  501 -0.00000000000E+00 -0.00000000000E+00 -0.30819809573E+04  0.30819809573E+04  0.00000000000E+00 0. -1.
   -9000010    2    1    2    0  501 -0.31062404334E+03 -0.21507612896E+03 -0.26183113105E+04  0.27870093546E+04  0.87699600143E+03 0.  0.
    9000010    2    1    2  502    0  0.31062404334E+03  0.21507612896E+03  0.36722519497E+03  0.11258664445E+04  0.99497531102E+03 0.  0.
        -13    1    4    4    0    0 -0.28767705335E+03  0.49381398073E+02 -0.14043151430E+03  0.32390991166E+03  0.10566000000E+00 0.  1.
          4    1    4    4  502    0  0.59830109669E+03  0.16569473089E+03  0.50765670927E+03  0.80195653287E+03  0.00000000000E+00 0.  1.
         13    1    3    3    0    0 -0.60822708739E+03 -0.19365064576E+03 -0.15130407455E+04  0.16421732768E+04  0.10566000000E+00 0. -1.
         -4    1    3    3    0  501  0.29760304405E+03 -0.21425483201E+02 -0.11052705650E+04  0.11448360778E+04  0.00000000000E+00 0. -1.
<mgrwt>
<rscale>  0 0.10081232E+04</rscale>
<asrwt>0</asrwt>
<pdfrwt beam="1">  1        4 0.12782998E+00 0.10642936E+04</pdfrwt>
<pdfrwt beam="2">  1       -4 0.47415092E+00 0.95491729E+03</pdfrwt>
<totfact> 0.43242084E-02</totfact>
</mgrwt>
</event>
<event>
 8    1  0.3025584E-006  0.1134637E+04  0.7818608E-02  0.8669297E-01
         -4   -1    0    0    0  501 -0.00000000000E+00  0.00000000000E+00  0.66610984779E+03  0.66610984779E+03  0.00000000000E+00 0. -1.
          4   -1    0    0  502    0  0.00000000000E+00 -0.00000000000E+00 -0.32797797838E+04  0.32797797838E+04  0.00000000000E+00 0.  1.
   -9000010    2    1    2    0  501  0.56261637426E+01 -0.49607280712E+03 -0.10042873479E+02  0.11057707254E+04  0.98818427134E+03 0.  0.
    9000010    2    1    2  502    0 -0.56261637426E+01  0.49607280712E+03 -0.26036270625E+04  0.28401189062E+04  0.10204320835E+04 0.  0.
        -13    1    4    4    0    0 -0.18985722208E+03  0.40317787032E+03 -0.32351476274E+03  0.55069045095E+03  0.10566000000E+00 0.  1.
          4    1    4    4  502    0  0.18423105834E+03  0.92894936806E+02 -0.22801122998E+04  0.22894284553E+04  0.00000000000E+00 0.  1.
         13    1    3    3    0    0  0.33295852159E+02 -0.72833853448E+03  0.23594448825E+03  0.76632594063E+03  0.10566000000E+00 0. -1.
         -4    1    3    3    0  501 -0.27669688416E+02  0.23226572736E+03 -0.24598736173E+03  0.33944478475E+03  0.00000000000E+00 0. -1.
<mgrwt>
<rscale>  0 0.11200879E+04</rscale>
<asrwt>0</asrwt>
<pdfrwt beam="2">  1        4 0.50458149E+00 0.11346372E+04</pdfrwt>
<pdfrwt beam="1">  1       -4 0.10247844E+00 0.11057251E+04</pdfrwt>
<totfact> 0.44966838E-02</totfact>
</mgrwt>
</event>
<event>
 8    1  0.3025584E-006  0.1069125E+04  0.7818608E-02  0.8721784E-01
         -4   -1    0    0    0  501 -0.00000000000E+00  0.00000000000E+00  0.10548554225E+04  0.10548554225E+04  0.00000000000E+00 0. -1.
          4   -1    0    0  502    0  0.00000000000E+00 -0.00000000000E+00 -0.33156323418E+04  0.33156323418E+04  0.00000000000E+00 0.  1.
   -9000010    2    1    2    0  501 -0.15446541547E+03 -0.28256928083E+03  0.66761412941E+03  0.12604514043E+04  0.10194724879E+04 0.  0.
    9000010    2    1    2  502    0  0.15446541547E+03  0.28256928083E+03 -0.29283910487E+04  0.31100363601E+04  0.99656764130E+03 0.  0.
        -13    1    4    4    0    0  0.33203922797E+03  0.31048944996E+03 -0.50296512634E+03  0.67795846254E+03  0.10566000000E+00 0.  1.
          4    1    4    4  502    0 -0.17757381250E+03 -0.27920169128E+02 -0.24254259224E+04  0.24320778975E+04  0.00000000000E+00 0.  1.
         13    1    3    3    0    0  0.30182275644E+03 -0.37710261126E+03  0.48316264031E+02  0.48542540957E+03  0.10566000000E+00 0. -1.
         -4    1    3    3    0  501 -0.45628817191E+03  0.94533330429E+02  0.61929786538E+03  0.77502599469E+03  0.00000000000E+00 0. -1.
<mgrwt>
<rscale>  0 0.10581600E+04</rscale>
<asrwt>0</asrwt>
<pdfrwt beam="2">  1        4 0.51009728E+00 0.10473070E+04</pdfrwt>
<pdfrwt beam="1">  1       -4 0.16228545E+00 0.10691254E+04</pdfrwt>
<totfact> 0.20341087E-02</totfact>
</mgrwt>
</event>
<event>
 8    1  0.3025584E-006  0.1122390E+04  0.7818608E-02  0.8675445E-01
          4   -1    0    0  502    0  0.00000000000E+00  0.00000000000E+00  0.32019360709E+04  0.32019360709E+04  0.00000000000E+00 0.  1.
         -4   -1    0    0    0  501 -0.00000000000E+00 -0.00000000000E+00 -0.10349986381E+04  0.10349986381E+04  0.00000000000E+00 0. -1.
   -9000010    2    1    2    0  501 -0.35554847962E+03  0.30143555572E+03 -0.59676705553E+03  0.12540128628E+04  0.99956952023E+03 0.  0.
    9000010    2    1    2  502    0  0.35554847962E+03 -0.30143555572E+03  0.27637044883E+04  0.29829218463E+04  0.10210201402E+04 0.  0.
        -13    1    4    4    0    0  0.37056855769E+03 -0.64262060417E+03  0.22219425789E+04  0.23425010420E+04  0.10566000000E+00 0.  1.
          4    1    4    4  502    0 -0.15020078076E+02  0.34118504846E+03  0.54176190944E+03  0.64042080428E+03  0.00000000000E+00 0.  1.
         13    1    3    3    0    0  0.18100790007E+03 -0.62660411656E+02  0.16558275127E+03  0.25319527199E+03  0.10566000000E+00 0. -1.
         -4    1    3    3    0  501 -0.53655637969E+03  0.36409596737E+03 -0.76234980680E+03  0.10008175908E+04  0.00000000000E+00 0. -1.
<mgrwt>
<rscale>  0 0.11126091E+04</rscale>
<asrwt>0</asrwt>
<pdfrwt beam="1">  1        4 0.49260555E+00 0.11223904E+04</pdfrwt>
<pdfrwt beam="2">  1       -4 0.15923056E+00 0.11029131E+04</pdfrwt>
<totfact> 0.24978676E-02</totfact>
</mgrwt>
</event>
<event>
 8    1  0.3025584E-006  0.1194685E+04  0.7818608E-02  0.8612572E-01
         -4   -1    0    0    0  501 -0.00000000000E+00  0.00000000000E+00  0.30292850105E+04  0.30292850105E+04  0.00000000000E+00 0. -1.
          4   -1    0    0  502    0  0.00000000000E+00 -0.00000000000E+00 -0.41795890723E+04  0.41795890723E+04  0.00000000000E+00 0.  1.
   -9000010    2    1    2    0  501 -0.62449974884E+03  0.17193365606E+03  0.28211410789E+04  0.30616281625E+04  0.99758152549E+03 0.  0.
    9000010    2    1    2  502    0  0.62449974884E+03 -0.17193365606E+03 -0.39714451407E+04  0.41472459203E+04  0.10038481455E+04 0.  0.
        -13    1    4    4    0    0  0.76587017933E+03 -0.72087390571E+02 -0.38719187397E+04  0.39475952758E+04  0.10566000000E+00 0.  1.
          4    1    4    4  502    0 -0.14137043050E+03 -0.99846265486E+02 -0.99526401031E+02  0.19965064451E+03  0.00000000000E+00 0.  1.
         13    1    3    3    0    0  0.67371943920E+02  0.39030272230E+03  0.55251562762E+03  0.67981521297E+03  0.10566000000E+00 0. -1.
         -4    1    3    3    0  501 -0.69187169276E+03 -0.21836906625E+03  0.22686254513E+04  0.23818129495E+04  0.00000000000E+00 0. -1.
<mgrwt>
<rscale>  0 0.11920517E+04</rscale>
<asrwt>0</asrwt>
<pdfrwt beam="2">  1        4 0.64301370E+00 0.11946850E+04</pdfrwt>
<pdfrwt beam="1">  1       -4 0.46604385E+00 0.11894242E+04</pdfrwt>
<totfact> 0.40634875E-04</totfact>
</mgrwt>
</event>
<event>
 8    1  0.3025584E-006  0.1145803E+04  0.7818608E-02  0.8652940E-01
         -4   -1    0    0    0  501 -0.00000000000E+00  0.00000000000E+00  0.33279042718E+04  0.33279042718E+04  0.00000000000E+00 0. -1.
          4   -1    0    0  502    0  0.00000000000E+00 -0.00000000000E+00 -0.20297108097E+04  0.20297108097E+04  0.00000000000E+00 0.  1.
   -9000010    2    1    2    0  501 -0.25344772279E+03  0.48364872605E+03  0.30568978845E+04  0.32645809049E+04  0.10073291270E+04 0.  0.
    9000010    2    1    2  502    0  0.25344772279E+03 -0.48364872605E+03 -0.17587044225E+04  0.20930341766E+04  0.99478589681E+03 0.  0.
        -13    1    4    4    0    0  0.54652692345E+03  0.11843085402E+02 -0.10116870675E+04  0.11499315938E+04  0.10566000000E+00 0.  1.
          4    1    4    4  502    0 -0.29307920066E+03 -0.49549181145E+03 -0.74701735499E+03  0.94310258283E+03  0.00000000000E+00 0.  1.
         13    1    3    3    0    0 -0.32220128550E+03  0.21609354312E+03  0.29385511233E+04  0.29640500676E+04  0.10566000000E+00 0. -1.
         -4    1    3    3    0  501  0.68753562706E+02  0.26755518293E+03  0.11834676121E+03  0.30053083733E+03  0.00000000000E+00 0. -1.
<mgrwt>
<rscale>  0 0.11402836E+04</rscale>
<asrwt>0</asrwt>
<pdfrwt beam="2">  1        4 0.31226320E+00 0.11347911E+04</pdfrwt>
<pdfrwt beam="1">  1       -4 0.51198527E+00 0.11458027E+04</pdfrwt>
<totfact> 0.77001586E-03</totfact>
</mgrwt>
</event>
<event>
 8    1  0.3025584E-006  0.1336848E+04  0.7818608E-02  0.8553307E-01
          4   -1    0    0  502    0  0.00000000000E+00  0.00000000000E+00  0.78185135379E+03  0.78185135379E+03  0.00000000000E+00 0.  1.
         -4   -1    0    0    0  501 -0.00000000000E+00 -0.00000000000E+00 -0.23643691466E+04  0.23643691466E+04  0.00000000000E+00 0. -1.
   -9000010    2    1    2    0  501 -0.73993859779E+03 -0.30395628233E+03 -0.13713987604E+04  0.19151757689E+04  0.10711046240E+04 0.  0.
    9000010    2    1    2  502    0  0.73993859779E+03  0.30395628233E+03 -0.21111903243E+03  0.12310447315E+04  0.91159274631E+03 0.  0.
        -13    1    4    4    0    0  0.79405112855E+03  0.48780663892E+03 -0.34881384051E+03  0.99505960536E+03  0.10566000000E+00 0.  1.
          4    1    4    4  502    0 -0.54112530759E+02 -0.18385035659E+03  0.13769480809E+03  0.23598512618E+03  0.00000000000E+00 0.  1.
         13    1    3    3    0    0 -0.61811911720E+03  0.32344315622E+03 -0.70386691402E+03  0.99101733697E+03  0.10566000000E+00 0. -1.
         -4    1    3    3    0  501 -0.12181948058E+03 -0.62739943855E+03 -0.66753184639E+03  0.92415843191E+03  0.00000000000E+00 0. -1.
<mgrwt>
<rscale>  0 0.12733179E+04</rscale>
<asrwt>0</asrwt>
<pdfrwt beam="1">  1        4 0.12028482E+00 0.12128066E+04</pdfrwt>
<pdfrwt beam="2">  1       -4 0.36374910E+00 0.13368484E+04</pdfrwt>
<totfact> 0.13551454E-01</totfact>
</mgrwt>
</event>
<event>
 8    1  0.3025584E-006  0.1308506E+04  0.7818608E-02  0.8531029E-01
          4   -1    0    0  502    0  0.00000000000E+00  0.00000000000E+00  0.13807289732E+04  0.13807289732E+04  0.00000000000E+00 0.  1.
         -4   -1    0    0    0  501 -0.00000000000E+00 -0.00000000000E+00 -0.21070225195E+04  0.21070225195E+04  0.00000000000E+00 0. -1.
   -9000010    2    1    2    0  501 -0.28618709860E+03 -0.79803824381E+03 -0.14848407054E+04  0.19752765048E+04  0.98903855128E+03 0.  0.
    9000010    2    1    2  502    0  0.28618709860E+03  0.79803824381E+03  0.75854715911E+03  0.15124749879E+04  0.99670391908E+03 0.  0.
        -13    1    4    4    0    0 -0.11756634251E+03  0.51823985230E+02  0.64358047212E+03  0.65627997501E+03  0.10566000000E+00 0.  1.
          4    1    4    4  502    0  0.40375344111E+03  0.74621425858E+03  0.11496668699E+03  0.85619501285E+03  0.00000000000E+00 0.  1.
         13    1    3    3    0    0 -0.25473455593E+03 -0.21789830337E+03 -0.13333733031E+04  0.13748649902E+04  0.10566000000E+00 0. -1.
         -4    1    3    3    0  501 -0.31452542676E+02 -0.58013994043E+03 -0.15146740232E+03  0.60041151462E+03  0.00000000000E+00 0. -1.
<mgrwt>
<rscale>  0 0.13055876E+04</rscale>
<asrwt>0</asrwt>
<pdfrwt beam="1">  1        4 0.21241984E+00 0.13085056E+04</pdfrwt>
<pdfrwt beam="2">  1       -4 0.32415731E+00 0.13026762E+04</pdfrwt>
<totfact> 0.79734201E-02</totfact>
</mgrwt>
</event>
<event>
 8    1  0.3025584E-006  0.1396758E+04  0.7818608E-02  0.8480737E-01
         -4   -1    0    0    0  501 -0.00000000000E+00  0.00000000000E+00  0.14688283582E+04  0.14688283582E+04  0.00000000000E+00 0. -1.
          4   -1    0    0  502    0  0.00000000000E+00 -0.00000000000E+00 -0.30899497592E+04  0.30899497592E+04  0.00000000000E+00 0.  1.
   -9000010    2    1    2    0  501  0.65272422202E+03  0.68177806630E+03  0.92032275177E+03  0.16727000822E+04  0.10295928106E+04 0.  0.
    9000010    2    1    2  502    0 -0.65272422202E+03 -0.68177806630E+03 -0.25414441528E+04  0.28860780352E+04  0.98976653908E+03 0.  0.
        -13    1    4    4    0    0 -0.43438574273E+03 -0.48146315197E+03 -0.25049616382E+04  0.25875336829E+04  0.10566000000E+00 0.  1.
          4    1    4    4  502    0 -0.21833847928E+03 -0.20031491434E+03 -0.36482514637E+02  0.29854435234E+03  0.00000000000E+00 0.  1.
         13    1    3    3    0    0 -0.18975729757E+03  0.40457083135E+03  0.86058644871E+02  0.45507306126E+03  0.10566000000E+00 0. -1.
         -4    1    3    3    0  501  0.84248151958E+03  0.27720723495E+03  0.83426410690E+03  0.12176270209E+04  0.00000000000E+00 0. -1.
<mgrwt>
<rscale>  0 0.13821348E+04</rscale>
<asrwt>0</asrwt>
<pdfrwt beam="2">  1        4 0.47537688E+00 0.13676652E+04</pdfrwt>
<pdfrwt beam="1">  1       -4 0.22597360E+00 0.13967575E+04</pdfrwt>
<totfact> 0.18239637E-02</totfact>
</mgrwt>
</event>
<event>
 8    1  0.3025584E-006  0.1038540E+04  0.7818608E-02  0.8743726E-01
         -4   -1    0    0    0  501 -0.00000000000E+00  0.00000000000E+00  0.41680969554E+04  0.41680969554E+04  0.00000000000E+00 0. -1.
          4   -1    0    0  502    0  0.00000000000E+00 -0.00000000000E+00 -0.16642812250E+04  0.16642812250E+04  0.00000000000E+00 0.  1.
   -9000010    2    1    2    0  501  0.14249063237E+03  0.19413838154E+03  0.39332519756E+04  0.40655015572E+04  0.99991925507E+03 0.  0.
    9000010    2    1    2  502    0 -0.14249063237E+03 -0.19413838154E+03 -0.14294362452E+04  0.17668766232E+04  0.10102335032E+04 0.  0.
        -13    1    4    4    0    0 -0.77883155878E+02 -0.44760832507E+03 -0.17728816948E+03  0.48769878495E+03  0.10566000000E+00 0.  1.
          4    1    4    4  502    0 -0.64607476492E+02  0.25346994353E+03 -0.12521480757E+04  0.12791778382E+04  0.00000000000E+00 0.  1.
         13    1    3    3    0    0  0.57237450917E+03  0.47818707290E+02  0.21792470728E+04  0.22536674607E+04  0.10566000000E+00 0. -1.
         -4    1    3    3    0  501 -0.42988387680E+03  0.14631967425E+03  0.17540049028E+04  0.18118340966E+04  0.00000000000E+00 0. -1.
<mgrwt>
<rscale>  0 0.10335125E+04</rscale>
<asrwt>0</asrwt>
<pdfrwt beam="2">  1        4 0.25604327E+00 0.10385399E+04</pdfrwt>
<pdfrwt beam="1">  1       -4 0.64124568E+00 0.10285095E+04</pdfrwt>
<totfact> 0.23171787E-03</totfact>
</mgrwt>
</event>
<event>
 8    1  0.3025584E-006  0.1348251E+04  0.7818608E-02  0.8511367E-01
          4   -1    0    0  502    0  0.00000000000E+00  0.00000000000E+00  0.14010722420E+04  0.14010722420E+04  0.00000000000E+00 0.  1.
         -4   -1    0    0    0  501 -0.00000000000E+00 -0.00000000000E+00 -0.20656639813E+04  0.20656639813E+04  0.00000000000E+00 0. -1.
   -9000010    2    1    2    0  501  0.59083580998E+03  0.63678200321E+03 -0.14046840747E+04  0.19287124001E+04  0.99610034552E+03 0.  0.
    9000010    2    1    2  502    0 -0.59083580998E+03 -0.63678200321E+03  0.74009233544E+03  0.15380238232E+04  0.10311170359E+04 0.  0.
        -13    1    4    4    0    0 -0.82767707560E+03 -0.21699364698E+03  0.37928010696E+03  0.93594283746E+03  0.10566000000E+00 0.  1.
          4    1    4    4  502    0  0.23684126562E+03 -0.41978835624E+03  0.36081222849E+03  0.60208098571E+03  0.00000000000E+00 0.  1.
         13    1    3    3    0    0  0.87329009912E+03  0.44973211046E+03 -0.10695039254E+04  0.14521477976E+04  0.10566000000E+00 0. -1.
         -4    1    3    3    0  501 -0.28245428914E+03  0.18704989276E+03 -0.33518014933E+03  0.47656460248E+03  0.00000000000E+00 0. -1.
<mgrwt>
<rscale>  0 0.13348910E+04</rscale>
<asrwt>0</asrwt>
<pdfrwt beam="1">  1        4 0.21554958E+00 0.13482509E+04</pdfrwt>
<pdfrwt beam="2">  1       -4 0.31779446E+00 0.13216634E+04</pdfrwt>
<totfact> 0.81472809E-02</totfact>
</mgrwt>
</event>
<event>
 8    1  0.3025584E-006  0.1063958E+04  0.7818608E-02  0.8719200E-01
         -4   -1    0    0    0  501 -0.00000000000E+00  0.00000000000E+00  0.12117377974E+04  0.12117377974E+04  0.00000000000E+00 0. -1.
          4   -1    0    0  502    0  0.00000000000E+00 -0.00000000000E+00 -0.25263953266E+04  0.25263953266E+04  0.00000000000E+00 0.  1.
   -9000010    2    1    2    0  501  0.38520201142E+02  0.34408438049E+03  0.82942944154E+03  0.13445761730E+04  0.10000270096E+04 0.  0.
    9000010    2    1    2  502    0 -0.38520201142E+02 -0.34408438049E+03 -0.21440869707E+04  0.23935569509E+04  0.10060457607E+04 0.  0.
        -13    1    4    4    0    0 -0.24252382140E+02  0.16975337743E+03 -0.17161763546E+04  0.17247219133E+04  0.10566000000E+00 0.  1.
          4    1    4    4  502    0 -0.14267819002E+02 -0.51383775793E+03 -0.42791061616E+03  0.66883503762E+03  0.00000000000E+00 0.  1.
         13    1    3    3    0    0  0.32768625555E+03 -0.23722667478E+03  0.37923759756E+03  0.55450513422E+03  0.10566000000E+00 0. -1.
         -4    1    3    3    0  501 -0.28916605441E+03  0.58131105528E+03  0.45019184398E+03  0.79007103883E+03  0.00000000000E+00 0. -1.
<mgrwt>
<rscale>  0 0.10611092E+04</rscale>
<asrwt>0</asrwt>
<pdfrwt beam="2">  1        4 0.38867620E+00 0.10639577E+04</pdfrwt>
<pdfrwt beam="1">  1       -4 0.18642120E+00 0.10582683E+04</pdfrwt>
<totfact> 0.58189289E-02</totfact>
</mgrwt>
</event>
<event>
 8    1  0.3025584E-006  0.1211711E+04  0.7818608E-02  0.8609415E-01
          4   -1    0    0  502    0  0.00000000000E+00  0.00000000000E+00  0.13345885438E+04  0.13345885438E+04  0.00000000000E+00 0.  1.
         -4   -1    0    0    0  501 -0.00000000000E+00 -0.00000000000E+00 -0.22015900547E+04  0.22015900547E+04  0.00000000000E+00 0. -1.
   -9000010    2    1    2    0  501  0.33712750997E+03 -0.56377789579E+03 -0.16969975621E+04  0.20674594168E+04  0.98137008344E+03 0.  0.
    9000010    2    1    2  502    0 -0.33712750997E+03  0.56377789579E+03  0.82999605117E+03  0.14687191817E+04  0.10182053407E+04 0.  0.
        -13    1    4    4    0    0  0.22281467988E+03  0.38321436764E+03 -0.97430548703E+01  0.44338986391E+03  0.10566000000E+00 0.  1.
          4    1    4    4  502    0 -0.55994218985E+03  0.18056352815E+03  0.83973910604E+03  0.10253293178E+04  0.00000000000E+00 0.  1.
         13    1    3    3    0    0  0.40137747685E+03  0.16159427894E+03 -0.45621537345E+03  0.62876789680E+03  0.10566000000E+00 0. -1.
         -4    1    3    3    0  501 -0.64249966877E+02 -0.72537217473E+03 -0.12407821887E+04  0.14386915200E+04  0.00000000000E+00 0. -1.
<mgrwt>
<rscale>  0 0.11962196E+04</rscale>
<asrwt>0</asrwt>
<pdfrwt beam="1">  1        4 0.20532132E+00 0.12117106E+04</pdfrwt>
<pdfrwt beam="2">  1       -4 0.33870616E+00 0.11809266E+04</pdfrwt>
<totfact> 0.76305532E-02</totfact>
</mgrwt>
</event>
<event>
 8    1  0.3025584E-006  0.1286946E+04  0.7818608E-02  0.8544482E-01
          4   -1    0    0  502    0  0.00000000000E+00  0.00000000000E+00  0.13349800721E+04  0.13349800721E+04  0.00000000000E+00 0.  1.
         -4   -1    0    0    0  501 -0.00000000000E+00 -0.00000000000E+00 -0.23113237962E+04  0.23113237962E+04  0.00000000000E+00 0. -1.
   -9000010    2    1    2    0  501 -0.77175501467E+03 -0.24646025992E+03 -0.17303015517E+04  0.21564262339E+04  0.99994108825E+03 0.  0.
    9000010    2    1    2  502    0  0.77175501467E+03  0.24646025992E+03  0.75395782758E+03  0.14898776344E+04  0.99746403303E+03 0.  0.
        -13    1    4    4    0    0  0.91228769889E+03  0.39796260499E+03  0.38536297222E+03  0.10673086302E+04  0.10566000000E+00 0.  1.
          4    1    4    4  502    0 -0.14053268422E+03 -0.15150234507E+03  0.36859485537E+03  0.42256900418E+03  0.00000000000E+00 0.  1.
         13    1    3    3    0    0  0.11836951584E+03 -0.36699406084E+03 -0.45290084031E+03  0.59482364217E+03  0.10566000000E+00 0. -1.
         -4    1    3    3    0  501 -0.89012453051E+03  0.12053380092E+03 -0.12774007114E+04  0.15616025917E+04  0.00000000000E+00 0. -1.
<mgrwt>
<rscale>  0 0.12859840E+04</rscale>
<asrwt>0</asrwt>
<pdfrwt beam="1">  1        4 0.20538155E+00 0.12850226E+04</pdfrwt>
<pdfrwt beam="2">  1       -4 0.35558827E+00 0.12869462E+04</pdfrwt>
<totfact> 0.66511786E-02</totfact>
</mgrwt>
</event>
<event>
 8    1  0.3025584E-006  0.1062607E+04  0.7818608E-02  0.8719002E-01
          4   -1    0    0  502    0  0.00000000000E+00  0.00000000000E+00  0.21172271857E+04  0.21172271857E+04  0.00000000000E+00 0. -1.
         -4   -1    0    0    0  501 -0.00000000000E+00 -0.00000000000E+00 -0.53420187054E+03  0.53420187054E+03  0.00000000000E+00 0.  1.
   -9000010    2    1    2    0  501 -0.34973328906E+03 -0.16509421528E+02  0.70800588281E+03  0.12768735546E+04  0.10032685632E+04 0.  0.
    9000010    2    1    2  502    0  0.34973328906E+03  0.16509421528E+02  0.87501943234E+03  0.13745555016E+04  0.10005787753E+04 0.  0.
        -13    1    4    4    0    0 -0.26674715247E+03 -0.70820127812E+02 -0.28305812244E+02  0.27743605394E+03  0.10566000000E+00 0.  1.
          4    1    4    4  502    0  0.61648044153E+03  0.87329549341E+02  0.90332524458E+03  0.10971194477E+04  0.00000000000E+00 0.  1.
         13    1    3    3    0    0 -0.10547685408E+03 -0.76945496891E+02 -0.25233759901E+03  0.28411309593E+03  0.10566000000E+00 0. -1.
         -4    1    3    3    0  501 -0.24425643498E+03  0.60436075363E+02  0.96034348183E+03  0.99276045868E+03  0.00000000000E+00 0. -1.
<mgrwt>
<rscale>  0 0.10613367E+04</rscale>
<asrwt>0</asrwt>
<pdfrwt beam="1">  1        4 0.32572726E+00 0.10600678E+04</pdfrwt>
<pdfrwt beam="2">  1       -4 0.82184904E-01 0.10626071E+04</pdfrwt>
<totfact> 0.37694256E-01</totfact>
</mgrwt>
</event>
<event>
 8    1  0.3025584E-006  0.1620137E+04  0.7818608E-02  0.8347995E-01
          4   -1    0    0  502    0  0.00000000000E+00  0.00000000000E+00  0.42613948029E+04  0.42613948029E+04  0.00000000000E+00 0.  1.
         -4   -1    0    0    0  501 -0.00000000000E+00 -0.00000000000E+00 -0.10550037650E+04  0.10550037650E+04  0.00000000000E+00 0. -1.
   -9000010    2    1    2    0  501 -0.89351969100E+03  0.88261732324E+03 -0.11922933453E+03  0.16245186571E+04  0.10234522244E+04 0.  0.
    9000010    2    1    2  502    0  0.89351969100E+03 -0.88261732324E+03  0.33256203724E+04  0.36918799109E+04  0.99641137954E+03 0.  0.
        -13    1    4    4    0    0  0.24953661989E+02 -0.15472103198E+03 -0.21437481616E+02  0.15817983363E+03  0.10566000000E+00 0.  1.
          4    1    4    4  502    0  0.86856602901E+03 -0.72789629126E+03  0.33470578540E+04  0.35337000772E+04  0.00000000000E+00 0.  1.
         13    1    3    3    0    0 -0.10818289048E+04  0.81692111234E+03 -0.26009324480E+03  0.13803486480E+04  0.10566000000E+00 0. -1.
         -4    1    3    3    0  501  0.18830921376E+03  0.65696210899E+02  0.14086391027E+03  0.24417000907E+03  0.00000000000E+00 0. -1.
<mgrwt>
<rscale>  0 0.16116427E+04</rscale>
<asrwt>0</asrwt>
<pdfrwt beam="1">  1        4 0.65559919E+00 0.16031926E+04</pdfrwt>
<pdfrwt beam="2">  1       -4 0.16230827E+00 0.16201374E+04</pdfrwt>
<totfact> 0.33109151E-03</totfact>
</mgrwt>
</event>
<event>
 8    1  0.3025584E-006  0.1138258E+04  0.7818608E-02  0.8655374E-01
          4   -1    0    0  502    0  0.00000000000E+00  0.00000000000E+00  0.21511786909E+04  0.21511786909E+04  0.00000000000E+00 0.  1.
         -4   -1    0    0    0  501 -0.00000000000E+00 -0.00000000000E+00 -0.81663131552E+03  0.81663131552E+03  0.00000000000E+00 0. -1.
   -9000010    2    1    2    0  501  0.34146782132E+03  0.41571410998E+03 -0.94410987229E+02  0.11421667270E+04  0.10031016417E+04 0.  0.
    9000010    2    1    2  502    0 -0.34146782132E+03 -0.41571410998E+03  0.14289583627E+04  0.18256432794E+04  0.10008161107E+04 0.  0.
        -13    1    4    4    0    0  0.10105478997E+03 -0.19462770665E+03 -0.83259137735E+02  0.23457218495E+03  0.10566000000E+00 0.  1.
          4    1    4    4  502    0 -0.44252261129E+03 -0.22108640333E+03  0.15122175004E+04  0.15910710945E+04  0.00000000000E+00 0.  1.
         13    1    3    3    0    0  0.14140347780E+03 -0.20250230412E+03  0.29491371296E+03  0.38467679416E+03  0.10566000000E+00 0. -1.
         -4    1    3    3    0  501  0.20006434353E+03  0.61821641411E+03 -0.38932470018E+03  0.75748993287E+03  0.00000000000E+00 0. -1.
<mgrwt>
<rscale>  0 0.11372508E+04</rscale>
<asrwt>0</asrwt>
<pdfrwt beam="1">  1        4 0.33095056E+00 0.11362444E+04</pdfrwt>
<pdfrwt beam="2">  1       -4 0.12563559E+00 0.11382581E+04</pdfrwt>
<totfact> 0.16356742E-01</totfact>
</mgrwt>
</event>
<event>
 8    1  0.3025584E-006  0.1059957E+04  0.7818608E-02  0.8731678E-01
          4   -1    0    0  502    0  0.00000000000E+00  0.00000000000E+00  0.34954809116E+04  0.34954809116E+04  0.00000000000E+00 0.  1.
         -4   -1    0    0    0  501 -0.00000000000E+00 -0.00000000000E+00 -0.23282366474E+04  0.23282366474E+04  0.00000000000E+00 0. -1.
   -9000010    2    1    2    0  501  0.24979484150E+03 -0.14658565851E+01 -0.21240234501E+04  0.23738121134E+04  0.10301013162E+04 0.  0.
    9000010    2    1    2  502    0 -0.24979484150E+03  0.14658565851E+01  0.32912677144E+04  0.34499054455E+04  0.10034962900E+04 0.  0.
        -13    1    4    4    0    0 -0.37504296655E+02  0.37066226266E+03  0.48534529680E+03  0.61184732860E+03  0.10566000000E+00 0.  1.
          4    1    4    4  502    0 -0.21229054484E+03 -0.36919640608E+03  0.28059224176E+04  0.28380581169E+04  0.00000000000E+00 0.  1.
         13    1    3    3    0    0  0.29054615822E+03 -0.43958696499E+03 -0.65688328670E+03  0.84211010762E+03  0.10566000000E+00 0. -1.
         -4    1    3    3    0  501 -0.40751316723E+02  0.43812110841E+03 -0.14671401634E+04  0.15317020058E+04  0.00000000000E+00 0. -1.
<mgrwt>
<rscale>  0 0.10469587E+04</rscale>
<asrwt>0</asrwt>
<pdfrwt beam="1">  1        4 0.53776629E+00 0.10341201E+04</pdfrwt>
<pdfrwt beam="2">  1       -4 0.35819025E+00 0.10599568E+04</pdfrwt>
<totfact> 0.43123979E-03</totfact>
</mgrwt>
</event>
