<event>
 6    2  0.2294477E-005  0.1007025E+04  0.7818608E-02  0.9771551E-01
         21   -1    0    0  501  502  0.00000000000E+00  0.00000000000E+00  0.17565012340E+04  0.17565012340E+04  0.00000000000E+00 0. -1.
         -4   -1    0    0    0  501 -0.00000000000E+00 -0.00000000000E+00 -0.28891020472E+03  0.28891020472E+03  0.00000000000E+00 0. -1.
   -9000010    2    1    2    0  502 -0.11673156887E+03  0.15780558399E+03  0.15367405101E+04  0.18372996338E+04  0.98770931317E+03 0.  0.
         13    1    3    3    0    0  0.35120975115E+03  0.26211588909E+03  0.36172739228E+03  0.56824268240E+03  0.10566000000E+00 0. -1.
         -4    1    3    3    0  502 -0.46794132001E+03 -0.10431030510E+03  0.11750131178E+04  0.12690569514E+04  0.00000000000E+00 0. -1.
        -13    1    1    2    0    0  0.11673156887E+03 -0.15780558399E+03 -0.69149480817E+02  0.20811180497E+03  0.10566000000E+00 0.  1.
<mgrwt>
<rscale>  1 0.66911898E+03</rscale>
<asrwt>0</asrwt>
<pdfrwt beam="1">  1       21 0.27023095E+00 0.10070246E+04</pdfrwt>
<pdfrwt beam="2">  1       -4 0.44447725E-01 0.10070246E+04</pdfrwt>
<totfact> 0.79669156E+00</totfact>
</mgrwt>
</event>
<event>
 6    2  0.2294477E-005  0.1029994E+04  0.7818608E-02  0.9705466E-01
         -4   -1    0    0    0  501 -0.00000000000E+00  0.00000000000E+00  0.54850626702E+03  0.54850626702E+03  0.00000000000E+00 0. -1.
         21   -1    0    0  501  502  0.00000000000E+00 -0.00000000000E+00 -0.97497042166E+03  0.97497042166E+03  0.00000000000E+00 0. -1.
   -9000010    2    1    2    0  502 -0.18397547117E+03  0.13560459492E+03 -0.63839227202E+03  0.12117891556E+04  0.10043170239E+04 0.  0.
         13    1    3    3    0    0 -0.16336056783E+03  0.43304587484E+02 -0.90928744544E+03  0.92485979047E+03  0.10566000000E+00 0. -1.
         -4    1    3    3    0  502 -0.20614903341E+02  0.92300007436E+02  0.27089517342E+03  0.28692936517E+03  0.00000000000E+00 0. -1.
        -13    1    1    2    0    0  0.18397547117E+03 -0.13560459492E+03  0.21192811738E+03  0.31168753304E+03  0.10566000000E+00 0.  1.
<mgrwt>
<rscale>  1 0.70692271E+03</rscale>
<asrwt>0</asrwt>
<pdfrwt beam="2">  1       21 0.14999545E+00 0.10299943E+04</pdfrwt>
<pdfrwt beam="1">  1       -4 0.84385580E-01 0.10299943E+04</pdfrwt>
<totfact> 0.13094113E+01</totfact>
</mgrwt>
</event>
<event>
 6    2  0.2294477E-005  0.1056556E+04  0.7818608E-02  0.9704817E-01
         -4   -1    0    0    0  501 -0.00000000000E+00  0.00000000000E+00  0.94514974822E+03  0.94514974822E+03  0.00000000000E+00 0. -1.
         21   -1    0    0  501  502  0.00000000000E+00 -0.00000000000E+00 -0.58665750823E+03  0.58665750823E+03  0.00000000000E+00 0. -1.
   -9000010    2    1    2    0  502  0.65332322025E+00  0.21220349203E+03 -0.64549797916E+02  0.10585258118E+04  0.10350263132E+04 0.  0.
         13    1    3    3    0    0 -0.49143010516E+03  0.13356000457E+02 -0.16460249168E+03  0.51843603505E+03  0.10566000000E+00 0. -1.
         -4    1    3    3    0  502  0.49208342838E+03  0.19884749158E+03  0.10005269376E+03  0.54008977673E+03  0.00000000000E+00 0. -1.
        -13    1    1    2    0    0 -0.65332322025E+00 -0.21220349203E+03  0.42304203791E+03  0.47328144467E+03  0.10566000000E+00 0.  1.
<mgrwt>
<rscale>  1 0.70730707E+03</rscale>
<asrwt>0</asrwt>
<pdfrwt beam="2">  1       21 0.90255002E-01 0.10565558E+04</pdfrwt>
<pdfrwt beam="1">  1       -4 0.14540765E+00 0.10565558E+04</pdfrwt>
<totfact> 0.12623357E+01</totfact>
</mgrwt>
</event>
<event>
 6    2  0.2294477E-005  0.9147093E+03  0.7818608E-02  0.9785458E-01
         -4   -1    0    0    0  501 -0.00000000000E+00  0.00000000000E+00  0.54906306049E+03  0.54906306049E+03  0.00000000000E+00 0. -1.
         21   -1    0    0  501  502  0.00000000000E+00 -0.00000000000E+00 -0.66551558048E+03  0.66551558048E+03  0.00000000000E+00 0. -1.
   -9000010    2    1    2    0  502  0.81585010560E+02 -0.23649522977E+03 -0.22483787738E+03  0.94193692643E+03  0.87983350391E+03 0.  0.
         13    1    3    3    0    0  0.43454965923E+02 -0.41396191150E+03 -0.47582629892E+03  0.63218943059E+03  0.10566000000E+00 0. -1.
         -4    1    3    3    0  502  0.38130044637E+02  0.17746668174E+03  0.25098842154E+03  0.30974749584E+03  0.00000000000E+00 0. -1.
        -13    1    1    2    0    0 -0.81585010560E+02  0.23649522977E+03  0.10838535738E+03  0.27264171454E+03  0.10566000000E+00 0.  1.
<mgrwt>
<rscale>  1 0.66148816E+03</rscale>
<asrwt>0</asrwt>
<pdfrwt beam="2">  1       21 0.10238701E+00 0.91470930E+03</pdfrwt>
<pdfrwt beam="1">  1       -4 0.84471240E-01 0.91470930E+03</pdfrwt>
<totfact> 0.36017482E+01</totfact>
</mgrwt>
</event>
<event>
 6    2  0.2294477E-005  0.1062561E+04  0.7818608E-02  0.9634936E-01
         -4   -1    0    0    0  501 -0.00000000000E+00  0.00000000000E+00  0.76328576754E+03  0.76328576754E+03  0.00000000000E+00 0. -1.
         21   -1    0    0  501  502  0.00000000000E+00 -0.00000000000E+00 -0.93064907450E+03  0.93064907450E+03  0.00000000000E+00 0. -1.
   -9000010    2    1    2    0  502  0.23902764659E+03 -0.11235390236E+03 -0.57503738961E+03  0.12081820407E+04  0.10292124313E+04 0.  0.
         13    1    3    3    0    0 -0.39785573983E+03  0.26480194185E+02 -0.13193240180E+03  0.41999590499E+03  0.10566000000E+00 0. -1.
         -4    1    3    3    0  502  0.63688338642E+03 -0.13883409654E+03 -0.44310498781E+03  0.78818613568E+03  0.00000000000E+00 0. -1.
        -13    1    1    2    0    0 -0.23902764659E+03  0.11235390236E+03  0.40767408265E+03  0.48575280137E+03  0.10566000000E+00 0.  1.
<mgrwt>
<rscale>  1 0.75026444E+03</rscale>
<asrwt>0</asrwt>
<pdfrwt beam="2">  1       21 0.14317678E+00 0.10625610E+04</pdfrwt>
<pdfrwt beam="1">  1       -4 0.11742858E+00 0.10625610E+04</pdfrwt>
<totfact> 0.66926066E+00</totfact>
</mgrwt>
</event>
<event>
 6    2  0.2294477E-005  0.8737851E+03  0.7818608E-02  0.1026310E+00
         21   -1    0    0  501  502  0.00000000000E+00  0.00000000000E+00  0.15339165064E+04  0.15339165064E+04  0.00000000000E+00 0. -1.
         -4   -1    0    0    0  501 -0.00000000000E+00 -0.00000000000E+00 -0.19983800915E+03  0.19983800915E+03  0.00000000000E+00 0. -1.
   -9000010    2    1    2    0  502 -0.60254115508E+02  0.21905968631E+02  0.13945110474E+04  0.16456492707E+04  0.87142987729E+03 0.  0.
         13    1    3    3    0    0  0.15021078864E+03  0.98489232113E+02  0.14097681160E+04  0.14211648609E+04  0.10566000000E+00 0. -1.
         -4    1    3    3    0  502 -0.21046490415E+03 -0.76583263482E+02 -0.15257068552E+02  0.22448440985E+03  0.00000000000E+00 0. -1.
        -13    1    1    2    0    0  0.60254115508E+02 -0.21905968631E+02 -0.60432550105E+02  0.88105244870E+02  0.10566000000E+00 0.  1.
<mgrwt>
<rscale>  1 0.45476763E+03</rscale>
<asrwt>0</asrwt>
<pdfrwt beam="1">  1       21 0.23598715E+00 0.87378513E+03</pdfrwt>
<pdfrwt beam="2">  1       -4 0.30744310E-01 0.87378513E+03</pdfrwt>
<totfact> 0.28143883E+01</totfact>
</mgrwt>
</event>
<event>
 6    2  0.2294477E-005  0.1022621E+04  0.7818608E-02  0.9709457E-01
         21   -1    0    0  501  502  0.00000000000E+00  0.00000000000E+00  0.30192077313E+03  0.30192077313E+03  0.00000000000E+00 0.  1.
         -4   -1    0    0    0  501 -0.00000000000E+00 -0.00000000000E+00 -0.13376639871E+04  0.13376639871E+04  0.00000000000E+00 0. -1.
   -9000010    2    1    2    0  502  0.21023699648E+03 -0.94332378173E+02 -0.94348166273E+03  0.13913703423E+04  0.99632102722E+03 0.  0.
         13    1    3    3    0    0 -0.35346248931E+03  0.53091577426E+02 -0.64330971520E+03  0.73593603511E+03  0.10566000000E+00 0. -1.
         -4    1    3    3    0  502  0.56369948578E+03 -0.14742395560E+03 -0.30017194753E+03  0.65543430719E+03  0.00000000000E+00 0. -1.
        -13    1    1    2    0    0 -0.21023699648E+03  0.94332378173E+02 -0.92261551207E+02  0.24821441790E+03  0.10566000000E+00 0.  1.
<mgrwt>
<rscale>  1 0.70456501E+03</rscale>
<asrwt>0</asrwt>
<pdfrwt beam="1">  1       21 0.46449349E-01 0.10226210E+04</pdfrwt>
<pdfrwt beam="2">  1       -4 0.20579446E+00 0.10226210E+04</pdfrwt>
<totfact> 0.21174597E+01</totfact>
</mgrwt>
</event>
<event>
 6    2  0.2294477E-005  0.9831575E+03  0.7818608E-02  0.9789861E-01
         21   -1    0    0  501  502  0.00000000000E+00  0.00000000000E+00  0.21299745967E+03  0.21299745967E+03  0.00000000000E+00 0. -1.
         -4   -1    0    0    0  501 -0.00000000000E+00 -0.00000000000E+00 -0.16558003495E+04  0.16558003495E+04  0.00000000000E+00 0. -1.
   -9000010    2    1    2    0  502  0.12755764904E+03  0.15218704916E+03 -0.11250588775E+04  0.14941071097E+04  0.96289497119E+03 0.  0.
         13    1    3    3    0    0 -0.22673711361E+03  0.28611093465E+03 -0.10450634838E+04  0.11069900098E+04  0.10566000000E+00 0. -1.
         -4    1    3    3    0  502  0.35429476266E+03 -0.13392388549E+03 -0.79995393724E+02  0.38711709981E+03  0.00000000000E+00 0. -1.
        -13    1    1    2    0    0 -0.12755764904E+03 -0.15218704916E+03 -0.31774401237E+03  0.37469069954E+03  0.10566000000E+00 0.  1.
<mgrwt>
<rscale>  1 0.65909531E+03</rscale>
<asrwt>0</asrwt>
<pdfrwt beam="1">  1       21 0.32768841E-01 0.98315745E+03</pdfrwt>
<pdfrwt beam="2">  1       -4 0.25473851E+00 0.98315745E+03</pdfrwt>
<totfact> 0.21615252E+01</totfact>
</mgrwt>
</event>
<event>
 6    2  0.2294477E-005  0.9999409E+03  0.7818608E-02  0.1003335E+00
         -4   -1    0    0    0  501 -0.00000000000E+00  0.00000000000E+00  0.69483722392E+03  0.69483722392E+03  0.00000000000E+00 0. -1.
         21   -1    0    0  501  502  0.00000000000E+00 -0.00000000000E+00 -0.44220809809E+03  0.44220809809E+03  0.00000000000E+00 0. -1.
   -9000010    2    1    2    0  502  0.11286620596E+02 -0.85646208330E+02  0.29258263723E+03  0.10418667790E+04  0.99620235135E+03 0.  0.
         13    1    3    3    0    0  0.17576678591E+03  0.14811578033E+02 -0.33866774460E+03  0.38184970639E+03  0.10566000000E+00 0. -1.
         -4    1    3    3    0  502 -0.16448016531E+03 -0.10045778636E+03  0.63125038183E+03  0.66001707265E+03  0.00000000000E+00 0. -1.
        -13    1    1    2    0    0 -0.11286620596E+02  0.85646208330E+02 -0.39953511402E+02  0.95178542976E+02  0.10566000000E+00 0.  1.
<mgrwt>
<rscale>  1 0.54211646E+03</rscale>
<asrwt>0</asrwt>
<pdfrwt beam="2">  1       21 0.68032015E-01 0.99994089E+03</pdfrwt>
<pdfrwt beam="1">  1       -4 0.10689803E+00 0.99994089E+03</pdfrwt>
<totfact> 0.53885690E+01</totfact>
</mgrwt>
</event>
<event>
 6    2  0.2294477E-005  0.1017640E+04  0.7818608E-02  0.9681831E-01
         21   -1    0    0  501  502  0.00000000000E+00  0.00000000000E+00  0.16299272099E+04  0.16299272099E+04  0.00000000000E+00 0. -1.
         -4   -1    0    0    0  501 -0.00000000000E+00 -0.00000000000E+00 -0.26065560569E+03  0.26065560569E+03  0.00000000000E+00 0. -1.
   -9000010    2    1    2    0  502 -0.22258050967E+03  0.12757905296E+03  0.91320435238E+03  0.13673086547E+04  0.98477016105E+03 0.  0.
         13    1    3    3    0    0 -0.42314318775E+03 -0.31087836962E+02  0.10087198494E+04  0.10943182154E+04  0.10566000000E+00 0. -1.
         -4    1    3    3    0  502  0.20056267807E+03  0.15866688992E+03 -0.95515496988E+02  0.27299043931E+03  0.00000000000E+00 0. -1.
        -13    1    1    2    0    0  0.22258050967E+03 -0.12757905296E+03  0.45606725179E+03  0.52327416080E+03  0.10566000000E+00 0.  1.
<mgrwt>
<rscale>  1 0.72108942E+03</rscale>
<asrwt>0</asrwt>
<pdfrwt beam="1">  1       21 0.25075803E+00 0.10176398E+04</pdfrwt>
<pdfrwt beam="2">  1       -4 0.40100863E-01 0.10176398E+04</pdfrwt>
<totfact> 0.13039033E+01</totfact>
</mgrwt>
</event>
<event>
 6    2  0.2294477E-005  0.1271202E+04  0.7818608E-02  0.9193014E-01
         -4   -1    0    0    0  501 -0.00000000000E+00  0.00000000000E+00  0.22561154845E+03  0.22561154845E+03  0.00000000000E+00 0. -1.
         21   -1    0    0  501  502  0.00000000000E+00 -0.00000000000E+00 -0.45191477363E+04  0.45191477363E+04  0.00000000000E+00 0. -1.
   -9000010    2    1    2    0  502 -0.44029735809E+03 -0.60209530612E+03 -0.25936562726E+04  0.28884262709E+04  0.10293555947E+04 0.  0.
         13    1    3    3    0    0 -0.54736252458E+03 -0.15735824553E+03 -0.54137657895E+03  0.78578366116E+03  0.10566000000E+00 0. -1.
         -4    1    3    3    0  502  0.10706516649E+03 -0.44473706059E+03 -0.20522796937E+04  0.21026426097E+04  0.00000000000E+00 0. -1.
        -13    1    1    2    0    0  0.44029735809E+03  0.60209530612E+03 -0.16998799152E+04  0.18563330139E+04  0.10566000000E+00 0.  1.
<mgrwt>
<rscale>  1 0.11125829E+04</rscale>
<asrwt>0</asrwt>
<pdfrwt beam="2">  1       21 0.69525361E+00 0.12712016E+04</pdfrwt>
<pdfrwt beam="1">  1       -4 0.34709463E-01 0.12712016E+04</pdfrwt>
<totfact> 0.10693987E-02</totfact>
</mgrwt>
</event>
<event>
 6    2  0.2294477E-005  0.1049941E+04  0.7818608E-02  0.9604722E-01
         -4   -1    0    0    0  501 -0.00000000000E+00  0.00000000000E+00  0.70610083926E+03  0.70610083926E+03  0.00000000000E+00 0. -1.
         21   -1    0    0  501  502  0.00000000000E+00 -0.00000000000E+00 -0.72277989511E+03  0.72277989511E+03  0.00000000000E+00 0. -1.
   -9000010    2    1    2    0  502 -0.75014906696E+02 -0.29405320926E+03 -0.20771084138E+03  0.10702894903E+04  0.10051274910E+04 0.  0.
         13    1    3    3    0    0  0.28413499691E+03 -0.36850526130E+03 -0.43648702340E+03  0.63800451161E+03  0.10566000000E+00 0. -1.
         -4    1    3    3    0  502 -0.35914990361E+03  0.74452052042E+02  0.22877618201E+03  0.43228497866E+03  0.00000000000E+00 0. -1.
        -13    1    1    2    0    0  0.75014906696E+02  0.29405320926E+03  0.19103178553E+03  0.35859124411E+03  0.10566000000E+00 0.  1.
<mgrwt>
<rscale>  1 0.76984423E+03</rscale>
<asrwt>0</asrwt>
<pdfrwt beam="2">  1       21 0.11119691E+00 0.10499409E+04</pdfrwt>
<pdfrwt beam="1">  1       -4 0.10863090E+00 0.10499409E+04</pdfrwt>
<totfact> 0.15834681E+01</totfact>
</mgrwt>
</event>
<event>
 6    2  0.2294477E-005  0.1100092E+04  0.7818608E-02  0.9445508E-01
         21   -1    0    0  501  502  0.00000000000E+00  0.00000000000E+00  0.49365649840E+03  0.49365649840E+03  0.00000000000E+00 0. -1.
         -4   -1    0    0    0  501 -0.00000000000E+00 -0.00000000000E+00 -0.12556602986E+04  0.12556602986E+04  0.00000000000E+00 0. -1.
   -9000010    2    1    2    0  502 -0.20347768243E+03  0.41163194102E+03 -0.42324668210E+03  0.11787027257E+04  0.99967911833E+03 0.  0.
         13    1    3    3    0    0 -0.80700613549E+02  0.32041234531E+03 -0.74910072040E+03  0.81873595287E+03  0.10566000000E+00 0. -1.
         -4    1    3    3    0  502 -0.12277706888E+03  0.91219595712E+02  0.32585403830E+03  0.35996677286E+03  0.00000000000E+00 0. -1.
        -13    1    1    2    0    0  0.20347768243E+03 -0.41163194102E+03 -0.33875711811E+03  0.57061407128E+03  0.10566000000E+00 0.  1.
<mgrwt>
<rscale>  1 0.88423340E+03</rscale>
<asrwt>0</asrwt>
<pdfrwt beam="1">  1       21 0.75947153E-01 0.11000920E+04</pdfrwt>
<pdfrwt beam="2">  1       -4 0.19317851E+00 0.11000920E+04</pdfrwt>
<totfact> 0.85102180E+00</totfact>
</mgrwt>
</event>
<event>
 6    2  0.2294477E-005  0.1011295E+04  0.7818608E-02  0.1036184E+00
         -4   -1    0    0    0  501 -0.00000000000E+00  0.00000000000E+00  0.65864907707E+03  0.65864907707E+03  0.00000000000E+00 0. -1.
         21   -1    0    0  501  502  0.00000000000E+00 -0.00000000000E+00 -0.41561558685E+03  0.41561558685E+03  0.00000000000E+00 0. -1.
   -9000010    2    1    2    0  502  0.28990255664E+02 -0.10617052601E+02  0.21801824618E+03  0.10345289076E+04  0.10108238958E+04 0.  0.
         13    1    3    3    0    0 -0.70170239051E+02 -0.14402881223E+03  0.59836607642E+03  0.61944340644E+03  0.10566000000E+00 0. -1.
         -4    1    3    3    0  502  0.99160494715E+02  0.13341175963E+03 -0.38034783025E+03  0.41508550118E+03  0.00000000000E+00 0. -1.
        -13    1    1    2    0    0 -0.28990255664E+02  0.10617052601E+02  0.25015244054E+02  0.39735756297E+02  0.10566000000E+00 0.  1.
<mgrwt>
<rscale>  1 0.42272181E+03</rscale>
<asrwt>0</asrwt>
<pdfrwt beam="2">  1       21 0.63940860E-01 0.10112953E+04</pdfrwt>
<pdfrwt beam="1">  1       -4 0.10133063E+00 0.10112953E+04</pdfrwt>
<totfact> 0.70597770E+01</totfact>
</mgrwt>
</event>
<event>
 6    2  0.2294477E-005  0.1115913E+04  0.7818608E-02  0.9415503E-01
         21   -1    0    0  501  502  0.00000000000E+00  0.00000000000E+00  0.31179415059E+04  0.31179415059E+04  0.00000000000E+00 0.  1.
         -4   -1    0    0    0  501 -0.00000000000E+00 -0.00000000000E+00 -0.24330379975E+03  0.24330379975E+03  0.00000000000E+00 0. -1.
   -9000010    2    1    2    0  502 -0.47554900075E+03 -0.11558468708E+03  0.13048677638E+04  0.17169569018E+04  0.10028730975E+04 0.  0.
         13    1    3    3    0    0  0.21794812466E+03 -0.32300634317E+03  0.40376199922E+03  0.56112230926E+03  0.10566000000E+00 0. -1.
         -4    1    3    3    0  502 -0.69349712540E+03  0.20742165609E+03  0.90110576462E+03  0.11558345926E+04  0.00000000000E+00 0. -1.
        -13    1    1    2    0    0  0.47554900075E+03  0.11558468708E+03  0.15697699423E+04  0.16442884038E+04  0.10566000000E+00 0.  1.
<mgrwt>
<rscale>  1 0.90810783E+03</rscale>
<asrwt>0</asrwt>
<pdfrwt beam="1">  1       21 0.47968328E+00 0.11159127E+04</pdfrwt>
<pdfrwt beam="2">  1       -4 0.37431356E-01 0.11159127E+04</pdfrwt>
<totfact> 0.47988840E-01</totfact>
</mgrwt>
</event>
<event>
 6    2  0.2294477E-005  0.1130831E+04  0.7818608E-02  0.9369864E-01
         21   -1    0    0  501  502  0.00000000000E+00  0.00000000000E+00  0.13786736572E+04  0.13786736572E+04  0.00000000000E+00 0. -1.
         -4   -1    0    0    0  501 -0.00000000000E+00 -0.00000000000E+00 -0.52031586468E+03  0.52031586468E+03  0.00000000000E+00 0. -1.
   -9000010    2    1    2    0  502  0.44403624429E+03 -0.33089910132E+03  0.48105024050E+03  0.12288974376E+04  0.98596002792E+03 0.  0.
         13    1    3    3    0    0  0.72957582987E+03 -0.56872331612E+02  0.26710179528E+03  0.77901138236E+03  0.10566000000E+00 0. -1.
         -4    1    3    3    0  502 -0.28553958558E+03 -0.27402676971E+03  0.21394844523E+03  0.44988605520E+03  0.00000000000E+00 0. -1.
        -13    1    1    2    0    0 -0.44403624429E+03  0.33089910132E+03  0.37730755202E+03  0.67009208432E+03  0.10566000000E+00 0.  1.
<mgrwt>
<rscale>  1 0.94597794E+03</rscale>
<asrwt>0</asrwt>
<pdfrwt beam="1">  1       21 0.21210364E+00 0.11308314E+04</pdfrwt>
<pdfrwt beam="2">  1       -4 0.80048595E-01 0.11308314E+04</pdfrwt>
<totfact> 0.51446429E+00</totfact>
</mgrwt>
</event>
<event>
 6    2  0.2294477E-005  0.1008913E+04  0.7818608E-02  0.9912087E-01
         21   -1    0    0  501  502  0.00000000000E+00  0.00000000000E+00  0.16276206706E+03  0.16276206706E+03  0.00000000000E+00 0. -1.
         -4   -1    0    0    0  501 -0.00000000000E+00 -0.00000000000E+00 -0.20525374475E+04  0.20525374475E+04  0.00000000000E+00 0. -1.
   -9000010    2    1    2    0  502  0.42273773076E+02 -0.11605792189E+03 -0.15108231481E+04  0.18167254076E+04  0.10013231790E+04 0.  0.
         13    1    3    3    0    0  0.19975706222E+03 -0.39381376749E+03 -0.23233777906E+03  0.49897196526E+03  0.10566000000E+00 0. -1.
         -4    1    3    3    0  502 -0.15748328914E+03  0.27775584560E+03 -0.12784853690E+04  0.13177534424E+04  0.00000000000E+00 0. -1.
        -13    1    1    2    0    0 -0.42273773076E+02  0.11605792189E+03 -0.37895223239E+03  0.39857410694E+03  0.10566000000E+00 0.  1.
<mgrwt>
<rscale>  1 0.59679078E+03</rscale>
<asrwt>0</asrwt>
<pdfrwt beam="1">  1       21 0.25040318E-01 0.10089126E+04</pdfrwt>
<pdfrwt beam="2">  1       -4 0.31577499E+00 0.10089126E+04</pdfrwt>
<totfact> 0.15521535E+01</totfact>
</mgrwt>
</event>
<event>
 6    2  0.2294477E-005  0.1097179E+04  0.7818608E-02  0.9609509E-01
         -4   -1    0    0    0  501 -0.00000000000E+00  0.00000000000E+00  0.14435977035E+04  0.14435977035E+04  0.00000000000E+00 0. -1.
         21   -1    0    0  501  502  0.00000000000E+00 -0.00000000000E+00 -0.32850750101E+03  0.32850750101E+03  0.00000000000E+00 0. -1.
   -9000010    2    1    2    0  502  0.26139346667E+03 -0.10849775122E+02  0.10062882500E+04  0.14887641767E+04  0.10655320125E+04 0.  0.
         13    1    3    3    0    0 -0.19732610672E+02 -0.42282899102E+03  0.87655935196E+03  0.97341154721E+03  0.10566000000E+00 0. -1.
         -4    1    3    3    0  502  0.28112607734E+03  0.41197921590E+03  0.12972889804E+03  0.51535262945E+03  0.00000000000E+00 0. -1.
        -13    1    1    2    0    0 -0.26139346667E+03  0.10849775122E+02  0.10880195252E+03  0.28334102787E+03  0.10566000000E+00 0.  1.
<mgrwt>
<rscale>  1 0.76669996E+03</rscale>
<asrwt>0</asrwt>
<pdfrwt beam="2">  1       21 0.50539616E-01 0.10971794E+04</pdfrwt>
<pdfrwt beam="1">  1       -4 0.22209195E+00 0.10971794E+04</pdfrwt>
<totfact> 0.13752705E+01</totfact>
</mgrwt>
</event>
<event>
 6    2  0.2294477E-005  0.1023248E+04  0.7818608E-02  0.9682857E-01
         -4   -1    0    0    0  501 -0.00000000000E+00  0.00000000000E+00  0.76102664764E+03  0.76102664764E+03  0.00000000000E+00 0. -1.
         21   -1    0    0  501  502  0.00000000000E+00 -0.00000000000E+00 -0.58908075137E+03  0.58908075137E+03  0.00000000000E+00 0. -1.
   -9000010    2    1    2    0  502 -0.10583442699E+03  0.22813242349E+03 -0.35856191663E+02  0.10238758133E+04  0.99186223139E+03 0.  0.
         13    1    3    3    0    0  0.19385727079E+03 -0.33401478585E+03 -0.15637779112E+02  0.38651140980E+03  0.10566000000E+00 0. -1.
         -4    1    3    3    0  502 -0.29969169778E+03  0.56214720934E+03 -0.20218412551E+02  0.63736440353E+03  0.00000000000E+00 0. -1.
        -13    1    1    2    0    0  0.10583442699E+03 -0.22813242349E+03  0.20780208793E+03  0.32623158568E+03  0.10566000000E+00 0.  1.
<mgrwt>
<rscale>  1 0.72046713E+03</rscale>
<asrwt>0</asrwt>
<pdfrwt beam="2">  1       21 0.90627807E-01 0.10232478E+04</pdfrwt>
<pdfrwt beam="1">  1       -4 0.11708102E+00 0.10232478E+04</pdfrwt>
<totfact> 0.21921121E+01</totfact>
</mgrwt>
</event>
<event>
 6    2  0.2294477E-005  0.1008347E+04  0.7818608E-02  0.9853314E-01
         -4   -1    0    0    0  501 -0.00000000000E+00  0.00000000000E+00  0.85939339499E+03  0.85939339499E+03  0.00000000000E+00 0. -1.
         21   -1    0    0  501  502  0.00000000000E+00 -0.00000000000E+00 -0.39046702261E+03  0.39046702261E+03  0.00000000000E+00 0. -1.
   -9000010    2    1    2    0  502  0.97267350759E+02  0.11363119420E+03  0.39426944899E+03  0.10826878924E+04  0.99719190131E+03 0.  0.
         13    1    3    3    0    0  0.40828009047E+03 -0.64904430135E+02  0.55305840984E+03  0.69049173288E+03  0.10566000000E+00 0. -1.
         -4    1    3    3    0  502 -0.31101273971E+03  0.17853562434E+03 -0.15878896085E+03  0.39219615948E+03  0.00000000000E+00 0. -1.
        -13    1    1    2    0    0 -0.97267350759E+02 -0.11363119420E+03  0.74656923391E+02  0.16717252524E+03  0.10566000000E+00 0.  1.
<mgrwt>
<rscale>  1 0.62578218E+03</rscale>
<asrwt>0</asrwt>
<pdfrwt beam="2">  1       21 0.60071850E-01 0.10083475E+04</pdfrwt>
<pdfrwt beam="1">  1       -4 0.13221437E+00 0.10083475E+04</pdfrwt>
<totfact> 0.41812406E+01</totfact>
</mgrwt>
</event>
<event>
 6    2  0.2294477E-005  0.9996074E+03  0.7818608E-02  0.9722069E-01
         21   -1    0    0  501  502  0.00000000000E+00  0.00000000000E+00  0.22239534121E+03  0.22239534121E+03  0.00000000000E+00 0. -1.
         -4   -1    0    0    0  501 -0.00000000000E+00 -0.00000000000E+00 -0.18689769894E+04  0.18689769894E+04  0.00000000000E+00 0. -1.
   -9000010    2    1    2    0  502  0.20369374883E+03  0.12023215052E+03 -0.10505724956E+04  0.14501439512E+04  0.97121985027E+03 0.  0.
         13    1    3    3    0    0  0.10135934432E+03  0.51554618582E+03 -0.83977983265E+03  0.99060171859E+03  0.10566000000E+00 0. -1.
         -4    1    3    3    0  502  0.10233440451E+03 -0.39531403530E+03 -0.21079266292E+03  0.45954223265E+03  0.00000000000E+00 0. -1.
        -13    1    1    2    0    0 -0.20369374883E+03 -0.12023215052E+03 -0.59600915263E+03  0.64122837937E+03  0.10566000000E+00 0.  1.
<mgrwt>
<rscale>  1 0.69717871E+03</rscale>
<asrwt>0</asrwt>
<pdfrwt beam="1">  1       21 0.34214667E-01 0.99960738E+03</pdfrwt>
<pdfrwt beam="2">  1       -4 0.28753493E+00 0.99960738E+03</pdfrwt>
<totfact> 0.12408477E+01</totfact>
</mgrwt>
</event>
<event>
 6    2  0.2294477E-005  0.1006104E+04  0.7818608E-02  0.9958907E-01
         21   -1    0    0  501  502  0.00000000000E+00  0.00000000000E+00  0.90869544278E+03  0.90869544278E+03  0.00000000000E+00 0. -1.
         -4   -1    0    0    0  501 -0.00000000000E+00 -0.00000000000E+00 -0.38728809277E+03  0.38728809277E+03  0.00000000000E+00 0. -1.
   -9000010    2    1    2    0  502 -0.66522765301E+02 -0.84134334324E+02  0.59221708430E+03  0.11674615758E+04  0.10003707270E+04 0.  0.
         13    1    3    3    0    0 -0.38777717482E+03  0.29997892445E+02 -0.94960781341E+02  0.40036055252E+03  0.10566000000E+00 0. -1.
         -4    1    3    3    0  502  0.32125440952E+03 -0.11413222677E+03  0.68717786564E+03  0.76710102324E+03  0.00000000000E+00 0. -1.
        -13    1    1    2    0    0  0.66522765301E+02  0.84134334324E+02 -0.70809734285E+02  0.12852195979E+03  0.10566000000E+00 0.  1.
<mgrwt>
<rscale>  1 0.57489391E+03</rscale>
<asrwt>0</asrwt>
<pdfrwt beam="1">  1       21 0.13979930E+00 0.10061041E+04</pdfrwt>
<pdfrwt beam="2">  1       -4 0.59582784E-01 0.10061041E+04</pdfrwt>
<totfact> 0.34837971E+01</totfact>
</mgrwt>
</event>
<event>
 6    2  0.2294477E-005  0.1286836E+04  0.7818608E-02  0.9156332E-01
         21   -1    0    0  501  502  0.00000000000E+00  0.00000000000E+00  0.26524467112E+04  0.26524467112E+04  0.00000000000E+00 0. -1.
         -4   -1    0    0    0  501 -0.00000000000E+00 -0.00000000000E+00 -0.42207213684E+03  0.42207213684E+03  0.00000000000E+00 0. -1.
   -9000010    2    1    2    0  502 -0.70228824213E+03  0.43343915986E+03  0.14506223926E+04  0.19391370812E+04  0.98735455308E+03 0.  0.
         13    1    3    3    0    0 -0.73855843417E+03  0.23508709555E+02  0.47020287472E+03  0.87584928765E+03  0.10566000000E+00 0. -1.
         -4    1    3    3    0  502  0.36270192043E+02  0.40993045030E+03  0.98041951785E+03  0.10632877935E+04  0.00000000000E+00 0. -1.
        -13    1    1    2    0    0  0.70228824213E+03 -0.43343915986E+03  0.77975218182E+03  0.11353817669E+04  0.10566000000E+00 0.  1.
<mgrwt>
<rscale>  1 0.11515746E+04</rscale>
<asrwt>0</asrwt>
<pdfrwt beam="1">  1       21 0.40806871E+00 0.12868362E+04</pdfrwt>
<pdfrwt beam="2">  1       -4 0.64934177E-01 0.12868362E+04</pdfrwt>
<totfact> 0.44791044E-01</totfact>
</mgrwt>
</event>
<event>
 6    2  0.2294477E-005  0.1016292E+04  0.7818608E-02  0.9801555E-01
         21   -1    0    0  501  502  0.00000000000E+00  0.00000000000E+00  0.42659061485E+03  0.42659061485E+03  0.00000000000E+00 0. -1.
         -4   -1    0    0    0  501 -0.00000000000E+00 -0.00000000000E+00 -0.10865895506E+04  0.10865895506E+04  0.00000000000E+00 0. -1.
   -9000010    2    1    2    0  502 -0.15880497412E+03  0.68626010100E+02 -0.21921944284E+03  0.10396665737E+04  0.10014593707E+04 0.  0.
         13    1    3    3    0    0 -0.98661029936E+02 -0.22888192109E+03 -0.54201865258E+03  0.59657787718E+03  0.10566000000E+00 0. -1.
         -4    1    3    3    0  502 -0.60143944184E+02  0.29750793119E+03  0.32279920974E+03  0.44308869649E+03  0.00000000000E+00 0. -1.
        -13    1    1    2    0    0  0.15880497412E+03 -0.68626010100E+02 -0.44077949290E+03  0.47351359177E+03  0.10566000000E+00 0.  1.
<mgrwt>
<rscale>  1 0.65279167E+03</rscale>
<asrwt>0</asrwt>
<pdfrwt beam="1">  1       21 0.65629327E-01 0.10162920E+04</pdfrwt>
<pdfrwt beam="2">  1       -4 0.16716762E+00 0.10162920E+04</pdfrwt>
<totfact> 0.18248346E+01</totfact>
</mgrwt>
</event>
<event>
 6    2  0.2294477E-005  0.1110011E+04  0.7818608E-02  0.9427186E-01
         21   -1    0    0  501  502  0.00000000000E+00  0.00000000000E+00  0.17499742572E+04  0.17499742572E+04  0.00000000000E+00 0. -1.
         -4   -1    0    0    0  501 -0.00000000000E+00 -0.00000000000E+00 -0.39842441473E+03  0.39842441473E+03  0.00000000000E+00 0. -1.
   -9000010    2    1    2    0  502 -0.29941190524E+02  0.47605039551E+03  0.12286893968E+04  0.16558388743E+04  0.10022995012E+04 0.  0.
         13    1    3    3    0    0 -0.50206889530E+03  0.32332982519E+03  0.81154463646E+03  0.10075812918E+04  0.10566000000E+00 0. -1.
         -4    1    3    3    0  502  0.47212770478E+03  0.15272057032E+03  0.41714476032E+03  0.64825758251E+03  0.00000000000E+00 0. -1.
        -13    1    1    2    0    0  0.29941190524E+02 -0.47605039551E+03  0.12286044572E+03  0.49255979763E+03  0.10566000000E+00 0.  1.
<mgrwt>
<rscale>  1 0.89871722E+03</rscale>
<asrwt>0</asrwt>
<pdfrwt beam="1">  1       21 0.26922680E+00 0.11100111E+04</pdfrwt>
<pdfrwt beam="2">  1       -4 0.61296065E-01 0.11100111E+04</pdfrwt>
<totfact> 0.40125535E+00</totfact>
</mgrwt>
</event>
<event>
 6    2  0.2294477E-005  0.1008162E+04  0.7818608E-02  0.9822814E-01
         -4   -1    0    0    0  501 -0.00000000000E+00  0.00000000000E+00  0.70521029942E+03  0.70521029942E+03  0.00000000000E+00 0. -1.
         21   -1    0    0  501  502  0.00000000000E+00 -0.00000000000E+00 -0.50520559041E+03  0.50520559041E+03  0.00000000000E+00 0. -1.
   -9000010    2    1    2    0  502  0.15601187717E+03 -0.54616908774E+02  0.90667366105E+02  0.10122306778E+04  0.99451880892E+03 0.  0.
         13    1    3    3    0    0  0.28296211849E+03  0.29537207936E+03  0.36623783667E+03  0.54903769446E+03  0.10566000000E+00 0. -1.
         -4    1    3    3    0  502 -0.12695024132E+03 -0.34998898813E+03 -0.27557047056E+03  0.46319298336E+03  0.00000000000E+00 0. -1.
        -13    1    1    2    0    0 -0.15601187717E+03  0.54616908774E+02  0.10933734291E+03  0.19818521201E+03  0.10566000000E+00 0.  1.
<mgrwt>
<rscale>  1 0.64152443E+03</rscale>
<asrwt>0</asrwt>
<pdfrwt beam="2">  1       21 0.77723937E-01 0.10081619E+04</pdfrwt>
<pdfrwt beam="1">  1       -4 0.10849389E+00 0.10081619E+04</pdfrwt>
<totfact> 0.38182742E+01</totfact>
</mgrwt>
</event>
<event>
 6    2  0.2294477E-005  0.1008124E+04  0.7818608E-02  0.9790455E-01
         -4   -1    0    0    0  501 -0.00000000000E+00  0.00000000000E+00  0.45992673048E+03  0.45992673048E+03  0.00000000000E+00 0. -1.
         21   -1    0    0  501  502  0.00000000000E+00 -0.00000000000E+00 -0.87758646351E+03  0.87758646351E+03  0.00000000000E+00 0. -1.
   -9000010    2    1    2    0  502  0.16622778772E+03 -0.78482638065E+02 -0.15960548116E+03  0.10206800992E+04  0.99122285758E+03 0.  0.
         13    1    3    3    0    0  0.75518536585E+02 -0.44821805691E+03  0.20036863135E+03  0.49673944428E+03  0.10566000000E+00 0. -1.
         -4    1    3    3    0  502  0.90709251140E+02  0.36973541885E+03 -0.35997411251E+03  0.52394065491E+03  0.00000000000E+00 0. -1.
        -13    1    1    2    0    0 -0.16622778772E+03  0.78482638065E+02 -0.25805425187E+03  0.31683309480E+03  0.10566000000E+00 0.  1.
<mgrwt>
<rscale>  1 0.65877329E+03</rscale>
<asrwt>0</asrwt>
<pdfrwt beam="2">  1       21 0.13501330E+00 0.10081240E+04</pdfrwt>
<pdfrwt beam="1">  1       -4 0.70757958E-01 0.10081240E+04</pdfrwt>
<totfact> 0.26180231E+01</totfact>
</mgrwt>
</event>
<event>
 6    2  0.2294477E-005  0.1130779E+04  0.7818608E-02  0.9392046E-01
         21   -1    0    0  501  502  0.00000000000E+00  0.00000000000E+00  0.10872269364E+04  0.10872269364E+04  0.00000000000E+00 0. -1.
         -4   -1    0    0    0  501 -0.00000000000E+00 -0.00000000000E+00 -0.67305864199E+03  0.67305864199E+03  0.00000000000E+00 0. -1.
   -9000010    2    1    2    0  502 -0.19872244800E+03  0.47126957728E+03  0.48985331512E+02  0.11318396910E+04  0.10085018084E+04 0.  0.
         13    1    3    3    0    0  0.14506627977E+03  0.66522559748E+03  0.19934921022E+03  0.70944304905E+03  0.10566000000E+00 0. -1.
         -4    1    3    3    0  502 -0.34378872777E+03 -0.19395602020E+03 -0.15036387871E+03  0.42239664196E+03  0.00000000000E+00 0. -1.
        -13    1    1    2    0    0  0.19872244800E+03 -0.47126957728E+03  0.36518296289E+03  0.62844588737E+03  0.10566000000E+00 0.  1.
<mgrwt>
<rscale>  1 0.92733177E+03</rscale>
<asrwt>0</asrwt>
<pdfrwt beam="1">  1       21 0.16726568E+00 0.11307792E+04</pdfrwt>
<pdfrwt beam="2">  1       -4 0.10354748E+00 0.11307792E+04</pdfrwt>
<totfact> 0.58298607E+00</totfact>
</mgrwt>
</event>
<event>
 6    2  0.2294477E-005  0.1097992E+04  0.7818608E-02  0.9476777E-01
         -4   -1    0    0    0  501 -0.00000000000E+00  0.00000000000E+00  0.29717140894E+03  0.29717140894E+03  0.00000000000E+00 0. -1.
         21   -1    0    0  501  502  0.00000000000E+00 -0.00000000000E+00 -0.19232995273E+04  0.19232995273E+04  0.00000000000E+00 0. -1.
   -9000010    2    1    2    0  502  0.14134800823E+03 -0.38867209838E+03 -0.12051221303E+04  0.16303088291E+04  0.10171245106E+04 0.  0.
         13    1    3    3    0    0 -0.32724867652E+03 -0.43846883782E+03 -0.94523282962E+03  0.10921592061E+04  0.10566000000E+00 0. -1.
         -4    1    3    3    0  502  0.46859668475E+03  0.49796739439E+02 -0.25988930066E+03  0.53814962307E+03  0.00000000000E+00 0. -1.
        -13    1    1    2    0    0 -0.14134800823E+03  0.38867209838E+03 -0.42100598804E+03  0.59016210707E+03  0.10566000000E+00 0.  1.
<mgrwt>
<rscale>  1 0.86017816E+03</rscale>
<asrwt>0</asrwt>
<pdfrwt beam="2">  1       21 0.29589225E+00 0.10979925E+04</pdfrwt>
<pdfrwt beam="1">  1       -4 0.45718676E-01 0.10979925E+04</pdfrwt>
<totfact> 0.51196242E+00</totfact>
</mgrwt>
</event>
<event>
 6    2  0.2294477E-005  0.1077146E+04  0.7818608E-02  0.9517665E-01
         21   -1    0    0  501  502  0.00000000000E+00  0.00000000000E+00  0.64965966672E+03  0.64965966672E+03  0.00000000000E+00 0. -1.
         -4   -1    0    0    0  501 -0.00000000000E+00 -0.00000000000E+00 -0.93975022833E+03  0.93975022833E+03  0.00000000000E+00 0. -1.
   -9000010    2    1    2    0  502  0.12612214144E+03 -0.35806707228E+03  0.51980896920E+02  0.10783994091E+04  0.10080299843E+04 0.  0.
         13    1    3    3    0    0  0.53515751816E+03 -0.11992692157E+02 -0.31127226721E+02  0.53619614817E+03  0.10566000000E+00 0. -1.
         -4    1    3    3    0  502 -0.40903537672E+03 -0.34607438012E+03  0.83108123641E+02  0.54220326096E+03  0.00000000000E+00 0. -1.
        -13    1    1    2    0    0 -0.12612214144E+03  0.35806707228E+03 -0.34207145853E+03  0.51101048591E+03  0.10566000000E+00 0.  1.
<mgrwt>
<rscale>  1 0.82993865E+03</rscale>
<asrwt>0</asrwt>
<pdfrwt beam="1">  1       21 0.99947642E-01 0.10771459E+04</pdfrwt>
<pdfrwt beam="2">  1       -4 0.14457696E+00 0.10771459E+04</pdfrwt>
<totfact> 0.99638671E+00</totfact>
</mgrwt>
</event>
<event>
 6    2  0.2294477E-005  0.9799182E+03  0.7818608E-02  0.1030523E+00
         -4   -1    0    0    0  501 -0.00000000000E+00  0.00000000000E+00  0.12662255370E+04  0.12662255370E+04  0.00000000000E+00 0. -1.
         21   -1    0    0  501  502  0.00000000000E+00 -0.00000000000E+00 -0.22611046768E+03  0.22611046768E+03  0.00000000000E+00 0. -1.
   -9000010    2    1    2    0  502  0.17602784215E+01  0.40059708244E+02  0.84742748953E+03  0.12955203717E+04  0.97909744395E+03 0.  0.
         13    1    3    3    0    0  0.13086611622E+03  0.17649945354E+03 -0.15931593327E+03  0.27140297572E+03  0.10566000000E+00 0. -1.
         -4    1    3    3    0  502 -0.12910583780E+03 -0.13643974529E+03  0.10067434228E+04  0.10241173960E+04  0.00000000000E+00 0. -1.
        -13    1    1    2    0    0 -0.17602784215E+01 -0.40059708244E+02  0.19268757982E+03  0.19681563298E+03  0.10566000000E+00 0.  1.
<mgrwt>
<rscale>  1 0.44073182E+03</rscale>
<asrwt>0</asrwt>
<pdfrwt beam="2">  1       21 0.34786226E-01 0.97991820E+03</pdfrwt>
<pdfrwt beam="1">  1       -4 0.19480393E+00 0.97991820E+03</pdfrwt>
<totfact> 0.46069766E+01</totfact>
</mgrwt>
</event>
<event>
 6    2  0.2294477E-005  0.9943905E+03  0.7818608E-02  0.9632901E-01
         -4   -1    0    0    0  501 -0.00000000000E+00  0.00000000000E+00  0.58366560670E+03  0.58366560670E+03  0.00000000000E+00 0. -1.
         21   -1    0    0  501  502  0.00000000000E+00 -0.00000000000E+00 -0.11616638186E+04  0.11616638186E+04  0.00000000000E+00 0. -1.
   -9000010    2    1    2    0  502 -0.31310902113E+03 -0.85157602243E+02 -0.86056331939E+03  0.13150595943E+04  0.93995927227E+03 0.  0.
         13    1    3    3    0    0 -0.63870304601E+03  0.24067205221E+02 -0.46026910841E+03  0.78763473429E+03  0.10566000000E+00 0. -1.
         -4    1    3    3    0  502  0.32559402488E+03 -0.10922480746E+03 -0.40029421097E+03  0.52742485999E+03  0.00000000000E+00 0. -1.
        -13    1    1    2    0    0  0.31310902113E+03  0.85157602243E+02  0.28256510750E+03  0.43026983100E+03  0.10566000000E+00 0.  1.
<mgrwt>
<rscale>  1 0.75156345E+03</rscale>
<asrwt>0</asrwt>
<pdfrwt beam="2">  1       21 0.17871751E+00 0.99439052E+03</pdfrwt>
<pdfrwt beam="1">  1       -4 0.89794709E-01 0.99439052E+03</pdfrwt>
<totfact> 0.68581112E+00</totfact>
</mgrwt>
</event>
<event>
 6    2  0.2294477E-005  0.1039037E+04  0.7818608E-02  0.9631996E-01
         21   -1    0    0  501  502  0.00000000000E+00  0.00000000000E+00  0.12815031527E+04  0.12815031527E+04  0.00000000000E+00 0. -1.
         -4   -1    0    0    0  501 -0.00000000000E+00 -0.00000000000E+00 -0.34352180320E+03  0.34352180320E+03  0.00000000000E+00 0. -1.
   -9000010    2    1    2    0  502  0.26159947656E+03 -0.11385860614E+03  0.69262327991E+03  0.12487289795E+04  0.99909908825E+03 0.  0.
         13    1    3    3    0    0 -0.20402689915E+03 -0.28213849142E+03  0.66766555226E+03  0.75299827672E+03  0.10566000000E+00 0. -1.
         -4    1    3    3    0  502  0.46562637571E+03  0.16827988528E+03  0.24957727657E+02  0.49573070282E+03  0.00000000000E+00 0. -1.
        -13    1    1    2    0    0 -0.26159947656E+03  0.11385860614E+03  0.24535806954E+03  0.37629597631E+03  0.10566000000E+00 0.  1.
<mgrwt>
<rscale>  1 0.75214220E+03</rscale>
<asrwt>0</asrwt>
<pdfrwt beam="1">  1       21 0.19715433E+00 0.10390366E+04</pdfrwt>
<pdfrwt beam="2">  1       -4 0.52849509E-01 0.10390366E+04</pdfrwt>
<totfact> 0.16504108E+01</totfact>
</mgrwt>
</event>
<event>
 6    2  0.2294477E-005  0.1026032E+04  0.7818608E-02  0.9802821E-01
         21   -1    0    0  501  502  0.00000000000E+00  0.00000000000E+00  0.24257182032E+04  0.24257182032E+04  0.00000000000E+00 0. -1.
         -4   -1    0    0    0  501 -0.00000000000E+00 -0.00000000000E+00 -0.23266562500E+03  0.23266562500E+03  0.00000000000E+00 0. -1.
   -9000010    2    1    2    0  502  0.16621105592E+03  0.20091561914E+02  0.22569159480E+04  0.24791958623E+04  0.10122809598E+04 0.  0.
         13    1    3    3    0    0  0.43008668482E+03 -0.33205977057E+03  0.88556737164E+03  0.10389744119E+04  0.10566000000E+00 0. -1.
         -4    1    3    3    0  502 -0.26387562891E+03  0.35215133248E+03  0.13713485763E+04  0.14402214504E+04  0.00000000000E+00 0. -1.
        -13    1    1    2    0    0 -0.16621105592E+03 -0.20091561914E+02 -0.63863369732E+02  0.17918796591E+03  0.10566000000E+00 0.  1.
<mgrwt>
<rscale>  1 0.65211367E+03</rscale>
<asrwt>0</asrwt>
<pdfrwt beam="1">  1       21 0.37318740E+00 0.10260324E+04</pdfrwt>
<pdfrwt beam="2">  1       -4 0.35794713E-01 0.10260324E+04</pdfrwt>
<totfact> 0.27891260E+00</totfact>
</mgrwt>
</event>
<event>
 6    2  0.2294477E-005  0.1023615E+04  0.7818608E-02  0.9643281E-01
         -4   -1    0    0    0  501 -0.00000000000E+00  0.00000000000E+00  0.31509700567E+03  0.31509700567E+03  0.00000000000E+00 0. -1.
         21   -1    0    0  501  502  0.00000000000E+00 -0.00000000000E+00 -0.13786866271E+04  0.13786866271E+04  0.00000000000E+00 0. -1.
   -9000010    2    1    2    0  502  0.28914747536E+02  0.28570913890E+03 -0.90167942739E+03  0.13641160778E+04  0.98250756197E+03 0.  0.
         13    1    3    3    0    0 -0.36404387208E+03  0.41980022522E+03 -0.29543884358E+03  0.62932049971E+03  0.10566000000E+00 0. -1.
         -4    1    3    3    0  502  0.39295861962E+03 -0.13409108632E+03 -0.60624058380E+03  0.73479557811E+03  0.00000000000E+00 0. -1.
        -13    1    1    2    0    0 -0.28914747536E+02 -0.28570913890E+03 -0.16191019402E+03  0.32966755492E+03  0.10566000000E+00 0.  1.
<mgrwt>
<rscale>  1 0.74496623E+03</rscale>
<asrwt>0</asrwt>
<pdfrwt beam="2">  1       21 0.21210563E+00 0.10236146E+04</pdfrwt>
<pdfrwt beam="1">  1       -4 0.48476463E-01 0.10236146E+04</pdfrwt>
<totfact> 0.15700904E+01</totfact>
</mgrwt>
</event>
<event>
 6    2  0.2294477E-005  0.1114359E+04  0.7818608E-02  0.9405845E-01
         21   -1    0    0  501  502  0.00000000000E+00  0.00000000000E+00  0.37519047674E+03  0.37519047674E+03  0.00000000000E+00 0. -1.
         -4   -1    0    0    0  501 -0.00000000000E+00 -0.00000000000E+00 -0.17900402743E+04  0.17900402743E+04  0.00000000000E+00 0. -1.
   -9000010    2    1    2    0  502  0.30707896162E+03 -0.40551948681E+03 -0.82605696773E+03  0.13871429986E+04  0.99148980925E+03 0.  0.
         13    1    3    3    0    0  0.62627287301E+03 -0.44988060323E+03 -0.45363268582E+03  0.89464679815E+03  0.10566000000E+00 0. -1.
         -4    1    3    3    0  502 -0.31919391140E+03  0.44361116419E+02 -0.37242428191E+03  0.49249620047E+03  0.00000000000E+00 0. -1.
        -13    1    1    2    0    0 -0.30707896162E+03  0.40551948681E+03 -0.58879282983E+03  0.77808775243E+03  0.10566000000E+00 0.  1.
<mgrwt>
<rscale>  1 0.91596206E+03</rscale>
<asrwt>0</asrwt>
<pdfrwt beam="1">  1       21 0.57721612E-01 0.11143588E+04</pdfrwt>
<pdfrwt beam="2">  1       -4 0.27539081E+00 0.11143588E+04</pdfrwt>
<totfact> 0.47732438E+00</totfact>
</mgrwt>
</event>
<event>
 6    2  0.2294477E-005  0.9309356E+03  0.7818608E-02  0.9697808E-01
         21   -1    0    0  501  502  0.00000000000E+00  0.00000000000E+00  0.19327205682E+04  0.19327205682E+04  0.00000000000E+00 0. -1.
         -4   -1    0    0    0  501 -0.00000000000E+00 -0.00000000000E+00 -0.25912715806E+03  0.25912715806E+03  0.00000000000E+00 0. -1.
   -9000010    2    1    2    0  502 -0.20180762082E+03 -0.24523946832E+03  0.16218852160E+04  0.18700675821E+04  0.87508422181E+03 0.  0.
         13    1    3    3    0    0  0.17259540490E+03 -0.52309913080E+02  0.13647021113E+04  0.13765672394E+04  0.10566000000E+00 0. -1.
         -4    1    3    3    0  502 -0.37440302572E+03 -0.19292955524E+03  0.25718310468E+03  0.49350034274E+03  0.00000000000E+00 0. -1.
        -13    1    1    2    0    0  0.20180762082E+03  0.24523946832E+03  0.51708194133E+02  0.32178014411E+03  0.10566000000E+00 0.  1.
<mgrwt>
<rscale>  1 0.71147443E+03</rscale>
<asrwt>0</asrwt>
<pdfrwt beam="1">  1       21 0.29734162E+00 0.93093561E+03</pdfrwt>
<pdfrwt beam="2">  1       -4 0.39865718E-01 0.93093561E+03</pdfrwt>
<totfact> 0.68442455E+00</totfact>
</mgrwt>
</event>
<event>
 6    2  0.2294477E-005  0.8727488E+03  0.7818608E-02  0.9812644E-01
         -4   -1    0    0    0  501 -0.00000000000E+00  0.00000000000E+00  0.13672003725E+04  0.13672003725E+04  0.00000000000E+00 0. -1.
         21   -1    0    0  501  502  0.00000000000E+00 -0.00000000000E+00 -0.45033382696E+03  0.45033382696E+03  0.00000000000E+00 0. -1.
   -9000010    2    1    2    0  502 -0.25167960631E+03 -0.77742494623E+02  0.95996884333E+01  0.87280160191E+03  0.83204805305E+03 0.  0.
         13    1    3    3    0    0 -0.83221424402E+02 -0.44988131048E+03 -0.48990820459E+02  0.46012944989E+03  0.10566000000E+00 0. -1.
         -4    1    3    3    0  502 -0.16845818191E+03  0.37213881586E+03  0.58590508893E+02  0.41267215202E+03  0.00000000000E+00 0. -1.
        -13    1    1    2    0    0  0.25167960631E+03  0.77742494623E+02  0.90726685711E+03  0.94473259755E+03  0.10566000000E+00 0.  1.
<mgrwt>
<rscale>  1 0.64688390E+03</rscale>
<asrwt>0</asrwt>
<pdfrwt beam="2">  1       21 0.69282128E-01 0.87274881E+03</pdfrwt>
<pdfrwt beam="1">  1       -4 0.21033852E+00 0.87274881E+03</pdfrwt>
<totfact> 0.83335107E+00</totfact>
</mgrwt>
</event>
<event>
 6    2  0.2294477E-005  0.1007871E+04  0.7818608E-02  0.9909041E-01
         -4   -1    0    0    0  501 -0.00000000000E+00  0.00000000000E+00  0.14762950772E+04  0.14762950772E+04  0.00000000000E+00 0. -1.
         21   -1    0    0  501  502  0.00000000000E+00 -0.00000000000E+00 -0.30798896138E+03  0.30798896138E+03  0.00000000000E+00 0. -1.
   -9000010    2    1    2    0  502  0.67419615333E+02  0.10539966104E+03  0.53956030968E+03  0.11432101014E+04  0.10000747547E+04 0.  0.
         13    1    3    3    0    0 -0.15424770273E+02  0.48440114141E+03  0.57691289326E+03  0.75346591622E+03  0.10566000000E+00 0. -1.
         -4    1    3    3    0  502  0.82844385606E+02 -0.37900148037E+03 -0.37352583575E+02  0.38974418514E+03  0.00000000000E+00 0. -1.
        -13    1    1    2    0    0 -0.67419615333E+02 -0.10539966104E+03  0.62874580616E+03  0.64107393723E+03  0.10566000000E+00 0.  1.
<mgrwt>
<rscale>  1 0.59825128E+03</rscale>
<asrwt>0</asrwt>
<pdfrwt beam="2">  1       21 0.47382918E-01 0.10078710E+04</pdfrwt>
<pdfrwt beam="1">  1       -4 0.22712232E+00 0.10078710E+04</pdfrwt>
<totfact> 0.14826399E+01</totfact>
</mgrwt>
</event>
<event>
 6    2  0.2294477E-005  0.1102053E+04  0.7818608E-02  0.9432540E-01
         21   -1    0    0  501  502  0.00000000000E+00  0.00000000000E+00  0.32034072984E+03  0.32034072984E+03  0.00000000000E+00 0. -1.
         -4   -1    0    0    0  501 -0.00000000000E+00 -0.00000000000E+00 -0.19665593560E+04  0.19665593560E+04  0.00000000000E+00 0. -1.
   -9000010    2    1    2    0  502 -0.46946930350E+03 -0.91049701266E+02 -0.10455029073E+04  0.15190779313E+04  0.99288970033E+03 0.  0.
         13    1    3    3    0    0 -0.30335572686E+03 -0.23155467557E+02 -0.12268143613E+04  0.12639756172E+04  0.10566000000E+00 0. -1.
         -4    1    3    3    0  502 -0.16611357664E+03 -0.67894233709E+02  0.18131145394E+03  0.25510231407E+03  0.00000000000E+00 0. -1.
        -13    1    1    2    0    0  0.46946930350E+03  0.91049701266E+02 -0.60071571884E+03  0.76782215457E+03  0.10566000000E+00 0.  1.
<mgrwt>
<rscale>  1 0.89445438E+03</rscale>
<asrwt>0</asrwt>
<pdfrwt beam="1">  1       21 0.49283190E-01 0.11020533E+04</pdfrwt>
<pdfrwt beam="2">  1       -4 0.30254759E+00 0.11020533E+04</pdfrwt>
<totfact> 0.45890956E+00</totfact>
</mgrwt>
</event>
<event>
 6    2  0.2294477E-005  0.1050318E+04  0.7818608E-02  0.9570503E-01
         -4   -1    0    0    0  501 -0.00000000000E+00  0.00000000000E+00  0.12827794930E+04  0.12827794930E+04  0.00000000000E+00 0. -1.
         21   -1    0    0  501  502  0.00000000000E+00 -0.00000000000E+00 -0.49148056779E+03  0.49148056779E+03  0.00000000000E+00 0. -1.
   -9000010    2    1    2    0  502 -0.56695139178E+02  0.33619799077E+03  0.16780985179E+03  0.10636391607E+04  0.99344083368E+03 0.  0.
         13    1    3    3    0    0 -0.99074238374E+02  0.57936468801E+03  0.41093305818E+03  0.71717859414E+03  0.10566000000E+00 0. -1.
         -4    1    3    3    0  502  0.42379099196E+02 -0.24316669725E+03 -0.24312320639E+03  0.34646056656E+03  0.00000000000E+00 0. -1.
        -13    1    1    2    0    0  0.56695139178E+02 -0.33619799077E+03  0.62348907343E+03  0.71062090010E+03  0.10566000000E+00 0.  1.
<mgrwt>
<rscale>  1 0.79279645E+03</rscale>
<asrwt>0</asrwt>
<pdfrwt beam="2">  1       21 0.75612395E-01 0.10503181E+04</pdfrwt>
<pdfrwt beam="1">  1       -4 0.19735069E+00 0.10503181E+04</pdfrwt>
<totfact> 0.81058023E+00</totfact>
</mgrwt>
</event>
<event>
 6    2  0.2294477E-005  0.1034379E+04  0.7818608E-02  0.9691017E-01
         -4   -1    0    0    0  501 -0.00000000000E+00  0.00000000000E+00  0.61816025136E+03  0.61816025136E+03  0.00000000000E+00 0. -1.
         21   -1    0    0  501  502  0.00000000000E+00 -0.00000000000E+00 -0.65956330914E+03  0.65956330914E+03  0.00000000000E+00 0. -1.
   -9000010    2    1    2    0  502 -0.16867202362E+03  0.16629639417E+03 -0.81108755990E+02  0.10375542538E+04  0.10068939651E+04 0.  0.
         13    1    3    3    0    0  0.35070453080E+03  0.15851944741E+03 -0.28565968220E+03  0.47929484488E+03  0.10566000000E+00 0. -1.
         -4    1    3    3    0  502 -0.51937655442E+03  0.77769467622E+01  0.20455092621E+03  0.55825940887E+03  0.00000000000E+00 0. -1.
        -13    1    1    2    0    0  0.16867202362E+03 -0.16629639417E+03  0.39705698204E+02  0.24016930674E+03  0.10566000000E+00 0.  1.
<mgrwt>
<rscale>  1 0.71554141E+03</rscale>
<asrwt>0</asrwt>
<pdfrwt beam="2">  1       21 0.10147128E+00 0.10343791E+04</pdfrwt>
<pdfrwt beam="1">  1       -4 0.95101577E-01 0.10343791E+04</pdfrwt>
<totfact> 0.27567338E+01</totfact>
</mgrwt>
</event>
<event>
 6    2  0.2294477E-005  0.9880347E+03  0.7818608E-02  0.1004704E+00
         -4   -1    0    0    0  501 -0.00000000000E+00  0.00000000000E+00  0.37698384328E+03  0.37698384328E+03  0.00000000000E+00 0. -1.
         21   -1    0    0  501  502  0.00000000000E+00 -0.00000000000E+00 -0.84650388725E+03  0.84650388725E+03  0.00000000000E+00 0. -1.
   -9000010    2    1    2    0  502  0.70001368032E+02 -0.49608785711E+02 -0.52740832097E+03  0.11199875522E+04  0.98430247222E+03 0.  0.
         13    1    3    3    0    0  0.14050382843E+03  0.16728541199E+03  0.23697352075E+03  0.32230761016E+03  0.10566000000E+00 0. -1.
         -4    1    3    3    0  502 -0.70502460403E+02 -0.21689419770E+03 -0.76438184172E+03  0.79767994200E+03  0.00000000000E+00 0. -1.
        -13    1    1    2    0    0 -0.70001368032E+02  0.49608785711E+02  0.57888277002E+02  0.10350017838E+03  0.10566000000E+00 0.  1.
<mgrwt>
<rscale>  1 0.53634962E+03</rscale>
<asrwt>0</asrwt>
<pdfrwt beam="2">  1       21 0.13023137E+00 0.98803471E+03</pdfrwt>
<pdfrwt beam="1">  1       -4 0.57997514E-01 0.98803471E+03</pdfrwt>
<totfact> 0.44762635E+01</totfact>
</mgrwt>
</event>
<event>
 6    2  0.2294477E-005  0.1038632E+04  0.7818608E-02  0.9772003E-01
         -4   -1    0    0    0  501 -0.00000000000E+00  0.00000000000E+00  0.12729247804E+04  0.12729247804E+04  0.00000000000E+00 0. -1.
         21   -1    0    0  501  502  0.00000000000E+00 -0.00000000000E+00 -0.31077256325E+03  0.31077256325E+03  0.00000000000E+00 0. -1.
   -9000010    2    1    2    0  502  0.13444912903E+02 -0.17813386936E+03  0.65362564673E+03  0.12271849358E+04  0.10231539179E+04 0.  0.
         13    1    3    3    0    0 -0.36529485180E+03 -0.22519480344E+03 -0.44618721841E+02  0.43144393582E+03  0.10566000000E+00 0. -1.
         -4    1    3    3    0  502  0.37873976471E+03  0.47060934086E+02  0.69824436857E+03  0.79574100003E+03  0.00000000000E+00 0. -1.
        -13    1    1    2    0    0 -0.13444912903E+02  0.17813386936E+03  0.30852657037E+03  0.35651240776E+03  0.10566000000E+00 0.  1.
<mgrwt>
<rscale>  1 0.66886934E+03</rscale>
<asrwt>0</asrwt>
<pdfrwt beam="2">  1       21 0.47811164E-01 0.10386320E+04</pdfrwt>
<pdfrwt beam="1">  1       -4 0.19583458E+00 0.10386320E+04</pdfrwt>
<totfact> 0.23126151E+01</totfact>
</mgrwt>
</event>
<event>
 6    2  0.2294477E-005  0.1031508E+04  0.7818608E-02  0.9767244E-01
         -4   -1    0    0    0  501 -0.00000000000E+00  0.00000000000E+00  0.24105515501E+03  0.24105515501E+03  0.00000000000E+00 0. -1.
         21   -1    0    0  501  502  0.00000000000E+00 -0.00000000000E+00 -0.23274482386E+04  0.23274482386E+04  0.00000000000E+00 0. -1.
   -9000010    2    1    2    0  502  0.18141617508E+03  0.37532705066E+02 -0.21400144743E+04  0.23756412738E+04  0.10147359160E+04 0.  0.
         13    1    3    3    0    0 -0.44623995885E+02  0.12939077989E+03  0.68940709747E+02  0.15325177831E+03  0.10566000000E+00 0. -1.
         -4    1    3    3    0  502  0.22604017097E+03 -0.91858074824E+02 -0.22089551840E+04  0.22223894955E+04  0.00000000000E+00 0. -1.
        -13    1    1    2    0    0 -0.18141617508E+03 -0.37532705066E+02  0.53621390704E+02  0.19286211975E+03  0.10566000000E+00 0.  1.
<mgrwt>
<rscale>  1 0.67150436E+03</rscale>
<asrwt>0</asrwt>
<pdfrwt beam="2">  1       21 0.35806897E+00 0.10315084E+04</pdfrwt>
<pdfrwt beam="1">  1       -4 0.37085408E-01 0.10315084E+04</pdfrwt>
<totfact> 0.32405800E+00</totfact>
</mgrwt>
</event>
<event>
 6    2  0.2294477E-005  0.1112623E+04  0.7818608E-02  0.9418159E-01
         -4   -1    0    0    0  501 -0.00000000000E+00  0.00000000000E+00  0.82289922012E+03  0.82289922012E+03  0.00000000000E+00 0. -1.
         21   -1    0    0  501  502  0.00000000000E+00 -0.00000000000E+00 -0.85172506976E+03  0.85172506976E+03  0.00000000000E+00 0. -1.
   -9000010    2    1    2    0  502  0.32574855020E+03 -0.36483579636E+03 -0.24597486188E+03  0.11394878765E+04  0.99935564825E+03 0.  0.
         13    1    3    3    0    0  0.68581868267E+03 -0.25056701918E+03 -0.11216963853E+03  0.73872399147E+03  0.10566000000E+00 0. -1.
         -4    1    3    3    0  502 -0.36007013246E+03 -0.11426877718E+03 -0.13380522335E+03  0.40076388501E+03  0.00000000000E+00 0. -1.
        -13    1    1    2    0    0 -0.32574855020E+03  0.36483579636E+03  0.21714901225E+03  0.53513641340E+03  0.10566000000E+00 0.  1.
<mgrwt>
<rscale>  1 0.90596198E+03</rscale>
<asrwt>0</asrwt>
<pdfrwt beam="2">  1       21 0.13103463E+00 0.11126226E+04</pdfrwt>
<pdfrwt beam="1">  1       -4 0.12659988E+00 0.11126226E+04</pdfrwt>
<totfact> 0.69915327E+00</totfact>
</mgrwt>
</event>
<event>
 6    2  0.2294477E-005  0.1094587E+04  0.7818608E-02  0.9743043E-01
         21   -1    0    0  501  502  0.00000000000E+00  0.00000000000E+00  0.93473081659E+03  0.93473081659E+03  0.00000000000E+00 0. -1.
         -4   -1    0    0    0  501 -0.00000000000E+00 -0.00000000000E+00 -0.42671410819E+03  0.42671410819E+03  0.00000000000E+00 0. -1.
   -9000010    2    1    2    0  502 -0.62948018589E+01  0.16787332256E+03  0.45370785640E+03  0.11848931207E+04  0.10816190695E+04 0.  0.
         13    1    3    3    0    0 -0.16893539079E+03  0.56473300101E+03  0.42934920643E+02  0.59102110560E+03  0.10566000000E+00 0. -1.
         -4    1    3    3    0  502  0.16264058893E+03 -0.39685967845E+03  0.41077293576E+03  0.59387201509E+03  0.00000000000E+00 0. -1.
        -13    1    1    2    0    0  0.62948018589E+01 -0.16787332256E+03  0.54308852000E+02  0.17655180409E+03  0.10566000000E+00 0.  1.
<mgrwt>
<rscale>  1 0.68510866E+03</rscale>
<asrwt>0</asrwt>
<pdfrwt beam="1">  1       21 0.14380474E+00 0.10945871E+04</pdfrwt>
<pdfrwt beam="2">  1       -4 0.65648325E-01 0.10945871E+04</pdfrwt>
<totfact> 0.25839451E+01</totfact>
</mgrwt>
</event>
<event>
 6    2  0.2294477E-005  0.1246712E+04  0.7818608E-02  0.9589670E-01
         -4   -1    0    0    0  501 -0.00000000000E+00  0.00000000000E+00  0.56847160138E+03  0.56847160138E+03  0.00000000000E+00 0. -1.
         21   -1    0    0  501  502  0.00000000000E+00 -0.00000000000E+00 -0.12925435559E+04  0.12925435559E+04  0.00000000000E+00 0. -1.
   -9000010    2    1    2    0  502 -0.18764145552E+03 -0.34905976567E+02 -0.94842489381E+03  0.15664612648E+04  0.12320159787E+04 0.  0.
         13    1    3    3    0    0 -0.33828556107E+03 -0.33021012055E+03  0.85754884356E+02  0.48044745383E+03  0.10566000000E+00 0. -1.
         -4    1    3    3    0  502  0.15064410555E+03  0.29530414398E+03 -0.10341797782E+04  0.10860138109E+04  0.00000000000E+00 0. -1.
        -13    1    1    2    0    0  0.18764145552E+03  0.34905976567E+02  0.22435293932E+03  0.29455389248E+03  0.10566000000E+00 0.  1.
<mgrwt>
<rscale>  1 0.77983673E+03</rscale>
<asrwt>0</asrwt>
<pdfrwt beam="2">  1       21 0.19885285E+00 0.12467121E+04</pdfrwt>
<pdfrwt beam="1">  1       -4 0.87457170E-01 0.12467121E+04</pdfrwt>
<totfact> 0.50857740E+00</totfact>
</mgrwt>
</event>
<event>
 6    2  0.2294477E-005  0.9953047E+03  0.7818608E-02  0.9989927E-01
         21   -1    0    0  501  502  0.00000000000E+00  0.00000000000E+00  0.14955875458E+04  0.14955875458E+04  0.00000000000E+00 0. -1.
         -4   -1    0    0    0  501 -0.00000000000E+00 -0.00000000000E+00 -0.23918625628E+03  0.23918625628E+03  0.00000000000E+00 0. -1.
   -9000010    2    1    2    0  502  0.96036146948E+02  0.29331761204E+02  0.82777881419E+03  0.12945459846E+04  0.99022636169E+03 0.  0.
         13    1    3    3    0    0 -0.29753739629E+03  0.32878191226E+03  0.17762202199E+03  0.47767734076E+03  0.10566000000E+00 0. -1.
         -4    1    3    3    0  502  0.39357354323E+03 -0.29945015105E+03  0.65015679221E+03  0.81686864388E+03  0.00000000000E+00 0. -1.
        -13    1    1    2    0    0 -0.96036146948E+02 -0.29331761204E+02  0.42862247535E+03  0.44022781747E+03  0.10566000000E+00 0.  1.
<mgrwt>
<rscale>  1 0.56094137E+03</rscale>
<asrwt>0</asrwt>
<pdfrwt beam="1">  1       21 0.23009039E+00 0.99530475E+03</pdfrwt>
<pdfrwt beam="2">  1       -4 0.36797887E-01 0.99530475E+03</pdfrwt>
<totfact> 0.21135554E+01</totfact>
</mgrwt>
</event>
<event>
 6    2  0.2294477E-005  0.1077309E+04  0.7818608E-02  0.9491013E-01
         -4   -1    0    0    0  501 -0.00000000000E+00  0.00000000000E+00  0.91843238707E+03  0.91843238707E+03  0.00000000000E+00 0. -1.
         21   -1    0    0  501  502  0.00000000000E+00 -0.00000000000E+00 -0.63550737306E+03  0.63550737306E+03  0.00000000000E+00 0. -1.
   -9000010    2    1    2    0  502 -0.60257825035E+02  0.41212813688E+03  0.53994812538E+02  0.10786612576E+04  0.99353614032E+03 0.  0.
         13    1    3    3    0    0  0.37292859971E+03  0.37723541356E+03  0.26791715740E+03  0.59427427348E+03  0.10566000000E+00 0. -1.
         -4    1    3    3    0  502 -0.43318642475E+03  0.34892723319E+02 -0.21392234486E+03  0.48438698409E+03  0.00000000000E+00 0. -1.
        -13    1    1    2    0    0  0.60257825035E+02 -0.41212813688E+03  0.22893020147E+03  0.47527850256E+03  0.10566000000E+00 0.  1.
<mgrwt>
<rscale>  1 0.84949648E+03</rscale>
<asrwt>0</asrwt>
<pdfrwt beam="2">  1       21 0.97770365E-01 0.10773090E+04</pdfrwt>
<pdfrwt beam="1">  1       -4 0.14129729E+00 0.10773090E+04</pdfrwt>
<totfact> 0.11181274E+01</totfact>
</mgrwt>
</event>
<event>
 6    2  0.2294477E-005  0.1008019E+04  0.7818608E-02  0.9834608E-01
         21   -1    0    0  501  502  0.00000000000E+00  0.00000000000E+00  0.82922712470E+03  0.82922712470E+03  0.00000000000E+00 0. -1.
         -4   -1    0    0    0  501 -0.00000000000E+00 -0.00000000000E+00 -0.43163984123E+03  0.43163984123E+03  0.00000000000E+00 0. -1.
   -9000010    2    1    2    0  502  0.25209754214E+02 -0.15711020945E+03  0.23847710042E+03  0.10358442757E+04  0.99538077457E+03 0.  0.
         13    1    3    3    0    0  0.30754567532E+03 -0.13377762420E+02  0.52505622910E+03  0.60864387109E+03  0.10566000000E+00 0. -1.
         -4    1    3    3    0  502 -0.28233592110E+03 -0.14373244703E+03 -0.28657912868E+03  0.42720040458E+03  0.00000000000E+00 0. -1.
        -13    1    1    2    0    0 -0.25209754214E+02  0.15711020945E+03  0.15911018305E+03  0.22502269027E+03  0.10566000000E+00 0.  1.
<mgrwt>
<rscale>  1 0.63537879E+03</rscale>
<asrwt>0</asrwt>
<pdfrwt beam="1">  1       21 0.12757340E+00 0.10080189E+04</pdfrwt>
<pdfrwt beam="2">  1       -4 0.66406129E-01 0.10080189E+04</pdfrwt>
<totfact> 0.35075316E+01</totfact>
</mgrwt>
</event>
<event>
 6    2  0.2294477E-005  0.1049431E+04  0.7818608E-02  0.9595163E-01
         21   -1    0    0  501  502  0.00000000000E+00  0.00000000000E+00  0.11390903561E+04  0.11390903561E+04  0.00000000000E+00 0. -1.
         -4   -1    0    0    0  501 -0.00000000000E+00 -0.00000000000E+00 -0.40951006238E+03  0.40951006238E+03  0.00000000000E+00 0. -1.
   -9000010    2    1    2    0  502  0.25866892219E+03 -0.17805606597E+03  0.60037194980E+03  0.12090295404E+04  0.10013452839E+04 0.  0.
         13    1    3    3    0    0  0.15763333311E+03 -0.58938616620E+03  0.45549431547E+03  0.76137993355E+03  0.10566000000E+00 0. -1.
         -4    1    3    3    0  502  0.10103558908E+03  0.41133010023E+03  0.14487763433E+03  0.44764960689E+03  0.00000000000E+00 0. -1.
        -13    1    1    2    0    0 -0.25866892219E+03  0.17805606597E+03  0.12920834396E+03  0.33957087809E+03  0.10566000000E+00 0.  1.
<mgrwt>
<rscale>  1 0.77617131E+03</rscale>
<asrwt>0</asrwt>
<pdfrwt beam="1">  1       21 0.17524467E+00 0.10494313E+04</pdfrwt>
<pdfrwt beam="2">  1       -4 0.63001549E-01 0.10494313E+04</pdfrwt>
<totfact> 0.16156934E+01</totfact>
</mgrwt>
</event>
<event>
 6    2  0.2294477E-005  0.1018631E+04  0.7818608E-02  0.9881605E-01
         -4   -1    0    0    0  501 -0.00000000000E+00  0.00000000000E+00  0.10363867090E+04  0.10363867090E+04  0.00000000000E+00 0. -1.
         21   -1    0    0  501  502  0.00000000000E+00 -0.00000000000E+00 -0.33948150308E+03  0.33948150308E+03  0.00000000000E+00 0. -1.
   -9000010    2    1    2    0  502  0.70355937406E+02  0.11214625372E+03  0.49030602136E+03  0.11304910037E+04  0.10099916706E+04 0.  0.
         13    1    3    3    0    0 -0.49807752396E+02  0.29293959746E+03  0.74130352953E+03  0.79863968973E+03  0.10566000000E+00 0. -1.
         -4    1    3    3    0  502  0.12016368980E+03 -0.18079334374E+03 -0.25099750817E+03  0.33185131399E+03  0.00000000000E+00 0. -1.
        -13    1    1    2    0    0 -0.70355937406E+02 -0.11214625372E+03  0.20659918453E+03  0.24537720832E+03  0.10566000000E+00 0.  1.
<mgrwt>
<rscale>  1 0.61161126E+03</rscale>
<asrwt>0</asrwt>
<pdfrwt beam="2">  1       21 0.52227924E-01 0.10186314E+04</pdfrwt>
<pdfrwt beam="1">  1       -4 0.15944411E+00 0.10186314E+04</pdfrwt>
<totfact> 0.34546162E+01</totfact>
</mgrwt>
</event>
<event>
 6    2  0.2294477E-005  0.1101619E+04  0.7818608E-02  0.9446874E-01
         21   -1    0    0  501  502  0.00000000000E+00  0.00000000000E+00  0.33715631363E+03  0.33715631363E+03  0.00000000000E+00 0. -1.
         -4   -1    0    0    0  501 -0.00000000000E+00 -0.00000000000E+00 -0.23790958217E+04  0.23790958217E+04  0.00000000000E+00 0. -1.
   -9000010    2    1    2    0  502  0.64865278022E+02 -0.45041809763E+03 -0.71465699033E+03  0.13131260326E+04  0.10032354643E+04 0.  0.
         13    1    3    3    0    0  0.13707733368E+03 -0.26840584378E+03  0.21040763517E+03  0.36756397605E+03  0.10566000000E+00 0. -1.
         -4    1    3    3    0  502 -0.72212055656E+02 -0.18201225385E+03 -0.92506462550E+03  0.94556205660E+03  0.00000000000E+00 0. -1.
        -13    1    1    2    0    0 -0.64865278022E+02  0.45041809763E+03 -0.13272825177E+04  0.14031261026E+04  0.10566000000E+00 0.  1.
<mgrwt>
<rscale>  1 0.88316531E+03</rscale>
<asrwt>0</asrwt>
<pdfrwt beam="1">  1       21 0.51870204E-01 0.11016194E+04</pdfrwt>
<pdfrwt beam="2">  1       -4 0.36601473E+00 0.11016194E+04</pdfrwt>
<totfact> 0.16142438E+00</totfact>
</mgrwt>
</event>
<event>
 6    2  0.2294477E-005  0.1248283E+04  0.7818608E-02  0.9200699E-01
         21   -1    0    0  501  502  0.00000000000E+00  0.00000000000E+00  0.78982491533E+03  0.78982491533E+03  0.00000000000E+00 0.  1.
         -4   -1    0    0    0  501 -0.00000000000E+00 -0.00000000000E+00 -0.12982830265E+04  0.12982830265E+04  0.00000000000E+00 0. -1.
   -9000010    2    1    2    0  502  0.65567689640E+03 -0.39496414843E+03 -0.20646623138E+03  0.12652422313E+04  0.98605310611E+03 0.  0.
         13    1    3    3    0    0  0.86848623656E+03 -0.12258807588E+03 -0.26147059076E+03  0.91523934599E+03  0.10566000000E+00 0. -1.
         -4    1    3    3    0  502 -0.21280934016E+03 -0.27237607255E+03  0.55004359375E+02  0.35000288528E+03  0.00000000000E+00 0. -1.
        -13    1    1    2    0    0 -0.65567689640E+03  0.39496414843E+03 -0.30199187980E+03  0.82286571058E+03  0.10566000000E+00 0.  1.
<mgrwt>
<rscale>  1 0.11046214E+04</rscale>
<asrwt>0</asrwt>
<pdfrwt beam="1">  1       21 0.12151153E+00 0.12482827E+04</pdfrwt>
<pdfrwt beam="2">  1       -4 0.19973585E+00 0.12482827E+04</pdfrwt>
<totfact> 0.23739887E+00</totfact>
</mgrwt>
</event>
<event>
 6    2  0.2294477E-005  0.1230480E+04  0.7818608E-02  0.9239932E-01
         21   -1    0    0  501  502  0.00000000000E+00  0.00000000000E+00  0.20448593408E+04  0.20448593408E+04  0.00000000000E+00 0. -1.
         -4   -1    0    0    0  501 -0.00000000000E+00 -0.00000000000E+00 -0.48375090910E+03  0.48375090910E+03  0.00000000000E+00 0. -1.
   -9000010    2    1    2    0  502  0.68060664833E+03  0.11750177856E+03  0.13006231616E+04  0.17904472159E+04  0.10183558055E+04 0.  0.
         13    1    3    3    0    0 -0.92182012544E+00  0.44417422046E+02 -0.16584754402E+03  0.17169500911E+03  0.10566000000E+00 0. -1.
         -4    1    3    3    0  502  0.68152846845E+03  0.73084356518E+02  0.14664707056E+04  0.16187522068E+04  0.00000000000E+00 0. -1.
        -13    1    1    2    0    0 -0.68060664833E+03 -0.11750177856E+03  0.26048527011E+03  0.73816303404E+03  0.10566000000E+00 0.  1.
<mgrwt>
<rscale>  1 0.10650606E+04</rscale>
<asrwt>0</asrwt>
<pdfrwt beam="1">  1       21 0.31459374E+00 0.12304798E+04</pdfrwt>
<pdfrwt beam="2">  1       -4 0.74423218E-01 0.12304798E+04</pdfrwt>
<totfact> 0.13271509E+00</totfact>
</mgrwt>
</event>
<event>
 6    2  0.2294477E-005  0.1006879E+04  0.7818608E-02  0.9971160E-01
         21   -1    0    0  501  502  0.00000000000E+00  0.00000000000E+00  0.35846205349E+03  0.35846205349E+03  0.00000000000E+00 0. -1.
         -4   -1    0    0    0  501 -0.00000000000E+00 -0.00000000000E+00 -0.86148965695E+03  0.86148965695E+03  0.00000000000E+00 0. -1.
   -9000010    2    1    2    0  502 -0.67002070168E+02 -0.78131993701E+02 -0.43668615628E+03  0.10974972919E+04  0.10016045231E+04 0.  0.
         13    1    3    3    0    0 -0.51936951779E+03 -0.19655744991E+02 -0.36657367749E+03  0.63600889657E+03  0.10566000000E+00 0. -1.
         -4    1    3    3    0  502  0.45236744762E+03 -0.58476248709E+02 -0.70112478784E+02  0.46148839532E+03  0.00000000000E+00 0. -1.
        -13    1    1    2    0    0  0.67002070168E+02  0.78131993701E+02 -0.66341447181E+02  0.12245441856E+03  0.10566000000E+00 0.  1.
<mgrwt>
<rscale>  1 0.56933117E+03</rscale>
<asrwt>0</asrwt>
<pdfrwt beam="1">  1       21 0.55148008E-01 0.10068791E+04</pdfrwt>
<pdfrwt beam="2">  1       -4 0.13253687E+00 0.10068791E+04</pdfrwt>
<totfact> 0.50213406E+01</totfact>
</mgrwt>
</event>
<event>
 6    2  0.2294477E-005  0.1026615E+04  0.7818608E-02  0.9545149E-01
         21   -1    0    0  501  502  0.00000000000E+00  0.00000000000E+00  0.38709362771E+03  0.38709362771E+03  0.00000000000E+00 0.  1.
         -4   -1    0    0    0  501 -0.00000000000E+00 -0.00000000000E+00 -0.13118839656E+04  0.13118839656E+04  0.00000000000E+00 0. -1.
   -9000010    2    1    2    0  502  0.39844081222E+03 -0.91165106459E+01 -0.65848202460E+03  0.12196464755E+04  0.94609764655E+03 0.  0.
         13    1    3    3    0    0  0.19688050490E+03 -0.42770512512E+03 -0.79822642893E+02  0.47756179992E+03  0.10566000000E+00 0. -1.
         -4    1    3    3    0  502  0.20156030732E+03  0.41858861447E+03 -0.57865938170E+03  0.74208467555E+03  0.00000000000E+00 0. -1.
        -13    1    1    2    0    0 -0.39844081222E+03  0.91165106459E+01 -0.26630831325E+03  0.47933111779E+03  0.10566000000E+00 0.  1.
<mgrwt>
<rscale>  1 0.81035472E+03</rscale>
<asrwt>0</asrwt>
<pdfrwt beam="1">  1       21 0.59552866E-01 0.10266153E+04</pdfrwt>
<pdfrwt beam="2">  1       -4 0.20182830E+00 0.10266153E+04</pdfrwt>
<totfact> 0.13069647E+01</totfact>
</mgrwt>
</event>
<event>
 6    2  0.2294477E-005  0.9612128E+03  0.7818608E-02  0.9771731E-01
         21   -1    0    0  501  502  0.00000000000E+00  0.00000000000E+00  0.30876277062E+03  0.30876277062E+03  0.00000000000E+00 0. -1.
         -4   -1    0    0    0  501 -0.00000000000E+00 -0.00000000000E+00 -0.15919856092E+04  0.15919856092E+04  0.00000000000E+00 0. -1.
   -9000010    2    1    2    0  502  0.11518814094E+03  0.19395060156E+03 -0.49559590636E+03  0.10814551849E+04  0.93436870183E+03 0.  0.
         13    1    3    3    0    0 -0.34786923947E+03  0.10095208529E+03  0.43391826411E+02  0.36481117452E+03  0.10566000000E+00 0. -1.
         -4    1    3    3    0  502  0.46305738041E+03  0.92998516273E+02 -0.53898773277E+03  0.71664401041E+03  0.00000000000E+00 0. -1.
        -13    1    1    2    0    0 -0.11518814094E+03 -0.19395060156E+03 -0.78762693218E+03  0.81929319485E+03  0.10566000000E+00 0.  1.
<mgrwt>
<rscale>  1 0.66901914E+03</rscale>
<asrwt>0</asrwt>
<pdfrwt beam="1">  1       21 0.47501965E-01 0.96121278E+03</pdfrwt>
<pdfrwt beam="2">  1       -4 0.24492086E+00 0.96121278E+03</pdfrwt>
<totfact> 0.11474322E+01</totfact>
</mgrwt>
</event>
<event>
 6    2  0.2294477E-005  0.9891967E+03  0.7818608E-02  0.1010045E+00
         -4   -1    0    0    0  501 -0.00000000000E+00  0.00000000000E+00  0.46101177111E+03  0.46101177111E+03  0.00000000000E+00 0. -1.
         21   -1    0    0  501  502  0.00000000000E+00 -0.00000000000E+00 -0.78681627698E+03  0.78681627698E+03  0.00000000000E+00 0. -1.
   -9000010    2    1    2    0  502 -0.43920726891E+02  0.57593254152E+02 -0.46337999701E+03  0.10923512328E+04  0.98654152520E+03 0.  0.
         13    1    3    3    0    0 -0.12541722085E+03 -0.22810375922E+03  0.22406093783E+03  0.34345905037E+03  0.10566000000E+00 0. -1.
         -4    1    3    3    0  502  0.81496493957E+02  0.28569701337E+03 -0.68744093484E+03  0.74889218240E+03  0.00000000000E+00 0. -1.
        -13    1    1    2    0    0  0.43920726891E+02 -0.57593254152E+02  0.13757549114E+03  0.15547681532E+03  0.10566000000E+00 0.  1.
<mgrwt>
<rscale>  1 0.51456565E+03</rscale>
<asrwt>0</asrwt>
<pdfrwt beam="2">  1       21 0.12104866E+00 0.98919674E+03</pdfrwt>
<pdfrwt beam="1">  1       -4 0.70924888E-01 0.98919674E+03</pdfrwt>
<totfact> 0.34823450E+01</totfact>
</mgrwt>
</event>
<event>
 6    2  0.2294477E-005  0.1088888E+04  0.7818608E-02  0.9478882E-01
         -4   -1    0    0    0  501 -0.00000000000E+00  0.00000000000E+00  0.86819586552E+03  0.86819586552E+03  0.00000000000E+00 0. -1.
         21   -1    0    0  501  502  0.00000000000E+00 -0.00000000000E+00 -0.67860112158E+03  0.67860112158E+03  0.00000000000E+00 0. -1.
   -9000010    2    1    2    0  502  0.40984260574E+03  0.95887347745E+02  0.26135271934E+03  0.11198138924E+04  0.10042472628E+04 0.  0.
         13    1    3    3    0    0  0.47280971150E+03  0.15480304470E+03 -0.28050621657E+03  0.57113637131E+03  0.10566000000E+00 0. -1.
         -4    1    3    3    0  502 -0.62967105760E+02 -0.58915696959E+02  0.54185893591E+03  0.54867752112E+03  0.00000000000E+00 0. -1.
        -13    1    1    2    0    0 -0.40984260574E+03 -0.95887347745E+02 -0.71757975396E+02  0.42698309467E+03  0.10566000000E+00 0.  1.
<mgrwt>
<rscale>  1 0.85858822E+03</rscale>
<asrwt>0</asrwt>
<pdfrwt beam="2">  1       21 0.10440017E+00 0.10888884E+04</pdfrwt>
<pdfrwt beam="1">  1       -4 0.13356859E+00 0.10888884E+04</pdfrwt>
<totfact> 0.10987004E+01</totfact>
</mgrwt>
</event>
<event>
 6    2  0.2294477E-005  0.1047719E+04  0.7818608E-02  0.9618920E-01
         21   -1    0    0  501  502  0.00000000000E+00  0.00000000000E+00  0.41210685756E+03  0.41210685756E+03  0.00000000000E+00 0. -1.
         -4   -1    0    0    0  501 -0.00000000000E+00 -0.00000000000E+00 -0.10886873964E+04  0.10886873964E+04  0.00000000000E+00 0. -1.
   -9000010    2    1    2    0  502  0.28332778230E+03  0.66137468881E+02 -0.55283285618E+03  0.11846261070E+04  0.10065118229E+04 0.  0.
         13    1    3    3    0    0  0.22146349811E+03  0.24705541502E+03  0.21366988063E+03  0.39463563973E+03  0.10566000000E+00 0. -1.
         -4    1    3    3    0  502  0.61864284187E+02 -0.18091794614E+03 -0.76650273681E+03  0.78999046731E+03  0.00000000000E+00 0. -1.
        -13    1    1    2    0    0 -0.28332778230E+03 -0.66137468881E+02 -0.12374768268E+03  0.31616814695E+03  0.10566000000E+00 0.  1.
<mgrwt>
<rscale>  1 0.76056483E+03</rscale>
<asrwt>0</asrwt>
<pdfrwt beam="1">  1       21 0.63401056E-01 0.10477189E+04</pdfrwt>
<pdfrwt beam="2">  1       -4 0.16749037E+00 0.10477189E+04</pdfrwt>
<totfact> 0.19562936E+01</totfact>
</mgrwt>
</event>
<event>
 6    2  0.2294477E-005  0.1104534E+04  0.7818608E-02  0.9425129E-01
         -4   -1    0    0    0  501 -0.00000000000E+00  0.00000000000E+00  0.70136897032E+03  0.70136897032E+03  0.00000000000E+00 0. -1.
         21   -1    0    0  501  502  0.00000000000E+00 -0.00000000000E+00 -0.90892950486E+03  0.90892950486E+03  0.00000000000E+00 0. -1.
   -9000010    2    1    2    0  502 -0.48547008756E+03 -0.46331169011E+02 -0.20042218490E+03  0.11225703231E+04  0.99104353839E+03 0.  0.
         13    1    3    3    0    0 -0.16993581418E+03 -0.50854093285E+03 -0.16842687278E+03  0.56201395353E+03  0.10566000000E+00 0. -1.
         -4    1    3    3    0  502 -0.31553427338E+03  0.46220976384E+03 -0.31995312117E+02  0.56055636957E+03  0.00000000000E+00 0. -1.
        -13    1    1    2    0    0  0.48547008756E+03  0.46331169011E+02 -0.71383496496E+01  0.48772815208E+03  0.10566000000E+00 0.  1.
<mgrwt>
<rscale>  1 0.90036189E+03</rscale>
<asrwt>0</asrwt>
<pdfrwt beam="2">  1       21 0.13983531E+00 0.11045339E+04</pdfrwt>
<pdfrwt beam="1">  1       -4 0.10790292E+00 0.11045339E+04</pdfrwt>
<totfact> 0.87611772E+00</totfact>
</mgrwt>
</event>
<event>
 6    2  0.2294477E-005  0.1061794E+04  0.7818608E-02  0.9509142E-01
         -4   -1    0    0    0  501 -0.00000000000E+00  0.00000000000E+00  0.27835934040E+04  0.27835934040E+04  0.00000000000E+00 0. -1.
         21   -1    0    0  501  502  0.00000000000E+00 -0.00000000000E+00 -0.19594731826E+03  0.19594731826E+03  0.00000000000E+00 0. -1.
   -9000010    2    1    2    0  502  0.14153196203E+03  0.38298331832E+03  0.19932967890E+04  0.22584591624E+04  0.98015212109E+03 0.  0.
         13    1    3    3    0    0  0.35957246400E+03 -0.14398472949E+03  0.36127304064E+03  0.52966232663E+03  0.10566000000E+00 0. -1.
         -4    1    3    3    0  502 -0.21804050197E+03  0.52696804780E+03  0.16320237484E+04  0.17287968357E+04  0.00000000000E+00 0. -1.
        -13    1    1    2    0    0 -0.14153196203E+03 -0.38298331832E+03  0.59434929671E+03  0.72108155992E+03  0.10566000000E+00 0.  1.
<mgrwt>
<rscale>  1 0.83613141E+03</rscale>
<asrwt>0</asrwt>
<pdfrwt beam="2">  1       21 0.30145743E-01 0.10617936E+04</pdfrwt>
<pdfrwt beam="1">  1       -4 0.42824511E+00 0.10617936E+04</pdfrwt>
<totfact> 0.18820216E+00</totfact>
</mgrwt>
</event>
<event>
 6    2  0.2294477E-005  0.1046630E+04  0.7818608E-02  0.9592827E-01
         21   -1    0    0  501  502  0.00000000000E+00  0.00000000000E+00  0.28083427763E+04  0.28083427763E+04  0.00000000000E+00 0. -1.
         -4   -1    0    0    0  501 -0.00000000000E+00 -0.00000000000E+00 -0.18793750667E+03  0.18793750667E+03  0.00000000000E+00 0. -1.
   -9000010    2    1    2    0  502  0.14485009300E+03 -0.28433172419E+03  0.23694655273E+04  0.25903285072E+04  0.99679928336E+03 0.  0.
         13    1    3    3    0    0 -0.28877541516E+03 -0.48769056332E+03  0.13379705624E+04  0.14530652301E+04  0.10566000000E+00 0. -1.
         -4    1    3    3    0  502  0.43362550816E+03  0.20335883913E+03  0.10314949649E+04  0.11372632771E+04  0.00000000000E+00 0. -1.
        -13    1    1    2    0    0 -0.14485009300E+03  0.28433172419E+03  0.25093974237E+03  0.40595177582E+03  0.10566000000E+00 0.  1.
<mgrwt>
<rscale>  1 0.77772731E+03</rscale>
<asrwt>0</asrwt>
<pdfrwt beam="1">  1       21 0.43205270E+00 0.10466303E+04</pdfrwt>
<pdfrwt beam="2">  1       -4 0.28913465E-01 0.10466303E+04</pdfrwt>
<totfact> 0.17350598E+00</totfact>
</mgrwt>
</event>
<event>
 6    2  0.2294477E-005  0.1138014E+04  0.7818608E-02  0.9542098E-01
         -4   -1    0    0    0  501 -0.00000000000E+00  0.00000000000E+00  0.69930344837E+03  0.69930344837E+03  0.00000000000E+00 0. -1.
         21   -1    0    0  501  502  0.00000000000E+00 -0.00000000000E+00 -0.74304266639E+03  0.74304266639E+03  0.00000000000E+00 0. -1.
   -9000010    2    1    2    0  502 -0.28215789169E+03  0.88462387968E+02 -0.96029305248E+02  0.11420580292E+04  0.10989250405E+04 0.  0.
         13    1    3    3    0    0 -0.26693238304E+03 -0.24690254431E+03  0.40161576673E+03  0.54176470793E+03  0.10566000000E+00 0. -1.
         -4    1    3    3    0  502 -0.15225508652E+02  0.33536493228E+03 -0.49764507198E+03  0.60029332129E+03  0.00000000000E+00 0. -1.
        -13    1    1    2    0    0  0.28215789169E+03 -0.88462387968E+02  0.52290087224E+02  0.30028808554E+03  0.10566000000E+00 0.  1.
<mgrwt>
<rscale>  1 0.81250031E+03</rscale>
<asrwt>0</asrwt>
<pdfrwt beam="2">  1       21 0.11431426E+00 0.11380136E+04</pdfrwt>
<pdfrwt beam="1">  1       -4 0.10758515E+00 0.11380136E+04</pdfrwt>
<totfact> 0.14983729E+01</totfact>
</mgrwt>
</event>
<event>
 6    2  0.2294477E-005  0.1008510E+04  0.7818608E-02  0.9986667E-01
         -4   -1    0    0    0  501 -0.00000000000E+00  0.00000000000E+00  0.83887460976E+03  0.83887460976E+03  0.00000000000E+00 0. -1.
         21   -1    0    0  501  502  0.00000000000E+00 -0.00000000000E+00 -0.94829405510E+03  0.94829405510E+03  0.00000000000E+00 0. -1.
   -9000010    2    1    2    0  502  0.24725546892E+02  0.94335273860E+02 -0.67479645961E+03  0.12134425316E+04  0.10037838507E+04 0.  0.
         13    1    3    3    0    0 -0.35594085691E+03  0.28748251719E+03 -0.54939747203E+02  0.46082369546E+03  0.10566000000E+00 0. -1.
         -4    1    3    3    0  502  0.38066640380E+03 -0.19314724333E+03 -0.61985671240E+03  0.75261883613E+03  0.00000000000E+00 0. -1.
        -13    1    1    2    0    0 -0.24725546892E+02 -0.94335273860E+02  0.56537701427E+03  0.57372613326E+03  0.10566000000E+00 0.  1.
<mgrwt>
<rscale>  1 0.56238747E+03</rscale>
<asrwt>0</asrwt>
<pdfrwt beam="2">  1       21 0.14589139E+00 0.10085100E+04</pdfrwt>
<pdfrwt beam="1">  1       -4 0.12905763E+00 0.10085100E+04</pdfrwt>
<totfact> 0.50350298E+00</totfact>
</mgrwt>
</event>
<event>
 6    2  0.2294477E-005  0.9993232E+03  0.7818608E-02  0.9685021E-01
         -4   -1    0    0    0  501 -0.00000000000E+00  0.00000000000E+00  0.69976404042E+03  0.69976404042E+03  0.00000000000E+00 0. -1.
         21   -1    0    0  501  502  0.00000000000E+00 -0.00000000000E+00 -0.57414236315E+03  0.57414236315E+03  0.00000000000E+00 0. -1.
   -9000010    2    1    2    0  502  0.25492613871E+03 -0.82766053701E+02  0.11124110537E+03  0.10054955844E+04  0.96270931795E+03 0.  0.
         13    1    3    3    0    0 -0.10156331952E+03 -0.46379339174E+03  0.15794981788E+02  0.47504621955E+03  0.10566000000E+00 0. -1.
         -4    1    3    3    0  502  0.35648945822E+03  0.38102733804E+03  0.95446123581E+02  0.53044936484E+03  0.00000000000E+00 0. -1.
        -13    1    1    2    0    0 -0.25492613871E+03  0.82766053701E+02  0.14380571900E+02  0.26841081918E+03  0.10566000000E+00 0.  1.
<mgrwt>
<rscale>  1 0.71915660E+03</rscale>
<asrwt>0</asrwt>
<pdfrwt beam="2">  1       21 0.88329594E-01 0.99932316E+03</pdfrwt>
<pdfrwt beam="1">  1       -4 0.10765601E+00 0.99932316E+03</pdfrwt>
<totfact> 0.28758011E+01</totfact>
</mgrwt>
</event>
<event>
 6    2  0.2294477E-005  0.1057499E+04  0.7818608E-02  0.9603639E-01
         -4   -1    0    0    0  501 -0.00000000000E+00  0.00000000000E+00  0.25271494454E+03  0.25271494454E+03  0.00000000000E+00 0. -1.
         21   -1    0    0  501  502  0.00000000000E+00 -0.00000000000E+00 -0.22049963398E+04  0.22049963398E+04  0.00000000000E+00 0. -1.
   -9000010    2    1    2    0  502  0.17925211746E+03  0.23820225348E+03 -0.18702452648E+04  0.21485162439E+04  0.10146098090E+04 0.  0.
         13    1    3    3    0    0 -0.10480846708E+01  0.43211538725E+03 -0.23482642273E+03  0.49180104347E+03  0.10566000000E+00 0. -1.
         -4    1    3    3    0  502  0.18030020213E+03 -0.19391313378E+03 -0.16354188420E+04  0.16567152004E+04  0.00000000000E+00 0. -1.
        -13    1    1    2    0    0 -0.17925211746E+03 -0.23820225348E+03 -0.82036130458E+02  0.30919504045E+03  0.10566000000E+00 0.  1.
<mgrwt>
<rscale>  1 0.77055822E+03</rscale>
<asrwt>0</asrwt>
<pdfrwt beam="2">  1       21 0.33923020E+00 0.10574993E+04</pdfrwt>
<pdfrwt beam="1">  1       -4 0.38879223E-01 0.10574993E+04</pdfrwt>
<totfact> 0.38552389E+00</totfact>
</mgrwt>
</event>
<event>
 6    2  0.2294477E-005  0.8929087E+03  0.7818608E-02  0.9699877E-01
         -4   -1    0    0    0  501 -0.00000000000E+00  0.00000000000E+00  0.28404490810E+03  0.28404490810E+03  0.00000000000E+00 0. -1.
         21   -1    0    0  501  502  0.00000000000E+00 -0.00000000000E+00 -0.15673201196E+04  0.15673201196E+04  0.00000000000E+00 0.  1.
   -9000010    2    1    2    0  502 -0.34962370928E+03  0.74338821575E+02 -0.58663163997E+03  0.10683737919E+04  0.81824377763E+03 0.  0.
         13    1    3    3    0    0  0.10940565352E+03 -0.12109587298E+03 -0.54365823890E+03  0.56762496365E+03  0.10566000000E+00 0. -1.
         -4    1    3    3    0  502 -0.45902936280E+03  0.19543469456E+03 -0.42973401067E+02  0.50074882821E+03  0.00000000000E+00 0. -1.
        -13    1    1    2    0    0  0.34962370928E+03 -0.74338821575E+02 -0.69664357153E+03  0.78299123584E+03  0.10566000000E+00 0.  1.
<mgrwt>
<rscale>  1 0.71024138E+03</rscale>
<asrwt>0</asrwt>
<pdfrwt beam="2">  1       21 0.24112618E+00 0.89290866E+03</pdfrwt>
<pdfrwt beam="1">  1       -4 0.43699215E-01 0.89290866E+03</pdfrwt>
<totfact> 0.12833115E+01</totfact>
</mgrwt>
</event>
<event>
 6    2  0.2294477E-005  0.1008956E+04  0.7818608E-02  0.9727293E-01
         -4   -1    0    0    0  501 -0.00000000000E+00  0.00000000000E+00  0.98996609858E+03  0.98996609858E+03  0.00000000000E+00 0. -1.
         21   -1    0    0  501  502  0.00000000000E+00 -0.00000000000E+00 -0.50467307479E+03  0.50467307479E+03  0.00000000000E+00 0. -1.
   -9000010    2    1    2    0  502 -0.22770475474E+02  0.22489276755E+03  0.57252422614E+02  0.10105792402E+04  0.98330936610E+03 0.  0.
         13    1    3    3    0    0 -0.40163889270E+03  0.41542375684E+03 -0.25949040078E+02  0.57841512923E+03  0.10566000000E+00 0. -1.
         -4    1    3    3    0  502  0.37886841723E+03 -0.19053098929E+03  0.83201462692E+02  0.43216411101E+03  0.00000000000E+00 0. -1.
        -13    1    1    2    0    0  0.22770475474E+02 -0.22489276755E+03  0.42804060117E+03  0.48405993313E+03  0.10566000000E+00 0.  1.
<mgrwt>
<rscale>  1 0.69414757E+03</rscale>
<asrwt>0</asrwt>
<pdfrwt beam="2">  1       21 0.77642012E-01 0.10089562E+04</pdfrwt>
<pdfrwt beam="1">  1       -4 0.15230248E+00 0.10089562E+04</pdfrwt>
<totfact> 0.16026087E+01</totfact>
</mgrwt>
</event>
<event>
 6    2  0.2294477E-005  0.9778074E+03  0.7818608E-02  0.9948649E-01
         -4   -1    0    0    0  501 -0.00000000000E+00  0.00000000000E+00  0.52764478408E+03  0.52764478408E+03  0.00000000000E+00 0. -1.
         21   -1    0    0  501  502  0.00000000000E+00 -0.00000000000E+00 -0.60300121894E+03  0.60300121894E+03  0.00000000000E+00 0. -1.
   -9000010    2    1    2    0  502 -0.92668252669E+02  0.77362554943E+02 -0.14921563335E+03  0.98912723280E+03  0.97032726823E+03 0.  0.
         13    1    3    3    0    0 -0.30004951159E+03  0.41279237261E+03 -0.26912970046E+03  0.57693852283E+03  0.10566000000E+00 0. -1.
         -4    1    3    3    0  502  0.20738125892E+03 -0.33542981767E+03  0.11991406711E+03  0.41218870997E+03  0.00000000000E+00 0. -1.
        -13    1    1    2    0    0  0.92668252669E+02 -0.77362554943E+02  0.73859198494E+02  0.14151877023E+03  0.10566000000E+00 0.  1.
<mgrwt>
<rscale>  1 0.57960392E+03</rscale>
<asrwt>0</asrwt>
<pdfrwt beam="2">  1       21 0.92769418E-01 0.97780743E+03</pdfrwt>
<pdfrwt beam="1">  1       -4 0.81176121E-01 0.97780743E+03</pdfrwt>
<totfact> 0.50037377E+01</totfact>
</mgrwt>
</event>
<event>
 6    2  0.2294477E-005  0.9956918E+03  0.7818608E-02  0.1000998E+00
         21   -1    0    0  501  502  0.00000000000E+00  0.00000000000E+00  0.12261912158E+03  0.12261912158E+03  0.00000000000E+00 0. -1.
         -4   -1    0    0    0  501 -0.00000000000E+00 -0.00000000000E+00 -0.26449618023E+04  0.26449618023E+04  0.00000000000E+00 0. -1.
   -9000010    2    1    2    0  502  0.86516710805E+02  0.37152182208E+02 -0.19706304207E+04  0.22078918540E+04  0.99122992196E+03 0.  0.
         13    1    3    3    0    0  0.43296949652E+03 -0.22171293157E+03 -0.14590458234E+04  0.15379967279E+04  0.10566000000E+00 0. -1.
         -4    1    3    3    0  502 -0.34645278572E+03  0.25886511378E+03 -0.51158459725E+03  0.66989512612E+03  0.00000000000E+00 0. -1.
        -13    1    1    2    0    0 -0.86516710805E+02 -0.37152182208E+02 -0.55171226009E+03  0.55968906992E+03  0.10566000000E+00 0.  1.
<mgrwt>
<rscale>  1 0.55214891E+03</rscale>
<asrwt>0</asrwt>
<pdfrwt beam="1">  1       21 0.18864481E-01 0.99569181E+03</pdfrwt>
<pdfrwt beam="2">  1       -4 0.40691718E+00 0.99569181E+03</pdfrwt>
<totfact> 0.67841772E+00</totfact>
</mgrwt>
</event>
<event>
 6    2  0.2294477E-005  0.1001242E+04  0.7818608E-02  0.1000083E+00
         -4   -1    0    0    0  501 -0.00000000000E+00  0.00000000000E+00  0.20074648675E+04  0.20074648675E+04  0.00000000000E+00 0. -1.
         21   -1    0    0  501  502  0.00000000000E+00 -0.00000000000E+00 -0.16056307939E+03  0.16056307939E+03  0.00000000000E+00 0. -1.
   -9000010    2    1    2    0  502  0.10259908546E+02 -0.94750489162E+02  0.14653240989E+04  0.17747284872E+04  0.99669632666E+03 0.  0.
         13    1    3    3    0    0  0.36743589951E+03  0.12494941218E+03  0.12386937541E+04  0.12980692291E+04  0.10566000000E+00 0. -1.
         -4    1    3    3    0  502 -0.35717599096E+03 -0.21969990134E+03  0.22663034478E+03  0.47665925812E+03  0.00000000000E+00 0. -1.
        -13    1    1    2    0    0 -0.10259908546E+02  0.94750489162E+02  0.38157768915E+03  0.39329945963E+03  0.10566000000E+00 0.  1.
<mgrwt>
<rscale>  1 0.55613817E+03</rscale>
<asrwt>0</asrwt>
<pdfrwt beam="2">  1       21 0.24702014E-01 0.10012425E+04</pdfrwt>
<pdfrwt beam="1">  1       -4 0.30884073E+00 0.10012425E+04</pdfrwt>
<totfact> 0.17631234E+01</totfact>
</mgrwt>
</event>
<event>
 6    2  0.2294477E-005  0.1040657E+04  0.7818608E-02  0.9940450E-01
         -4   -1    0    0    0  501 -0.00000000000E+00  0.00000000000E+00  0.69542400417E+03  0.69542400417E+03  0.00000000000E+00 0. -1.
         21   -1    0    0  501  502  0.00000000000E+00 -0.00000000000E+00 -0.51408229354E+03  0.51408229354E+03  0.00000000000E+00 0. -1.
   -9000010    2    1    2    0  502 -0.29234973386E+02  0.98545210438E+02  0.48831927311E+02  0.10418021057E+04  0.10355680703E+04 0.  0.
         13    1    3    3    0    0  0.17320917510E+03 -0.86540207017E+02 -0.44030799423E+03  0.48100079700E+03  0.10566000000E+00 0. -1.
         -4    1    3    3    0  502 -0.20244414849E+03  0.18508541746E+03  0.48913992154E+03  0.56080130872E+03  0.00000000000E+00 0. -1.
        -13    1    1    2    0    0  0.29234973386E+02 -0.98545210438E+02  0.13250978332E+03  0.16770419198E+03  0.10566000000E+00 0.  1.
<mgrwt>
<rscale>  1 0.58340318E+03</rscale>
<asrwt>0</asrwt>
<pdfrwt beam="2">  1       21 0.79089584E-01 0.10406570E+04</pdfrwt>
<pdfrwt beam="1">  1       -4 0.10698831E+00 0.10406570E+04</pdfrwt>
<totfact> 0.37831059E+01</totfact>
</mgrwt>
</event>
<event>
 6    2  0.2294477E-005  0.1052065E+04  0.7818608E-02  0.9627878E-01
         -4   -1    0    0    0  501 -0.00000000000E+00  0.00000000000E+00  0.43680428116E+03  0.43680428116E+03  0.00000000000E+00 0. -1.
         21   -1    0    0  501  502  0.00000000000E+00 -0.00000000000E+00 -0.22439306249E+04  0.22439306249E+04  0.00000000000E+00 0. -1.
   -9000010    2    1    2    0  502 -0.10100034933E+03  0.25976948746E+03 -0.20544165376E+04  0.23081309497E+04  0.10144751913E+04 0.  0.
         13    1    3    3    0    0  0.22557764925E+03  0.56275626062E+03 -0.12113806795E+04  0.13546302251E+04  0.10566000000E+00 0. -1.
         -4    1    3    3    0  502 -0.32657799859E+03 -0.30298677316E+03 -0.84303585808E+03  0.95350072463E+03  0.00000000000E+00 0. -1.
        -13    1    1    2    0    0  0.10100034933E+03 -0.25976948746E+03  0.24729019385E+03  0.37260395640E+03  0.10566000000E+00 0.  1.
<mgrwt>
<rscale>  1 0.75478199E+03</rscale>
<asrwt>0</asrwt>
<pdfrwt beam="2">  1       21 0.34522009E+00 0.10520652E+04</pdfrwt>
<pdfrwt beam="1">  1       -4 0.67200659E-01 0.10520652E+04</pdfrwt>
<totfact> 0.11070718E+00</totfact>
</mgrwt>
</event>
<event>
 6    2  0.2294477E-005  0.1015689E+04  0.7818608E-02  0.9904360E-01
         -4   -1    0    0    0  501 -0.00000000000E+00  0.00000000000E+00  0.18228379314E+03  0.18228379314E+03  0.00000000000E+00 0. -1.
         21   -1    0    0  501  502  0.00000000000E+00 -0.00000000000E+00 -0.17818787136E+04  0.17818787136E+04  0.00000000000E+00 0. -1.
   -9000010    2    1    2    0  502  0.69696574001E+02  0.10268377022E+03 -0.14308412495E+04  0.17546884469E+04  0.10080790126E+04 0.  0.
         13    1    3    3    0    0 -0.25885380570E+03  0.10310198198E+03 -0.13968679743E+04  0.14243859941E+04  0.10566000000E+00 0. -1.
         -4    1    3    3    0  502  0.32855037970E+03 -0.41821176078E+00 -0.33973275131E+02  0.33030245280E+03  0.00000000000E+00 0. -1.
        -13    1    1    2    0    0 -0.69696574001E+02 -0.10268377022E+03 -0.16875367104E+03  0.20947405985E+03  0.10566000000E+00 0.  1.
<mgrwt>
<rscale>  1 0.60050460E+03</rscale>
<asrwt>0</asrwt>
<pdfrwt beam="2">  1       21 0.27413517E+00 0.10156894E+04</pdfrwt>
<pdfrwt beam="1">  1       -4 0.28043662E-01 0.10156894E+04</pdfrwt>
<totfact> 0.18922908E+01</totfact>
</mgrwt>
</event>
<event>
 6    2  0.2294477E-005  0.1057885E+04  0.7818608E-02  0.9571108E-01
         21   -1    0    0  501  502  0.00000000000E+00  0.00000000000E+00  0.58879202470E+03  0.58879202470E+03  0.00000000000E+00 0. -1.
         -4   -1    0    0    0  501 -0.00000000000E+00 -0.00000000000E+00 -0.12713845051E+04  0.12713845051E+04  0.00000000000E+00 0. -1.
   -9000010    2    1    2    0  502  0.17426011027E+03  0.28374775044E+03  0.46224463356E+02  0.10588941073E+04  0.10041118750E+04 0.  0.
         13    1    3    3    0    0  0.24338692348E+02 -0.66502760371E+02 -0.43747478605E+03  0.44316948076E+03  0.10566000000E+00 0. -1.
         -4    1    3    3    0  502  0.14992141792E+03  0.35025051081E+03  0.48369924940E+03  0.61572462656E+03  0.00000000000E+00 0. -1.
        -13    1    1    2    0    0 -0.17426011027E+03 -0.28374775044E+03 -0.72881694372E+03  0.80128242245E+03  0.10566000000E+00 0.  1.
<mgrwt>
<rscale>  1 0.79238291E+03</rscale>
<asrwt>0</asrwt>
<pdfrwt beam="1">  1       21 0.90583389E-01 0.10578847E+04</pdfrwt>
<pdfrwt beam="2">  1       -4 0.19559762E+00 0.10578847E+04</pdfrwt>
<totfact> 0.54193014E+00</totfact>
</mgrwt>
</event>
<event>
 6    2  0.2294477E-005  0.1247208E+04  0.7818608E-02  0.9204379E-01
         -4   -1    0    0    0  501 -0.00000000000E+00  0.00000000000E+00  0.13872514321E+04  0.13872514321E+04  0.00000000000E+00 0. -1.
         21   -1    0    0  501  502  0.00000000000E+00 -0.00000000000E+00 -0.73802533832E+03  0.73802533832E+03  0.00000000000E+00 0. -1.
   -9000010    2    1    2    0  502  0.63414457188E+03  0.41333415161E+03  0.25963731573E+03  0.12739461143E+04  0.99123292289E+03 0.  0.
         13    1    3    3    0    0  0.39187749939E+03 -0.42047691260E+01  0.57607550996E+03  0.69674145775E+03  0.10566000000E+00 0. -1.
         -4    1    3    3    0  502  0.24226707249E+03  0.41753892074E+03 -0.31643819423E+03  0.57720465652E+03  0.00000000000E+00 0. -1.
        -13    1    1    2    0    0 -0.63414457188E+03 -0.41333415161E+03  0.38958877803E+03  0.85133065613E+03  0.10566000000E+00 0.  1.
<mgrwt>
<rscale>  1 0.11008343E+04</rscale>
<asrwt>0</asrwt>
<pdfrwt beam="2">  1       21 0.11354236E+00 0.12472077E+04</pdfrwt>
<pdfrwt beam="1">  1       -4 0.21342330E+00 0.12472077E+04</pdfrwt>
<totfact> 0.23011055E+00</totfact>
</mgrwt>
</event>
<event>
 6    2  0.2294477E-005  0.1287724E+04  0.7818608E-02  0.9375514E-01
         21   -1    0    0  501  502  0.00000000000E+00  0.00000000000E+00  0.58189915290E+03  0.58189915290E+03  0.00000000000E+00 0.  1.
         -4   -1    0    0    0  501 -0.00000000000E+00 -0.00000000000E+00 -0.11774930674E+04  0.11774930674E+04  0.00000000000E+00 0. -1.
   -9000010    2    1    2    0  502 -0.16308573174E+03  0.32930685009E+03 -0.44909645927E+03  0.13637895497E+04  0.12341776002E+04 0.  0.
         13    1    3    3    0    0  0.45641927164E+03 -0.11942852073E+03  0.95416352946E+01  0.47188216438E+03  0.10566000000E+00 0. -1.
         -4    1    3    3    0  502 -0.61950500338E+03  0.44873537082E+03 -0.45863809457E+03  0.89190738534E+03  0.00000000000E+00 0. -1.
        -13    1    1    2    0    0  0.16308573174E+03 -0.32930685009E+03 -0.14649745522E+03  0.39560267057E+03  0.10566000000E+00 0.  1.
<mgrwt>
<rscale>  1 0.94118501E+03</rscale>
<asrwt>0</asrwt>
<pdfrwt beam="1">  1       21 0.89522948E-01 0.12877245E+04</pdfrwt>
<pdfrwt beam="2">  1       -4 0.18115278E+00 0.12877245E+04</pdfrwt>
<totfact> 0.68302377E+00</totfact>
</mgrwt>
</event>
<event>
 6    2  0.2294477E-005  0.9934962E+03  0.7818608E-02  0.9799635E-01
         -4   -1    0    0    0  501 -0.00000000000E+00  0.00000000000E+00  0.51578928515E+03  0.51578928515E+03  0.00000000000E+00 0. -1.
         21   -1    0    0  501  502  0.00000000000E+00 -0.00000000000E+00 -0.90495676886E+03  0.90495676886E+03  0.00000000000E+00 0. -1.
   -9000010    2    1    2    0  502  0.12393972505E+02  0.18594079187E+03 -0.58295130629E+03  0.11518970821E+04  0.97586222062E+03 0.  0.
         13    1    3    3    0    0 -0.80546727245E+02  0.14733542022E+03 -0.85004559579E+03  0.86647159642E+03  0.10566000000E+00 0. -1.
         -4    1    3    3    0  502  0.92940699749E+02  0.38605371647E+02  0.26709428951E+03  0.28542548568E+03  0.00000000000E+00 0. -1.
        -13    1    1    2    0    0 -0.12393972505E+02 -0.18594079187E+03  0.19378382257E+03  0.26884897190E+03  0.10566000000E+00 0.  1.
<mgrwt>
<rscale>  1 0.65382120E+03</rscale>
<asrwt>0</asrwt>
<pdfrwt beam="2">  1       21 0.13922412E+00 0.99349618E+03</pdfrwt>
<pdfrwt beam="1">  1       -4 0.79352198E-01 0.99349618E+03</pdfrwt>
<totfact> 0.18605729E+01</totfact>
</mgrwt>
</event>
<event>
 6    2  0.2294477E-005  0.1118783E+04  0.7818608E-02  0.9404381E-01
         -4   -1    0    0    0  501 -0.00000000000E+00  0.00000000000E+00  0.24112703270E+04  0.24112703270E+04  0.00000000000E+00 0. -1.
         21   -1    0    0  501  502  0.00000000000E+00 -0.00000000000E+00 -0.64966182857E+03  0.64966182857E+03  0.00000000000E+00 0. -1.
   -9000010    2    1    2    0  502 -0.85327163854E+02  0.49803547314E+03 -0.10824622903E+03  0.11240075906E+04  0.99817621702E+03 0.  0.
         13    1    3    3    0    0  0.41684777352E+03  0.30427249965E+03 -0.24105344381E+03  0.56960564803E+03  0.10566000000E+00 0. -1.
         -4    1    3    3    0  502 -0.50217493738E+03  0.19376297349E+03  0.13280721478E+03  0.55440194257E+03  0.00000000000E+00 0. -1.
        -13    1    1    2    0    0  0.85327163854E+02 -0.49803547314E+03  0.18698547275E+04  0.19369245650E+04  0.10566000000E+00 0.  1.
<mgrwt>
<rscale>  1 0.91715992E+03</rscale>
<asrwt>0</asrwt>
<pdfrwt beam="2">  1       21 0.99947975E-01 0.11187832E+04</pdfrwt>
<pdfrwt beam="1">  1       -4 0.37096466E+00 0.11187832E+04</pdfrwt>
<totfact> 0.32674367E-01</totfact>
</mgrwt>
</event>
<event>
 6    2  0.2294477E-005  0.1146145E+04  0.7818608E-02  0.9338252E-01
         21   -1    0    0  501  502  0.00000000000E+00  0.00000000000E+00  0.16372577652E+04  0.16372577652E+04  0.00000000000E+00 0. -1.
         -4   -1    0    0    0  501 -0.00000000000E+00 -0.00000000000E+00 -0.48987974153E+03  0.48987974153E+03  0.00000000000E+00 0. -1.
   -9000010    2    1    2    0  502 -0.35417183127E+03  0.47958026257E+03  0.51030908046E+03  0.12546171552E+04  0.97888402488E+03 0.  0.
         13    1    3    3    0    0  0.19472994963E+03  0.27934796510E+03  0.57344952959E+03  0.66693283997E+03  0.10566000000E+00 0. -1.
         -4    1    3    3    0  502 -0.54890178090E+03  0.20023229747E+03 -0.63140449126E+02  0.58768431521E+03  0.00000000000E+00 0. -1.
        -13    1    1    2    0    0  0.35417183127E+03 -0.47958026257E+03  0.63706894321E+03  0.87252035156E+03  0.10566000000E+00 0.  1.
<mgrwt>
<rscale>  1 0.97336293E+03</rscale>
<asrwt>0</asrwt>
<pdfrwt beam="1">  1       21 0.25188581E+00 0.11461452E+04</pdfrwt>
<pdfrwt beam="2">  1       -4 0.75366115E-01 0.11461452E+04</pdfrwt>
<totfact> 0.32399976E+00</totfact>
</mgrwt>
</event>
<event>
 6    2  0.2294477E-005  0.1017009E+04  0.7818608E-02  0.9749722E-01
         -4   -1    0    0    0  501 -0.00000000000E+00  0.00000000000E+00  0.18077449746E+03  0.18077449746E+03  0.00000000000E+00 0. -1.
         21   -1    0    0  501  502  0.00000000000E+00 -0.00000000000E+00 -0.20719161844E+04  0.20719161844E+04  0.00000000000E+00 0. -1.
   -9000010    2    1    2    0  502  0.32275463007E+02 -0.20228863419E+03 -0.15219173836E+04  0.18304478674E+04  0.99616488379E+03 0.  0.
         13    1    3    3    0    0  0.28929274529E+03  0.66539870559E+02 -0.36388505153E+02  0.29906852279E+03  0.10566000000E+00 0. -1.
         -4    1    3    3    0  502 -0.25701728228E+03 -0.26882850475E+03 -0.14855288785E+04  0.15313793446E+04  0.00000000000E+00 0. -1.
        -13    1    1    2    0    0 -0.32275463007E+02  0.20228863419E+03 -0.36922430328E+03  0.42224281442E+03  0.10566000000E+00 0.  1.
<mgrwt>
<rscale>  1 0.68131999E+03</rscale>
<asrwt>0</asrwt>
<pdfrwt beam="2">  1       21 0.31875633E+00 0.10170088E+04</pdfrwt>
<pdfrwt beam="1">  1       -4 0.27811462E-01 0.10170088E+04</pdfrwt>
<totfact> 0.10139051E+01</totfact>
</mgrwt>
</event>
<event>
 6    2  0.2294477E-005  0.1046174E+04  0.7818608E-02  0.9609298E-01
         -4   -1    0    0    0  501 -0.00000000000E+00  0.00000000000E+00  0.27826656115E+04  0.27826656115E+04  0.00000000000E+00 0. -1.
         21   -1    0    0  501  502  0.00000000000E+00 -0.00000000000E+00 -0.16805097931E+03  0.16805097931E+03  0.00000000000E+00 0. -1.
   -9000010    2    1    2    0  502 -0.19835444506E+03 -0.22772359448E+03  0.18002324225E+04  0.20821425203E+04  0.10016377481E+04 0.  0.
         13    1    3    3    0    0  0.63341487610E+02  0.33221186832E+03  0.27316648211E+03  0.43473763078E+03  0.10566000000E+00 0. -1.
         -4    1    3    3    0  502 -0.26169593267E+03 -0.55993546279E+03  0.15270659404E+04  0.16474048895E+04  0.00000000000E+00 0. -1.
        -13    1    1    2    0    0  0.19835444506E+03  0.22772359448E+03  0.81438220968E+03  0.86857407051E+03  0.10566000000E+00 0.  1.
<mgrwt>
<rscale>  1 0.76683849E+03</rscale>
<asrwt>0</asrwt>
<pdfrwt beam="2">  1       21 0.25853999E-01 0.10461743E+04</pdfrwt>
<pdfrwt beam="1">  1       -4 0.42810237E+00 0.10461743E+04</pdfrwt>
<totfact> 0.25723976E+00</totfact>
</mgrwt>
</event>
<event>
 6    2  0.2294477E-005  0.7162370E+03  0.7818608E-02  0.1028408E+00
         -4   -1    0    0    0  501 -0.00000000000E+00  0.00000000000E+00  0.88288963415E+03  0.88288963415E+03  0.00000000000E+00 0. -1.
         21   -1    0    0  501  502  0.00000000000E+00 -0.00000000000E+00 -0.25118493344E+03  0.25118493344E+03  0.00000000000E+00 0. -1.
   -9000010    2    1    2    0  502  0.64012180019E+02  0.88651137328E+02  0.28555102259E+03  0.77106084418E+03  0.70784098185E+03 0.  0.
         13    1    3    3    0    0 -0.12485876536E+03  0.36233732348E+03  0.16665968191E+03  0.41791567094E+03  0.10566000000E+00 0. -1.
         -4    1    3    3    0  502  0.18887094538E+03 -0.27368618615E+03  0.11889134068E+03  0.35314517325E+03  0.00000000000E+00 0. -1.
        -13    1    1    2    0    0 -0.64012180019E+02 -0.88651137328E+02  0.34615367812E+03  0.36301372340E+03  0.10566000000E+00 0.  1.
<mgrwt>
<rscale>  1 0.44770660E+03</rscale>
<asrwt>0</asrwt>
<pdfrwt beam="2">  1       21 0.38643836E-01 0.71623700E+03</pdfrwt>
<pdfrwt beam="1">  1       -4 0.13582917E+00 0.71623700E+03</pdfrwt>
<totfact> 0.10306659E+02</totfact>
</mgrwt>
</event>
<event>
 6    2  0.2294477E-005  0.1045969E+04  0.7818608E-02  0.9630089E-01
         -4   -1    0    0    0  501 -0.00000000000E+00  0.00000000000E+00  0.20610776117E+03  0.20610776117E+03  0.00000000000E+00 0. -1.
         21   -1    0    0  501  502  0.00000000000E+00 -0.00000000000E+00 -0.27592373940E+04  0.27592373940E+04  0.00000000000E+00 0. -1.
   -9000010    2    1    2    0  502  0.13893668303E+03 -0.24481061158E+03 -0.24528008157E+04  0.26665115558E+04  0.10073809597E+04 0.  0.
         13    1    3    3    0    0  0.57171340061E+03 -0.21874823805E+03 -0.14055726245E+04  0.15330823259E+04  0.10566000000E+00 0. -1.
         -4    1    3    3    0  502 -0.43277671759E+03 -0.26062373534E+02 -0.10472281912E+04  0.11334292298E+04  0.00000000000E+00 0. -1.
        -13    1    1    2    0    0 -0.13893668303E+03  0.24481061158E+03 -0.10032881713E+03  0.29883359942E+03  0.10566000000E+00 0.  1.
<mgrwt>
<rscale>  1 0.75336306E+03</rscale>
<asrwt>0</asrwt>
<pdfrwt beam="2">  1       21 0.42449804E+00 0.10459694E+04</pdfrwt>
<pdfrwt beam="1">  1       -4 0.31708888E-01 0.10459694E+04</pdfrwt>
<totfact> 0.16279729E+00</totfact>
</mgrwt>
</event>
<event>
 6    2  0.2294477E-005  0.9679265E+03  0.7818608E-02  0.9825206E-01
         -4   -1    0    0    0  501 -0.00000000000E+00  0.00000000000E+00  0.56818446011E+03  0.56818446011E+03  0.00000000000E+00 0. -1.
         21   -1    0    0  501  502  0.00000000000E+00 -0.00000000000E+00 -0.76016658753E+03  0.76016658753E+03  0.00000000000E+00 0. -1.
   -9000010    2    1    2    0  502 -0.14230311177E+03 -0.11872123494E+03 -0.40215060094E+03  0.10481445065E+04  0.95001941744E+03 0.  0.
         13    1    3    3    0    0 -0.14284412496E+03 -0.33031927412E+03 -0.63724720696E+03  0.73184648721E+03  0.10566000000E+00 0. -1.
         -4    1    3    3    0  502  0.54101318076E+00  0.21159803917E+03  0.23509660602E+03  0.31629801934E+03  0.00000000000E+00 0. -1.
        -13    1    1    2    0    0  0.14230311177E+03  0.11872123494E+03  0.21016847352E+03  0.28020654110E+03  0.10566000000E+00 0.  1.
<mgrwt>
<rscale>  1 0.64027215E+03</rscale>
<asrwt>0</asrwt>
<pdfrwt beam="2">  1       21 0.11694871E+00 0.96792655E+03</pdfrwt>
<pdfrwt beam="1">  1       -4 0.87412993E-01 0.96792655E+03</pdfrwt>
<totfact> 0.23639886E+01</totfact>
</mgrwt>
</event>
<event>
 6    2  0.2294477E-005  0.1047100E+04  0.7818608E-02  0.9691009E-01
         -4   -1    0    0    0  501 -0.00000000000E+00  0.00000000000E+00  0.11935809504E+04  0.11935809504E+04  0.00000000000E+00 0. -1.
         21   -1    0    0  501  502  0.00000000000E+00 -0.00000000000E+00 -0.35967370454E+03  0.35967370454E+03  0.00000000000E+00 0. -1.
   -9000010    2    1    2    0  502  0.80548320444E+02  0.21366426528E+03  0.53135202936E+03  0.11742030485E+04  0.10218989039E+04 0.  0.
         13    1    3    3    0    0  0.54887669834E+03  0.17789019911E+03  0.27628963091E+03  0.63972378745E+03  0.10566000000E+00 0. -1.
         -4    1    3    3    0  502 -0.46832837789E+03  0.35774066171E+02  0.25506239845E+03  0.53447926101E+03  0.00000000000E+00 0. -1.
        -13    1    1    2    0    0 -0.80548320444E+02 -0.21366426528E+03  0.30255521653E+03  0.37905160651E+03  0.10566000000E+00 0.  1.
<mgrwt>
<rscale>  1 0.71554655E+03</rscale>
<asrwt>0</asrwt>
<pdfrwt beam="2">  1       21 0.55334417E-01 0.10470997E+04</pdfrwt>
<pdfrwt beam="1">  1       -4 0.18362784E+00 0.10470997E+04</pdfrwt>
<totfact> 0.20357445E+01</totfact>
</mgrwt>
</event>
<event>
 6    2  0.2294477E-005  0.8855401E+03  0.7818608E-02  0.9819282E-01
         -4   -1    0    0    0  501 -0.00000000000E+00  0.00000000000E+00  0.32100547576E+03  0.32100547576E+03  0.00000000000E+00 0. -1.
         21   -1    0    0  501  502  0.00000000000E+00 -0.00000000000E+00 -0.10057445198E+04  0.10057445198E+04  0.00000000000E+00 0. -1.
   -9000010    2    1    2    0  502  0.10028353575E+03  0.22544418193E+03 -0.48748296727E+03  0.10108515345E+04  0.85047005515E+03 0.  0.
         13    1    3    3    0    0  0.23159727582E+03  0.32991647105E+03 -0.65797702711E+03  0.77163200777E+03  0.10566000000E+00 0. -1.
         -4    1    3    3    0  502 -0.13131374007E+03 -0.10447228912E+03  0.17049405984E+03  0.23921952673E+03  0.00000000000E+00 0. -1.
        -13    1    1    2    0    0 -0.10028353575E+03 -0.22544418193E+03 -0.19725607672E+03  0.31589846102E+03  0.10566000000E+00 0.  1.
<mgrwt>
<rscale>  1 0.64337949E+03</rscale>
<asrwt>0</asrwt>
<pdfrwt beam="2">  1       21 0.15472992E+00 0.88554005E+03</pdfrwt>
<pdfrwt beam="1">  1       -4 0.49385458E-01 0.88554005E+03</pdfrwt>
<totfact> 0.39813879E+01</totfact>
</mgrwt>
</event>
<event>
 6    2  0.2294477E-005  0.1034940E+04  0.7818608E-02  0.9599760E-01
         -4   -1    0    0    0  501 -0.00000000000E+00  0.00000000000E+00  0.49301588701E+03  0.49301588701E+03  0.00000000000E+00 0. -1.
         21   -1    0    0  501  502  0.00000000000E+00 -0.00000000000E+00 -0.10267020242E+04  0.10267020242E+04  0.00000000000E+00 0. -1.
   -9000010    2    1    2    0  502 -0.21684977696E+03 -0.23842376286E+03 -0.59185617185E+03  0.11922221394E+04  0.98347861442E+03 0.  0.
         13    1    3    3    0    0  0.66954648745E+02 -0.22354013981E+02  0.25962383753E+03  0.26904864821E+03  0.10566000000E+00 0. -1.
         -4    1    3    3    0  502 -0.28380442571E+03 -0.21606974887E+03 -0.85148000938E+03  0.92317349117E+03  0.00000000000E+00 0. -1.
        -13    1    1    2    0    0  0.21684977696E+03  0.23842376286E+03  0.58170034667E+02  0.32749577182E+03  0.10566000000E+00 0.  1.
<mgrwt>
<rscale>  1 0.77312082E+03</rscale>
<asrwt>0</asrwt>
<pdfrwt beam="2">  1       21 0.15795416E+00 0.10349396E+04</pdfrwt>
<pdfrwt beam="1">  1       -4 0.75848599E-01 0.10349396E+04</pdfrwt>
<totfact> 0.14457008E+01</totfact>
</mgrwt>
</event>
<event>
 6    2  0.2294477E-005  0.1031290E+04  0.7818608E-02  0.9663988E-01
         -4   -1    0    0    0  501 -0.00000000000E+00  0.00000000000E+00  0.12920661875E+04  0.12920661875E+04  0.00000000000E+00 0. -1.
         21   -1    0    0  501  502  0.00000000000E+00 -0.00000000000E+00 -0.54103670441E+03  0.54103670441E+03  0.00000000000E+00 0. -1.
   -9000010    2    1    2    0  502 -0.26174272670E+03  0.48933606659E+01 -0.68195786823E+01  0.10313121389E+04  0.99750940913E+03 0.  0.
         13    1    3    3    0    0  0.19355987227E+03  0.19786642060E+03 -0.33745304165E+03  0.43645287379E+03  0.10566000000E+00 0. -1.
         -4    1    3    3    0  502 -0.45530259897E+03 -0.19297305993E+03  0.33063346297E+03  0.59485926515E+03  0.00000000000E+00 0. -1.
        -13    1    1    2    0    0  0.26174272670E+03 -0.48933606659E+01  0.75784906173E+03  0.80179075293E+03  0.10566000000E+00 0.  1.
<mgrwt>
<rscale>  1 0.73202028E+03</rscale>
<asrwt>0</asrwt>
<pdfrwt beam="2">  1       21 0.83236416E-01 0.10312896E+04</pdfrwt>
<pdfrwt beam="1">  1       -4 0.19877941E+00 0.10312896E+04</pdfrwt>
<totfact> 0.63415477E+00</totfact>
</mgrwt>
</event>
<event>
 6    2  0.2294477E-005  0.1001339E+04  0.7818608E-02  0.1002002E+00
         -4   -1    0    0    0  501 -0.00000000000E+00  0.00000000000E+00  0.37291351663E+03  0.37291351663E+03  0.00000000000E+00 0. -1.
         21   -1    0    0  501  502  0.00000000000E+00 -0.00000000000E+00 -0.86685556004E+03  0.86685556004E+03  0.00000000000E+00 0. -1.
   -9000010    2    1    2    0  502  0.83444087257E+02  0.32904494169E+02 -0.54135861621E+03  0.11383099027E+04  0.99731372290E+03 0.  0.
         13    1    3    3    0    0  0.59252436444E+02  0.12620943041E+03 -0.82605484556E+03  0.83773879616E+03  0.10566000000E+00 0. -1.
         -4    1    3    3    0  502  0.24191650813E+02 -0.93304936242E+02  0.28469622936E+03  0.30057110657E+03  0.00000000000E+00 0. -1.
        -13    1    1    2    0    0 -0.83444087257E+02 -0.32904494169E+02  0.47416572798E+02  0.10145917393E+03  0.10566000000E+00 0.  1.
<mgrwt>
<rscale>  1 0.54781126E+03</rscale>
<asrwt>0</asrwt>
<pdfrwt beam="2">  1       21 0.13336239E+00 0.10013392E+04</pdfrwt>
<pdfrwt beam="1">  1       -4 0.57371312E-01 0.10013392E+04</pdfrwt>
<totfact> 0.42963100E+01</totfact>
</mgrwt>
</event>
<event>
 6    2  0.2294477E-005  0.1040573E+04  0.7818608E-02  0.9626541E-01
         21   -1    0    0  501  502  0.00000000000E+00  0.00000000000E+00  0.53848821069E+03  0.53848821069E+03  0.00000000000E+00 0. -1.
         -4   -1    0    0    0  501 -0.00000000000E+00 -0.00000000000E+00 -0.92306336802E+03  0.92306336802E+03  0.00000000000E+00 0. -1.
   -9000010    2    1    2    0  502 -0.14635898689E+03  0.24962173269E+03 -0.83425550595E+02  0.10439117108E+04  0.99952982696E+03 0.  0.
         13    1    3    3    0    0 -0.19554253609E+03 -0.36736586690E+03  0.18756167847E+02  0.41658896839E+03  0.10566000000E+00 0. -1.
         -4    1    3    3    0  502  0.49183549201E+02  0.61698759959E+03 -0.10218171844E+03  0.62732274241E+03  0.00000000000E+00 0. -1.
        -13    1    1    2    0    0  0.14635898689E+03 -0.24962173269E+03 -0.30114960673E+03  0.41763986791E+03  0.10566000000E+00 0.  1.
<mgrwt>
<rscale>  1 0.75564146E+03</rscale>
<asrwt>0</asrwt>
<pdfrwt beam="1">  1       21 0.82844340E-01 0.10405728E+04</pdfrwt>
<pdfrwt beam="2">  1       -4 0.14200975E+00 0.10405728E+04</pdfrwt>
<totfact> 0.16530013E+01</totfact>
</mgrwt>
</event>
<event>
 6    2  0.2294477E-005  0.1000878E+04  0.7818608E-02  0.1002518E+00
         21   -1    0    0  501  502  0.00000000000E+00  0.00000000000E+00  0.29590828428E+03  0.29590828428E+03  0.00000000000E+00 0. -1.
         -4   -1    0    0    0  501 -0.00000000000E+00 -0.00000000000E+00 -0.10083574418E+04  0.10083574418E+04  0.00000000000E+00 0. -1.
   -9000010    2    1    2    0  502  0.86392829768E+02 -0.18631277417E+02 -0.68043072142E+03  0.12102655295E+04  0.99696832436E+03 0.  0.
         13    1    3    3    0    0  0.30759960740E+03 -0.29783440609E+03 -0.73429222721E+03  0.85000466941E+03  0.10566000000E+00 0. -1.
         -4    1    3    3    0  502 -0.22120677763E+03  0.27920312867E+03  0.53861505784E+02  0.36026086012E+03  0.00000000000E+00 0. -1.
        -13    1    1    2    0    0 -0.86392829768E+02  0.18631277417E+02 -0.32018436070E+02  0.94000196521E+02  0.10566000000E+00 0.  1.
<mgrwt>
<rscale>  1 0.54559858E+03</rscale>
<asrwt>0</asrwt>
<pdfrwt beam="1">  1       21 0.45524351E-01 0.10008780E+04</pdfrwt>
<pdfrwt beam="2">  1       -4 0.15513192E+00 0.10008780E+04</pdfrwt>
<totfact> 0.50143147E+01</totfact>
</mgrwt>
</event>
<event>
 6    2  0.2294477E-005  0.1132702E+04  0.7818608E-02  0.9359908E-01
         21   -1    0    0  501  502  0.00000000000E+00  0.00000000000E+00  0.10316353564E+04  0.10316353564E+04  0.00000000000E+00 0. -1.
         -4   -1    0    0    0  501 -0.00000000000E+00 -0.00000000000E+00 -0.88992358506E+03  0.88992358506E+03  0.00000000000E+00 0. -1.
   -9000010    2    1    2    0  502 -0.51035718912E+03 -0.25642309685E+03  0.50972682933E+03  0.12421088998E+04  0.97815940075E+03 0.  0.
         13    1    3    3    0    0 -0.81422777209E+02  0.80851539430E+02  0.66497195988E+03  0.67479949516E+03  0.10566000000E+00 0. -1.
         -4    1    3    3    0  502 -0.42893441191E+03 -0.33727463628E+03 -0.15524513056E+03  0.56730940461E+03  0.00000000000E+00 0. -1.
        -13    1    1    2    0    0  0.51035718912E+03  0.25642309685E+03 -0.36801505798E+03  0.67945004169E+03  0.10566000000E+00 0.  1.
<mgrwt>
<rscale>  1 0.95449801E+03</rscale>
<asrwt>0</asrwt>
<pdfrwt beam="1">  1       21 0.15871313E+00 0.11327017E+04</pdfrwt>
<pdfrwt beam="2">  1       -4 0.13691132E+00 0.11327017E+04</pdfrwt>
<totfact> 0.33576356E+00</totfact>
</mgrwt>
</event>
<event>
 6    2  0.2294477E-005  0.1036600E+04  0.7818608E-02  0.9642830E-01
         21   -1    0    0  501  502  0.00000000000E+00  0.00000000000E+00  0.52117200565E+03  0.52117200565E+03  0.00000000000E+00 0. -1.
         -4   -1    0    0    0  501 -0.00000000000E+00 -0.00000000000E+00 -0.86173653035E+03  0.86173653035E+03  0.00000000000E+00 0. -1.
   -9000010    2    1    2    0  502 -0.20036358786E+03  0.19117273279E+03 -0.37818026875E+03  0.11034312803E+04  0.99892326709E+03 0.  0.
         13    1    3    3    0    0 -0.50547636206E+02  0.50155610175E+03 -0.52588090398E+03  0.72846710500E+03  0.10566000000E+00 0. -1.
         -4    1    3    3    0  502 -0.14981595165E+03 -0.31038336896E+03  0.14770063523E+03  0.37496417528E+03  0.00000000000E+00 0. -1.
        -13    1    1    2    0    0  0.20036358786E+03 -0.19117273279E+03  0.37615744050E+02  0.27947725573E+03  0.10566000000E+00 0.  1.
<mgrwt>
<rscale>  1 0.74525130E+03</rscale>
<asrwt>0</asrwt>
<pdfrwt beam="1">  1       21 0.80180309E-01 0.10366003E+04</pdfrwt>
<pdfrwt beam="2">  1       -4 0.13257485E+00 0.10366003E+04</pdfrwt>
<totfact> 0.21379599E+01</totfact>
</mgrwt>
</event>
<event>
 6    2  0.2294477E-005  0.1049323E+04  0.7818608E-02  0.9643968E-01
         21   -1    0    0  501  502  0.00000000000E+00  0.00000000000E+00  0.18852069106E+04  0.18852069106E+04  0.00000000000E+00 0. -1.
         -4   -1    0    0    0  501 -0.00000000000E+00 -0.00000000000E+00 -0.25312831154E+03  0.25312831154E+03  0.00000000000E+00 0. -1.
   -9000010    2    1    2    0  502 -0.26484303409E+03  0.24275373578E+02  0.98695331760E+03  0.14405402907E+04  0.10150607624E+04 0.  0.
         13    1    3    3    0    0 -0.37476457096E+03 -0.33975699286E+02 -0.64468943469E+02  0.38178408509E+03  0.10566000000E+00 0. -1.
         -4    1    3    3    0  502  0.10992153687E+03  0.58251072864E+02  0.10514222611E+04  0.10587562056E+04  0.00000000000E+00 0. -1.
        -13    1    1    2    0    0  0.26484303409E+03 -0.24275373578E+02  0.64512528145E+03  0.69779493148E+03  0.10566000000E+00 0.  1.
<mgrwt>
<rscale>  1 0.74453203E+03</rscale>
<asrwt>0</asrwt>
<pdfrwt beam="1">  1       21 0.29003182E+00 0.10493233E+04</pdfrwt>
<pdfrwt beam="2">  1       -4 0.38942818E-01 0.10493233E+04</pdfrwt>
<totfact> 0.78063789E+00</totfact>
</mgrwt>
</event>
<event>
 6    2  0.2294477E-005  0.1035756E+04  0.7818608E-02  0.9667617E-01
         21   -1    0    0  501  502  0.00000000000E+00  0.00000000000E+00  0.55819574850E+03  0.55819574850E+03  0.00000000000E+00 0. -1.
         -4   -1    0    0    0  501 -0.00000000000E+00 -0.00000000000E+00 -0.83297448089E+03  0.83297448089E+03  0.00000000000E+00 0. -1.
   -9000010    2    1    2    0  502 -0.17389978852E+00  0.25526755495E+03 -0.28023320735E+02  0.10361353027E+04  0.10038075035E+04 0.  0.
         13    1    3    3    0    0  0.23001760687E+03  0.41029269138E+03  0.33624296063E+03  0.57819333428E+03  0.10566000000E+00 0. -1.
         -4    1    3    3    0  502 -0.23019150666E+03 -0.15502513643E+03 -0.36426628136E+03  0.45794196837E+03  0.00000000000E+00 0. -1.
        -13    1    1    2    0    0  0.17389978852E+00 -0.25526755495E+03 -0.24675541166E+03  0.35503492673E+03  0.10566000000E+00 0.  1.
<mgrwt>
<rscale>  1 0.72978027E+03</rscale>
<asrwt>0</asrwt>
<pdfrwt beam="1">  1       21 0.85876269E-01 0.10357563E+04</pdfrwt>
<pdfrwt beam="2">  1       -4 0.12814992E+00 0.10357563E+04</pdfrwt>
<totfact> 0.19824529E+01</totfact>
</mgrwt>
</event>
<event>
 6    2  0.2294477E-005  0.9988707E+03  0.7818608E-02  0.9675785E-01
         -4   -1    0    0    0  501 -0.00000000000E+00  0.00000000000E+00  0.18705911460E+04  0.18705911460E+04  0.00000000000E+00 0. -1.
         21   -1    0    0  501  502  0.00000000000E+00 -0.00000000000E+00 -0.23721436971E+03  0.23721436971E+03  0.00000000000E+00 0. -1.
   -9000010    2    1    2    0  502 -0.32127047177E+02 -0.27499824184E+03  0.98524819000E+03  0.14030169973E+04  0.95973252451E+03 0.  0.
         13    1    3    3    0    0 -0.34697463892E+03 -0.19944396509E+03  0.10018257080E+04  0.10788067740E+04  0.10566000000E+00 0. -1.
         -4    1    3    3    0  502  0.31484759174E+03 -0.75554276742E+02 -0.16577518032E+02  0.32421022325E+03  0.00000000000E+00 0. -1.
        -13    1    1    2    0    0  0.32127047177E+02  0.27499824184E+03  0.64812858627E+03  0.70478851841E+03  0.10566000000E+00 0.  1.
<mgrwt>
<rscale>  1 0.72477026E+03</rscale>
<asrwt>0</asrwt>
<pdfrwt beam="2">  1       21 0.36494520E-01 0.99887071E+03</pdfrwt>
<pdfrwt beam="1">  1       -4 0.28778324E+00 0.99887071E+03</pdfrwt>
<totfact> 0.10828309E+01</totfact>
</mgrwt>
</event>
<event>
 6    2  0.2294477E-005  0.1014601E+04  0.7818608E-02  0.9763731E-01
         21   -1    0    0  501  502  0.00000000000E+00  0.00000000000E+00  0.38346499459E+03  0.38346499459E+03  0.00000000000E+00 0. -1.
         -4   -1    0    0    0  501 -0.00000000000E+00 -0.00000000000E+00 -0.10362985346E+04  0.10362985346E+04  0.00000000000E+00 0. -1.
   -9000010    2    1    2    0  502  0.13777158702E+03  0.14074173228E+03 -0.38034091220E+03  0.10835470978E+04  0.99530189298E+03 0.  0.
         13    1    3    3    0    0 -0.18739702937E+03  0.30670266444E+03 -0.56869117230E+03  0.67275094323E+03  0.10566000000E+00 0. -1.
         -4    1    3    3    0  502  0.32516861639E+03 -0.16596093216E+03  0.18835026011E+03  0.41079615453E+03  0.00000000000E+00 0. -1.
        -13    1    1    2    0    0 -0.13777158702E+03 -0.14074173228E+03 -0.27249262782E+03  0.33621643145E+03  0.10566000000E+00 0.  1.
<mgrwt>
<rscale>  1 0.67345779E+03</rscale>
<asrwt>0</asrwt>
<pdfrwt beam="1">  1       21 0.58994614E-01 0.10146010E+04</pdfrwt>
<pdfrwt beam="2">  1       -4 0.15943055E+00 0.10146010E+04</pdfrwt>
<totfact> 0.26441414E+01</totfact>
</mgrwt>
</event>
<event>
 6    2  0.2294477E-005  0.1087047E+04  0.7818608E-02  0.9492085E-01
         -4   -1    0    0    0  501 -0.00000000000E+00  0.00000000000E+00  0.10137254195E+04  0.10137254195E+04  0.00000000000E+00 0. -1.
         21   -1    0    0  501  502  0.00000000000E+00 -0.00000000000E+00 -0.68068883821E+03  0.68068883821E+03  0.00000000000E+00 0. -1.
   -9000010    2    1    2    0  502  0.34214435285E+02 -0.40244465407E+03 -0.11273715125E+03  0.10928774268E+04  0.10092269703E+04 0.  0.
         13    1    3    3    0    0 -0.12848905243E+03 -0.71070778811E+03  0.12943287671E+02  0.72234516441E+03  0.10566000000E+00 0. -1.
         -4    1    3    3    0  502  0.16270348772E+03  0.30826313404E+03 -0.12568043892E+03  0.37053226236E+03  0.00000000000E+00 0. -1.
        -13    1    1    2    0    0 -0.34214435285E+02  0.40244465407E+03  0.44577373249E+03  0.60153683089E+03  0.10566000000E+00 0.  1.
<mgrwt>
<rscale>  1 0.84869917E+03</rscale>
<asrwt>0</asrwt>
<pdfrwt beam="2">  1       21 0.10472136E+00 0.10870471E+04</pdfrwt>
<pdfrwt beam="1">  1       -4 0.15595776E+00 0.10870471E+04</pdfrwt>
<totfact> 0.72224485E+00</totfact>
</mgrwt>
</event>
<event>
 6    2  0.2294477E-005  0.1005028E+04  0.7818608E-02  0.9785483E-01
         -4   -1    0    0    0  501 -0.00000000000E+00  0.00000000000E+00  0.32842377946E+03  0.32842377946E+03  0.00000000000E+00 0. -1.
         21   -1    0    0  501  502  0.00000000000E+00 -0.00000000000E+00 -0.15609552297E+04  0.15609552297E+04  0.00000000000E+00 0. -1.
   -9000010    2    1    2    0  502  0.16711664027E+03 -0.87396093624E+02 -0.13379096240E+04  0.16733451708E+04  0.98717569354E+03 0.  0.
         13    1    3    3    0    0  0.52833122044E+03  0.17297550521E+03 -0.66982144675E+03  0.87046837139E+03  0.10566000000E+00 0. -1.
         -4    1    3    3    0  502 -0.36121458017E+03 -0.26037159883E+03 -0.66808817727E+03  0.80287679940E+03  0.00000000000E+00 0. -1.
        -13    1    1    2    0    0 -0.16711664027E+03  0.87396093624E+02  0.10537817379E+03  0.21603383835E+03  0.10566000000E+00 0.  1.
<mgrwt>
<rscale>  1 0.66147463E+03</rscale>
<asrwt>0</asrwt>
<pdfrwt beam="2">  1       21 0.24014696E+00 0.10050283E+04</pdfrwt>
<pdfrwt beam="1">  1       -4 0.50526735E-01 0.10050283E+04</pdfrwt>
<totfact> 0.94488018E+00</totfact>
</mgrwt>
</event>
<event>
 6    2  0.2294477E-005  0.1045211E+04  0.7818608E-02  0.9606839E-01
         -4   -1    0    0    0  501 -0.00000000000E+00  0.00000000000E+00  0.42128195643E+03  0.42128195643E+03  0.00000000000E+00 0. -1.
         21   -1    0    0  501  502  0.00000000000E+00 -0.00000000000E+00 -0.23889311178E+04  0.23889311178E+04  0.00000000000E+00 0. -1.
   -9000010    2    1    2    0  502 -0.29209812308E+03 -0.89114559110E+02 -0.21938916129E+04  0.24301494267E+04  0.99960147489E+03 0.  0.
         13    1    3    3    0    0  0.32378931968E+02  0.21894747246E+03 -0.33423702147E+02  0.22383821381E+03  0.10566000000E+00 0. -1.
         -4    1    3    3    0  502 -0.32447705505E+03 -0.30806203157E+03 -0.21604679108E+04  0.22063112129E+04  0.00000000000E+00 0. -1.
        -13    1    1    2    0    0  0.29209812308E+03  0.89114559110E+02  0.22624245155E+03  0.38006364756E+03  0.10566000000E+00 0.  1.
<mgrwt>
<rscale>  1 0.76845150E+03</rscale>
<asrwt>0</asrwt>
<pdfrwt beam="2">  1       21 0.36752787E+00 0.10452109E+04</pdfrwt>
<pdfrwt beam="1">  1       -4 0.64812608E-01 0.10452109E+04</pdfrwt>
<totfact> 0.86678066E-01</totfact>
</mgrwt>
</event>
<event>
 6    2  0.2294477E-005  0.1384231E+04  0.7818608E-02  0.9058513E-01
         -4   -1    0    0    0  501 -0.00000000000E+00  0.00000000000E+00  0.15169767738E+04  0.15169767738E+04  0.00000000000E+00 0. -1.
         21   -1    0    0  501  502  0.00000000000E+00 -0.00000000000E+00 -0.10292393472E+04  0.10292393472E+04  0.00000000000E+00 0. -1.
   -9000010    2    1    2    0  502 -0.66797894270E+03  0.69336040369E+03 -0.14854656137E+03  0.13921789284E+04  0.99456099389E+03 0.  0.
         13    1    3    3    0    0 -0.19018820509E+03  0.27128041516E+03  0.42208098277E+03  0.53657896361E+03  0.10566000000E+00 0. -1.
         -4    1    3    3    0  502 -0.47779073761E+03  0.42207998853E+03 -0.57062754415E+03  0.85559996482E+03  0.00000000000E+00 0. -1.
        -13    1    1    2    0    0  0.66797894270E+03 -0.69336040369E+03  0.63628398799E+03  0.11540371926E+04  0.10566000000E+00 0.  1.
<mgrwt>
<rscale>  1 0.12641197E+04</rscale>
<asrwt>0</asrwt>
<pdfrwt beam="2">  1       21 0.15834451E+00 0.13842312E+04</pdfrwt>
<pdfrwt beam="1">  1       -4 0.23338104E+00 0.13842312E+04</pdfrwt>
<totfact> 0.68480131E-01</totfact>
</mgrwt>
</event>
<event>
 6    2  0.2294477E-005  0.1040837E+04  0.7818608E-02  0.9746317E-01
         -4   -1    0    0    0  501 -0.00000000000E+00  0.00000000000E+00  0.56139325909E+03  0.56139325909E+03  0.00000000000E+00 0. -1.
         21   -1    0    0  501  502  0.00000000000E+00 -0.00000000000E+00 -0.67846704754E+03  0.67846704754E+03  0.00000000000E+00 0. -1.
   -9000010    2    1    2    0  502  0.12495042213E+03 -0.14744773061E+03 -0.90353092674E+02  0.10447514960E+04  0.10227358240E+04 0.  0.
         13    1    3    3    0    0  0.49643529179E+03 -0.34124045870E+03  0.45918297659E+02  0.60415358214E+03  0.10566000000E+00 0. -1.
         -4    1    3    3    0  502 -0.37148486967E+03  0.19379272809E+03 -0.13627139033E+03  0.44059791383E+03  0.00000000000E+00 0. -1.
        -13    1    1    2    0    0 -0.12495042213E+03  0.14744773061E+03 -0.26720695778E+02  0.19510881066E+03  0.10566000000E+00 0.  1.
<mgrwt>
<rscale>  1 0.68324819E+03</rscale>
<asrwt>0</asrwt>
<pdfrwt beam="2">  1       21 0.10437955E+00 0.10408372E+04</pdfrwt>
<pdfrwt beam="1">  1       -4 0.86368194E-01 0.10408372E+04</pdfrwt>
<totfact> 0.32213845E+01</totfact>
</mgrwt>
</event>
<event>
 6    2  0.2294477E-005  0.1050415E+04  0.7818608E-02  0.9596542E-01
         -4   -1    0    0    0  501 -0.00000000000E+00  0.00000000000E+00  0.68419088746E+03  0.68419088746E+03  0.00000000000E+00 0. -1.
         21   -1    0    0  501  502  0.00000000000E+00 -0.00000000000E+00 -0.88966897280E+03  0.88966897280E+03  0.00000000000E+00 0. -1.
   -9000010    2    1    2    0  502  0.28280857216E+03 -0.13098649196E+03 -0.48336800390E+03  0.11562943354E+04  0.10031120642E+04 0.  0.
         13    1    3    3    0    0  0.49199152685E+03  0.12311097577E+03 -0.61907364333E+03  0.80029004859E+03  0.10566000000E+00 0. -1.
         -4    1    3    3    0  502 -0.20918295469E+03 -0.25409746773E+03  0.13570563943E+03  0.35600428679E+03  0.00000000000E+00 0. -1.
        -13    1    1    2    0    0 -0.28280857216E+03  0.13098649196E+03  0.27788991856E+03  0.41756552487E+03  0.10566000000E+00 0.  1.
<mgrwt>
<rscale>  1 0.77525480E+03</rscale>
<asrwt>0</asrwt>
<pdfrwt beam="2">  1       21 0.13687215E+00 0.10504151E+04</pdfrwt>
<pdfrwt beam="1">  1       -4 0.10526014E+00 0.10504151E+04</pdfrwt>
<totfact> 0.99285215E+00</totfact>
</mgrwt>
</event>
<event>
 6    2  0.2294477E-005  0.9713530E+03  0.7818608E-02  0.1010616E+00
         21   -1    0    0  501  502  0.00000000000E+00  0.00000000000E+00  0.37159181584E+03  0.37159181584E+03  0.00000000000E+00 0. -1.
         -4   -1    0    0    0  501 -0.00000000000E+00 -0.00000000000E+00 -0.85302079010E+03  0.85302079010E+03  0.00000000000E+00 0. -1.
   -9000010    2    1    2    0  502 -0.56636118036E+02 -0.49407936492E+02 -0.28195202499E+03  0.10114463363E+04  0.96844099086E+03 0.  0.
         13    1    3    3    0    0  0.38385651227E+03 -0.17841497640E+03 -0.34767021604E+03  0.54777031327E+03  0.10566000000E+00 0. -1.
         -4    1    3    3    0  502 -0.44049263030E+03  0.12900703991E+03  0.65718191056E+02  0.46367602303E+03  0.00000000000E+00 0. -1.
        -13    1    1    2    0    0  0.56636118036E+02  0.49407936492E+02 -0.19947694928E+03  0.21316626964E+03  0.10566000000E+00 0.  1.
<mgrwt>
<rscale>  1 0.51230360E+03</rscale>
<asrwt>0</asrwt>
<pdfrwt beam="1">  1       21 0.57167972E-01 0.97135305E+03</pdfrwt>
<pdfrwt beam="2">  1       -4 0.13123397E+00 0.97135305E+03</pdfrwt>
<totfact> 0.47721981E+01</totfact>
</mgrwt>
</event>
<event>
 6    2  0.2294477E-005  0.1123145E+04  0.7818608E-02  0.9462535E-01
         -4   -1    0    0    0  501 -0.00000000000E+00  0.00000000000E+00  0.77651660456E+03  0.77651660456E+03  0.00000000000E+00 0. -1.
         21   -1    0    0  501  502  0.00000000000E+00 -0.00000000000E+00 -0.78810199135E+03  0.78810199135E+03  0.00000000000E+00 0. -1.
   -9000010    2    1    2    0  502  0.24955965607E+02 -0.40551602522E+03 -0.15494828308E+03  0.11337833860E+04  0.10470863140E+04 0.  0.
         13    1    3    3    0    0  0.13556966450E+03 -0.72080077743E+03  0.60961524466E+02  0.73596821487E+03  0.10566000000E+00 0. -1.
         -4    1    3    3    0  502 -0.11061369889E+03  0.31528475220E+03 -0.21590980755E+03  0.39781517109E+03  0.00000000000E+00 0. -1.
        -13    1    1    2    0    0 -0.24955965607E+02  0.40551602522E+03  0.14336289629E+03  0.43083520995E+03  0.10566000000E+00 0.  1.
<mgrwt>
<rscale>  1 0.87103225E+03</rscale>
<asrwt>0</asrwt>
<pdfrwt beam="2">  1       21 0.12124646E+00 0.11231455E+04</pdfrwt>
<pdfrwt beam="1">  1       -4 0.11946409E+00 0.11231455E+04</pdfrwt>
<totfact> 0.99375563E+00</totfact>
</mgrwt>
</event>
<event>
 6    2  0.2294477E-005  0.1030006E+04  0.7818608E-02  0.9689265E-01
         21   -1    0    0  501  502  0.00000000000E+00  0.00000000000E+00  0.17013873416E+04  0.17013873416E+04  0.00000000000E+00 0. -1.
         -4   -1    0    0    0  501 -0.00000000000E+00 -0.00000000000E+00 -0.74546973277E+03  0.74546973277E+03  0.00000000000E+00 0. -1.
   -9000010    2    1    2    0  502  0.20899394255E+03 -0.12063371252E+03  0.15184044559E+04  0.18347930052E+04  0.10013402616E+04 0.  0.
         13    1    3    3    0    0  0.72125318600E+02 -0.51922406763E+03  0.46694772992E+03  0.70202271162E+03  0.10566000000E+00 0. -1.
         -4    1    3    3    0  502  0.13686862395E+03  0.39859035511E+03  0.10514567259E+04  0.11327702935E+04  0.00000000000E+00 0. -1.
        -13    1    1    2    0    0 -0.20899394255E+03  0.12063371252E+03 -0.56248684700E+03  0.61206406922E+03  0.10566000000E+00 0.  1.
<mgrwt>
<rscale>  1 0.71659572E+03</rscale>
<asrwt>0</asrwt>
<pdfrwt beam="1">  1       21 0.26175190E+00 0.10300064E+04</pdfrwt>
<pdfrwt beam="2">  1       -4 0.11468765E+00 0.10300064E+04</pdfrwt>
<totfact> 0.10542201E+00</totfact>
</mgrwt>
</event>
<event>
 6    2  0.2294477E-005  0.1107822E+04  0.7818608E-02  0.9430445E-01
         21   -1    0    0  501  502  0.00000000000E+00  0.00000000000E+00  0.10765314974E+04  0.10765314974E+04  0.00000000000E+00 0. -1.
         -4   -1    0    0    0  501 -0.00000000000E+00 -0.00000000000E+00 -0.74557061363E+03  0.74557061363E+03  0.00000000000E+00 0. -1.
   -9000010    2    1    2    0  502  0.42834237876E+03  0.20367796827E+03  0.61717112482E+03  0.12681362082E+04  0.10011530038E+04 0.  0.
         13    1    3    3    0    0 -0.30964655564E+03  0.76425697038E+02  0.34876732063E+03  0.47261033811E+03  0.10566000000E+00 0. -1.
         -4    1    3    3    0  502  0.73798893440E+03  0.12725227124E+03  0.26840380419E+03  0.79552587006E+03  0.00000000000E+00 0. -1.
        -13    1    1    2    0    0 -0.42834237876E+03 -0.20367796827E+03 -0.28621024110E+03  0.55396590281E+03  0.10566000000E+00 0.  1.
<mgrwt>
<rscale>  1 0.89611979E+03</rscale>
<asrwt>0</asrwt>
<pdfrwt beam="1">  1       21 0.16562023E+00 0.11078218E+04</pdfrwt>
<pdfrwt beam="2">  1       -4 0.11470317E+00 0.11078218E+04</pdfrwt>
<totfact> 0.46769376E+00</totfact>
</mgrwt>
</event>
<event>
 6    2  0.2294477E-005  0.1007806E+04  0.7818608E-02  0.9878257E-01
         21   -1    0    0  501  502  0.00000000000E+00  0.00000000000E+00  0.60802595584E+03  0.60802595584E+03  0.00000000000E+00 0. -1.
         -4   -1    0    0    0  501 -0.00000000000E+00 -0.00000000000E+00 -0.62610249087E+03  0.62610249087E+03  0.00000000000E+00 0. -1.
   -9000010    2    1    2    0  502 -0.13731872514E+03 -0.15467573751E+02  0.14741338647E+03  0.10185302014E+04  0.99828722644E+03 0.  0.
         13    1    3    3    0    0 -0.28053197269E+03 -0.11986774002E+03 -0.36536950270E+03  0.47598460843E+03  0.10566000000E+00 0. -1.
         -4    1    3    3    0  502  0.14321324754E+03  0.10440016627E+03  0.51278288917E+03  0.54254559293E+03  0.00000000000E+00 0. -1.
        -13    1    1    2    0    0  0.13731872514E+03  0.15467573751E+02 -0.16548992149E+03  0.21559824534E+03  0.10566000000E+00 0.  1.
<mgrwt>
<rscale>  1 0.61326707E+03</rscale>
<asrwt>0</asrwt>
<pdfrwt beam="1">  1       21 0.93542455E-01 0.10078061E+04</pdfrwt>
<pdfrwt beam="2">  1       -4 0.96323460E-01 0.10078061E+04</pdfrwt>
<totfact> 0.32750336E+01</totfact>
</mgrwt>
</event>
<event>
 6    2  0.2294477E-005  0.1010458E+04  0.7818608E-02  0.9904358E-01
         -4   -1    0    0    0  501 -0.00000000000E+00  0.00000000000E+00  0.79179442661E+03  0.79179442661E+03  0.00000000000E+00 0. -1.
         21   -1    0    0  501  502  0.00000000000E+00 -0.00000000000E+00 -0.46570920561E+03  0.46570920561E+03  0.00000000000E+00 0. -1.
   -9000010    2    1    2    0  502 -0.90578266767E+02 -0.87646918505E+02  0.12222090762E+03  0.10178224395E+04  0.10025657900E+04 0.  0.
         13    1    3    3    0    0  0.41100414540E+03 -0.50466009053E+02  0.26910947887E+03  0.49385336729E+03  0.10566000000E+00 0. -1.
         -4    1    3    3    0  502 -0.50158241216E+03 -0.37180909452E+02 -0.14688857125E+03  0.52396907216E+03  0.00000000000E+00 0. -1.
        -13    1    1    2    0    0  0.90578266767E+02  0.87646918505E+02  0.20386431338E+03  0.23968119277E+03  0.10566000000E+00 0.  1.
<mgrwt>
<rscale>  1 0.60050526E+03</rscale>
<asrwt>0</asrwt>
<pdfrwt beam="2">  1       21 0.71647570E-01 0.10104576E+04</pdfrwt>
<pdfrwt beam="1">  1       -4 0.12181453E+00 0.10104576E+04</pdfrwt>
<totfact> 0.34575466E+01</totfact>
</mgrwt>
</event>
<event>
 6    2  0.2294477E-005  0.9942479E+03  0.7818608E-02  0.1004237E+00
         21   -1    0    0  501  502  0.00000000000E+00  0.00000000000E+00  0.24179685138E+03  0.24179685138E+03  0.00000000000E+00 0. -1.
         -4   -1    0    0    0  501 -0.00000000000E+00 -0.00000000000E+00 -0.14877529933E+04  0.14877529933E+04  0.00000000000E+00 0. -1.
   -9000010    2    1    2    0  502 -0.70218868495E+02 -0.48665444914E+02 -0.80184465614E+03  0.12772954495E+04  0.99057044052E+03 0.  0.
         13    1    3    3    0    0  0.16252232185E+03  0.42580031565E+03 -0.28174239504E+03  0.53581545538E+03  0.10566000000E+00 0. -1.
         -4    1    3    3    0  502 -0.23274119034E+03 -0.47446576056E+03 -0.52010226111E+03  0.74147999409E+03  0.00000000000E+00 0. -1.
        -13    1    1    2    0    0  0.70218868495E+02  0.48665444914E+02 -0.44411148577E+03  0.45225439520E+03  0.10566000000E+00 0.  1.
<mgrwt>
<rscale>  1 0.53830587E+03</rscale>
<asrwt>0</asrwt>
<pdfrwt beam="1">  1       21 0.37199516E-01 0.99424786E+03</pdfrwt>
<pdfrwt beam="2">  1       -4 0.22888507E+00 0.99424786E+03</pdfrwt>
<totfact> 0.24104127E+01</totfact>
</mgrwt>
</event>
<event>
 6    2  0.2294477E-005  0.1142427E+04  0.7818608E-02  0.9361125E-01
         -4   -1    0    0    0  501 -0.00000000000E+00  0.00000000000E+00  0.16283188086E+04  0.16283188086E+04  0.00000000000E+00 0. -1.
         21   -1    0    0  501  502  0.00000000000E+00 -0.00000000000E+00 -0.63426105508E+03  0.63426105508E+03  0.00000000000E+00 0. -1.
   -9000010    2    1    2    0  502  0.35121971716E+03  0.42876847646E+03  0.20857701745E+02  0.11426173428E+04  0.99897029601E+03 0.  0.
         13    1    3    3    0    0  0.23523342073E+03 -0.69051744593E+02  0.42524007934E+03  0.49084828807E+03  0.10566000000E+00 0. -1.
         -4    1    3    3    0  502  0.11598629643E+03  0.49782022105E+03 -0.40438237760E+03  0.65176905477E+03  0.00000000000E+00 0. -1.
        -13    1    1    2    0    0 -0.35121971716E+03 -0.42876847646E+03  0.97320005177E+03  0.11199625208E+04  0.10566000000E+00 0.  1.
<mgrwt>
<rscale>  1 0.95345144E+03</rscale>
<asrwt>0</asrwt>
<pdfrwt beam="2">  1       21 0.97578625E-01 0.11424270E+04</pdfrwt>
<pdfrwt beam="1">  1       -4 0.25051058E+00 0.11424270E+04</pdfrwt>
<totfact> 0.19907683E+00</totfact>
</mgrwt>
</event>
<event>
 6    2  0.2294477E-005  0.1029871E+04  0.7818608E-02  0.9776671E-01
         21   -1    0    0  501  502  0.00000000000E+00  0.00000000000E+00  0.23434559243E+03  0.23434559243E+03  0.00000000000E+00 0. -1.
         -4   -1    0    0    0  501 -0.00000000000E+00 -0.00000000000E+00 -0.18031224475E+04  0.18031224475E+04  0.00000000000E+00 0. -1.
   -9000010    2    1    2    0  502  0.13039559832E+03  0.12471593614E+03 -0.97987660436E+03  0.14215454854E+04  0.10139409896E+04 0.  0.
         13    1    3    3    0    0  0.27744144175E+03  0.40518949784E+03 -0.12044893664E+03  0.50562855958E+03  0.10566000000E+00 0. -1.
         -4    1    3    3    0  502 -0.14704584343E+03 -0.28047356170E+03 -0.85942766772E+03  0.91591692578E+03  0.00000000000E+00 0. -1.
        -13    1    1    2    0    0 -0.13039559832E+03 -0.12471593614E+03 -0.58890025072E+03  0.61592255459E+03  0.10566000000E+00 0.  1.
<mgrwt>
<rscale>  1 0.66629673E+03</rscale>
<asrwt>0</asrwt>
<pdfrwt beam="1">  1       21 0.36053167E-01 0.10298706E+04</pdfrwt>
<pdfrwt beam="2">  1       -4 0.27740346E+00 0.10298706E+04</pdfrwt>
<totfact> 0.12815876E+01</totfact>
</mgrwt>
</event>
<event>
 6    2  0.2294477E-005  0.1039363E+04  0.7818608E-02  0.9602954E-01
         -4   -1    0    0    0  501 -0.00000000000E+00  0.00000000000E+00  0.24726039703E+03  0.24726039703E+03  0.00000000000E+00 0. -1.
         21   -1    0    0  501  502  0.00000000000E+00 -0.00000000000E+00 -0.25731422659E+04  0.25731422659E+04  0.00000000000E+00 0. -1.
   -9000010    2    1    2    0  502 -0.29527037365E+03 -0.10895057008E+03 -0.22755415652E+04  0.25016724046E+04  0.99056579006E+03 0.  0.
         13    1    3    3    0    0 -0.13485064585E+03 -0.49317737244E+03 -0.17922805332E+04  0.18637806036E+04  0.10566000000E+00 0. -1.
         -4    1    3    3    0  502 -0.16041972779E+03  0.38422680235E+03 -0.48326103201E+03  0.63789180099E+03  0.00000000000E+00 0. -1.
        -13    1    1    2    0    0  0.29527037365E+03  0.10895057008E+03 -0.50340303669E+02  0.31873025839E+03  0.10566000000E+00 0.  1.
<mgrwt>
<rscale>  1 0.77100979E+03</rscale>
<asrwt>0</asrwt>
<pdfrwt beam="2">  1       21 0.39586801E+00 0.10393630E+04</pdfrwt>
<pdfrwt beam="1">  1       -4 0.38040064E-01 0.10393630E+04</pdfrwt>
<totfact> 0.17538685E+00</totfact>
</mgrwt>
</event>
<event>
 6    2  0.2294477E-005  0.1140283E+04  0.7818608E-02  0.9379817E-01
         -4   -1    0    0    0  501 -0.00000000000E+00  0.00000000000E+00  0.18788162979E+04  0.18788162979E+04  0.00000000000E+00 0. -1.
         21   -1    0    0  501  502  0.00000000000E+00 -0.00000000000E+00 -0.36772428261E+03  0.36772428261E+03  0.00000000000E+00 0. -1.
   -9000010    2    1    2    0  502 -0.18482189801E+03  0.48725635061E+03  0.10010445956E+04  0.15173449506E+04  0.10142324839E+04 0.  0.
         13    1    3    3    0    0 -0.54051007517E+03  0.53878032457E+02  0.30285550924E+03  0.62191273856E+03  0.10566000000E+00 0. -1.
         -4    1    3    3    0  502  0.35568817716E+03  0.43337831816E+03  0.69818908635E+03  0.89543221201E+03  0.00000000000E+00 0. -1.
        -13    1    1    2    0    0  0.18482189801E+03 -0.48725635061E+03  0.51004741968E+03  0.72919562991E+03  0.10566000000E+00 0.  1.
<mgrwt>
<rscale>  1 0.93755402E+03</rscale>
<asrwt>0</asrwt>
<pdfrwt beam="2">  1       21 0.56572968E-01 0.11402830E+04</pdfrwt>
<pdfrwt beam="1">  1       -4 0.28904865E+00 0.11402830E+04</pdfrwt>
<totfact> 0.40961695E+00</totfact>
</mgrwt>
</event>
<event>
 6    2  0.2294477E-005  0.1092057E+04  0.7818608E-02  0.9525248E-01
         -4   -1    0    0    0  501 -0.00000000000E+00  0.00000000000E+00  0.19608802712E+04  0.19608802712E+04  0.00000000000E+00 0. -1.
         21   -1    0    0  501  502  0.00000000000E+00 -0.00000000000E+00 -0.36128551276E+03  0.36128551276E+03  0.00000000000E+00 0. -1.
   -9000010    2    1    2    0  502  0.33871435250E+03  0.10560402650E+03  0.56733123065E+03  0.12306312564E+04  0.10328160247E+04 0.  0.
         13    1    3    3    0    0  0.16557750068E+03 -0.43580042118E+03  0.62433722716E+02  0.47035720120E+03  0.10566000000E+00 0. -1.
         -4    1    3    3    0  502  0.17313685183E+03  0.54140444767E+03  0.50489750793E+03  0.76027405515E+03  0.00000000000E+00 0. -1.
        -13    1    1    2    0    0 -0.33871435250E+03 -0.10560402650E+03  0.10322635278E+04  0.10915345277E+04  0.10566000000E+00 0.  1.
<mgrwt>
<rscale>  1 0.82447677E+03</rscale>
<asrwt>0</asrwt>
<pdfrwt beam="2">  1       21 0.55582388E-01 0.10920570E+04</pdfrwt>
<pdfrwt beam="1">  1       -4 0.30167388E+00 0.10920570E+04</pdfrwt>
<totfact> 0.35790720E+00</totfact>
</mgrwt>
</event>
<event>
 6    2  0.2294477E-005  0.9598765E+03  0.7818608E-02  0.9859791E-01
         -4   -1    0    0    0  501 -0.00000000000E+00  0.00000000000E+00  0.24093441712E+03  0.24093441712E+03  0.00000000000E+00 0. -1.
         21   -1    0    0  501  502  0.00000000000E+00 -0.00000000000E+00 -0.13255826570E+04  0.13255826570E+04  0.00000000000E+00 0. -1.
   -9000010    2    1    2    0  502 -0.16970635750E+03  0.53909921871E+01 -0.93951334806E+03  0.13431486373E+04  0.94473997490E+03 0.  0.
         13    1    3    3    0    0 -0.29903824402E+03 -0.27821558174E+03 -0.94702864244E+03  0.10313539849E+04  0.10566000000E+00 0. -1.
         -4    1    3    3    0  502  0.12933188652E+03  0.28360657393E+03  0.75152943898E+01  0.31179465245E+03  0.00000000000E+00 0. -1.
        -13    1    1    2    0    0  0.16970635750E+03 -0.53909921871E+01 -0.14513489181E+03  0.22336843680E+03  0.10566000000E+00 0.  1.
<mgrwt>
<rscale>  1 0.62250211E+03</rscale>
<asrwt>0</asrwt>
<pdfrwt beam="2">  1       21 0.20393579E+00 0.95987652E+03</pdfrwt>
<pdfrwt beam="1">  1       -4 0.37066834E-01 0.95987652E+03</pdfrwt>
<totfact> 0.31213182E+01</totfact>
</mgrwt>
</event>
<event>
 6    2  0.2294477E-005  0.1030699E+04  0.7818608E-02  0.9699090E-01
         21   -1    0    0  501  502  0.00000000000E+00  0.00000000000E+00  0.11842063340E+04  0.11842063340E+04  0.00000000000E+00 0. -1.
         -4   -1    0    0    0  501 -0.00000000000E+00 -0.00000000000E+00 -0.36419881482E+03  0.36419881482E+03  0.00000000000E+00 0. -1.
   -9000010    2    1    2    0  502 -0.23113478013E+03  0.29500006587E+02  0.48191874550E+03  0.11377988081E+04  0.10040153951E+04 0.  0.
         13    1    3    3    0    0 -0.28451445812E+03 -0.45008651055E+03  0.35118931351E+03  0.63785600957E+03  0.10566000000E+00 0. -1.
         -4    1    3    3    0  502  0.53379677992E+02  0.47958651713E+03  0.13072943199E+03  0.49994279855E+03  0.00000000000E+00 0. -1.
        -13    1    1    2    0    0  0.23113478013E+03 -0.29500006587E+02  0.33808877372E+03  0.41060634074E+03  0.10566000000E+00 0.  1.
<mgrwt>
<rscale>  1 0.71071008E+03</rscale>
<asrwt>0</asrwt>
<pdfrwt beam="1">  1       21 0.18218559E+00 0.10306990E+04</pdfrwt>
<pdfrwt beam="2">  1       -4 0.56030588E-01 0.10306990E+04</pdfrwt>
<totfact> 0.18596785E+01</totfact>
</mgrwt>
</event>
<event>
 6    2  0.2294477E-005  0.1004145E+04  0.7818608E-02  0.9821714E-01
         21   -1    0    0  501  502  0.00000000000E+00  0.00000000000E+00  0.14188428776E+04  0.14188428776E+04  0.00000000000E+00 0. -1.
         -4   -1    0    0    0  501 -0.00000000000E+00 -0.00000000000E+00 -0.81973985855E+03  0.81973985855E+03  0.00000000000E+00 0. -1.
   -9000010    2    1    2    0  502 -0.74932617455E+02 -0.15024020799E+03  0.12287924346E+04  0.15868958570E+04  0.99001040223E+03 0.  0.
         13    1    3    3    0    0  0.33485562398E+03  0.24982366748E+03  0.64982646312E+03  0.77253776418E+03  0.10566000000E+00 0. -1.
         -4    1    3    3    0  502 -0.40978824144E+03 -0.40006387548E+03  0.57896597145E+03  0.81435809285E+03  0.00000000000E+00 0. -1.
        -13    1    1    2    0    0  0.74932617455E+02  0.15024020799E+03 -0.62968941552E+03  0.65168687914E+03  0.10566000000E+00 0.  1.
<mgrwt>
<rscale>  1 0.64210131E+03</rscale>
<asrwt>0</asrwt>
<pdfrwt beam="1">  1       21 0.21828352E+00 0.10041452E+04</pdfrwt>
<pdfrwt beam="2">  1       -4 0.12611382E+00 0.10041452E+04</pdfrwt>
<totfact> 0.15884001E+00</totfact>
</mgrwt>
</event>
<event>
 6    2  0.2294477E-005  0.9600515E+03  0.7818608E-02  0.9807210E-01
         -4   -1    0    0    0  501 -0.00000000000E+00  0.00000000000E+00  0.91488852560E+03  0.91488852560E+03  0.00000000000E+00 0. -1.
         21   -1    0    0  501  502  0.00000000000E+00 -0.00000000000E+00 -0.62218639757E+03  0.62218639757E+03  0.00000000000E+00 0. -1.
   -9000010    2    1    2    0  502 -0.62395121110E+02  0.19153848367E+03 -0.22110995631E+03  0.98518452550E+03  0.93867928209E+03 0.  0.
         13    1    3    3    0    0 -0.33027688871E+03 -0.23497080465E+03 -0.25750906384E+03  0.48021352686E+03  0.10566000000E+00 0. -1.
         -4    1    3    3    0  502  0.26788176760E+03  0.42650928832E+03  0.36399107524E+02  0.50497099864E+03  0.00000000000E+00 0. -1.
        -13    1    1    2    0    0  0.62395121110E+02 -0.19153848367E+03  0.51381208434E+03  0.55189039768E+03  0.10566000000E+00 0.  1.
<mgrwt>
<rscale>  1 0.64977069E+03</rscale>
<asrwt>0</asrwt>
<pdfrwt beam="2">  1       21 0.95720984E-01 0.96005153E+03</pdfrwt>
<pdfrwt beam="1">  1       -4 0.14075208E+00 0.96005153E+03</pdfrwt>
<totfact> 0.12051367E+01</totfact>
</mgrwt>
</event>
<event>
 6    2  0.2294477E-005  0.1022630E+04  0.7818608E-02  0.9763711E-01
         21   -1    0    0  501  502  0.00000000000E+00  0.00000000000E+00  0.44953884070E+03  0.44953884070E+03  0.00000000000E+00 0. -1.
         -4   -1    0    0    0  501 -0.00000000000E+00 -0.00000000000E+00 -0.87977785413E+03  0.87977785413E+03  0.00000000000E+00 0. -1.
   -9000010    2    1    2    0  502  0.14325925640E+03 -0.12837115863E+03 -0.22319253512E+03  0.10467027811E+04  0.10043751467E+04 0.  0.
         13    1    3    3    0    0 -0.22406368167E+03  0.15258520468E+03  0.26159182934E+03  0.37671882681E+03  0.10566000000E+00 0. -1.
         -4    1    3    3    0  502  0.36732293807E+03 -0.28095636331E+03 -0.48478436446E+03  0.66998395425E+03  0.00000000000E+00 0. -1.
        -13    1    1    2    0    0 -0.14325925640E+03  0.12837115863E+03 -0.20704647831E+03  0.28261391377E+03  0.10566000000E+00 0.  1.
<mgrwt>
<rscale>  1 0.67346892E+03</rscale>
<asrwt>0</asrwt>
<pdfrwt beam="1">  1       21 0.69159823E-01 0.10226298E+04</pdfrwt>
<pdfrwt beam="2">  1       -4 0.13535044E+00 0.10226298E+04</pdfrwt>
<totfact> 0.28595141E+01</totfact>
</mgrwt>
</event>
<event>
 6    2  0.2294477E-005  0.1047770E+04  0.7818608E-02  0.9529645E-01
         21   -1    0    0  501  502  0.00000000000E+00  0.00000000000E+00  0.56397871962E+03  0.56397871962E+03  0.00000000000E+00 0.  1.
         -4   -1    0    0    0  501 -0.00000000000E+00 -0.00000000000E+00 -0.98498118683E+03  0.98498118683E+03  0.00000000000E+00 0. -1.
   -9000010    2    1    2    0  502 -0.39559003633E+03 -0.45135063789E+01 -0.12569773636E+03  0.10552831460E+04  0.97021170304E+03 0.  0.
         13    1    3    3    0    0 -0.31712971460E+03 -0.45041527222E+03  0.82417019008E+02  0.55698990074E+03  0.10566000000E+00 0. -1.
         -4    1    3    3    0  502 -0.78460321724E+02  0.44590176585E+03 -0.20811475537E+03  0.49829324526E+03  0.00000000000E+00 0. -1.
        -13    1    1    2    0    0  0.39559003633E+03  0.45135063789E+01 -0.29530473085E+03  0.49367676045E+03  0.10566000000E+00 0.  1.
<mgrwt>
<rscale>  1 0.82133053E+03</rscale>
<asrwt>0</asrwt>
<pdfrwt beam="1">  1       21 0.86765958E-01 0.10477703E+04</pdfrwt>
<pdfrwt beam="2">  1       -4 0.15153557E+00 0.10477703E+04</pdfrwt>
<totfact> 0.12438520E+01</totfact>
</mgrwt>
</event>
<event>
 6    2  0.2294477E-005  0.9718478E+03  0.7818608E-02  0.9698952E-01
         -4   -1    0    0    0  501 -0.00000000000E+00  0.00000000000E+00  0.11741343960E+04  0.11741343960E+04  0.00000000000E+00 0. -1.
         21   -1    0    0  501  502  0.00000000000E+00 -0.00000000000E+00 -0.40490302337E+03  0.40490302337E+03  0.00000000000E+00 0. -1.
   -9000010    2    1    2    0  502  0.27790895664E+03 -0.98551189740E+01  0.27177861017E+03  0.10091341174E+04  0.93121294151E+03 0.  0.
         13    1    3    3    0    0  0.53195029116E+03  0.24579782242E+03  0.27817537686E+03  0.64866727467E+03  0.10566000000E+00 0. -1.
         -4    1    3    3    0  502 -0.25404133452E+03 -0.25565294140E+03 -0.63967666832E+01  0.36046684274E+03  0.00000000000E+00 0. -1.
        -13    1    1    2    0    0 -0.27790895664E+03  0.98551189740E+01  0.49745276246E+03  0.56990330196E+03  0.10566000000E+00 0.  1.
<mgrwt>
<rscale>  1 0.71079202E+03</rscale>
<asrwt>0</asrwt>
<pdfrwt beam="2">  1       21 0.62292773E-01 0.97184775E+03</pdfrwt>
<pdfrwt beam="1">  1       -4 0.18063606E+00 0.97184775E+03</pdfrwt>
<totfact> 0.16540137E+01</totfact>
</mgrwt>
</event>
<event>
 6    2  0.2294477E-005  0.1302863E+04  0.7818608E-02  0.9142987E-01
         21   -1    0    0  501  502  0.00000000000E+00  0.00000000000E+00  0.11341984558E+04  0.11341984558E+04  0.00000000000E+00 0.  1.
         -4   -1    0    0    0  501 -0.00000000000E+00 -0.00000000000E+00 -0.12947821833E+04  0.12947821833E+04  0.00000000000E+00 0. -1.
   -9000010    2    1    2    0  502  0.13881908425E+03  0.82469876035E+03  0.46631614411E+03  0.13838001552E+04  0.99902619581E+03 0.  0.
         13    1    3    3    0    0  0.34693275247E+03  0.93868581843E+03  0.18832968669E+03  0.10183130572E+04  0.10566000000E+00 0. -1.
         -4    1    3    3    0  502 -0.20811366822E+03 -0.11398705807E+03  0.27798645743E+03  0.36548709802E+03  0.00000000000E+00 0. -1.
        -13    1    1    2    0    0 -0.13881908425E+03 -0.82469876035E+03 -0.62689987162E+03  0.10451804838E+04  0.10566000000E+00 0.  1.
<mgrwt>
<rscale>  1 0.11661776E+04</rscale>
<asrwt>0</asrwt>
<pdfrwt beam="1">  1       21 0.17449207E+00 0.13028630E+04</pdfrwt>
<pdfrwt beam="2">  1       -4 0.19919726E+00 0.13028630E+04</pdfrwt>
<totfact> 0.86721061E-01</totfact>
</mgrwt>
</event>
<event>
 6    2  0.2294477E-005  0.1067408E+04  0.7818608E-02  0.9524180E-01
         -4   -1    0    0    0  501 -0.00000000000E+00  0.00000000000E+00  0.58289366668E+03  0.58289366668E+03  0.00000000000E+00 0. -1.
         21   -1    0    0  501  502  0.00000000000E+00 -0.00000000000E+00 -0.90058281348E+03  0.90058281348E+03  0.00000000000E+00 0.  1.
   -9000010    2    1    2    0  502  0.37360654292E+03  0.76516274823E+02 -0.22094993123E+03  0.10900364260E+04  0.99695734547E+03 0.  0.
         13    1    3    3    0    0 -0.33316516276E+03  0.46798246367E+02 -0.17974493824E+03  0.38144115605E+03  0.10566000000E+00 0. -1.
         -4    1    3    3    0  502  0.70677170568E+03  0.29718028456E+02 -0.41204992990E+02  0.70859526996E+03  0.00000000000E+00 0. -1.
        -13    1    1    2    0    0 -0.37360654292E+03 -0.76516274823E+02 -0.96739215577E+02  0.39344005416E+03  0.10566000000E+00 0.  1.
<mgrwt>
<rscale>  1 0.82524368E+03</rscale>
<asrwt>0</asrwt>
<pdfrwt beam="2">  1       21 0.13855120E+00 0.10674083E+04</pdfrwt>
<pdfrwt beam="1">  1       -4 0.89675949E-01 0.10674083E+04</pdfrwt>
<totfact> 0.14078359E+01</totfact>
</mgrwt>
</event>
<event>
 6    2  0.2294477E-005  0.1004636E+04  0.7818608E-02  0.1009144E+00
         21   -1    0    0  501  502  0.00000000000E+00  0.00000000000E+00  0.11395890084E+04  0.11395890084E+04  0.00000000000E+00 0. -1.
         -4   -1    0    0    0  501 -0.00000000000E+00 -0.00000000000E+00 -0.43983364514E+03  0.43983364514E+03  0.00000000000E+00 0. -1.
   -9000010    2    1    2    0  502 -0.26083020545E+02 -0.66138070962E+02  0.91122131143E+03  0.13563253053E+04  0.10021175016E+04 0.  0.
         13    1    3    3    0    0  0.46359851310E+03 -0.18742684474E+03  0.44380092152E+03  0.66858931533E+03  0.10566000000E+00 0. -1.
         -4    1    3    3    0  502 -0.48968153364E+03  0.12128877378E+03  0.46742038992E+03  0.68773599000E+03  0.00000000000E+00 0. -1.
        -13    1    1    2    0    0  0.26083020545E+02  0.66138070962E+02 -0.21146594815E+03  0.22309734822E+03  0.10566000000E+00 0.  1.
<mgrwt>
<rscale>  1 0.51816404E+03</rscale>
<asrwt>0</asrwt>
<pdfrwt beam="1">  1       21 0.17532139E+00 0.10046363E+04</pdfrwt>
<pdfrwt beam="2">  1       -4 0.67666715E-01 0.10046363E+04</pdfrwt>
<totfact> 0.13851043E+01</totfact>
</mgrwt>
</event>
<event>
 6    2  0.2294477E-005  0.1014825E+04  0.7818608E-02  0.9920963E-01
         -4   -1    0    0    0  501 -0.00000000000E+00  0.00000000000E+00  0.38332015217E+03  0.38332015217E+03  0.00000000000E+00 0. -1.
         21   -1    0    0  501  502  0.00000000000E+00 -0.00000000000E+00 -0.20145913814E+04  0.20145913814E+04  0.00000000000E+00 0. -1.
   -9000010    2    1    2    0  502 -0.10566305908E+03  0.52452257716E+02 -0.18722555250E+04  0.21296031973E+04  0.10079449914E+04 0.  0.
         13    1    3    3    0    0 -0.20965983518E+02 -0.41797297652E+03 -0.13857955419E+04  0.14476084680E+04  0.10566000000E+00 0. -1.
         -4    1    3    3    0  502 -0.84697075558E+02  0.47042523423E+03 -0.48645998309E+03  0.68199472928E+03  0.00000000000E+00 0. -1.
        -13    1    1    2    0    0  0.10566305908E+03 -0.52452257716E+02  0.24098429571E+03  0.26830833632E+03  0.10566000000E+00 0.  1.
<mgrwt>
<rscale>  1 0.59255994E+03</rscale>
<asrwt>0</asrwt>
<pdfrwt beam="2">  1       21 0.30993713E+00 0.10148246E+04</pdfrwt>
<pdfrwt beam="1">  1       -4 0.58972332E-01 0.10148246E+04</pdfrwt>
<totfact> 0.24713198E+00</totfact>
</mgrwt>
</event>
<event>
 6    2  0.2294477E-005  0.1016051E+04  0.7818608E-02  0.9850476E-01
         21   -1    0    0  501  502  0.00000000000E+00  0.00000000000E+00  0.61562697333E+03  0.61562697333E+03  0.00000000000E+00 0. -1.
         -4   -1    0    0    0  501 -0.00000000000E+00 -0.00000000000E+00 -0.69088532858E+03  0.69088532858E+03  0.00000000000E+00 0. -1.
   -9000010    2    1    2    0  502  0.14053293689E+03  0.44973843314E+02  0.16023753453E+03  0.10286085808E+04  0.10052797581E+04 0.  0.
         13    1    3    3    0    0 -0.30766704424E+03  0.12750266036E+03  0.39442511781E+03  0.51622390804E+03  0.10566000000E+00 0. -1.
         -4    1    3    3    0  502  0.44819998113E+03 -0.82528817041E+02 -0.23418758328E+03  0.51238467277E+03  0.00000000000E+00 0. -1.
        -13    1    1    2    0    0 -0.14053293689E+03 -0.44973843314E+02 -0.23549588978E+03  0.27790372110E+03  0.10566000000E+00 0.  1.
<mgrwt>
<rscale>  1 0.62722638E+03</rscale>
<asrwt>0</asrwt>
<pdfrwt beam="1">  1       21 0.94711842E-01 0.10160510E+04</pdfrwt>
<pdfrwt beam="2">  1       -4 0.10629005E+00 0.10160510E+04</pdfrwt>
<totfact> 0.25017450E+01</totfact>
</mgrwt>
</event>
<event>
 6    2  0.2294477E-005  0.1062040E+04  0.7818608E-02  0.9516279E-01
         21   -1    0    0  501  502  0.00000000000E+00  0.00000000000E+00  0.10216511431E+04  0.10216511431E+04  0.00000000000E+00 0. -1.
         -4   -1    0    0    0  501 -0.00000000000E+00 -0.00000000000E+00 -0.65872878686E+03  0.65872878686E+03  0.00000000000E+00 0. -1.
   -9000010    2    1    2    0  502  0.39507427766E+03 -0.47997292840E+02  0.59733258731E+03  0.12184972689E+04  0.98465321281E+03 0.  0.
         13    1    3    3    0    0 -0.32859660412E+03 -0.74529746128E+02  0.21373819168E+03  0.39901683805E+03  0.10566000000E+00 0. -1.
         -4    1    3    3    0  502  0.72367088178E+03  0.26532453288E+02  0.38359439563E+03  0.81948043086E+03  0.00000000000E+00 0. -1.
        -13    1    1    2    0    0 -0.39507427766E+03  0.47997292840E+02 -0.23441023108E+03  0.46188266105E+03  0.10566000000E+00 0.  1.
<mgrwt>
<rscale>  1 0.83094218E+03</rscale>
<asrwt>0</asrwt>
<pdfrwt beam="1">  1       21 0.15717710E+00 0.10620402E+04</pdfrwt>
<pdfrwt beam="2">  1       -4 0.10134289E+00 0.10620402E+04</pdfrwt>
<totfact> 0.74108151E+00</totfact>
</mgrwt>
</event>
<event>
 6    2  0.2294477E-005  0.9933871E+03  0.7818608E-02  0.1047513E+00
         -4   -1    0    0    0  501 -0.00000000000E+00  0.00000000000E+00  0.17371780543E+04  0.17371780543E+04  0.00000000000E+00 0. -1.
         21   -1    0    0  501  502  0.00000000000E+00 -0.00000000000E+00 -0.14941608616E+03  0.14941608616E+03  0.00000000000E+00 0. -1.
   -9000010    2    1    2    0  502 -0.13289004990E+02  0.19326755198E+02  0.15294531541E+04  0.18237447166E+04  0.99311012463E+03 0.  0.
         13    1    3    3    0    0 -0.77546514728E+02 -0.44023231992E+03  0.11161723437E+04  0.12023554671E+04  0.10566000000E+00 0. -1.
         -4    1    3    3    0  502  0.64257509737E+02  0.45955907512E+03  0.41328081047E+03  0.62138924949E+03  0.00000000000E+00 0. -1.
        -13    1    1    2    0    0  0.13289004990E+02 -0.19326755198E+02  0.58308813964E+02  0.62849423784E+02  0.10566000000E+00 0.  1.
<mgrwt>
<rscale>  1 0.38940118E+03</rscale>
<asrwt>0</asrwt>
<pdfrwt beam="2">  1       21 0.22987091E-01 0.99338705E+03</pdfrwt>
<pdfrwt beam="1">  1       -4 0.26725815E+00 0.99338705E+03</pdfrwt>
<totfact> 0.36706850E+01</totfact>
</mgrwt>
</event>
<event>
 6    2  0.2294477E-005  0.1047980E+04  0.7818608E-02  0.9652467E-01
         21   -1    0    0  501  502  0.00000000000E+00  0.00000000000E+00  0.18900779453E+04  0.18900779453E+04  0.00000000000E+00 0. -1.
         -4   -1    0    0    0  501 -0.00000000000E+00 -0.00000000000E+00 -0.11692703154E+04  0.11692703154E+04  0.00000000000E+00 0. -1.
   -9000010    2    1    2    0  502 -0.20790659674E+03 -0.15511372918E+03  0.17270885351E+04  0.20201722923E+04  0.10153698146E+04 0.  0.
         13    1    3    3    0    0 -0.40351265708E+03 -0.68341211980E+02  0.17570612832E+04  0.18040946067E+04  0.10566000000E+00 0. -1.
         -4    1    3    3    0  502  0.19560606034E+03 -0.86772517203E+02 -0.29972748121E+02  0.21607768560E+03  0.00000000000E+00 0. -1.
        -13    1    1    2    0    0  0.20790659674E+03  0.15511372918E+03 -0.10062809052E+04  0.10391759684E+04  0.10566000000E+00 0.  1.
<mgrwt>
<rscale>  1 0.73918775E+03</rscale>
<asrwt>0</asrwt>
<pdfrwt beam="1">  1       21 0.29078122E+00 0.10479796E+04</pdfrwt>
<pdfrwt beam="2">  1       -4 0.17988774E+00 0.10479796E+04</pdfrwt>
<totfact> 0.20838161E-01</totfact>
</mgrwt>
</event>
<event>
 6    2  0.2294477E-005  0.1051729E+04  0.7818608E-02  0.9557482E-01
         21   -1    0    0  501  502  0.00000000000E+00  0.00000000000E+00  0.46159445017E+03  0.46159445017E+03  0.00000000000E+00 0. -1.
         -4   -1    0    0    0  501 -0.00000000000E+00 -0.00000000000E+00 -0.13130151904E+04  0.13130151904E+04  0.00000000000E+00 0. -1.
   -9000010    2    1    2    0  502  0.19800888141E+03 -0.29486858012E+03 -0.25783307541E+03  0.10828717396E+04  0.98993854000E+03 0.  0.
         13    1    3    3    0    0  0.73532241127E+02  0.34743235181E+03 -0.23954132508E+03  0.42836466609E+03  0.10566000000E+00 0. -1.
         -4    1    3    3    0  502  0.12447664028E+03 -0.64230093193E+03 -0.18291750330E+02  0.65450707350E+03  0.00000000000E+00 0. -1.
        -13    1    1    2    0    0 -0.19800888141E+03  0.29486858012E+03 -0.59358766482E+03  0.69173790098E+03  0.10566000000E+00 0.  1.
<mgrwt>
<rscale>  1 0.80175350E+03</rscale>
<asrwt>0</asrwt>
<pdfrwt beam="1">  1       21 0.71014531E-01 0.10517287E+04</pdfrwt>
<pdfrwt beam="2">  1       -4 0.20200234E+00 0.10517287E+04</pdfrwt>
<totfact> 0.87278636E+00</totfact>
</mgrwt>
</event>
<event>
 6    2  0.2294477E-005  0.9973743E+03  0.7818608E-02  0.9969556E-01
         -4   -1    0    0    0  501 -0.00000000000E+00  0.00000000000E+00  0.76471508257E+03  0.76471508257E+03  0.00000000000E+00 0. -1.
         21   -1    0    0  501  502  0.00000000000E+00 -0.00000000000E+00 -0.68496596214E+03  0.68496596214E+03  0.00000000000E+00 0. -1.
   -9000010    2    1    2    0  502 -0.10476314831E+03  0.18803644182E+02 -0.31096625076E+03  0.10447274588E+04  0.99167865754E+03 0.  0.
         13    1    3    3    0    0  0.34099080186E+03  0.31295928146E+03 -0.12833465987E+03  0.48029994263E+03  0.10566000000E+00 0. -1.
         -4    1    3    3    0  502 -0.44575395017E+03 -0.29415563728E+03 -0.18263159090E+03  0.56442751619E+03  0.00000000000E+00 0. -1.
        -13    1    1    2    0    0  0.10476314831E+03 -0.18803644182E+02  0.39071537119E+03  0.40495358590E+03  0.10566000000E+00 0.  1.
<mgrwt>
<rscale>  1 0.57005547E+03</rscale>
<asrwt>0</asrwt>
<pdfrwt beam="2">  1       21 0.10537938E+00 0.99737428E+03</pdfrwt>
<pdfrwt beam="1">  1       -4 0.11764848E+00 0.99737428E+03</pdfrwt>
<totfact> 0.14972937E+01</totfact>
</mgrwt>
</event>
<event>
 6    2  0.2294477E-005  0.9739199E+03  0.7818608E-02  0.1020123E+00
         21   -1    0    0  501  502  0.00000000000E+00  0.00000000000E+00  0.81338485965E+03  0.81338485965E+03  0.00000000000E+00 0. -1.
         -4   -1    0    0    0  501 -0.00000000000E+00 -0.00000000000E+00 -0.36249127491E+03  0.36249127491E+03  0.00000000000E+00 0. -1.
   -9000010    2    1    2    0  502 -0.55762221860E+02 -0.87840813667E+00  0.50595799588E+03  0.10975033234E+04  0.97232188824E+03 0.  0.
         13    1    3    3    0    0 -0.43804540513E+03  0.17385922987E+03  0.44612325521E+02  0.47339315534E+03  0.10566000000E+00 0. -1.
         -4    1    3    3    0  502  0.38228318327E+03 -0.17473763801E+03  0.46134567036E+03  0.62411016809E+03  0.00000000000E+00 0. -1.
        -13    1    1    2    0    0  0.55762221860E+02  0.87840813667E+00 -0.55064411135E+02  0.78372811136E+02  0.10566000000E+00 0.  1.
<mgrwt>
<rscale>  1 0.47642125E+03</rscale>
<asrwt>0</asrwt>
<pdfrwt beam="1">  1       21 0.12513613E+00 0.97391994E+03</pdfrwt>
<pdfrwt beam="2">  1       -4 0.55767889E-01 0.97391994E+03</pdfrwt>
<totfact> 0.54198785E+01</totfact>
</mgrwt>
</event>
<event>
 6    2  0.2294477E-005  0.1108179E+04  0.7818608E-02  0.9459526E-01
         21   -1    0    0  501  502  0.00000000000E+00  0.00000000000E+00  0.26775828902E+03  0.26775828902E+03  0.00000000000E+00 0. -1.
         -4   -1    0    0    0  501 -0.00000000000E+00 -0.00000000000E+00 -0.22420016145E+04  0.22420016145E+04  0.00000000000E+00 0. -1.
   -9000010    2    1    2    0  502 -0.34855987423E+02  0.42605875133E+03 -0.12659748469E+04  0.16824841041E+04  0.10224086502E+04 0.  0.
         13    1    3    3    0    0  0.15797799923E+03  0.58146657108E+03 -0.27735430186E+03  0.66331428558E+03  0.10566000000E+00 0. -1.
         -4    1    3    3    0  502 -0.19283398665E+03 -0.15540781975E+03 -0.98862054503E+03  0.10191698185E+04  0.00000000000E+00 0. -1.
        -13    1    1    2    0    0  0.34855987423E+02 -0.42605875133E+03 -0.70826847854E+03  0.82727579942E+03  0.10566000000E+00 0.  1.
<mgrwt>
<rscale>  1 0.87334715E+03</rscale>
<asrwt>0</asrwt>
<pdfrwt beam="1">  1       21 0.41193583E-01 0.11081789E+04</pdfrwt>
<pdfrwt beam="2">  1       -4 0.34492332E+00 0.11081789E+04</pdfrwt>
<totfact> 0.36281269E+00</totfact>
</mgrwt>
</event>
<event>
 6    2  0.2294477E-005  0.1001830E+04  0.7818608E-02  0.9668772E-01
         21   -1    0    0  501  502  0.00000000000E+00  0.00000000000E+00  0.65737051066E+03  0.65737051066E+03  0.00000000000E+00 0. -1.
         -4   -1    0    0    0  501 -0.00000000000E+00 -0.00000000000E+00 -0.76016810487E+03  0.76016810487E+03  0.00000000000E+00 0. -1.
   -9000010    2    1    2    0  502 -0.27050648736E+03 -0.76042284215E+02  0.18113277408E+03  0.10180731553E+04  0.96161722065E+03 0.  0.
         13    1    3    3    0    0  0.95665494133E+02 -0.14744434921E+03 -0.33672024529E+03  0.37983188075E+03  0.10566000000E+00 0. -1.
         -4    1    3    3    0  502 -0.36617198149E+03  0.71402064994E+02  0.51785301936E+03  0.63824127458E+03  0.00000000000E+00 0. -1.
        -13    1    1    2    0    0  0.27050648736E+03  0.76042284215E+02 -0.28393036829E+03  0.39946546020E+03  0.10566000000E+00 0.  1.
<mgrwt>
<rscale>  1 0.72906943E+03</rscale>
<asrwt>0</asrwt>
<pdfrwt beam="1">  1       21 0.10113393E+00 0.10018303E+04</pdfrwt>
<pdfrwt beam="2">  1       -4 0.11694894E+00 0.10018303E+04</pdfrwt>
<totfact> 0.16836720E+01</totfact>
</mgrwt>
</event>
<event>
 6    2  0.2294477E-005  0.1590454E+04  0.7818608E-02  0.8949928E-01
         -4   -1    0    0    0  501 -0.00000000000E+00  0.00000000000E+00  0.41789643933E+03  0.41789643933E+03  0.00000000000E+00 0. -1.
         21   -1    0    0  501  502  0.00000000000E+00 -0.00000000000E+00 -0.41317089768E+04  0.41317089768E+04  0.00000000000E+00 0.  1.
   -9000010    2    1    2    0  502 -0.86832136939E+03 -0.43158576915E+03 -0.27834431265E+04  0.32057916162E+04  0.12606728251E+04 0.  0.
         13    1    3    3    0    0 -0.18902374388E+03  0.69035642170E+02 -0.21274944821E+04  0.21369905657E+04  0.10566000000E+00 0. -1.
         -4    1    3    3    0  502 -0.67929762551E+03 -0.50062141132E+03 -0.65594864440E+03  0.10688010505E+04  0.00000000000E+00 0. -1.
        -13    1    1    2    0    0  0.86832136939E+03  0.43158576915E+03 -0.93036941101E+03  0.13438137999E+04  0.10566000000E+00 0.  1.
<mgrwt>
<rscale>  1 0.14053878E+04</rscale>
<asrwt>0</asrwt>
<pdfrwt beam="2">  1       21 0.63564751E+00 0.15904541E+04</pdfrwt>
<pdfrwt beam="1">  1       -4 0.64291762E-01 0.15904541E+04</pdfrwt>
<totfact> 0.91153998E-03</totfact>
</mgrwt>
</event>
<event>
 6    2  0.2294477E-005  0.1175085E+04  0.7818608E-02  0.9316859E-01
         -4   -1    0    0    0  501 -0.00000000000E+00  0.00000000000E+00  0.38282770666E+03  0.38282770666E+03  0.00000000000E+00 0. -1.
         21   -1    0    0  501  502  0.00000000000E+00 -0.00000000000E+00 -0.20534707749E+04  0.20534707749E+04  0.00000000000E+00 0. -1.
   -9000010    2    1    2    0  502 -0.56004550823E+03  0.20939378975E+03 -0.10867237827E+04  0.16005602009E+04  0.10115965829E+04 0.  0.
         13    1    3    3    0    0 -0.58320937954E+03  0.54342501306E+03 -0.94673965188E+03  0.12376428826E+04  0.10566000000E+00 0. -1.
         -4    1    3    3    0  502  0.23163871303E+02 -0.33403122331E+03 -0.13998413078E+03  0.36291731834E+03  0.00000000000E+00 0. -1.
        -13    1    1    2    0    0  0.56004550823E+03 -0.20939378975E+03 -0.58391928557E+03  0.83573828062E+03  0.10566000000E+00 0.  1.
<mgrwt>
<rscale>  1 0.99245536E+03</rscale>
<asrwt>0</asrwt>
<pdfrwt beam="2">  1       21 0.31591858E+00 0.11750848E+04</pdfrwt>
<pdfrwt beam="1">  1       -4 0.58896570E-01 0.11750848E+04</pdfrwt>
<totfact> 0.22108320E+00</totfact>
</mgrwt>
</event>
<event>
 6    2  0.2294477E-005  0.1016022E+04  0.7818608E-02  0.9709953E-01
         21   -1    0    0  501  502  0.00000000000E+00  0.00000000000E+00  0.79204083321E+03  0.79204083321E+03  0.00000000000E+00 0. -1.
         -4   -1    0    0    0  501 -0.00000000000E+00 -0.00000000000E+00 -0.55991329399E+03  0.55991329399E+03  0.00000000000E+00 0. -1.
   -9000010    2    1    2    0  502 -0.10402398318E+03  0.21023168960E+03  0.36831957720E+03  0.10807224278E+04  0.98857640201E+03 0.  0.
         13    1    3    3    0    0  0.26290011893E+03  0.14273306898E+03 -0.22881293028E+03  0.37662258262E+03  0.10566000000E+00 0. -1.
         -4    1    3    3    0  502 -0.36692410211E+03  0.67498620623E+02  0.59713250748E+03  0.70409984518E+03  0.00000000000E+00 0. -1.
        -13    1    1    2    0    0  0.10402398318E+03 -0.21023168960E+03 -0.13619203798E+03  0.27123169940E+03  0.10566000000E+00 0.  1.
<mgrwt>
<rscale>  1 0.70427284E+03</rscale>
<asrwt>0</asrwt>
<pdfrwt beam="1">  1       21 0.12185244E+00 0.10160225E+04</pdfrwt>
<pdfrwt beam="2">  1       -4 0.86140507E-01 0.10160225E+04</pdfrwt>
<totfact> 0.21884743E+01</totfact>
</mgrwt>
</event>
<event>
 6    2  0.2294477E-005  0.1033954E+04  0.7818608E-02  0.9737408E-01
         -4   -1    0    0    0  501 -0.00000000000E+00  0.00000000000E+00  0.97982128907E+03  0.97982128907E+03  0.00000000000E+00 0. -1.
         21   -1    0    0  501  502  0.00000000000E+00 -0.00000000000E+00 -0.41662775909E+03  0.41662775909E+03  0.00000000000E+00 0. -1.
   -9000010    2    1    2    0  502  0.18995708149E+03 -0.71823842743E+02  0.32585887832E+03  0.10840869102E+04  0.10138136234E+04 0.  0.
         13    1    3    3    0    0  0.20191398347E+03 -0.51345116267E+03  0.32883456200E+03  0.64228773420E+03  0.10566000000E+00 0. -1.
         -4    1    3    3    0  502 -0.11956901981E+02  0.44162731993E+03 -0.29756836827E+01  0.44179917599E+03  0.00000000000E+00 0. -1.
        -13    1    1    2    0    0 -0.18995708149E+03  0.71823842743E+02  0.23733465166E+03  0.31236213798E+03  0.10566000000E+00 0.  1.
<mgrwt>
<rscale>  1 0.68832540E+03</rscale>
<asrwt>0</asrwt>
<pdfrwt beam="2">  1       21 0.64096579E-01 0.10339538E+04</pdfrwt>
<pdfrwt beam="1">  1       -4 0.15074174E+00 0.10339538E+04</pdfrwt>
<totfact> 0.25528885E+01</totfact>
</mgrwt>
</event>
<event>
 6    2  0.2294477E-005  0.1039982E+04  0.7818608E-02  0.9660976E-01
         -4   -1    0    0    0  501 -0.00000000000E+00  0.00000000000E+00  0.11160879391E+04  0.11160879391E+04  0.00000000000E+00 0. -1.
         21   -1    0    0  501  502  0.00000000000E+00 -0.00000000000E+00 -0.37786564475E+03  0.37786564475E+03  0.00000000000E+00 0. -1.
   -9000010    2    1    2    0  502 -0.23254052041E+03  0.11150110529E+03  0.56847755715E+03  0.11852127911E+04  0.10074993981E+04 0.  0.
         13    1    3    3    0    0 -0.61719932866E+03  0.12422482694E+03  0.47632928707E+03  0.78946590795E+03  0.10566000000E+00 0. -1.
         -4    1    3    3    0  502  0.38465880825E+03 -0.12723721648E+02  0.92148270081E+02  0.39574688317E+03  0.00000000000E+00 0. -1.
        -13    1    1    2    0    0  0.23254052041E+03 -0.11150110529E+03  0.16974473715E+03  0.30874079269E+03  0.10566000000E+00 0.  1.
<mgrwt>
<rscale>  1 0.73388547E+03</rscale>
<asrwt>0</asrwt>
<pdfrwt beam="2">  1       21 0.58133176E-01 0.10399820E+04</pdfrwt>
<pdfrwt beam="1">  1       -4 0.17170584E+00 0.10399820E+04</pdfrwt>
<totfact> 0.22160812E+01</totfact>
</mgrwt>
</event>
<event>
 6    2  0.2294477E-005  0.1006687E+04  0.7818608E-02  0.1001451E+00
         -4   -1    0    0    0  501 -0.00000000000E+00  0.00000000000E+00  0.99482813831E+03  0.99482813831E+03  0.00000000000E+00 0. -1.
         21   -1    0    0  501  502  0.00000000000E+00 -0.00000000000E+00 -0.36945126686E+03  0.36945126686E+03  0.00000000000E+00 0. -1.
   -9000010    2    1    2    0  502  0.83430819236E+02 -0.33257147655E+02  0.33599261589E+03  0.10612777583E+04  0.10026727796E+04 0.  0.
         13    1    3    3    0    0 -0.37283699057E+03 -0.26445518670E+03  0.30362301597E+03  0.54875396518E+03  0.10566000000E+00 0. -1.
         -4    1    3    3    0  502  0.45626780981E+03  0.23119803904E+03  0.32369599919E+02  0.51252379313E+03  0.00000000000E+00 0. -1.
        -13    1    1    2    0    0 -0.83430819236E+02  0.33257147655E+02  0.28938425556E+03  0.30300164686E+03  0.10566000000E+00 0.  1.
<mgrwt>
<rscale>  1 0.55018442E+03</rscale>
<asrwt>0</asrwt>
<pdfrwt beam="2">  1       21 0.56838657E-01 0.10066874E+04</pdfrwt>
<pdfrwt beam="1">  1       -4 0.15305048E+00 0.10066874E+04</pdfrwt>
<totfact> 0.32122953E+01</totfact>
</mgrwt>
</event>
<event>
 6    2  0.2294477E-005  0.1018164E+04  0.7818608E-02  0.9685691E-01
         21   -1    0    0  501  502  0.00000000000E+00  0.00000000000E+00  0.76651752303E+03  0.76651752303E+03  0.00000000000E+00 0. -1.
         -4   -1    0    0    0  501 -0.00000000000E+00 -0.00000000000E+00 -0.61751665738E+03  0.61751665738E+03  0.00000000000E+00 0. -1.
   -9000010    2    1    2    0  502  0.25124246042E+03 -0.28469146309E+02  0.33309585999E+03  0.10712655050E+04  0.98626754183E+03 0.  0.
         13    1    3    3    0    0  0.49233132544E+03  0.28042773775E+03  0.15384531368E+02  0.56680379769E+03  0.10566000000E+00 0. -1.
         -4    1    3    3    0  502 -0.24108886502E+03 -0.30889688406E+03  0.31771132863E+03  0.50446170732E+03  0.00000000000E+00 0. -1.
        -13    1    1    2    0    0 -0.25124246042E+03  0.28469146309E+02 -0.18409499434E+03  0.31276867540E+03  0.10566000000E+00 0.  1.
<mgrwt>
<rscale>  1 0.71875192E+03</rscale>
<asrwt>0</asrwt>
<pdfrwt beam="1">  1       21 0.11792577E+00 0.10181635E+04</pdfrwt>
<pdfrwt beam="2">  1       -4 0.95002563E-01 0.10181635E+04</pdfrwt>
<totfact> 0.18917525E+01</totfact>
</mgrwt>
</event>
<event>
 6    2  0.2294477E-005  0.1033710E+04  0.7818608E-02  0.9611055E-01
         -4   -1    0    0    0  501 -0.00000000000E+00  0.00000000000E+00  0.29346131550E+03  0.29346131550E+03  0.00000000000E+00 0. -1.
         21   -1    0    0  501  502  0.00000000000E+00 -0.00000000000E+00 -0.18257625707E+04  0.18257625707E+04  0.00000000000E+00 0. -1.
   -9000010    2    1    2    0  502  0.13912300339E+03 -0.27834752021E+03 -0.14775728993E+04  0.18032685789E+04  0.98576028674E+03 0.  0.
         13    1    3    3    0    0  0.33414226831E+03 -0.58278418622E+03 -0.98391454577E+03  0.11913758046E+04  0.10566000000E+00 0. -1.
         -4    1    3    3    0  502 -0.19501926492E+03  0.30443666601E+03 -0.49365835356E+03  0.61189277438E+03  0.00000000000E+00 0. -1.
        -13    1    1    2    0    0 -0.13912300339E+03  0.27834752021E+03 -0.54728355866E+02  0.31595530725E+03  0.10566000000E+00 0.  1.
<mgrwt>
<rscale>  1 0.76568766E+03</rscale>
<asrwt>0</asrwt>
<pdfrwt beam="2">  1       21 0.28088654E+00 0.10337098E+04</pdfrwt>
<pdfrwt beam="1">  1       -4 0.45147896E-01 0.10337098E+04</pdfrwt>
<totfact> 0.65868583E+00</totfact>
</mgrwt>
</event>
<event>
 6    2  0.2294477E-005  0.1296701E+04  0.7818608E-02  0.9153191E-01
         -4   -1    0    0    0  501 -0.00000000000E+00  0.00000000000E+00  0.22929965300E+04  0.22929965300E+04  0.00000000000E+00 0. -1.
         21   -1    0    0  501  502  0.00000000000E+00 -0.00000000000E+00 -0.49570731855E+03  0.49570731855E+03  0.00000000000E+00 0.  1.
   -9000010    2    1    2    0  502 -0.59445744393E+03  0.55928368598E+03  0.91655952381E+03  0.15879279794E+04  0.10075991331E+04 0.  0.
         13    1    3    3    0    0 -0.31359902867E+03  0.40434227605E+03 -0.10050871797E+03  0.52147774692E+03  0.10566000000E+00 0. -1.
         -4    1    3    3    0  502 -0.28085841526E+03  0.15494140994E+03  0.10170682418E+04  0.10664502325E+04  0.00000000000E+00 0. -1.
        -13    1    1    2    0    0  0.59445744393E+03 -0.55928368598E+03  0.88072968760E+03  0.12007758691E+04  0.10566000000E+00 0.  1.
<mgrwt>
<rscale>  1 0.11549913E+04</rscale>
<asrwt>0</asrwt>
<pdfrwt beam="2">  1       21 0.76262665E-01 0.12967012E+04</pdfrwt>
<pdfrwt beam="1">  1       -4 0.35276869E+00 0.12967012E+04</pdfrwt>
<totfact> 0.80333583E-01</totfact>
</mgrwt>
</event>
<event>
 6    2  0.2294477E-005  0.1010057E+04  0.7818608E-02  0.9720159E-01
         -4   -1    0    0    0  501 -0.00000000000E+00  0.00000000000E+00  0.21569583025E+04  0.21569583025E+04  0.00000000000E+00 0. -1.
         21   -1    0    0  501  502  0.00000000000E+00 -0.00000000000E+00 -0.23148285781E+03  0.23148285781E+03  0.00000000000E+00 0. -1.
   -9000010    2    1    2    0  502  0.18282154153E+03  0.14076063643E+03  0.95198580468E+03  0.13879815843E+04  0.98335071735E+03 0.  0.
         13    1    3    3    0    0 -0.35521945415E+03  0.18779742648E+03  0.66347319538E+03  0.77565806007E+03  0.10566000000E+00 0. -1.
         -4    1    3    3    0  502  0.53804099567E+03 -0.47036790053E+02  0.28851260930E+03  0.61232352426E+03  0.00000000000E+00 0. -1.
        -13    1    1    2    0    0 -0.18282154153E+03 -0.14076063643E+03  0.97348964005E+03  0.10004595760E+04  0.10566000000E+00 0.  1.
<mgrwt>
<rscale>  1 0.69829112E+03</rscale>
<asrwt>0</asrwt>
<pdfrwt beam="2">  1       21 0.35612749E-01 0.10100574E+04</pdfrwt>
<pdfrwt beam="1">  1       -4 0.33183972E+00 0.10100574E+04</pdfrwt>
<totfact> 0.60394054E+00</totfact>
</mgrwt>
</event>
<event>
 6    2  0.2294477E-005  0.1241087E+04  0.7818608E-02  0.9205422E-01
         21   -1    0    0  501  502  0.00000000000E+00  0.00000000000E+00  0.12258305886E+04  0.12258305886E+04  0.00000000000E+00 0.  1.
         -4   -1    0    0    0  501 -0.00000000000E+00 -0.00000000000E+00 -0.10010092317E+04  0.10010092317E+04  0.00000000000E+00 0. -1.
   -9000010    2    1    2    0  502 -0.22873161927E+03 -0.73024264308E+03  0.59550045015E+03  0.13765601765E+04  0.97710012898E+03 0.  0.
         13    1    3    3    0    0  0.25896647660E+02  0.18782931695E+03  0.34141651060E+03  0.39053262801E+03  0.10566000000E+00 0. -1.
         -4    1    3    3    0  502 -0.25462826693E+03 -0.91807196003E+03  0.25408393955E+03  0.98602754852E+03  0.00000000000E+00 0. -1.
        -13    1    1    2    0    0  0.22873161927E+03  0.73024264308E+03 -0.37067909323E+03  0.85027964385E+03  0.10566000000E+00 0.  1.
<mgrwt>
<rscale>  1 0.10997634E+04</rscale>
<asrwt>0</asrwt>
<pdfrwt beam="1">  1       21 0.18858932E+00 0.12410871E+04</pdfrwt>
<pdfrwt beam="2">  1       -4 0.15400142E+00 0.12410871E+04</pdfrwt>
<totfact> 0.14484097E+00</totfact>
</mgrwt>
</event>
<event>
 6    2  0.2294477E-005  0.1126697E+04  0.7818608E-02  0.9393862E-01
         21   -1    0    0  501  502  0.00000000000E+00  0.00000000000E+00  0.12152842530E+04  0.12152842530E+04  0.00000000000E+00 0.  1.
         -4   -1    0    0    0  501 -0.00000000000E+00 -0.00000000000E+00 -0.64559496878E+03  0.64559496878E+03  0.00000000000E+00 0. -1.
   -9000010    2    1    2    0  502  0.51329311829E+03  0.19988795087E+02  0.70574798329E+03  0.13294835519E+04  0.10027845838E+04 0.  0.
         13    1    3    3    0    0  0.40278080517E+03 -0.28141616715E+03  0.84664783563E+03  0.97889734134E+03  0.10566000000E+00 0. -1.
         -4    1    3    3    0  502  0.11051231312E+03  0.30140496224E+03 -0.14089985234E+03  0.35058621052E+03  0.00000000000E+00 0. -1.
        -13    1    1    2    0    0 -0.51329311829E+03 -0.19988795087E+02 -0.13605869910E+03  0.53139566989E+03  0.10566000000E+00 0.  1.
<mgrwt>
<rscale>  1 0.92582521E+03</rscale>
<asrwt>0</asrwt>
<pdfrwt beam="1">  1       21 0.18696681E+00 0.11266971E+04</pdfrwt>
<pdfrwt beam="2">  1       -4 0.99322303E-01 0.11266971E+04</pdfrwt>
<totfact> 0.46239928E+00</totfact>
</mgrwt>
</event>
<event>
 6    2  0.2294477E-005  0.8018552E+03  0.7818608E-02  0.9987269E-01
         21   -1    0    0  501  502  0.00000000000E+00  0.00000000000E+00  0.10030260145E+04  0.10030260145E+04  0.00000000000E+00 0. -1.
         -4   -1    0    0    0  501 -0.00000000000E+00 -0.00000000000E+00 -0.35238977435E+03  0.35238977435E+03  0.00000000000E+00 0. -1.
   -9000010    2    1    2    0  502  0.16635153351E+03 -0.99143780166E+02  0.78308382153E+03  0.11207997305E+04  0.77811916985E+03 0.  0.
         13    1    3    3    0    0  0.46514616700E+03  0.49794226979E+02  0.46908358798E+03  0.66248007169E+03  0.10566000000E+00 0. -1.
         -4    1    3    3    0  502 -0.29879463349E+03 -0.14893800714E+03  0.31400023354E+03  0.45831965880E+03  0.00000000000E+00 0. -1.
        -13    1    1    2    0    0 -0.16635153351E+03  0.99143780166E+02 -0.13244758141E+03  0.23461605834E+03  0.10566000000E+00 0.  1.
<mgrwt>
<rscale>  1 0.56212027E+03</rscale>
<asrwt>0</asrwt>
<pdfrwt beam="1">  1       21 0.15431169E+00 0.80185520E+03</pdfrwt>
<pdfrwt beam="2">  1       -4 0.54213812E-01 0.80185520E+03</pdfrwt>
<totfact> 0.33259216E+01</totfact>
</mgrwt>
</event>
<event>
 6    2  0.2294477E-005  0.1013645E+04  0.7818608E-02  0.9866032E-01
         21   -1    0    0  501  502  0.00000000000E+00  0.00000000000E+00  0.43164113566E+03  0.43164113566E+03  0.00000000000E+00 0. -1.
         -4   -1    0    0    0  501 -0.00000000000E+00 -0.00000000000E+00 -0.93469631515E+03  0.93469631515E+03  0.00000000000E+00 0. -1.
   -9000010    2    1    2    0  502 -0.14055489156E+03 -0.14416874160E+02 -0.20172092654E+03  0.10335223866E+04  0.10037498033E+04 0.  0.
         13    1    3    3    0    0 -0.41301389747E+03 -0.36489995632E+03 -0.20931365943E+03  0.58952919929E+03  0.10566000000E+00 0. -1.
         -4    1    3    3    0  502  0.27245900590E+03  0.35048308217E+03  0.75927328936E+01  0.44399318731E+03  0.00000000000E+00 0. -1.
        -13    1    1    2    0    0  0.14055489156E+03  0.14416874160E+02 -0.30133425295E+03  0.33281506421E+03  0.10566000000E+00 0.  1.
<mgrwt>
<rscale>  1 0.61936157E+03</rscale>
<asrwt>0</asrwt>
<pdfrwt beam="1">  1       21 0.66406329E-01 0.10136455E+04</pdfrwt>
<pdfrwt beam="2">  1       -4 0.14379943E+00 0.10136455E+04</pdfrwt>
<totfact> 0.26775170E+01</totfact>
</mgrwt>
</event>
<event>
 6    2  0.2294477E-005  0.1040455E+04  0.7818608E-02  0.9671982E-01
         -4   -1    0    0    0  501 -0.00000000000E+00  0.00000000000E+00  0.54371955915E+03  0.54371955915E+03  0.00000000000E+00 0. -1.
         21   -1    0    0  501  502  0.00000000000E+00 -0.00000000000E+00 -0.10567287093E+04  0.10567287093E+04  0.00000000000E+00 0. -1.
   -9000010    2    1    2    0  502 -0.10929765865E+03  0.22277460878E+03 -0.72984630334E+03  0.12709139505E+04  0.10104316596E+04 0.  0.
         13    1    3    3    0    0 -0.20553686526E+03  0.16833535561E+03 -0.97042939950E+03  0.10061388699E+04  0.10566000000E+00 0. -1.
         -4    1    3    3    0  502  0.96239206609E+02  0.54439253169E+02  0.24058309616E+03  0.26477508065E+03  0.00000000000E+00 0. -1.
        -13    1    1    2    0    0  0.10929765865E+03 -0.22277460878E+03  0.21683715320E+03  0.32953431790E+03  0.10566000000E+00 0.  1.
<mgrwt>
<rscale>  1 0.72709743E+03</rscale>
<asrwt>0</asrwt>
<pdfrwt beam="2">  1       21 0.16257365E+00 0.10404550E+04</pdfrwt>
<pdfrwt beam="1">  1       -4 0.83649164E-01 0.10404550E+04</pdfrwt>
<totfact> 0.10623127E+01</totfact>
</mgrwt>
</event>
<event>
 6    2  0.2294477E-005  0.1045196E+04  0.7818608E-02  0.9553234E-01
         -4   -1    0    0    0  501 -0.00000000000E+00  0.00000000000E+00  0.98588479353E+03  0.98588479353E+03  0.00000000000E+00 0. -1.
         21   -1    0    0  501  502  0.00000000000E+00 -0.00000000000E+00 -0.50633807272E+03  0.50633807272E+03  0.00000000000E+00 0. -1.
   -9000010    2    1    2    0  502 -0.33796305352E+03  0.14368892613E+03  0.37434712599E+03  0.11102117421E+04  0.97855444847E+03 0.  0.
         13    1    3    3    0    0 -0.17923667693E+03 -0.24245296593E+03  0.57328974005E+03  0.64774251385E+03  0.10566000000E+00 0. -1.
         -4    1    3    3    0  502 -0.15872637658E+03  0.38614189206E+03 -0.19894261406E+03  0.46246922828E+03  0.00000000000E+00 0. -1.
        -13    1    1    2    0    0  0.33796305352E+03 -0.14368892613E+03  0.10519959482E+03  0.38201112412E+03  0.10566000000E+00 0.  1.
<mgrwt>
<rscale>  1 0.80470358E+03</rscale>
<asrwt>0</asrwt>
<pdfrwt beam="2">  1       21 0.77898165E-01 0.10451958E+04</pdfrwt>
<pdfrwt beam="1">  1       -4 0.15167458E+00 0.10451958E+04</pdfrwt>
<totfact> 0.16022540E+01</totfact>
</mgrwt>
</event>
<event>
 6    2  0.2294477E-005  0.1035626E+04  0.7818608E-02  0.9624958E-01
         21   -1    0    0  501  502  0.00000000000E+00  0.00000000000E+00  0.11123374130E+04  0.11123374130E+04  0.00000000000E+00 0. -1.
         -4   -1    0    0    0  501 -0.00000000000E+00 -0.00000000000E+00 -0.41266302971E+03  0.41266302971E+03  0.00000000000E+00 0. -1.
   -9000010    2    1    2    0  502 -0.26353992838E+03  0.13282097982E+03  0.65792896488E+03  0.12269444117E+04  0.99268693956E+03 0.  0.
         13    1    3    3    0    0 -0.44885791802E+03 -0.25260702789E+03  0.60728559712E+03  0.79629112060E+03  0.10566000000E+00 0. -1.
         -4    1    3    3    0  502  0.18531798964E+03  0.38542800771E+03  0.50643367755E+02  0.43065329107E+03  0.00000000000E+00 0. -1.
        -13    1    1    2    0    0  0.26353992838E+03 -0.13282097982E+03  0.41745418428E+02  0.29805603107E+03  0.10566000000E+00 0.  1.
<mgrwt>
<rscale>  1 0.75666094E+03</rscale>
<asrwt>0</asrwt>
<pdfrwt beam="1">  1       21 0.17112883E+00 0.10356264E+04</pdfrwt>
<pdfrwt beam="2">  1       -4 0.63486620E-01 0.10356264E+04</pdfrwt>
<totfact> 0.17070236E+01</totfact>
</mgrwt>
</event>
<event>
 6    2  0.2294477E-005  0.1123517E+04  0.7818608E-02  0.9729249E-01
         -4   -1    0    0    0  501 -0.00000000000E+00  0.00000000000E+00  0.11447446659E+04  0.11447446659E+04  0.00000000000E+00 0. -1.
         21   -1    0    0  501  502  0.00000000000E+00 -0.00000000000E+00 -0.38507723956E+03  0.38507723956E+03  0.00000000000E+00 0. -1.
   -9000010    2    1    2    0  502  0.15009383811E+03 -0.62648748862E+02  0.51475800753E+03  0.12358258841E+04  0.11116819615E+04 0.  0.
         13    1    3    3    0    0  0.54530375558E+03  0.34174534859E+02 -0.40006811199E+02  0.54783632664E+03  0.10566000000E+00 0. -1.
         -4    1    3    3    0  502 -0.39520991747E+03 -0.96823283721E+02  0.55476481873E+03  0.68798955750E+03  0.00000000000E+00 0. -1.
        -13    1    1    2    0    0 -0.15009383811E+03  0.62648748862E+02  0.24490941885E+03  0.29399602137E+03  0.10566000000E+00 0.  1.
<mgrwt>
<rscale>  1 0.69301733E+03</rscale>
<asrwt>0</asrwt>
<pdfrwt beam="2">  1       21 0.59242653E-01 0.11235167E+04</pdfrwt>
<pdfrwt beam="1">  1       -4 0.17611456E+00 0.11235167E+04</pdfrwt>
<totfact> 0.19615821E+01</totfact>
</mgrwt>
</event>
<event>
 6    2  0.2294477E-005  0.9986930E+03  0.7818608E-02  0.1009798E+00
         -4   -1    0    0    0  501 -0.00000000000E+00  0.00000000000E+00  0.13315540524E+04  0.13315540524E+04  0.00000000000E+00 0. -1.
         21   -1    0    0  501  502  0.00000000000E+00 -0.00000000000E+00 -0.22075338299E+03  0.22075338299E+03  0.00000000000E+00 0. -1.
   -9000010    2    1    2    0  502 -0.21696680817E+02 -0.67523585402E+02  0.10901243419E+04  0.14784311724E+04  0.99617140609E+03 0.  0.
         13    1    3    3    0    0 -0.13730682796E+03  0.36662623162E+03  0.12024449292E+03  0.40954451279E+03  0.10566000000E+00 0. -1.
         -4    1    3    3    0  502  0.11561014714E+03 -0.43414981702E+03  0.96987984894E+03  0.10688866596E+04  0.00000000000E+00 0. -1.
        -13    1    1    2    0    0  0.21696680817E+02  0.67523585402E+02  0.20676327528E+02  0.73876262955E+02  0.10566000000E+00 0.  1.
<mgrwt>
<rscale>  1 0.51555157E+03</rscale>
<asrwt>0</asrwt>
<pdfrwt beam="2">  1       21 0.33962060E-01 0.99869297E+03</pdfrwt>
<pdfrwt beam="1">  1       -4 0.20485447E+00 0.99869297E+03</pdfrwt>
<totfact> 0.41446464E+01</totfact>
</mgrwt>
</event>
<event>
 6    2  0.2294477E-005  0.1168731E+04  0.7818608E-02  0.9323396E-01
         -4   -1    0    0    0  501 -0.00000000000E+00  0.00000000000E+00  0.69139443298E+03  0.69139443298E+03  0.00000000000E+00 0. -1.
         21   -1    0    0  501  502  0.00000000000E+00 -0.00000000000E+00 -0.11265422524E+04  0.11265422524E+04  0.00000000000E+00 0. -1.
   -9000010    2    1    2    0  502 -0.57307883868E+03 -0.15409200704E+03 -0.33781482135E+03  0.12165737120E+04  0.10068609841E+04 0.  0.
         13    1    3    3    0    0  0.28111508694E+02  0.22773377872E+03  0.21542931923E+03  0.31474232895E+03  0.10566000000E+00 0. -1.
         -4    1    3    3    0  502 -0.60119034738E+03 -0.38182578576E+03 -0.55324414057E+03  0.90183138309E+03  0.00000000000E+00 0. -1.
        -13    1    1    2    0    0  0.57307883868E+03  0.15409200704E+03 -0.97332998037E+02  0.60136297330E+03  0.10566000000E+00 0.  1.
<mgrwt>
<rscale>  1 0.98657264E+03</rscale>
<asrwt>0</asrwt>
<pdfrwt beam="2">  1       21 0.17331419E+00 0.11687313E+04</pdfrwt>
<pdfrwt beam="1">  1       -4 0.10636837E+00 0.11687313E+04</pdfrwt>
<totfact> 0.48951131E+00</totfact>
</mgrwt>
</event>
<event>
 6    2  0.2294477E-005  0.1098211E+04  0.7818608E-02  0.9446423E-01
         -4   -1    0    0    0  501 -0.00000000000E+00  0.00000000000E+00  0.16097008141E+04  0.16097008141E+04  0.00000000000E+00 0. -1.
         21   -1    0    0  501  502  0.00000000000E+00 -0.00000000000E+00 -0.38549739447E+03  0.38549739447E+03  0.00000000000E+00 0.  1.
   -9000010    2    1    2    0  502  0.43837346972E+03 -0.13954577745E+03  0.72283352936E+03  0.13147453439E+04  0.99720744345E+03 0.  0.
         13    1    3    3    0    0  0.63004346630E+03  0.16090954491E+03  0.19687513641E+03  0.67941628003E+03  0.10566000000E+00 0. -1.
         -4    1    3    3    0  502 -0.19166999658E+03 -0.30045532236E+03  0.52595839295E+03  0.63532906390E+03  0.00000000000E+00 0. -1.
        -13    1    1    2    0    0 -0.43837346972E+03  0.13954577745E+03  0.50136989031E+03  0.68045286467E+03  0.10566000000E+00 0.  1.
<mgrwt>
<rscale>  1 0.88351743E+03</rscale>
<asrwt>0</asrwt>
<pdfrwt beam="2">  1       21 0.59307292E-01 0.10982108E+04</pdfrwt>
<pdfrwt beam="1">  1       -4 0.24764628E+00 0.10982108E+04</pdfrwt>
<totfact> 0.66842331E+00</totfact>
</mgrwt>
</event>
<event>
 6    2  0.2294477E-005  0.1046151E+04  0.7818608E-02  0.9665363E-01
         -4   -1    0    0    0  501 -0.00000000000E+00  0.00000000000E+00  0.23718335960E+04  0.23718335960E+04  0.00000000000E+00 0. -1.
         21   -1    0    0  501  502  0.00000000000E+00 -0.00000000000E+00 -0.25531993696E+03  0.25531993696E+03  0.00000000000E+00 0. -1.
   -9000010    2    1    2    0  502 -0.22126032739E+03 -0.11557376873E+03  0.88404740050E+03  0.13696613787E+04  0.10159326048E+04 0.  0.
         13    1    3    3    0    0  0.26354203931E+03 -0.26021771503E+03  0.23114609869E+02  0.37108215000E+03  0.10566000000E+00 0. -1.
         -4    1    3    3    0  502 -0.48480236669E+03  0.14464394630E+03  0.86093279063E+03  0.99857922867E+03  0.00000000000E+00 0. -1.
        -13    1    1    2    0    0  0.22126032739E+03  0.11557376873E+03  0.12324662585E+04  0.12574921543E+04  0.10566000000E+00 0.  1.
<mgrwt>
<rscale>  1 0.73117037E+03</rscale>
<asrwt>0</asrwt>
<pdfrwt beam="2">  1       21 0.39279992E-01 0.10461513E+04</pdfrwt>
<pdfrwt beam="1">  1       -4 0.36489746E+00 0.10461513E+04</pdfrwt>
<totfact> 0.29964457E+00</totfact>
</mgrwt>
</event>
<event>
 6    2  0.2294477E-005  0.9092858E+03  0.7818608E-02  0.9716656E-01
         21   -1    0    0  501  502  0.00000000000E+00  0.00000000000E+00  0.12776251494E+04  0.12776251494E+04  0.00000000000E+00 0. -1.
         -4   -1    0    0    0  501 -0.00000000000E+00 -0.00000000000E+00 -0.32176507475E+03  0.32176507475E+03  0.00000000000E+00 0. -1.
   -9000010    2    1    2    0  502 -0.26595720795E+03 -0.17792067209E+03  0.89068056779E+03  0.12728364288E+04  0.85112378566E+03 0.  0.
         13    1    3    3    0    0 -0.31061380768E+03 -0.39851622996E+03  0.91623648440E+03  0.10463199461E+04  0.10566000000E+00 0. -1.
         -4    1    3    3    0  502  0.44656599722E+02  0.22059555787E+03 -0.25555916606E+02  0.22651648268E+03  0.00000000000E+00 0. -1.
        -13    1    1    2    0    0  0.26595720795E+03  0.17792067209E+03  0.65179506893E+02  0.32655379542E+03  0.10566000000E+00 0.  1.
<mgrwt>
<rscale>  1 0.70033686E+03</rscale>
<asrwt>0</asrwt>
<pdfrwt beam="1">  1       21 0.19655771E+00 0.90928582E+03</pdfrwt>
<pdfrwt beam="2">  1       -4 0.49502320E-01 0.90928582E+03</pdfrwt>
<totfact> 0.19460737E+01</totfact>
</mgrwt>
</event>
<event>
 6    2  0.2294477E-005  0.8873064E+03  0.7818608E-02  0.9861547E-01
         21   -1    0    0  501  502  0.00000000000E+00  0.00000000000E+00  0.12479052769E+03  0.12479052769E+03  0.00000000000E+00 0. -1.
         -4   -1    0    0    0  501 -0.00000000000E+00 -0.00000000000E+00 -0.25712447623E+04  0.25712447623E+04  0.00000000000E+00 0. -1.
   -9000010    2    1    2    0  502 -0.17803005624E+03  0.11826422402E+03 -0.16747919718E+04  0.18953207425E+04  0.86118026012E+03 0.  0.
         13    1    3    3    0    0  0.26654594183E+03  0.26218275111E+03 -0.45390159421E+03  0.58805884270E+03  0.10566000000E+00 0. -1.
         -4    1    3    3    0  502 -0.44457599806E+03 -0.14391852709E+03 -0.12208903776E+04  0.13072618998E+04  0.00000000000E+00 0. -1.
        -13    1    1    2    0    0  0.17803005624E+03 -0.11826422402E+03 -0.77166226273E+03  0.80071454745E+03  0.10566000000E+00 0.  1.
<mgrwt>
<rscale>  1 0.62161618E+03</rscale>
<asrwt>0</asrwt>
<pdfrwt beam="1">  1       21 0.19198543E-01 0.88730636E+03</pdfrwt>
<pdfrwt beam="2">  1       -4 0.39557610E+00 0.88730636E+03</pdfrwt>
<totfact> 0.79912168E+00</totfact>
</mgrwt>
</event>
<event>
 6    2  0.2294477E-005  0.1015675E+04  0.7818608E-02  0.9762464E-01
         21   -1    0    0  501  502  0.00000000000E+00  0.00000000000E+00  0.53906757127E+03  0.53906757127E+03  0.00000000000E+00 0. -1.
         -4   -1    0    0    0  501 -0.00000000000E+00 -0.00000000000E+00 -0.12503458154E+04  0.12503458154E+04  0.00000000000E+00 0. -1.
   -9000010    2    1    2    0  502 -0.63478667528E+02 -0.18665172105E+03  0.36252662548E+02  0.10163216238E+04  0.99635685439E+03 0.  0.
         13    1    3    3    0    0  0.24195019917E+03 -0.50412211953E+03 -0.68904064887E+02  0.56340641778E+03  0.10566000000E+00 0. -1.
         -4    1    3    3    0  502 -0.30542886670E+03  0.31747039848E+03  0.10515672743E+03  0.45291520603E+03  0.00000000000E+00 0. -1.
        -13    1    1    2    0    0  0.63478667528E+02  0.18665172105E+03 -0.74753090671E+03  0.77309176289E+03  0.10566000000E+00 0.  1.
<mgrwt>
<rscale>  1 0.67416411E+03</rscale>
<asrwt>0</asrwt>
<pdfrwt beam="1">  1       21 0.82933473E-01 0.10156748E+04</pdfrwt>
<pdfrwt beam="2">  1       -4 0.19236089E+00 0.10156748E+04</pdfrwt>
<totfact> 0.70757024E+00</totfact>
</mgrwt>
</event>
<event>
 6    2  0.2294477E-005  0.1094964E+04  0.7818608E-02  0.9677595E-01
         -4   -1    0    0    0  501 -0.00000000000E+00  0.00000000000E+00  0.85478942681E+03  0.85478942681E+03  0.00000000000E+00 0. -1.
         21   -1    0    0  501  502  0.00000000000E+00 -0.00000000000E+00 -0.90037279770E+03  0.90037279770E+03  0.00000000000E+00 0. -1.
   -9000010    2    1    2    0  502  0.11906835565E+03 -0.17165326388E+03 -0.53819673045E+03  0.12200827449E+04  0.10748507187E+04 0.  0.
         13    1    3    3    0    0 -0.43844873915E+03 -0.18606542274E+03 -0.45036674237E+03  0.65550579875E+03  0.10566000000E+00 0. -1.
         -4    1    3    3    0  502  0.55751709480E+03  0.14412158853E+02 -0.87829988077E+02  0.56457694615E+03  0.00000000000E+00 0. -1.
        -13    1    1    2    0    0 -0.11906835565E+03  0.17165326388E+03  0.49261335956E+03  0.53507947961E+03  0.10566000000E+00 0.  1.
<mgrwt>
<rscale>  1 0.72366592E+03</rscale>
<asrwt>0</asrwt>
<pdfrwt beam="2">  1       21 0.13851889E+00 0.10949640E+04</pdfrwt>
<pdfrwt beam="1">  1       -4 0.13150606E+00 0.10949640E+04</pdfrwt>
<totfact> 0.54718051E+00</totfact>
</mgrwt>
</event>
<event>
 6    2  0.2294477E-005  0.9970310E+03  0.7818608E-02  0.9821869E-01
         21   -1    0    0  501  502  0.00000000000E+00  0.00000000000E+00  0.12975803943E+04  0.12975803943E+04  0.00000000000E+00 0. -1.
         -4   -1    0    0    0  501 -0.00000000000E+00 -0.00000000000E+00 -0.26345604473E+03  0.26345604473E+03  0.00000000000E+00 0. -1.
   -9000010    2    1    2    0  502  0.13519759342E+03  0.10539128796E+03  0.85998353940E+03  0.13166786158E+04  0.98218388115E+03 0.  0.
         13    1    3    3    0    0 -0.28925910485E+03 -0.26021249596E+03  0.16141855643E+03  0.42123311161E+03  0.10566000000E+00 0. -1.
         -4    1    3    3    0  502  0.42445669827E+03  0.36560378392E+03  0.69856498297E+03  0.89544550418E+03  0.00000000000E+00 0. -1.
        -13    1    1    2    0    0 -0.13519759342E+03 -0.10539128796E+03  0.17414081016E+03  0.24435782323E+03  0.10566000000E+00 0.  1.
<mgrwt>
<rscale>  1 0.64202008E+03</rscale>
<asrwt>0</asrwt>
<pdfrwt beam="1">  1       21 0.19962775E+00 0.99703104E+03</pdfrwt>
<pdfrwt beam="2">  1       -4 0.40531700E-01 0.99703104E+03</pdfrwt>
<totfact> 0.27742179E+01</totfact>
</mgrwt>
</event>
<event>
 6    2  0.2294477E-005  0.1020815E+04  0.7818608E-02  0.9825690E-01
         21   -1    0    0  501  502  0.00000000000E+00  0.00000000000E+00  0.88744544209E+03  0.88744544209E+03  0.00000000000E+00 0. -1.
         -4   -1    0    0    0  501 -0.00000000000E+00 -0.00000000000E+00 -0.41860903539E+03  0.41860903539E+03  0.00000000000E+00 0. -1.
   -9000010    2    1    2    0  502  0.40738861211E+02 -0.15238416492E+03  0.27706644461E+03  0.10577475745E+04  0.10085551686E+04 0.  0.
         13    1    3    3    0    0 -0.33528454356E+03 -0.16746079953E+03  0.49653785702E+03  0.62210023240E+03  0.10566000000E+00 0. -1.
         -4    1    3    3    0  502  0.37602340477E+03  0.15076634613E+02 -0.21947141241E+03  0.43564734213E+03  0.00000000000E+00 0. -1.
        -13    1    1    2    0    0 -0.40738861211E+02  0.15238416492E+03  0.19176996208E+03  0.24830690295E+03  0.10566000000E+00 0.  1.
<mgrwt>
<rscale>  1 0.64001931E+03</rscale>
<asrwt>0</asrwt>
<pdfrwt beam="1">  1       21 0.13653007E+00 0.10208154E+04</pdfrwt>
<pdfrwt beam="2">  1       -4 0.64401390E-01 0.10208154E+04</pdfrwt>
<totfact> 0.31286720E+01</totfact>
</mgrwt>
</event>
<event>
 6    2  0.2294477E-005  0.1012108E+04  0.7818608E-02  0.9823220E-01
         -4   -1    0    0    0  501 -0.00000000000E+00  0.00000000000E+00  0.63088567834E+03  0.63088567834E+03  0.00000000000E+00 0. -1.
         21   -1    0    0  501  502  0.00000000000E+00 -0.00000000000E+00 -0.58866107267E+03  0.58866107267E+03  0.00000000000E+00 0. -1.
   -9000010    2    1    2    0  502 -0.14793285993E+03 -0.68811186043E+02 -0.80624227344E+02  0.10153141451E+04  0.99887108121E+03 0.  0.
         13    1    3    3    0    0 -0.26743444110E+03 -0.14747799708E+03  0.40602943806E+03  0.50806579854E+03  0.10566000000E+00 0. -1.
         -4    1    3    3    0  502  0.11950158117E+03  0.78666811038E+02 -0.48665366541E+03  0.50724834659E+03  0.00000000000E+00 0. -1.
        -13    1    1    2    0    0  0.14793285993E+03  0.68811186043E+02  0.12284883301E+03  0.20423260588E+03  0.10566000000E+00 0.  1.
<mgrwt>
<rscale>  1 0.64131197E+03</rscale>
<asrwt>0</asrwt>
<pdfrwt beam="2">  1       21 0.90563242E-01 0.10121080E+04</pdfrwt>
<pdfrwt beam="1">  1       -4 0.97059335E-01 0.10121080E+04</pdfrwt>
<totfact> 0.34775129E+01</totfact>
</mgrwt>
</event>
<event>
 6    2  0.2294477E-005  0.9987767E+03  0.7818608E-02  0.1000230E+00
         -4   -1    0    0    0  501 -0.00000000000E+00  0.00000000000E+00  0.12739568366E+03  0.12739568366E+03  0.00000000000E+00 0. -1.
         21   -1    0    0  501  502  0.00000000000E+00 -0.00000000000E+00 -0.23866545795E+04  0.23866545795E+04  0.00000000000E+00 0. -1.
   -9000010    2    1    2    0  502  0.10590978573E+02  0.94978922491E+02 -0.21369125131E+04  0.23588026768E+04  0.99419405291E+03 0.  0.
         13    1    3    3    0    0  0.12348859037E+03 -0.31613645347E+03 -0.17515022936E+04  0.17840829534E+04  0.10566000000E+00 0. -1.
         -4    1    3    3    0  502 -0.11289761180E+03  0.41111537596E+03 -0.38541021954E+03  0.57471972337E+03  0.00000000000E+00 0. -1.
        -13    1    1    2    0    0 -0.10590978573E+02 -0.94978922491E+02 -0.12234638277E+03  0.15524758640E+03  0.10566000000E+00 0.  1.
<mgrwt>
<rscale>  1 0.55549358E+03</rscale>
<asrwt>0</asrwt>
<pdfrwt beam="2">  1       21 0.36717761E+00 0.99877674E+03</pdfrwt>
<pdfrwt beam="1">  1       -4 0.19599337E-01 0.99877674E+03</pdfrwt>
<totfact> 0.97898139E+00</totfact>
</mgrwt>
</event>
<event>
 6    2  0.2294477E-005  0.1007353E+04  0.7818608E-02  0.9920969E-01
         -4   -1    0    0    0  501 -0.00000000000E+00  0.00000000000E+00  0.89841139515E+03  0.89841139515E+03  0.00000000000E+00 0. -1.
         21   -1    0    0  501  502  0.00000000000E+00 -0.00000000000E+00 -0.39708763987E+03  0.39708763987E+03  0.00000000000E+00 0. -1.
   -9000010    2    1    2    0  502 -0.57080222831E+02 -0.10624546893E+03  0.28345349733E+03  0.10464735103E+04  0.10001073298E+04 0.  0.
         13    1    3    3    0    0  0.54744986090E+02  0.37902124588E+03  0.37968908236E+03  0.53927537378E+03  0.10566000000E+00 0. -1.
         -4    1    3    3    0  502 -0.11182520892E+03 -0.48526671481E+03 -0.96235585032E+02  0.50719813651E+03  0.00000000000E+00 0. -1.
        -13    1    1    2    0    0  0.57080222831E+02  0.10624546893E+03  0.21787025795E+03  0.24902552473E+03  0.10566000000E+00 0.  1.
<mgrwt>
<rscale>  1 0.59255727E+03</rscale>
<asrwt>0</asrwt>
<pdfrwt beam="2">  1       21 0.61090407E-01 0.10073534E+04</pdfrwt>
<pdfrwt beam="1">  1       -4 0.13821714E+00 0.10073534E+04</pdfrwt>
<totfact> 0.35891142E+01</totfact>
</mgrwt>
</event>
<event>
 6    2  0.2294477E-005  0.1089864E+04  0.7818608E-02  0.9470337E-01
         21   -1    0    0  501  502  0.00000000000E+00  0.00000000000E+00  0.12151569626E+04  0.12151569626E+04  0.00000000000E+00 0.  1.
         -4   -1    0    0    0  501 -0.00000000000E+00 -0.00000000000E+00 -0.62243572635E+03  0.62243572635E+03  0.00000000000E+00 0. -1.
   -9000010    2    1    2    0  502  0.67039060736E+02 -0.42736697329E+03  0.80576779591E+03  0.13553835918E+04  0.10003330318E+04 0.  0.
         13    1    3    3    0    0  0.15952992000E+03  0.23991437970E+03  0.57526232206E+03  0.64337815887E+03  0.10566000000E+00 0. -1.
         -4    1    3    3    0  502 -0.92490859268E+02 -0.66728135300E+03  0.23050547385E+03  0.71200543297E+03  0.00000000000E+00 0. -1.
        -13    1    1    2    0    0 -0.67039060736E+02  0.42736697329E+03 -0.21304655971E+03  0.48220909707E+03  0.10566000000E+00 0.  1.
<mgrwt>
<rscale>  1 0.86506560E+03</rscale>
<asrwt>0</asrwt>
<pdfrwt beam="1">  1       21 0.18694722E+00 0.10898637E+04</pdfrwt>
<pdfrwt beam="2">  1       -4 0.95759343E-01 0.10898637E+04</pdfrwt>
<totfact> 0.50727639E+00</totfact>
</mgrwt>
</event>
<event>
 6    2  0.2294477E-005  0.1066020E+04  0.7818608E-02  0.9542984E-01
         21   -1    0    0  501  502  0.00000000000E+00  0.00000000000E+00  0.86893065992E+03  0.86893065992E+03  0.00000000000E+00 0. -1.
         -4   -1    0    0    0  501 -0.00000000000E+00 -0.00000000000E+00 -0.23867499370E+04  0.23867499370E+04  0.00000000000E+00 0. -1.
   -9000010    2    1    2    0  502 -0.15612634430E+03 -0.32287701675E+03  0.52032101590E+03  0.11862263528E+04  0.10038794735E+04 0.  0.
         13    1    3    3    0    0 -0.24959771669E+03 -0.26641318675E+03 -0.22771176492E+03  0.43026464565E+03  0.10566000000E+00 0. -1.
         -4    1    3    3    0  502  0.93471372395E+02 -0.56463829995E+02  0.74803278081E+03  0.75596170718E+03  0.00000000000E+00 0. -1.
        -13    1    1    2    0    0  0.15612634430E+03  0.32287701675E+03 -0.20381402929E+04  0.20694542440E+04  0.10566000000E+00 0.  1.
<mgrwt>
<rscale>  1 0.81187608E+03</rscale>
<asrwt>0</asrwt>
<pdfrwt beam="1">  1       21 0.13368164E+00 0.10660202E+04</pdfrwt>
<pdfrwt beam="2">  1       -4 0.36719230E+00 0.10660202E+04</pdfrwt>
<totfact> 0.16521009E-01</totfact>
</mgrwt>
</event>
<event>
 6    2  0.2294477E-005  0.1010174E+04  0.7818608E-02  0.9858750E-01
         -4   -1    0    0    0  501 -0.00000000000E+00  0.00000000000E+00  0.20211565360E+04  0.20211565360E+04  0.00000000000E+00 0. -1.
         21   -1    0    0  501  502  0.00000000000E+00 -0.00000000000E+00 -0.19534134284E+03  0.19534134284E+03  0.00000000000E+00 0. -1.
   -9000010    2    1    2    0  502  0.37542081375E+02  0.14126020020E+03  0.11753198832E+04  0.15497835386E+04  0.99954406440E+03 0.  0.
         13    1    3    3    0    0  0.17410167255E+02  0.12389218461E+03  0.13587191440E+04  0.13644669695E+04  0.10566000000E+00 0. -1.
         -4    1    3    3    0  502  0.20131914120E+02  0.17368015592E+02 -0.18339926081E+03  0.18531656914E+03  0.00000000000E+00 0. -1.
        -13    1    1    2    0    0 -0.37542081375E+02 -0.14126020020E+03  0.65049531000E+03  0.66671434028E+03  0.10566000000E+00 0.  1.
<mgrwt>
<rscale>  1 0.62302751E+03</rscale>
<asrwt>0</asrwt>
<pdfrwt beam="2">  1       21 0.30052516E-01 0.10101743E+04</pdfrwt>
<pdfrwt beam="1">  1       -4 0.31094715E+00 0.10101743E+04</pdfrwt>
<totfact> 0.11553769E+01</totfact>
</mgrwt>
</event>
<event>
 6    2  0.2294477E-005  0.1004252E+04  0.7818608E-02  0.9841995E-01
         21   -1    0    0  501  502  0.00000000000E+00  0.00000000000E+00  0.59829996129E+03  0.59829996129E+03  0.00000000000E+00 0. -1.
         -4   -1    0    0    0  501 -0.00000000000E+00 -0.00000000000E+00 -0.63987912291E+03  0.63987912291E+03  0.00000000000E+00 0. -1.
   -9000010    2    1    2    0  502  0.14703657109E+03 -0.55296454574E+02  0.12170219341E+03  0.10115995988E+04  0.99188954695E+03 0.  0.
         13    1    3    3    0    0 -0.58196546773E+02  0.32695365347E+03  0.38158451444E+03  0.50585796662E+03  0.10566000000E+00 0. -1.
         -4    1    3    3    0  502  0.20523311787E+03 -0.38225010804E+03 -0.25988232103E+03  0.50574163221E+03  0.00000000000E+00 0. -1.
        -13    1    1    2    0    0 -0.14703657109E+03  0.55296454574E+02 -0.16328135502E+03  0.22657948537E+03  0.10566000000E+00 0.  1.
<mgrwt>
<rscale>  1 0.63156729E+03</rscale>
<asrwt>0</asrwt>
<pdfrwt beam="1">  1       21 0.92046148E-01 0.10042521E+04</pdfrwt>
<pdfrwt beam="2">  1       -4 0.98442942E-01 0.10042521E+04</pdfrwt>
<totfact> 0.32341360E+01</totfact>
</mgrwt>
</event>
<event>
 6    2  0.2294477E-005  0.8675056E+03  0.7818608E-02  0.1001774E+00
         -4   -1    0    0    0  501 -0.00000000000E+00  0.00000000000E+00  0.81883907293E+03  0.81883907293E+03  0.00000000000E+00 0. -1.
         21   -1    0    0  501  502  0.00000000000E+00 -0.00000000000E+00 -0.41730878949E+03  0.41730878949E+03  0.00000000000E+00 0. -1.
   -9000010    2    1    2    0  502  0.12530346004E+02  0.13837094369E+03  0.62501126263E+02  0.86975421045E+03  0.85630746124E+03 0.  0.
         13    1    3    3    0    0  0.35876184695E+03 -0.17452932673E+03  0.57280952451E+02  0.40305293374E+03  0.10566000000E+00 0. -1.
         -4    1    3    3    0  502 -0.34623150095E+03  0.31290027041E+03  0.52201738128E+01  0.46670127671E+03  0.00000000000E+00 0. -1.
        -13    1    1    2    0    0 -0.12530346004E+02 -0.13837094369E+03  0.33902915717E+03  0.36639365197E+03  0.10566000000E+00 0.  1.
<mgrwt>
<rscale>  1 0.54879335E+03</rscale>
<asrwt>0</asrwt>
<pdfrwt beam="2">  1       21 0.64201353E-01 0.86750562E+03</pdfrwt>
<pdfrwt beam="1">  1       -4 0.12597524E+00 0.86750562E+03</pdfrwt>
<totfact> 0.41285792E+01</totfact>
</mgrwt>
</event>
<event>
 6    2  0.2294477E-005  0.1043890E+04  0.7818608E-02  0.9636944E-01
         21   -1    0    0  501  502  0.00000000000E+00  0.00000000000E+00  0.24340095041E+03  0.24340095041E+03  0.00000000000E+00 0. -1.
         -4   -1    0    0    0  501 -0.00000000000E+00 -0.00000000000E+00 -0.17945012648E+04  0.17945012648E+04  0.00000000000E+00 0. -1.
   -9000010    2    1    2    0  502  0.19582885851E+03 -0.19541089340E+03 -0.11891727463E+04  0.15823520700E+04  0.10065644012E+04 0.  0.
         13    1    3    3    0    0 -0.67474993311E+02  0.33020039994E+03 -0.82408251534E+03  0.89033543235E+03  0.10566000000E+00 0. -1.
         -4    1    3    3    0  502  0.26330385182E+03 -0.52561129334E+03 -0.36509023100E+03  0.69201663769E+03  0.00000000000E+00 0. -1.
        -13    1    1    2    0    0 -0.19582885851E+03  0.19541089340E+03 -0.36192756806E+03  0.45555014518E+03  0.10566000000E+00 0.  1.
<mgrwt>
<rscale>  1 0.74898497E+03</rscale>
<asrwt>0</asrwt>
<pdfrwt beam="1">  1       21 0.37446299E-01 0.10438900E+04</pdfrwt>
<pdfrwt beam="2">  1       -4 0.27607713E+00 0.10438900E+04</pdfrwt>
<totfact> 0.12053463E+01</totfact>
</mgrwt>
</event>
<event>
 6    2  0.2294477E-005  0.1027968E+04  0.7818608E-02  0.9748865E-01
         -4   -1    0    0    0  501 -0.00000000000E+00  0.00000000000E+00  0.55840749281E+03  0.55840749281E+03  0.00000000000E+00 0. -1.
         21   -1    0    0  501  502  0.00000000000E+00 -0.00000000000E+00 -0.67539780392E+03  0.67539780392E+03  0.00000000000E+00 0. -1.
   -9000010    2    1    2    0  502 -0.18685535490E+03 -0.68251731198E+02 -0.11925326100E+03  0.10348622029E+04  0.10085361750E+04 0.  0.
         13    1    3    3    0    0 -0.10023225597E+03 -0.53443030118E+03  0.84285505801E+01  0.54381366623E+03  0.10566000000E+00 0. -1.
         -4    1    3    3    0  502 -0.86623098934E+02  0.46617856998E+03 -0.12768181158E+03  0.49104853669E+03  0.00000000000E+00 0. -1.
        -13    1    1    2    0    0  0.18685535490E+03  0.68251731198E+02  0.22629498887E+01  0.19894309380E+03  0.10566000000E+00 0.  1.
<mgrwt>
<rscale>  1 0.68180460E+03</rscale>
<asrwt>0</asrwt>
<pdfrwt beam="2">  1       21 0.10390735E+00 0.10279681E+04</pdfrwt>
<pdfrwt beam="1">  1       -4 0.85908846E-01 0.10279681E+04</pdfrwt>
<totfact> 0.33028159E+01</totfact>
</mgrwt>
</event>
<event>
 6    2  0.2294477E-005  0.1002404E+04  0.7818608E-02  0.9843565E-01
         21   -1    0    0  501  502  0.00000000000E+00  0.00000000000E+00  0.11542998778E+04  0.11542998778E+04  0.00000000000E+00 0. -1.
         -4   -1    0    0    0  501 -0.00000000000E+00 -0.00000000000E+00 -0.30251611974E+03  0.30251611974E+03  0.00000000000E+00 0. -1.
   -9000010    2    1    2    0  502 -0.73847695157E+02  0.13872469466E+03  0.82315651714E+03  0.12970738519E+04  0.99000803162E+03 0.  0.
         13    1    3    3    0    0  0.37288770283E+03 -0.88468605394E+02  0.67198016388E+03  0.77358211257E+03  0.10566000000E+00 0. -1.
         -4    1    3    3    0  502 -0.44673539799E+03  0.22719330006E+03  0.15117635326E+03  0.52349173937E+03  0.00000000000E+00 0. -1.
        -13    1    1    2    0    0  0.73847695157E+02 -0.13872469466E+03  0.28627240888E+02  0.15974214558E+03  0.10566000000E+00 0.  1.
<mgrwt>
<rscale>  1 0.63076112E+03</rscale>
<asrwt>0</asrwt>
<pdfrwt beam="1">  1       21 0.17758459E+00 0.10024041E+04</pdfrwt>
<pdfrwt beam="2">  1       -4 0.46540942E-01 0.10024041E+04</pdfrwt>
<totfact> 0.29857655E+01</totfact>
</mgrwt>
</event>
<event>
 6    2  0.2294477E-005  0.1023665E+04  0.7818608E-02  0.9723188E-01
         -4   -1    0    0    0  501 -0.00000000000E+00  0.00000000000E+00  0.70464942272E+03  0.70464942272E+03  0.00000000000E+00 0. -1.
         21   -1    0    0  501  502  0.00000000000E+00 -0.00000000000E+00 -0.54921416344E+03  0.54921416344E+03  0.00000000000E+00 0. -1.
   -9000010    2    1    2    0  502  0.19877371564E+03  0.92925037705E+02  0.14806282193E+03  0.10343176533E+04  0.99987216980E+03 0.  0.
         13    1    3    3    0    0  0.32156166810E+03  0.26316789033E+03 -0.31795056795E+03  0.52321297739E+03  0.10566000000E+00 0. -1.
         -4    1    3    3    0  502 -0.12278795246E+03 -0.17024285263E+03  0.46601338988E+03  0.51110467586E+03  0.00000000000E+00 0. -1.
        -13    1    1    2    0    0 -0.19877371564E+03 -0.92925037705E+02  0.73724373477E+01  0.21954593291E+03  0.10566000000E+00 0.  1.
<mgrwt>
<rscale>  1 0.69652804E+03</rscale>
<asrwt>0</asrwt>
<pdfrwt beam="2">  1       21 0.84494486E-01 0.10236652E+04</pdfrwt>
<pdfrwt beam="1">  1       -4 0.10840760E+00 0.10236652E+04</pdfrwt>
<totfact> 0.31371267E+01</totfact>
</mgrwt>
</event>
<event>
 6    2  0.2294477E-005  0.1054941E+04  0.7818608E-02  0.9604296E-01
         -4   -1    0    0    0  501 -0.00000000000E+00  0.00000000000E+00  0.33331801273E+03  0.33331801273E+03  0.00000000000E+00 0. -1.
         21   -1    0    0  501  502  0.00000000000E+00 -0.00000000000E+00 -0.17996576125E+04  0.17996576125E+04  0.00000000000E+00 0.  1.
   -9000010    2    1    2    0  502  0.29254334556E+03  0.64698370148E+02 -0.14974679112E+04  0.18317506743E+04  0.10115003211E+04 0.  0.
         13    1    3    3    0    0 -0.24015125925E+03  0.30210208273E+03 -0.26466506623E+03  0.46795929754E+03  0.10566000000E+00 0. -1.
         -4    1    3    3    0  502  0.53269460482E+03 -0.23740371258E+03 -0.12328028450E+04  0.13637913768E+04  0.00000000000E+00 0. -1.
        -13    1    1    2    0    0 -0.29254334556E+03 -0.64698370148E+02  0.31128311424E+02  0.30122495094E+03  0.10566000000E+00 0.  1.
<mgrwt>
<rscale>  1 0.77012461E+03</rscale>
<asrwt>0</asrwt>
<pdfrwt beam="2">  1       21 0.27687040E+00 0.10549409E+04</pdfrwt>
<pdfrwt beam="1">  1       -4 0.51279694E-01 0.10549409E+04</pdfrwt>
<totfact> 0.53228332E+00</totfact>
</mgrwt>
</event>
<event>
 6    2  0.2294477E-005  0.9983145E+03  0.7818608E-02  0.1004674E+00
         21   -1    0    0  501  502  0.00000000000E+00  0.00000000000E+00  0.93439315404E+03  0.93439315404E+03  0.00000000000E+00 0. -1.
         -4   -1    0    0    0  501 -0.00000000000E+00 -0.00000000000E+00 -0.31317682373E+03  0.31317682373E+03  0.00000000000E+00 0. -1.
   -9000010    2    1    2    0  502  0.43556187579E+02  0.70947803539E+02  0.56488332413E+03  0.11470505714E+04  0.99483722850E+03 0.  0.
         13    1    3    3    0    0  0.25730221294E+03  0.21543318502E+03  0.75523170009E+03  0.82643258526E+03  0.10566000000E+00 0. -1.
         -4    1    3    3    0  502 -0.21374602536E+03 -0.14448538148E+03 -0.19034837596E+03  0.32061798616E+03  0.00000000000E+00 0. -1.
        -13    1    1    2    0    0 -0.43556187579E+02 -0.70947803539E+02  0.56333006176E+02  0.10051940635E+03  0.10566000000E+00 0.  1.
<mgrwt>
<rscale>  1 0.53647324E+03</rscale>
<asrwt>0</asrwt>
<pdfrwt beam="1">  1       21 0.14375279E+00 0.99831450E+03</pdfrwt>
<pdfrwt beam="2">  1       -4 0.48181050E-01 0.99831450E+03</pdfrwt>
<totfact> 0.50844103E+01</totfact>
</mgrwt>
</event>
<event>
 6    2  0.2294477E-005  0.1035230E+04  0.7818608E-02  0.9879791E-01
         -4   -1    0    0    0  501 -0.00000000000E+00  0.00000000000E+00  0.18777557279E+03  0.18777557279E+03  0.00000000000E+00 0. -1.
         21   -1    0    0  501  502  0.00000000000E+00 -0.00000000000E+00 -0.21403933260E+04  0.21403933260E+04  0.00000000000E+00 0. -1.
   -9000010    2    1    2    0  502 -0.12263702256E+03 -0.32472541189E+02 -0.19422070585E+04  0.22008790761E+04  0.10274269531E+04 0.  0.
         13    1    3    3    0    0 -0.20939301976E+03  0.15340169713E+03 -0.19760122342E+04  0.19929881782E+04  0.10566000000E+00 0. -1.
         -4    1    3    3    0  502  0.86755997202E+02 -0.18587423831E+03  0.33805175694E+02  0.20789089788E+03  0.00000000000E+00 0. -1.
        -13    1    1    2    0    0  0.12263702256E+03  0.32472541189E+02 -0.10410694643E+02  0.12728982269E+03  0.10566000000E+00 0.  1.
<mgrwt>
<rscale>  1 0.61250776E+03</rscale>
<asrwt>0</asrwt>
<pdfrwt beam="2">  1       21 0.32929128E+00 0.10352297E+04</pdfrwt>
<pdfrwt beam="1">  1       -4 0.28888549E-01 0.10352297E+04</pdfrwt>
<totfact> 0.80668309E+00</totfact>
</mgrwt>
</event>
<event>
 6    2  0.2294477E-005  0.1045774E+04  0.7818608E-02  0.9590972E-01
         -4   -1    0    0    0  501 -0.00000000000E+00  0.00000000000E+00  0.26305260337E+04  0.26305260337E+04  0.00000000000E+00 0. -1.
         21   -1    0    0  501  502  0.00000000000E+00 -0.00000000000E+00 -0.21887123627E+03  0.21887123627E+03  0.00000000000E+00 0. -1.
   -9000010    2    1    2    0  502  0.23640994058E+03  0.21851505277E+03  0.11816191485E+04  0.15779311095E+04  0.99498959092E+03 0.  0.
         13    1    3    3    0    0  0.59502201638E+03  0.21596979665E+03  0.97960018441E+03  0.11663235767E+04  0.10566000000E+00 0. -1.
         -4    1    3    3    0  502 -0.35861207581E+03  0.25452561236E+01  0.20201896404E+03  0.41160753282E+03  0.00000000000E+00 0. -1.
        -13    1    1    2    0    0 -0.23640994058E+03 -0.21851505277E+03  0.12300356490E+04  0.12714661605E+04  0.10566000000E+00 0.  1.
<mgrwt>
<rscale>  1 0.77896590E+03</rscale>
<asrwt>0</asrwt>
<pdfrwt beam="2">  1       21 0.33672500E-01 0.10457738E+04</pdfrwt>
<pdfrwt beam="1">  1       -4 0.40469629E+00 0.10457738E+04</pdfrwt>
<totfact> 0.22135594E+00</totfact>
</mgrwt>
</event>
<event>
 6    2  0.2294477E-005  0.1031043E+04  0.7818608E-02  0.9649794E-01
         -4   -1    0    0    0  501 -0.00000000000E+00  0.00000000000E+00  0.10160283367E+04  0.10160283367E+04  0.00000000000E+00 0. -1.
         21   -1    0    0  501  502  0.00000000000E+00 -0.00000000000E+00 -0.44444854099E+03  0.44444854099E+03  0.00000000000E+00 0. -1.
   -9000010    2    1    2    0  502  0.30109348393E+02 -0.27321298197E+03  0.29935769555E+03  0.10736218798E+04  0.99372883857E+03 0.  0.
         13    1    3    3    0    0  0.10913960653E+02  0.25797946485E+03 -0.21346936016E+03  0.33502492104E+03  0.10566000000E+00 0. -1.
         -4    1    3    3    0  502  0.19195387740E+02 -0.53119244683E+03  0.51282705572E+03  0.73859695880E+03  0.00000000000E+00 0. -1.
        -13    1    1    2    0    0 -0.30109348393E+02  0.27321298197E+03  0.27222210015E+03  0.38685499784E+03  0.10566000000E+00 0.  1.
<mgrwt>
<rscale>  1 0.74086342E+03</rscale>
<asrwt>0</asrwt>
<pdfrwt beam="2">  1       21 0.68376699E-01 0.10310426E+04</pdfrwt>
<pdfrwt beam="1">  1       -4 0.15631205E+00 0.10310426E+04</pdfrwt>
<totfact> 0.19987614E+01</totfact>
</mgrwt>
</event>
<event>
 6    2  0.2294477E-005  0.9949063E+03  0.7818608E-02  0.9801963E-01
         21   -1    0    0  501  502  0.00000000000E+00  0.00000000000E+00  0.21014776101E+04  0.21014776101E+04  0.00000000000E+00 0. -1.
         -4   -1    0    0    0  501 -0.00000000000E+00 -0.00000000000E+00 -0.17788134648E+03  0.17788134648E+03  0.00000000000E+00 0. -1.
   -9000010    2    1    2    0  502 -0.13584573953E+03 -0.12432606319E+03  0.18028530426E+04  0.20591545708E+04  0.97771540762E+03 0.  0.
         13    1    3    3    0    0 -0.42797027770E+03  0.23504358587E+03  0.12242819751E+04  0.13180555419E+04  0.10566000000E+00 0. -1.
         -4    1    3    3    0  502  0.29212453817E+03 -0.35936964906E+03  0.57857106749E+03  0.74109902888E+03  0.00000000000E+00 0. -1.
        -13    1    1    2    0    0  0.13584573953E+03  0.12432606319E+03  0.12074322104E+03  0.22020438581E+03  0.10566000000E+00 0.  1.
<mgrwt>
<rscale>  1 0.65257325E+03</rscale>
<asrwt>0</asrwt>
<pdfrwt beam="1">  1       21 0.32330423E+00 0.99490625E+03</pdfrwt>
<pdfrwt beam="2">  1       -4 0.27366363E-01 0.99490625E+03</pdfrwt>
<totfact> 0.98379681E+00</totfact>
</mgrwt>
</event>
<event>
 6    2  0.2294477E-005  0.8657498E+03  0.7818608E-02  0.1009591E+00
         -4   -1    0    0    0  501 -0.00000000000E+00  0.00000000000E+00  0.85859587973E+03  0.85859587973E+03  0.00000000000E+00 0. -1.
         21   -1    0    0  501  502  0.00000000000E+00 -0.00000000000E+00 -0.76276518593E+03  0.76276518593E+03  0.00000000000E+00 0. -1.
   -9000010    2    1    2    0  502  0.10783680808E+03  0.19403349964E+02 -0.51060472419E+03  0.10051069018E+04  0.85878835138E+03 0.  0.
         13    1    3    3    0    0  0.61606516124E+02 -0.35941588315E+03  0.37006620886E+01  0.36467635782E+03  0.10566000000E+00 0. -1.
         -4    1    3    3    0  502  0.46230291960E+02  0.37881923311E+03 -0.51430538628E+03  0.64043054395E+03  0.00000000000E+00 0. -1.
        -13    1    1    2    0    0 -0.10783680808E+03 -0.19403349964E+02  0.60643541798E+03  0.61625416389E+03  0.10566000000E+00 0.  1.
<mgrwt>
<rscale>  1 0.51637573E+03</rscale>
<asrwt>0</asrwt>
<pdfrwt beam="2">  1       21 0.11734849E+00 0.86574979E+03</pdfrwt>
<pdfrwt beam="1">  1       -4 0.13209167E+00 0.86574979E+03</pdfrwt>
<totfact> 0.86311620E+00</totfact>
</mgrwt>
</event>
<event>
 6    2  0.2294477E-005  0.1004996E+04  0.7818608E-02  0.1020950E+00
         -4   -1    0    0    0  501 -0.00000000000E+00  0.00000000000E+00  0.45237375726E+03  0.45237375726E+03  0.00000000000E+00 0. -1.
         21   -1    0    0  501  502  0.00000000000E+00 -0.00000000000E+00 -0.10066876543E+04  0.10066876543E+04  0.00000000000E+00 0. -1.
   -9000010    2    1    2    0  502  0.24294633338E+02 -0.43128690653E+02 -0.75204741668E+03  0.12552260144E+04  0.10037762286E+04 0.  0.
         13    1    3    3    0    0 -0.19236153589E+03 -0.36070746458E+03  0.20359689596E+01  0.40879945184E+03  0.10566000000E+00 0. -1.
         -4    1    3    3    0  502  0.21665616923E+03  0.31757877393E+03 -0.75408338564E+03  0.84642656256E+03  0.00000000000E+00 0. -1.
        -13    1    1    2    0    0 -0.24294633338E+02  0.43128690653E+02  0.19773351966E+03  0.20383539714E+03  0.10566000000E+00 0.  1.
<mgrwt>
<rscale>  1 0.47345228E+03</rscale>
<asrwt>0</asrwt>
<pdfrwt beam="2">  1       21 0.15487502E+00 0.10049960E+04</pdfrwt>
<pdfrwt beam="1">  1       -4 0.69595963E-01 0.10049960E+04</pdfrwt>
<totfact> 0.18625624E+01</totfact>
</mgrwt>
</event>
<event>
 6    2  0.2294477E-005  0.1018432E+04  0.7818608E-02  0.9989925E-01
         -4   -1    0    0    0  501 -0.00000000000E+00  0.00000000000E+00  0.45255955337E+03  0.45255955337E+03  0.00000000000E+00 0. -1.
         21   -1    0    0  501  502  0.00000000000E+00 -0.00000000000E+00 -0.95593773761E+03  0.95593773761E+03  0.00000000000E+00 0. -1.
   -9000010    2    1    2    0  502  0.36491111161E+02  0.86334170256E+02 -0.66877689960E+03  0.12183869642E+04  0.10141099856E+04 0.  0.
         13    1    3    3    0    0 -0.24224449672E+03 -0.11381769315E+03 -0.80564825269E+03  0.84894403920E+03  0.10566000000E+00 0. -1.
         -4    1    3    3    0  502  0.27873560788E+03  0.20015186341E+03  0.13687135310E+03  0.36944292499E+03  0.00000000000E+00 0. -1.
        -13    1    1    2    0    0 -0.36491111161E+02 -0.86334170256E+02  0.16539871535E+03  0.19011032679E+03  0.10566000000E+00 0.  1.
<mgrwt>
<rscale>  1 0.56094215E+03</rscale>
<asrwt>0</asrwt>
<pdfrwt beam="2">  1       21 0.14706734E+00 0.10184323E+04</pdfrwt>
<pdfrwt beam="1">  1       -4 0.69624547E-01 0.10184323E+04</pdfrwt>
<totfact> 0.21467524E+01</totfact>
</mgrwt>
</event>
<event>
 6    2  0.2294477E-005  0.1227198E+04  0.7818608E-02  0.9229072E-01
         21   -1    0    0  501  502  0.00000000000E+00  0.00000000000E+00  0.24778360297E+04  0.24778360297E+04  0.00000000000E+00 0. -1.
         -4   -1    0    0    0  501 -0.00000000000E+00 -0.00000000000E+00 -0.48001213845E+03  0.48001213845E+03  0.00000000000E+00 0. -1.
   -9000010    2    1    2    0  502 -0.38158958020E+03 -0.61625260970E+03  0.18469468997E+04  0.22174822016E+04  0.99027096158E+03 0.  0.
         13    1    3    3    0    0 -0.64258179967E+03 -0.62824559651E+03  0.16861952273E+04  0.19107219197E+04  0.10566000000E+00 0. -1.
         -4    1    3    3    0  502  0.26099221946E+03  0.11992986807E+02  0.16075167244E+03  0.30676028189E+03  0.00000000000E+00 0. -1.
        -13    1    1    2    0    0  0.38158958020E+03  0.61625260970E+03  0.15087699153E+03  0.74036596655E+03  0.10566000000E+00 0.  1.
<mgrwt>
<rscale>  1 0.10758331E+04</rscale>
<asrwt>0</asrwt>
<pdfrwt beam="1">  1       21 0.38120554E+00 0.12271978E+04</pdfrwt>
<pdfrwt beam="2">  1       -4 0.73848023E-01 0.12271978E+04</pdfrwt>
<totfact> 0.50945167E-01</totfact>
</mgrwt>
</event>
<event>
 6    2  0.2294477E-005  0.1016707E+04  0.7818608E-02  0.9723548E-01
         21   -1    0    0  501  502  0.00000000000E+00  0.00000000000E+00  0.13199048047E+04  0.13199048047E+04  0.00000000000E+00 0. -1.
         -4   -1    0    0    0  501 -0.00000000000E+00 -0.00000000000E+00 -0.33868004773E+03  0.33868004773E+03  0.00000000000E+00 0. -1.
   -9000010    2    1    2    0  502  0.21866786459E+03 -0.47130627208E+02  0.10099349988E+04  0.14330605296E+04  0.99179476137E+03 0.  0.
         13    1    3    3    0    0  0.83235194971E+02 -0.46365863342E+03  0.84036208639E+03  0.96338770670E+03  0.10566000000E+00 0. -1.
         -4    1    3    3    0  502  0.13543266961E+03  0.41652800621E+03  0.16957291246E+03  0.46967282293E+03  0.00000000000E+00 0. -1.
        -13    1    1    2    0    0 -0.21866786459E+03  0.47130627208E+02 -0.28710241873E+02  0.22552432280E+03  0.10566000000E+00 0.  1.
<mgrwt>
<rscale>  1 0.69631910E+03</rscale>
<asrwt>0</asrwt>
<pdfrwt beam="1">  1       21 0.20306227E+00 0.10167073E+04</pdfrwt>
<pdfrwt beam="2">  1       -4 0.52104623E-01 0.10167073E+04</pdfrwt>
<totfact> 0.15533047E+01</totfact>
</mgrwt>
</event>
<event>
 6    2  0.2294477E-005  0.1032080E+04  0.7818608E-02  0.9614578E-01
         21   -1    0    0  501  502  0.00000000000E+00  0.00000000000E+00  0.77814370104E+03  0.77814370104E+03  0.00000000000E+00 0. -1.
         -4   -1    0    0    0  501 -0.00000000000E+00 -0.00000000000E+00 -0.58501069494E+03  0.58501069494E+03  0.00000000000E+00 0. -1.
   -9000010    2    1    2    0  502 -0.25089003256E+02 -0.30789512033E+03  0.21213079862E+03  0.10536551383E+04  0.98476434317E+03 0.  0.
         13    1    3    3    0    0 -0.17877632778E+03  0.32407130897E+03  0.18380175578E+01  0.37011697900E+03  0.10566000000E+00 0. -1.
         -4    1    3    3    0  502  0.15368732452E+03 -0.63196642930E+03  0.21029278107E+03  0.68353815932E+03  0.00000000000E+00 0. -1.
        -13    1    1    2    0    0  0.25089003256E+02  0.30789512033E+03 -0.18997792521E+02  0.30949925766E+03  0.10566000000E+00 0.  1.
<mgrwt>
<rscale>  1 0.76338756E+03</rscale>
<asrwt>0</asrwt>
<pdfrwt beam="1">  1       21 0.11971442E+00 0.10320803E+04</pdfrwt>
<pdfrwt beam="2">  1       -4 0.90001645E-01 0.10320803E+04</pdfrwt>
<totfact> 0.20648933E+01</totfact>
</mgrwt>
</event>
<event>
 6    2  0.2294477E-005  0.1175452E+04  0.7818608E-02  0.9310666E-01
         -4   -1    0    0    0  501 -0.00000000000E+00  0.00000000000E+00  0.16661868229E+04  0.16661868229E+04  0.00000000000E+00 0. -1.
         21   -1    0    0  501  502  0.00000000000E+00 -0.00000000000E+00 -0.59303924200E+03  0.59303924200E+03  0.00000000000E+00 0. -1.
   -9000010    2    1    2    0  502  0.47235036322E+02  0.60914943401E+03  0.19816511653E+03  0.11920388715E+04  0.10041877694E+04 0.  0.
         13    1    3    3    0    0  0.47717879904E+02  0.63427973478E+03  0.54904444756E+03  0.84026043258E+03  0.10566000000E+00 0. -1.
         -4    1    3    3    0  502 -0.48284358280E+00 -0.25130300768E+02 -0.35087933102E+03  0.35177843893E+03  0.00000000000E+00 0. -1.
        -13    1    1    2    0    0 -0.47235036322E+02 -0.60914943401E+03  0.87498246436E+03  0.10671871934E+04  0.10566000000E+00 0.  1.
<mgrwt>
<rscale>  1 0.99806784E+03</rscale>
<asrwt>0</asrwt>
<pdfrwt beam="2">  1       21 0.91236807E-01 0.11754519E+04</pdfrwt>
<pdfrwt beam="1">  1       -4 0.25633643E+00 0.11754519E+04</pdfrwt>
<totfact> 0.21498753E+00</totfact>
</mgrwt>
</event>
<event>
 6    2  0.2294477E-005  0.9360541E+03  0.7818608E-02  0.9770434E-01
         -4   -1    0    0    0  501 -0.00000000000E+00  0.00000000000E+00  0.50152141028E+03  0.50152141028E+03  0.00000000000E+00 0. -1.
         21   -1    0    0  501  502  0.00000000000E+00 -0.00000000000E+00 -0.70012671097E+03  0.70012671097E+03  0.00000000000E+00 0. -1.
   -9000010    2    1    2    0  502  0.12479661699E+03 -0.21119224026E+03 -0.19585238147E+03  0.95632395268E+03  0.90333880088E+03 0.  0.
         13    1    3    3    0    0  0.27458132046E+03 -0.40344326627E+03 -0.40576708787E+03  0.63467181394E+03  0.10566000000E+00 0. -1.
         -4    1    3    3    0  502 -0.14978470347E+03  0.19225102601E+03  0.20991470640E+03  0.32165213874E+03  0.00000000000E+00 0. -1.
        -13    1    1    2    0    0 -0.12479661699E+03  0.21119224026E+03 -0.27529192180E+01  0.24532416857E+03  0.10566000000E+00 0.  1.
<mgrwt>
<rscale>  1 0.66973651E+03</rscale>
<asrwt>0</asrwt>
<pdfrwt beam="2">  1       21 0.10771180E+00 0.93605414E+03</pdfrwt>
<pdfrwt beam="1">  1       -4 0.77157141E-01 0.93605414E+03</pdfrwt>
<totfact> 0.38978845E+01</totfact>
</mgrwt>
</event>
<event>
 6    2  0.2294477E-005  0.1032283E+04  0.7818608E-02  0.9800151E-01
         21   -1    0    0  501  502  0.00000000000E+00  0.00000000000E+00  0.64481053198E+03  0.64481053198E+03  0.00000000000E+00 0. -1.
         -4   -1    0    0    0  501 -0.00000000000E+00 -0.00000000000E+00 -0.61743879792E+03  0.61743879792E+03  0.00000000000E+00 0. -1.
   -9000010    2    1    2    0  502 -0.12205213338E+02  0.16539612108E+03 -0.12147260860E+03  0.10394052283E+04  0.10188732944E+04 0.  0.
         13    1    3    3    0    0  0.41191405952E+03  0.35382771116E+03 -0.17900013539E+03  0.57175895380E+03  0.10566000000E+00 0. -1.
         -4    1    3    3    0  502 -0.42411927285E+03 -0.18843159008E+03  0.57527526790E+02  0.46764627453E+03  0.00000000000E+00 0. -1.
        -13    1    1    2    0    0  0.12205213338E+02 -0.16539612108E+03  0.14884434266E+03  0.22284410157E+03  0.10566000000E+00 0.  1.
<mgrwt>
<rscale>  1 0.65354459E+03</rscale>
<asrwt>0</asrwt>
<pdfrwt beam="1">  1       21 0.99201620E-01 0.10322827E+04</pdfrwt>
<pdfrwt beam="2">  1       -4 0.94990585E-01 0.10322827E+04</pdfrwt>
<totfact> 0.29248705E+01</totfact>
</mgrwt>
</event>
<event>
 6    2  0.2294477E-005  0.1027860E+04  0.7818608E-02  0.9643743E-01
         -4   -1    0    0    0  501 -0.00000000000E+00  0.00000000000E+00  0.74312833855E+03  0.74312833855E+03  0.00000000000E+00 0. -1.
         21   -1    0    0  501  502  0.00000000000E+00 -0.00000000000E+00 -0.61862093594E+03  0.61862093594E+03  0.00000000000E+00 0. -1.
   -9000010    2    1    2    0  502 -0.76927046467E+02 -0.27253175560E+03 -0.50072944692E+02  0.10290788112E+04  0.98808125762E+03 0.  0.
         13    1    3    3    0    0 -0.49495448548E+03 -0.30213008994E+03  0.90828778188E+02  0.58695179705E+03  0.10566000000E+00 0. -1.
         -4    1    3    3    0  502  0.41802743902E+03  0.29598334335E+02 -0.14090172288E+03  0.44212701419E+03  0.00000000000E+00 0. -1.
        -13    1    1    2    0    0  0.76927046467E+02  0.27253175560E+03  0.17458034731E+03  0.33267046325E+03  0.10566000000E+00 0.  1.
<mgrwt>
<rscale>  1 0.74467430E+03</rscale>
<asrwt>0</asrwt>
<pdfrwt beam="2">  1       21 0.95172452E-01 0.10278599E+04</pdfrwt>
<pdfrwt beam="1">  1       -4 0.11432744E+00 0.10278599E+04</pdfrwt>
<totfact> 0.20636542E+01</totfact>
</mgrwt>
</event>
<event>
 6    2  0.2294477E-005  0.1037254E+04  0.7818608E-02  0.9660258E-01
         -4   -1    0    0    0  501 -0.00000000000E+00  0.00000000000E+00  0.81531897571E+03  0.81531897571E+03  0.00000000000E+00 0. -1.
         21   -1    0    0  501  502  0.00000000000E+00 -0.00000000000E+00 -0.52489258140E+03  0.52489258140E+03  0.00000000000E+00 0. -1.
   -9000010    2    1    2    0  502  0.25865760438E+03 -0.31453473130E+02  0.16238513097E+03  0.10498881968E+04  0.10039936343E+04 0.  0.
         13    1    3    3    0    0  0.36162311874E+03  0.42700912658E+03  0.15221899313E+03  0.57989542784E+03  0.10566000000E+00 0. -1.
         -4    1    3    3    0  502 -0.10296551436E+03 -0.45846259971E+03  0.10166137835E+02  0.46999276893E+03  0.00000000000E+00 0. -1.
        -13    1    1    2    0    0 -0.25865760438E+03  0.31453473130E+02  0.12804126334E+03  0.29032336034E+03  0.10566000000E+00 0.  1.
<mgrwt>
<rscale>  1 0.73433140E+03</rscale>
<asrwt>0</asrwt>
<pdfrwt beam="2">  1       21 0.80752704E-01 0.10372542E+04</pdfrwt>
<pdfrwt beam="1">  1       -4 0.12543369E+00 0.10372542E+04</pdfrwt>
<totfact> 0.24231116E+01</totfact>
</mgrwt>
</event>
<event>
 6    2  0.2294477E-005  0.1039193E+04  0.7818608E-02  0.9781336E-01
         21   -1    0    0  501  502  0.00000000000E+00  0.00000000000E+00  0.45331348106E+03  0.45331348106E+03  0.00000000000E+00 0. -1.
         -4   -1    0    0    0  501 -0.00000000000E+00 -0.00000000000E+00 -0.82290168657E+03  0.82290168657E+03  0.00000000000E+00 0. -1.
   -9000010    2    1    2    0  502 -0.10269205678E+03 -0.13915100865E+03 -0.25914724265E+03  0.10710179962E+04  0.10247017093E+04 0.  0.
         13    1    3    3    0    0  0.35782641500E+03  0.24237921618E+03 -0.17838908699E+03  0.46755759563E+03  0.10566000000E+00 0. -1.
         -4    1    3    3    0  502 -0.46051847178E+03 -0.38153022484E+03 -0.80758155657E+02  0.60346040054E+03  0.00000000000E+00 0. -1.
        -13    1    1    2    0    0  0.10269205678E+03  0.13915100865E+03 -0.11044096286E+03  0.20519717146E+03  0.10566000000E+00 0.  1.
<mgrwt>
<rscale>  1 0.66373822E+03</rscale>
<asrwt>0</asrwt>
<pdfrwt beam="1">  1       21 0.69740535E-01 0.10391931E+04</pdfrwt>
<pdfrwt beam="2">  1       -4 0.12660026E+00 0.10391931E+04</pdfrwt>
<totfact> 0.33269116E+01</totfact>
</mgrwt>
</event>
<event>
 6    2  0.2294477E-005  0.1025690E+04  0.7818608E-02  0.9839093E-01
         -4   -1    0    0    0  501 -0.00000000000E+00  0.00000000000E+00  0.74798936520E+03  0.74798936520E+03  0.00000000000E+00 0. -1.
         21   -1    0    0  501  502  0.00000000000E+00 -0.00000000000E+00 -0.92857281167E+03  0.92857281167E+03  0.00000000000E+00 0. -1.
   -9000010    2    1    2    0  502  0.88872080045E+02  0.11940105044E+03 -0.62960568200E+03  0.12035126693E+04  0.10148322881E+04 0.  0.
         13    1    3    3    0    0 -0.19512183280E+02  0.40371651310E+03 -0.76905966060E+03  0.86880407514E+03  0.10566000000E+00 0. -1.
         -4    1    3    3    0  502  0.10838426333E+03 -0.28431546267E+03  0.13945397860E+03  0.33470859415E+03  0.00000000000E+00 0. -1.
        -13    1    1    2    0    0 -0.88872080045E+02 -0.11940105044E+03  0.44902223553E+03  0.47304950758E+03  0.10566000000E+00 0.  1.
<mgrwt>
<rscale>  1 0.63306114E+03</rscale>
<asrwt>0</asrwt>
<pdfrwt beam="2">  1       21 0.14285735E+00 0.10256897E+04</pdfrwt>
<pdfrwt beam="1">  1       -4 0.11507529E+00 0.10256897E+04</pdfrwt>
<totfact> 0.71130390E+00</totfact>
</mgrwt>
</event>
<event>
 6    2  0.2294477E-005  0.1314363E+04  0.7818608E-02  0.9144561E-01
         21   -1    0    0  501  502  0.00000000000E+00  0.00000000000E+00  0.14291116574E+04  0.14291116574E+04  0.00000000000E+00 0.  1.
         -4   -1    0    0    0  501 -0.00000000000E+00 -0.00000000000E+00 -0.79154565994E+03  0.79154565994E+03  0.00000000000E+00 0. -1.
   -9000010    2    1    2    0  502 -0.79653204934E+03 -0.14547253292E+03  0.33614835330E+03  0.13566676352E+04  0.10353384923E+04 0.  0.
         13    1    3    3    0    0 -0.46650545923E+03 -0.47595165279E+03  0.52948710327E+03  0.85118383618E+03  0.10566000000E+00 0. -1.
         -4    1    3    3    0  502 -0.33002659012E+03  0.33047911987E+03 -0.19333874996E+03  0.50548379904E+03  0.00000000000E+00 0. -1.
        -13    1    1    2    0    0  0.79653204934E+03  0.14547253292E+03  0.30141764417E+03  0.86398968214E+03  0.10566000000E+00 0.  1.
<mgrwt>
<rscale>  1 0.11644441E+04</rscale>
<asrwt>0</asrwt>
<pdfrwt beam="1">  1       21 0.21986333E+00 0.13143635E+04</pdfrwt>
<pdfrwt beam="2">  1       -4 0.12177626E+00 0.13143635E+04</pdfrwt>
<totfact> 0.16188739E+00</totfact>
</mgrwt>
</event>
<event>
 6    2  0.2294477E-005  0.1004289E+04  0.7818608E-02  0.1005252E+00
         21   -1    0    0  501  502  0.00000000000E+00  0.00000000000E+00  0.61375021171E+03  0.61375021171E+03  0.00000000000E+00 0. -1.
         -4   -1    0    0    0  501 -0.00000000000E+00 -0.00000000000E+00 -0.63131696968E+03  0.63131696968E+03  0.00000000000E+00 0. -1.
   -9000010    2    1    2    0  502 -0.76252571220E+02 -0.25217847330E+02  0.19035760409E+03  0.10221704655E+04  0.10010724493E+04 0.  0.
         13    1    3    3    0    0 -0.43145433949E+03 -0.93733601933E+02  0.40701797066E+03  0.60050185245E+03  0.10566000000E+00 0. -1.
         -4    1    3    3    0  502  0.35520176827E+03  0.68515754603E+02 -0.21666036657E+03  0.42166861307E+03  0.00000000000E+00 0. -1.
        -13    1    1    2    0    0  0.76252571220E+02  0.25217847330E+02 -0.20792436206E+03  0.22289671587E+03  0.10566000000E+00 0.  1.
<mgrwt>
<rscale>  1 0.53406291E+03</rscale>
<asrwt>0</asrwt>
<pdfrwt beam="1">  1       21 0.94423110E-01 0.10042890E+04</pdfrwt>
<pdfrwt beam="2">  1       -4 0.97125688E-01 0.10042890E+04</pdfrwt>
<totfact> 0.31392226E+01</totfact>
</mgrwt>
</event>
<event>
 6    2  0.2294477E-005  0.1127795E+04  0.7818608E-02  0.9374185E-01
         21   -1    0    0  501  502  0.00000000000E+00  0.00000000000E+00  0.19089498506E+04  0.19089498506E+04  0.00000000000E+00 0.  1.
         -4   -1    0    0    0  501 -0.00000000000E+00 -0.00000000000E+00 -0.14136137529E+04  0.14136137529E+04  0.00000000000E+00 0. -1.
   -9000010    2    1    2    0  502 -0.34318803688E+03 -0.42934222192E+03 -0.11362198321E+04  0.16009110440E+04  0.98478824715E+03 0.  0.
         13    1    3    3    0    0 -0.51365254873E+03 -0.57501164584E+03 -0.11404695707E+04  0.13766438125E+04  0.10566000000E+00 0. -1.
         -4    1    3    3    0  502  0.17046451184E+03  0.14566942392E+03  0.42497385265E+01  0.22426723154E+03  0.00000000000E+00 0. -1.
        -13    1    1    2    0    0  0.34318803688E+03  0.42934222192E+03  0.16315559298E+04  0.17216525595E+04  0.10566000000E+00 0.  1.
<mgrwt>
<rscale>  1 0.94230978E+03</rscale>
<asrwt>0</asrwt>
<pdfrwt beam="1">  1       21 0.29368459E+00 0.11277946E+04</pdfrwt>
<pdfrwt beam="2">  1       -4 0.21747904E+00 0.11277946E+04</pdfrwt>
<totfact> 0.11025083E-01</totfact>
</mgrwt>
</event>
<event>
 6    2  0.2294477E-005  0.1086239E+04  0.7818608E-02  0.9504743E-01
         21   -1    0    0  501  502  0.00000000000E+00  0.00000000000E+00  0.17096720316E+04  0.17096720316E+04  0.00000000000E+00 0.  1.
         -4   -1    0    0    0  501 -0.00000000000E+00 -0.00000000000E+00 -0.33023973634E+03  0.33023973634E+03  0.00000000000E+00 0. -1.
   -9000010    2    1    2    0  502  0.14416492123E+03 -0.35942078261E+03  0.82681980175E+03  0.13651174270E+04  0.10148634299E+04 0.  0.
         13    1    3    3    0    0 -0.40236073611E+03 -0.25767799300E+03  0.59425463561E+03  0.76251602813E+03  0.10566000000E+00 0. -1.
         -4    1    3    3    0  502  0.54652565734E+03 -0.10174278961E+03  0.23256516614E+03  0.60260139883E+03  0.00000000000E+00 0. -1.
        -13    1    1    2    0    0 -0.14416492123E+03  0.35942078261E+03  0.55261249350E+03  0.67479434098E+03  0.10566000000E+00 0.  1.
<mgrwt>
<rscale>  1 0.83935064E+03</rscale>
<asrwt>0</asrwt>
<pdfrwt beam="1">  1       21 0.26302646E+00 0.10862387E+04</pdfrwt>
<pdfrwt beam="2">  1       -4 0.50806114E-01 0.10862387E+04</pdfrwt>
<totfact> 0.66006618E+00</totfact>
</mgrwt>
</event>
<event>
 6    2  0.2294477E-005  0.1037448E+04  0.7818608E-02  0.9604844E-01
         21   -1    0    0  501  502  0.00000000000E+00  0.00000000000E+00  0.11548645737E+04  0.11548645737E+04  0.00000000000E+00 0. -1.
         -4   -1    0    0    0  501 -0.00000000000E+00 -0.00000000000E+00 -0.67761532649E+03  0.67761532649E+03  0.00000000000E+00 0. -1.
   -9000010    2    1    2    0  502 -0.27752674840E+03  0.14781128969E+03  0.85259096700E+03  0.13428364675E+04  0.98865016463E+03 0.  0.
         13    1    3    3    0    0 -0.34999608811E+03 -0.35431637432E+03  0.58827332917E+03  0.77078069240E+03  0.10566000000E+00 0. -1.
         -4    1    3    3    0  502  0.72469339716E+02  0.50212766401E+03  0.26431763783E+03  0.57205577510E+03  0.00000000000E+00 0. -1.
        -13    1    1    2    0    0  0.27752674840E+03 -0.14781128969E+03 -0.37534171976E+03  0.48964343271E+03  0.10566000000E+00 0.  1.
<mgrwt>
<rscale>  1 0.76976372E+03</rscale>
<asrwt>0</asrwt>
<pdfrwt beam="1">  1       21 0.17767147E+00 0.10374480E+04</pdfrwt>
<pdfrwt beam="2">  1       -4 0.10424851E+00 0.10374480E+04</pdfrwt>
<totfact> 0.48545263E+00</totfact>
</mgrwt>
</event>
<event>
 6    2  0.2294477E-005  0.1016621E+04  0.7818608E-02  0.9594071E-01
         21   -1    0    0  501  502  0.00000000000E+00  0.00000000000E+00  0.89893771925E+03  0.89893771925E+03  0.00000000000E+00 0. -1.
         -4   -1    0    0    0  501 -0.00000000000E+00 -0.00000000000E+00 -0.69203080537E+03  0.69203080537E+03  0.00000000000E+00 0. -1.
   -9000010    2    1    2    0  502 -0.32417587782E+03  0.12298459486E+03  0.50370493801E+03  0.11345648780E+04  0.95566918311E+03 0.  0.
         13    1    3    3    0    0 -0.26204732032E+03 -0.14698536294E+03 -0.21160031076E+03  0.36748904430E+03  0.10566000000E+00 0. -1.
         -4    1    3    3    0  502 -0.62128557503E+02  0.26996995781E+03  0.71530524877E+03  0.76707583373E+03  0.00000000000E+00 0. -1.
        -13    1    1    2    0    0  0.32417587782E+03 -0.12298459486E+03 -0.29679802413E+03  0.45640364659E+03  0.10566000000E+00 0.  1.
<mgrwt>
<rscale>  1 0.77689858E+03</rscale>
<asrwt>0</asrwt>
<pdfrwt beam="1">  1       21 0.13829811E+00 0.10166213E+04</pdfrwt>
<pdfrwt beam="2">  1       -4 0.10646628E+00 0.10166213E+04</pdfrwt>
<totfact> 0.94243606E+00</totfact>
</mgrwt>
</event>
<event>
 6    2  0.2294477E-005  0.1020700E+04  0.7818608E-02  0.1001922E+00
         -4   -1    0    0    0  501 -0.00000000000E+00  0.00000000000E+00  0.61893933545E+03  0.61893933545E+03  0.00000000000E+00 0. -1.
         21   -1    0    0  501  502  0.00000000000E+00 -0.00000000000E+00 -0.50149590358E+03  0.50149590358E+03  0.00000000000E+00 0. -1.
   -9000010    2    1    2    0  502  0.35964381082E+02 -0.76908909895E+02  0.69811542039E+02  0.10230841978E+04  0.10171623309E+04 0.  0.
         13    1    3    3    0    0 -0.29121801757E+03 -0.43058384815E+03  0.13455588872E+03  0.53695035376E+03  0.10566000000E+00 0. -1.
         -4    1    3    3    0  502  0.32718239865E+03  0.35367493825E+03 -0.64744346677E+02  0.48613384409E+03  0.00000000000E+00 0. -1.
        -13    1    1    2    0    0 -0.35964381082E+02  0.76908909895E+02  0.47631889830E+02  0.97351041189E+02  0.10566000000E+00 0.  1.
<mgrwt>
<rscale>  1 0.54815518E+03</rscale>
<asrwt>0</asrwt>
<pdfrwt beam="2">  1       21 0.77153215E-01 0.10206996E+04</pdfrwt>
<pdfrwt beam="1">  1       -4 0.95221437E-01 0.10206996E+04</pdfrwt>
<totfact> 0.53230944E+01</totfact>
</mgrwt>
</event>
<event>
 6    2  0.2294477E-005  0.1104326E+04  0.7818608E-02  0.9480663E-01
         21   -1    0    0  501  502  0.00000000000E+00  0.00000000000E+00  0.53913868889E+03  0.53913868889E+03  0.00000000000E+00 0. -1.
         -4   -1    0    0    0  501 -0.00000000000E+00 -0.00000000000E+00 -0.14373456055E+04  0.14373456055E+04  0.00000000000E+00 0. -1.
   -9000010    2    1    2    0  502  0.31563005180E+03 -0.24732231880E+03 -0.13264344297E+03  0.11122631987E+04  0.10289530996E+04 0.  0.
         13    1    3    3    0    0 -0.19858552379E+03  0.29285131316E+03 -0.90802327010E+02  0.36529874847E+03  0.10566000000E+00 0. -1.
         -4    1    3    3    0  502  0.51421557559E+03 -0.54017363196E+03 -0.41841115964E+02  0.74696445018E+03  0.00000000000E+00 0. -1.
        -13    1    1    2    0    0 -0.31563005180E+03  0.24732231880E+03 -0.76556347364E+03  0.86422109573E+03  0.10566000000E+00 0.  1.
<mgrwt>
<rscale>  1 0.85724602E+03</rscale>
<asrwt>0</asrwt>
<pdfrwt beam="1">  1       21 0.82944416E-01 0.11043256E+04</pdfrwt>
<pdfrwt beam="2">  1       -4 0.22113009E+00 0.11043256E+04</pdfrwt>
<totfact> 0.45353910E+00</totfact>
</mgrwt>
</event>
<event>
 6    2  0.2294477E-005  0.1203194E+04  0.7818608E-02  0.9277625E-01
         21   -1    0    0  501  502  0.00000000000E+00  0.00000000000E+00  0.10106494016E+04  0.10106494016E+04  0.00000000000E+00 0.  1.
         -4   -1    0    0    0  501 -0.00000000000E+00 -0.00000000000E+00 -0.85165544772E+03  0.85165544772E+03  0.00000000000E+00 0. -1.
   -9000010    2    1    2    0  502  0.54687903518E+03 -0.33797004829E+03  0.14013762038E+02  0.12032754875E+04  0.10170423199E+04 0.  0.
         13    1    3    3    0    0  0.13377913662E+03 -0.51397644703E+03 -0.34074668937E+03  0.63101264882E+03  0.10566000000E+00 0. -1.
         -4    1    3    3    0  502  0.41309989856E+03  0.17600639874E+03  0.35476045141E+03  0.57226283863E+03  0.00000000000E+00 0. -1.
        -13    1    1    2    0    0 -0.54687903518E+03  0.33797004829E+03  0.14498019188E+03  0.65902936191E+03  0.10566000000E+00 0.  1.
<mgrwt>
<rscale>  1 0.10286911E+04</rscale>
<asrwt>0</asrwt>
<pdfrwt beam="1">  1       21 0.15548452E+00 0.12031939E+04</pdfrwt>
<pdfrwt beam="2">  1       -4 0.13102391E+00 0.12031939E+04</pdfrwt>
<totfact> 0.39567904E+00</totfact>
</mgrwt>
</event>
<event>
 6    2  0.2294477E-005  0.1011966E+04  0.7818608E-02  0.9693292E-01
         21   -1    0    0  501  502  0.00000000000E+00  0.00000000000E+00  0.90093073761E+03  0.90093073761E+03  0.00000000000E+00 0. -1.
         -4   -1    0    0    0  501 -0.00000000000E+00 -0.00000000000E+00 -0.47927623419E+03  0.47927623419E+03  0.00000000000E+00 0. -1.
   -9000010    2    1    2    0  502 -0.65362883884E+02 -0.24237010014E+03  0.48370002068E+03  0.11216238528E+04  0.98033605729E+03 0.  0.
         13    1    3    3    0    0 -0.28201479020E+03  0.24756394276E+02  0.67222439338E+03  0.72940446062E+03  0.10566000000E+00 0. -1.
         -4    1    3    3    0  502  0.21665190632E+03 -0.26712649442E+03 -0.18852437270E+03  0.39221939222E+03  0.00000000000E+00 0. -1.
        -13    1    1    2    0    0  0.65362883884E+02  0.24237010014E+03 -0.62045517256E+02  0.25858311896E+03  0.10566000000E+00 0.  1.
<mgrwt>
<rscale>  1 0.71417609E+03</rscale>
<asrwt>0</asrwt>
<pdfrwt beam="1">  1       21 0.13860473E+00 0.10119656E+04</pdfrwt>
<pdfrwt beam="2">  1       -4 0.73734805E-01 0.10119656E+04</pdfrwt>
<totfact> 0.22217181E+01</totfact>
</mgrwt>
</event>
<event>
 6    2  0.2294477E-005  0.1009853E+04  0.7818608E-02  0.1005582E+00
         -4   -1    0    0    0  501 -0.00000000000E+00  0.00000000000E+00  0.44364458984E+03  0.44364458984E+03  0.00000000000E+00 0. -1.
         21   -1    0    0  501  502  0.00000000000E+00 -0.00000000000E+00 -0.16788296349E+04  0.16788296349E+04  0.00000000000E+00 0. -1.
   -9000010    2    1    2    0  502  0.53746587033E+02 -0.56781459782E+02 -0.15212453252E+04  0.18259218265E+04  0.10068219045E+04 0.  0.
         13    1    3    3    0    0  0.27243553900E+03 -0.39532164916E+03 -0.12528760808E+04  0.13417148781E+04  0.10566000000E+00 0. -1.
         -4    1    3    3    0  502 -0.21868895197E+03  0.33854018937E+03 -0.26836924445E+03  0.48420694842E+03  0.00000000000E+00 0. -1.
        -13    1    1    2    0    0 -0.53746587033E+02  0.56781459782E+02  0.28606028020E+03  0.29655239818E+03  0.10566000000E+00 0.  1.
<mgrwt>
<rscale>  1 0.53268936E+03</rscale>
<asrwt>0</asrwt>
<pdfrwt beam="2">  1       21 0.25828148E+00 0.10098530E+04</pdfrwt>
<pdfrwt beam="1">  1       -4 0.68253014E-01 0.10098530E+04</pdfrwt>
<totfact> 0.37686814E+00</totfact>
</mgrwt>
</event>
<event>
 6    2  0.2294477E-005  0.1029166E+04  0.7818608E-02  0.9666846E-01
         21   -1    0    0  501  502  0.00000000000E+00  0.00000000000E+00  0.48393674915E+03  0.48393674915E+03  0.00000000000E+00 0. -1.
         -4   -1    0    0    0  501 -0.00000000000E+00 -0.00000000000E+00 -0.86021053901E+03  0.86021053901E+03  0.00000000000E+00 0. -1.
   -9000010    2    1    2    0  502  0.21023004049E+03  0.15447509541E+03 -0.28737470804E+03  0.10685347287E+04  0.99555161523E+03 0.  0.
         13    1    3    3    0    0  0.27402683851E+03  0.39068671628E+03  0.20448924610E+03  0.51917500078E+03  0.10566000000E+00 0. -1.
         -4    1    3    3    0  502 -0.63796798023E+02 -0.23621162087E+03 -0.49186395414E+03  0.54935972792E+03  0.00000000000E+00 0. -1.
        -13    1    1    2    0    0 -0.21023004049E+03 -0.15447509541E+03 -0.88899081811E+02  0.27561255947E+03  0.10566000000E+00 0.  1.
<mgrwt>
<rscale>  1 0.73025560E+03</rscale>
<asrwt>0</asrwt>
<pdfrwt beam="1">  1       21 0.74451808E-01 0.10291658E+04</pdfrwt>
<pdfrwt beam="2">  1       -4 0.13234008E+00 0.10291658E+04</pdfrwt>
<totfact> 0.25558234E+01</totfact>
</mgrwt>
</event>
<event>
 6    2  0.2294477E-005  0.1096729E+04  0.7818608E-02  0.9471623E-01
         -4   -1    0    0    0  501 -0.00000000000E+00  0.00000000000E+00  0.15945074337E+04  0.15945074337E+04  0.00000000000E+00 0. -1.
         21   -1    0    0  501  502  0.00000000000E+00 -0.00000000000E+00 -0.46205121782E+03  0.46205121782E+03  0.00000000000E+00 0. -1.
   -9000010    2    1    2    0  502  0.41064461962E+03 -0.99815545578E+02  0.32279755613E+03  0.11432463811E+04  0.10120384770E+04 0.  0.
         13    1    3    3    0    0 -0.20300958554E+03  0.15457965825E+03  0.40002571664E+03  0.47447692009E+03  0.10566000000E+00 0. -1.
         -4    1    3    3    0  502  0.61365420515E+03 -0.25439520383E+03 -0.77228160506E+02  0.66876946103E+03  0.00000000000E+00 0. -1.
        -13    1    1    2    0    0 -0.41064461962E+03  0.99815545578E+02  0.80965865973E+03  0.91331227036E+03  0.10566000000E+00 0.  1.
<mgrwt>
<rscale>  1 0.86408652E+03</rscale>
<asrwt>0</asrwt>
<pdfrwt beam="2">  1       21 0.71084804E-01 0.10967288E+04</pdfrwt>
<pdfrwt beam="1">  1       -4 0.24530883E+00 0.10967288E+04</pdfrwt>
<totfact> 0.45865677E+00</totfact>
</mgrwt>
</event>
<event>
 6    2  0.2294477E-005  0.1089955E+04  0.7818608E-02  0.9535243E-01
         21   -1    0    0  501  502  0.00000000000E+00  0.00000000000E+00  0.47624101644E+03  0.47624101644E+03  0.00000000000E+00 0.  1.
         -4   -1    0    0    0  501 -0.00000000000E+00 -0.00000000000E+00 -0.11721581484E+04  0.11721581484E+04  0.00000000000E+00 0. -1.
   -9000010    2    1    2    0  502 -0.10168486641E+03  0.32932406268E+03 -0.31471063164E+03  0.11344803411E+04  0.10340254892E+04 0.  0.
         13    1    3    3    0    0  0.43905686114E+03  0.26949199716E+03 -0.19570698727E+02  0.51553844402E+03  0.10566000000E+00 0. -1.
         -4    1    3    3    0  502 -0.54074172756E+03  0.59832065522E+02 -0.29513993292E+03  0.61894189710E+03  0.00000000000E+00 0. -1.
        -13    1    1    2    0    0  0.10168486641E+03 -0.32932406268E+03 -0.38120650028E+03  0.51391882369E+03  0.10566000000E+00 0.  1.
<mgrwt>
<rscale>  1 0.81734601E+03</rscale>
<asrwt>0</asrwt>
<pdfrwt beam="1">  1       21 0.73267849E-01 0.10899554E+04</pdfrwt>
<pdfrwt beam="2">  1       -4 0.18033202E+00 0.10899554E+04</pdfrwt>
<totfact> 0.11342879E+01</totfact>
</mgrwt>
</event>
<event>
 6    2  0.2294477E-005  0.1205100E+04  0.7818608E-02  0.9268202E-01
         21   -1    0    0  501  502  0.00000000000E+00  0.00000000000E+00  0.11634862532E+04  0.11634862532E+04  0.00000000000E+00 0.  1.
         -4   -1    0    0    0  501 -0.00000000000E+00 -0.00000000000E+00 -0.74936823936E+03  0.74936823936E+03  0.00000000000E+00 0. -1.
   -9000010    2    1    2    0  502 -0.43660370722E+03  0.49813194628E+03  0.26833780401E+03  0.12346140383E+04  0.10067315498E+04 0.  0.
         13    1    3    3    0    0 -0.12911709992E+03 -0.29274751232E+03 -0.58563217580E+02  0.32527218307E+03  0.10566000000E+00 0. -1.
         -4    1    3    3    0  502 -0.30748660730E+03  0.79087945860E+03  0.32690102160E+03  0.90934185520E+03  0.00000000000E+00 0. -1.
        -13    1    1    2    0    0  0.43660370722E+03 -0.49813194628E+03  0.14578020980E+03  0.67824045426E+03  0.10566000000E+00 0.  1.
<mgrwt>
<rscale>  1 0.10376372E+04</rscale>
<asrwt>0</asrwt>
<pdfrwt beam="1">  1       21 0.17899789E+00 0.12051003E+04</pdfrwt>
<pdfrwt beam="2">  1       -4 0.11528742E+00 0.12051003E+04</pdfrwt>
<totfact> 0.36261689E+00</totfact>
</mgrwt>
</event>
<event>
 6    2  0.2294477E-005  0.1032771E+04  0.7818608E-02  0.9690431E-01
         21   -1    0    0  501  502  0.00000000000E+00  0.00000000000E+00  0.33825013970E+03  0.33825013970E+03  0.00000000000E+00 0. -1.
         -4   -1    0    0    0  501 -0.00000000000E+00 -0.00000000000E+00 -0.12552641787E+04  0.12552641787E+04  0.00000000000E+00 0. -1.
   -9000010    2    1    2    0  502  0.17444465248E+02  0.23780260310E+03 -0.59198832132E+03  0.11904062489E+04  0.10048693832E+04 0.  0.
         13    1    3    3    0    0 -0.39483699945E+03  0.17028621035E+03 -0.63877894694E+03  0.77002091126E+03  0.10566000000E+00 0. -1.
         -4    1    3    3    0  502  0.41228146469E+03  0.67516392753E+02  0.46790625623E+02  0.42038533760E+03  0.00000000000E+00 0. -1.
        -13    1    1    2    0    0 -0.17444465248E+02 -0.23780260310E+03 -0.32502571773E+03  0.40310806958E+03  0.10566000000E+00 0.  1.
<mgrwt>
<rscale>  1 0.71589392E+03</rscale>
<asrwt>0</asrwt>
<pdfrwt beam="1">  1       21 0.52038482E-01 0.10327714E+04</pdfrwt>
<pdfrwt beam="2">  1       -4 0.19311757E+00 0.10327714E+04</pdfrwt>
<totfact> 0.20091454E+01</totfact>
</mgrwt>
</event>
<event>
 6    2  0.2294477E-005  0.1009870E+04  0.7818608E-02  0.9747916E-01
         21   -1    0    0  501  502  0.00000000000E+00  0.00000000000E+00  0.68169870687E+03  0.68169870687E+03  0.00000000000E+00 0. -1.
         -4   -1    0    0    0  501 -0.00000000000E+00 -0.00000000000E+00 -0.76520785168E+03  0.76520785168E+03  0.00000000000E+00 0. -1.
   -9000010    2    1    2    0  502 -0.17966158165E+03  0.10965190499E+03  0.26112284638E+03  0.10430835222E+04  0.98769239602E+03 0.  0.
         13    1    3    3    0    0  0.37005747320E+03 -0.14093992871E+03  0.33199469706E+02  0.39737741875E+03  0.10566000000E+00 0. -1.
         -4    1    3    3    0  502 -0.54971905485E+03  0.25059183370E+03  0.22792337667E+03  0.64570610344E+03  0.00000000000E+00 0. -1.
        -13    1    1    2    0    0  0.17966158165E+03 -0.10965190499E+03 -0.34463199118E+03  0.40382303636E+03  0.10566000000E+00 0.  1.
<mgrwt>
<rscale>  1 0.68234172E+03</rscale>
<asrwt>0</asrwt>
<pdfrwt beam="1">  1       21 0.10487672E+00 0.10098703E+04</pdfrwt>
<pdfrwt beam="2">  1       -4 0.11772428E+00 0.10098703E+04</pdfrwt>
<totfact> 0.15109684E+01</totfact>
</mgrwt>
</event>
<event>
 6    2  0.2294477E-005  0.9975041E+03  0.7818608E-02  0.1005766E+00
         21   -1    0    0  501  502  0.00000000000E+00  0.00000000000E+00  0.37400133177E+03  0.37400133177E+03  0.00000000000E+00 0. -1.
         -4   -1    0    0    0  501 -0.00000000000E+00 -0.00000000000E+00 -0.78207172357E+03  0.78207172357E+03  0.00000000000E+00 0. -1.
   -9000010    2    1    2    0  502  0.63642061568E+02  0.49557992945E+02 -0.40104690380E+03  0.10751061040E+04  0.99423750136E+03 0.  0.
         13    1    3    3    0    0  0.42747435806E+03  0.30420606044E+03 -0.88559773836E+02  0.53208880716E+03  0.10566000000E+00 0. -1.
         -4    1    3    3    0  502 -0.36383229649E+03 -0.25464806750E+03 -0.31248712997E+03  0.54301729682E+03  0.00000000000E+00 0. -1.
        -13    1    1    2    0    0 -0.63642061568E+02 -0.49557992945E+02 -0.70234880007E+01  0.80966951363E+02  0.10566000000E+00 0.  1.
<mgrwt>
<rscale>  1 0.53192818E+03</rscale>
<asrwt>0</asrwt>
<pdfrwt beam="1">  1       21 0.57538667E-01 0.99750414E+03</pdfrwt>
<pdfrwt beam="2">  1       -4 0.12031873E+00 0.99750414E+03</pdfrwt>
<totfact> 0.58574447E+01</totfact>
</mgrwt>
</event>
<event>
 6    2  0.2294477E-005  0.8107508E+03  0.7818608E-02  0.9867946E-01
         -4   -1    0    0    0  501 -0.00000000000E+00  0.00000000000E+00  0.88446389003E+03  0.88446389003E+03  0.00000000000E+00 0. -1.
         21   -1    0    0  501  502  0.00000000000E+00 -0.00000000000E+00 -0.35022117792E+03  0.35022117792E+03  0.00000000000E+00 0. -1.
   -9000010    2    1    2    0  502  0.24153929176E+03 -0.13025938777E+03  0.27214745188E+03  0.85520822522E+03  0.76289457683E+03 0.  0.
         13    1    3    3    0    0  0.42152609241E+03 -0.29114568234E+03  0.29840968586E+02  0.51316717500E+03  0.10566000000E+00 0. -1.
         -4    1    3    3    0  502 -0.17998680066E+03  0.16088629456E+03  0.24230648329E+03  0.34204105022E+03  0.00000000000E+00 0. -1.
        -13    1    1    2    0    0 -0.24153929176E+03  0.13025938777E+03  0.26209526024E+03  0.37947684273E+03  0.10566000000E+00 0.  1.
<mgrwt>
<rscale>  1 0.61840248E+03</rscale>
<asrwt>0</asrwt>
<pdfrwt beam="2">  1       21 0.53880182E-01 0.81075081E+03</pdfrwt>
<pdfrwt beam="1">  1       -4 0.13607137E+00 0.81075081E+03</pdfrwt>
<totfact> 0.50217457E+01</totfact>
</mgrwt>
</event>
<event>
 6    2  0.2294477E-005  0.1028122E+04  0.7818608E-02  0.1015520E+00
         21   -1    0    0  501  502  0.00000000000E+00  0.00000000000E+00  0.11561779054E+04  0.11561779054E+04  0.00000000000E+00 0. -1.
         -4   -1    0    0    0  501 -0.00000000000E+00 -0.00000000000E+00 -0.31762582628E+03  0.31762582628E+03  0.00000000000E+00 0. -1.
   -9000010    2    1    2    0  502  0.54508279051E+02  0.13932347149E+01  0.91741386872E+03  0.13779273185E+04  0.10266754088E+04 0.  0.
         13    1    3    3    0    0  0.14135033383E+03 -0.17244513237E+03  0.10933121819E+04  0.11158175383E+04  0.10566000000E+00 0. -1.
         -4    1    3    3    0  502 -0.86842054776E+02  0.17383836708E+03 -0.17589831314E+03  0.26210978027E+03  0.00000000000E+00 0. -1.
        -13    1    1    2    0    0 -0.54508279051E+02 -0.13932347149E+01 -0.78861789565E+02  0.95876413187E+02  0.10566000000E+00 0.  1.
<mgrwt>
<rscale>  1 0.49338378E+03</rscale>
<asrwt>0</asrwt>
<pdfrwt beam="1">  1       21 0.17787352E+00 0.10281223E+04</pdfrwt>
<pdfrwt beam="2">  1       -4 0.48865512E-01 0.10281223E+04</pdfrwt>
<totfact> 0.26751230E+01</totfact>
</mgrwt>
</event>
<event>
 6    2  0.2294477E-005  0.1160101E+04  0.7818608E-02  0.9339134E-01
         21   -1    0    0  501  502  0.00000000000E+00  0.00000000000E+00  0.73928907934E+03  0.73928907934E+03  0.00000000000E+00 0.  1.
         -4   -1    0    0    0  501 -0.00000000000E+00 -0.00000000000E+00 -0.11300568089E+04  0.11300568089E+04  0.00000000000E+00 0. -1.
   -9000010    2    1    2    0  502  0.25470434843E+03 -0.51338032770E+03 -0.53629867183E+03  0.12780651323E+04  0.10086627539E+04 0.  0.
         13    1    3    3    0    0 -0.69305473667E+01  0.58539672380E+02  0.25815630888E+03  0.26480108895E+03  0.10566000000E+00 0. -1.
         -4    1    3    3    0  502  0.26163489579E+03 -0.57192000008E+03 -0.79445498071E+03  0.10132640434E+04  0.00000000000E+00 0. -1.
        -13    1    1    2    0    0 -0.25470434843E+03  0.51338032770E+03  0.14553094229E+03  0.59128075590E+03  0.10566000000E+00 0.  1.
<mgrwt>
<rscale>  1 0.97258564E+03</rscale>
<asrwt>0</asrwt>
<pdfrwt beam="1">  1       21 0.11373678E+00 0.11601010E+04</pdfrwt>
<pdfrwt beam="2">  1       -4 0.17385489E+00 0.11601010E+04</pdfrwt>
<totfact> 0.42896391E+00</totfact>
</mgrwt>
</event>
<event>
 6    2  0.2294477E-005  0.1010124E+04  0.7818608E-02  0.1001422E+00
         21   -1    0    0  501  502  0.00000000000E+00  0.00000000000E+00  0.11770251556E+04  0.11770251556E+04  0.00000000000E+00 0. -1.
         -4   -1    0    0    0  501 -0.00000000000E+00 -0.00000000000E+00 -0.31936694057E+03  0.31936694057E+03  0.00000000000E+00 0. -1.
   -9000010    2    1    2    0  502 -0.83945967952E+02  0.29517454523E+02  0.93653673761E+03  0.13774802038E+04  0.10061970211E+04 0.  0.
         13    1    3    3    0    0  0.19641919154E+03  0.42815315118E+03  0.67861413050E+03  0.82608278577E+03  0.10566000000E+00 0. -1.
         -4    1    3    3    0  502 -0.28036515949E+03 -0.39863569665E+03  0.25792260710E+03  0.55139741798E+03  0.00000000000E+00 0. -1.
        -13    1    1    2    0    0  0.83945967952E+02 -0.29517454523E+02 -0.78878522616E+02  0.11891189239E+03  0.10566000000E+00 0.  1.
<mgrwt>
<rscale>  1 0.55031261E+03</rscale>
<asrwt>0</asrwt>
<pdfrwt beam="1">  1       21 0.18108079E+00 0.10101241E+04</pdfrwt>
<pdfrwt beam="2">  1       -4 0.49133376E-01 0.10101241E+04</pdfrwt>
<totfact> 0.25112878E+01</totfact>
</mgrwt>
</event>
<event>
 6    2  0.2294477E-005  0.1054513E+04  0.7818608E-02  0.9586079E-01
         -4   -1    0    0    0  501 -0.00000000000E+00  0.00000000000E+00  0.15638849210E+04  0.15638849210E+04  0.00000000000E+00 0. -1.
         21   -1    0    0  501  502  0.00000000000E+00 -0.00000000000E+00 -0.30925146249E+03  0.30925146249E+03  0.00000000000E+00 0. -1.
   -9000010    2    1    2    0  502 -0.31383450449E+03 -0.58886930948E+02  0.10789530650E+04  0.15086869649E+04  0.10050059079E+04 0.  0.
         13    1    3    3    0    0 -0.98350160099E+02 -0.26894279753E+03 -0.91141246399E+02  0.30051575715E+03  0.10566000000E+00 0. -1.
         -4    1    3    3    0  502 -0.21548434439E+03  0.21005586659E+03  0.11700943114E+04  0.12081712078E+04  0.00000000000E+00 0. -1.
        -13    1    1    2    0    0  0.31383450449E+03  0.58886930948E+02  0.17568039350E+03  0.36444941853E+03  0.10566000000E+00 0.  1.
<mgrwt>
<rscale>  1 0.78224441E+03</rscale>
<asrwt>0</asrwt>
<pdfrwt beam="2">  1       21 0.47577149E-01 0.10545125E+04</pdfrwt>
<pdfrwt beam="1">  1       -4 0.24059768E+00 0.10545125E+04</pdfrwt>
<totfact> 0.12032950E+01</totfact>
</mgrwt>
</event>
<event>
 6    2  0.2294477E-005  0.1022991E+04  0.7818608E-02  0.9609955E-01
         21   -1    0    0  501  502  0.00000000000E+00  0.00000000000E+00  0.20674258361E+03  0.20674258361E+03  0.00000000000E+00 0. -1.
         -4   -1    0    0    0  501 -0.00000000000E+00 -0.00000000000E+00 -0.23139698248E+04  0.23139698248E+04  0.00000000000E+00 0. -1.
   -9000010    2    1    2    0  502 -0.32036653956E+03  0.35009184631E+02 -0.13194821348E+04  0.16695938935E+04  0.97090179851E+03 0.  0.
         13    1    3    3    0    0  0.84513061170E+02 -0.13067246958E+03 -0.12082177824E+04  0.12181986589E+04  0.10566000000E+00 0. -1.
         -4    1    3    3    0  502 -0.40487960073E+03  0.16568165421E+03 -0.11126435242E+03  0.45139523453E+03  0.00000000000E+00 0. -1.
        -13    1    1    2    0    0  0.32036653956E+03 -0.35009184631E+02 -0.78774510639E+03  0.85111851495E+03  0.10566000000E+00 0.  1.
<mgrwt>
<rscale>  1 0.76640814E+03</rscale>
<asrwt>0</asrwt>
<pdfrwt beam="1">  1       21 0.31806552E-01 0.10229910E+04</pdfrwt>
<pdfrwt beam="2">  1       -4 0.35599535E+00 0.10229910E+04</pdfrwt>
<totfact> 0.53129116E+00</totfact>
</mgrwt>
</event>
<event>
 6    2  0.2294477E-005  0.1034939E+04  0.7818608E-02  0.9653087E-01
         21   -1    0    0  501  502  0.00000000000E+00  0.00000000000E+00  0.46722094430E+03  0.46722094430E+03  0.00000000000E+00 0. -1.
         -4   -1    0    0    0  501 -0.00000000000E+00 -0.00000000000E+00 -0.92282930923E+03  0.92282930923E+03  0.00000000000E+00 0. -1.
   -9000010    2    1    2    0  502 -0.14925175473E+03  0.22350671111E+03 -0.29173606119E+03  0.10752717929E+04  0.99943392124E+03 0.  0.
         13    1    3    3    0    0  0.12454508987E+03  0.11555998649E+03 -0.61503887534E+03  0.63807399197E+03  0.10566000000E+00 0. -1.
         -4    1    3    3    0  502 -0.27379684460E+03  0.10794672462E+03  0.32330281415E+03  0.43719780090E+03  0.00000000000E+00 0. -1.
        -13    1    1    2    0    0  0.14925175473E+03 -0.22350671111E+03 -0.16387230374E+03  0.31477846067E+03  0.10566000000E+00 0.  1.
<mgrwt>
<rscale>  1 0.73880002E+03</rscale>
<asrwt>0</asrwt>
<pdfrwt beam="1">  1       21 0.71880145E-01 0.10349394E+04</pdfrwt>
<pdfrwt beam="2">  1       -4 0.14197374E+00 0.10349394E+04</pdfrwt>
<totfact> 0.23062526E+01</totfact>
</mgrwt>
</event>
<event>
 6    2  0.2294477E-005  0.1074416E+04  0.7818608E-02  0.9509288E-01
         21   -1    0    0  501  502  0.00000000000E+00  0.00000000000E+00  0.59340370006E+03  0.59340370006E+03  0.00000000000E+00 0. -1.
         -4   -1    0    0    0  501 -0.00000000000E+00 -0.00000000000E+00 -0.91697523594E+03  0.91697523594E+03  0.00000000000E+00 0. -1.
   -9000010    2    1    2    0  502 -0.25766529614E+03 -0.29790382475E+03 -0.30134712426E+03  0.11158766809E+04  0.99961621838E+03 0.  0.
         13    1    3    3    0    0  0.26821440564E+03 -0.43098804405E+03 -0.26389333781E+03  0.57212705443E+03  0.10566000000E+00 0. -1.
         -4    1    3    3    0  502 -0.52587970178E+03  0.13308421930E+03 -0.37453786456E+02  0.54374962647E+03  0.00000000000E+00 0. -1.
        -13    1    1    2    0    0  0.25766529614E+03  0.29790382475E+03 -0.22224411620E+02  0.39450225510E+03  0.10566000000E+00 0.  1.
<mgrwt>
<rscale>  1 0.83602516E+03</rscale>
<asrwt>0</asrwt>
<pdfrwt beam="1">  1       21 0.91292878E-01 0.10744164E+04</pdfrwt>
<pdfrwt beam="2">  1       -4 0.14107311E+00 0.10744164E+04</pdfrwt>
<totfact> 0.13281177E+01</totfact>
</mgrwt>
</event>
<event>
 6    2  0.2294477E-005  0.1018678E+04  0.7818608E-02  0.9574720E-01
         -4   -1    0    0    0  501 -0.00000000000E+00  0.00000000000E+00  0.49297391920E+03  0.49297391920E+03  0.00000000000E+00 0. -1.
         21   -1    0    0  501  502  0.00000000000E+00 -0.00000000000E+00 -0.10013879170E+04  0.10013879170E+04  0.00000000000E+00 0. -1.
   -9000010    2    1    2    0  502  0.36362596225E+03  0.58621939312E+02 -0.26402692751E+03  0.10523376022E+04  0.94975988455E+03 0.  0.
         13    1    3    3    0    0  0.51543470552E+03 -0.31195262611E+03 -0.24806750294E+03  0.65155573343E+03  0.10566000000E+00 0. -1.
         -4    1    3    3    0  502 -0.15180874327E+03  0.37057456542E+03 -0.15959424576E+02  0.40078186873E+03  0.00000000000E+00 0. -1.
        -13    1    1    2    0    0 -0.36362596225E+03 -0.58621939312E+02 -0.24438707029E+03  0.44202423404E+03  0.10566000000E+00 0.  1.
<mgrwt>
<rscale>  1 0.78992212E+03</rscale>
<asrwt>0</asrwt>
<pdfrwt beam="2">  1       21 0.15405968E+00 0.10186777E+04</pdfrwt>
<pdfrwt beam="1">  1       -4 0.75842142E-01 0.10186777E+04</pdfrwt>
<totfact> 0.15548635E+01</totfact>
</mgrwt>
</event>
<event>
 6    2  0.2294477E-005  0.1062799E+04  0.7818608E-02  0.9549554E-01
         21   -1    0    0  501  502  0.00000000000E+00  0.00000000000E+00  0.40698324488E+03  0.40698324488E+03  0.00000000000E+00 0. -1.
         -4   -1    0    0    0  501 -0.00000000000E+00 -0.00000000000E+00 -0.19023833725E+04  0.19023833725E+04  0.00000000000E+00 0. -1.
   -9000010    2    1    2    0  502 -0.32153251531E+03  0.14754726431E+03 -0.36314022586E+03  0.11231264014E+04  0.10021919658E+04 0.  0.
         13    1    3    3    0    0 -0.25849585145E+03  0.51701251709E+03  0.31468792699E+02  0.57888888755E+03  0.10566000000E+00 0. -1.
         -4    1    3    3    0  502 -0.63036663861E+02 -0.36946525278E+03 -0.39460901856E+03  0.54423751389E+03  0.00000000000E+00 0. -1.
        -13    1    1    2    0    0  0.32153251531E+03 -0.14754726431E+03 -0.11322599017E+04  0.11862402159E+04  0.10566000000E+00 0.  1.
<mgrwt>
<rscale>  1 0.80726983E+03</rscale>
<asrwt>0</asrwt>
<pdfrwt beam="1">  1       21 0.62612806E-01 0.10627992E+04</pdfrwt>
<pdfrwt beam="2">  1       -4 0.29267437E+00 0.10627992E+04</pdfrwt>
<totfact> 0.31344473E+00</totfact>
</mgrwt>
</event>
<event>
 6    2  0.2294477E-005  0.1063265E+04  0.7818608E-02  0.9535649E-01
         21   -1    0    0  501  502  0.00000000000E+00  0.00000000000E+00  0.62043294711E+03  0.62043294711E+03  0.00000000000E+00 0. -1.
         -4   -1    0    0    0  501 -0.00000000000E+00 -0.00000000000E+00 -0.88939397370E+03  0.88939397370E+03  0.00000000000E+00 0. -1.
   -9000010    2    1    2    0  502 -0.37403605350E+02 -0.36886455693E+03 -0.36957186030E+03  0.11256620577E+04  0.99652978736E+03 0.  0.
         13    1    3    3    0    0  0.25201870724E+03 -0.98741461283E+02 -0.60659074279E+03  0.66424065321E+03  0.10566000000E+00 0. -1.
         -4    1    3    3    0  502 -0.28942231259E+03 -0.27012309565E+03  0.23701888250E+03  0.46142140445E+03  0.00000000000E+00 0. -1.
        -13    1    1    2    0    0  0.37403605350E+02  0.36886455693E+03  0.10061083370E+03  0.38416486314E+03  0.10566000000E+00 0.  1.
<mgrwt>
<rscale>  1 0.81705853E+03</rscale>
<asrwt>0</asrwt>
<pdfrwt beam="1">  1       21 0.95451223E-01 0.10632646E+04</pdfrwt>
<pdfrwt beam="2">  1       -4 0.13682984E+00 0.10632646E+04</pdfrwt>
<totfact> 0.12925644E+01</totfact>
</mgrwt>
</event>
<event>
 6    2  0.2294477E-005  0.1039795E+04  0.7818608E-02  0.9837210E-01
         -4   -1    0    0    0  501 -0.00000000000E+00  0.00000000000E+00  0.22650399095E+04  0.22650399095E+04  0.00000000000E+00 0. -1.
         21   -1    0    0  501  502  0.00000000000E+00 -0.00000000000E+00 -0.16343126731E+03  0.16343126731E+03  0.00000000000E+00 0. -1.
   -9000010    2    1    2    0  502 -0.90895162854E+02  0.11136340635E+03  0.16125280201E+04  0.19187029893E+04  0.10298110539E+04 0.  0.
         13    1    3    3    0    0  0.36811796435E+03  0.25949209178E+03  0.36020911875E+03  0.57671275499E+03  0.10566000000E+00 0. -1.
         -4    1    3    3    0  502 -0.45901312721E+03 -0.14812868543E+03  0.12523189014E+04  0.13419902344E+04  0.00000000000E+00 0. -1.
        -13    1    1    2    0    0  0.90895162854E+02 -0.11136340635E+03  0.48908062209E+03  0.50976818748E+03  0.10566000000E+00 0.  1.
<mgrwt>
<rscale>  1 0.63403331E+03</rscale>
<asrwt>0</asrwt>
<pdfrwt beam="2">  1       21 0.25143274E-01 0.10397954E+04</pdfrwt>
<pdfrwt beam="1">  1       -4 0.34846765E+00 0.10397954E+04</pdfrwt>
<totfact> 0.95052743E+00</totfact>
</mgrwt>
</event>
<event>
 6    2  0.2294477E-005  0.1127510E+04  0.7818608E-02  0.9400539E-01
         21   -1    0    0  501  502  0.00000000000E+00  0.00000000000E+00  0.78407176814E+03  0.78407176814E+03  0.00000000000E+00 0.  1.
         -4   -1    0    0    0  501 -0.00000000000E+00 -0.00000000000E+00 -0.11495039323E+04  0.11495039323E+04  0.00000000000E+00 0. -1.
   -9000010    2    1    2    0  502 -0.47603421051E+03  0.15448718225E+03  0.23518024285E+03  0.11517764080E+04  0.10103485974E+04 0.  0.
         13    1    3    3    0    0  0.30895799572E+03  0.24224122729E+02 -0.33970517166E+02  0.31176250327E+03  0.10566000000E+00 0. -1.
         -4    1    3    3    0  502 -0.78499220624E+03  0.13026305952E+03  0.26915076002E+03  0.84001390473E+03  0.00000000000E+00 0. -1.
        -13    1    1    2    0    0  0.47603421051E+03 -0.15448718225E+03 -0.60061240704E+03  0.78179929247E+03  0.10566000000E+00 0.  1.
<mgrwt>
<rscale>  1 0.92031366E+03</rscale>
<asrwt>0</asrwt>
<pdfrwt beam="1">  1       21 0.12062643E+00 0.11275102E+04</pdfrwt>
<pdfrwt beam="2">  1       -4 0.17684676E+00 0.11275102E+04</pdfrwt>
<totfact> 0.35229368E+00</totfact>
</mgrwt>
</event>
<event>
 6    2  0.2294477E-005  0.1019135E+04  0.7818608E-02  0.9689231E-01
         -4   -1    0    0    0  501 -0.00000000000E+00  0.00000000000E+00  0.14771751961E+04  0.14771751961E+04  0.00000000000E+00 0. -1.
         21   -1    0    0  501  502  0.00000000000E+00 -0.00000000000E+00 -0.44985023658E+03  0.44985023658E+03  0.00000000000E+00 0. -1.
   -9000010    2    1    2    0  502 -0.21524483336E+02 -0.24821296713E+03  0.16872354884E+03  0.10330067673E+04  0.98821170048E+03 0.  0.
         13    1    3    3    0    0 -0.30091122093E+03 -0.48992812293E+03 -0.90034063008E+02  0.58196500942E+03  0.10566000000E+00 0. -1.
         -4    1    3    3    0  502  0.27938673759E+03  0.24171515580E+03  0.25875761185E+03  0.45104175790E+03  0.00000000000E+00 0. -1.
        -13    1    1    2    0    0  0.21524483336E+02  0.24821296713E+03  0.85860141067E+03  0.89401866535E+03  0.10566000000E+00 0.  1.
<mgrwt>
<rscale>  1 0.71661599E+03</rscale>
<asrwt>0</asrwt>
<pdfrwt beam="2">  1       21 0.69207729E-01 0.10191346E+04</pdfrwt>
<pdfrwt beam="1">  1       -4 0.22725772E+00 0.10191346E+04</pdfrwt>
<totfact> 0.63900153E+00</totfact>
</mgrwt>
</event>
<event>
 6    2  0.2294477E-005  0.1039030E+04  0.7818608E-02  0.9676465E-01
         21   -1    0    0  501  502  0.00000000000E+00  0.00000000000E+00  0.65464203144E+03  0.65464203144E+03  0.00000000000E+00 0. -1.
         -4   -1    0    0    0  501 -0.00000000000E+00 -0.00000000000E+00 -0.66091332182E+03  0.66091332182E+03  0.00000000000E+00 0. -1.
   -9000010    2    1    2    0  502  0.79677832076E+02  0.23213285811E+03  0.10838393182E+03  0.10446678270E+04  0.10096284323E+04 0.  0.
         13    1    3    3    0    0  0.53615336614E+03  0.22293867584E+02  0.52993315100E+02  0.53922699410E+03  0.10566000000E+00 0. -1.
         -4    1    3    3    0  502 -0.45647553406E+03  0.20983899053E+03  0.55390616720E+02  0.50544083290E+03  0.00000000000E+00 0. -1.
        -13    1    1    2    0    0 -0.79677832076E+02 -0.23213285811E+03 -0.11465522220E+03  0.27088752625E+03  0.10566000000E+00 0.  1.
<mgrwt>
<rscale>  1 0.72435516E+03</rscale>
<asrwt>0</asrwt>
<pdfrwt beam="1">  1       21 0.10071416E+00 0.10390302E+04</pdfrwt>
<pdfrwt beam="2">  1       -4 0.10167897E+00 0.10390302E+04</pdfrwt>
<totfact> 0.23908007E+01</totfact>
</mgrwt>
</event>
<event>
 6    2  0.2294477E-005  0.1040733E+04  0.7818608E-02  0.9830122E-01
         21   -1    0    0  501  502  0.00000000000E+00  0.00000000000E+00  0.95175989730E+03  0.95175989730E+03  0.00000000000E+00 0. -1.
         -4   -1    0    0    0  501 -0.00000000000E+00 -0.00000000000E+00 -0.38461909275E+03  0.38461909275E+03  0.00000000000E+00 0. -1.
   -9000010    2    1    2    0  502  0.28934816967E+02 -0.14383155611E+03  0.40250196364E+03  0.11158552968E+04  0.10303399791E+04 0.  0.
         13    1    3    3    0    0  0.30010676713E+03 -0.20266437248E+02  0.65789234191E+03  0.72339280122E+03  0.10566000000E+00 0. -1.
         -4    1    3    3    0  502 -0.27117195016E+03 -0.12356511887E+03 -0.25539037827E+03  0.39246249562E+03  0.00000000000E+00 0. -1.
        -13    1    1    2    0    0 -0.28934816967E+02  0.14383155611E+03  0.16463884091E+03  0.22052369321E+03  0.10566000000E+00 0.  1.
<mgrwt>
<rscale>  1 0.63770794E+03</rscale>
<asrwt>0</asrwt>
<pdfrwt beam="1">  1       21 0.14642460E+00 0.10407330E+04</pdfrwt>
<pdfrwt beam="2">  1       -4 0.59172168E-01 0.10407330E+04</pdfrwt>
<totfact> 0.31035325E+01</totfact>
</mgrwt>
</event>
<event>
 6    2  0.2294477E-005  0.1295012E+04  0.7818608E-02  0.9153769E-01
         -4   -1    0    0    0  501 -0.00000000000E+00  0.00000000000E+00  0.11404973878E+04  0.11404973878E+04  0.00000000000E+00 0. -1.
         21   -1    0    0  501  502  0.00000000000E+00 -0.00000000000E+00 -0.98883237786E+03  0.98883237786E+03  0.00000000000E+00 0.  1.
   -9000010    2    1    2    0  502  0.47832660766E+03  0.66308986763E+03 -0.14085689728E+02  0.12950889001E+04  0.10042770217E+04 0.  0.
         13    1    3    3    0    0 -0.19269609513E+03 -0.65496832209E+02  0.19598781739E+03  0.28254708605E+03  0.10566000000E+00 0. -1.
         -4    1    3    3    0  502  0.67102270279E+03  0.72858669984E+03 -0.21007350712E+03  0.10125418141E+04  0.00000000000E+00 0. -1.
        -13    1    1    2    0    0 -0.47832660766E+03 -0.66308986763E+03  0.16575069967E+03  0.83424086555E+03  0.10566000000E+00 0.  1.
<mgrwt>
<rscale>  1 0.11543615E+04</rscale>
<asrwt>0</asrwt>
<pdfrwt beam="2">  1       21 0.15212806E+00 0.12950123E+04</pdfrwt>
<pdfrwt beam="1">  1       -4 0.17546114E+00 0.12950123E+04</pdfrwt>
<totfact> 0.18831507E+00</totfact>
</mgrwt>
</event>
<event>
 6    2  0.2294477E-005  0.1096675E+04  0.7818608E-02  0.9508577E-01
         21   -1    0    0  501  502  0.00000000000E+00  0.00000000000E+00  0.18872550278E+04  0.18872550278E+04  0.00000000000E+00 0. -1.
         -4   -1    0    0    0  501 -0.00000000000E+00 -0.00000000000E+00 -0.29697519757E+03  0.29697519757E+03  0.00000000000E+00 0. -1.
   -9000010    2    1    2    0  502  0.33054665171E+03  0.16911602997E+03  0.13609447808E+04  0.17478176950E+04  0.10319082702E+04 0.  0.
         13    1    3    3    0    0  0.61533000660E+03  0.93940570668E+01  0.12662077212E+04  0.14078356686E+04  0.10566000000E+00 0. -1.
         -4    1    3    3    0  502 -0.28478335489E+03  0.15972197290E+03  0.94737059581E+02  0.33998202645E+03  0.00000000000E+00 0. -1.
        -13    1    1    2    0    0 -0.33054665171E+03 -0.16911602997E+03  0.22933504939E+03  0.43641253028E+03  0.10566000000E+00 0.  1.
<mgrwt>
<rscale>  1 0.83654394E+03</rscale>
<asrwt>0</asrwt>
<pdfrwt beam="1">  1       21 0.29034692E+00 0.10966750E+04</pdfrwt>
<pdfrwt beam="2">  1       -4 0.45688493E-01 0.10966750E+04</pdfrwt>
<totfact> 0.55530231E+00</totfact>
</mgrwt>
</event>
<event>
 6    2  0.2294477E-005  0.1043673E+04  0.7818608E-02  0.9623929E-01
         -4   -1    0    0    0  501 -0.00000000000E+00  0.00000000000E+00  0.14722614169E+04  0.14722614169E+04  0.00000000000E+00 0. -1.
         21   -1    0    0  501  502  0.00000000000E+00 -0.00000000000E+00 -0.30487958031E+03  0.30487958031E+03  0.00000000000E+00 0. -1.
   -9000010    2    1    2    0  502  0.16711334356E+03  0.23622200431E+03  0.83607765902E+03  0.13372658170E+04  0.10027593473E+04 0.  0.
         13    1    3    3    0    0  0.37733598904E+03  0.38730500387E+03  0.90792242403E+02  0.54829814617E+03  0.10566000000E+00 0. -1.
         -4    1    3    3    0  502 -0.21022264548E+03 -0.15108299956E+03  0.74528541661E+03  0.78896767085E+03  0.00000000000E+00 0. -1.
        -13    1    1    2    0    0 -0.16711334356E+03 -0.23622200431E+03  0.33130417760E+03  0.43987518023E+03  0.10566000000E+00 0.  1.
<mgrwt>
<rscale>  1 0.75732465E+03</rscale>
<asrwt>0</asrwt>
<pdfrwt beam="2">  1       21 0.46904552E-01 0.10436733E+04</pdfrwt>
<pdfrwt beam="1">  1       -4 0.22650175E+00 0.10436733E+04</pdfrwt>
<totfact> 0.15230549E+01</totfact>
</mgrwt>
</event>
<event>
 6    2  0.2294477E-005  0.1019336E+04  0.7818608E-02  0.9870404E-01
         21   -1    0    0  501  502  0.00000000000E+00  0.00000000000E+00  0.34378053538E+03  0.34378053538E+03  0.00000000000E+00 0. -1.
         -4   -1    0    0    0  501 -0.00000000000E+00 -0.00000000000E+00 -0.10714809364E+04  0.10714809364E+04  0.00000000000E+00 0. -1.
   -9000010    2    1    2    0  502 -0.90059685761E+02 -0.10321994208E+03 -0.46797948366E+03  0.11216289301E+04  0.10100898754E+04 0.  0.
         13    1    3    3    0    0 -0.11767021495E+03  0.35946172398E+03  0.97369858632E+02  0.39056358129E+03  0.10566000000E+00 0. -1.
         -4    1    3    3    0  502  0.27610529192E+02 -0.46268166607E+03 -0.56534934229E+03  0.73106534883E+03  0.00000000000E+00 0. -1.
        -13    1    1    2    0    0  0.90059685761E+02  0.10321994208E+03 -0.25972091739E+03  0.29363254168E+03  0.10566000000E+00 0.  1.
<mgrwt>
<rscale>  1 0.61717318E+03</rscale>
<asrwt>0</asrwt>
<pdfrwt beam="1">  1       21 0.52889314E-01 0.10193364E+04</pdfrwt>
<pdfrwt beam="2">  1       -4 0.16484322E+00 0.10193364E+04</pdfrwt>
<totfact> 0.30648989E+01</totfact>
</mgrwt>
</event>
<event>
 6    2  0.2294477E-005  0.1056005E+04  0.7818608E-02  0.9547483E-01
         -4   -1    0    0    0  501 -0.00000000000E+00  0.00000000000E+00  0.71329411412E+03  0.71329411412E+03  0.00000000000E+00 0. -1.
         21   -1    0    0  501  502  0.00000000000E+00 -0.00000000000E+00 -0.74434052433E+03  0.74434052433E+03  0.00000000000E+00 0.  1.
   -9000010    2    1    2    0  502  0.36107331411E+02 -0.36143831359E+03 -0.16829603166E+03  0.10693320970E+04  0.99156753960E+03 0.  0.
         13    1    3    3    0    0 -0.45174140564E+03 -0.52343763376E+01 -0.62173890176E+02  0.45602993328E+03  0.10566000000E+00 0. -1.
         -4    1    3    3    0  502  0.48784873705E+03 -0.35620393725E+03 -0.10612214149E+03  0.61330216376E+03  0.00000000000E+00 0. -1.
        -13    1    1    2    0    0 -0.36107331411E+02  0.36143831359E+03  0.13724962145E+03  0.38830254141E+03  0.10566000000E+00 0.  1.
<mgrwt>
<rscale>  1 0.80871829E+03</rscale>
<asrwt>0</asrwt>
<pdfrwt beam="2">  1       21 0.11451393E+00 0.10560055E+04</pdfrwt>
<pdfrwt beam="1">  1       -4 0.10973756E+00 0.10560055E+04</pdfrwt>
<totfact> 0.14321310E+01</totfact>
</mgrwt>
</event>
<event>
 6    2  0.2294477E-005  0.1000317E+04  0.7818608E-02  0.1003197E+00
         21   -1    0    0  501  502  0.00000000000E+00  0.00000000000E+00  0.50390621439E+03  0.50390621439E+03  0.00000000000E+00 0. -1.
         -4   -1    0    0    0  501 -0.00000000000E+00 -0.00000000000E+00 -0.62537977800E+03  0.62537977800E+03  0.00000000000E+00 0. -1.
   -9000010    2    1    2    0  502  0.13550238478E+02  0.85597510368E+02 -0.26433439466E+02  0.10006657020E+04  0.99655535603E+03 0.  0.
         13    1    3    3    0    0 -0.33130369387E+02 -0.28884595638E+03 -0.38344086766E+03  0.48120319830E+03  0.10566000000E+00 0. -1.
         -4    1    3    3    0  502  0.46680607865E+02  0.37444346675E+03  0.35700742819E+03  0.51946250368E+03  0.00000000000E+00 0. -1.
        -13    1    1    2    0    0 -0.13550238478E+02 -0.85597510368E+02 -0.95040124142E+02  0.12862029041E+03  0.10566000000E+00 0.  1.
<mgrwt>
<rscale>  1 0.54270281E+03</rscale>
<asrwt>0</asrwt>
<pdfrwt beam="1">  1       21 0.77524033E-01 0.10003165E+04</pdfrwt>
<pdfrwt beam="2">  1       -4 0.96212273E-01 0.10003165E+04</pdfrwt>
<totfact> 0.51437093E+01</totfact>
</mgrwt>
</event>
<event>
 6    2  0.2294477E-005  0.1118412E+04  0.7818608E-02  0.9412967E-01
         -4   -1    0    0    0  501 -0.00000000000E+00  0.00000000000E+00  0.90223194901E+03  0.90223194901E+03  0.00000000000E+00 0. -1.
         21   -1    0    0  501  502  0.00000000000E+00 -0.00000000000E+00 -0.71830462325E+03  0.71830462325E+03  0.00000000000E+00 0. -1.
   -9000010    2    1    2    0  502  0.24620281685E+01 -0.49052834544E+03  0.99992542738E+02  0.11228728522E+04  0.10050974154E+04 0.  0.
         13    1    3    3    0    0  0.35452520513E+03  0.12337788242E+03 -0.98083526216E+02  0.38798274733E+03  0.10566000000E+00 0. -1.
         -4    1    3    3    0  502 -0.35206317696E+03 -0.61390622787E+03  0.19807606895E+03  0.73489010490E+03  0.00000000000E+00 0. -1.
        -13    1    1    2    0    0 -0.24620281685E+01  0.49052834544E+03  0.83934783027E+02  0.49766372003E+03  0.10566000000E+00 0.  1.
<mgrwt>
<rscale>  1 0.91016200E+03</rscale>
<asrwt>0</asrwt>
<pdfrwt beam="2">  1       21 0.11050840E+00 0.11184118E+04</pdfrwt>
<pdfrwt beam="1">  1       -4 0.13880492E+00 0.11184118E+04</pdfrwt>
<totfact> 0.85814859E+00</totfact>
</mgrwt>
</event>
<event>
 6    2  0.2294477E-005  0.1015733E+04  0.7818608E-02  0.9719465E-01
         -4   -1    0    0    0  501 -0.00000000000E+00  0.00000000000E+00  0.76060687917E+03  0.76060687917E+03  0.00000000000E+00 0. -1.
         21   -1    0    0  501  502  0.00000000000E+00 -0.00000000000E+00 -0.51136146070E+03  0.51136146070E+03  0.00000000000E+00 0. -1.
   -9000010    2    1    2    0  502 -0.14713384980E+03 -0.17340127151E+03  0.24336042148E+03  0.10444798455E+04  0.98994822197E+03 0.  0.
         13    1    3    3    0    0  0.11226708510E+02  0.40466359642E+03  0.17571792359E+03  0.44131107519E+03  0.10566000000E+00 0. -1.
         -4    1    3    3    0  502 -0.15836055831E+03 -0.57806486792E+03  0.67642497886E+02  0.60316877031E+03  0.00000000000E+00 0. -1.
        -13    1    1    2    0    0  0.14713384980E+03  0.17340127151E+03  0.58849969956E+01  0.22748849437E+03  0.10566000000E+00 0.  1.
<mgrwt>
<rscale>  1 0.69869606E+03</rscale>
<asrwt>0</asrwt>
<pdfrwt beam="2">  1       21 0.78670994E-01 0.10157332E+04</pdfrwt>
<pdfrwt beam="1">  1       -4 0.11701644E+00 0.10157332E+04</pdfrwt>
<totfact> 0.30768115E+01</totfact>
</mgrwt>
</event>
<event>
 6    2  0.2294477E-005  0.1062851E+04  0.7818608E-02  0.9560681E-01
         21   -1    0    0  501  502  0.00000000000E+00  0.00000000000E+00  0.78120357645E+03  0.78120357645E+03  0.00000000000E+00 0. -1.
         -4   -1    0    0    0  501 -0.00000000000E+00 -0.00000000000E+00 -0.64110244723E+03  0.64110244723E+03  0.00000000000E+00 0. -1.
   -9000010    2    1    2    0  502 -0.33670015531E+03  0.49822573615E+02  0.25474494406E+02  0.10631562499E+04  0.10068778369E+04 0.  0.
         13    1    3    3    0    0 -0.31418571235E+03  0.50490644081E+03 -0.66305294266E+02  0.59836408567E+03  0.10566000000E+00 0. -1.
         -4    1    3    3    0  502 -0.22514442959E+02 -0.45508386719E+03  0.91779788671E+02  0.46479216423E+03  0.00000000000E+00 0. -1.
        -13    1    1    2    0    0  0.33670015531E+03 -0.49822573615E+02  0.11462663482E+03  0.35914977377E+03  0.10566000000E+00 0.  1.
<mgrwt>
<rscale>  1 0.79954152E+03</rscale>
<asrwt>0</asrwt>
<pdfrwt beam="1">  1       21 0.12018517E+00 0.10628510E+04</pdfrwt>
<pdfrwt beam="2">  1       -4 0.98631146E-01 0.10628510E+04</pdfrwt>
<totfact> 0.16389881E+01</totfact>
</mgrwt>
</event>
<event>
 6    2  0.2294477E-005  0.1006827E+04  0.7818608E-02  0.1000265E+00
         -4   -1    0    0    0  501 -0.00000000000E+00  0.00000000000E+00  0.51317129786E+03  0.51317129786E+03  0.00000000000E+00 0. -1.
         21   -1    0    0  501  502  0.00000000000E+00 -0.00000000000E+00 -0.13753815804E+04  0.13753815804E+04  0.00000000000E+00 0. -1.
   -9000010    2    1    2    0  502  0.67990927410E+02 -0.63731845637E+02 -0.11836135250E+04  0.15539119218E+04  0.10025052468E+04 0.  0.
         13    1    3    3    0    0 -0.40914369346E+03 -0.26025034857E+03 -0.48962942549E+03  0.68910506550E+03  0.10566000000E+00 0. -1.
         -4    1    3    3    0  502  0.47713462087E+03  0.19651850293E+03 -0.69398409949E+03  0.86480685633E+03  0.00000000000E+00 0. -1.
        -13    1    1    2    0    0 -0.67990927410E+02  0.63731845637E+02  0.32140324240E+03  0.33464095647E+03  0.10566000000E+00 0.  1.
<mgrwt>
<rscale>  1 0.55534071E+03</rscale>
<asrwt>0</asrwt>
<pdfrwt beam="2">  1       21 0.21159716E+00 0.10068273E+04</pdfrwt>
<pdfrwt beam="1">  1       -4 0.78949431E-01 0.10068273E+04</pdfrwt>
<totfact> 0.54451778E+00</totfact>
</mgrwt>
</event>
<event>
 6    2  0.2294477E-005  0.1023099E+04  0.7818608E-02  0.9715889E-01
         21   -1    0    0  501  502  0.00000000000E+00  0.00000000000E+00  0.17817641731E+04  0.17817641731E+04  0.00000000000E+00 0. -1.
         -4   -1    0    0    0  501 -0.00000000000E+00 -0.00000000000E+00 -0.22048294484E+03  0.22048294484E+03  0.00000000000E+00 0. -1.
   -9000010    2    1    2    0  502  0.19056705885E+03  0.12001631555E+03  0.12048937087E+04  0.15806646288E+04  0.99800405784E+03 0.  0.
         13    1    3    3    0    0 -0.31224428209E+03 -0.21182528174E+03  0.69751499160E+03  0.79302813087E+03  0.10566000000E+00 0. -1.
         -4    1    3    3    0  502  0.50281134094E+03  0.33184159729E+03  0.50737871711E+03  0.78763649791E+03  0.00000000000E+00 0. -1.
        -13    1    1    2    0    0 -0.19056705885E+03 -0.12001631555E+03  0.35638751960E+03  0.42158248920E+03  0.10566000000E+00 0.  1.
<mgrwt>
<rscale>  1 0.70078606E+03</rscale>
<asrwt>0</asrwt>
<pdfrwt beam="1">  1       21 0.27411756E+00 0.10230991E+04</pdfrwt>
<pdfrwt beam="2">  1       -4 0.33920454E-01 0.10230991E+04</pdfrwt>
<totfact> 0.13007601E+01</totfact>
</mgrwt>
</event>
<event>
 6    2  0.2294477E-005  0.1333940E+04  0.7818608E-02  0.9069767E-01
         21   -1    0    0  501  502  0.00000000000E+00  0.00000000000E+00  0.17894410797E+04  0.17894410797E+04  0.00000000000E+00 0.  1.
         -4   -1    0    0    0  501 -0.00000000000E+00 -0.00000000000E+00 -0.86465033238E+03  0.86465033238E+03  0.00000000000E+00 0. -1.
   -9000010    2    1    2    0  502  0.97118962150E+03  0.34369242494E+03  0.92606225553E+03  0.16238800785E+04  0.84738506270E+03 0.  0.
         13    1    3    3    0    0  0.21579338632E+03  0.44563785056E+03  0.64125524153E+03  0.81016552345E+03  0.10566000000E+00 0. -1.
         -4    1    3    3    0  502  0.75539623519E+03 -0.10194542562E+03  0.28480701400E+03  0.81371455509E+03  0.00000000000E+00 0. -1.
        -13    1    1    2    0    0 -0.97118962150E+03 -0.34369242494E+03 -0.12715081928E+01  0.10302113336E+04  0.10566000000E+00 0.  1.
<mgrwt>
<rscale>  1 0.12504999E+04</rscale>
<asrwt>0</asrwt>
<pdfrwt beam="1">  1       21 0.27529863E+00 0.13339397E+04</pdfrwt>
<pdfrwt beam="2">  1       -4 0.13302313E+00 0.13339397E+04</pdfrwt>
<totfact> 0.56432181E-01</totfact>
</mgrwt>
</event>
<event>
 6    2  0.2294477E-005  0.1028069E+04  0.7818608E-02  0.9697872E-01
         -4   -1    0    0    0  501 -0.00000000000E+00  0.00000000000E+00  0.49454033490E+03  0.49454033490E+03  0.00000000000E+00 0. -1.
         21   -1    0    0  501  502  0.00000000000E+00 -0.00000000000E+00 -0.14426056480E+04  0.14426056480E+04  0.00000000000E+00 0. -1.
   -9000010    2    1    2    0  502  0.19119268396E+03  0.13794895640E+03 -0.12079783213E+04  0.15862338287E+04  0.10006705639E+04 0.  0.
         13    1    3    3    0    0 -0.59698825339E+02  0.47317578678E+03 -0.10225355213E+04  0.11282899355E+04  0.10566000000E+00 0. -1.
         -4    1    3    3    0  502  0.25089150929E+03 -0.33522683038E+03 -0.18544280002E+03  0.45794389320E+03  0.00000000000E+00 0. -1.
        -13    1    1    2    0    0 -0.19119268396E+03 -0.13794895640E+03  0.25991300824E+03  0.35091215423E+03  0.10566000000E+00 0.  1.
<mgrwt>
<rscale>  1 0.71143630E+03</rscale>
<asrwt>0</asrwt>
<pdfrwt beam="2">  1       21 0.22193933E+00 0.10280691E+04</pdfrwt>
<pdfrwt beam="1">  1       -4 0.76083129E-01 0.10280691E+04</pdfrwt>
<totfact> 0.50409179E+00</totfact>
</mgrwt>
</event>
<event>
 6    2  0.2294477E-005  0.1012289E+04  0.7818608E-02  0.9816661E-01
         -4   -1    0    0    0  501 -0.00000000000E+00  0.00000000000E+00  0.58940319555E+03  0.58940319555E+03  0.00000000000E+00 0. -1.
         21   -1    0    0  501  502  0.00000000000E+00 -0.00000000000E+00 -0.58975665193E+03  0.58975665193E+03  0.00000000000E+00 0. -1.
   -9000010    2    1    2    0  502 -0.67799234443E+02  0.15218205893E+03 -0.90839355767E+01  0.10123295514E+04  0.99848509631E+03 0.  0.
         13    1    3    3    0    0 -0.19241151145E+03  0.32266543685E+03  0.40197651840E+03  0.55020024208E+03  0.10566000000E+00 0. -1.
         -4    1    3    3    0  502  0.12461227701E+03 -0.17048337792E+03 -0.41106045398E+03  0.46212930934E+03  0.00000000000E+00 0. -1.
        -13    1    1    2    0    0  0.67799234443E+02 -0.15218205893E+03  0.87304791975E+01  0.16683029606E+03  0.10566000000E+00 0.  1.
<mgrwt>
<rscale>  1 0.64476014E+03</rscale>
<asrwt>0</asrwt>
<pdfrwt beam="2">  1       21 0.90731792E-01 0.10122888E+04</pdfrwt>
<pdfrwt beam="1">  1       -4 0.90677415E-01 0.10122888E+04</pdfrwt>
<totfact> 0.40685121E+01</totfact>
</mgrwt>
</event>
<event>
 6    2  0.2294477E-005  0.1023972E+04  0.7818608E-02  0.9914305E-01
         -4   -1    0    0    0  501 -0.00000000000E+00  0.00000000000E+00  0.13277317492E+04  0.13277317492E+04  0.00000000000E+00 0. -1.
         21   -1    0    0  501  502  0.00000000000E+00 -0.00000000000E+00 -0.25129900867E+03  0.25129900867E+03  0.00000000000E+00 0. -1.
   -9000010    2    1    2    0  502  0.36736757078E+02 -0.11140871759E+03  0.87961292238E+03  0.13499029689E+04  0.10172303774E+04 0.  0.
         13    1    3    3    0    0 -0.43874497872E+03 -0.35861779089E+02  0.71772246648E+03  0.84196720459E+03  0.10566000000E+00 0. -1.
         -4    1    3    3    0  502  0.47548173580E+03 -0.75546938501E+02  0.16189045590E+03  0.50793576435E+03  0.00000000000E+00 0. -1.
        -13    1    1    2    0    0 -0.36736757078E+02  0.11140871759E+03  0.19681981816E+03  0.22912778893E+03  0.10566000000E+00 0.  1.
<mgrwt>
<rscale>  1 0.59572986E+03</rscale>
<asrwt>0</asrwt>
<pdfrwt beam="2">  1       21 0.38661387E-01 0.10239722E+04</pdfrwt>
<pdfrwt beam="1">  1       -4 0.20426642E+00 0.10239722E+04</pdfrwt>
<totfact> 0.31922259E+01</totfact>
</mgrwt>
</event>
<event>
 6    2  0.2294477E-005  0.1023443E+04  0.7818608E-02  0.9713700E-01
         21   -1    0    0  501  502  0.00000000000E+00  0.00000000000E+00  0.80955936893E+03  0.80955936893E+03  0.00000000000E+00 0. -1.
         -4   -1    0    0    0  501 -0.00000000000E+00 -0.00000000000E+00 -0.48309269135E+03  0.48309269135E+03  0.00000000000E+00 0. -1.
   -9000010    2    1    2    0  502  0.81097163859E+02  0.21162997434E+03  0.25088662978E+03  0.10537454869E+04  0.99803379405E+03 0.  0.
         13    1    3    3    0    0  0.34426016373E+03 -0.29407454167E+03  0.93171018443E+02  0.46225073957E+03  0.10566000000E+00 0. -1.
         -4    1    3    3    0  502 -0.26316299987E+03  0.50570451601E+03  0.15771561133E+03  0.59149474730E+03  0.00000000000E+00 0. -1.
        -13    1    1    2    0    0 -0.81097163859E+02 -0.21162997434E+03  0.75580047809E+02  0.23890657341E+03  0.10566000000E+00 0.  1.
<mgrwt>
<rscale>  1 0.70206956E+03</rscale>
<asrwt>0</asrwt>
<pdfrwt beam="1">  1       21 0.12454760E+00 0.10234429E+04</pdfrwt>
<pdfrwt beam="2">  1       -4 0.74321952E-01 0.10234429E+04</pdfrwt>
<totfact> 0.28987763E+01</totfact>
</mgrwt>
</event>
<event>
 6    2  0.2294477E-005  0.1003333E+04  0.7818608E-02  0.9765629E-01
         21   -1    0    0  501  502  0.00000000000E+00  0.00000000000E+00  0.11368992381E+04  0.11368992381E+04  0.00000000000E+00 0. -1.
         -4   -1    0    0    0  501 -0.00000000000E+00 -0.00000000000E+00 -0.38254135729E+03  0.38254135729E+03  0.00000000000E+00 0. -1.
   -9000010    2    1    2    0  502  0.13344747880E+03 -0.15215643160E+03  0.83125021552E+03  0.13029405918E+04  0.98270924264E+03 0.  0.
         13    1    3    3    0    0 -0.32400750968E+03 -0.35372044049E+03  0.26656352791E+03  0.54877603986E+03  0.10566000000E+00 0. -1.
         -4    1    3    3    0  502  0.45745498848E+03  0.20156400889E+03  0.56468668761E+03  0.75416455189E+03  0.00000000000E+00 0. -1.
        -13    1    1    2    0    0 -0.13344747880E+03  0.15215643160E+03 -0.76892334702E+02  0.21650000364E+03  0.10566000000E+00 0.  1.
<mgrwt>
<rscale>  1 0.67240139E+03</rscale>
<asrwt>0</asrwt>
<pdfrwt beam="1">  1       21 0.17490757E+00 0.10033331E+04</pdfrwt>
<pdfrwt beam="2">  1       -4 0.58852517E-01 0.10033331E+04</pdfrwt>
<totfact> 0.18958587E+01</totfact>
</mgrwt>
</event>
<event>
 6    2  0.2294477E-005  0.1051198E+04  0.7818608E-02  0.9581073E-01
         -4   -1    0    0    0  501 -0.00000000000E+00  0.00000000000E+00  0.89338076697E+03  0.89338076697E+03  0.00000000000E+00 0. -1.
         21   -1    0    0  501  502  0.00000000000E+00 -0.00000000000E+00 -0.10316239452E+04  0.10316239452E+04  0.00000000000E+00 0. -1.
   -9000010    2    1    2    0  502 -0.18303813076E+02 -0.32742427182E+03 -0.70815481469E+03  0.12674783113E+04  0.99873737529E+03 0.  0.
         13    1    3    3    0    0  0.24788245912E+03  0.28635482822E+03 -0.20736572649E+03  0.43179318761E+03  0.10566000000E+00 0. -1.
         -4    1    3    3    0  502 -0.26618627219E+03 -0.61377910004E+03 -0.50078908820E+03  0.83568512373E+03  0.00000000000E+00 0. -1.
        -13    1    1    2    0    0  0.18303813076E+02  0.32742427182E+03  0.56991163641E+03  0.65752640087E+03  0.10566000000E+00 0.  1.
<mgrwt>
<rscale>  1 0.78561654E+03</rscale>
<asrwt>0</asrwt>
<pdfrwt beam="2">  1       21 0.15871138E+00 0.10511984E+04</pdfrwt>
<pdfrwt beam="1">  1       -4 0.13744320E+00 0.10511984E+04</pdfrwt>
<totfact> 0.33591956E+00</totfact>
</mgrwt>
</event>
<event>
 6    2  0.2294477E-005  0.1128660E+04  0.7818608E-02  0.9397229E-01
         -4   -1    0    0    0  501 -0.00000000000E+00  0.00000000000E+00  0.17270304887E+04  0.17270304887E+04  0.00000000000E+00 0. -1.
         21   -1    0    0  501  502  0.00000000000E+00 -0.00000000000E+00 -0.69054138768E+03  0.69054138768E+03  0.00000000000E+00 0. -1.
   -9000010    2    1    2    0  502  0.50181166640E+03 -0.55643015846E+02 -0.14001299627E+03  0.11373108523E+04  0.10094361009E+04 0.  0.
         13    1    3    3    0    0 -0.13943938069E+03  0.34388699103E+03 -0.78388220495E+02  0.37927078422E+03  0.10566000000E+00 0. -1.
         -4    1    3    3    0  502  0.64125104709E+03 -0.39953000688E+03 -0.61624775774E+02  0.75804006806E+03  0.00000000000E+00 0. -1.
        -13    1    1    2    0    0 -0.50181166640E+03  0.55643015846E+02  0.11765020973E+04  0.12802610241E+04  0.10566000000E+00 0.  1.
<mgrwt>
<rscale>  1 0.92304061E+03</rscale>
<asrwt>0</asrwt>
<pdfrwt beam="2">  1       21 0.10623714E+00 0.11286595E+04</pdfrwt>
<pdfrwt beam="1">  1       -4 0.26569700E+00 0.11286595E+04</pdfrwt>
<totfact> 0.12988385E+00</totfact>
</mgrwt>
</event>
<event>
 6    2  0.2294477E-005  0.9071203E+03  0.7818608E-02  0.9835969E-01
         21   -1    0    0  501  502  0.00000000000E+00  0.00000000000E+00  0.91671630847E+03  0.91671630847E+03  0.00000000000E+00 0. -1.
         -4   -1    0    0    0  501 -0.00000000000E+00 -0.00000000000E+00 -0.69022358466E+03  0.69022358466E+03  0.00000000000E+00 0. -1.
   -9000010    2    1    2    0  502  0.15697578127E+01 -0.21736938772E+03  0.66011569172E+03  0.11218823663E+04  0.88069029887E+03 0.  0.
         13    1    3    3    0    0  0.33875510048E+03  0.42920268593E+02  0.60182823440E+03  0.69194971092E+03  0.10566000000E+00 0. -1.
         -4    1    3    3    0  502 -0.33718534266E+03 -0.26028965631E+03  0.58287457319E+02  0.42993265539E+03  0.00000000000E+00 0. -1.
        -13    1    1    2    0    0 -0.15697578127E+01  0.21736938772E+03 -0.43362296791E+03  0.48505752681E+03  0.10566000000E+00 0.  1.
<mgrwt>
<rscale>  1 0.63467460E+03</rscale>
<asrwt>0</asrwt>
<pdfrwt beam="1">  1       21 0.14103328E+00 0.90712034E+03</pdfrwt>
<pdfrwt beam="2">  1       -4 0.10618824E+00 0.90712034E+03</pdfrwt>
<totfact> 0.91163333E+00</totfact>
</mgrwt>
</event>
<event>
 6    2  0.2294477E-005  0.1041169E+04  0.7818608E-02  0.9592212E-01
         -4   -1    0    0    0  501 -0.00000000000E+00  0.00000000000E+00  0.23455523468E+04  0.23455523468E+04  0.00000000000E+00 0. -1.
         21   -1    0    0  501  502  0.00000000000E+00 -0.00000000000E+00 -0.20025596174E+03  0.20025596174E+03  0.00000000000E+00 0. -1.
   -9000010    2    1    2    0  502 -0.30065931309E+03  0.12296808691E+03  0.17211411162E+04  0.20115566111E+04  0.98919971939E+03 0.  0.
         13    1    3    3    0    0 -0.11063306267E+03  0.45665625752E+03  0.14923317311E+04  0.15645538082E+04  0.10566000000E+00 0. -1.
         -4    1    3    3    0  502 -0.19002625042E+03 -0.33368817061E+03  0.22880938510E+03  0.44700280286E+03  0.00000000000E+00 0. -1.
        -13    1    1    2    0    0  0.30065931309E+03 -0.12296808691E+03  0.42415526884E+03  0.53425169742E+03  0.10566000000E+00 0.  1.
<mgrwt>
<rscale>  1 0.77813765E+03</rscale>
<asrwt>0</asrwt>
<pdfrwt beam="2">  1       21 0.30808611E-01 0.10411692E+04</pdfrwt>
<pdfrwt beam="1">  1       -4 0.36085419E+00 0.10411692E+04</pdfrwt>
<totfact> 0.52541082E+00</totfact>
</mgrwt>
</event>
<event>
 6    2  0.2294477E-005  0.9939077E+03  0.7818608E-02  0.1006834E+00
         -4   -1    0    0    0  501 -0.00000000000E+00  0.00000000000E+00  0.77923597858E+03  0.77923597858E+03  0.00000000000E+00 0. -1.
         21   -1    0    0  501  502  0.00000000000E+00 -0.00000000000E+00 -0.48736938829E+03  0.48736938829E+03  0.00000000000E+00 0. -1.
   -9000010    2    1    2    0  502 -0.42883985122E+02  0.66197231296E+02  0.31340753355E+02  0.99440170694E+03  0.99077313363E+03 0.  0.
         13    1    3    3    0    0 -0.47125260288E+03  0.15096005547E+03  0.18961857317E+03  0.52992751251E+03  0.10566000000E+00 0. -1.
         -4    1    3    3    0  502  0.42836861776E+03 -0.84762824172E+02 -0.15827781981E+03  0.46447419442E+03  0.00000000000E+00 0. -1.
        -13    1    1    2    0    0  0.42883985122E+02 -0.66197231296E+02  0.26052583693E+03  0.27220365994E+03  0.10566000000E+00 0.  1.
<mgrwt>
<rscale>  1 0.52752509E+03</rscale>
<asrwt>0</asrwt>
<pdfrwt beam="2">  1       21 0.74979906E-01 0.99390770E+03</pdfrwt>
<pdfrwt beam="1">  1       -4 0.11988246E+00 0.99390770E+03</pdfrwt>
<totfact> 0.32456710E+01</totfact>
</mgrwt>
</event>
<event>
 6    2  0.2294477E-005  0.1125773E+04  0.7818608E-02  0.9359985E-01
         21   -1    0    0  501  502  0.00000000000E+00  0.00000000000E+00  0.64590365627E+03  0.64590365627E+03  0.00000000000E+00 0.  1.
         -4   -1    0    0    0  501 -0.00000000000E+00 -0.00000000000E+00 -0.11715785727E+04  0.11715785727E+04  0.00000000000E+00 0. -1.
   -9000010    2    1    2    0  502 -0.53487827412E+03 -0.22840222562E+03 -0.50937970694E+03  0.12356507329E+04  0.96389973704E+03 0.  0.
         13    1    3    3    0    0 -0.13401262214E+03 -0.25139103846E+03 -0.72566384048E+03  0.77957992384E+03  0.10566000000E+00 0. -1.
         -4    1    3    3    0  502 -0.40086565198E+03  0.22988812844E+02  0.21628413354E+03  0.45607080905E+03  0.00000000000E+00 0. -1.
        -13    1    1    2    0    0  0.53487827412E+03  0.22840222562E+03 -0.16295209477E+02  0.58183149606E+03  0.10566000000E+00 0.  1.
<mgrwt>
<rscale>  1 0.95443182E+03</rscale>
<asrwt>0</asrwt>
<pdfrwt beam="1">  1       21 0.99369795E-01 0.11257731E+04</pdfrwt>
<pdfrwt beam="2">  1       -4 0.18024285E+00 0.11257731E+04</pdfrwt>
<totfact> 0.54578857E+00</totfact>
</mgrwt>
</event>
<event>
 6    2  0.2294477E-005  0.1056449E+04  0.7818608E-02  0.9563804E-01
         -4   -1    0    0    0  501 -0.00000000000E+00  0.00000000000E+00  0.37269089530E+03  0.37269089530E+03  0.00000000000E+00 0. -1.
         21   -1    0    0  501  502  0.00000000000E+00 -0.00000000000E+00 -0.15105375339E+04  0.15105375339E+04  0.00000000000E+00 0.  1.
   -9000010    2    1    2    0  502 -0.26131961196E+03 -0.22197996403E+03 -0.11203723337E+04  0.15399087436E+04  0.99926059088E+03 0.  0.
         13    1    3    3    0    0 -0.13076552544E+03 -0.28640076572E+03  0.84731110162E+02  0.32604354532E+03  0.10566000000E+00 0. -1.
         -4    1    3    3    0  502 -0.13055408652E+03  0.64420801695E+02 -0.12051034439E+04  0.12138651983E+04  0.00000000000E+00 0. -1.
        -13    1    1    2    0    0  0.26131961196E+03  0.22197996403E+03 -0.17474304905E+02  0.34331968560E+03  0.10566000000E+00 0.  1.
<mgrwt>
<rscale>  1 0.79738911E+03</rscale>
<asrwt>0</asrwt>
<pdfrwt beam="2">  1       21 0.23239038E+00 0.10564491E+04</pdfrwt>
<pdfrwt beam="1">  1       -4 0.57337062E-01 0.10564491E+04</pdfrwt>
<totfact> 0.80318016E+00</totfact>
</mgrwt>
</event>
<event>
 6    2  0.2294477E-005  0.1070631E+04  0.7818608E-02  0.9610354E-01
         -4   -1    0    0    0  501 -0.00000000000E+00  0.00000000000E+00  0.94759588776E+03  0.94759588776E+03  0.00000000000E+00 0. -1.
         21   -1    0    0  501  502  0.00000000000E+00 -0.00000000000E+00 -0.49671323800E+03  0.49671323800E+03  0.00000000000E+00 0. -1.
   -9000010    2    1    2    0  502  0.45288445540E+02 -0.27707843199E+03  0.25097376369E+03  0.10996541176E+04  0.10331639984E+04 0.  0.
         13    1    3    3    0    0  0.67552630500E+02 -0.22811524389E+03  0.65251171409E+03  0.69452967580E+03  0.10566000000E+00 0. -1.
         -4    1    3    3    0  502 -0.22264184960E+02 -0.48963188092E+02 -0.40153795040E+03  0.40512444178E+03  0.00000000000E+00 0. -1.
        -13    1    1    2    0    0 -0.45288445540E+02  0.27707843199E+03  0.19990888606E+03  0.34465500818E+03  0.10566000000E+00 0.  1.
<mgrwt>
<rscale>  1 0.76614667E+03</rscale>
<asrwt>0</asrwt>
<pdfrwt beam="2">  1       21 0.76417421E-01 0.10706313E+04</pdfrwt>
<pdfrwt beam="1">  1       -4 0.14578398E+00 0.10706313E+04</pdfrwt>
<totfact> 0.18589870E+01</totfact>
</mgrwt>
</event>
<event>
 6    2  0.2294477E-005  0.1028897E+04  0.7818608E-02  0.9676123E-01
         21   -1    0    0  501  502  0.00000000000E+00  0.00000000000E+00  0.22691431760E+03  0.22691431760E+03  0.00000000000E+00 0. -1.
         -4   -1    0    0    0  501 -0.00000000000E+00 -0.00000000000E+00 -0.18107390259E+04  0.18107390259E+04  0.00000000000E+00 0. -1.
   -9000010    2    1    2    0  502  0.26015804118E+01  0.25302731276E+03 -0.12793026421E+04  0.16417199032E+04  0.99729604487E+03 0.  0.
         13    1    3    3    0    0 -0.48015870084E+03  0.11166581694E+03 -0.42770901446E+03  0.65265354123E+03  0.10566000000E+00 0. -1.
         -4    1    3    3    0  502  0.48276028125E+03  0.14136149582E+03 -0.85159362769E+03  0.98906636197E+03  0.00000000000E+00 0. -1.
        -13    1    1    2    0    0 -0.26015804118E+01 -0.25302731276E+03 -0.30452206616E+03  0.39593344032E+03  0.10566000000E+00 0.  1.
<mgrwt>
<rscale>  1 0.72456370E+03</rscale>
<asrwt>0</asrwt>
<pdfrwt beam="1">  1       21 0.34909895E-01 0.10288970E+04</pdfrwt>
<pdfrwt beam="2">  1       -4 0.27857524E+00 0.10288970E+04</pdfrwt>
<totfact> 0.13471711E+01</totfact>
</mgrwt>
</event>
<event>
 6    2  0.2294477E-005  0.1018348E+04  0.7818608E-02  0.9648297E-01
         21   -1    0    0  501  502  0.00000000000E+00  0.00000000000E+00  0.34817257926E+03  0.34817257926E+03  0.00000000000E+00 0. -1.
         -4   -1    0    0    0  501 -0.00000000000E+00 -0.00000000000E+00 -0.12239719959E+04  0.12239719959E+04  0.00000000000E+00 0. -1.
   -9000010    2    1    2    0  502  0.20049739509E+03  0.20497016504E+03 -0.70181479055E+03  0.12367602653E+04  0.97714890353E+03 0.  0.
         13    1    3    3    0    0  0.40134751293E+03  0.46853992074E+03 -0.65886264285E+03  0.90261258399E+03  0.10566000000E+00 0. -1.
         -4    1    3    3    0  502 -0.20085011784E+03 -0.26356975570E+03 -0.42952147700E+02  0.33414768135E+03  0.00000000000E+00 0. -1.
        -13    1    1    2    0    0 -0.20049739509E+03 -0.20497016504E+03 -0.17398462608E+03  0.33538430981E+03  0.10566000000E+00 0.  1.
<mgrwt>
<rscale>  1 0.74180370E+03</rscale>
<asrwt>0</asrwt>
<pdfrwt beam="1">  1       21 0.53565013E-01 0.10183477E+04</pdfrwt>
<pdfrwt beam="2">  1       -4 0.18830338E+00 0.10183477E+04</pdfrwt>
<totfact> 0.20362223E+01</totfact>
</mgrwt>
</event>
<event>
 6    2  0.2294477E-005  0.1067437E+04  0.7818608E-02  0.9625564E-01
         -4   -1    0    0    0  501 -0.00000000000E+00  0.00000000000E+00  0.23625331724E+04  0.23625331724E+04  0.00000000000E+00 0. -1.
         21   -1    0    0  501  502  0.00000000000E+00 -0.00000000000E+00 -0.20566437423E+03  0.20566437423E+03  0.00000000000E+00 0. -1.
   -9000010    2    1    2    0  502  0.50215802963E+02  0.26422751016E+03  0.13707838344E+04  0.17373742289E+04  0.10329971376E+04 0.  0.
         13    1    3    3    0    0  0.55985550765E+02 -0.30645186486E+03  0.10222322034E+04  0.10686467219E+04  0.10566000000E+00 0. -1.
         -4    1    3    3    0  502 -0.57697478023E+01  0.57067937502E+03  0.34855163105E+03  0.66872750696E+03  0.00000000000E+00 0. -1.
        -13    1    1    2    0    0 -0.50215802963E+02 -0.26422751016E+03  0.78608496377E+03  0.83082331782E+03  0.10566000000E+00 0.  1.
<mgrwt>
<rscale>  1 0.75627064E+03</rscale>
<asrwt>0</asrwt>
<pdfrwt beam="2">  1       21 0.31640675E-01 0.10674366E+04</pdfrwt>
<pdfrwt beam="1">  1       -4 0.36346662E+00 0.10674366E+04</pdfrwt>
<totfact> 0.47667376E+00</totfact>
</mgrwt>
</event>
<event>
 6    2  0.2294477E-005  0.1010289E+04  0.7818608E-02  0.1012590E+00
         21   -1    0    0  501  502  0.00000000000E+00  0.00000000000E+00  0.45261009399E+03  0.45261009399E+03  0.00000000000E+00 0. -1.
         -4   -1    0    0    0  501 -0.00000000000E+00 -0.00000000000E+00 -0.64319201704E+03  0.64319201704E+03  0.00000000000E+00 0. -1.
   -9000010    2    1    2    0  502  0.61080834895E+02 -0.14861509491E+02 -0.15098755951E+03  0.10215090586E+04  0.10083311860E+04 0.  0.
         13    1    3    3    0    0  0.30713855608E+02 -0.36779721909E+03  0.28025758411E+03  0.46342470792E+03  0.10566000000E+00 0. -1.
         -4    1    3    3    0  502  0.30366979287E+02  0.35293570960E+03 -0.43124514362E+03  0.55808435065E+03  0.00000000000E+00 0. -1.
        -13    1    1    2    0    0 -0.61080834895E+02  0.14861509491E+02 -0.39594363536E+02  0.74293052459E+02  0.10566000000E+00 0.  1.
<mgrwt>
<rscale>  1 0.50458317E+03</rscale>
<asrwt>0</asrwt>
<pdfrwt beam="1">  1       21 0.69632323E-01 0.10102888E+04</pdfrwt>
<pdfrwt beam="2">  1       -4 0.98952617E-01 0.10102888E+04</pdfrwt>
<totfact> 0.61601208E+01</totfact>
</mgrwt>
</event>
<event>
 6    2  0.2294477E-005  0.1195796E+04  0.7818608E-02  0.9279498E-01
         -4   -1    0    0    0  501 -0.00000000000E+00  0.00000000000E+00  0.68823081102E+03  0.68823081102E+03  0.00000000000E+00 0. -1.
         21   -1    0    0  501  502  0.00000000000E+00 -0.00000000000E+00 -0.15004864690E+04  0.15004864690E+04  0.00000000000E+00 0. -1.
   -9000010    2    1    2    0  502 -0.62251579287E+03 -0.18840914735E+03 -0.94595376097E+03  0.15247149358E+04  0.10034456629E+04 0.  0.
         13    1    3    3    0    0 -0.32614669015E+03 -0.40383326073E+01 -0.10969503930E+04  0.11444160727E+04  0.10566000000E+00 0. -1.
         -4    1    3    3    0  502 -0.29636910272E+03 -0.18437081474E+03  0.15099663203E+03  0.38029886308E+03  0.00000000000E+00 0. -1.
        -13    1    1    2    0    0  0.62251579287E+03  0.18840914735E+03  0.13369810302E+03  0.66400234419E+03  0.10566000000E+00 0.  1.
<mgrwt>
<rscale>  1 0.10269241E+04</rscale>
<asrwt>0</asrwt>
<pdfrwt beam="2">  1       21 0.23084407E+00 0.11957956E+04</pdfrwt>
<pdfrwt beam="1">  1       -4 0.10588166E+00 0.11957956E+04</pdfrwt>
<totfact> 0.19720634E+00</totfact>
</mgrwt>
</event>
<event>
 6    2  0.2294477E-005  0.9561583E+03  0.7818608E-02  0.9732123E-01
         21   -1    0    0  501  502  0.00000000000E+00  0.00000000000E+00  0.19853290841E+03  0.19853290841E+03  0.00000000000E+00 0. -1.
         -4   -1    0    0    0  501 -0.00000000000E+00 -0.00000000000E+00 -0.23508580662E+04  0.23508580662E+04  0.00000000000E+00 0. -1.
   -9000010    2    1    2    0  502 -0.23030932097E+03  0.12354288760E+03 -0.10656508416E+04  0.14317298860E+04  0.91974644430E+03 0.  0.
         13    1    3    3    0    0 -0.91712410699E+02  0.52392781239E+03 -0.56854251114E+03  0.77855771591E+03  0.10566000000E+00 0. -1.
         -4    1    3    3    0  502 -0.13859691027E+03 -0.40038492479E+03 -0.49710833046E+03  0.65317217007E+03  0.00000000000E+00 0. -1.
        -13    1    1    2    0    0  0.23030932097E+03 -0.12354288760E+03 -0.10866743162E+04  0.11176610886E+04  0.10566000000E+00 0.  1.
<mgrwt>
<rscale>  1 0.69135978E+03</rscale>
<asrwt>0</asrwt>
<pdfrwt beam="1">  1       21 0.30543523E-01 0.95615833E+03</pdfrwt>
<pdfrwt beam="2">  1       -4 0.36167049E+00 0.95615833E+03</pdfrwt>
<totfact> 0.53485375E+00</totfact>
</mgrwt>
</event>
<event>
 6    2  0.2294477E-005  0.1040070E+04  0.7818608E-02  0.9641945E-01
         -4   -1    0    0    0  501 -0.00000000000E+00  0.00000000000E+00  0.92121315679E+03  0.92121315679E+03  0.00000000000E+00 0. -1.
         21   -1    0    0  501  502  0.00000000000E+00 -0.00000000000E+00 -0.64841054128E+03  0.64841054128E+03  0.00000000000E+00 0. -1.
   -9000010    2    1    2    0  502  0.81949857632E+02 -0.26250315810E+03 -0.16454317874E+03  0.10530048423E+04  0.10030558574E+04 0.  0.
         13    1    3    3    0    0 -0.40421968262E+03 -0.14353059034E+03 -0.31292521925E+03  0.53095836578E+03  0.10566000000E+00 0. -1.
         -4    1    3    3    0  502  0.48616954025E+03 -0.11897256776E+03  0.14838204051E+03  0.52204647657E+03  0.00000000000E+00 0. -1.
        -13    1    1    2    0    0 -0.81949857632E+02  0.26250315810E+03  0.43734579425E+03  0.51661885573E+03  0.10566000000E+00 0.  1.
<mgrwt>
<rscale>  1 0.74581143E+03</rscale>
<asrwt>0</asrwt>
<pdfrwt beam="2">  1       21 0.99755468E-01 0.10400696E+04</pdfrwt>
<pdfrwt beam="1">  1       -4 0.14172510E+00 0.10400696E+04</pdfrwt>
<totfact> 0.10596393E+01</totfact>
</mgrwt>
</event>
<event>
 6    2  0.2294477E-005  0.1219990E+04  0.7818608E-02  0.9241495E-01
         21   -1    0    0  501  502  0.00000000000E+00  0.00000000000E+00  0.48204567136E+03  0.48204567136E+03  0.00000000000E+00 0. -1.
         -4   -1    0    0    0  501 -0.00000000000E+00 -0.00000000000E+00 -0.29157498993E+04  0.29157498993E+04  0.00000000000E+00 0. -1.
   -9000010    2    1    2    0  502 -0.64234613601E+03  0.28946023767E+03 -0.46293054900E+03  0.13048682684E+04  0.99598228756E+03 0.  0.
         13    1    3    3    0    0  0.25479693092E+03  0.17194515209E+03 -0.54633371207E+02  0.31220414434E+03  0.10566000000E+00 0. -1.
         -4    1    3    3    0  502 -0.89714306693E+03  0.11751508558E+03 -0.40829717779E+03  0.99266412410E+03  0.00000000000E+00 0. -1.
        -13    1    1    2    0    0  0.64234613601E+03 -0.28946023767E+03 -0.19707736789E+04  0.20929273022E+04  0.10566000000E+00 0.  1.
<mgrwt>
<rscale>  1 0.10635204E+04</rscale>
<asrwt>0</asrwt>
<pdfrwt beam="1">  1       21 0.74160871E-01 0.12199904E+04</pdfrwt>
<pdfrwt beam="2">  1       -4 0.44857692E+00 0.12199904E+04</pdfrwt>
<totfact> 0.18636599E-01</totfact>
</mgrwt>
</event>
<event>
 6    2  0.2294477E-005  0.1181975E+04  0.7818608E-02  0.9307245E-01
         -4   -1    0    0    0  501 -0.00000000000E+00  0.00000000000E+00  0.32137916318E+04  0.32137916318E+04  0.00000000000E+00 0. -1.
         21   -1    0    0  501  502  0.00000000000E+00 -0.00000000000E+00 -0.25167299196E+03  0.25167299196E+03  0.00000000000E+00 0. -1.
   -9000010    2    1    2    0  502 -0.24387411123E+03 -0.55745032738E+03  0.17939508791E+04  0.21483308500E+04  0.10133312562E+04 0.  0.
         13    1    3    3    0    0 -0.48040648484E+03 -0.54375382704E+03  0.17666361345E+04  0.19098329398E+04  0.10566000000E+00 0. -1.
         -4    1    3    3    0  502  0.23653237360E+03 -0.13696500339E+02  0.27314744614E+02  0.23849791017E+03  0.00000000000E+00 0. -1.
        -13    1    1    2    0    0  0.24387411123E+03  0.55745032738E+03  0.11681677607E+04  0.13171337738E+04  0.10566000000E+00 0.  1.
<mgrwt>
<rscale>  1 0.10011856E+04</rscale>
<asrwt>0</asrwt>
<pdfrwt beam="2">  1       21 0.38718924E-01 0.11819753E+04</pdfrwt>
<pdfrwt beam="1">  1       -4 0.49442945E+00 0.11819753E+04</pdfrwt>
<totfact> 0.34675649E-01</totfact>
</mgrwt>
</event>
<event>
 6    2  0.2294477E-005  0.1055437E+04  0.7818608E-02  0.9577748E-01
         -4   -1    0    0    0  501 -0.00000000000E+00  0.00000000000E+00  0.10807751756E+04  0.10807751756E+04  0.00000000000E+00 0. -1.
         21   -1    0    0  501  502  0.00000000000E+00 -0.00000000000E+00 -0.80866939102E+03  0.80866939102E+03  0.00000000000E+00 0. -1.
   -9000010    2    1    2    0  502  0.26622757444E+03 -0.19112537920E+03 -0.41033019018E+03  0.11323944343E+04  0.10032647995E+04 0.  0.
         13    1    3    3    0    0 -0.14305502972E+03 -0.18155126477E+03  0.25940490972E+03  0.34744283216E+03  0.10566000000E+00 0. -1.
         -4    1    3    3    0  502  0.40928260415E+03 -0.95741144331E+01 -0.66973509990E+03  0.78495160218E+03  0.00000000000E+00 0. -1.
        -13    1    1    2    0    0 -0.26622757444E+03  0.19112537920E+03  0.68243597479E+03  0.75705013230E+03  0.10566000000E+00 0.  1.
<mgrwt>
<rscale>  1 0.78786659E+03</rscale>
<asrwt>0</asrwt>
<pdfrwt beam="2">  1       21 0.12441067E+00 0.10554365E+04</pdfrwt>
<pdfrwt beam="1">  1       -4 0.16627311E+00 0.10554365E+04</pdfrwt>
<totfact> 0.39039404E+00</totfact>
</mgrwt>
</event>
<event>
 6    2  0.2294477E-005  0.1059553E+04  0.7818608E-02  0.9521972E-01
         -4   -1    0    0    0  501 -0.00000000000E+00  0.00000000000E+00  0.33300798808E+03  0.33300798808E+03  0.00000000000E+00 0. -1.
         21   -1    0    0  501  502  0.00000000000E+00 -0.00000000000E+00 -0.20112264561E+04  0.20112264561E+04  0.00000000000E+00 0. -1.
   -9000010    2    1    2    0  502  0.15738972554E+03 -0.36001573909E+03 -0.16358857759E+04  0.19490447099E+04  0.98400719076E+03 0.  0.
         13    1    3    3    0    0  0.26376227365E+03 -0.31378724682E+02 -0.15762953877E+04  0.15985187899E+04  0.10566000000E+00 0. -1.
         -4    1    3    3    0  502 -0.10637254811E+03 -0.32863701441E+03 -0.59590388210E+02  0.35052592001E+03  0.00000000000E+00 0. -1.
        -13    1    1    2    0    0 -0.15738972554E+03  0.36001573909E+03 -0.42332692183E+02  0.39518973429E+03  0.10566000000E+00 0.  1.
<mgrwt>
<rscale>  1 0.82683141E+03</rscale>
<asrwt>0</asrwt>
<pdfrwt beam="2">  1       21 0.30941946E+00 0.10595532E+04</pdfrwt>
<pdfrwt beam="1">  1       -4 0.51231997E-01 0.10595532E+04</pdfrwt>
<totfact> 0.33396220E+00</totfact>
</mgrwt>
</event>
<event>
 6    2  0.2294477E-005  0.1061118E+04  0.7818608E-02  0.9556998E-01
         -4   -1    0    0    0  501 -0.00000000000E+00  0.00000000000E+00  0.12254775899E+04  0.12254775899E+04  0.00000000000E+00 0. -1.
         21   -1    0    0  501  502  0.00000000000E+00 -0.00000000000E+00 -0.61268684264E+03  0.61268684264E+03  0.00000000000E+00 0. -1.
   -9000010    2    1    2    0  502 -0.20005997272E+03 -0.28280963738E+03 -0.79444793923E+02  0.10640873438E+04  0.10029781235E+04 0.  0.
         13    1    3    3    0    0 -0.47684636133E+03  0.11386244218E+03  0.17123219568E+03  0.51929527636E+03  0.10566000000E+00 0. -1.
         -4    1    3    3    0  502  0.27678638861E+03 -0.39667207956E+03 -0.25067698960E+03  0.54479206743E+03  0.00000000000E+00 0. -1.
        -13    1    1    2    0    0  0.20005997272E+03  0.28280963738E+03  0.69223554122E+03  0.77407708878E+03  0.10566000000E+00 0.  1.
<mgrwt>
<rscale>  1 0.80208920E+03</rscale>
<asrwt>0</asrwt>
<pdfrwt beam="2">  1       21 0.94259515E-01 0.10611175E+04</pdfrwt>
<pdfrwt beam="1">  1       -4 0.18853501E+00 0.10611175E+04</pdfrwt>
<totfact> 0.54887464E+00</totfact>
</mgrwt>
</event>
<event>
 6    2  0.2294477E-005  0.1051581E+04  0.7818608E-02  0.9583378E-01
         -4   -1    0    0    0  501 -0.00000000000E+00  0.00000000000E+00  0.50223372241E+03  0.50223372241E+03  0.00000000000E+00 0. -1.
         21   -1    0    0  501  502  0.00000000000E+00 -0.00000000000E+00 -0.99145676133E+03  0.99145676133E+03  0.00000000000E+00 0. -1.
   -9000010    2    1    2    0  502  0.32432023135E+03  0.20880054080E+02 -0.50860992943E+03  0.11681210567E+04  0.10001015717E+04 0.  0.
         13    1    3    3    0    0  0.31216571690E+03  0.25777917110E+03  0.17758726930E+03  0.44208006655E+03  0.10566000000E+00 0. -1.
         -4    1    3    3    0  502  0.12154514456E+02 -0.23689911702E+03 -0.68619719873E+03  0.72604099018E+03  0.00000000000E+00 0. -1.
        -13    1    1    2    0    0 -0.32432023135E+03 -0.20880054080E+02  0.19386890507E+02  0.32556942702E+03  0.10566000000E+00 0.  1.
<mgrwt>
<rscale>  1 0.78406151E+03</rscale>
<asrwt>0</asrwt>
<pdfrwt beam="2">  1       21 0.15253181E+00 0.10515811E+04</pdfrwt>
<pdfrwt beam="1">  1       -4 0.77266726E-01 0.10515811E+04</pdfrwt>
<totfact> 0.15269776E+01</totfact>
</mgrwt>
</event>
<event>
 6    2  0.2294477E-005  0.1076615E+04  0.7818608E-02  0.9500908E-01
         21   -1    0    0  501  502  0.00000000000E+00  0.00000000000E+00  0.54497543730E+03  0.54497543730E+03  0.00000000000E+00 0. -1.
         -4   -1    0    0    0  501 -0.00000000000E+00 -0.00000000000E+00 -0.10267325061E+04  0.10267325061E+04  0.00000000000E+00 0. -1.
   -9000010    2    1    2    0  502  0.38437746077E+03  0.12143055336E+03 -0.24472097282E+03  0.11040782463E+04  0.99830306411E+03 0.  0.
         13    1    3    3    0    0 -0.88451229914E+02  0.43852966559E+03  0.71186867982E+02  0.45298948002E+03  0.10566000000E+00 0. -1.
         -4    1    3    3    0  502  0.47282869069E+03 -0.31709911223E+03 -0.31590784080E+03  0.65108876629E+03  0.00000000000E+00 0. -1.
        -13    1    1    2    0    0 -0.38437746077E+03 -0.12143055336E+03 -0.23703609601E+03  0.46762969711E+03  0.10566000000E+00 0.  1.
<mgrwt>
<rscale>  1 0.84216891E+03</rscale>
<asrwt>0</asrwt>
<pdfrwt beam="1">  1       21 0.83842375E-01 0.10766153E+04</pdfrwt>
<pdfrwt beam="2">  1       -4 0.15795885E+00 0.10766153E+04</pdfrwt>
<totfact> 0.12023307E+01</totfact>
</mgrwt>
</event>
<event>
 6    2  0.2294477E-005  0.9759126E+03  0.7818608E-02  0.9607441E-01
         -4   -1    0    0    0  501 -0.00000000000E+00  0.00000000000E+00  0.27423715771E+03  0.27423715771E+03  0.00000000000E+00 0. -1.
         21   -1    0    0  501  502  0.00000000000E+00 -0.00000000000E+00 -0.16820693075E+04  0.16820693075E+04  0.00000000000E+00 0. -1.
   -9000010    2    1    2    0  502  0.55332056820E+02  0.37029218073E+03 -0.11090856229E+04  0.14773206261E+04  0.90123658244E+03 0.  0.
         13    1    3    3    0    0 -0.18045809246E+03 -0.11504229561E+03  0.30763650624E+02  0.21620884875E+03  0.10566000000E+00 0. -1.
         -4    1    3    3    0  502  0.23579014928E+03  0.48533447634E+03 -0.11398492736E+04  0.12611117773E+04  0.00000000000E+00 0. -1.
        -13    1    1    2    0    0 -0.55332056820E+02 -0.37029218073E+03 -0.29874652681E+03  0.47898583911E+03  0.10566000000E+00 0.  1.
<mgrwt>
<rscale>  1 0.76805645E+03</rscale>
<asrwt>0</asrwt>
<pdfrwt beam="2">  1       21 0.25877989E+00 0.97591255E+03</pdfrwt>
<pdfrwt beam="1">  1       -4 0.42190333E-01 0.97591255E+03</pdfrwt>
<totfact> 0.10521864E+01</totfact>
</mgrwt>
</event>
<event>
 6    2  0.2294477E-005  0.1022328E+04  0.7818608E-02  0.9822748E-01
         -4   -1    0    0    0  501 -0.00000000000E+00  0.00000000000E+00  0.12080317022E+04  0.12080317022E+04  0.00000000000E+00 0. -1.
         21   -1    0    0  501  502  0.00000000000E+00 -0.00000000000E+00 -0.36923282352E+03  0.36923282352E+03  0.00000000000E+00 0. -1.
   -9000010    2    1    2    0  502  0.12375209547E+03 -0.99119513379E+02  0.37803504420E+03  0.10899837223E+04  0.10099578017E+04 0.  0.
         13    1    3    3    0    0  0.18013806742E+03  0.39456798513E+03 -0.46761150189E+02  0.43625707393E+03  0.10566000000E+00 0. -1.
         -4    1    3    3    0  502 -0.56385971943E+02 -0.49368749851E+03  0.42479619439E+03  0.65372664836E+03  0.00000000000E+00 0. -1.
        -13    1    1    2    0    0 -0.12375209547E+03  0.99119513379E+02  0.46076383444E+03  0.48728080340E+03  0.10566000000E+00 0.  1.
<mgrwt>
<rscale>  1 0.64155914E+03</rscale>
<asrwt>0</asrwt>
<pdfrwt beam="2">  1       21 0.56805050E-01 0.10223277E+04</pdfrwt>
<pdfrwt beam="1">  1       -4 0.18585103E+00 0.10223277E+04</pdfrwt>
<totfact> 0.18594436E+01</totfact>
</mgrwt>
</event>
<event>
 6    2  0.2294477E-005  0.1038760E+04  0.7818608E-02  0.9697201E-01
         -4   -1    0    0    0  501 -0.00000000000E+00  0.00000000000E+00  0.78009673733E+03  0.78009673733E+03  0.00000000000E+00 0. -1.
         21   -1    0    0  501  502  0.00000000000E+00 -0.00000000000E+00 -0.78168571460E+03  0.78168571460E+03  0.00000000000E+00 0. -1.
   -9000010    2    1    2    0  502 -0.18320733855E+03 -0.13751339287E+03 -0.39106515106E+03  0.11099345093E+04  0.10131869524E+04 0.  0.
         13    1    3    3    0    0 -0.59700472132E+03 -0.17585575389E+03 -0.21277274697E+03  0.65773257215E+03  0.10566000000E+00 0. -1.
         -4    1    3    3    0  502  0.41379738276E+03  0.38342361017E+02 -0.17829240409E+03  0.45220193717E+03  0.00000000000E+00 0. -1.
        -13    1    1    2    0    0  0.18320733855E+03  0.13751339287E+03  0.38947617379E+03  0.45184794260E+03  0.10566000000E+00 0.  1.
<mgrwt>
<rscale>  1 0.71183672E+03</rscale>
<asrwt>0</asrwt>
<pdfrwt beam="2">  1       21 0.12025934E+00 0.10387602E+04</pdfrwt>
<pdfrwt beam="1">  1       -4 0.12001488E+00 0.10387602E+04</pdfrwt>
<totfact> 0.10125192E+01</totfact>
</mgrwt>
</event>
<event>
 6    2  0.2294477E-005  0.1006466E+04  0.7818608E-02  0.9969617E-01
         21   -1    0    0  501  502  0.00000000000E+00  0.00000000000E+00  0.42969932554E+03  0.42969932554E+03  0.00000000000E+00 0. -1.
         -4   -1    0    0    0  501 -0.00000000000E+00 -0.00000000000E+00 -0.85281943822E+03  0.85281943822E+03  0.00000000000E+00 0. -1.
   -9000010    2    1    2    0  502 -0.73064402925E+02  0.73389592267E+02 -0.18564234639E+03  0.10234432152E+04  0.10011236161E+04 0.  0.
         13    1    3    3    0    0 -0.40121499850E+03 -0.12812276248E+03  0.21060967097E+03  0.47089846247E+03  0.10566000000E+00 0. -1.
         -4    1    3    3    0  502  0.32815059557E+03  0.20151235475E+03 -0.39625201735E+03  0.55254475271E+03  0.00000000000E+00 0. -1.
        -13    1    1    2    0    0  0.73064402925E+02 -0.73389592267E+02 -0.23747776629E+03  0.25907554858E+03  0.10566000000E+00 0.  1.
<mgrwt>
<rscale>  1 0.57002785E+03</rscale>
<asrwt>0</asrwt>
<pdfrwt beam="1">  1       21 0.66107589E-01 0.10064656E+04</pdfrwt>
<pdfrwt beam="2">  1       -4 0.13120299E+00 0.10064656E+04</pdfrwt>
<totfact> 0.34392056E+01</totfact>
</mgrwt>
</event>
<event>
 6    2  0.2294477E-005  0.1029095E+04  0.7818608E-02  0.9809763E-01
         -4   -1    0    0    0  501 -0.00000000000E+00  0.00000000000E+00  0.74741792271E+03  0.74741792271E+03  0.00000000000E+00 0. -1.
         21   -1    0    0  501  502  0.00000000000E+00 -0.00000000000E+00 -0.48012461257E+03  0.48012461257E+03  0.00000000000E+00 0. -1.
   -9000010    2    1    2    0  502 -0.16200928636E+03 -0.77633548740E+01  0.18473433630E+03  0.10455445302E+04  0.10162329019E+04 0.  0.
         13    1    3    3    0    0 -0.16739982518E+02  0.26291605316E+03 -0.34445510264E+03  0.43365240334E+03  0.10566000000E+00 0. -1.
         -4    1    3    3    0  502 -0.14526930384E+03 -0.27067940803E+03  0.52918943894E+03  0.61189212682E+03  0.00000000000E+00 0. -1.
        -13    1    1    2    0    0  0.16200928636E+03  0.77633548740E+01  0.82558973829E+02  0.18199800512E+03  0.10566000000E+00 0.  1.
<mgrwt>
<rscale>  1 0.64841212E+03</rscale>
<asrwt>0</asrwt>
<pdfrwt beam="2">  1       21 0.73865325E-01 0.10290950E+04</pdfrwt>
<pdfrwt beam="1">  1       -4 0.11498737E+00 0.10290950E+04</pdfrwt>
<totfact> 0.37176816E+01</totfact>
</mgrwt>
</event>
<event>
 6    2  0.2294477E-005  0.1075547E+04  0.7818608E-02  0.9539104E-01
         -4   -1    0    0    0  501 -0.00000000000E+00  0.00000000000E+00  0.32780641649E+03  0.32780641649E+03  0.00000000000E+00 0. -1.
         21   -1    0    0  501  502  0.00000000000E+00 -0.00000000000E+00 -0.15616295484E+04  0.15616295484E+04  0.00000000000E+00 0. -1.
   -9000010    2    1    2    0  502  0.19689156393E+03 -0.29410610920E+03 -0.89052233436E+03  0.13963638199E+04  0.10156461973E+04 0.  0.
         13    1    3    3    0    0 -0.26447162317E+03 -0.21547066080E+02  0.88976328506E+02  0.27986838642E+03  0.10566000000E+00 0. -1.
         -4    1    3    3    0  502  0.46136318710E+03 -0.27255904312E+03 -0.97949866287E+03  0.11164954335E+04  0.00000000000E+00 0. -1.
        -13    1    1    2    0    0 -0.19689156393E+03  0.29410610920E+03 -0.34330079755E+03  0.49307214500E+03  0.10566000000E+00 0.  1.
<mgrwt>
<rscale>  1 0.81461193E+03</rscale>
<asrwt>0</asrwt>
<pdfrwt beam="2">  1       21 0.24025070E+00 0.10755473E+04</pdfrwt>
<pdfrwt beam="1">  1       -4 0.50431756E-01 0.10755473E+04</pdfrwt>
<totfact> 0.93765503E+00</totfact>
</mgrwt>
</event>
<event>
 6    2  0.2294477E-005  0.1279968E+04  0.7818608E-02  0.9169091E-01
         21   -1    0    0  501  502  0.00000000000E+00  0.00000000000E+00  0.16670519870E+04  0.16670519870E+04  0.00000000000E+00 0. -1.
         -4   -1    0    0    0  501 -0.00000000000E+00 -0.00000000000E+00 -0.65683376722E+03  0.65683376722E+03  0.00000000000E+00 0. -1.
   -9000010    2    1    2    0  502 -0.32200558994E+03  0.73155374709E+03  0.74893529659E+03  0.14829771611E+04  0.99972931186E+03 0.  0.
         13    1    3    3    0    0  0.30730550122E+03  0.40841464498E+03  0.54405226123E+03  0.74647978367E+03  0.10566000000E+00 0. -1.
         -4    1    3    3    0  502 -0.62931109115E+03  0.32313910212E+03  0.20488303536E+03  0.73649737742E+03  0.00000000000E+00 0. -1.
        -13    1    1    2    0    0  0.32200558994E+03 -0.73155374709E+03  0.26128292315E+03  0.84090859309E+03  0.10566000000E+00 0.  1.
<mgrwt>
<rscale>  1 0.11378233E+04</rscale>
<asrwt>0</asrwt>
<pdfrwt beam="1">  1       21 0.25646954E+00 0.12799676E+04</pdfrwt>
<pdfrwt beam="2">  1       -4 0.10105135E+00 0.12799676E+04</pdfrwt>
<totfact> 0.14925514E+00</totfact>
</mgrwt>
</event>
<event>
 6    2  0.2294477E-005  0.9868586E+03  0.7818608E-02  0.9724395E-01
         -4   -1    0    0    0  501 -0.00000000000E+00  0.00000000000E+00  0.12813795409E+04  0.12813795409E+04  0.00000000000E+00 0. -1.
         21   -1    0    0  501  502  0.00000000000E+00 -0.00000000000E+00 -0.32949932587E+03  0.32949932587E+03  0.00000000000E+00 0. -1.
   -9000010    2    1    2    0  502 -0.23696020422E+03 -0.57835737547E+02  0.52148187570E+03  0.11161689997E+04  0.95623991670E+03 0.  0.
         13    1    3    3    0    0 -0.44425062321E+03  0.11941831902E+03  0.66450669945E+03  0.80820078936E+03  0.10566000000E+00 0. -1.
         -4    1    3    3    0  502  0.20729041900E+03 -0.17725405656E+03 -0.14302482375E+03  0.30796821035E+03  0.00000000000E+00 0. -1.
        -13    1    1    2    0    0  0.23696020422E+03  0.57835737547E+02  0.43039833935E+03  0.49470986709E+03  0.10566000000E+00 0.  1.
<mgrwt>
<rscale>  1 0.69582714E+03</rscale>
<asrwt>0</asrwt>
<pdfrwt beam="2">  1       21 0.50692205E-01 0.98685860E+03</pdfrwt>
<pdfrwt beam="1">  1       -4 0.19713531E+00 0.98685860E+03</pdfrwt>
<totfact> 0.20082412E+01</totfact>
</mgrwt>
</event>
<event>
 6    2  0.2294477E-005  0.1020571E+04  0.7818608E-02  0.9797792E-01
         21   -1    0    0  501  502  0.00000000000E+00  0.00000000000E+00  0.22303212739E+03  0.22303212739E+03  0.00000000000E+00 0. -1.
         -4   -1    0    0    0  501 -0.00000000000E+00 -0.00000000000E+00 -0.15973311520E+04  0.15973311520E+04  0.00000000000E+00 0. -1.
   -9000010    2    1    2    0  502 -0.11474149515E+03  0.12941490335E+03 -0.11871958057E+04  0.15655663924E+04  0.10058083416E+04 0.  0.
         13    1    3    3    0    0  0.43710340839E+03  0.15639280416E+03 -0.47497743281E+03  0.66416991174E+03  0.10566000000E+00 0. -1.
         -4    1    3    3    0  502 -0.55184490354E+03 -0.26977900806E+02 -0.71221837288E+03  0.90139648067E+03  0.00000000000E+00 0. -1.
        -13    1    1    2    0    0  0.11474149515E+03 -0.12941490335E+03 -0.18710321888E+03  0.25479688695E+03  0.10566000000E+00 0.  1.
<mgrwt>
<rscale>  1 0.65481157E+03</rscale>
<asrwt>0</asrwt>
<pdfrwt beam="1">  1       21 0.34312634E-01 0.10205706E+04</pdfrwt>
<pdfrwt beam="2">  1       -4 0.24574326E+00 0.10205706E+04</pdfrwt>
<totfact> 0.22275258E+01</totfact>
</mgrwt>
</event>
<event>
 6    2  0.2294477E-005  0.1064952E+04  0.7818608E-02  0.9719486E-01
         21   -1    0    0  501  502  0.00000000000E+00  0.00000000000E+00  0.41318705379E+03  0.41318705379E+03  0.00000000000E+00 0. -1.
         -4   -1    0    0    0  501 -0.00000000000E+00 -0.00000000000E+00 -0.96628780428E+03  0.96628780428E+03  0.00000000000E+00 0. -1.
   -9000010    2    1    2    0  502  0.14237469151E+03 -0.13659380523E+03 -0.44191828384E+03  0.11530019624E+04  0.10465148520E+04 0.  0.
         13    1    3    3    0    0  0.49955595027E+03 -0.29302774128E+03 -0.49192053078E+03  0.75987316335E+03  0.10566000000E+00 0. -1.
         -4    1    3    3    0  502 -0.35718125876E+03  0.15643393605E+03  0.50002246939E+02  0.39312879907E+03  0.00000000000E+00 0. -1.
        -13    1    1    2    0    0 -0.14237469151E+03  0.13659380523E+03 -0.11118246664E+03  0.22647289564E+03  0.10566000000E+00 0.  1.
<mgrwt>
<rscale>  1 0.69868391E+03</rscale>
<asrwt>0</asrwt>
<pdfrwt beam="1">  1       21 0.63567240E-01 0.10649515E+04</pdfrwt>
<pdfrwt beam="2">  1       -4 0.14865966E+00 0.10649515E+04</pdfrwt>
<totfact> 0.26926706E+01</totfact>
</mgrwt>
</event>
<event>
 6    2  0.2294477E-005  0.1072712E+04  0.7818608E-02  0.9480295E-01
         21   -1    0    0  501  502  0.00000000000E+00  0.00000000000E+00  0.12673719598E+04  0.12673719598E+04  0.00000000000E+00 0. -1.
         -4   -1    0    0    0  501 -0.00000000000E+00 -0.00000000000E+00 -0.58978536171E+03  0.58978536171E+03  0.00000000000E+00 0. -1.
   -9000010    2    1    2    0  502  0.63617399286E+02 -0.43341616430E+03  0.86760954710E+03  0.13796581307E+04  0.97919021973E+03 0.  0.
         13    1    3    3    0    0  0.27098827414E+03 -0.60253758264E+03  0.89304371110E+03  0.11108614965E+04  0.10566000000E+00 0. -1.
         -4    1    3    3    0  502 -0.20737087485E+03  0.16912141834E+03 -0.25434164000E+02  0.26879663424E+03  0.00000000000E+00 0. -1.
        -13    1    1    2    0    0 -0.63617399286E+02  0.43341616430E+03 -0.19002294897E+03  0.47749919085E+03  0.10566000000E+00 0.  1.
<mgrwt>
<rscale>  1 0.85752284E+03</rscale>
<asrwt>0</asrwt>
<pdfrwt beam="1">  1       21 0.19498030E+00 0.10727116E+04</pdfrwt>
<pdfrwt beam="2">  1       -4 0.90736210E-01 0.10727116E+04</pdfrwt>
<totfact> 0.50713345E+00</totfact>
</mgrwt>
</event>
<event>
 6    2  0.2294477E-005  0.1031521E+04  0.7818608E-02  0.9611433E-01
         21   -1    0    0  501  502  0.00000000000E+00  0.00000000000E+00  0.58459379170E+03  0.58459379170E+03  0.00000000000E+00 0. -1.
         -4   -1    0    0    0  501 -0.00000000000E+00 -0.00000000000E+00 -0.83160770918E+03  0.83160770918E+03  0.00000000000E+00 0. -1.
   -9000010    2    1    2    0  502  0.25570249026E+03 -0.18009795276E+03 -0.23509684344E+02  0.10317887156E+04  0.98296297601E+03 0.  0.
         13    1    3    3    0    0  0.25564293237E+03 -0.27338991756E+03  0.42924959098E+03  0.56951784732E+03  0.10566000000E+00 0. -1.
         -4    1    3    3    0  502  0.59557886831E-01  0.93291964800E+02 -0.45275927532E+03  0.46227086825E+03  0.00000000000E+00 0. -1.
        -13    1    1    2    0    0 -0.25570249026E+03  0.18009795276E+03 -0.22350423314E+03  0.38441278531E+03  0.10566000000E+00 0.  1.
<mgrwt>
<rscale>  1 0.76544049E+03</rscale>
<asrwt>0</asrwt>
<pdfrwt beam="1">  1       21 0.89937507E-01 0.10315208E+04</pdfrwt>
<pdfrwt beam="2">  1       -4 0.12793965E+00 0.10315208E+04</pdfrwt>
<totfact> 0.17822819E+01</totfact>
</mgrwt>
</event>
<event>
 6    2  0.2294477E-005  0.1005204E+04  0.7818608E-02  0.9868862E-01
         21   -1    0    0  501  502  0.00000000000E+00  0.00000000000E+00  0.17486775010E+04  0.17486775010E+04  0.00000000000E+00 0. -1.
         -4   -1    0    0    0  501 -0.00000000000E+00 -0.00000000000E+00 -0.52264503495E+03  0.52264503495E+03  0.00000000000E+00 0. -1.
   -9000010    2    1    2    0  502 -0.83756307681E+02 -0.11659472186E+03  0.15894176714E+04  0.18806074648E+04  0.99490022322E+03 0.  0.
         13    1    3    3    0    0  0.16730066787E+03 -0.44043695523E+03  0.38514434164E+03  0.60853134682E+03  0.10566000000E+00 0. -1.
         -4    1    3    3    0  502 -0.25105697555E+03  0.32384223338E+03  0.12042733297E+04  0.12720761179E+04  0.00000000000E+00 0. -1.
        -13    1    1    2    0    0  0.83756307681E+02  0.11659472186E+03 -0.36338520533E+03  0.39071507119E+03  0.10566000000E+00 0.  1.
<mgrwt>
<rscale>  1 0.61794399E+03</rscale>
<asrwt>0</asrwt>
<pdfrwt beam="1">  1       21 0.26902730E+00 0.10052044E+04</pdfrwt>
<pdfrwt beam="2">  1       -4 0.80406929E-01 0.10052044E+04</pdfrwt>
<totfact> 0.22276061E+00</totfact>
</mgrwt>
</event>
<event>
 6    2  0.2294477E-005  0.1045330E+04  0.7818608E-02  0.9639284E-01
         21   -1    0    0  501  502  0.00000000000E+00  0.00000000000E+00  0.58791033403E+03  0.58791033403E+03  0.00000000000E+00 0. -1.
         -4   -1    0    0    0  501 -0.00000000000E+00 -0.00000000000E+00 -0.11207298068E+04  0.11207298068E+04  0.00000000000E+00 0. -1.
   -9000010    2    1    2    0  502  0.26707590881E+03 -0.58115030233E+02  0.69057759012E+02  0.10476082875E+04  0.10089634543E+04 0.  0.
         13    1    3    3    0    0 -0.33478057660E+03  0.18540286028E+03 -0.54952216087E+02  0.38661610454E+03  0.10566000000E+00 0. -1.
         -4    1    3    3    0  502  0.60185648541E+03 -0.24351789052E+03  0.12400997510E+03  0.66099218298E+03  0.00000000000E+00 0. -1.
        -13    1    1    2    0    0 -0.26707590881E+03  0.58115030233E+02 -0.60187723178E+03  0.66103185332E+03  0.10566000000E+00 0.  1.
<mgrwt>
<rscale>  1 0.74749804E+03</rscale>
<asrwt>0</asrwt>
<pdfrwt beam="1">  1       21 0.90447745E-01 0.10453297E+04</pdfrwt>
<pdfrwt beam="2">  1       -4 0.17241997E+00 0.10453297E+04</pdfrwt>
<totfact> 0.78762417E+00</totfact>
</mgrwt>
</event>
<event>
 6    2  0.2294477E-005  0.1038349E+04  0.7818608E-02  0.9578721E-01
         -4   -1    0    0    0  501 -0.00000000000E+00  0.00000000000E+00  0.16735168071E+04  0.16735168071E+04  0.00000000000E+00 0. -1.
         21   -1    0    0  501  502  0.00000000000E+00 -0.00000000000E+00 -0.28509936752E+03  0.28509936752E+03  0.00000000000E+00 0. -1.
   -9000010    2    1    2    0  502 -0.19369738513E+03  0.28310385114E+03  0.10538278309E+04  0.14794328225E+04  0.98005199435E+03 0.  0.
         13    1    3    3    0    0 -0.10765936730E+03  0.21473730010E+03  0.12401049451E+04  0.12631559419E+04  0.10566000000E+00 0. -1.
         -4    1    3    3    0  502 -0.86038017827E+02  0.68366551039E+02 -0.18627711423E+03  0.21627688064E+03  0.00000000000E+00 0. -1.
        -13    1    1    2    0    0  0.19369738513E+03 -0.28310385114E+03  0.33458960874E+03  0.47918335215E+03  0.10566000000E+00 0.  1.
<mgrwt>
<rscale>  1 0.78720731E+03</rscale>
<asrwt>0</asrwt>
<pdfrwt beam="2">  1       21 0.43861442E-01 0.10383489E+04</pdfrwt>
<pdfrwt beam="1">  1       -4 0.25746412E+00 0.10383489E+04</pdfrwt>
<totfact> 0.11270773E+01</totfact>
</mgrwt>
</event>
<event>
 6    2  0.2294477E-005  0.1427619E+04  0.7818608E-02  0.9015227E-01
         21   -1    0    0  501  502  0.00000000000E+00  0.00000000000E+00  0.24501728936E+04  0.24501728936E+04  0.00000000000E+00 0.  1.
         -4   -1    0    0    0  501 -0.00000000000E+00 -0.00000000000E+00 -0.62474872791E+03  0.62474872791E+03  0.00000000000E+00 0. -1.
   -9000010    2    1    2    0  502  0.56497365701E+03  0.87060428461E+03  0.11852405454E+04  0.18555028533E+04  0.98027987563E+03 0.  0.
         13    1    3    3    0    0  0.20500840844E+03  0.37563353595E+03 -0.93334820162E+02  0.43799589116E+03  0.10566000000E+00 0. -1.
         -4    1    3    3    0  502  0.35996524858E+03  0.49497074866E+03  0.12785753656E+04  0.14175069621E+04  0.00000000000E+00 0. -1.
        -13    1    1    2    0    0 -0.56497365701E+03 -0.87060428461E+03  0.64018362033E+03  0.12194187683E+04  0.10566000000E+00 0.  1.
<mgrwt>
<rscale>  1 0.13182373E+04</rscale>
<asrwt>0</asrwt>
<pdfrwt beam="1">  1       21 0.37694967E+00 0.14276189E+04</pdfrwt>
<pdfrwt beam="2">  1       -4 0.96115190E-01 0.14276189E+04</pdfrwt>
<totfact> 0.28348550E-01</totfact>
</mgrwt>
</event>
<event>
 6    2  0.2294477E-005  0.1016759E+04  0.7818608E-02  0.9749581E-01
         21   -1    0    0  501  502  0.00000000000E+00  0.00000000000E+00  0.63556333142E+03  0.63556333142E+03  0.00000000000E+00 0. -1.
         -4   -1    0    0    0  501 -0.00000000000E+00 -0.00000000000E+00 -0.59495181174E+03  0.59495181174E+03  0.00000000000E+00 0. -1.
   -9000010    2    1    2    0  502  0.20386346308E+03 -0.22433528103E+02  0.86229551994E+02  0.10204090014E+04  0.99585913651E+03 0.  0.
         13    1    3    3    0    0  0.75787017392E+02  0.41375775056E+03  0.30137752127E+03  0.51746262633E+03  0.10566000000E+00 0. -1.
         -4    1    3    3    0  502  0.12807644569E+03 -0.43619127867E+03 -0.21514796927E+03  0.50294637508E+03  0.00000000000E+00 0. -1.
        -13    1    1    2    0    0 -0.20386346308E+03  0.22433528103E+02 -0.45618032311E+02  0.21010614175E+03  0.10566000000E+00 0.  1.
<mgrwt>
<rscale>  1 0.68139952E+03</rscale>
<asrwt>0</asrwt>
<pdfrwt beam="1">  1       21 0.97778975E-01 0.10167591E+04</pdfrwt>
<pdfrwt beam="2">  1       -4 0.91531047E-01 0.10167591E+04</pdfrwt>
<totfact> 0.33143011E+01</totfact>
</mgrwt>
</event>
<event>
 6    2  0.2294477E-005  0.1056298E+04  0.7818608E-02  0.9548890E-01
         -4   -1    0    0    0  501 -0.00000000000E+00  0.00000000000E+00  0.24984640465E+04  0.24984640465E+04  0.00000000000E+00 0. -1.
         21   -1    0    0  501  502  0.00000000000E+00 -0.00000000000E+00 -0.23618021490E+03  0.23618021490E+03  0.00000000000E+00 0. -1.
   -9000010    2    1    2    0  502 -0.26230488261E+03  0.24827567350E+03  0.11330278454E+04  0.15490373472E+04  0.99263283394E+03 0.  0.
         13    1    3    3    0    0  0.29006405782E+03 -0.18813676109E+03  0.45689433123E+03  0.57296163885E+03  0.10566000000E+00 0. -1.
         -4    1    3    3    0  502 -0.55236894043E+03  0.43641243459E+03  0.67613351415E+03  0.97607570832E+03  0.00000000000E+00 0. -1.
        -13    1    1    2    0    0  0.26230488261E+03 -0.24827567350E+03  0.11292559862E+04  0.11856069142E+04  0.10566000000E+00 0.  1.
<mgrwt>
<rscale>  1 0.80773334E+03</rscale>
<asrwt>0</asrwt>
<pdfrwt beam="2">  1       21 0.36335419E-01 0.10562976E+04</pdfrwt>
<pdfrwt beam="1">  1       -4 0.38437907E+00 0.10562976E+04</pdfrwt>
<totfact> 0.26062031E+00</totfact>
</mgrwt>
</event>
<event>
 6    2  0.2294477E-005  0.1014172E+04  0.7818608E-02  0.9754959E-01
         -4   -1    0    0    0  501 -0.00000000000E+00  0.00000000000E+00  0.63065298558E+03  0.63065298558E+03  0.00000000000E+00 0. -1.
         21   -1    0    0  501  502  0.00000000000E+00 -0.00000000000E+00 -0.65472597716E+03  0.65472597716E+03  0.00000000000E+00 0. -1.
   -9000010    2    1    2    0  502 -0.18464745824E+03  0.84378747962E+02 -0.17919893543E+03  0.10298823354E+04  0.99364526338E+03 0.  0.
         13    1    3    3    0    0 -0.22252278223E+03  0.48019833735E+03 -0.30746376455E+03  0.61207908760E+03  0.10566000000E+00 0. -1.
         -4    1    3    3    0  502  0.37875323984E+02 -0.39581958939E+03  0.12826482912E+03  0.41780324783E+03  0.00000000000E+00 0. -1.
        -13    1    1    2    0    0  0.18464745824E+03 -0.84378747962E+02  0.15512594385E+03  0.25549662730E+03  0.10566000000E+00 0.  1.
<mgrwt>
<rscale>  1 0.67836746E+03</rscale>
<asrwt>0</asrwt>
<pdfrwt beam="2">  1       21 0.10072707E+00 0.10141723E+04</pdfrwt>
<pdfrwt beam="1">  1       -4 0.97023536E-01 0.10141723E+04</pdfrwt>
<totfact> 0.26818720E+01</totfact>
</mgrwt>
</event>
<event>
 6    2  0.2294477E-005  0.1241925E+04  0.7818608E-02  0.9225131E-01
         -4   -1    0    0    0  501 -0.00000000000E+00  0.00000000000E+00  0.16172456876E+04  0.16172456876E+04  0.00000000000E+00 0. -1.
         21   -1    0    0  501  502  0.00000000000E+00 -0.00000000000E+00 -0.63174436062E+03  0.63174436062E+03  0.00000000000E+00 0.  1.
   -9000010    2    1    2    0  502 -0.82107304871E+02 -0.70489116743E+03  0.90097130274E+03  0.15343163439E+04  0.10191978157E+04 0.  0.
         13    1    3    3    0    0 -0.54482869456E+02 -0.11694101016E+03  0.93583542675E+03  0.94468594784E+03  0.10566000000E+00 0. -1.
         -4    1    3    3    0  502 -0.27624435415E+02 -0.58795015727E+03 -0.34864124011E+02  0.58963039610E+03  0.00000000000E+00 0. -1.
        -13    1    1    2    0    0  0.82107304871E+02  0.70489116743E+03  0.84530024231E+02  0.71467370428E+03  0.10566000000E+00 0.  1.
<mgrwt>
<rscale>  1 0.10797760E+04</rscale>
<asrwt>0</asrwt>
<pdfrwt beam="2">  1       21 0.97191441E-01 0.12419249E+04</pdfrwt>
<pdfrwt beam="1">  1       -4 0.24880703E+00 0.12419249E+04</pdfrwt>
<totfact> 0.20336831E+00</totfact>
</mgrwt>
</event>
<event>
 6    2  0.2294477E-005  0.7359413E+03  0.7818608E-02  0.1024881E+00
         21   -1    0    0  501  502  0.00000000000E+00  0.00000000000E+00  0.48547579218E+03  0.48547579218E+03  0.00000000000E+00 0. -1.
         -4   -1    0    0    0  501 -0.00000000000E+00 -0.00000000000E+00 -0.37125916248E+03  0.37125916248E+03  0.00000000000E+00 0. -1.
   -9000010    2    1    2    0  502  0.33605587058E+02 -0.10683446187E+03  0.11413782528E+03  0.74473961950E+03  0.72736972714E+03 0.  0.
         13    1    3    3    0    0  0.32819543584E+03 -0.20967922995E+03  0.17477390109E+03  0.42687650585E+03  0.10566000000E+00 0. -1.
         -4    1    3    3    0  502 -0.29458984879E+03  0.10284476808E+03 -0.60636075801E+02  0.31786311365E+03  0.00000000000E+00 0. -1.
        -13    1    1    2    0    0 -0.33605587058E+02  0.10683446187E+03  0.78804416929E-01  0.11199533517E+03  0.10566000000E+00 0.  1.
<mgrwt>
<rscale>  1 0.45965539E+03</rscale>
<asrwt>0</asrwt>
<pdfrwt beam="1">  1       21 0.74688583E-01 0.73594134E+03</pdfrwt>
<pdfrwt beam="2">  1       -4 0.57116794E-01 0.73594134E+03</pdfrwt>
<totfact> 0.18618827E+02</totfact>
</mgrwt>
</event>
<event>
 6    2  0.2294477E-005  0.1010087E+04  0.7818608E-02  0.9762898E-01
         -4   -1    0    0    0  501 -0.00000000000E+00  0.00000000000E+00  0.65494214795E+03  0.65494214795E+03  0.00000000000E+00 0. -1.
         21   -1    0    0  501  502  0.00000000000E+00 -0.00000000000E+00 -0.93950580249E+03  0.93950580249E+03  0.00000000000E+00 0. -1.
   -9000010    2    1    2    0  502  0.16566864398E+03  0.11231775142E+03 -0.63340974201E+03  0.11922602072E+04  0.99005814151E+03 0.  0.
         13    1    3    3    0    0 -0.40777943051E+03  0.87101471112E+02 -0.15440443406E+03  0.44464758027E+03  0.10566000000E+00 0. -1.
         -4    1    3    3    0  502  0.57344807449E+03  0.25216280304E+02 -0.47900530795E+03  0.74761262695E+03  0.00000000000E+00 0. -1.
        -13    1    1    2    0    0 -0.16566864398E+03 -0.11231775142E+03  0.34884608747E+03  0.40218774321E+03  0.10566000000E+00 0.  1.
<mgrwt>
<rscale>  1 0.67392250E+03</rscale>
<asrwt>0</asrwt>
<pdfrwt beam="2">  1       21 0.14453935E+00 0.10100874E+04</pdfrwt>
<pdfrwt beam="1">  1       -4 0.10076033E+00 0.10100874E+04</pdfrwt>
<totfact> 0.95586494E+00</totfact>
</mgrwt>
</event>
<event>
 6    2  0.2294477E-005  0.1174795E+04  0.7818608E-02  0.9305597E-01
         21   -1    0    0  501  502  0.00000000000E+00  0.00000000000E+00  0.92186216783E+03  0.92186216783E+03  0.00000000000E+00 0. -1.
         -4   -1    0    0    0  501 -0.00000000000E+00 -0.00000000000E+00 -0.12330709103E+04  0.12330709103E+04  0.00000000000E+00 0. -1.
   -9000010    2    1    2    0  502  0.61945531197E+03 -0.70233973903E+02  0.36983691913E+03  0.12316341563E+04  0.99573372628E+03 0.  0.
         13    1    3    3    0    0  0.88203221836E+03 -0.10504839899E+03  0.38099052897E+03  0.96652459600E+03  0.10566000000E+00 0. -1.
         -4    1    3    3    0  502 -0.26257690639E+03  0.34814425084E+02 -0.11153609831E+02  0.26510956032E+03  0.00000000000E+00 0. -1.
        -13    1    1    2    0    0 -0.61945531197E+03  0.70233973903E+02 -0.68104566157E+03  0.92329892176E+03  0.10566000000E+00 0.  1.
<mgrwt>
<rscale>  1 0.10026918E+04</rscale>
<asrwt>0</asrwt>
<pdfrwt beam="1">  1       21 0.14182495E+00 0.11747950E+04</pdfrwt>
<pdfrwt beam="2">  1       -4 0.18970322E+00 0.11747950E+04</pdfrwt>
<totfact> 0.18496209E+00</totfact>
</mgrwt>
</event>
<event>
 6    2  0.2294477E-005  0.1048405E+04  0.7818608E-02  0.9582832E-01
         -4   -1    0    0    0  501 -0.00000000000E+00  0.00000000000E+00  0.14850379258E+04  0.14850379258E+04  0.00000000000E+00 0. -1.
         21   -1    0    0  501  502  0.00000000000E+00 -0.00000000000E+00 -0.40941942502E+03  0.40941942502E+03  0.00000000000E+00 0.  1.
   -9000010    2    1    2    0  502  0.24601609422E+03  0.21779420063E+03  0.11514626655E+04  0.15572473555E+04  0.99558767757E+03 0.  0.
         13    1    3    3    0    0 -0.32079116050E+03 -0.15134792950E+03  0.53600307621E+03  0.64273826189E+03  0.10566000000E+00 0. -1.
         -4    1    3    3    0  502  0.56680725473E+03  0.36914213013E+03  0.61545958925E+03  0.91450909359E+03  0.00000000000E+00 0. -1.
        -13    1    1    2    0    0 -0.24601609422E+03 -0.21779420063E+03 -0.75844164720E+02  0.33720999530E+03  0.10566000000E+00 0.  1.
<mgrwt>
<rscale>  1 0.78442937E+03</rscale>
<asrwt>0</asrwt>
<pdfrwt beam="2">  1       21 0.62987605E-01 0.10484050E+04</pdfrwt>
<pdfrwt beam="1">  1       -4 0.22846737E+00 0.10484050E+04</pdfrwt>
<totfact> 0.77463380E+00</totfact>
</mgrwt>
</event>
<event>
 6    2  0.2294477E-005  0.1028952E+04  0.7818608E-02  0.9632915E-01
         -4   -1    0    0    0  501 -0.00000000000E+00  0.00000000000E+00  0.22250502183E+03  0.22250502183E+03  0.00000000000E+00 0. -1.
         21   -1    0    0  501  502  0.00000000000E+00 -0.00000000000E+00 -0.19778200219E+04  0.19778200219E+04  0.00000000000E+00 0. -1.
   -9000010    2    1    2    0  502 -0.29208830726E+03 -0.21218186003E+02 -0.14417847741E+04  0.17712947367E+04  0.98639541692E+03 0.  0.
         13    1    3    3    0    0 -0.10328176884E+03  0.48062781825E+03 -0.64760823641E+03  0.81306006080E+03  0.10566000000E+00 0. -1.
         -4    1    3    3    0  502 -0.18880653842E+03 -0.50184600425E+03 -0.79417653774E+03  0.95823467586E+03  0.00000000000E+00 0. -1.
        -13    1    1    2    0    0  0.29208830726E+03  0.21218186003E+02 -0.31353022597E+03  0.42903030711E+03  0.10566000000E+00 0.  1.
<mgrwt>
<rscale>  1 0.75155458E+03</rscale>
<asrwt>0</asrwt>
<pdfrwt beam="2">  1       21 0.30428000E+00 0.10289518E+04</pdfrwt>
<pdfrwt beam="1">  1       -4 0.34231542E-01 0.10289518E+04</pdfrwt>
<totfact> 0.82779762E+00</totfact>
</mgrwt>
</event>
<event>
 6    2  0.2294477E-005  0.1032010E+04  0.7818608E-02  0.9701900E-01
         -4   -1    0    0    0  501 -0.00000000000E+00  0.00000000000E+00  0.16212635894E+03  0.16212635894E+03  0.00000000000E+00 0. -1.
         21   -1    0    0  501  502  0.00000000000E+00 -0.00000000000E+00 -0.30699865049E+04  0.30699865049E+04  0.00000000000E+00 0. -1.
   -9000010    2    1    2    0  502 -0.16834859124E+03  0.15663292339E+03 -0.27878472719E+04  0.29727324059E+04  0.10060668092E+04 0.  0.
         13    1    3    3    0    0 -0.53943237954E+03  0.29564586459E+02 -0.22048344391E+04  0.22700564468E+04  0.10566000000E+00 0. -1.
         -4    1    3    3    0  502  0.37108378829E+03  0.12706833693E+03 -0.58301283288E+03  0.70267595909E+03  0.00000000000E+00 0. -1.
        -13    1    1    2    0    0  0.16834859124E+03 -0.15663292339E+03 -0.12001287401E+03  0.25938045793E+03  0.10566000000E+00 0.  1.
<mgrwt>
<rscale>  1 0.70903798E+03</rscale>
<asrwt>0</asrwt>
<pdfrwt beam="2">  1       21 0.47230560E+00 0.10320104E+04</pdfrwt>
<pdfrwt beam="1">  1       -4 0.24942518E-01 0.10320104E+04</pdfrwt>
<totfact> 0.12227725E+00</totfact>
</mgrwt>
</event>
<event>
 6    2  0.2294477E-005  0.1056818E+04  0.7818608E-02  0.9572181E-01
         21   -1    0    0  501  502  0.00000000000E+00  0.00000000000E+00  0.21927891239E+04  0.21927891239E+04  0.00000000000E+00 0. -1.
         -4   -1    0    0    0  501 -0.00000000000E+00 -0.00000000000E+00 -0.38401920191E+03  0.38401920191E+03  0.00000000000E+00 0. -1.
   -9000010    2    1    2    0  502 -0.27274622162E+03  0.19063202677E+03  0.19479102915E+04  0.22161268533E+04  0.10030616408E+04 0.  0.
         13    1    3    3    0    0 -0.37003732716E+03 -0.23254631869E+03  0.16032408828E+04  0.16617420839E+04  0.10566000000E+00 0. -1.
         -4    1    3    3    0  502  0.97291105535E+02  0.42317834546E+03  0.34466940865E+03  0.55438476940E+03  0.00000000000E+00 0. -1.
        -13    1    1    2    0    0  0.27274622162E+03 -0.19063202677E+03 -0.13914036949E+03  0.36068147253E+03  0.10566000000E+00 0.  1.
<mgrwt>
<rscale>  1 0.79165100E+03</rscale>
<asrwt>0</asrwt>
<pdfrwt beam="1">  1       21 0.33735216E+00 0.10568177E+04</pdfrwt>
<pdfrwt beam="2">  1       -4 0.59079879E-01 0.10568177E+04</pdfrwt>
<totfact> 0.16455943E+00</totfact>
</mgrwt>
</event>
<event>
 6    2  0.2294477E-005  0.1025712E+04  0.7818608E-02  0.9771692E-01
         21   -1    0    0  501  502  0.00000000000E+00  0.00000000000E+00  0.40420403111E+03  0.40420403111E+03  0.00000000000E+00 0. -1.
         -4   -1    0    0    0  501 -0.00000000000E+00 -0.00000000000E+00 -0.99874463591E+03  0.99874463591E+03  0.00000000000E+00 0. -1.
   -9000010    2    1    2    0  502  0.91777724456E+02  0.16139739514E+03 -0.32561268509E+03  0.10761543785E+04  0.10087677412E+04 0.  0.
         13    1    3    3    0    0  0.41905296529E+03  0.22542329139E+03  0.14673645608E+03  0.49794843782E+03  0.10566000000E+00 0. -1.
         -4    1    3    3    0  502 -0.32727524083E+03 -0.64025896254E+02 -0.47234914117E+03  0.57820594066E+03  0.00000000000E+00 0. -1.
        -13    1    1    2    0    0 -0.91777724456E+02 -0.16139739514E+03 -0.26892791971E+03  0.32679428854E+03  0.10566000000E+00 0.  1.
<mgrwt>
<rscale>  1 0.66904103E+03</rscale>
<asrwt>0</asrwt>
<pdfrwt beam="1">  1       21 0.62185235E-01 0.10257118E+04</pdfrwt>
<pdfrwt beam="2">  1       -4 0.15365302E+00 0.10257118E+04</pdfrwt>
<totfact> 0.25973851E+01</totfact>
</mgrwt>
</event>
<event>
 6    2  0.2294477E-005  0.1047419E+04  0.7818608E-02  0.9598096E-01
         -4   -1    0    0    0  501 -0.00000000000E+00  0.00000000000E+00  0.27513749181E+03  0.27513749181E+03  0.00000000000E+00 0. -1.
         21   -1    0    0  501  502  0.00000000000E+00 -0.00000000000E+00 -0.16871016669E+04  0.16871016669E+04  0.00000000000E+00 0. -1.
   -9000010    2    1    2    0  502 -0.25758934960E+03  0.17725039752E+03 -0.10357057956E+04  0.14730149200E+04  0.99965818309E+03 0.  0.
         13    1    3    3    0    0 -0.48818873514E+03  0.29947597522E+03 -0.10661627318E+04  0.12102549660E+04  0.10566000000E+00 0. -1.
         -4    1    3    3    0  502  0.23059938554E+03 -0.12222557769E+03  0.30456936225E+02  0.26275995398E+03  0.00000000000E+00 0. -1.
        -13    1    1    2    0    0  0.25758934960E+03 -0.17725039752E+03 -0.37625837953E+03  0.48922423875E+03  0.10566000000E+00 0.  1.
<mgrwt>
<rscale>  1 0.77422300E+03</rscale>
<asrwt>0</asrwt>
<pdfrwt beam="2">  1       21 0.25955411E+00 0.10474190E+04</pdfrwt>
<pdfrwt beam="1">  1       -4 0.42328844E-01 0.10474190E+04</pdfrwt>
<totfact> 0.10220666E+01</totfact>
</mgrwt>
</event>
<event>
 6    2  0.2294477E-005  0.1021004E+04  0.7818608E-02  0.9760067E-01
         -4   -1    0    0    0  501 -0.00000000000E+00  0.00000000000E+00  0.93134796744E+03  0.93134796744E+03  0.00000000000E+00 0. -1.
         21   -1    0    0  501  502  0.00000000000E+00 -0.00000000000E+00 -0.40956314553E+03  0.40956314553E+03  0.00000000000E+00 0. -1.
   -9000010    2    1    2    0  502  0.50083246081E+02  0.18910653816E+03  0.34637091369E+03  0.10781571127E+04  0.10020879879E+04 0.  0.
         13    1    3    3    0    0 -0.22309847918E+03  0.27817687663E+03 -0.23679203404E+03  0.42804881106E+03  0.10566000000E+00 0. -1.
         -4    1    3    3    0  502  0.27318172526E+03 -0.89070338465E+02  0.58316294773E+03  0.65010830160E+03  0.00000000000E+00 0. -1.
        -13    1    1    2    0    0 -0.50083246081E+02 -0.18910653816E+03  0.17541390822E+03  0.26275400031E+03  0.10566000000E+00 0.  1.
<mgrwt>
<rscale>  1 0.67550331E+03</rscale>
<asrwt>0</asrwt>
<pdfrwt beam="2">  1       21 0.63009715E-01 0.10210044E+04</pdfrwt>
<pdfrwt beam="1">  1       -4 0.14328430E+00 0.10210044E+04</pdfrwt>
<totfact> 0.30415971E+01</totfact>
</mgrwt>
</event>
<event>
 6    2  0.2294477E-005  0.1127144E+04  0.7818608E-02  0.9417739E-01
         21   -1    0    0  501  502  0.00000000000E+00  0.00000000000E+00  0.14940026813E+04  0.14940026813E+04  0.00000000000E+00 0. -1.
         -4   -1    0    0    0  501 -0.00000000000E+00 -0.00000000000E+00 -0.42772338435E+03  0.42772338435E+03  0.00000000000E+00 0. -1.
   -9000010    2    1    2    0  502 -0.38462441700E+03 -0.27209970558E+03  0.77348994196E+03  0.13670191074E+04  0.10239532987E+04 0.  0.
         13    1    3    3    0    0 -0.13972915211E+03  0.36494986209E+03  0.49308429816E+03  0.62916196170E+03  0.10566000000E+00 0. -1.
         -4    1    3    3    0  502 -0.24489526489E+03 -0.63704956767E+03  0.28040564380E+03  0.73785714573E+03  0.00000000000E+00 0. -1.
        -13    1    1    2    0    0  0.38462441700E+03  0.27209970558E+03  0.29278935498E+03  0.55470695821E+03  0.10566000000E+00 0.  1.
<mgrwt>
<rscale>  1 0.90630106E+03</rscale>
<asrwt>0</asrwt>
<pdfrwt beam="1">  1       21 0.22984656E+00 0.11271444E+04</pdfrwt>
<pdfrwt beam="2">  1       -4 0.65803599E-01 0.11271444E+04</pdfrwt>
<totfact> 0.61129013E+00</totfact>
</mgrwt>
</event>
<event>
 6    2  0.2294477E-005  0.1133335E+04  0.7818608E-02  0.9378220E-01
         -4   -1    0    0    0  501 -0.00000000000E+00  0.00000000000E+00  0.90390101761E+03  0.90390101761E+03  0.00000000000E+00 0. -1.
         21   -1    0    0  501  502  0.00000000000E+00 -0.00000000000E+00 -0.15834018145E+04  0.15834018145E+04  0.00000000000E+00 0. -1.
   -9000010    2    1    2    0  502 -0.36984151574E+03 -0.38495443282E+03 -0.12626689445E+04  0.16966968862E+04  0.99973736469E+03 0.  0.
         13    1    3    3    0    0 -0.70273653494E+03 -0.15892124629E+03 -0.69646543426E+03  0.10020771988E+04  0.10566000000E+00 0. -1.
         -4    1    3    3    0  502  0.33289501920E+03 -0.22603318652E+03 -0.56620351020E+03  0.69461968744E+03  0.00000000000E+00 0. -1.
        -13    1    1    2    0    0  0.36984151574E+03  0.38495443282E+03  0.58316814758E+03  0.79060594586E+03  0.10566000000E+00 0.  1.
<mgrwt>
<rscale>  1 0.93889933E+03</rscale>
<asrwt>0</asrwt>
<pdfrwt beam="2">  1       21 0.24360027E+00 0.11333347E+04</pdfrwt>
<pdfrwt beam="1">  1       -4 0.13906170E+00 0.11333347E+04</pdfrwt>
<totfact> 0.82551990E-01</totfact>
</mgrwt>
</event>
<event>
 6    2  0.2294477E-005  0.1000294E+04  0.7818608E-02  0.9896323E-01
         -4   -1    0    0    0  501 -0.00000000000E+00  0.00000000000E+00  0.43768443514E+03  0.43768443514E+03  0.00000000000E+00 0. -1.
         21   -1    0    0  501  502  0.00000000000E+00 -0.00000000000E+00 -0.13108021984E+04  0.13108021984E+04  0.00000000000E+00 0. -1.
   -9000010    2    1    2    0  502 -0.12928857024E+03 -0.32556478716E+02 -0.10990796928E+04  0.14861237867E+04  0.99136889175E+03 0.  0.
         13    1    3    3    0    0  0.13680503653E+03  0.42615991924E+03 -0.34925406134E+03  0.56772027030E+03  0.10566000000E+00 0. -1.
         -4    1    3    3    0  502 -0.26609360677E+03 -0.45871639796E+03 -0.74982563143E+03  0.91840351636E+03  0.00000000000E+00 0. -1.
        -13    1    1    2    0    0  0.12928857024E+03  0.32556478716E+02  0.22596192947E+03  0.26236284691E+03  0.10566000000E+00 0.  1.
<mgrwt>
<rscale>  1 0.60439843E+03</rscale>
<asrwt>0</asrwt>
<pdfrwt beam="2">  1       21 0.20166188E+00 0.10002938E+04</pdfrwt>
<pdfrwt beam="1">  1       -4 0.67336067E-01 0.10002938E+04</pdfrwt>
<totfact> 0.91140162E+00</totfact>
</mgrwt>
</event>
<event>
 6    2  0.2294477E-005  0.1389526E+04  0.7818608E-02  0.9051902E-01
         21   -1    0    0  501  502  0.00000000000E+00  0.00000000000E+00  0.16849156401E+04  0.16849156401E+04  0.00000000000E+00 0.  1.
         -4   -1    0    0    0  501 -0.00000000000E+00 -0.00000000000E+00 -0.89142563193E+03  0.89142563193E+03  0.00000000000E+00 0. -1.
   -9000010    2    1    2    0  502  0.81607568353E+03 -0.53608057761E+03  0.79310822004E+03  0.15999386585E+04  0.98864612232E+03 0.  0.
         13    1    3    3    0    0  0.42561486796E+03  0.17092812868E+03  0.62455159627E+03  0.77487363393E+03  0.10566000000E+00 0. -1.
         -4    1    3    3    0  502  0.39046081558E+03 -0.70700870629E+03  0.16855662377E+03  0.82506502452E+03  0.00000000000E+00 0. -1.
        -13    1    1    2    0    0 -0.81607568353E+03  0.53608057761E+03  0.38178816608E+00  0.97640261361E+03  0.10566000000E+00 0.  1.
<mgrwt>
<rscale>  1 0.12722055E+04</rscale>
<asrwt>0</asrwt>
<pdfrwt beam="1">  1       21 0.25921779E+00 0.13895262E+04</pdfrwt>
<pdfrwt beam="2">  1       -4 0.13714241E+00 0.13895262E+04</pdfrwt>
<totfact> 0.65391424E-01</totfact>
</mgrwt>
</event>
<event>
 6    2  0.2294477E-005  0.1065145E+04  0.7818608E-02  0.9535543E-01
         21   -1    0    0  501  502  0.00000000000E+00  0.00000000000E+00  0.42913938593E+03  0.42913938593E+03  0.00000000000E+00 0. -1.
         -4   -1    0    0    0  501 -0.00000000000E+00 -0.00000000000E+00 -0.13862798411E+04  0.13862798411E+04  0.00000000000E+00 0. -1.
   -9000010    2    1    2    0  502  0.34270442429E+03  0.13661728655E+03 -0.38091565360E+03  0.11312075357E+04  0.99921126309E+03 0.  0.
         13    1    3    3    0    0 -0.64732080524E+01  0.45051704764E+02  0.33040860374E+03  0.33352873207E+03  0.10566000000E+00 0. -1.
         -4    1    3    3    0  502  0.34917763234E+03  0.91565581788E+02 -0.71132425734E+03  0.79767880364E+03  0.00000000000E+00 0. -1.
        -13    1    1    2    0    0 -0.34270442429E+03 -0.13661728655E+03 -0.57622480154E+03  0.68421169128E+03  0.10566000000E+00 0.  1.
<mgrwt>
<rscale>  1 0.81713353E+03</rscale>
<asrwt>0</asrwt>
<pdfrwt beam="1">  1       21 0.66021444E-01 0.10651449E+04</pdfrwt>
<pdfrwt beam="2">  1       -4 0.21327382E+00 0.10651449E+04</pdfrwt>
<totfact> 0.86906761E+00</totfact>
</mgrwt>
</event>
<event>
 6    2  0.2294477E-005  0.1014433E+04  0.7818608E-02  0.9786192E-01
         -4   -1    0    0    0  501 -0.00000000000E+00  0.00000000000E+00  0.40628608749E+03  0.40628608749E+03  0.00000000000E+00 0. -1.
         21   -1    0    0  501  502  0.00000000000E+00 -0.00000000000E+00 -0.11321511827E+04  0.11321511827E+04  0.00000000000E+00 0. -1.
   -9000010    2    1    2    0  502  0.14291559557E+02 -0.18240589933E+03 -0.84486432923E+03  0.13201782735E+04  0.99779696248E+03 0.  0.
         13    1    3    3    0    0 -0.13259025656E+03 -0.42606760493E+02  0.20670100166E+03  0.24924050118E+03  0.10566000000E+00 0. -1.
         -4    1    3    3    0  502  0.14688181612E+03 -0.13979913884E+03 -0.10515653309E+04  0.10709377724E+04  0.00000000000E+00 0. -1.
        -13    1    1    2    0    0 -0.14291559557E+02  0.18240589933E+03  0.11899923398E+03  0.21825899669E+03  0.10566000000E+00 0.  1.
<mgrwt>
<rscale>  1 0.66108850E+03</rscale>
<asrwt>0</asrwt>
<pdfrwt beam="2">  1       21 0.17417710E+00 0.10144333E+04</pdfrwt>
<pdfrwt beam="1">  1       -4 0.62505553E-01 0.10144333E+04</pdfrwt>
<totfact> 0.16809750E+01</totfact>
</mgrwt>
</event>
<event>
 6    2  0.2294477E-005  0.1197264E+04  0.7818608E-02  0.9336667E-01
         21   -1    0    0  501  502  0.00000000000E+00  0.00000000000E+00  0.74094992902E+03  0.74094992902E+03  0.00000000000E+00 0.  1.
         -4   -1    0    0    0  501 -0.00000000000E+00 -0.00000000000E+00 -0.10349537698E+04  0.10349537698E+04  0.00000000000E+00 0. -1.
   -9000010    2    1    2    0  502 -0.52596628298E+03  0.91941714683E+01 -0.34873023142E+03  0.12470180282E+04  0.10755073801E+04 0.  0.
         13    1    3    3    0    0 -0.10474335035E+03  0.34272026078E+03 -0.56399441498E+03  0.66822006696E+03  0.10566000000E+00 0. -1.
         -4    1    3    3    0  502 -0.42122293262E+03 -0.33352608931E+03  0.21526418356E+03  0.57879796124E+03  0.00000000000E+00 0. -1.
        -13    1    1    2    0    0  0.52596628298E+03 -0.91941714683E+01  0.54726390619E+02  0.52888567064E+03  0.10566000000E+00 0.  1.
<mgrwt>
<rscale>  1 0.97476196E+03</rscale>
<asrwt>0</asrwt>
<pdfrwt beam="1">  1       21 0.11399230E+00 0.11972640E+04</pdfrwt>
<pdfrwt beam="2">  1       -4 0.15922366E+00 0.11972640E+04</pdfrwt>
<totfact> 0.54353377E+00</totfact>
</mgrwt>
</event>
<event>
 6    2  0.2294477E-005  0.1044699E+04  0.7818608E-02  0.9608690E-01
         21   -1    0    0  501  502  0.00000000000E+00  0.00000000000E+00  0.62196045848E+03  0.62196045848E+03  0.00000000000E+00 0.  1.
         -4   -1    0    0    0  501 -0.00000000000E+00 -0.00000000000E+00 -0.75870710868E+03  0.75870710868E+03  0.00000000000E+00 0. -1.
   -9000010    2    1    2    0  502 -0.13324354833E+03 -0.27314297456E+03  0.64346479247E+01  0.10447184296E+04  0.99951701574E+03 0.  0.
         13    1    3    3    0    0 -0.52088448161E+03 -0.34140140115E+03 -0.11390780066E+03  0.63312760017E+03  0.10566000000E+00 0. -1.
         -4    1    3    3    0  502  0.38764093327E+03  0.68258426590E+02  0.12034244859E+03  0.41159082944E+03  0.00000000000E+00 0. -1.
        -13    1    1    2    0    0  0.13324354833E+03  0.27314297456E+03 -0.14318129813E+03  0.33594913755E+03  0.10566000000E+00 0.  1.
<mgrwt>
<rscale>  1 0.76723659E+03</rscale>
<asrwt>0</asrwt>
<pdfrwt beam="1">  1       21 0.95686225E-01 0.10446986E+04</pdfrwt>
<pdfrwt beam="2">  1       -4 0.11672417E+00 0.10446986E+04</pdfrwt>
<totfact> 0.19312444E+01</totfact>
</mgrwt>
</event>
<event>
 6    2  0.2294477E-005  0.1040302E+04  0.7818608E-02  0.9689813E-01
         21   -1    0    0  501  502  0.00000000000E+00  0.00000000000E+00  0.64087640066E+03  0.64087640066E+03  0.00000000000E+00 0. -1.
         -4   -1    0    0    0  501 -0.00000000000E+00 -0.00000000000E+00 -0.13278605857E+04  0.13278605857E+04  0.00000000000E+00 0. -1.
   -9000010    2    1    2    0  502  0.36960899044E+02 -0.23084617045E+03  0.19315119148E+03  0.10580809840E+04  0.10136922233E+04 0.  0.
         13    1    3    3    0    0 -0.83704759888E+02 -0.58579812590E+03 -0.75943901576E+02  0.59660155757E+03  0.10566000000E+00 0. -1.
         -4    1    3    3    0  502  0.12066565893E+03  0.35495195545E+03  0.26909509305E+03  0.46147942644E+03  0.00000000000E+00 0. -1.
        -13    1    1    2    0    0 -0.36960899044E+02  0.23084617045E+03 -0.88013537654E+03  0.91065600238E+03  0.10566000000E+00 0.  1.
<mgrwt>
<rscale>  1 0.71626600E+03</rscale>
<asrwt>0</asrwt>
<pdfrwt beam="1">  1       21 0.98596371E-01 0.10403019E+04</pdfrwt>
<pdfrwt beam="2">  1       -4 0.20428624E+00 0.10403019E+04</pdfrwt>
<totfact> 0.38664968E+00</totfact>
</mgrwt>
</event>
<event>
 6    2  0.2294477E-005  0.1158092E+04  0.7818608E-02  0.9356714E-01
         21   -1    0    0  501  502  0.00000000000E+00  0.00000000000E+00  0.78750409999E+03  0.78750409999E+03  0.00000000000E+00 0. -1.
         -4   -1    0    0    0  501 -0.00000000000E+00 -0.00000000000E+00 -0.17467825622E+04  0.17467825622E+04  0.00000000000E+00 0. -1.
   -9000010    2    1    2    0  502 -0.39150551902E+03 -0.37278890584E+03  0.27195879419E+03  0.11895958678E+04  0.10241721551E+04 0.  0.
         13    1    3    3    0    0 -0.18478514754E+03 -0.71439812789E+03  0.67458864536E+02  0.74098646780E+03  0.10566000000E+00 0. -1.
         -4    1    3    3    0  502 -0.20672037148E+03  0.34160922205E+03  0.20449992965E+03  0.44860940004E+03  0.00000000000E+00 0. -1.
        -13    1    1    2    0    0  0.39150551902E+03  0.37278890584E+03 -0.12312372564E+04  0.13446907944E+04  0.10566000000E+00 0.  1.
<mgrwt>
<rscale>  1 0.95725188E+03</rscale>
<asrwt>0</asrwt>
<pdfrwt beam="1">  1       21 0.12115448E+00 0.11580919E+04</pdfrwt>
<pdfrwt beam="2">  1       -4 0.26873578E+00 0.11580919E+04</pdfrwt>
<totfact> 0.88449279E-01</totfact>
</mgrwt>
</event>
<event>
 6    2  0.2294477E-005  0.1000739E+04  0.7818608E-02  0.1005996E+00
         -4   -1    0    0    0  501 -0.00000000000E+00  0.00000000000E+00  0.10244028566E+04  0.10244028566E+04  0.00000000000E+00 0. -1.
         21   -1    0    0  501  502  0.00000000000E+00 -0.00000000000E+00 -0.37316617238E+03  0.37316617238E+03  0.00000000000E+00 0. -1.
   -9000010    2    1    2    0  502 -0.23145117786E+02 -0.75857971728E+02  0.31061512567E+03  0.10478360084E+04  0.99759130705E+03 0.  0.
         13    1    3    3    0    0  0.43853960621E+03  0.16439215305E+03  0.22791400694E+03  0.52085177539E+03  0.10566000000E+00 0. -1.
         -4    1    3    3    0  502 -0.46168472400E+03 -0.24025012478E+03  0.82701118730E+02  0.52698423304E+03  0.00000000000E+00 0. -1.
        -13    1    1    2    0    0  0.23145117786E+02  0.75857971728E+02  0.34062155852E+03  0.34973302052E+03  0.10566000000E+00 0.  1.
<mgrwt>
<rscale>  1 0.53097387E+03</rscale>
<asrwt>0</asrwt>
<pdfrwt beam="2">  1       21 0.57410181E-01 0.10007390E+04</pdfrwt>
<pdfrwt beam="1">  1       -4 0.15760044E+00 0.10007390E+04</pdfrwt>
<totfact> 0.29029036E+01</totfact>
</mgrwt>
</event>
<event>
 6    2  0.2294477E-005  0.1006858E+04  0.7818608E-02  0.9786532E-01
         -4   -1    0    0    0  501 -0.00000000000E+00  0.00000000000E+00  0.76255698154E+03  0.76255698154E+03  0.00000000000E+00 0. -1.
         21   -1    0    0  501  502  0.00000000000E+00 -0.00000000000E+00 -0.57852883258E+03  0.57852883258E+03  0.00000000000E+00 0. -1.
   -9000010    2    1    2    0  502 -0.18530980616E+03  0.24451305759E+02 -0.88365514225E+02  0.10107285688E+04  0.98935644999E+03 0.  0.
         13    1    3    3    0    0 -0.16337944717E+03  0.24483354789E+02 -0.53685724566E+03  0.56170098077E+03  0.10566000000E+00 0. -1.
         -4    1    3    3    0  502 -0.21930358991E+02 -0.32049030061E-01  0.44849173143E+03  0.44902758806E+03  0.00000000000E+00 0. -1.
        -13    1    1    2    0    0  0.18530980616E+03 -0.24451305759E+02  0.27239366318E+03  0.33035724529E+03  0.10566000000E+00 0.  1.
<mgrwt>
<rscale>  1 0.66090331E+03</rscale>
<asrwt>0</asrwt>
<pdfrwt beam="2">  1       21 0.89004436E-01 0.10068584E+04</pdfrwt>
<pdfrwt beam="1">  1       -4 0.11731646E+00 0.10068584E+04</pdfrwt>
<totfact> 0.22820177E+01</totfact>
</mgrwt>
</event>
<event>
 6    2  0.2294477E-005  0.1009282E+04  0.7818608E-02  0.9808557E-01
         21   -1    0    0  501  502  0.00000000000E+00  0.00000000000E+00  0.16716325036E+04  0.16716325036E+04  0.00000000000E+00 0. -1.
         -4   -1    0    0    0  501 -0.00000000000E+00 -0.00000000000E+00 -0.24338304354E+03  0.24338304354E+03  0.00000000000E+00 0. -1.
   -9000010    2    1    2    0  502 -0.17259672131E+03  0.26639115200E+01  0.14200802946E+04  0.17422050409E+04  0.99441120117E+03 0.  0.
         13    1    3    3    0    0 -0.17628018646E+03  0.39429069632E+03  0.22997517908E+03  0.48931426661E+03  0.10566000000E+00 0. -1.
         -4    1    3    3    0  502  0.36834651491E+01 -0.39162678480E+03  0.11901051155E+04  0.12528907743E+04  0.00000000000E+00 0. -1.
        -13    1    1    2    0    0  0.17259672131E+03 -0.26639115200E+01  0.81691655124E+01  0.17281050623E+03  0.10566000000E+00 0.  1.
<mgrwt>
<rscale>  1 0.64905353E+03</rscale>
<asrwt>0</asrwt>
<pdfrwt beam="1">  1       21 0.25717422E+00 0.10092821E+04</pdfrwt>
<pdfrwt beam="2">  1       -4 0.37443546E-01 0.10092821E+04</pdfrwt>
<totfact> 0.13663047E+01</totfact>
</mgrwt>
</event>
<event>
 6    2  0.2294477E-005  0.1003666E+04  0.7818608E-02  0.9739552E-01
         -4   -1    0    0    0  501 -0.00000000000E+00  0.00000000000E+00  0.20074491380E+03  0.20074491380E+03  0.00000000000E+00 0. -1.
         21   -1    0    0  501  502  0.00000000000E+00 -0.00000000000E+00 -0.20649989112E+04  0.20649989112E+04  0.00000000000E+00 0. -1.
   -9000010    2    1    2    0  502 -0.17787721045E+02  0.21973149166E+03 -0.17501455075E+04  0.20175118970E+04  0.97915607834E+03 0.  0.
         13    1    3    3    0    0  0.32924194168E+03  0.41763752484E+03 -0.60931417556E+03  0.80875529922E+03  0.10566000000E+00 0. -1.
         -4    1    3    3    0  502 -0.34702966273E+03 -0.19790603318E+03 -0.11408313319E+04  0.12087565978E+04  0.00000000000E+00 0. -1.
        -13    1    1    2    0    0  0.17787721045E+02 -0.21973149166E+03 -0.11410848993E+03  0.24823192801E+03  0.10566000000E+00 0.  1.
<mgrwt>
<rscale>  1 0.68709931E+03</rscale>
<asrwt>0</asrwt>
<pdfrwt beam="2">  1       21 0.31769215E+00 0.10036658E+04</pdfrwt>
<pdfrwt beam="1">  1       -4 0.30883832E-01 0.10036658E+04</pdfrwt>
<totfact> 0.84105370E+00</totfact>
</mgrwt>
</event>
<event>
 6    2  0.2294477E-005  0.9382464E+03  0.7818608E-02  0.1036059E+00
         21   -1    0    0  501  502  0.00000000000E+00  0.00000000000E+00  0.70887285152E+03  0.70887285152E+03  0.00000000000E+00 0. -1.
         -4   -1    0    0    0  501 -0.00000000000E+00 -0.00000000000E+00 -0.38265660441E+03  0.38265660441E+03  0.00000000000E+00 0. -1.
   -9000010    2    1    2    0  502 -0.30003299921E+02  0.24606195936E+02  0.39064216351E+03  0.10163205951E+04  0.93744364585E+03 0.  0.
         13    1    3    3    0    0 -0.18977171081E+03 -0.42265510756E+03  0.19385491221E+03  0.50222542780E+03  0.10566000000E+00 0. -1.
         -4    1    3    3    0  502  0.15976841089E+03  0.44726130350E+03  0.19678725130E+03  0.51409516726E+03  0.00000000000E+00 0. -1.
        -13    1    1    2    0    0  0.30003299921E+02 -0.24606195936E+02 -0.64425916410E+02  0.75208860874E+02  0.10566000000E+00 0.  1.
<mgrwt>
<rscale>  1 0.42311073E+03</rscale>
<asrwt>0</asrwt>
<pdfrwt beam="1">  1       21 0.10905736E+00 0.93824637E+03</pdfrwt>
<pdfrwt beam="2">  1       -4 0.58870247E-01 0.93824637E+03</pdfrwt>
<totfact> 0.68897963E+01</totfact>
</mgrwt>
</event>
<event>
 6    2  0.2294477E-005  0.1145417E+04  0.7818608E-02  0.9360076E-01
         -4   -1    0    0    0  501 -0.00000000000E+00  0.00000000000E+00  0.56017967927E+03  0.56017967927E+03  0.00000000000E+00 0. -1.
         21   -1    0    0  501  502  0.00000000000E+00 -0.00000000000E+00 -0.13179921734E+04  0.13179921734E+04  0.00000000000E+00 0. -1.
   -9000010    2    1    2    0  502 -0.54118480686E+03 -0.10878482363E+03 -0.64574068340E+03  0.13148999512E+04  0.10036262843E+04 0.  0.
         13    1    3    3    0    0 -0.85366444061E+01  0.39977127045E+03 -0.30787440023E+03  0.50465493207E+03  0.10566000000E+00 0. -1.
         -4    1    3    3    0  502 -0.53264816245E+03 -0.50855609409E+03 -0.33786628317E+03  0.81024501917E+03  0.00000000000E+00 0. -1.
        -13    1    1    2    0    0  0.54118480686E+03  0.10878482363E+03 -0.11207181075E+03  0.56327190144E+03  0.10566000000E+00 0.  1.
<mgrwt>
<rscale>  1 0.95435415E+03</rscale>
<asrwt>0</asrwt>
<pdfrwt beam="2">  1       21 0.20276802E+00 0.11454173E+04</pdfrwt>
<pdfrwt beam="1">  1       -4 0.86181491E-01 0.11454173E+04</pdfrwt>
<totfact> 0.50074469E+00</totfact>
</mgrwt>
</event>
<event>
 6    2  0.2294477E-005  0.9966234E+03  0.7818608E-02  0.1006371E+00
         21   -1    0    0  501  502  0.00000000000E+00  0.00000000000E+00  0.32196554367E+03  0.32196554367E+03  0.00000000000E+00 0. -1.
         -4   -1    0    0    0  501 -0.00000000000E+00 -0.00000000000E+00 -0.10367096309E+04  0.10367096309E+04  0.00000000000E+00 0. -1.
   -9000010    2    1    2    0  502 -0.39581988346E+02 -0.68791091159E+02 -0.47096196962E+03  0.11022991225E+04  0.99345821789E+03 0.  0.
         13    1    3    3    0    0  0.28843672004E+01  0.97559658932E+02 -0.75993227335E+03  0.76617444350E+03  0.10566000000E+00 0. -1.
         -4    1    3    3    0  502 -0.42466355547E+02 -0.16635075009E+03  0.28897030374E+03  0.33612467903E+03  0.00000000000E+00 0. -1.
        -13    1    1    2    0    0  0.39581988346E+02  0.68791091159E+02 -0.24378211762E+03  0.25637605204E+03  0.10566000000E+00 0.  1.
<mgrwt>
<rscale>  1 0.52942800E+03</rscale>
<asrwt>0</asrwt>
<pdfrwt beam="1">  1       21 0.49533161E-01 0.99662339E+03</pdfrwt>
<pdfrwt beam="2">  1       -4 0.15949379E+00 0.99662339E+03</pdfrwt>
<totfact> 0.38791649E+01</totfact>
</mgrwt>
</event>
<event>
 6    2  0.2294477E-005  0.1008436E+04  0.7818608E-02  0.1010030E+00
         -4   -1    0    0    0  501 -0.00000000000E+00  0.00000000000E+00  0.81018590779E+03  0.81018590779E+03  0.00000000000E+00 0. -1.
         21   -1    0    0  501  502  0.00000000000E+00 -0.00000000000E+00 -0.36576203297E+03  0.36576203297E+03  0.00000000000E+00 0. -1.
   -9000010    2    1    2    0  502 -0.65377890876E+02 -0.20087628025E+02  0.36823745163E+03  0.10735655025E+04  0.10061144498E+04 0.  0.
         13    1    3    3    0    0 -0.52397529202E+03 -0.90227257907E+02  0.28145696239E+03  0.60158881103E+03  0.10566000000E+00 0. -1.
         -4    1    3    3    0  502  0.45859740114E+03  0.70139629882E+02  0.86780489242E+02  0.47197669151E+03  0.00000000000E+00 0. -1.
        -13    1    1    2    0    0  0.65377890876E+02  0.20087628025E+02  0.76186423187E+02  0.10238243823E+03  0.10566000000E+00 0.  1.
<mgrwt>
<rscale>  1 0.51462576E+03</rscale>
<asrwt>0</asrwt>
<pdfrwt beam="2">  1       21 0.56271082E-01 0.10084364E+04</pdfrwt>
<pdfrwt beam="1">  1       -4 0.12464399E+00 0.10084364E+04</pdfrwt>
<totfact> 0.56210771E+01</totfact>
</mgrwt>
</event>
<event>
 6    2  0.2294477E-005  0.1005335E+04  0.7818608E-02  0.9920560E-01
         21   -1    0    0  501  502  0.00000000000E+00  0.00000000000E+00  0.50217711405E+03  0.50217711405E+03  0.00000000000E+00 0. -1.
         -4   -1    0    0    0  501 -0.00000000000E+00 -0.00000000000E+00 -0.63382565928E+03  0.63382565928E+03  0.00000000000E+00 0. -1.
   -9000010    2    1    2    0  502 -0.97005720205E+02 -0.73149512320E+02 -0.99001298915E+02  0.10101981043E+04  0.99796692919E+03 0.  0.
         13    1    3    3    0    0 -0.44511154880E+03 -0.12002146866E+03 -0.34972093660E+03  0.57864858807E+03  0.10566000000E+00 0. -1.
         -4    1    3    3    0  502  0.34810582860E+03  0.46871956339E+02  0.25071963769E+03  0.43154951618E+03  0.00000000000E+00 0. -1.
        -13    1    1    2    0    0  0.97005720205E+02  0.73149512320E+02 -0.32647246308E+02  0.12580466907E+03  0.10566000000E+00 0.  1.
<mgrwt>
<rscale>  1 0.59275135E+03</rscale>
<asrwt>0</asrwt>
<pdfrwt beam="1">  1       21 0.77258018E-01 0.10053352E+04</pdfrwt>
<pdfrwt beam="2">  1       -4 0.97511639E-01 0.10053352E+04</pdfrwt>
<totfact> 0.50195481E+01</totfact>
</mgrwt>
</event>
<event>
 6    2  0.2294477E-005  0.1090224E+04  0.7818608E-02  0.9485828E-01
         -4   -1    0    0    0  501 -0.00000000000E+00  0.00000000000E+00  0.75633357989E+03  0.75633357989E+03  0.00000000000E+00 0. -1.
         21   -1    0    0  501  502  0.00000000000E+00 -0.00000000000E+00 -0.75004108308E+03  0.75004108308E+03  0.00000000000E+00 0. -1.
   -9000010    2    1    2    0  502  0.35822437656E+03  0.19790846142E+03 -0.59573154687E+02  0.10918499251E+04  0.10104923727E+04 0.  0.
         13    1    3    3    0    0  0.68833330667E+03  0.29032443560E+03 -0.53990407788E+02  0.74900333396E+03  0.10566000000E+00 0. -1.
         -4    1    3    3    0  502 -0.33010893011E+03 -0.92415974180E+02 -0.55827468997E+01  0.34284659119E+03  0.00000000000E+00 0. -1.
        -13    1    1    2    0    0 -0.35822437656E+03 -0.19790846142E+03  0.65865651503E+02  0.41452473783E+03  0.10566000000E+00 0.  1.
<mgrwt>
<rscale>  1 0.85336744E+03</rscale>
<asrwt>0</asrwt>
<pdfrwt beam="2">  1       21 0.11539094E+00 0.10902235E+04</pdfrwt>
<pdfrwt beam="1">  1       -4 0.11635901E+00 0.10902235E+04</pdfrwt>
<totfact> 0.12106593E+01</totfact>
</mgrwt>
</event>
<event>
 6    2  0.2294477E-005  0.1087072E+04  0.7818608E-02  0.9496134E-01
         -4   -1    0    0    0  501 -0.00000000000E+00  0.00000000000E+00  0.43241798381E+03  0.43241798381E+03  0.00000000000E+00 0. -1.
         21   -1    0    0  501  502  0.00000000000E+00 -0.00000000000E+00 -0.16843496478E+04  0.16843496478E+04  0.00000000000E+00 0. -1.
   -9000010    2    1    2    0  502  0.15908752928E+03 -0.36501778406E+03 -0.13229699091E+04  0.17123009851E+04  0.10115228413E+04 0.  0.
         13    1    3    3    0    0  0.43007512943E+03 -0.27804571267E+03 -0.19339856257E+03  0.54742766688E+03  0.10566000000E+00 0. -1.
         -4    1    3    3    0  502 -0.27098760015E+03 -0.86972071392E+02 -0.11295713465E+04  0.11648733182E+04  0.00000000000E+00 0. -1.
        -13    1    1    2    0    0 -0.15908752928E+03  0.36501778406E+03  0.71038245155E+02  0.40446664646E+03  0.10566000000E+00 0.  1.
<mgrwt>
<rscale>  1 0.84569428E+03</rscale>
<asrwt>0</asrwt>
<pdfrwt beam="2">  1       21 0.25913071E+00 0.10870719E+04</pdfrwt>
<pdfrwt beam="1">  1       -4 0.66525845E-01 0.10870719E+04</pdfrwt>
<totfact> 0.38921852E+00</totfact>
</mgrwt>
</event>
<event>
 6    2  0.2294477E-005  0.1010621E+04  0.7818608E-02  0.9875071E-01
         21   -1    0    0  501  502  0.00000000000E+00  0.00000000000E+00  0.25622975635E+03  0.25622975635E+03  0.00000000000E+00 0. -1.
         -4   -1    0    0    0  501 -0.00000000000E+00 -0.00000000000E+00 -0.12883042756E+04  0.12883042756E+04  0.00000000000E+00 0. -1.
   -9000010    2    1    2    0  502 -0.13199547187E+03 -0.41795144161E+02 -0.91024234824E+03  0.13601086331E+04  0.10010917654E+04 0.  0.
         13    1    3    3    0    0 -0.50095365839E+03  0.22548521182E+03 -0.42553590344E+03  0.69489493083E+03  0.10566000000E+00 0. -1.
         -4    1    3    3    0  502  0.36895818652E+03 -0.26728035598E+03 -0.48470644480E+03  0.66521370230E+03  0.00000000000E+00 0. -1.
        -13    1    1    2    0    0  0.13199547187E+03  0.41795144161E+02 -0.12183217098E+03  0.18442539879E+03  0.10566000000E+00 0.  1.
<mgrwt>
<rscale>  1 0.61484833E+03</rscale>
<asrwt>0</asrwt>
<pdfrwt beam="1">  1       21 0.39419962E-01 0.10106208E+04</pdfrwt>
<pdfrwt beam="2">  1       -4 0.19820066E+00 0.10106208E+04</pdfrwt>
<totfact> 0.33658225E+01</totfact>
</mgrwt>
</event>
<event>
 6    2  0.2294477E-005  0.9937110E+03  0.7818608E-02  0.9849994E-01
         21   -1    0    0  501  502  0.00000000000E+00  0.00000000000E+00  0.13591576945E+04  0.13591576945E+04  0.00000000000E+00 0. -1.
         -4   -1    0    0    0  501 -0.00000000000E+00 -0.00000000000E+00 -0.44957907723E+03  0.44957907723E+03  0.00000000000E+00 0. -1.
   -9000010    2    1    2    0  502 -0.14022502938E+03 -0.72761176530E+02  0.11507540875E+04  0.15204264073E+04  0.98107300568E+03 0.  0.
         13    1    3    3    0    0  0.42988283022E+02 -0.44773918689E+03  0.22069862375E+03  0.50102521458E+03  0.10566000000E+00 0. -1.
         -4    1    3    3    0  502 -0.18321331240E+03  0.37497801036E+03  0.93005546375E+03  0.10194011927E+04  0.00000000000E+00 0. -1.
        -13    1    1    2    0    0  0.14022502938E+03  0.72761176530E+02 -0.24117547019E+03  0.28831036446E+03  0.10566000000E+00 0.  1.
<mgrwt>
<rscale>  1 0.62747247E+03</rscale>
<asrwt>0</asrwt>
<pdfrwt beam="1">  1       21 0.20910118E+00 0.99371097E+03</pdfrwt>
<pdfrwt beam="2">  1       -4 0.69166013E-01 0.99371097E+03</pdfrwt>
<totfact> 0.76495708E+00</totfact>
</mgrwt>
</event>
<event>
 6    2  0.2294477E-005  0.1076180E+04  0.7818608E-02  0.9517576E-01
         -4   -1    0    0    0  501 -0.00000000000E+00  0.00000000000E+00  0.59023995006E+03  0.59023995006E+03  0.00000000000E+00 0. -1.
         21   -1    0    0  501  502  0.00000000000E+00 -0.00000000000E+00 -0.10678654511E+04  0.10678654511E+04  0.00000000000E+00 0. -1.
   -9000010    2    1    2    0  502 -0.19230604204E+03 -0.32864075533E+03 -0.63108856382E+03  0.12475724759E+04  0.10065674083E+04 0.  0.
         13    1    3    3    0    0  0.17805848214E+03 -0.59041077324E+03 -0.42796690197E+03  0.75062999178E+03  0.10566000000E+00 0. -1.
         -4    1    3    3    0  502 -0.37036452418E+03  0.26177001791E+03 -0.20312166184E+03  0.49694248415E+03  0.00000000000E+00 0. -1.
        -13    1    1    2    0    0  0.19230604204E+03  0.32864075533E+03  0.15346306279E+03  0.41053292520E+03  0.10566000000E+00 0.  1.
<mgrwt>
<rscale>  1 0.83000310E+03</rscale>
<asrwt>0</asrwt>
<pdfrwt beam="2">  1       21 0.16428699E+00 0.10761804E+04</pdfrwt>
<pdfrwt beam="1">  1       -4 0.90806147E-01 0.10761804E+04</pdfrwt>
<totfact> 0.84699034E+00</totfact>
</mgrwt>
</event>
<event>
 6    2  0.2294477E-005  0.1062137E+04  0.7818608E-02  0.9688324E-01
         21   -1    0    0  501  502  0.00000000000E+00  0.00000000000E+00  0.20724803346E+04  0.20724803346E+04  0.00000000000E+00 0.  1.
         -4   -1    0    0    0  501 -0.00000000000E+00 -0.00000000000E+00 -0.19944337559E+03  0.19944337559E+03  0.00000000000E+00 0. -1.
   -9000010    2    1    2    0  502 -0.34944259378E+02  0.21798111895E+03  0.14899339933E+04  0.18297645047E+04  0.10389407918E+04 0.  0.
         13    1    3    3    0    0 -0.36070881208E+03 -0.27510611697E+03  0.81428579313E+03  0.93212423355E+03  0.10566000000E+00 0. -1.
         -4    1    3    3    0  502  0.32576455270E+03  0.49308723593E+03  0.67564820013E+03  0.89764027114E+03  0.00000000000E+00 0. -1.
        -13    1    1    2    0    0  0.34944259378E+02 -0.21798111895E+03  0.38310296573E+03  0.44215920549E+03  0.10566000000E+00 0.  1.
<mgrwt>
<rscale>  1 0.71716263E+03</rscale>
<asrwt>0</asrwt>
<pdfrwt beam="1">  1       21 0.31884311E+00 0.10621369E+04</pdfrwt>
<pdfrwt beam="2">  1       -4 0.30683598E-01 0.10621369E+04</pdfrwt>
<totfact> 0.82948102E+00</totfact>
</mgrwt>
</event>
<event>
 6    2  0.2294477E-005  0.1075826E+04  0.7818608E-02  0.9508640E-01
         21   -1    0    0  501  502  0.00000000000E+00  0.00000000000E+00  0.29764203407E+04  0.29764203407E+04  0.00000000000E+00 0. -1.
         -4   -1    0    0    0  501 -0.00000000000E+00 -0.00000000000E+00 -0.29927220036E+03  0.29927220036E+03  0.00000000000E+00 0. -1.
   -9000010    2    1    2    0  502  0.35715169444E+03 -0.16450846674E+03  0.26741714019E+04  0.28824632942E+04  0.10013898277E+04 0.  0.
         13    1    3    3    0    0  0.62982372365E+03 -0.90799364781E+02  0.10046745629E+04  0.11892406973E+04  0.10566000000E+00 0. -1.
         -4    1    3    3    0  502 -0.27267202921E+03 -0.73709101958E+02  0.16694968390E+04  0.16932225969E+04  0.00000000000E+00 0. -1.
        -13    1    1    2    0    0 -0.35715169444E+03  0.16450846674E+03  0.29767384255E+01  0.39322924689E+03  0.10566000000E+00 0.  1.
<mgrwt>
<rscale>  1 0.83649803E+03</rscale>
<asrwt>0</asrwt>
<pdfrwt beam="1">  1       21 0.45791080E+00 0.10758262E+04</pdfrwt>
<pdfrwt beam="2">  1       -4 0.46041879E-01 0.10758262E+04</pdfrwt>
<totfact> 0.44939105E-01</totfact>
</mgrwt>
</event>
<event>
 6    2  0.2294477E-005  0.9957514E+03  0.7818608E-02  0.1007816E+00
         21   -1    0    0  501  502  0.00000000000E+00  0.00000000000E+00  0.39850868148E+03  0.39850868148E+03  0.00000000000E+00 0. -1.
         -4   -1    0    0    0  501 -0.00000000000E+00 -0.00000000000E+00 -0.72692321383E+03  0.72692321383E+03  0.00000000000E+00 0. -1.
   -9000010    2    1    2    0  502 -0.74880308602E+02  0.13468043472E+02 -0.33094717816E+03  0.10493078238E+04  0.99284058410E+03 0.  0.
         13    1    3    3    0    0  0.38143980295E+03  0.27211394674E+03 -0.19455803783E+03  0.50734127028E+03  0.10566000000E+00 0. -1.
         -4    1    3    3    0  502 -0.45632011155E+03 -0.25864590327E+03 -0.13638914034E+03  0.54196655347E+03  0.00000000000E+00 0. -1.
        -13    1    1    2    0    0  0.74880308602E+02 -0.13468043472E+02  0.25326458147E+01  0.76124071555E+02  0.10566000000E+00 0.  1.
<mgrwt>
<rscale>  1 0.52352043E+03</rscale>
<asrwt>0</asrwt>
<pdfrwt beam="1">  1       21 0.61309028E-01 0.99575141E+03</pdfrwt>
<pdfrwt beam="2">  1       -4 0.11183434E+00 0.99575141E+03</pdfrwt>
<totfact> 0.61017892E+01</totfact>
</mgrwt>
</event>
<event>
 6    2  0.2294477E-005  0.9940828E+03  0.7818608E-02  0.9758947E-01
         -4   -1    0    0    0  501 -0.00000000000E+00  0.00000000000E+00  0.45610879081E+03  0.45610879081E+03  0.00000000000E+00 0. -1.
         21   -1    0    0  501  502  0.00000000000E+00 -0.00000000000E+00 -0.10576724554E+04  0.10576724554E+04  0.00000000000E+00 0. -1.
   -9000010    2    1    2    0  502 -0.45218644026E+02 -0.20788039552E+03 -0.75767326832E+03  0.12499077838E+04  0.97105185335E+03 0.  0.
         13    1    3    3    0    0  0.42285785646E+03  0.39579076254E+02 -0.51485064415E+03  0.66741776047E+03  0.10566000000E+00 0. -1.
         -4    1    3    3    0  502 -0.46807650049E+03 -0.24745947177E+03 -0.24282262418E+03  0.58249002334E+03  0.00000000000E+00 0. -1.
        -13    1    1    2    0    0  0.45218644026E+02  0.20788039552E+03  0.15610960374E+03  0.26387346239E+03  0.10566000000E+00 0.  1.
<mgrwt>
<rscale>  1 0.67612975E+03</rscale>
<asrwt>0</asrwt>
<pdfrwt beam="2">  1       21 0.16271884E+00 0.99408284E+03</pdfrwt>
<pdfrwt beam="1">  1       -4 0.70170583E-01 0.99408284E+03</pdfrwt>
<totfact> 0.15901471E+01</totfact>
</mgrwt>
</event>
<event>
 6    2  0.2294477E-005  0.1006039E+04  0.7818608E-02  0.9918799E-01
         -4   -1    0    0    0  501 -0.00000000000E+00  0.00000000000E+00  0.52727361731E+03  0.52727361731E+03  0.00000000000E+00 0. -1.
         21   -1    0    0  501  502  0.00000000000E+00 -0.00000000000E+00 -0.62079605706E+03  0.62079605706E+03  0.00000000000E+00 0. -1.
   -9000010    2    1    2    0  502  0.65960707650E+02 -0.10254316730E+03 -0.21106632379E+02  0.10062600258E+04  0.99862296861E+03 0.  0.
         13    1    3    3    0    0  0.26134006671E+03  0.14651243545E+03 -0.40811490436E+03  0.50628283650E+03  0.10566000000E+00 0. -1.
         -4    1    3    3    0  502 -0.19537935906E+03 -0.24905560276E+03  0.38700827199E+03  0.49997718927E+03  0.00000000000E+00 0. -1.
        -13    1    1    2    0    0 -0.65960707650E+02  0.10254316730E+03 -0.72415807374E+02  0.14180964860E+03  0.10566000000E+00 0.  1.
<mgrwt>
<rscale>  1 0.59358792E+03</rscale>
<asrwt>0</asrwt>
<pdfrwt beam="2">  1       21 0.95507086E-01 0.10060386E+04</pdfrwt>
<pdfrwt beam="1">  1       -4 0.81119018E-01 0.10060386E+04</pdfrwt>
<totfact> 0.46576731E+01</totfact>
</mgrwt>
</event>
<event>
 6    2  0.2294477E-005  0.1061588E+04  0.7818608E-02  0.9563193E-01
         21   -1    0    0  501  502  0.00000000000E+00  0.00000000000E+00  0.57665703058E+03  0.57665703058E+03  0.00000000000E+00 0. -1.
         -4   -1    0    0    0  501 -0.00000000000E+00 -0.00000000000E+00 -0.96450929408E+03  0.96450929408E+03  0.00000000000E+00 0. -1.
   -9000010    2    1    2    0  502  0.19118225512E+03 -0.27950169744E+03 -0.49917516659E+02  0.10627608922E+04  0.10061297640E+04 0.  0.
         13    1    3    3    0    0 -0.14784430209E+03 -0.34956044588E+03  0.36213239479E+03  0.52458586094E+03  0.10566000000E+00 0. -1.
         -4    1    3    3    0  502  0.33902655721E+03  0.70058748439E+02 -0.41204991145E+03  0.53817503124E+03  0.00000000000E+00 0. -1.
        -13    1    1    2    0    0 -0.19118225512E+03  0.27950169744E+03 -0.33793474684E+03  0.47840543248E+03  0.10566000000E+00 0.  1.
<mgrwt>
<rscale>  1 0.79780929E+03</rscale>
<asrwt>0</asrwt>
<pdfrwt beam="1">  1       21 0.88716466E-01 0.10615879E+04</pdfrwt>
<pdfrwt beam="2">  1       -4 0.14838604E+00 0.10615879E+04</pdfrwt>
<totfact> 0.12458246E+01</totfact>
</mgrwt>
</event>
<event>
 6    2  0.2294477E-005  0.1045810E+04  0.7818608E-02  0.9686276E-01
         -4   -1    0    0    0  501 -0.00000000000E+00  0.00000000000E+00  0.42833454628E+03  0.42833454628E+03  0.00000000000E+00 0. -1.
         21   -1    0    0  501  502  0.00000000000E+00 -0.00000000000E+00 -0.95553219803E+03  0.95553219803E+03  0.00000000000E+00 0. -1.
   -9000010    2    1    2    0  502  0.13066130780E+03  0.19275224771E+03 -0.41163930377E+03  0.11239060755E+04  0.10195548754E+04 0.  0.
         13    1    3    3    0    0  0.15713514771E+03 -0.28302382538E+03  0.17510301673E+03  0.36804214162E+03  0.10566000000E+00 0. -1.
         -4    1    3    3    0  502 -0.26473839916E+02  0.47577607309E+03 -0.58674232050E+03  0.75586393392E+03  0.00000000000E+00 0. -1.
        -13    1    1    2    0    0 -0.13066130780E+03 -0.19275224771E+03 -0.11555834798E+03  0.25996066877E+03  0.10566000000E+00 0.  1.
<mgrwt>
<rscale>  1 0.71839834E+03</rscale>
<asrwt>0</asrwt>
<pdfrwt beam="2">  1       21 0.14700495E+00 0.10458097E+04</pdfrwt>
<pdfrwt beam="1">  1       -4 0.65897622E-01 0.10458097E+04</pdfrwt>
<totfact> 0.24224996E+01</totfact>
</mgrwt>
</event>
<event>
 6    2  0.2294477E-005  0.7911535E+03  0.7818608E-02  0.9875454E-01
         -4   -1    0    0    0  501 -0.00000000000E+00  0.00000000000E+00  0.21124501856E+03  0.21124501856E+03  0.00000000000E+00 0. -1.
         21   -1    0    0  501  502  0.00000000000E+00 -0.00000000000E+00 -0.14987329165E+04  0.14987329165E+04  0.00000000000E+00 0. -1.
   -9000010    2    1    2    0  502 -0.27689953212E+03 -0.80047618717E+02 -0.11360223889E+04  0.13843665352E+04  0.73677870723E+03 0.  0.
         13    1    3    3    0    0 -0.34073442193E+02  0.27650005508E+03 -0.76923713939E+03  0.81813144891E+03  0.10566000000E+00 0. -1.
         -4    1    3    3    0  502 -0.24282608993E+03 -0.35654767380E+03 -0.36678524955E+03  0.56623508627E+03  0.00000000000E+00 0. -1.
        -13    1    1    2    0    0  0.27689953212E+03  0.80047618717E+02 -0.15146550901E+03  0.32561139989E+03  0.10566000000E+00 0.  1.
<mgrwt>
<rscale>  1 0.61465761E+03</rscale>
<asrwt>0</asrwt>
<pdfrwt beam="2">  1       21 0.23057429E+00 0.79115348E+03</pdfrwt>
<pdfrwt beam="1">  1       -4 0.32499234E-01 0.79115348E+03</pdfrwt>
<totfact> 0.27702779E+01</totfact>
</mgrwt>
</event>
<event>
 6    2  0.2294477E-005  0.1029848E+04  0.7818608E-02  0.9655632E-01
         21   -1    0    0  501  502  0.00000000000E+00  0.00000000000E+00  0.54306145870E+03  0.54306145870E+03  0.00000000000E+00 0. -1.
         -4   -1    0    0    0  501 -0.00000000000E+00 -0.00000000000E+00 -0.77844071319E+03  0.77844071319E+03  0.00000000000E+00 0. -1.
   -9000010    2    1    2    0  502  0.19306696606E+03  0.18935272783E+03 -0.19300787984E+03  0.10477784910E+04  0.99370942213E+03 0.  0.
         13    1    3    3    0    0  0.44485652004E+03  0.39814628523E+03  0.10395094995E+03  0.60598976809E+03  0.10566000000E+00 0. -1.
         -4    1    3    3    0  502 -0.25178955399E+03 -0.20879355740E+03 -0.29695882979E+03  0.44178872292E+03  0.00000000000E+00 0. -1.
        -13    1    1    2    0    0 -0.19306696606E+03 -0.18935272783E+03 -0.42371374655E+02  0.27372368088E+03  0.10566000000E+00 0.  1.
<mgrwt>
<rscale>  1 0.73721043E+03</rscale>
<asrwt>0</asrwt>
<pdfrwt beam="1">  1       21 0.83547917E-01 0.10298484E+04</pdfrwt>
<pdfrwt beam="2">  1       -4 0.11976011E+00 0.10298484E+04</pdfrwt>
<totfact> 0.25158226E+01</totfact>
</mgrwt>
</event>
<event>
 6    2  0.2294477E-005  0.1169158E+04  0.7818608E-02  0.9376380E-01
         21   -1    0    0  501  502  0.00000000000E+00  0.00000000000E+00  0.50287120307E+03  0.50287120307E+03  0.00000000000E+00 0. -1.
         -4   -1    0    0    0  501 -0.00000000000E+00 -0.00000000000E+00 -0.14325934795E+04  0.14325934795E+04  0.00000000000E+00 0. -1.
   -9000010    2    1    2    0  502 -0.38026362781E+03 -0.30819358790E+03 -0.45795131032E+03  0.12556473763E+04  0.10617660838E+04 0.  0.
         13    1    3    3    0    0 -0.38831878732E+03 -0.29998481928E+03 -0.78643410261E+03  0.92696331173E+03  0.10566000000E+00 0. -1.
         -4    1    3    3    0  502  0.80551595086E+01 -0.82087686186E+01  0.32848279229E+03  0.32868406457E+03  0.00000000000E+00 0. -1.
        -13    1    1    2    0    0  0.38026362781E+03  0.30819358790E+03 -0.47177096610E+03  0.67981730625E+03  0.10566000000E+00 0.  1.
<mgrwt>
<rscale>  1 0.94045307E+03</rscale>
<asrwt>0</asrwt>
<pdfrwt beam="1">  1       21 0.77364802E-01 0.11691582E+04</pdfrwt>
<pdfrwt beam="2">  1       -4 0.22039899E+00 0.11691582E+04</pdfrwt>
<totfact> 0.53625994E+00</totfact>
</mgrwt>
</event>
<event>
 6    2  0.2294477E-005  0.1070584E+04  0.7818608E-02  0.9537923E-01
         21   -1    0    0  501  502  0.00000000000E+00  0.00000000000E+00  0.12013193376E+04  0.12013193376E+04  0.00000000000E+00 0. -1.
         -4   -1    0    0    0  501 -0.00000000000E+00 -0.00000000000E+00 -0.56802023004E+03  0.56802023004E+03  0.00000000000E+00 0. -1.
   -9000010    2    1    2    0  502  0.35721072267E+03 -0.47443526312E+02  0.83379574169E+03  0.13569692243E+04  0.10081169319E+04 0.  0.
         13    1    3    3    0    0 -0.15067770594E+03  0.27742663764E+03  0.65661850348E+03  0.72857201471E+03  0.10566000000E+00 0. -1.
         -4    1    3    3    0  502  0.50788842861E+03 -0.32487016395E+03  0.17717723821E+03  0.62839720964E+03  0.00000000000E+00 0. -1.
        -13    1    1    2    0    0 -0.35721072267E+03  0.47443526312E+02 -0.20049663413E+03  0.41237034330E+03  0.10566000000E+00 0.  1.
<mgrwt>
<rscale>  1 0.81544745E+03</rscale>
<asrwt>0</asrwt>
<pdfrwt beam="1">  1       21 0.18481836E+00 0.10705840E+04</pdfrwt>
<pdfrwt beam="2">  1       -4 0.87387728E-01 0.10705840E+04</pdfrwt>
<totfact> 0.65380012E+00</totfact>
</mgrwt>
</event>
<event>
 6    2  0.2294477E-005  0.1195957E+04  0.7818608E-02  0.9406281E-01
         -4   -1    0    0    0  501 -0.00000000000E+00  0.00000000000E+00  0.74799214103E+03  0.74799214103E+03  0.00000000000E+00 0. -1.
         21   -1    0    0  501  502  0.00000000000E+00 -0.00000000000E+00 -0.95596167991E+03  0.95596167991E+03  0.00000000000E+00 0. -1.
   -9000010    2    1    2    0  502  0.37051044007E+03 -0.17754709163E+03 -0.38526257521E+03  0.12564789190E+04  0.11231700967E+04 0.  0.
         13    1    3    3    0    0  0.29275677407E+03 -0.21455912991E+03 -0.77582714472E+03  0.85653366463E+03  0.10566000000E+00 0. -1.
         -4    1    3    3    0  502  0.77753666001E+02  0.37012038274E+02  0.39056456951E+03  0.39994525440E+03  0.00000000000E+00 0. -1.
        -13    1    1    2    0    0 -0.37051044007E+03  0.17754709163E+03  0.17729303632E+03  0.44747490191E+03  0.10566000000E+00 0.  1.
<mgrwt>
<rscale>  1 0.91560554E+03</rscale>
<asrwt>0</asrwt>
<pdfrwt beam="2">  1       21 0.14707103E+00 0.11959565E+04</pdfrwt>
<pdfrwt beam="1">  1       -4 0.11507571E+00 0.11959565E+04</pdfrwt>
<totfact> 0.64375973E+00</totfact>
</mgrwt>
</event>
<event>
 6    2  0.2294477E-005  0.1014315E+04  0.7818608E-02  0.9972853E-01
         -4   -1    0    0    0  501 -0.00000000000E+00  0.00000000000E+00  0.50292110807E+03  0.50292110807E+03  0.00000000000E+00 0. -1.
         21   -1    0    0  501  502  0.00000000000E+00 -0.00000000000E+00 -0.71018548847E+03  0.71018548847E+03  0.00000000000E+00 0. -1.
   -9000010    2    1    2    0  502 -0.81765005621E+02 -0.57815297320E+02 -0.31877799959E+03  0.10632285689E+04  0.10093599219E+04 0.  0.
         13    1    3    3    0    0  0.81641675267E+02  0.75852120226E+02 -0.65598732643E+03  0.66538582107E+03  0.10566000000E+00 0. -1.
         -4    1    3    3    0  502 -0.16340668089E+03 -0.13366741755E+03  0.33720932684E+03  0.39784274780E+03  0.00000000000E+00 0. -1.
        -13    1    1    2    0    0  0.81765005621E+02  0.57815297320E+02  0.11151361918E+03  0.14987802766E+03  0.10566000000E+00 0.  1.
<mgrwt>
<rscale>  1 0.56856781E+03</rscale>
<asrwt>0</asrwt>
<pdfrwt beam="2">  1       21 0.10925931E+00 0.10143153E+04</pdfrwt>
<pdfrwt beam="1">  1       -4 0.77372478E-01 0.10143153E+04</pdfrwt>
<totfact> 0.37093022E+01</totfact>
</mgrwt>
</event>
<event>
 6    2  0.2294477E-005  0.1163177E+04  0.7818608E-02  0.9398492E-01
         21   -1    0    0  501  502  0.00000000000E+00  0.00000000000E+00  0.37133450264E+03  0.37133450264E+03  0.00000000000E+00 0. -1.
         -4   -1    0    0    0  501 -0.00000000000E+00 -0.00000000000E+00 -0.19296845539E+04  0.19296845539E+04  0.00000000000E+00 0. -1.
   -9000010    2    1    2    0  502  0.57067602976E+02 -0.45562192447E+03 -0.13887416316E+04  0.18115141265E+04  0.10687057882E+04 0.  0.
         13    1    3    3    0    0  0.16650527531E+03  0.31670936081E+03 -0.62293365611E+03  0.71838372546E+03  0.10566000000E+00 0. -1.
         -4    1    3    3    0  502 -0.10943767233E+03 -0.77233128528E+03 -0.76580797550E+03  0.10931304010E+04  0.00000000000E+00 0. -1.
        -13    1    1    2    0    0 -0.57067602976E+02  0.45562192447E+03 -0.16960841968E+03  0.48950493006E+03  0.10566000000E+00 0.  1.
<mgrwt>
<rscale>  1 0.92199918E+03</rscale>
<asrwt>0</asrwt>
<pdfrwt beam="1">  1       21 0.57128386E-01 0.11631767E+04</pdfrwt>
<pdfrwt beam="2">  1       -4 0.29687454E+00 0.11631767E+04</pdfrwt>
<totfact> 0.35745847E+00</totfact>
</mgrwt>
</event>
<event>
 6    2  0.2294477E-005  0.1057472E+04  0.7818608E-02  0.9741660E-01
         21   -1    0    0  501  502  0.00000000000E+00  0.00000000000E+00  0.52079946652E+03  0.52079946652E+03  0.00000000000E+00 0. -1.
         -4   -1    0    0    0  501 -0.00000000000E+00 -0.00000000000E+00 -0.77182258040E+03  0.77182258040E+03  0.00000000000E+00 0. -1.
   -9000010    2    1    2    0  502  0.17399733676E+03  0.68962961509E+02 -0.29990734198E+03  0.10991778891E+04  0.10407769477E+04 0.  0.
         13    1    3    3    0    0  0.46006425997E+03 -0.27023206200E+03  0.47453956856E+02  0.53566442837E+03  0.10566000000E+00 0. -1.
         -4    1    3    3    0  502 -0.28606692320E+03  0.33919502351E+03 -0.34736129884E+03  0.56351346076E+03  0.00000000000E+00 0. -1.
        -13    1    1    2    0    0 -0.17399733676E+03 -0.68962961509E+02  0.48884228102E+02  0.19344415779E+03  0.10566000000E+00 0.  1.
<mgrwt>
<rscale>  1 0.68589609E+03</rscale>
<asrwt>0</asrwt>
<pdfrwt beam="1">  1       21 0.80122995E-01 0.10574723E+04</pdfrwt>
<pdfrwt beam="2">  1       -4 0.11874194E+00 0.10574723E+04</pdfrwt>
<totfact> 0.28312338E+01</totfact>
</mgrwt>
</event>
<event>
 6    2  0.2294477E-005  0.9890709E+03  0.7818608E-02  0.9756166E-01
         -4   -1    0    0    0  501 -0.00000000000E+00  0.00000000000E+00  0.52390164367E+03  0.52390164367E+03  0.00000000000E+00 0. -1.
         21   -1    0    0  501  502  0.00000000000E+00 -0.00000000000E+00 -0.92746123732E+03  0.92746123732E+03  0.00000000000E+00 0. -1.
   -9000010    2    1    2    0  502 -0.13122381724E+03 -0.17407095996E+03 -0.60091378203E+03  0.11573066344E+04  0.96474912973E+03 0.  0.
         13    1    3    3    0    0  0.93701949933E+02 -0.20339228665E+03  0.21500538524E+03  0.31044452731E+03  0.10566000000E+00 0. -1.
         -4    1    3    3    0  502 -0.22492576717E+03  0.29321326691E+02 -0.81591916727E+03  0.84686210711E+03  0.00000000000E+00 0. -1.
        -13    1    1    2    0    0  0.13122381724E+03  0.17407095996E+03  0.19735418838E+03  0.29405624657E+03  0.10566000000E+00 0.  1.
<mgrwt>
<rscale>  1 0.67768923E+03</rscale>
<asrwt>0</asrwt>
<pdfrwt beam="2">  1       21 0.14268634E+00 0.98907091E+03</pdfrwt>
<pdfrwt beam="1">  1       -4 0.80600253E-01 0.98907091E+03</pdfrwt>
<totfact> 0.16793382E+01</totfact>
</mgrwt>
</event>
<event>
 6    2  0.2294477E-005  0.1087079E+04  0.7818608E-02  0.9490651E-01
         -4   -1    0    0    0  501 -0.00000000000E+00  0.00000000000E+00  0.18846272870E+04  0.18846272870E+04  0.00000000000E+00 0. -1.
         21   -1    0    0  501  502  0.00000000000E+00 -0.00000000000E+00 -0.40386725306E+03  0.40386725306E+03  0.00000000000E+00 0.  1.
   -9000010    2    1    2    0  502  0.25102333420E+03  0.31896514096E+03  0.44245490657E+03  0.11736721219E+04  0.10084584423E+04 0.  0.
         13    1    3    3    0    0  0.59507326052E+03  0.39601862923E+03  0.39847340553E+03  0.81836666975E+03  0.10566000000E+00 0. -1.
         -4    1    3    3    0  502 -0.34404992633E+03 -0.77053488269E+02  0.43981501043E+02  0.35530545210E+03  0.00000000000E+00 0. -1.
        -13    1    1    2    0    0 -0.25102333420E+03 -0.31896514096E+03  0.10383051273E+04  0.11148224182E+04  0.10566000000E+00 0.  1.
<mgrwt>
<rscale>  1 0.84976606E+03</rscale>
<asrwt>0</asrwt>
<pdfrwt beam="2">  1       21 0.62133425E-01 0.10870786E+04</pdfrwt>
<pdfrwt beam="1">  1       -4 0.28994265E+00 0.10870786E+04</pdfrwt>
<totfact> 0.33044750E+00</totfact>
</mgrwt>
</event>
<event>
 6    2  0.2294477E-005  0.1011727E+04  0.7818608E-02  0.9952160E-01
         21   -1    0    0  501  502  0.00000000000E+00  0.00000000000E+00  0.64190658267E+03  0.64190658267E+03  0.00000000000E+00 0. -1.
         -4   -1    0    0    0  501 -0.00000000000E+00 -0.00000000000E+00 -0.50560823764E+03  0.50560823764E+03  0.00000000000E+00 0. -1.
   -9000010    2    1    2    0  502 -0.74975101011E+00 -0.10776298101E+03  0.18626211699E+03  0.10287300912E+04  0.10059714718E+04 0.  0.
         13    1    3    3    0    0  0.42268912617E+01 -0.35044831162E+03 -0.31535615901E+03  0.47146728828E+03  0.10566000000E+00 0. -1.
         -4    1    3    3    0  502 -0.49766422718E+01  0.24268533061E+03  0.50161827600E+03  0.55726280289E+03  0.00000000000E+00 0. -1.
        -13    1    1    2    0    0  0.74975101011E+00  0.10776298101E+03 -0.49963771961E+02  0.11878472913E+03  0.10566000000E+00 0.  1.
<mgrwt>
<rscale>  1 0.57798646E+03</rscale>
<asrwt>0</asrwt>
<pdfrwt beam="1">  1       21 0.98754859E-01 0.10117272E+04</pdfrwt>
<pdfrwt beam="2">  1       -4 0.77785883E-01 0.10117272E+04</pdfrwt>
<totfact> 0.47215816E+01</totfact>
</mgrwt>
</event>
<event>
 6    2  0.2294477E-005  0.1047681E+04  0.7818608E-02  0.9653652E-01
         21   -1    0    0  501  502  0.00000000000E+00  0.00000000000E+00  0.89717579254E+03  0.89717579254E+03  0.00000000000E+00 0. -1.
         -4   -1    0    0    0  501 -0.00000000000E+00 -0.00000000000E+00 -0.63580548088E+03  0.63580548088E+03  0.00000000000E+00 0. -1.
   -9000010    2    1    2    0  502  0.22015466009E+03 -0.13562435931E+03  0.51793875644E+03  0.11687156846E+04  0.10152702865E+04 0.  0.
         13    1    3    3    0    0  0.37526029242E+03 -0.42840003302E+03  0.60013286519E+03  0.82734898465E+03  0.10566000000E+00 0. -1.
         -4    1    3    3    0  502 -0.15510563233E+03  0.29277567371E+03 -0.82194108750E+02  0.34136669991E+03  0.00000000000E+00 0. -1.
        -13    1    1    2    0    0 -0.22015466009E+03  0.13562435931E+03 -0.25656844478E+03  0.36426558885E+03  0.10566000000E+00 0.  1.
<mgrwt>
<rscale>  1 0.73844697E+03</rscale>
<asrwt>0</asrwt>
<pdfrwt beam="1">  1       21 0.13802705E+00 0.10476812E+04</pdfrwt>
<pdfrwt beam="2">  1       -4 0.97816227E-01 0.10476812E+04</pdfrwt>
<totfact> 0.11596345E+01</totfact>
</mgrwt>
</event>
<event>
 6    2  0.2294477E-005  0.1099698E+04  0.7818608E-02  0.9457663E-01
         21   -1    0    0  501  502  0.00000000000E+00  0.00000000000E+00  0.21066121738E+04  0.21066121738E+04  0.00000000000E+00 0. -1.
         -4   -1    0    0    0  501 -0.00000000000E+00 -0.00000000000E+00 -0.49149294346E+03  0.49149294346E+03  0.00000000000E+00 0. -1.
   -9000010    2    1    2    0  502 -0.32494473462E+03 -0.29716375373E+03  0.18089569491E+04  0.21169934364E+04  0.10076907210E+04 0.  0.
         13    1    3    3    0    0 -0.46161455368E+03  0.19055329751E+03  0.47138601401E+03  0.68673382087E+03  0.10566000000E+00 0. -1.
         -4    1    3    3    0  502  0.13666981905E+03 -0.48771705125E+03  0.13375709350E+04  0.14302596155E+04  0.00000000000E+00 0. -1.
        -13    1    1    2    0    0  0.32494473462E+03  0.29716375373E+03 -0.19383771873E+03  0.48111168086E+03  0.10566000000E+00 0.  1.
<mgrwt>
<rscale>  1 0.87478444E+03</rscale>
<asrwt>0</asrwt>
<pdfrwt beam="1">  1       21 0.32409418E+00 0.10996981E+04</pdfrwt>
<pdfrwt beam="2">  1       -4 0.75614300E-01 0.10996981E+04</pdfrwt>
<totfact> 0.11420619E+00</totfact>
</mgrwt>
</event>
<event>
 6    2  0.2294477E-005  0.1002645E+04  0.7818608E-02  0.1011290E+00
         -4   -1    0    0    0  501 -0.00000000000E+00  0.00000000000E+00  0.35312810028E+03  0.35312810028E+03  0.00000000000E+00 0. -1.
         21   -1    0    0  501  502  0.00000000000E+00 -0.00000000000E+00 -0.11612937389E+04  0.11612937389E+04  0.00000000000E+00 0. -1.
   -9000010    2    1    2    0  502  0.26231478428E+02  0.61580025695E+02 -0.93503347359E+03  0.13709796950E+04  0.10004086852E+04 0.  0.
         13    1    3    3    0    0 -0.44360872461E+03  0.21976902530E+03 -0.57217491395E+03  0.75661831088E+03  0.10566000000E+00 0. -1.
         -4    1    3    3    0  502  0.46984020304E+03 -0.15818899960E+03 -0.36285855964E+03  0.61436138412E+03  0.00000000000E+00 0. -1.
        -13    1    1    2    0    0 -0.26231478428E+02 -0.61580025695E+02  0.12686783495E+03  0.14344214421E+03  0.10566000000E+00 0.  1.
<mgrwt>
<rscale>  1 0.50965079E+03</rscale>
<asrwt>0</asrwt>
<pdfrwt beam="2">  1       21 0.17866057E+00 0.10026454E+04</pdfrwt>
<pdfrwt beam="1">  1       -4 0.54327400E-01 0.10026454E+04</pdfrwt>
<totfact> 0.21144876E+01</totfact>
</mgrwt>
</event>
<event>
 6    2  0.2294477E-005  0.1073606E+04  0.7818608E-02  0.9613567E-01
         -4   -1    0    0    0  501 -0.00000000000E+00  0.00000000000E+00  0.89705809215E+03  0.89705809215E+03  0.00000000000E+00 0. -1.
         21   -1    0    0  501  502  0.00000000000E+00 -0.00000000000E+00 -0.55089063302E+03  0.55089063302E+03  0.00000000000E+00 0. -1.
   -9000010    2    1    2    0  502 -0.27533183086E+03 -0.55915527220E+01  0.99439661251E+02  0.10782008381E+04  0.10376848841E+04 0.  0.
         13    1    3    3    0    0 -0.60137356705E+03  0.17633257431E+03  0.25121469035E+03  0.67516825734E+03  0.10566000000E+00 0. -1.
         -4    1    3    3    0  502  0.32604173619E+03 -0.18192412703E+03 -0.15177502909E+03  0.40303258081E+03  0.00000000000E+00 0. -1.
        -13    1    1    2    0    0  0.27533183086E+03  0.55915527220E+01  0.24672779787E+03  0.36974788702E+03  0.10566000000E+00 0.  1.
<mgrwt>
<rscale>  1 0.76404695E+03</rscale>
<asrwt>0</asrwt>
<pdfrwt beam="2">  1       21 0.84752405E-01 0.10736055E+04</pdfrwt>
<pdfrwt beam="1">  1       -4 0.13800894E+00 0.10736055E+04</pdfrwt>
<totfact> 0.16829533E+01</totfact>
</mgrwt>
</event>
<event>
 6    2  0.2294477E-005  0.1046320E+04  0.7818608E-02  0.9670255E-01
         -4   -1    0    0    0  501 -0.00000000000E+00  0.00000000000E+00  0.97033041858E+03  0.97033041858E+03  0.00000000000E+00 0. -1.
         21   -1    0    0  501  502  0.00000000000E+00 -0.00000000000E+00 -0.62011793695E+03  0.62011793695E+03  0.00000000000E+00 0. -1.
   -9000010    2    1    2    0  502  0.21840302660E+03  0.11193960048E+03 -0.12682966863E+03  0.10539788033E+04  0.10171308651E+04 0.  0.
         13    1    3    3    0    0  0.26892960737E+01 -0.37792605506E+03  0.19922576474E+03  0.42723091169E+03  0.10566000000E+00 0. -1.
         -4    1    3    3    0  502  0.21571373052E+03  0.48986565554E+03 -0.32605543337E+03  0.62674789161E+03  0.00000000000E+00 0. -1.
        -13    1    1    2    0    0 -0.21840302660E+03 -0.11193960048E+03  0.47704215025E+03  0.53646955222E+03  0.10566000000E+00 0.  1.
<mgrwt>
<rscale>  1 0.72815751E+03</rscale>
<asrwt>0</asrwt>
<pdfrwt beam="2">  1       21 0.95402760E-01 0.10463200E+04</pdfrwt>
<pdfrwt beam="1">  1       -4 0.14928160E+00 0.10463200E+04</pdfrwt>
<totfact> 0.10291616E+01</totfact>
</mgrwt>
</event>
<event>
 6    2  0.2294477E-005  0.1018430E+04  0.7818608E-02  0.9704105E-01
         21   -1    0    0  501  502  0.00000000000E+00  0.00000000000E+00  0.80380940651E+03  0.80380940651E+03  0.00000000000E+00 0. -1.
         -4   -1    0    0    0  501 -0.00000000000E+00 -0.00000000000E+00 -0.57138494255E+03  0.57138494255E+03  0.00000000000E+00 0. -1.
   -9000010    2    1    2    0  502 -0.23361444878E+03  0.42817880125E+02  0.38958136803E+03  0.10904007656E+04  0.99034898176E+03 0.  0.
         13    1    3    3    0    0 -0.46455770693E+03 -0.17122947111E+03 -0.10306216707E+03  0.50572246963E+03  0.10566000000E+00 0. -1.
         -4    1    3    3    0  502  0.23094325815E+03  0.21404735124E+03  0.49264353510E+03  0.58467829593E+03  0.00000000000E+00 0. -1.
        -13    1    1    2    0    0  0.23361444878E+03 -0.42817880125E+02 -0.15715690407E+03  0.28479358349E+03  0.10566000000E+00 0.  1.
<mgrwt>
<rscale>  1 0.70772919E+03</rscale>
<asrwt>0</asrwt>
<pdfrwt beam="1">  1       21 0.12366299E+00 0.10184303E+04</pdfrwt>
<pdfrwt beam="2">  1       -4 0.87905376E-01 0.10184303E+04</pdfrwt>
<totfact> 0.20075616E+01</totfact>
</mgrwt>
</event>
<event>
 6    2  0.2294477E-005  0.8990821E+03  0.7818608E-02  0.9804660E-01
         21   -1    0    0  501  502  0.00000000000E+00  0.00000000000E+00  0.32318247589E+03  0.32318247589E+03  0.00000000000E+00 0. -1.
         -4   -1    0    0    0  501 -0.00000000000E+00 -0.00000000000E+00 -0.10463510410E+04  0.10463510410E+04  0.00000000000E+00 0. -1.
   -9000010    2    1    2    0  502  0.17079716699E+03  0.17888469314E+03 -0.65686416885E+03  0.11134716302E+04  0.86439408216E+03 0.  0.
         13    1    3    3    0    0 -0.38427158112E+02  0.49289128446E+03 -0.23473152165E+03  0.54728179505E+03  0.10566000000E+00 0. -1.
         -4    1    3    3    0  502  0.20922432510E+03 -0.31400659132E+03 -0.42213264720E+03  0.56618983516E+03  0.00000000000E+00 0. -1.
        -13    1    1    2    0    0 -0.17079716699E+03 -0.17888469314E+03 -0.66304396293E+02  0.25606188671E+03  0.10566000000E+00 0.  1.
<mgrwt>
<rscale>  1 0.65113062E+03</rscale>
<asrwt>0</asrwt>
<pdfrwt beam="1">  1       21 0.49720381E-01 0.89908205E+03</pdfrwt>
<pdfrwt beam="2">  1       -4 0.16097708E+00 0.89908205E+03</pdfrwt>
<totfact> 0.37842619E+01</totfact>
</mgrwt>
</event>
<event>
 6    2  0.2294477E-005  0.1034318E+04  0.7818608E-02  0.9616631E-01
         -4   -1    0    0    0  501 -0.00000000000E+00  0.00000000000E+00  0.33426099454E+03  0.33426099454E+03  0.00000000000E+00 0. -1.
         21   -1    0    0  501  502  0.00000000000E+00 -0.00000000000E+00 -0.13662333990E+04  0.13662333990E+04  0.00000000000E+00 0. -1.
   -9000010    2    1    2    0  502  0.29917273416E+03  0.58147260237E+02 -0.88894058934E+03  0.13638290700E+04  0.98839715306E+03 0.  0.
         13    1    3    3    0    0  0.31579889814E+03 -0.10218629600E+03 -0.10706536991E+04  0.11209238769E+04  0.10566000000E+00 0. -1.
         -4    1    3    3    0  502 -0.16626163982E+02  0.16033355624E+03  0.18171310980E+03  0.24290519314E+03  0.00000000000E+00 0. -1.
        -13    1    1    2    0    0 -0.29917273416E+03 -0.58147260237E+02 -0.14303181508E+03  0.33666532347E+03  0.10566000000E+00 0.  1.
<mgrwt>
<rscale>  1 0.76205113E+03</rscale>
<asrwt>0</asrwt>
<pdfrwt beam="2">  1       21 0.21018975E+00 0.10343183E+04</pdfrwt>
<pdfrwt beam="1">  1       -4 0.51424769E-01 0.10343183E+04</pdfrwt>
<totfact> 0.14258329E+01</totfact>
</mgrwt>
</event>
<event>
 6    2  0.2294477E-005  0.1011491E+04  0.7818608E-02  0.9834526E-01
         -4   -1    0    0    0  501 -0.00000000000E+00  0.00000000000E+00  0.29000443469E+03  0.29000443469E+03  0.00000000000E+00 0. -1.
         21   -1    0    0  501  502  0.00000000000E+00 -0.00000000000E+00 -0.12917086024E+04  0.12917086024E+04  0.00000000000E+00 0. -1.
   -9000010    2    1    2    0  502 -0.15157315620E+03 -0.42907851174E+02 -0.66649452789E+03  0.12113334761E+04  0.99914880240E+03 0.  0.
         13    1    3    3    0    0  0.30087267285E+03 -0.33636451211E+02 -0.69481493656E+03  0.75790737122E+03  0.10566000000E+00 0. -1.
         -4    1    3    3    0  502 -0.45244582905E+03 -0.92713999628E+01  0.28320408668E+02  0.45342610492E+03  0.00000000000E+00 0. -1.
        -13    1    1    2    0    0  0.15157315620E+03  0.42907851174E+02 -0.33520963985E+03  0.37037956097E+03  0.10566000000E+00 0.  1.
<mgrwt>
<rscale>  1 0.63542157E+03</rscale>
<asrwt>0</asrwt>
<pdfrwt beam="2">  1       21 0.19872440E+00 0.10114909E+04</pdfrwt>
<pdfrwt beam="1">  1       -4 0.44616067E-01 0.10114909E+04</pdfrwt>
<totfact> 0.23056796E+01</totfact>
</mgrwt>
</event>
<event>
 6    2  0.2294477E-005  0.1060048E+04  0.7818608E-02  0.9611584E-01
         21   -1    0    0  501  502  0.00000000000E+00  0.00000000000E+00  0.14869732252E+04  0.14869732252E+04  0.00000000000E+00 0. -1.
         -4   -1    0    0    0  501 -0.00000000000E+00 -0.00000000000E+00 -0.45080177124E+03  0.45080177124E+03  0.00000000000E+00 0. -1.
   -9000010    2    1    2    0  502  0.12423019585E+03  0.25986717579E+03  0.12042042935E+04  0.16043096505E+04  0.10201653706E+04 0.  0.
         13    1    3    3    0    0  0.36265694590E+03 -0.26529214306E+03  0.73201900344E+03  0.85892480121E+03  0.10566000000E+00 0. -1.
         -4    1    3    3    0  502 -0.23842675005E+03  0.52515931885E+03  0.47218529010E+03  0.74538484926E+03  0.00000000000E+00 0. -1.
        -13    1    1    2    0    0 -0.12423019585E+03 -0.25986717579E+03 -0.16803283960E+03  0.33346534597E+03  0.10566000000E+00 0.  1.
<mgrwt>
<rscale>  1 0.76534171E+03</rscale>
<asrwt>0</asrwt>
<pdfrwt beam="1">  1       21 0.22876511E+00 0.10600479E+04</pdfrwt>
<pdfrwt beam="2">  1       -4 0.69354119E-01 0.10600479E+04</pdfrwt>
<totfact> 0.55779737E+00</totfact>
</mgrwt>
</event>
<event>
 6    2  0.2294477E-005  0.1029920E+04  0.7818608E-02  0.9675115E-01
         21   -1    0    0  501  502  0.00000000000E+00  0.00000000000E+00  0.47934155589E+03  0.47934155589E+03  0.00000000000E+00 0. -1.
         -4   -1    0    0    0  501 -0.00000000000E+00 -0.00000000000E+00 -0.86535288521E+03  0.86535288521E+03  0.00000000000E+00 0. -1.
   -9000010    2    1    2    0  502 -0.11677332131E+03 -0.22460422603E+03 -0.26157723268E+03  0.10626183477E+04  0.99832461515E+03 0.  0.
         13    1    3    3    0    0  0.38242774717E+03 -0.20609752702E+03 -0.34677673356E+03  0.55586085178E+03  0.10566000000E+00 0. -1.
         -4    1    3    3    0  502 -0.49920106848E+03 -0.18506699014E+02  0.85199500878E+02  0.50675749588E+03  0.00000000000E+00 0. -1.
        -13    1    1    2    0    0  0.11677332131E+03  0.22460422603E+03 -0.12443409664E+03  0.28207609344E+03  0.10566000000E+00 0.  1.
<mgrwt>
<rscale>  1 0.72517951E+03</rscale>
<asrwt>0</asrwt>
<pdfrwt beam="1">  1       21 0.73744855E-01 0.10299200E+04</pdfrwt>
<pdfrwt beam="2">  1       -4 0.13313121E+00 0.10299200E+04</pdfrwt>
<totfact> 0.25729133E+01</totfact>
</mgrwt>
</event>
<event>
 6    2  0.2294477E-005  0.1021201E+04  0.7818608E-02  0.9824448E-01
         21   -1    0    0  501  502  0.00000000000E+00  0.00000000000E+00  0.51549601761E+03  0.51549601761E+03  0.00000000000E+00 0. -1.
         -4   -1    0    0    0  501 -0.00000000000E+00 -0.00000000000E+00 -0.83581476918E+03  0.83581476918E+03  0.00000000000E+00 0. -1.
   -9000010    2    1    2    0  502  0.15133847357E+03 -0.46078577737E+02 -0.31124723948E+02  0.10216749791E+04  0.10088728590E+04 0.  0.
         13    1    3    3    0    0 -0.42846237931E+03  0.50725578684E+02  0.17753787053E+02  0.43181975747E+03  0.10566000000E+00 0. -1.
         -4    1    3    3    0  502  0.57980085289E+03 -0.96804156420E+02 -0.48878511001E+02  0.58985522168E+03  0.00000000000E+00 0. -1.
        -13    1    1    2    0    0 -0.15133847357E+03  0.46078577737E+02 -0.28919402762E+03  0.32963580765E+03  0.10566000000E+00 0.  1.
<mgrwt>
<rscale>  1 0.64066875E+03</rscale>
<asrwt>0</asrwt>
<pdfrwt beam="1">  1       21 0.79307080E-01 0.10212008E+04</pdfrwt>
<pdfrwt beam="2">  1       -4 0.12858689E+00 0.10212008E+04</pdfrwt>
<totfact> 0.23763960E+01</totfact>
</mgrwt>
</event>
<event>
 6    2  0.2294477E-005  0.1022811E+04  0.7818608E-02  0.9748596E-01
         21   -1    0    0  501  502  0.00000000000E+00  0.00000000000E+00  0.40361870953E+03  0.40361870953E+03  0.00000000000E+00 0. -1.
         -4   -1    0    0    0  501 -0.00000000000E+00 -0.00000000000E+00 -0.10974292268E+04  0.10974292268E+04  0.00000000000E+00 0. -1.
   -9000010    2    1    2    0  502 -0.19988488531E+03 -0.30071437754E+02 -0.31251933488E+03  0.10694911780E+04  0.10026389113E+04 0.  0.
         13    1    3    3    0    0 -0.80611191580E+02 -0.13711680075E+03  0.35181455916E+03  0.38609930906E+03  0.10566000000E+00 0. -1.
         -4    1    3    3    0  502 -0.11927369373E+03  0.10704536300E+03 -0.66433389404E+03  0.68339186893E+03  0.00000000000E+00 0. -1.
        -13    1    1    2    0    0  0.19988488531E+03  0.30071437754E+02 -0.38129118237E+03  0.43155675833E+03  0.10566000000E+00 0.  1.
<mgrwt>
<rscale>  1 0.68195646E+03</rscale>
<asrwt>0</asrwt>
<pdfrwt beam="1">  1       21 0.62095186E-01 0.10228113E+04</pdfrwt>
<pdfrwt beam="2">  1       -4 0.16883527E+00 0.10228113E+04</pdfrwt>
<totfact> 0.20093297E+01</totfact>
</mgrwt>
</event>
<event>
 6    2  0.2294477E-005  0.1004972E+04  0.7818608E-02  0.1009448E+00
         21   -1    0    0  501  502  0.00000000000E+00  0.00000000000E+00  0.37583866302E+03  0.37583866302E+03  0.00000000000E+00 0. -1.
         -4   -1    0    0    0  501 -0.00000000000E+00 -0.00000000000E+00 -0.79192777673E+03  0.79192777673E+03  0.00000000000E+00 0. -1.
   -9000010    2    1    2    0  502  0.59307083755E+02  0.37853813449E+02 -0.33258930049E+03  0.10585763699E+04  0.10025058837E+04 0.  0.
         13    1    3    3    0    0 -0.25801481773E+03  0.41372574105E+02 -0.59302805499E+03  0.64804754550E+03  0.10566000000E+00 0. -1.
         -4    1    3    3    0  502  0.31732190148E+03 -0.35187606562E+01  0.26043875450E+03  0.41052882443E+03  0.00000000000E+00 0. -1.
        -13    1    1    2    0    0 -0.59307083755E+02 -0.37853813449E+02 -0.83499813217E+02  0.10919006982E+03  0.10566000000E+00 0.  1.
<mgrwt>
<rscale>  1 0.51694438E+03</rscale>
<asrwt>0</asrwt>
<pdfrwt beam="1">  1       21 0.57821333E-01 0.10049718E+04</pdfrwt>
<pdfrwt beam="2">  1       -4 0.12183504E+00 0.10049718E+04</pdfrwt>
<totfact> 0.56104029E+01</totfact>
</mgrwt>
</event>
<event>
 6    2  0.2294477E-005  0.1031209E+04  0.7818608E-02  0.9868689E-01
         21   -1    0    0  501  502  0.00000000000E+00  0.00000000000E+00  0.20756879938E+03  0.20756879938E+03  0.00000000000E+00 0. -1.
         -4   -1    0    0    0  501 -0.00000000000E+00 -0.00000000000E+00 -0.19943591408E+04  0.19943591408E+04  0.00000000000E+00 0. -1.
   -9000010    2    1    2    0  502  0.10361185147E+03  0.83460056193E+02 -0.11217812144E+04  0.15237405421E+04  0.10225904116E+04 0.  0.
         13    1    3    3    0    0  0.44228714185E+03 -0.17986290603E+03 -0.22122213125E+03  0.52622031825E+03  0.10566000000E+00 0. -1.
         -4    1    3    3    0  502 -0.33867529039E+03  0.26332296222E+03 -0.90055908318E+03  0.99752022388E+03  0.00000000000E+00 0. -1.
        -13    1    1    2    0    0 -0.10361185147E+03 -0.83460056193E+02 -0.66500912697E+03  0.67818739804E+03  0.10566000000E+00 0.  1.
<mgrwt>
<rscale>  1 0.61803034E+03</rscale>
<asrwt>0</asrwt>
<pdfrwt beam="1">  1       21 0.31933662E-01 0.10312091E+04</pdfrwt>
<pdfrwt beam="2">  1       -4 0.30682448E+00 0.10312091E+04</pdfrwt>
<totfact> 0.10809653E+01</totfact>
</mgrwt>
</event>
<event>
 6    2  0.2294477E-005  0.1136580E+04  0.7818608E-02  0.9361208E-01
         -4   -1    0    0    0  501 -0.00000000000E+00  0.00000000000E+00  0.88756628169E+03  0.88756628169E+03  0.00000000000E+00 0. -1.
         21   -1    0    0  501  502  0.00000000000E+00 -0.00000000000E+00 -0.94013077300E+03  0.94013077300E+03  0.00000000000E+00 0.  1.
   -9000010    2    1    2    0  502 -0.37710290660E+03  0.41762012142E+03 -0.35260136656E+03  0.11900174285E+04  0.98752244960E+03 0.  0.
         13    1    3    3    0    0  0.28979126181E+03  0.19004869640E+03 -0.33965452406E+03  0.48524497865E+03  0.10566000000E+00 0. -1.
         -4    1    3    3    0  502 -0.66689416840E+03  0.22757142503E+03 -0.12946842492E+02  0.70477244985E+03  0.00000000000E+00 0. -1.
        -13    1    1    2    0    0  0.37710290660E+03 -0.41762012142E+03  0.30003687525E+03  0.63767962619E+03  0.10566000000E+00 0.  1.
<mgrwt>
<rscale>  1 0.95338011E+03</rscale>
<asrwt>0</asrwt>
<pdfrwt beam="2">  1       21 0.14463550E+00 0.11365799E+04</pdfrwt>
<pdfrwt beam="1">  1       -4 0.13654866E+00 0.11365799E+04</pdfrwt>
<totfact> 0.43866659E+00</totfact>
</mgrwt>
</event>
<event>
 6    2  0.2294477E-005  0.1047928E+04  0.7818608E-02  0.9538560E-01
         -4   -1    0    0    0  501 -0.00000000000E+00  0.00000000000E+00  0.14591986116E+04  0.14591986116E+04  0.00000000000E+00 0. -1.
         21   -1    0    0  501  502  0.00000000000E+00 -0.00000000000E+00 -0.35482458008E+03  0.35482458008E+03  0.00000000000E+00 0.  1.
   -9000010    2    1    2    0  502  0.31161445789E+03  0.22332966398E+03  0.88945643416E+03  0.13745129028E+04  0.97528111979E+03 0.  0.
         13    1    3    3    0    0  0.10471216149E+03  0.19153392985E+03 -0.18113128351E+03  0.28365196294E+03  0.10566000000E+00 0. -1.
         -4    1    3    3    0  502  0.20690229640E+03  0.31795734131E+02  0.10705877177E+04  0.10908609399E+04  0.00000000000E+00 0. -1.
        -13    1    1    2    0    0 -0.31161445789E+03 -0.22332966398E+03  0.21491759736E+03  0.43951028885E+03  0.10566000000E+00 0.  1.
<mgrwt>
<rscale>  1 0.81499660E+03</rscale>
<asrwt>0</asrwt>
<pdfrwt beam="2">  1       21 0.54588398E-01 0.10479279E+04</pdfrwt>
<pdfrwt beam="1">  1       -4 0.22449209E+00 0.10479279E+04</pdfrwt>
<totfact> 0.11281751E+01</totfact>
</mgrwt>
</event>
<event>
 6    2  0.2294477E-005  0.9996037E+03  0.7818608E-02  0.1044117E+00
         -4   -1    0    0    0  501 -0.00000000000E+00  0.00000000000E+00  0.58538696134E+03  0.58538696134E+03  0.00000000000E+00 0. -1.
         21   -1    0    0  501  502  0.00000000000E+00 -0.00000000000E+00 -0.46291467405E+03  0.46291467405E+03  0.00000000000E+00 0. -1.
   -9000010    2    1    2    0  502 -0.23199540167E+02 -0.10296811888E+02  0.85227709104E+02  0.10032304387E+04  0.99928139571E+03 0.  0.
         13    1    3    3    0    0 -0.47655880777E+03 -0.18716905626E+03  0.65746842243E+02  0.51620074711E+03  0.10566000000E+00 0. -1.
         -4    1    3    3    0  502  0.45335926760E+03  0.17687224438E+03  0.19480866862E+02  0.48702969163E+03  0.00000000000E+00 0. -1.
        -13    1    1    2    0    0  0.23199540167E+02  0.10296811888E+02  0.37244578192E+02  0.45071196653E+02  0.10566000000E+00 0.  1.
<mgrwt>
<rscale>  1 0.39902770E+03</rscale>
<asrwt>0</asrwt>
<pdfrwt beam="2">  1       21 0.71217642E-01 0.99960370E+03</pdfrwt>
<pdfrwt beam="1">  1       -4 0.90059533E-01 0.99960370E+03</pdfrwt>
<totfact> 0.73235233E+01</totfact>
</mgrwt>
</event>
<event>
 6    2  0.2294477E-005  0.8563640E+03  0.7818608E-02  0.9855525E-01
         -4   -1    0    0    0  501 -0.00000000000E+00  0.00000000000E+00  0.12856129616E+03  0.12856129616E+03  0.00000000000E+00 0. -1.
         21   -1    0    0  501  502  0.00000000000E+00 -0.00000000000E+00 -0.23549941267E+04  0.23549941267E+04  0.00000000000E+00 0. -1.
   -9000010    2    1    2    0  502 -0.23066723539E+03  0.74623593895E+02 -0.16765035582E+04  0.18825576941E+04  0.82133016301E+03 0.  0.
         13    1    3    3    0    0 -0.30511178034E+03 -0.28951120725E+03 -0.52586622544E+03  0.67338342410E+03  0.10566000000E+00 0. -1.
         -4    1    3    3    0  502  0.74444544951E+02  0.36413480115E+03 -0.11506373327E+04  0.12091742700E+04  0.00000000000E+00 0. -1.
        -13    1    1    2    0    0  0.23066723539E+03 -0.74623593895E+02 -0.54992927236E+03  0.60099772879E+03  0.10566000000E+00 0.  1.
<mgrwt>
<rscale>  1 0.62466032E+03</rscale>
<asrwt>0</asrwt>
<pdfrwt beam="2">  1       21 0.36230677E+00 0.85636399E+03</pdfrwt>
<pdfrwt beam="1">  1       -4 0.19778662E-01 0.85636399E+03</pdfrwt>
<totfact> 0.10639111E+01</totfact>
</mgrwt>
</event>
<event>
 6    2  0.2294477E-005  0.1005180E+04  0.7818608E-02  0.1003519E+00
         -4   -1    0    0    0  501 -0.00000000000E+00  0.00000000000E+00  0.33310662482E+03  0.33310662482E+03  0.00000000000E+00 0. -1.
         21   -1    0    0  501  502  0.00000000000E+00 -0.00000000000E+00 -0.96101027092E+03  0.96101027092E+03  0.00000000000E+00 0.  1.
   -9000010    2    1    2    0  502  0.46674441220E+02  0.70505357292E+02 -0.45855817078E+03  0.11048355970E+04  0.10016169885E+04 0.  0.
         13    1    3    3    0    0  0.13406664365E+03  0.51803955972E+03 -0.15520178639E+03  0.55715927349E+03  0.10566000000E+00 0. -1.
         -4    1    3    3    0  502 -0.87392202426E+02 -0.44753420243E+03 -0.30335638439E+03  0.54767632351E+03  0.00000000000E+00 0. -1.
        -13    1    1    2    0    0 -0.46674441220E+02 -0.70505357292E+02 -0.16934547532E+03  0.18928129872E+03  0.10566000000E+00 0.  1.
<mgrwt>
<rscale>  1 0.54133664E+03</rscale>
<asrwt>0</asrwt>
<pdfrwt beam="2">  1       21 0.14784773E+00 0.10051796E+04</pdfrwt>
<pdfrwt beam="1">  1       -4 0.51247173E-01 0.10051796E+04</pdfrwt>
<totfact> 0.41282359E+01</totfact>
</mgrwt>
</event>
<event>
 6    2  0.2294477E-005  0.1149882E+04  0.7818608E-02  0.9345150E-01
         -4   -1    0    0    0  501 -0.00000000000E+00  0.00000000000E+00  0.11223537720E+04  0.11223537720E+04  0.00000000000E+00 0. -1.
         21   -1    0    0  501  502  0.00000000000E+00 -0.00000000000E+00 -0.69393413280E+03  0.69393413280E+03  0.00000000000E+00 0. -1.
   -9000010    2    1    2    0  502 -0.49197351593E+03 -0.29922899635E+03  0.46260305653E+03  0.12394478491E+04  0.99531575402E+03 0.  0.
         13    1    3    3    0    0 -0.53641038125E+03 -0.37175586422E+03  0.71798197172E+03  0.97027658046E+03  0.10566000000E+00 0. -1.
         -4    1    3    3    0  502  0.44436865322E+02  0.72526867870E+02 -0.25537891519E+03  0.26917126869E+03  0.00000000000E+00 0. -1.
        -13    1    1    2    0    0  0.49197351593E+03  0.29922899635E+03 -0.34183417331E+02  0.57684005566E+03  0.10566000000E+00 0.  1.
<mgrwt>
<rscale>  1 0.96730400E+03</rscale>
<asrwt>0</asrwt>
<pdfrwt beam="2">  1       21 0.10675910E+00 0.11498823E+04</pdfrwt>
<pdfrwt beam="1">  1       -4 0.17266981E+00 0.11498823E+04</pdfrwt>
<totfact> 0.51441687E+00</totfact>
</mgrwt>
</event>
<event>
 6    2  0.2294477E-005  0.1033735E+04  0.7818608E-02  0.9669794E-01
         21   -1    0    0  501  502  0.00000000000E+00  0.00000000000E+00  0.13311213304E+04  0.13311213304E+04  0.00000000000E+00 0. -1.
         -4   -1    0    0    0  501 -0.00000000000E+00 -0.00000000000E+00 -0.31867482621E+03  0.31867482621E+03  0.00000000000E+00 0. -1.
   -9000010    2    1    2    0  502  0.21626833108E+03  0.13489114355E+03  0.70903417745E+03  0.12535302575E+04  0.10018188608E+04 0.  0.
         13    1    3    3    0    0  0.42649268239E+03 -0.28823545006E+03  0.18264577254E+03  0.54620067026E+03  0.10566000000E+00 0. -1.
         -4    1    3    3    0  502 -0.21022435131E+03  0.42312659361E+03  0.52638840491E+03  0.70732958720E+03  0.00000000000E+00 0. -1.
        -13    1    1    2    0    0 -0.21626833108E+03 -0.13489114355E+03  0.30341232670E+03  0.39626589910E+03  0.10566000000E+00 0.  1.
<mgrwt>
<rscale>  1 0.72844066E+03</rscale>
<asrwt>0</asrwt>
<pdfrwt beam="1">  1       21 0.20478789E+00 0.10337353E+04</pdfrwt>
<pdfrwt beam="2">  1       -4 0.49026897E-01 0.10337353E+04</pdfrwt>
<totfact> 0.17158951E+01</totfact>
</mgrwt>
</event>
<event>
 6    2  0.2294477E-005  0.1053887E+04  0.7818608E-02  0.1014330E+00
         -4   -1    0    0    0  501 -0.00000000000E+00  0.00000000000E+00  0.37457920685E+03  0.37457920685E+03  0.00000000000E+00 0. -1.
         21   -1    0    0  501  502  0.00000000000E+00 -0.00000000000E+00 -0.93621793527E+03  0.93621793527E+03  0.00000000000E+00 0. -1.
   -9000010    2    1    2    0  502 -0.11111111165E+02 -0.51311676188E+02 -0.62751320244E+03  0.12265605563E+04  0.10525785643E+04 0.  0.
         13    1    3    3    0    0  0.16778030123E+03 -0.44334103313E+03 -0.10718766376E+02  0.47414808262E+03  0.10566000000E+00 0. -1.
         -4    1    3    3    0  502 -0.17889141240E+03  0.39202935694E+03 -0.61679443606E+03  0.75241247364E+03  0.00000000000E+00 0. -1.
        -13    1    1    2    0    0  0.11111111165E+02  0.51311676188E+02  0.65874474021E+02  0.84236585853E+02  0.10566000000E+00 0.  1.
<mgrwt>
<rscale>  1 0.49789467E+03</rscale>
<asrwt>0</asrwt>
<pdfrwt beam="2">  1       21 0.14403353E+00 0.10538871E+04</pdfrwt>
<pdfrwt beam="1">  1       -4 0.57627571E-01 0.10538871E+04</pdfrwt>
<totfact> 0.34353535E+01</totfact>
</mgrwt>
</event>
<event>
 6    2  0.2294477E-005  0.1136754E+04  0.7818608E-02  0.9379583E-01
         21   -1    0    0  501  502  0.00000000000E+00  0.00000000000E+00  0.72618711186E+03  0.72618711186E+03  0.00000000000E+00 0.  1.
         -4   -1    0    0    0  501 -0.00000000000E+00 -0.00000000000E+00 -0.10645718250E+04  0.10645718250E+04  0.00000000000E+00 0. -1.
   -9000010    2    1    2    0  502 -0.30229660780E+03 -0.43099799404E+03  0.47955015881E+02  0.11377651334E+04  0.10075054865E+04 0.  0.
         13    1    3    3    0    0  0.58388370920E+02 -0.37527654317E+03  0.45393120724E+03  0.59185744718E+03  0.10566000000E+00 0. -1.
         -4    1    3    3    0  502 -0.36068497872E+03 -0.55721450870E+02 -0.40597619135E+03  0.54590768625E+03  0.00000000000E+00 0. -1.
        -13    1    1    2    0    0  0.30229660780E+03  0.43099799404E+03 -0.38633972905E+03  0.65299380346E+03  0.10566000000E+00 0.  1.
<mgrwt>
<rscale>  1 0.93775154E+03</rscale>
<asrwt>0</asrwt>
<pdfrwt beam="1">  1       21 0.11172109E+00 0.11367541E+04</pdfrwt>
<pdfrwt beam="2">  1       -4 0.16378028E+00 0.11367541E+04</pdfrwt>
<totfact> 0.53265032E+00</totfact>
</mgrwt>
</event>
<event>
 6    2  0.2294477E-005  0.1083819E+04  0.7818608E-02  0.9504603E-01
         -4   -1    0    0    0  501 -0.00000000000E+00  0.00000000000E+00  0.92796106282E+03  0.92796106282E+03  0.00000000000E+00 0. -1.
         21   -1    0    0  501  502  0.00000000000E+00 -0.00000000000E+00 -0.59751962723E+03  0.59751962723E+03  0.00000000000E+00 0. -1.
   -9000010    2    1    2    0  502  0.27411448758E+02  0.38908077793E+03  0.33819330880E+03  0.11353584759E+04  0.10112017185E+04 0.  0.
         13    1    3    3    0    0  0.29022515681E+03 -0.23160395345E+03  0.26749183605E+03  0.45762749745E+03  0.10566000000E+00 0. -1.
         -4    1    3    3    0  502 -0.26281370805E+03  0.62068473138E+03  0.70701472747E+02  0.67773097845E+03  0.00000000000E+00 0. -1.
        -13    1    1    2    0    0 -0.27411448758E+02 -0.38908077793E+03 -0.77518732150E+01  0.39012221415E+03  0.10566000000E+00 0.  1.
<mgrwt>
<rscale>  1 0.83945309E+03</rscale>
<asrwt>0</asrwt>
<pdfrwt beam="2">  1       21 0.91926096E-01 0.10838192E+04</pdfrwt>
<pdfrwt beam="1">  1       -4 0.14276324E+00 0.10838192E+04</pdfrwt>
<totfact> 0.12643030E+01</totfact>
</mgrwt>
</event>
<event>
 6    2  0.2294477E-005  0.1026231E+04  0.7818608E-02  0.9735613E-01
         -4   -1    0    0    0  501 -0.00000000000E+00  0.00000000000E+00  0.10340553754E+04  0.10340553754E+04  0.00000000000E+00 0. -1.
         21   -1    0    0  501  502  0.00000000000E+00 -0.00000000000E+00 -0.37523193589E+03  0.37523193589E+03  0.00000000000E+00 0. -1.
   -9000010    2    1    2    0  502  0.15627458071E+03  0.13869639708E+03  0.47433655661E+03  0.11305511345E+04  0.10047349220E+04 0.  0.
         13    1    3    3    0    0 -0.33016784567E+03 -0.11586731332E+03  0.46436053240E+03  0.58143508307E+03  0.10566000000E+00 0. -1.
         -4    1    3    3    0  502  0.48644242638E+03  0.25456371040E+03  0.99760242087E+01  0.54911605139E+03  0.00000000000E+00 0. -1.
        -13    1    1    2    0    0 -0.15627458071E+03 -0.13869639708E+03  0.18448688286E+03  0.27873617679E+03  0.10566000000E+00 0.  1.
<mgrwt>
<rscale>  1 0.68935429E+03</rscale>
<asrwt>0</asrwt>
<pdfrwt beam="2">  1       21 0.57727991E-01 0.10262313E+04</pdfrwt>
<pdfrwt beam="1">  1       -4 0.15908544E+00 0.10262313E+04</pdfrwt>
<totfact> 0.27882838E+01</totfact>
</mgrwt>
</event>
<event>
 6    2  0.2294477E-005  0.9981104E+03  0.7818608E-02  0.1023254E+00
         -4   -1    0    0    0  501 -0.00000000000E+00  0.00000000000E+00  0.76239603839E+03  0.76239603839E+03  0.00000000000E+00 0. -1.
         21   -1    0    0  501  502  0.00000000000E+00 -0.00000000000E+00 -0.37028505814E+03  0.37028505814E+03  0.00000000000E+00 0. -1.
   -9000010    2    1    2    0  502  0.27124604874E+02  0.38557472089E+02  0.32309676667E+03  0.10491024169E+04  0.99699645823E+03 0.  0.
         13    1    3    3    0    0 -0.20905914316E+02  0.20967517608E+03  0.64655844693E+03  0.68002836204E+03  0.10566000000E+00 0. -1.
         -4    1    3    3    0  502  0.48030519190E+02 -0.17111770399E+03 -0.32346168026E+03  0.36907405489E+03  0.00000000000E+00 0. -1.
        -13    1    1    2    0    0 -0.27124604874E+02 -0.38557472089E+02  0.69014213583E+02  0.83578679601E+02  0.10566000000E+00 0.  1.
<mgrwt>
<rscale>  1 0.46530481E+03</rscale>
<asrwt>0</asrwt>
<pdfrwt beam="2">  1       21 0.56966932E-01 0.99811039E+03</pdfrwt>
<pdfrwt beam="1">  1       -4 0.11729170E+00 0.99811039E+03</pdfrwt>
<totfact> 0.63832676E+01</totfact>
</mgrwt>
</event>
<event>
 6    2  0.2294477E-005  0.1100962E+04  0.7818608E-02  0.9442187E-01
         -4   -1    0    0    0  501 -0.00000000000E+00  0.00000000000E+00  0.45249525088E+03  0.45249525088E+03  0.00000000000E+00 0. -1.
         21   -1    0    0  501  502  0.00000000000E+00 -0.00000000000E+00 -0.14052209195E+04  0.14052209195E+04  0.00000000000E+00 0. -1.
   -9000010    2    1    2    0  502 -0.32522538130E+03  0.33025640398E+03 -0.82843373549E+03  0.13778314584E+04  0.99863718765E+03 0.  0.
         13    1    3    3    0    0 -0.65665632427E+03  0.34966892286E+03 -0.43028616114E+03  0.85942543332E+03  0.10566000000E+00 0. -1.
         -4    1    3    3    0  502  0.33143094296E+03 -0.19412518875E+02 -0.39814757435E+03  0.51840602505E+03  0.00000000000E+00 0. -1.
        -13    1    1    2    0    0  0.32522538130E+03 -0.33025640398E+03 -0.12429193312E+03  0.47988471201E+03  0.10566000000E+00 0.  1.
<mgrwt>
<rscale>  1 0.88683704E+03</rscale>
<asrwt>0</asrwt>
<pdfrwt beam="2">  1       21 0.21618783E+00 0.11009619E+04</pdfrwt>
<pdfrwt beam="1">  1       -4 0.69614654E-01 0.11009619E+04</pdfrwt>
<totfact> 0.66588216E+00</totfact>
</mgrwt>
</event>
<event>
 6    2  0.2294477E-005  0.1062441E+04  0.7818608E-02  0.9558824E-01
         -4   -1    0    0    0  501 -0.00000000000E+00  0.00000000000E+00  0.96371341052E+03  0.96371341052E+03  0.00000000000E+00 0. -1.
         21   -1    0    0  501  502  0.00000000000E+00 -0.00000000000E+00 -0.51451013855E+03  0.51451013855E+03  0.00000000000E+00 0. -1.
   -9000010    2    1    2    0  502  0.25707007960E+03 -0.22700650155E+03  0.29818432396E+03  0.11034920300E+04  0.10055664034E+04 0.  0.
         13    1    3    3    0    0 -0.25872545436E+03  0.24719382115E+03  0.56123868761E+02  0.36220649602E+03  0.10566000000E+00 0. -1.
         -4    1    3    3    0  502  0.51579553396E+03 -0.47420032270E+03  0.24206045520E+03  0.74128553397E+03  0.00000000000E+00 0. -1.
        -13    1    1    2    0    0 -0.25707007960E+03  0.22700650155E+03  0.15101894800E+03  0.37473151907E+03  0.10566000000E+00 0.  1.
<mgrwt>
<rscale>  1 0.80082451E+03</rscale>
<asrwt>0</asrwt>
<pdfrwt beam="2">  1       21 0.79155406E-01 0.10624409E+04</pdfrwt>
<pdfrwt beam="1">  1       -4 0.14826360E+00 0.10624409E+04</pdfrwt>
<totfact> 0.16376915E+01</totfact>
</mgrwt>
</event>
<event>
 6    2  0.2294477E-005  0.1027247E+04  0.7818608E-02  0.9561970E-01
         21   -1    0    0  501  502  0.00000000000E+00  0.00000000000E+00  0.69498736929E+03  0.69498736929E+03  0.00000000000E+00 0. -1.
         -4   -1    0    0    0  501 -0.00000000000E+00 -0.00000000000E+00 -0.17930081039E+04  0.17930081039E+04  0.00000000000E+00 0. -1.
   -9000010    2    1    2    0  502 -0.31751049147E+02 -0.37397790018E+03  0.27596478633E+03  0.10636697303E+04  0.95622650713E+03 0.  0.
         13    1    3    3    0    0  0.17042641007E+02  0.32552158506E+03  0.81386093109E+02  0.33597389968E+03  0.10566000000E+00 0. -1.
         -4    1    3    3    0  502 -0.48793690153E+02 -0.69949948525E+03  0.19457869322E+03  0.72769583063E+03  0.00000000000E+00 0. -1.
        -13    1    1    2    0    0  0.31751049147E+02  0.37397790018E+03 -0.13739855209E+04  0.14243257429E+04  0.10566000000E+00 0.  1.
<mgrwt>
<rscale>  1 0.79865204E+03</rscale>
<asrwt>0</asrwt>
<pdfrwt beam="1">  1       21 0.10692113E+00 0.10272472E+04</pdfrwt>
<pdfrwt beam="2">  1       -4 0.27584740E+00 0.10272472E+04</pdfrwt>
<totfact> 0.11240686E+00</totfact>
</mgrwt>
</event>
<event>
 6    2  0.2294477E-005  0.1147039E+04  0.7818608E-02  0.9372103E-01
         -4   -1    0    0    0  501 -0.00000000000E+00  0.00000000000E+00  0.13488073155E+04  0.13488073155E+04  0.00000000000E+00 0. -1.
         21   -1    0    0  501  502  0.00000000000E+00 -0.00000000000E+00 -0.53545869582E+03  0.53545869582E+03  0.00000000000E+00 0.  1.
   -9000010    2    1    2    0  502 -0.52146366123E+03 -0.71701833706E+02  0.39926473476E+03  0.12145414576E+04  0.10191335147E+04 0.  0.
         13    1    3    3    0    0 -0.42977760160E+03  0.32658519182E+03  0.55775671419E+03  0.77618247710E+03  0.10566000000E+00 0. -1.
         -4    1    3    3    0  502 -0.91686059626E+02 -0.39828702553E+03 -0.15849197943E+03  0.43835898049E+03  0.00000000000E+00 0. -1.
        -13    1    1    2    0    0  0.52146366123E+03  0.71701833706E+02  0.41408388487E+03  0.66972455369E+03  0.10566000000E+00 0.  1.
<mgrwt>
<rscale>  1 0.94407493E+03</rscale>
<asrwt>0</asrwt>
<pdfrwt beam="2">  1       21 0.82378261E-01 0.11470391E+04</pdfrwt>
<pdfrwt beam="1">  1       -4 0.20750882E+00 0.11470391E+04</pdfrwt>
<totfact> 0.56172405E+00</totfact>
</mgrwt>
</event>
<event>
 6    2  0.2294477E-005  0.1361735E+04  0.7818608E-02  0.9097595E-01
         21   -1    0    0  501  502  0.00000000000E+00  0.00000000000E+00  0.99878488226E+03  0.99878488226E+03  0.00000000000E+00 0.  1.
         -4   -1    0    0    0  501 -0.00000000000E+00 -0.00000000000E+00 -0.12515728703E+04  0.12515728703E+04  0.00000000000E+00 0. -1.
   -9000010    2    1    2    0  502  0.85166187577E+03 -0.17974328029E+03 -0.21938636889E+03  0.13792944502E+04  0.10472283437E+04 0.  0.
         13    1    3    3    0    0  0.43391710284E+02  0.30191409366E+03 -0.30893976658E+03  0.43414139518E+03  0.10566000000E+00 0. -1.
         -4    1    3    3    0  502  0.80827016548E+03 -0.48165737395E+03  0.89553397694E+02  0.94515305497E+03  0.00000000000E+00 0. -1.
        -13    1    1    2    0    0 -0.85166187577E+03  0.17974328029E+03 -0.33401619140E+02  0.87106330239E+03  0.10566000000E+00 0.  1.
<mgrwt>
<rscale>  1 0.12175929E+04</rscale>
<asrwt>0</asrwt>
<pdfrwt beam="1">  1       21 0.15365921E+00 0.13617352E+04</pdfrwt>
<pdfrwt beam="2">  1       -4 0.19254967E+00 0.13617352E+04</pdfrwt>
<totfact> 0.13819462E+00</totfact>
</mgrwt>
</event>
<event>
 6    2  0.2294477E-005  0.9703573E+03  0.7818608E-02  0.9760295E-01
         -4   -1    0    0    0  501 -0.00000000000E+00  0.00000000000E+00  0.91028431517E+03  0.91028431517E+03  0.00000000000E+00 0. -1.
         21   -1    0    0  501  502  0.00000000000E+00 -0.00000000000E+00 -0.45084498655E+03  0.45084498655E+03  0.00000000000E+00 0. -1.
   -9000010    2    1    2    0  502 -0.17814575429E+03 -0.14183402470E+03  0.15766777550E+03  0.98308316462E+03  0.94326061128E+03 0.  0.
         13    1    3    3    0    0 -0.52147430711E+02 -0.74307637460E+02  0.55419188777E+03  0.56157781219E+03  0.10566000000E+00 0. -1.
         -4    1    3    3    0  502 -0.12599832358E+03 -0.67526387236E+02 -0.39652411227E+03  0.42150535243E+03  0.00000000000E+00 0. -1.
        -13    1    1    2    0    0  0.17814575429E+03  0.14183402470E+03  0.30177155312E+03  0.37804613710E+03  0.10566000000E+00 0.  1.
<mgrwt>
<rscale>  1 0.67537552E+03</rscale>
<asrwt>0</asrwt>
<pdfrwt beam="2">  1       21 0.69360767E-01 0.97035735E+03</pdfrwt>
<pdfrwt beam="1">  1       -4 0.14004374E+00 0.97035735E+03</pdfrwt>
<totfact> 0.26108900E+01</totfact>
</mgrwt>
</event>
<event>
 6    2  0.2294477E-005  0.1329488E+04  0.7818608E-02  0.9156069E-01
         21   -1    0    0  501  502  0.00000000000E+00  0.00000000000E+00  0.15506660268E+04  0.15506660268E+04  0.00000000000E+00 0.  1.
         -4   -1    0    0    0  501 -0.00000000000E+00 -0.00000000000E+00 -0.70657209044E+03  0.70657209044E+03  0.00000000000E+00 0. -1.
   -9000010    2    1    2    0  502 -0.74457393798E+03  0.82321065827E+02  0.66725666839E+03  0.14875378265E+04  0.10983488594E+04 0.  0.
         13    1    3    3    0    0 -0.36907977174E+03  0.46872858146E+03  0.73259819784E+03  0.94478912548E+03  0.10566000000E+00 0. -1.
         -4    1    3    3    0  502 -0.37549416624E+03 -0.38640751563E+03 -0.65341529455E+02  0.54274870105E+03  0.00000000000E+00 0. -1.
        -13    1    1    2    0    0  0.74457393798E+03 -0.82321065827E+02  0.17683726795E+03  0.76970029069E+03  0.10566000000E+00 0.  1.
<mgrwt>
<rscale>  1 0.11518601E+04</rscale>
<asrwt>0</asrwt>
<pdfrwt beam="1">  1       21 0.23856400E+00 0.13294876E+04</pdfrwt>
<pdfrwt beam="2">  1       -4 0.10870340E+00 0.13294876E+04</pdfrwt>
<totfact> 0.16163355E+00</totfact>
</mgrwt>
</event>
<event>
 6    2  0.2294477E-005  0.1003455E+04  0.7818608E-02  0.1001039E+00
         21   -1    0    0  501  502  0.00000000000E+00  0.00000000000E+00  0.42910906768E+03  0.42910906768E+03  0.00000000000E+00 0. -1.
         -4   -1    0    0    0  501 -0.00000000000E+00 -0.00000000000E+00 -0.69897157012E+03  0.69897157012E+03  0.00000000000E+00 0. -1.
   -9000010    2    1    2    0  502  0.24844281396E+02  0.88445069890E+02 -0.24803761226E+03  0.10336555050E+04  0.99924035009E+03 0.  0.
         13    1    3    3    0    0  0.27382584987E+01 -0.58307692744E+02 -0.62542118391E+03  0.62813927878E+03  0.10566000000E+00 0. -1.
         -4    1    3    3    0  502  0.22106022897E+02  0.14675276263E+03  0.37738357166E+03  0.40551622624E+03  0.00000000000E+00 0. -1.
        -13    1    1    2    0    0 -0.24844281396E+02 -0.88445069890E+02 -0.21824890174E+02  0.94425132783E+02  0.10566000000E+00 0.  1.
<mgrwt>
<rscale>  1 0.55196905E+03</rscale>
<asrwt>0</asrwt>
<pdfrwt beam="1">  1       21 0.66016780E-01 0.10034546E+04</pdfrwt>
<pdfrwt beam="2">  1       -4 0.10753409E+00 0.10034546E+04</pdfrwt>
<totfact> 0.56849647E+01</totfact>
</mgrwt>
</event>
<event>
 6    2  0.2294477E-005  0.1110926E+04  0.7818608E-02  0.9431763E-01
         21   -1    0    0  501  502  0.00000000000E+00  0.00000000000E+00  0.28993977292E+04  0.28993977292E+04  0.00000000000E+00 0. -1.
         -4   -1    0    0    0  501 -0.00000000000E+00 -0.00000000000E+00 -0.29693626583E+03  0.29693626583E+03  0.00000000000E+00 0. -1.
   -9000010    2    1    2    0  502 -0.46546992185E+03 -0.49931349898E+02  0.24723106494E+04  0.27104382929E+04  0.10074722848E+04 0.  0.
         13    1    3    3    0    0 -0.41975623202E+03  0.25011087234E+03  0.44612678190E+03  0.66164934782E+03  0.10566000000E+00 0. -1.
         -4    1    3    3    0  502 -0.45713689828E+02 -0.30004222224E+03  0.20261838675E+04  0.20487889451E+04  0.00000000000E+00 0. -1.
        -13    1    1    2    0    0  0.46546992185E+03  0.49931349898E+02  0.13015081405E+03  0.48589570219E+03  0.10566000000E+00 0.  1.
<mgrwt>
<rscale>  1 0.89507158E+03</rscale>
<asrwt>0</asrwt>
<pdfrwt beam="1">  1       21 0.44606117E+00 0.11109256E+04</pdfrwt>
<pdfrwt beam="2">  1       -4 0.45682504E-01 0.11109256E+04</pdfrwt>
<totfact> 0.54716788E-01</totfact>
</mgrwt>
</event>
<event>
 6    2  0.2294477E-005  0.1006499E+04  0.7818608E-02  0.1004531E+00
         -4   -1    0    0    0  501 -0.00000000000E+00  0.00000000000E+00  0.28197325871E+03  0.28197325871E+03  0.00000000000E+00 0. -1.
         21   -1    0    0  501  502  0.00000000000E+00 -0.00000000000E+00 -0.10499127712E+04  0.10499127712E+04  0.00000000000E+00 0. -1.
   -9000010    2    1    2    0  502  0.12618603075E+02  0.80618570264E+02 -0.70540847540E+03  0.12290817266E+04  0.10031860199E+04 0.  0.
         13    1    3    3    0    0 -0.10169492220E+03  0.45024104078E+03 -0.70442614031E+03  0.84218468896E+03  0.10566000000E+00 0. -1.
         -4    1    3    3    0  502  0.11431352528E+03 -0.36962247051E+03 -0.98233509526E+00  0.38689703766E+03  0.00000000000E+00 0. -1.
        -13    1    1    2    0    0 -0.12618603075E+02 -0.80618570264E+02 -0.62531037116E+02  0.10280430332E+03  0.10566000000E+00 0.  1.
<mgrwt>
<rscale>  1 0.53707257E+03</rscale>
<asrwt>0</asrwt>
<pdfrwt beam="2">  1       21 0.16152504E+00 0.10064993E+04</pdfrwt>
<pdfrwt beam="1">  1       -4 0.43380501E-01 0.10064993E+04</pdfrwt>
<totfact> 0.45575062E+01</totfact>
</mgrwt>
</event>
<event>
 6    2  0.2294477E-005  0.1212297E+04  0.7818608E-02  0.9255153E-01
         21   -1    0    0  501  502  0.00000000000E+00  0.00000000000E+00  0.13463970013E+04  0.13463970013E+04  0.00000000000E+00 0.  1.
         -4   -1    0    0    0  501 -0.00000000000E+00 -0.00000000000E+00 -0.66763435499E+03  0.66763435499E+03  0.00000000000E+00 0. -1.
   -9000010    2    1    2    0  502  0.39704425813E+03  0.55538128381E+03  0.46851882992E+03  0.12996820112E+04  0.10017838704E+04 0.  0.
         13    1    3    3    0    0  0.14217536323E+03  0.44839548229E+03 -0.24794873001E+03  0.53174328988E+03  0.10566000000E+00 0. -1.
         -4    1    3    3    0  502  0.25486889490E+03  0.10698580151E+03  0.71646755993E+03  0.76793872135E+03  0.00000000000E+00 0. -1.
        -13    1    1    2    0    0 -0.39704425813E+03 -0.55538128381E+03  0.21024381641E+03  0.71434934508E+03  0.10566000000E+00 0.  1.
<mgrwt>
<rscale>  1 0.10501848E+04</rscale>
<asrwt>0</asrwt>
<pdfrwt beam="1">  1       21 0.20713800E+00 0.12122968E+04</pdfrwt>
<pdfrwt beam="2">  1       -4 0.10271298E+00 0.12122968E+04</pdfrwt>
<totfact> 0.30501571E+00</totfact>
</mgrwt>
</event>
<event>
 6    2  0.2294477E-005  0.1081920E+04  0.7818608E-02  0.9582983E-01
         -4   -1    0    0    0  501 -0.00000000000E+00  0.00000000000E+00  0.11889546327E+04  0.11889546327E+04  0.00000000000E+00 0. -1.
         21   -1    0    0  501  502  0.00000000000E+00 -0.00000000000E+00 -0.52989737544E+03  0.52989737544E+03  0.00000000000E+00 0. -1.
   -9000010    2    1    2    0  502  0.10409519525E+03 -0.28009911678E+03  0.10201073269E+03  0.10867189789E+04  0.10398368260E+04 0.  0.
         13    1    3    3    0    0 -0.24952370012E+03 -0.78161800423E+02  0.47001625141E+03  0.53785372707E+03  0.10566000000E+00 0. -1.
         -4    1    3    3    0  502  0.35361889538E+03 -0.20193731636E+03 -0.36800551872E+03  0.54886525187E+03  0.00000000000E+00 0. -1.
        -13    1    1    2    0    0 -0.10409519525E+03  0.28009911678E+03  0.55704652456E+03  0.63213302919E+03  0.10566000000E+00 0.  1.
<mgrwt>
<rscale>  1 0.78432792E+03</rscale>
<asrwt>0</asrwt>
<pdfrwt beam="2">  1       21 0.81522673E-01 0.10819205E+04</pdfrwt>
<pdfrwt beam="1">  1       -4 0.18291610E+00 0.10819205E+04</pdfrwt>
<totfact> 0.84842350E+00</totfact>
</mgrwt>
</event>
<event>
 6    2  0.2294477E-005  0.1067758E+04  0.7818608E-02  0.9616038E-01
         21   -1    0    0  501  502  0.00000000000E+00  0.00000000000E+00  0.94136340286E+03  0.94136340286E+03  0.00000000000E+00 0. -1.
         -4   -1    0    0    0  501 -0.00000000000E+00 -0.00000000000E+00 -0.56677354643E+03  0.56677354643E+03  0.00000000000E+00 0. -1.
   -9000010    2    1    2    0  502  0.27115890886E+03 -0.59390634485E+02  0.52779203603E+03  0.11910796669E+04  0.10310441010E+04 0.  0.
         13    1    3    3    0    0  0.52445805466E+03  0.16095334494E+03  0.63452181846E+03  0.83879686433E+03  0.10566000000E+00 0. -1.
         -4    1    3    3    0  502 -0.25329914579E+03 -0.22034397942E+03 -0.10672978243E+03  0.35228280257E+03  0.00000000000E+00 0. -1.
        -13    1    1    2    0    0 -0.27115890886E+03  0.59390634485E+02 -0.15320217961E+03  0.31705728240E+03  0.10566000000E+00 0.  1.
<mgrwt>
<rscale>  1 0.76243741E+03</rscale>
<asrwt>0</asrwt>
<pdfrwt beam="1">  1       21 0.14482514E+00 0.10677576E+04</pdfrwt>
<pdfrwt beam="2">  1       -4 0.87195930E-01 0.10677576E+04</pdfrwt>
<totfact> 0.13315704E+01</totfact>
</mgrwt>
</event>
<event>
 6    2  0.2294477E-005  0.1022870E+04  0.7818608E-02  0.9746174E-01
         -4   -1    0    0    0  501 -0.00000000000E+00  0.00000000000E+00  0.25339724598E+03  0.25339724598E+03  0.00000000000E+00 0. -1.
         21   -1    0    0  501  502  0.00000000000E+00 -0.00000000000E+00 -0.16758263338E+04  0.16758263338E+04  0.00000000000E+00 0. -1.
   -9000010    2    1    2    0  502 -0.14851281653E+03 -0.13946575662E+03 -0.87832332983E+03  0.13482262984E+04  0.10023749428E+04 0.  0.
         13    1    3    3    0    0  0.23954733890E+03 -0.16793119536E+03 -0.91190038869E+03  0.95767747389E+03  0.10566000000E+00 0. -1.
         -4    1    3    3    0  502 -0.38806015544E+03  0.28465438736E+02  0.33577058857E+02  0.39054882450E+03  0.00000000000E+00 0. -1.
        -13    1    1    2    0    0  0.14851281653E+03  0.13946575662E+03 -0.54410575799E+03  0.58099728139E+03  0.10566000000E+00 0.  1.
<mgrwt>
<rscale>  1 0.68332943E+03</rscale>
<asrwt>0</asrwt>
<pdfrwt beam="2">  1       21 0.25781943E+00 0.10228696E+04</pdfrwt>
<pdfrwt beam="1">  1       -4 0.38984192E-01 0.10228696E+04</pdfrwt>
<totfact> 0.12448807E+01</totfact>
</mgrwt>
</event>
<event>
 6    2  0.2294477E-005  0.1036859E+04  0.7818608E-02  0.9710196E-01
         21   -1    0    0  501  502  0.00000000000E+00  0.00000000000E+00  0.60534605422E+03  0.60534605422E+03  0.00000000000E+00 0. -1.
         -4   -1    0    0    0  501 -0.00000000000E+00 -0.00000000000E+00 -0.81802916891E+03  0.81802916891E+03  0.00000000000E+00 0. -1.
   -9000010    2    1    2    0  502  0.21584544907E+03 -0.45174011211E+02  0.98993451272E+02  0.10415739108E+04  0.10131369893E+04 0.  0.
         13    1    3    3    0    0  0.24134569931E+03  0.38495849482E+03 -0.22062003210E+03  0.50508811017E+03  0.10566000000E+00 0. -1.
         -4    1    3    3    0  502 -0.25500250245E+02 -0.43013250603E+03  0.31961348337E+03  0.53648580061E+03  0.00000000000E+00 0. -1.
        -13    1    1    2    0    0 -0.21584544907E+03  0.45174011211E+02 -0.31167656597E+03  0.38180131235E+03  0.10566000000E+00 0.  1.
<mgrwt>
<rscale>  1 0.70412985E+03</rscale>
<asrwt>0</asrwt>
<pdfrwt beam="1">  1       21 0.93130163E-01 0.10368590E+04</pdfrwt>
<pdfrwt beam="2">  1       -4 0.12585064E+00 0.10368590E+04</pdfrwt>
<totfact> 0.17071893E+01</totfact>
</mgrwt>
</event>
<event>
 6    2  0.2294477E-005  0.1075030E+04  0.7818608E-02  0.9507134E-01
         21   -1    0    0  501  502  0.00000000000E+00  0.00000000000E+00  0.74825441366E+03  0.74825441366E+03  0.00000000000E+00 0. -1.
         -4   -1    0    0    0  501 -0.00000000000E+00 -0.00000000000E+00 -0.72478555768E+03  0.72478555768E+03  0.00000000000E+00 0. -1.
   -9000010    2    1    2    0  502  0.29159935121E+03 -0.26818140038E+03 -0.13811168234E+02  0.10751188026E+04  0.99936892401E+03 0.  0.
         13    1    3    3    0    0 -0.36764051239E+03 -0.12471375591E+03  0.72565498718E+02  0.39494155268E+03  0.10566000000E+00 0. -1.
         -4    1    3    3    0  502  0.65923986360E+03 -0.14346764447E+03 -0.86376666952E+02  0.68017724996E+03  0.00000000000E+00 0. -1.
        -13    1    1    2    0    0 -0.29159935121E+03  0.26818140038E+03  0.37280024210E+02  0.39792116871E+03  0.10566000000E+00 0.  1.
<mgrwt>
<rscale>  1 0.83759907E+03</rscale>
<asrwt>0</asrwt>
<pdfrwt beam="1">  1       21 0.11511606E+00 0.10750301E+04</pdfrwt>
<pdfrwt beam="2">  1       -4 0.11150547E+00 0.10750301E+04</pdfrwt>
<totfact> 0.13558382E+01</totfact>
</mgrwt>
</event>
<event>
 6    2  0.2294477E-005  0.1032605E+04  0.7818608E-02  0.9656288E-01
         21   -1    0    0  501  502  0.00000000000E+00  0.00000000000E+00  0.48099348860E+03  0.48099348860E+03  0.00000000000E+00 0. -1.
         -4   -1    0    0    0  501 -0.00000000000E+00 -0.00000000000E+00 -0.12545617118E+04  0.12545617118E+04  0.00000000000E+00 0. -1.
   -9000010    2    1    2    0  502 -0.26474733940E+03 -0.39445034044E+02 -0.13277804490E+03  0.10411064059E+04  0.99730911695E+03 0.  0.
         13    1    3    3    0    0  0.16890461731E+03  0.22988720315E+03 -0.37898696014E+03  0.47435010597E+03  0.10566000000E+00 0. -1.
         -4    1    3    3    0  502 -0.43365195671E+03 -0.26933223719E+03  0.24620891523E+03  0.56675629991E+03  0.00000000000E+00 0. -1.
        -13    1    1    2    0    0  0.26474733940E+03  0.39445034044E+02 -0.64079017833E+03  0.69444879454E+03  0.10566000000E+00 0.  1.
<mgrwt>
<rscale>  1 0.73680132E+03</rscale>
<asrwt>0</asrwt>
<pdfrwt beam="1">  1       21 0.73998997E-01 0.10326047E+04</pdfrwt>
<pdfrwt beam="2">  1       -4 0.19300950E+00 0.10326047E+04</pdfrwt>
<totfact> 0.91316939E+00</totfact>
</mgrwt>
</event>
<event>
 6    2  0.2294477E-005  0.1033426E+04  0.7818608E-02  0.9715301E-01
         -4   -1    0    0    0  501 -0.00000000000E+00  0.00000000000E+00  0.35611336286E+03  0.35611336286E+03  0.00000000000E+00 0. -1.
         21   -1    0    0  501  502  0.00000000000E+00 -0.00000000000E+00 -0.12152841794E+04  0.12152841794E+04  0.00000000000E+00 0. -1.
   -9000010    2    1    2    0  502  0.12426302303E+02  0.21860272853E+03 -0.49356330853E+03  0.11452397933E+04  0.10099642958E+04 0.  0.
         13    1    3    3    0    0  0.29373589291E+03 -0.31460411044E+03 -0.21516214186E+03  0.48119775513E+03  0.10566000000E+00 0. -1.
         -4    1    3    3    0  502 -0.28130959061E+03  0.53320683897E+03 -0.27840116667E+03  0.66404203820E+03  0.00000000000E+00 0. -1.
        -13    1    1    2    0    0 -0.12426302303E+02 -0.21860272853E+03 -0.36560750805E+03  0.42615774898E+03  0.10566000000E+00 0.  1.
<mgrwt>
<rscale>  1 0.70113017E+03</rscale>
<asrwt>0</asrwt>
<pdfrwt beam="2">  1       21 0.18696679E+00 0.10334261E+04</pdfrwt>
<pdfrwt beam="1">  1       -4 0.54786672E-01 0.10334261E+04</pdfrwt>
<totfact> 0.18030263E+01</totfact>
</mgrwt>
</event>
<event>
 6    2  0.2294477E-005  0.9199749E+03  0.7818608E-02  0.9910465E-01
         -4   -1    0    0    0  501 -0.00000000000E+00  0.00000000000E+00  0.78476656193E+03  0.78476656193E+03  0.00000000000E+00 0. -1.
         21   -1    0    0  501  502  0.00000000000E+00 -0.00000000000E+00 -0.88935734676E+03  0.88935734676E+03  0.00000000000E+00 0. -1.
   -9000010    2    1    2    0  502 -0.16307577845E+03 -0.15005563642E+02 -0.63576331511E+03  0.11182793760E+04  0.90528166524E+03 0.  0.
         13    1    3    3    0    0 -0.29651606947E+02 -0.43760868720E+03 -0.15693117789E+03  0.46584116034E+03  0.10566000000E+00 0. -1.
         -4    1    3    3    0  502 -0.13342417151E+03  0.42260312356E+03 -0.47883213722E+03  0.65243821563E+03  0.00000000000E+00 0. -1.
        -13    1    1    2    0    0  0.16307577845E+03  0.15005563642E+02  0.53117253028E+03  0.55584453272E+03  0.10566000000E+00 0.  1.
<mgrwt>
<rscale>  1 0.59756764E+03</rscale>
<asrwt>0</asrwt>
<pdfrwt beam="2">  1       21 0.13682421E+00 0.91997487E+03</pdfrwt>
<pdfrwt beam="1">  1       -4 0.12073332E+00 0.91997487E+03</pdfrwt>
<totfact> 0.71934666E+00</totfact>
</mgrwt>
</event>
<event>
 6    2  0.2294477E-005  0.1160938E+04  0.7818608E-02  0.9326283E-01
         21   -1    0    0  501  502  0.00000000000E+00  0.00000000000E+00  0.14389001996E+04  0.14389001996E+04  0.00000000000E+00 0. -1.
         -4   -1    0    0    0  501 -0.00000000000E+00 -0.00000000000E+00 -0.53994515140E+03  0.53994515140E+03  0.00000000000E+00 0. -1.
   -9000010    2    1    2    0  502 -0.19295993677E+03  0.56722287898E+03  0.64519373649E+03  0.13281763521E+04  0.99438530412E+03 0.  0.
         13    1    3    3    0    0 -0.50346914782E+03  0.28218156557E+03  0.24221879738E+02  0.57766281633E+03  0.10566000000E+00 0. -1.
         -4    1    3    3    0  502  0.31050921104E+03  0.28504131341E+03  0.62097185675E+03  0.75051353577E+03  0.00000000000E+00 0. -1.
        -13    1    1    2    0    0  0.19295993677E+03 -0.56722287898E+03  0.25376131169E+03  0.65066899888E+03  0.10566000000E+00 0.  1.
<mgrwt>
<rscale>  1 0.98398822E+03</rscale>
<asrwt>0</asrwt>
<pdfrwt beam="1">  1       21 0.22136926E+00 0.11609382E+04</pdfrwt>
<pdfrwt beam="2">  1       -4 0.83068486E-01 0.11609382E+04</pdfrwt>
<totfact> 0.40789005E+00</totfact>
</mgrwt>
</event>
<event>
 6    2  0.2294477E-005  0.1160091E+04  0.7818608E-02  0.9325898E-01
         21   -1    0    0  501  502  0.00000000000E+00  0.00000000000E+00  0.11056168394E+04  0.11056168394E+04  0.00000000000E+00 0.  1.
         -4   -1    0    0    0  501 -0.00000000000E+00 -0.00000000000E+00 -0.70872478188E+03  0.70872478188E+03  0.00000000000E+00 0. -1.
   -9000010    2    1    2    0  502 -0.58894453930E+03  0.12126912293E+03  0.17403766421E+03  0.11730725963E+04  0.99209290753E+03 0.  0.
         13    1    3    3    0    0 -0.36869010156E+01  0.44755517981E+03 -0.83362672044E+02  0.45526758996E+03  0.10566000000E+00 0. -1.
         -4    1    3    3    0  502 -0.58525763828E+03 -0.32628605688E+03  0.25740033625E+03  0.71780500638E+03  0.00000000000E+00 0. -1.
        -13    1    1    2    0    0  0.58894453930E+03 -0.12126912293E+03  0.22285439329E+03  0.64126902491E+03  0.10566000000E+00 0.  1.
<mgrwt>
<rscale>  1 0.98433248E+03</rscale>
<asrwt>0</asrwt>
<pdfrwt beam="1">  1       21 0.17009490E+00 0.11600906E+04</pdfrwt>
<pdfrwt beam="2">  1       -4 0.10903458E+00 0.11600906E+04</pdfrwt>
<totfact> 0.48730761E+00</totfact>
</mgrwt>
</event>
<event>
 6    2  0.2294477E-005  0.1012948E+04  0.7818608E-02  0.9767166E-01
         21   -1    0    0  501  502  0.00000000000E+00  0.00000000000E+00  0.87537509755E+03  0.87537509755E+03  0.00000000000E+00 0. -1.
         -4   -1    0    0    0  501 -0.00000000000E+00 -0.00000000000E+00 -0.43783489914E+03  0.43783489914E+03  0.00000000000E+00 0. -1.
   -9000010    2    1    2    0  502  0.87420217257E+02 -0.17506673616E+03  0.46683922929E+03  0.11153486794E+04  0.99386777501E+03 0.  0.
         13    1    3    3    0    0  0.29281716961E+03 -0.12404737926E+03  0.71897396736E+03  0.78616361148E+03  0.10566000000E+00 0. -1.
         -4    1    3    3    0  502 -0.20539695235E+03 -0.51019356907E+02 -0.25213473807E+03  0.32918506794E+03  0.00000000000E+00 0. -1.
        -13    1    1    2    0    0 -0.87420217257E+02  0.17506673616E+03 -0.29299030880E+02  0.19786131727E+03  0.10566000000E+00 0.  1.
<mgrwt>
<rscale>  1 0.67154792E+03</rscale>
<asrwt>0</asrwt>
<pdfrwt beam="1">  1       21 0.13467309E+00 0.10129481E+04</pdfrwt>
<pdfrwt beam="2">  1       -4 0.67359215E-01 0.10129481E+04</pdfrwt>
<totfact> 0.29407751E+01</totfact>
</mgrwt>
</event>
<event>
 6    2  0.2294477E-005  0.1132893E+04  0.7818608E-02  0.9454554E-01
         21   -1    0    0  501  502  0.00000000000E+00  0.00000000000E+00  0.13225699888E+04  0.13225699888E+04  0.00000000000E+00 0.  1.
         -4   -1    0    0    0  501 -0.00000000000E+00 -0.00000000000E+00 -0.52881194007E+03  0.52881194007E+03  0.00000000000E+00 0. -1.
   -9000010    2    1    2    0  502 -0.31864239702E+03 -0.25352950263E+03  0.23009884807E+03  0.11560245448E+04  0.10571835614E+04 0.  0.
         13    1    3    3    0    0 -0.43690302521E+03 -0.46370654210E+03 -0.19585905473E+03  0.66653491364E+03  0.10566000000E+00 0. -1.
         -4    1    3    3    0  502  0.11826062819E+03  0.21017703946E+03  0.42595790280E+03  0.48948963120E+03  0.00000000000E+00 0. -1.
        -13    1    1    2    0    0  0.31864239702E+03  0.25352950263E+03  0.56365920069E+03  0.69535738407E+03  0.10566000000E+00 0.  1.
<mgrwt>
<rscale>  1 0.87718909E+03</rscale>
<asrwt>0</asrwt>
<pdfrwt beam="1">  1       21 0.20347231E+00 0.11328933E+04</pdfrwt>
<pdfrwt beam="2">  1       -4 0.81355683E-01 0.11328933E+04</pdfrwt>
<totfact> 0.56704246E+00</totfact>
</mgrwt>
</event>
<event>
 6    2  0.2294477E-005  0.1018328E+04  0.7818608E-02  0.9764162E-01
         -4   -1    0    0    0  501 -0.00000000000E+00  0.00000000000E+00  0.19608654050E+04  0.19608654050E+04  0.00000000000E+00 0. -1.
         21   -1    0    0  501  502  0.00000000000E+00 -0.00000000000E+00 -0.18808445462E+03  0.18808445462E+03  0.00000000000E+00 0. -1.
   -9000010    2    1    2    0  502  0.12280561671E+03 -0.15085042510E+03  0.15290502911E+04  0.18371138199E+04  0.99957757287E+03 0.  0.
         13    1    3    3    0    0  0.55581049745E+02  0.42910052533E+03  0.70536890119E+03  0.82750336063E+03  0.10566000000E+00 0. -1.
         -4    1    3    3    0  502  0.67224566967E+02 -0.57995095043E+03  0.82368138994E+03  0.10096104593E+04  0.00000000000E+00 0. -1.
        -13    1    1    2    0    0 -0.12280561671E+03  0.15085042510E+03  0.24373065926E+03  0.31183603973E+03  0.10566000000E+00 0.  1.
<mgrwt>
<rscale>  1 0.67321781E+03</rscale>
<asrwt>0</asrwt>
<pdfrwt beam="2">  1       21 0.28936071E-01 0.10183282E+04</pdfrwt>
<pdfrwt beam="1">  1       -4 0.30167159E+00 0.10183282E+04</pdfrwt>
<totfact> 0.14226554E+01</totfact>
</mgrwt>
</event>
<event>
 6    2  0.2294477E-005  0.1047742E+04  0.7818608E-02  0.9601475E-01
         21   -1    0    0  501  502  0.00000000000E+00  0.00000000000E+00  0.26234802828E+03  0.26234802828E+03  0.00000000000E+00 0. -1.
         -4   -1    0    0    0  501 -0.00000000000E+00 -0.00000000000E+00 -0.17537810512E+04  0.17537810512E+04  0.00000000000E+00 0. -1.
   -9000010    2    1    2    0  502 -0.18717090293E+03 -0.24560915015E+03 -0.11430605081E+04  0.15505968875E+04  0.10012025673E+04 0.  0.
         13    1    3    3    0    0  0.40317597891E+03 -0.11847311457E+03 -0.63482815530E+03  0.76131041420E+03  0.10566000000E+00 0. -1.
         -4    1    3    3    0  502 -0.59034688184E+03 -0.12713603558E+03 -0.50823235279E+03  0.78928647326E+03  0.00000000000E+00 0. -1.
        -13    1    1    2    0    0  0.18717090293E+03  0.24560915015E+03 -0.34837251479E+03  0.46553219198E+03  0.10566000000E+00 0.  1.
<mgrwt>
<rscale>  1 0.77198657E+03</rscale>
<asrwt>0</asrwt>
<pdfrwt beam="1">  1       21 0.40361237E-01 0.10477420E+04</pdfrwt>
<pdfrwt beam="2">  1       -4 0.26981246E+00 0.10477420E+04</pdfrwt>
<totfact> 0.11261040E+01</totfact>
</mgrwt>
</event>
<event>
 6    2  0.2294477E-005  0.1061423E+04  0.7818608E-02  0.9564632E-01
         -4   -1    0    0    0  501 -0.00000000000E+00  0.00000000000E+00  0.70684627696E+03  0.70684627696E+03  0.00000000000E+00 0. -1.
         21   -1    0    0  501  502  0.00000000000E+00 -0.00000000000E+00 -0.70062531007E+03  0.70062531007E+03  0.00000000000E+00 0. -1.
   -9000010    2    1    2    0  502 -0.13487418599E+03  0.30895531852E+03 -0.63134716751E+02  0.10632991638E+04  0.10064664348E+04 0.  0.
         13    1    3    3    0    0 -0.23707917034E+03  0.29247457344E+03 -0.49346600101E+03  0.62069043366E+03  0.10566000000E+00 0. -1.
         -4    1    3    3    0  502  0.10220498435E+03  0.16480745085E+02  0.43033128426E+03  0.44260873014E+03  0.00000000000E+00 0. -1.
        -13    1    1    2    0    0  0.13487418599E+03 -0.30895531852E+03  0.69355683639E+02  0.34417242322E+03  0.10566000000E+00 0.  1.
<mgrwt>
<rscale>  1 0.79681949E+03</rscale>
<asrwt>0</asrwt>
<pdfrwt beam="2">  1       21 0.10778851E+00 0.10614232E+04</pdfrwt>
<pdfrwt beam="1">  1       -4 0.10874558E+00 0.10614232E+04</pdfrwt>
<totfact> 0.17071213E+01</totfact>
</mgrwt>
</event>
<event>
 6    2  0.2294477E-005  0.9736169E+03  0.7818608E-02  0.9767921E-01
         21   -1    0    0  501  502  0.00000000000E+00  0.00000000000E+00  0.29843661481E+03  0.29843661481E+03  0.00000000000E+00 0. -1.
         -4   -1    0    0    0  501 -0.00000000000E+00 -0.00000000000E+00 -0.16863837419E+04  0.16863837419E+04  0.00000000000E+00 0. -1.
   -9000010    2    1    2    0  502 -0.21647003635E+03  0.38206909815E+02 -0.54938002886E+03  0.11179213810E+04  0.94847812494E+03 0.  0.
         13    1    3    3    0    0 -0.18769684574E+03  0.25348318920E+03 -0.75537377979E+03  0.81858010694E+03  0.10566000000E+00 0. -1.
         -4    1    3    3    0  502 -0.28773190618E+02 -0.21527627939E+03  0.20599375093E+03  0.29934127411E+03  0.00000000000E+00 0. -1.
        -13    1    1    2    0    0  0.21647003635E+03 -0.38206909815E+02 -0.83856709820E+03  0.86689897563E+03  0.10566000000E+00 0.  1.
<mgrwt>
<rscale>  1 0.67112879E+03</rscale>
<asrwt>0</asrwt>
<pdfrwt beam="1">  1       21 0.45913326E-01 0.97361686E+03</pdfrwt>
<pdfrwt beam="2">  1       -4 0.25944365E+00 0.97361686E+03</pdfrwt>
<totfact> 0.10021013E+01</totfact>
</mgrwt>
</event>
<event>
 6    2  0.2294477E-005  0.9996300E+03  0.7818608E-02  0.9883576E-01
         -4   -1    0    0    0  501 -0.00000000000E+00  0.00000000000E+00  0.17212215793E+04  0.17212215793E+04  0.00000000000E+00 0. -1.
         21   -1    0    0  501  502  0.00000000000E+00 -0.00000000000E+00 -0.22438832909E+03  0.22438832909E+03  0.00000000000E+00 0. -1.
   -9000010    2    1    2    0  502  0.97198082672E+02 -0.99636613135E+02  0.94186438358E+03  0.13734513849E+04  0.98989154334E+03 0.  0.
         13    1    3    3    0    0 -0.39201321339E+03 -0.16411351687E+03  0.71179103837E+03  0.82900790066E+03  0.10566000000E+00 0. -1.
         -4    1    3    3    0  502  0.48921129606E+03  0.64476903739E+02  0.23007334520E+03  0.54444348419E+03  0.00000000000E+00 0. -1.
        -13    1    1    2    0    0 -0.97198082672E+02  0.99636613135E+02  0.55496886660E+03  0.57215852350E+03  0.10566000000E+00 0.  1.
<mgrwt>
<rscale>  1 0.61063894E+03</rscale>
<asrwt>0</asrwt>
<pdfrwt beam="2">  1       21 0.34521283E-01 0.99963003E+03</pdfrwt>
<pdfrwt beam="1">  1       -4 0.26480331E+00 0.99963003E+03</pdfrwt>
<totfact> 0.16813457E+01</totfact>
</mgrwt>
</event>
<event>
 6    2  0.2294477E-005  0.1191343E+04  0.7818608E-02  0.9305934E-01
         21   -1    0    0  501  502  0.00000000000E+00  0.00000000000E+00  0.21482447915E+04  0.21482447915E+04  0.00000000000E+00 0. -1.
         -4   -1    0    0    0  501 -0.00000000000E+00 -0.00000000000E+00 -0.41462131818E+03  0.41462131818E+03  0.00000000000E+00 0. -1.
   -9000010    2    1    2    0  502 -0.59689754311E+03  0.14401104231E+02  0.15143613629E+04  0.19268079732E+04  0.10309241288E+04 0.  0.
         13    1    3    3    0    0 -0.48480595061E+02  0.46649891211E+03  0.73630884061E+03  0.87299617583E+03  0.10566000000E+00 0. -1.
         -4    1    3    3    0  502 -0.54841694805E+03 -0.45209780788E+03  0.77805252229E+03  0.10538117973E+04  0.00000000000E+00 0. -1.
        -13    1    1    2    0    0  0.59689754311E+03 -0.14401104231E+02  0.21926211042E+03  0.63605813649E+03  0.10566000000E+00 0.  1.
<mgrwt>
<rscale>  1 0.10023842E+04</rscale>
<asrwt>0</asrwt>
<pdfrwt beam="1">  1       21 0.33049919E+00 0.11913432E+04</pdfrwt>
<pdfrwt beam="2">  1       -4 0.63787896E-01 0.11913432E+04</pdfrwt>
<totfact> 0.14993810E+00</totfact>
</mgrwt>
</event>
<event>
 6    2  0.2294477E-005  0.1037149E+04  0.7818608E-02  0.9649559E-01
         -4   -1    0    0    0  501 -0.00000000000E+00  0.00000000000E+00  0.78492448349E+03  0.78492448349E+03  0.00000000000E+00 0. -1.
         21   -1    0    0  501  502  0.00000000000E+00 -0.00000000000E+00 -0.55760987871E+03  0.55760987871E+03  0.00000000000E+00 0. -1.
   -9000010    2    1    2    0  502 -0.19084500692E+03 -0.19135472261E+03  0.94612388072E+02  0.10414557412E+04  0.10013191851E+04 0.  0.
         13    1    3    3    0    0  0.15864583961E+03  0.33811894015E+03  0.15457401698E+03  0.40421041303E+03  0.10566000000E+00 0. -1.
         -4    1    3    3    0  502 -0.34949084653E+03 -0.52947366276E+03 -0.59961628906E+02  0.63724532819E+03  0.00000000000E+00 0. -1.
        -13    1    1    2    0    0  0.19084500692E+03  0.19135472261E+03  0.13270221670E+03  0.30107862098E+03  0.10566000000E+00 0.  1.
<mgrwt>
<rscale>  1 0.74101140E+03</rscale>
<asrwt>0</asrwt>
<pdfrwt beam="2">  1       21 0.85786135E-01 0.10371492E+04</pdfrwt>
<pdfrwt beam="1">  1       -4 0.12075761E+00 0.10371492E+04</pdfrwt>
<totfact> 0.23116224E+01</totfact>
</mgrwt>
</event>
<event>
 6    2  0.2294477E-005  0.1140284E+04  0.7818608E-02  0.9368460E-01
         -4   -1    0    0    0  501 -0.00000000000E+00  0.00000000000E+00  0.12566936754E+04  0.12566936754E+04  0.00000000000E+00 0. -1.
         21   -1    0    0  501  502  0.00000000000E+00 -0.00000000000E+00 -0.58574084234E+03  0.58574084234E+03  0.00000000000E+00 0. -1.
   -9000010    2    1    2    0  502 -0.52560790720E+03  0.13572617633E+03  0.61806089324E+03  0.12970146469E+04  0.10027773729E+04 0.  0.
         13    1    3    3    0    0  0.79462866998E+00  0.35837763589E+03 -0.10677207185E+03  0.37394578195E+03  0.10566000000E+00 0. -1.
         -4    1    3    3    0  502 -0.52640253587E+03 -0.22265145957E+03  0.72483296509E+03  0.92306886498E+03  0.00000000000E+00 0. -1.
        -13    1    1    2    0    0  0.52560790720E+03 -0.13572617633E+03  0.52891939867E+02  0.54541987085E+03  0.10566000000E+00 0.  1.
<mgrwt>
<rscale>  1 0.94717374E+03</rscale>
<asrwt>0</asrwt>
<pdfrwt beam="2">  1       21 0.90113976E-01 0.11402841E+04</pdfrwt>
<pdfrwt beam="1">  1       -4 0.19333749E+00 0.11402841E+04</pdfrwt>
<totfact> 0.56294552E+00</totfact>
</mgrwt>
</event>
<event>
 6    2  0.2294477E-005  0.1014023E+04  0.7818608E-02  0.9609492E-01
         -4   -1    0    0    0  501 -0.00000000000E+00  0.00000000000E+00  0.90724381678E+03  0.90724381678E+03  0.00000000000E+00 0. -1.
         21   -1    0    0  501  502  0.00000000000E+00 -0.00000000000E+00 -0.58251225969E+03  0.58251225969E+03  0.00000000000E+00 0. -1.
   -9000010    2    1    2    0  502 -0.12518209586E+03 -0.30687289963E+03 -0.16376305457E+02  0.10141552788E+04  0.95833251670E+03 0.  0.
         13    1    3    3    0    0 -0.62863664171E+02  0.23298048201E+03 -0.31285192652E+03  0.39510515608E+03  0.10566000000E+00 0. -1.
         -4    1    3    3    0  502 -0.62318431692E+02 -0.53985338164E+03  0.29647562107E+03  0.61905012276E+03  0.00000000000E+00 0. -1.
        -13    1    1    2    0    0  0.12518209586E+03  0.30687289963E+03  0.34110786255E+03  0.47560079763E+03  0.10566000000E+00 0.  1.
<mgrwt>
<rscale>  1 0.76671101E+03</rscale>
<asrwt>0</asrwt>
<pdfrwt beam="2">  1       21 0.89617271E-01 0.10140231E+04</pdfrwt>
<pdfrwt beam="1">  1       -4 0.13957597E+00 0.10140231E+04</pdfrwt>
<totfact> 0.14374370E+01</totfact>
</mgrwt>
</event>
<event>
 6    2  0.2294477E-005  0.1081778E+04  0.7818608E-02  0.9484517E-01
         21   -1    0    0  501  502  0.00000000000E+00  0.00000000000E+00  0.11300028832E+04  0.11300028832E+04  0.00000000000E+00 0. -1.
         -4   -1    0    0    0  501 -0.00000000000E+00 -0.00000000000E+00 -0.71895447366E+03  0.71895447366E+03  0.00000000000E+00 0. -1.
   -9000010    2    1    2    0  502  0.27221022089E+03 -0.32096367394E+03  0.74349293524E+03  0.13126407916E+04  0.99655808589E+03 0.  0.
         13    1    3    3    0    0  0.28633911492E+03 -0.66724137517E+03  0.58073121311E+03  0.92975797631E+03  0.10566000000E+00 0. -1.
         -4    1    3    3    0  502 -0.14128894025E+02  0.34627770123E+03  0.16276172213E+03  0.38288281524E+03  0.00000000000E+00 0. -1.
        -13    1    1    2    0    0 -0.27221022089E+03  0.32096367394E+03 -0.33244452573E+03  0.53631656529E+03  0.10566000000E+00 0.  1.
<mgrwt>
<rscale>  1 0.85435020E+03</rscale>
<asrwt>0</asrwt>
<pdfrwt beam="1">  1       21 0.17384660E+00 0.10817782E+04</pdfrwt>
<pdfrwt beam="2">  1       -4 0.11060838E+00 0.10817782E+04</pdfrwt>
<totfact> 0.44534968E+00</totfact>
</mgrwt>
</event>
<event>
 6    2  0.2294477E-005  0.1083870E+04  0.7818608E-02  0.9506486E-01
         -4   -1    0    0    0  501 -0.00000000000E+00  0.00000000000E+00  0.36834271051E+03  0.36834271051E+03  0.00000000000E+00 0. -1.
         21   -1    0    0  501  502  0.00000000000E+00 -0.00000000000E+00 -0.15025299812E+04  0.15025299812E+04  0.00000000000E+00 0. -1.
   -9000010    2    1    2    0  502 -0.33375252173E+03 -0.19675648504E+03 -0.95262767439E+03  0.14430085096E+04  0.10122599531E+04 0.  0.
         13    1    3    3    0    0  0.24674456405E+03  0.23148229100E+03 -0.16997931783E+03  0.37862898805E+03  0.10566000000E+00 0. -1.
         -4    1    3    3    0  502 -0.58049708578E+03 -0.42823877604E+03 -0.78264835656E+03  0.10643795216E+04  0.00000000000E+00 0. -1.
        -13    1    1    2    0    0  0.33375252173E+03  0.19675648504E+03 -0.18155959635E+03  0.42786418214E+03  0.10566000000E+00 0.  1.
<mgrwt>
<rscale>  1 0.83807304E+03</rscale>
<asrwt>0</asrwt>
<pdfrwt beam="2">  1       21 0.23115846E+00 0.10838700E+04</pdfrwt>
<pdfrwt beam="1">  1       -4 0.56668108E-01 0.10838700E+04</pdfrwt>
<totfact> 0.83603945E+00</totfact>
</mgrwt>
</event>
<event>
 6    2  0.2294477E-005  0.1032685E+04  0.7818608E-02  0.1019462E+00
         -4   -1    0    0    0  501 -0.00000000000E+00  0.00000000000E+00  0.28179509806E+04  0.28179509806E+04  0.00000000000E+00 0. -1.
         21   -1    0    0  501  502  0.00000000000E+00 -0.00000000000E+00 -0.10356546624E+03  0.10356546624E+03  0.00000000000E+00 0. -1.
   -9000010    2    1    2    0  502 -0.50130756323E+01  0.47462795221E+02  0.25894413615E+04  0.27877670530E+04  0.10315816639E+04 0.  0.
         13    1    3    3    0    0 -0.25293786463E+03 -0.30726277996E+02  0.83138313536E+02  0.26801801780E+03  0.10566000000E+00 0. -1.
         -4    1    3    3    0  502  0.24792478899E+03  0.78189073216E+02  0.25063030480E+04  0.25197490352E+04  0.00000000000E+00 0. -1.
        -13    1    1    2    0    0  0.50130756323E+01 -0.47462795221E+02  0.12494415286E+03  0.13374939386E+03  0.10566000000E+00 0.  1.
<mgrwt>
<rscale>  1 0.47881395E+03</rscale>
<asrwt>0</asrwt>
<pdfrwt beam="2">  1       21 0.15933151E-01 0.10326851E+04</pdfrwt>
<pdfrwt beam="1">  1       -4 0.43353086E+00 0.10326851E+04</pdfrwt>
<totfact> 0.60144318E+00</totfact>
</mgrwt>
</event>
<event>
 6    2  0.2294477E-005  0.1002996E+04  0.7818608E-02  0.1011757E+00
         -4   -1    0    0    0  501 -0.00000000000E+00  0.00000000000E+00  0.29686789464E+03  0.29686789464E+03  0.00000000000E+00 0. -1.
         21   -1    0    0  501  502  0.00000000000E+00 -0.00000000000E+00 -0.97676446350E+03  0.97676446350E+03  0.00000000000E+00 0. -1.
   -9000010    2    1    2    0  502 -0.56832395544E+02  0.33379228482E+02 -0.59516900392E+03  0.11662877472E+04  0.10008280931E+04 0.  0.
         13    1    3    3    0    0 -0.18287649978E+03 -0.12612910776E+03 -0.82794619553E+03  0.85723233715E+03  0.10566000000E+00 0. -1.
         -4    1    3    3    0  502  0.12604410423E+03  0.15950833624E+03  0.23277719161E+03  0.30905541004E+03  0.00000000000E+00 0. -1.
        -13    1    1    2    0    0  0.56832395544E+02 -0.33379228482E+02 -0.84727564938E+02  0.10734461096E+03  0.10566000000E+00 0.  1.
<mgrwt>
<rscale>  1 0.50782257E+03</rscale>
<asrwt>0</asrwt>
<pdfrwt beam="2">  1       21 0.15027146E+00 0.10029960E+04</pdfrwt>
<pdfrwt beam="1">  1       -4 0.45671984E-01 0.10029960E+04</pdfrwt>
<totfact> 0.50265975E+01</totfact>
</mgrwt>
</event>
<event>
 6    2  0.2294477E-005  0.1062273E+04  0.7818608E-02  0.9571361E-01
         21   -1    0    0  501  502  0.00000000000E+00  0.00000000000E+00  0.10197613435E+04  0.10197613435E+04  0.00000000000E+00 0. -1.
         -4   -1    0    0    0  501 -0.00000000000E+00 -0.00000000000E+00 -0.51675806388E+03  0.51675806388E+03  0.00000000000E+00 0. -1.
   -9000010    2    1    2    0  502  0.32185178608E+03 -0.66198990251E+02  0.56338941889E+03  0.12024275406E+04  0.10101749722E+04 0.  0.
         13    1    3    3    0    0 -0.18411152999E+03  0.94433707017E+02 -0.18992114653E+03  0.28086443983E+03  0.10566000000E+00 0. -1.
         -4    1    3    3    0  502  0.50596331607E+03 -0.16063269727E+03  0.75331056543E+03  0.92156310073E+03  0.00000000000E+00 0. -1.
        -13    1    1    2    0    0 -0.32185178608E+03  0.66198990251E+02 -0.60386139247E+02  0.33409186684E+03  0.10566000000E+00 0.  1.
<mgrwt>
<rscale>  1 0.79221034E+03</rscale>
<asrwt>0</asrwt>
<pdfrwt beam="1">  1       21 0.15688636E+00 0.10622732E+04</pdfrwt>
<pdfrwt beam="2">  1       -4 0.79501241E-01 0.10622732E+04</pdfrwt>
<totfact> 0.13196359E+01</totfact>
</mgrwt>
</event>
<event>
 6    2  0.2294477E-005  0.1044009E+04  0.7818608E-02  0.9622146E-01
         -4   -1    0    0    0  501 -0.00000000000E+00  0.00000000000E+00  0.20571784168E+04  0.20571784168E+04  0.00000000000E+00 0. -1.
         21   -1    0    0  501  502  0.00000000000E+00 -0.00000000000E+00 -0.22177583652E+03  0.22177583652E+03  0.00000000000E+00 0. -1.
   -9000010    2    1    2    0  502  0.22504935523E+03  0.18423102018E+03  0.12778839452E+04  0.16501336742E+04  0.10026791532E+04 0.  0.
         13    1    3    3    0    0  0.31669753767E+03 -0.31349064203E+03  0.26658389492E+03  0.51926938789E+03  0.10566000000E+00 0. -1.
         -4    1    3    3    0  502 -0.91648182442E+02  0.49772166220E+03  0.10113000503E+04  0.11308642863E+04  0.00000000000E+00 0. -1.
        -13    1    1    2    0    0 -0.22504935523E+03 -0.18423102018E+03  0.55751863505E+03  0.62882057908E+03  0.10566000000E+00 0.  1.
<mgrwt>
<rscale>  1 0.75847594E+03</rscale>
<asrwt>0</asrwt>
<pdfrwt beam="2">  1       21 0.34119361E-01 0.10440085E+04</pdfrwt>
<pdfrwt beam="1">  1       -4 0.31648897E+00 0.10440085E+04</pdfrwt>
<totfact> 0.82039881E+00</totfact>
</mgrwt>
</event>
<event>
 6    2  0.2294477E-005  0.1074186E+04  0.7818608E-02  0.9516118E-01
         -4   -1    0    0    0  501 -0.00000000000E+00  0.00000000000E+00  0.22195039811E+04  0.22195039811E+04  0.00000000000E+00 0. -1.
         21   -1    0    0  501  502  0.00000000000E+00 -0.00000000000E+00 -0.89074798867E+03  0.89074798867E+03  0.00000000000E+00 0. -1.
   -9000010    2    1    2    0  502  0.25192835001E+03  0.29092961330E+03 -0.54000062616E+03  0.12022794217E+04  0.10028794535E+04 0.  0.
         13    1    3    3    0    0  0.14039893973E+03  0.14521596040E+03 -0.83268291455E+03  0.85683159651E+03  0.10566000000E+00 0. -1.
         -4    1    3    3    0  502  0.11152941028E+03  0.14571365290E+03  0.29268228839E+03  0.34544782520E+03  0.00000000000E+00 0. -1.
        -13    1    1    2    0    0 -0.25192835001E+03 -0.29092961330E+03  0.18687566186E+04  0.19079725480E+04  0.10566000000E+00 0.  1.
<mgrwt>
<rscale>  1 0.83105899E+03</rscale>
<asrwt>0</asrwt>
<pdfrwt beam="2">  1       21 0.13703815E+00 0.10741858E+04</pdfrwt>
<pdfrwt beam="1">  1       -4 0.34146215E+00 0.10741858E+04</pdfrwt>
<totfact> 0.22702961E-01</totfact>
</mgrwt>
</event>
<event>
 6    2  0.2294477E-005  0.1189791E+04  0.7818608E-02  0.9276869E-01
         -4   -1    0    0    0  501 -0.00000000000E+00  0.00000000000E+00  0.83664574002E+03  0.83664574002E+03  0.00000000000E+00 0. -1.
         21   -1    0    0  501  502  0.00000000000E+00 -0.00000000000E+00 -0.10370012218E+04  0.10370012218E+04  0.00000000000E+00 0. -1.
   -9000010    2    1    2    0  502  0.30663475657E+02  0.66599920744E+03 -0.53694508357E+02  0.11910016327E+04  0.98544740900E+03 0.  0.
         13    1    3    3    0    0 -0.46425424161E+03  0.39230244848E+03  0.70756656187E+02  0.61191480411E+03  0.10566000000E+00 0. -1.
         -4    1    3    3    0  502  0.49491771727E+03  0.27369675896E+03 -0.12445116454E+03  0.57908682863E+03  0.00000000000E+00 0. -1.
        -13    1    1    2    0    0 -0.30663475657E+02 -0.66599920744E+03 -0.14666097344E+03  0.68264532910E+03  0.10566000000E+00 0.  1.
<mgrwt>
<rscale>  1 0.10294052E+04</rscale>
<asrwt>0</asrwt>
<pdfrwt beam="2">  1       21 0.15953865E+00 0.11897906E+04</pdfrwt>
<pdfrwt beam="1">  1       -4 0.12871473E+00 0.11897906E+04</pdfrwt>
<totfact> 0.38541939E+00</totfact>
</mgrwt>
</event>
<event>
 6    2  0.2294477E-005  0.1011140E+04  0.7818608E-02  0.9654880E-01
         21   -1    0    0  501  502  0.00000000000E+00  0.00000000000E+00  0.44467947369E+03  0.44467947369E+03  0.00000000000E+00 0. -1.
         -4   -1    0    0    0  501 -0.00000000000E+00 -0.00000000000E+00 -0.98712849331E+03  0.98712849331E+03  0.00000000000E+00 0. -1.
   -9000010    2    1    2    0  502 -0.28540384069E+03  0.24359943318E+02 -0.29502689684E+03  0.10533023830E+04  0.96971969200E+03 0.  0.
         13    1    3    3    0    0 -0.15130633029E+03  0.36572788504E+03  0.19500242942E+03  0.44122154314E+03  0.10566000000E+00 0. -1.
         -4    1    3    3    0  502 -0.13409751040E+03 -0.34136794172E+03 -0.49002932626E+03  0.61208083986E+03  0.00000000000E+00 0. -1.
        -13    1    1    2    0    0  0.28540384069E+03 -0.24359943318E+02 -0.24742212278E+03  0.37850558401E+03  0.10566000000E+00 0.  1.
<mgrwt>
<rscale>  1 0.73767935E+03</rscale>
<asrwt>0</asrwt>
<pdfrwt beam="1">  1       21 0.68412227E-01 0.10111405E+04</pdfrwt>
<pdfrwt beam="2">  1       -4 0.15186592E+00 0.10111405E+04</pdfrwt>
<totfact> 0.21629658E+01</totfact>
</mgrwt>
</event>
<event>
 6    2  0.2294477E-005  0.1008586E+04  0.7818608E-02  0.9791081E-01
         -4   -1    0    0    0  501 -0.00000000000E+00  0.00000000000E+00  0.21470910938E+04  0.21470910938E+04  0.00000000000E+00 0. -1.
         21   -1    0    0  501  502  0.00000000000E+00 -0.00000000000E+00 -0.19906784246E+03  0.19906784246E+03  0.00000000000E+00 0. -1.
   -9000010    2    1    2    0  502 -0.82442609243E+02 -0.16359401699E+03  0.11601507550E+04  0.15372690378E+04  0.99180972670E+03 0.  0.
         13    1    3    3    0    0 -0.34296449817E+03 -0.48444279746E+03  0.63927917997E+03  0.87234589019E+03  0.10566000000E+00 0. -1.
         -4    1    3    3    0  502  0.26052188893E+03  0.32084878047E+03  0.52087157503E+03  0.66492314760E+03  0.00000000000E+00 0. -1.
        -13    1    1    2    0    0  0.82442609243E+02  0.16359401699E+03  0.78787249630E+03  0.80888989844E+03  0.10566000000E+00 0.  1.
<mgrwt>
<rscale>  1 0.65843395E+03</rscale>
<asrwt>0</asrwt>
<pdfrwt beam="2">  1       21 0.30625823E-01 0.10085863E+04</pdfrwt>
<pdfrwt beam="1">  1       -4 0.33032169E+00 0.10085863E+04</pdfrwt>
<totfact> 0.84040955E+00</totfact>
</mgrwt>
</event>
<event>
 6    2  0.2294477E-005  0.1028896E+04  0.7818608E-02  0.9681109E-01
         -4   -1    0    0    0  501 -0.00000000000E+00  0.00000000000E+00  0.10489682501E+04  0.10489682501E+04  0.00000000000E+00 0. -1.
         21   -1    0    0  501  502  0.00000000000E+00 -0.00000000000E+00 -0.41195725007E+03  0.41195725007E+03  0.00000000000E+00 0. -1.
   -9000010    2    1    2    0  502 -0.23697049333E+03 -0.75893994607E+02  0.64069402454E+03  0.12120711473E+04  0.99835500690E+03 0.  0.
         13    1    3    3    0    0  0.71601470936E+00  0.40099905341E+03  0.53540685351E+03  0.66892545434E+03  0.10566000000E+00 0. -1.
         -4    1    3    3    0  502 -0.23768650804E+03 -0.47689304801E+03  0.10528717102E+03  0.54314569292E+03  0.00000000000E+00 0. -1.
        -13    1    1    2    0    0  0.23697049333E+03  0.75893994607E+02 -0.36830245196E+01  0.24885435291E+03  0.10566000000E+00 0.  1.
<mgrwt>
<rscale>  1 0.72152799E+03</rscale>
<asrwt>0</asrwt>
<pdfrwt beam="2">  1       21 0.63378039E-01 0.10288963E+04</pdfrwt>
<pdfrwt beam="1">  1       -4 0.16137973E+00 0.10288963E+04</pdfrwt>
<totfact> 0.21751971E+01</totfact>
</mgrwt>
</event>
<event>
 6    2  0.2294477E-005  0.1084927E+04  0.7818608E-02  0.9450546E-01
         -4   -1    0    0    0  501 -0.00000000000E+00  0.00000000000E+00  0.17889674493E+04  0.17889674493E+04  0.00000000000E+00 0. -1.
         21   -1    0    0  501  502  0.00000000000E+00 -0.00000000000E+00 -0.33798381700E+03  0.33798381700E+03  0.00000000000E+00 0.  1.
   -9000010    2    1    2    0  502 -0.35652629943E+03  0.30662643281E+03  0.10140155358E+04  0.14850229993E+04  0.97771930024E+03 0.  0.
         13    1    3    3    0    0 -0.42961617992E+03  0.26562257072E+03  0.11885425709E+04  0.12914173865E+04  0.10566000000E+00 0. -1.
         -4    1    3    3    0  502  0.73089880483E+02  0.41003862096E+02 -0.17452703508E+03  0.19360561280E+03  0.00000000000E+00 0. -1.
        -13    1    1    2    0    0  0.35652629943E+03 -0.30662643281E+03  0.43696809649E+03  0.64192826702E+03  0.10566000000E+00 0.  1.
<mgrwt>
<rscale>  1 0.88030158E+03</rscale>
<asrwt>0</asrwt>
<pdfrwt beam="2">  1       21 0.51997511E-01 0.10849266E+04</pdfrwt>
<pdfrwt beam="1">  1       -4 0.27522576E+00 0.10849266E+04</pdfrwt>
<totfact> 0.60407893E+00</totfact>
</mgrwt>
</event>
<event>
 6    2  0.2294477E-005  0.1085453E+04  0.7818608E-02  0.9445450E-01
         -4   -1    0    0    0  501 -0.00000000000E+00  0.00000000000E+00  0.67156882963E+03  0.67156882963E+03  0.00000000000E+00 0. -1.
         21   -1    0    0  501  502  0.00000000000E+00 -0.00000000000E+00 -0.10828889467E+04  0.10828889467E+04  0.00000000000E+00 0. -1.
   -9000010    2    1    2    0  502  0.19205936831E+03  0.43783376542E+03 -0.60026236015E+03  0.12403718016E+04  0.97448555560E+03 0.  0.
         13    1    3    3    0    0  0.14429778229E+03 -0.30068528273E+03 -0.10412658302E+03  0.34939353983E+03  0.10566000000E+00 0. -1.
         -4    1    3    3    0  502  0.47761586019E+02  0.73851904814E+03 -0.49613577713E+03  0.89097826176E+03  0.00000000000E+00 0. -1.
        -13    1    1    2    0    0 -0.19205936831E+03 -0.43783376542E+03  0.18894224304E+03  0.51408597478E+03  0.10566000000E+00 0.  1.
<mgrwt>
<rscale>  1 0.88427869E+03</rscale>
<asrwt>0</asrwt>
<pdfrwt beam="2">  1       21 0.16659830E+00 0.10854526E+04</pdfrwt>
<pdfrwt beam="1">  1       -4 0.10331828E+00 0.10854526E+04</pdfrwt>
<totfact> 0.59625322E+00</totfact>
</mgrwt>
</event>
<event>
 6    2  0.2294477E-005  0.9554837E+03  0.7818608E-02  0.9685099E-01
         -4   -1    0    0    0  501 -0.00000000000E+00  0.00000000000E+00  0.34215275579E+03  0.34215275579E+03  0.00000000000E+00 0. -1.
         21   -1    0    0  501  502  0.00000000000E+00 -0.00000000000E+00 -0.15154917911E+04  0.15154917911E+04  0.00000000000E+00 0. -1.
   -9000010    2    1    2    0  502  0.26133740599E+03  0.16024807249E+03 -0.12177824755E+04  0.15478834856E+04  0.90497096245E+03 0.  0.
         13    1    3    3    0    0  0.14414017142E+02  0.50758231714E+03 -0.49693752669E+03  0.71048890854E+03  0.10566000000E+00 0. -1.
         -4    1    3    3    0  502  0.24692338885E+03 -0.34733424465E+03 -0.72084494886E+03  0.83739457710E+03  0.00000000000E+00 0. -1.
        -13    1    1    2    0    0 -0.26133740599E+03 -0.16024807249E+03  0.44443440248E+02  0.30976106123E+03  0.10566000000E+00 0.  1.
<mgrwt>
<rscale>  1 0.71910944E+03</rscale>
<asrwt>0</asrwt>
<pdfrwt beam="2">  1       21 0.23315258E+00 0.95548371E+03</pdfrwt>
<pdfrwt beam="1">  1       -4 0.52638886E-01 0.95548371E+03</pdfrwt>
<totfact> 0.96823869E+00</totfact>
</mgrwt>
</event>
<event>
 6    2  0.2294477E-005  0.1018431E+04  0.7818608E-02  0.9734331E-01
         21   -1    0    0  501  502  0.00000000000E+00  0.00000000000E+00  0.73888532127E+03  0.73888532127E+03  0.00000000000E+00 0. -1.
         -4   -1    0    0    0  501 -0.00000000000E+00 -0.00000000000E+00 -0.92303621312E+03  0.92303621312E+03  0.00000000000E+00 0. -1.
   -9000010    2    1    2    0  502 -0.13363472431E+03 -0.16803911249E+03  0.35743377866E+03  0.10793330438E+04  0.99554283204E+03 0.  0.
         13    1    3    3    0    0 -0.33474911543E+03  0.32950929104E+03  0.84493658104E+02  0.47725520698E+03  0.10566000000E+00 0. -1.
         -4    1    3    3    0  502  0.20111439112E+03 -0.49754840353E+03  0.27294012056E+03  0.60207783681E+03  0.00000000000E+00 0. -1.
        -13    1    1    2    0    0  0.13363472431E+03  0.16803911249E+03 -0.54158467052E+03  0.58258849060E+03  0.10566000000E+00 0.  1.
<mgrwt>
<rscale>  1 0.69009007E+03</rscale>
<asrwt>0</asrwt>
<pdfrwt beam="1">  1       21 0.11367467E+00 0.10184306E+04</pdfrwt>
<pdfrwt beam="2">  1       -4 0.14200557E+00 0.10184306E+04</pdfrwt>
<totfact> 0.76037199E+00</totfact>
</mgrwt>
</event>
<event>
 6    2  0.2294477E-005  0.1011674E+04  0.7818608E-02  0.1005906E+00
         21   -1    0    0  501  502  0.00000000000E+00  0.00000000000E+00  0.31154165368E+03  0.31154165368E+03  0.00000000000E+00 0. -1.
         -4   -1    0    0    0  501 -0.00000000000E+00 -0.00000000000E+00 -0.10819066744E+04  0.10819066744E+04  0.00000000000E+00 0. -1.
   -9000010    2    1    2    0  502  0.44885019142E+02  0.62542322492E+02 -0.53213353318E+03  0.11430876685E+04  0.10087403599E+04 0.  0.
         13    1    3    3    0    0 -0.24189631777E+03  0.16749359520E+03 -0.72463939420E+03  0.78209346997E+03  0.10566000000E+00 0. -1.
         -4    1    3    3    0  502  0.28678133691E+03 -0.10495127271E+03  0.19250586101E+03  0.36099419852E+03  0.00000000000E+00 0. -1.
        -13    1    1    2    0    0 -0.44885019142E+02 -0.62542322492E+02 -0.23823148750E+03  0.25036065954E+03  0.10566000000E+00 0.  1.
<mgrwt>
<rscale>  1 0.53134610E+03</rscale>
<asrwt>0</asrwt>
<pdfrwt beam="1">  1       21 0.47929486E-01 0.10116735E+04</pdfrwt>
<pdfrwt beam="2">  1       -4 0.16644718E+00 0.10116735E+04</pdfrwt>
<totfact> 0.36947025E+01</totfact>
</mgrwt>
</event>
<event>
 6    2  0.2294477E-005  0.1045358E+04  0.7818608E-02  0.9585548E-01
         21   -1    0    0  501  502  0.00000000000E+00  0.00000000000E+00  0.87893493799E+03  0.87893493799E+03  0.00000000000E+00 0. -1.
         -4   -1    0    0    0  501 -0.00000000000E+00 -0.00000000000E+00 -0.67483661379E+03  0.67483661379E+03  0.00000000000E+00 0. -1.
   -9000010    2    1    2    0  502 -0.47251284650E+01 -0.32833843797E+03 -0.16659836647E+03  0.10585498799E+04  0.99244363859E+03 0.  0.
         13    1    3    3    0    0 -0.48696306075E+03 -0.20813801053E+03  0.13991268441E+02  0.52976430676E+03  0.10566000000E+00 0. -1.
         -4    1    3    3    0  502  0.48223793228E+03 -0.12020042744E+03 -0.18058963492E+03  0.52878557311E+03  0.00000000000E+00 0. -1.
        -13    1    1    2    0    0  0.47251284650E+01  0.32833843797E+03  0.37069669068E+03  0.49522167191E+03  0.10566000000E+00 0.  1.
<mgrwt>
<rscale>  1 0.78260108E+03</rscale>
<asrwt>0</asrwt>
<pdfrwt beam="1">  1       21 0.13522076E+00 0.10453578E+04</pdfrwt>
<pdfrwt beam="2">  1       -4 0.10382102E+00 0.10453578E+04</pdfrwt>
<totfact> 0.10614838E+01</totfact>
</mgrwt>
</event>
<event>
 6    2  0.2294477E-005  0.1008044E+04  0.7818608E-02  0.9684053E-01
         21   -1    0    0  501  502  0.00000000000E+00  0.00000000000E+00  0.47583466668E+03  0.47583466668E+03  0.00000000000E+00 0.  1.
         -4   -1    0    0    0  501 -0.00000000000E+00 -0.00000000000E+00 -0.95575122579E+03  0.95575122579E+03  0.00000000000E+00 0. -1.
   -9000010    2    1    2    0  502  0.23646222403E+03 -0.11278297705E+03 -0.56568714726E+03  0.11559212624E+04  0.97340517413E+03 0.  0.
         13    1    3    3    0    0  0.57960262990E+03 -0.25842563678E+03 -0.33592413492E+03  0.71803067756E+03  0.10566000000E+00 0. -1.
         -4    1    3    3    0  502 -0.34314040586E+03  0.14564265973E+03 -0.22976301233E+03  0.43789058485E+03  0.00000000000E+00 0. -1.
        -13    1    1    2    0    0 -0.23646222403E+03  0.11278297705E+03  0.85770588144E+02  0.27566463005E+03  0.10566000000E+00 0.  1.
<mgrwt>
<rscale>  1 0.71974273E+03</rscale>
<asrwt>0</asrwt>
<pdfrwt beam="1">  1       21 0.73205334E-01 0.10080437E+04</pdfrwt>
<pdfrwt beam="2">  1       -4 0.14703865E+00 0.10080437E+04</pdfrwt>
<totfact> 0.20195495E+01</totfact>
</mgrwt>
</event>
<event>
 6    2  0.2294477E-005  0.1042622E+04  0.7818608E-02  0.9619564E-01
         21   -1    0    0  501  502  0.00000000000E+00  0.00000000000E+00  0.11816414581E+04  0.11816414581E+04  0.00000000000E+00 0.  1.
         -4   -1    0    0    0  501 -0.00000000000E+00 -0.00000000000E+00 -0.38698977821E+03  0.38698977821E+03  0.00000000000E+00 0. -1.
   -9000010    2    1    2    0  502 -0.27937473215E+03  0.93433673452E+02  0.71244915451E+03  0.12627924575E+04  0.10001404404E+04 0.  0.
         13    1    3    3    0    0  0.13470579483E+03 -0.32671369700E+03  0.21170103114E+02  0.35402778902E+03  0.10566000000E+00 0. -1.
         -4    1    3    3    0  502 -0.41408052698E+03  0.42014737045E+03  0.69127905140E+03  0.90876466845E+03  0.00000000000E+00 0. -1.
        -13    1    1    2    0    0  0.27937473215E+03 -0.93433673452E+02  0.82202525361E+02  0.30583877883E+03  0.10566000000E+00 0.  1.
<mgrwt>
<rscale>  1 0.76014727E+03</rscale>
<asrwt>0</asrwt>
<pdfrwt beam="1">  1       21 0.18179099E+00 0.10426222E+04</pdfrwt>
<pdfrwt beam="2">  1       -4 0.59536889E-01 0.10426222E+04</pdfrwt>
<totfact> 0.16391602E+01</totfact>
</mgrwt>
</event>
<event>
 6    2  0.2294477E-005  0.1032773E+04  0.7818608E-02  0.9657063E-01
         21   -1    0    0  501  502  0.00000000000E+00  0.00000000000E+00  0.35106375049E+03  0.35106375049E+03  0.00000000000E+00 0. -1.
         -4   -1    0    0    0  501 -0.00000000000E+00 -0.00000000000E+00 -0.13208902899E+04  0.13208902899E+04  0.00000000000E+00 0. -1.
   -9000010    2    1    2    0  502  0.17385288114E+03 -0.20242856328E+03 -0.53842803836E+03  0.11646998385E+04  0.99770677742E+03 0.  0.
         13    1    3    3    0    0 -0.32495129445E+03  0.16277978048E+03 -0.38144798002E+03  0.52687111642E+03  0.10566000000E+00 0. -1.
         -4    1    3    3    0  502  0.49880417559E+03 -0.36520834375E+03 -0.15698005834E+03  0.63782872203E+03  0.00000000000E+00 0. -1.
        -13    1    1    2    0    0 -0.17385288114E+03  0.20242856328E+03 -0.43139850111E+03  0.50725420198E+03  0.10566000000E+00 0.  1.
<mgrwt>
<rscale>  1 0.73631803E+03</rscale>
<asrwt>0</asrwt>
<pdfrwt beam="1">  1       21 0.54009807E-01 0.10327734E+04</pdfrwt>
<pdfrwt beam="2">  1       -4 0.20321389E+00 0.10327734E+04</pdfrwt>
<totfact> 0.15868720E+01</totfact>
</mgrwt>
</event>
<event>
 6    2  0.2294477E-005  0.1210234E+04  0.7818608E-02  0.9277360E-01
         21   -1    0    0  501  502  0.00000000000E+00  0.00000000000E+00  0.11470536447E+04  0.11470536447E+04  0.00000000000E+00 0.  1.
         -4   -1    0    0    0  501 -0.00000000000E+00 -0.00000000000E+00 -0.89472100164E+03  0.89472100164E+03  0.00000000000E+00 0. -1.
   -9000010    2    1    2    0  502  0.16950733498E+03 -0.60920311983E+03 -0.24805613983E+03  0.12353937667E+04  0.10318937603E+04 0.  0.
         13    1    3    3    0    0  0.48368452814E+03 -0.72758281494E+03 -0.15890444051E+03  0.88801920460E+03  0.10566000000E+00 0. -1.
         -4    1    3    3    0  502 -0.31417719316E+03  0.11837969511E+03 -0.89151699325E+02  0.34737456212E+03  0.00000000000E+00 0. -1.
        -13    1    1    2    0    0 -0.16950733498E+03  0.60920311983E+03  0.50038878292E+03  0.80638087965E+03  0.10566000000E+00 0.  1.
<mgrwt>
<rscale>  1 0.10289415E+04</rscale>
<asrwt>0</asrwt>
<pdfrwt beam="1">  1       21 0.17646979E+00 0.12102338E+04</pdfrwt>
<pdfrwt beam="2">  1       -4 0.13764938E+00 0.12102338E+04</pdfrwt>
<totfact> 0.24035836E+00</totfact>
</mgrwt>
</event>
<event>
 6    2  0.2294477E-005  0.1228281E+04  0.7818608E-02  0.9256318E-01
         21   -1    0    0  501  502  0.00000000000E+00  0.00000000000E+00  0.36579023182E+03  0.36579023182E+03  0.00000000000E+00 0. -1.
         -4   -1    0    0    0  501 -0.00000000000E+00 -0.00000000000E+00 -0.24369114964E+04  0.24369114964E+04  0.00000000000E+00 0. -1.
   -9000010    2    1    2    0  502 -0.42873774072E+03 -0.49331714322E+03 -0.12397763048E+04  0.17451988642E+04  0.10399499678E+04 0.  0.
         13    1    3    3    0    0 -0.19727326346E+03  0.16948096825E+03 -0.95126255867E+03  0.98617493670E+03  0.10566000000E+00 0. -1.
         -4    1    3    3    0  502 -0.23146447726E+03 -0.66279811147E+03 -0.28851374613E+03  0.75902392749E+03  0.00000000000E+00 0. -1.
        -13    1    1    2    0    0  0.42873774072E+03  0.49331714322E+03 -0.83134495973E+03  0.10575028640E+04  0.10566000000E+00 0.  1.
<mgrwt>
<rscale>  1 0.10490576E+04</rscale>
<asrwt>0</asrwt>
<pdfrwt beam="1">  1       21 0.56275421E-01 0.12282808E+04</pdfrwt>
<pdfrwt beam="2">  1       -4 0.37490946E+00 0.12282808E+04</pdfrwt>
<totfact> 0.11557104E+00</totfact>
</mgrwt>
</event>
<event>
 6    2  0.2294477E-005  0.1033185E+04  0.7818608E-02  0.9676078E-01
         -4   -1    0    0    0  501 -0.00000000000E+00  0.00000000000E+00  0.83839176531E+03  0.83839176531E+03  0.00000000000E+00 0. -1.
         21   -1    0    0  501  502  0.00000000000E+00 -0.00000000000E+00 -0.53776750456E+03  0.53776750456E+03  0.00000000000E+00 0. -1.
   -9000010    2    1    2    0  502  0.13996891599E+03 -0.20707310309E+03  0.69149459292E+02  0.10354964419E+04  0.10024972150E+04 0.  0.
         13    1    3    3    0    0  0.29958182081E+03 -0.38968749746E+03  0.39409746122E+03  0.63001462930E+03  0.10566000000E+00 0. -1.
         -4    1    3    3    0  502 -0.15961290481E+03  0.18261439438E+03 -0.32494800192E+03  0.40548181263E+03  0.00000000000E+00 0. -1.
        -13    1    1    2    0    0 -0.13996891599E+03  0.20707310309E+03  0.23147480145E+03  0.34066282794E+03  0.10566000000E+00 0.  1.
<mgrwt>
<rscale>  1 0.72459112E+03</rscale>
<asrwt>0</asrwt>
<pdfrwt beam="2">  1       21 0.82733462E-01 0.10331850E+04</pdfrwt>
<pdfrwt beam="1">  1       -4 0.12898335E+00 0.10331850E+04</pdfrwt>
<totfact> 0.21313564E+01</totfact>
</mgrwt>
</event>
<event>
 6    2  0.2294477E-005  0.9958548E+03  0.7818608E-02  0.1002107E+00
         21   -1    0    0  501  502  0.00000000000E+00  0.00000000000E+00  0.31083203493E+04  0.31083203493E+04  0.00000000000E+00 0. -1.
         -4   -1    0    0    0  501 -0.00000000000E+00 -0.00000000000E+00 -0.31968796538E+03  0.31968796538E+03  0.00000000000E+00 0. -1.
   -9000010    2    1    2    0  502 -0.71022136584E+02 -0.56713996976E+02  0.30197192660E+04  0.31796904144E+04  0.99169857550E+03 0.  0.
         13    1    3    3    0    0 -0.46402878065E+03  0.14418488882E+03  0.21518624823E+04  0.22060426436E+04  0.10566000000E+00 0. -1.
         -4    1    3    3    0  502  0.39300664407E+03 -0.20089888579E+03  0.86785678369E+03  0.97364777081E+03  0.00000000000E+00 0. -1.
        -13    1    1    2    0    0  0.71022136584E+02  0.56713996976E+02 -0.23108688211E+03  0.24831790025E+03  0.10566000000E+00 0.  1.
<mgrwt>
<rscale>  1 0.54736076E+03</rscale>
<asrwt>0</asrwt>
<pdfrwt beam="1">  1       21 0.47820311E+00 0.99585475E+03</pdfrwt>
<pdfrwt beam="2">  1       -4 0.49182766E-01 0.99585475E+03</pdfrwt>
<totfact> 0.28777505E-01</totfact>
</mgrwt>
</event>
<event>
 6    2  0.2294477E-005  0.1007293E+04  0.7818608E-02  0.9844780E-01
         -4   -1    0    0    0  501 -0.00000000000E+00  0.00000000000E+00  0.72473133197E+03  0.72473133197E+03  0.00000000000E+00 0. -1.
         21   -1    0    0  501  502  0.00000000000E+00 -0.00000000000E+00 -0.47388997257E+03  0.47388997257E+03  0.00000000000E+00 0. -1.
   -9000010    2    1    2    0  502 -0.60643123806E+02 -0.14184848625E+03  0.16093854768E+03  0.10200684882E+04  0.99540942476E+03 0.  0.
         13    1    3    3    0    0  0.17999527555E+03  0.16718623553E+03 -0.31769932085E+03  0.40159980852E+03  0.10566000000E+00 0. -1.
         -4    1    3    3    0  502 -0.24063839935E+03 -0.30903472179E+03  0.47863786853E+03  0.61846867965E+03  0.00000000000E+00 0. -1.
        -13    1    1    2    0    0  0.60643123806E+02  0.14184848625E+03  0.89902811714E+02  0.17855281637E+03  0.10566000000E+00 0.  1.
<mgrwt>
<rscale>  1 0.63013799E+03</rscale>
<asrwt>0</asrwt>
<pdfrwt beam="2">  1       21 0.72906149E-01 0.10072927E+04</pdfrwt>
<pdfrwt beam="1">  1       -4 0.11149713E+00 0.10072927E+04</pdfrwt>
<totfact> 0.41428614E+01</totfact>
</mgrwt>
</event>
<event>
 6    2  0.2294477E-005  0.1007455E+04  0.7818608E-02  0.9630252E-01
         21   -1    0    0  501  502  0.00000000000E+00  0.00000000000E+00  0.28394515839E+03  0.28394515839E+03  0.00000000000E+00 0. -1.
         -4   -1    0    0    0  501 -0.00000000000E+00 -0.00000000000E+00 -0.26733648319E+04  0.26733648319E+04  0.00000000000E+00 0. -1.
   -9000010    2    1    2    0  502 -0.29410078024E+03  0.11239842780E+03 -0.67140027234E+03  0.12106791336E+04  0.95699371125E+03 0.  0.
         13    1    3    3    0    0 -0.37211282236E+03 -0.27768970064E+03 -0.66718562594E+03  0.81284450729E+03  0.10566000000E+00 0. -1.
         -4    1    3    3    0  502  0.78012042116E+02  0.39008812844E+03 -0.42146464015E+01  0.39783462633E+03  0.00000000000E+00 0. -1.
        -13    1    1    2    0    0  0.29410078024E+03 -0.11239842780E+03 -0.17180194011E+04  0.17466308566E+04  0.10566000000E+00 0.  1.
<mgrwt>
<rscale>  1 0.75325873E+03</rscale>
<asrwt>0</asrwt>
<pdfrwt beam="1">  1       21 0.43683871E-01 0.10074550E+04</pdfrwt>
<pdfrwt beam="2">  1       -4 0.41128689E+00 0.10074550E+04</pdfrwt>
<totfact> 0.11649801E+00</totfact>
</mgrwt>
</event>
<event>
 6    2  0.2294477E-005  0.9270361E+03  0.7818608E-02  0.1025710E+00
         21   -1    0    0  501  502  0.00000000000E+00  0.00000000000E+00  0.59131199421E+03  0.59131199421E+03  0.00000000000E+00 0. -1.
         -4   -1    0    0    0  501 -0.00000000000E+00 -0.00000000000E+00 -0.41425498967E+03  0.41425498967E+03  0.00000000000E+00 0. -1.
   -9000010    2    1    2    0  502 -0.40306321908E+02 -0.36917697637E+02  0.19635341047E+03  0.94760252554E+03  0.92542334562E+03 0.  0.
         13    1    3    3    0    0  0.27335904097E+02 -0.47875764300E+03  0.11734083351E+03  0.49368513727E+03  0.10566000000E+00 0. -1.
         -4    1    3    3    0  502 -0.67642226005E+02  0.44183994536E+03  0.79012576951E+02  0.45391738827E+03  0.00000000000E+00 0. -1.
        -13    1    1    2    0    0  0.40306321908E+02  0.36917697637E+02 -0.19296405928E+02  0.57964458337E+02  0.10566000000E+00 0.  1.
<mgrwt>
<rscale>  1 0.45681090E+03</rscale>
<asrwt>0</asrwt>
<pdfrwt beam="1">  1       21 0.90971076E-01 0.92703608E+03</pdfrwt>
<pdfrwt beam="2">  1       -4 0.63731537E-01 0.92703608E+03</pdfrwt>
<totfact> 0.90795702E+01</totfact>
</mgrwt>
</event>
<event>
 6    2  0.2294477E-005  0.1118318E+04  0.7818608E-02  0.9402030E-01
         -4   -1    0    0    0  501 -0.00000000000E+00  0.00000000000E+00  0.94411793539E+03  0.94411793539E+03  0.00000000000E+00 0. -1.
         21   -1    0    0  501  502  0.00000000000E+00 -0.00000000000E+00 -0.76088020937E+03  0.76088020937E+03  0.00000000000E+00 0.  1.
   -9000010    2    1    2    0  502  0.57280444585E+02  0.50696454989E+03 -0.97690187401E+02  0.11225768128E+04  0.99515889375E+03 0.  0.
         13    1    3    3    0    0  0.51849270390E+03  0.33402967464E+03  0.16305548236E+02  0.61698978079E+03  0.10566000000E+00 0. -1.
         -4    1    3    3    0  502 -0.46121225931E+03  0.17293487526E+03 -0.11399573564E+03  0.50558703204E+03  0.00000000000E+00 0. -1.
        -13    1    1    2    0    0 -0.57280444585E+02 -0.50696454989E+03  0.28092791342E+03  0.58242133193E+03  0.10566000000E+00 0.  1.
<mgrwt>
<rscale>  1 0.91908791E+03</rscale>
<asrwt>0</asrwt>
<pdfrwt beam="2">  1       21 0.11705849E+00 0.11183181E+04</pdfrwt>
<pdfrwt beam="1">  1       -4 0.14524891E+00 0.11183181E+04</pdfrwt>
<totfact> 0.65679950E+00</totfact>
</mgrwt>
</event>
<event>
 6    2  0.2294477E-005  0.1023139E+04  0.7818608E-02  0.9729337E-01
         -4   -1    0    0    0  501 -0.00000000000E+00  0.00000000000E+00  0.42844087655E+03  0.42844087655E+03  0.00000000000E+00 0. -1.
         21   -1    0    0  501  502  0.00000000000E+00 -0.00000000000E+00 -0.98218986047E+03  0.98218986047E+03  0.00000000000E+00 0. -1.
   -9000010    2    1    2    0  502  0.20942530768E+03  0.49951309650E+02 -0.60592291302E+03  0.11890991978E+04  0.10002300899E+04 0.  0.
         13    1    3    3    0    0  0.42961871009E+03 -0.30726385758E+03 -0.55537687818E+03  0.76643773538E+03  0.10566000000E+00 0. -1.
         -4    1    3    3    0  502 -0.22019340241E+03  0.35721516723E+03 -0.50546034838E+02  0.42266146240E+03  0.00000000000E+00 0. -1.
        -13    1    1    2    0    0 -0.20942530768E+03 -0.49951309650E+02  0.52173929100E+02  0.22153153923E+03  0.10566000000E+00 0.  1.
<mgrwt>
<rscale>  1 0.69296635E+03</rscale>
<asrwt>0</asrwt>
<pdfrwt beam="2">  1       21 0.15110613E+00 0.10231394E+04</pdfrwt>
<pdfrwt beam="1">  1       -4 0.65913981E-01 0.10231394E+04</pdfrwt>
<totfact> 0.22480315E+01</totfact>
</mgrwt>
</event>
<event>
 6    2  0.2294477E-005  0.1090133E+04  0.7818608E-02  0.9489610E-01
         -4   -1    0    0    0  501 -0.00000000000E+00  0.00000000000E+00  0.62943753647E+03  0.62943753647E+03  0.00000000000E+00 0. -1.
         21   -1    0    0  501  502  0.00000000000E+00 -0.00000000000E+00 -0.13732585308E+04  0.13732585308E+04  0.00000000000E+00 0. -1.
   -9000010    2    1    2    0  502 -0.30191792320E+03 -0.26839087242E+03 -0.10361970621E+04  0.15040259670E+04  0.10125224270E+04 0.  0.
         13    1    3    3    0    0 -0.65900986601E+02 -0.29751782991E+03 -0.11849640133E+04  0.12235193187E+04  0.10566000000E+00 0. -1.
         -4    1    3    3    0  502 -0.23601693660E+03  0.29126957494E+02  0.14876695120E+03  0.28050664838E+03  0.00000000000E+00 0. -1.
        -13    1    1    2    0    0  0.30191792320E+03  0.26839087242E+03  0.29237606774E+03  0.49867010026E+03  0.10566000000E+00 0.  1.
<mgrwt>
<rscale>  1 0.85054178E+03</rscale>
<asrwt>0</asrwt>
<pdfrwt beam="2">  1       21 0.21127054E+00 0.10901329E+04</pdfrwt>
<pdfrwt beam="1">  1       -4 0.96836545E-01 0.10901329E+04</pdfrwt>
<totfact> 0.33522334E+00</totfact>
</mgrwt>
</event>
<event>
 6    2  0.2294477E-005  0.1008759E+04  0.7818608E-02  0.9796547E-01
         21   -1    0    0  501  502  0.00000000000E+00  0.00000000000E+00  0.57727518136E+03  0.57727518136E+03  0.00000000000E+00 0. -1.
         -4   -1    0    0    0  501 -0.00000000000E+00 -0.00000000000E+00 -0.69682288902E+03  0.69682288902E+03  0.00000000000E+00 0. -1.
   -9000010    2    1    2    0  502 -0.16088249040E+03 -0.80364239464E+02  0.72041260158E+02  0.10113283414E+04  0.99259935740E+03 0.  0.
         13    1    3    3    0    0  0.15802661848E+03 -0.13510895495E+03 -0.39310823123E+03  0.44470319819E+03  0.10566000000E+00 0. -1.
         -4    1    3    3    0  502 -0.31890910888E+03  0.54744715488E+02  0.46514949139E+03  0.56662514323E+03  0.00000000000E+00 0. -1.
        -13    1    1    2    0    0  0.16088249040E+03  0.80364239464E+02 -0.19158896782E+03  0.26276972896E+03  0.10566000000E+00 0.  1.
<mgrwt>
<rscale>  1 0.65548206E+03</rscale>
<asrwt>0</asrwt>
<pdfrwt beam="1">  1       21 0.88811566E-01 0.10087592E+04</pdfrwt>
<pdfrwt beam="2">  1       -4 0.10720352E+00 0.10087592E+04</pdfrwt>
<totfact> 0.28653842E+01</totfact>
</mgrwt>
</event>
<event>
 6    2  0.2294477E-005  0.1096944E+04  0.7818608E-02  0.9454530E-01
         21   -1    0    0  501  502  0.00000000000E+00  0.00000000000E+00  0.18284535596E+04  0.18284535596E+04  0.00000000000E+00 0. -1.
         -4   -1    0    0    0  501 -0.00000000000E+00 -0.00000000000E+00 -0.43307728156E+03  0.43307728156E+03  0.00000000000E+00 0. -1.
   -9000010    2    1    2    0  502 -0.43593259503E+03 -0.10583774274E+03  0.14405619183E+04  0.18106643327E+04  0.10010233914E+04 0.  0.
         13    1    3    3    0    0 -0.32258749148E+03  0.71377131591E+02  0.15420882612E+04  0.15770838915E+04  0.10566000000E+00 0. -1.
         -4    1    3    3    0  502 -0.11334510355E+03 -0.17721487434E+03 -0.10152634289E+03  0.23358044114E+03  0.00000000000E+00 0. -1.
        -13    1    1    2    0    0  0.43593259503E+03  0.10583774274E+03 -0.45185640260E+02  0.45086650845E+03  0.10566000000E+00 0.  1.
<mgrwt>
<rscale>  1 0.87720763E+03</rscale>
<asrwt>0</asrwt>
<pdfrwt beam="1">  1       21 0.28130054E+00 0.10969442E+04</pdfrwt>
<pdfrwt beam="2">  1       -4 0.66627275E-01 0.10969442E+04</pdfrwt>
<totfact> 0.28099504E+00</totfact>
</mgrwt>
</event>
<event>
 6    2  0.2294477E-005  0.1012483E+04  0.7818608E-02  0.9659431E-01
         -4   -1    0    0    0  501 -0.00000000000E+00  0.00000000000E+00  0.34353749039E+03  0.34353749039E+03  0.00000000000E+00 0. -1.
         21   -1    0    0  501  502  0.00000000000E+00 -0.00000000000E+00 -0.13228700206E+04  0.13228700206E+04  0.00000000000E+00 0. -1.
   -9000010    2    1    2    0  502  0.27098187197E+03  0.74150217325E+02 -0.94212277503E+03  0.13830102514E+04  0.97272432000E+03 0.  0.
         13    1    3    3    0    0  0.16868346030E+03  0.22719723833E+03  0.11831675372E+03  0.30671087404E+03  0.10566000000E+00 0. -1.
         -4    1    3    3    0  502  0.10229841167E+03 -0.15304702100E+03 -0.10604395287E+04  0.10762993774E+04  0.00000000000E+00 0. -1.
        -13    1    1    2    0    0 -0.27098187197E+03 -0.74150217325E+02 -0.37209755171E+02  0.28339725953E+03  0.10566000000E+00 0.  1.
<mgrwt>
<rscale>  1 0.73484495E+03</rscale>
<asrwt>0</asrwt>
<pdfrwt beam="2">  1       21 0.20351847E+00 0.10124831E+04</pdfrwt>
<pdfrwt beam="1">  1       -4 0.52851920E-01 0.10124831E+04</pdfrwt>
<totfact> 0.14969747E+01</totfact>
</mgrwt>
</event>
<event>
 6    2  0.2294477E-005  0.9903321E+03  0.7818608E-02  0.1014069E+00
         21   -1    0    0  501  502  0.00000000000E+00  0.00000000000E+00  0.13257860984E+04  0.13257860984E+04  0.00000000000E+00 0. -1.
         -4   -1    0    0    0  501 -0.00000000000E+00 -0.00000000000E+00 -0.28034119520E+03  0.28034119520E+03  0.00000000000E+00 0. -1.
   -9000010    2    1    2    0  502 -0.53933881776E+02  0.34040830644E+02  0.11284915326E+04  0.15014162838E+04  0.98827631578E+03 0.  0.
         13    1    3    3    0    0 -0.24726034884E+03  0.26270137167E+03  0.11460272590E+04  0.12014691758E+04  0.10566000000E+00 0. -1.
         -4    1    3    3    0  502  0.19332646707E+03 -0.22866054103E+03 -0.17535726433E+02  0.29994710799E+03  0.00000000000E+00 0. -1.
        -13    1    1    2    0    0  0.53933881776E+02 -0.34040830644E+02 -0.83046629404E+02  0.10471100980E+03  0.10566000000E+00 0.  1.
<mgrwt>
<rscale>  1 0.49888866E+03</rscale>
<asrwt>0</asrwt>
<pdfrwt beam="1">  1       21 0.20396709E+00 0.99033213E+03</pdfrwt>
<pdfrwt beam="2">  1       -4 0.43129415E-01 0.99033213E+03</pdfrwt>
<totfact> 0.22825125E+01</totfact>
</mgrwt>
</event>
<event>
 6    2  0.2294477E-005  0.1049436E+04  0.7818608E-02  0.9578309E-01
         21   -1    0    0  501  502  0.00000000000E+00  0.00000000000E+00  0.40781524696E+03  0.40781524696E+03  0.00000000000E+00 0. -1.
         -4   -1    0    0    0  501 -0.00000000000E+00 -0.00000000000E+00 -0.12342881941E+04  0.12342881941E+04  0.00000000000E+00 0. -1.
   -9000010    2    1    2    0  502 -0.30459228232E+03 -0.13393807241E+03 -0.45624223833E+03  0.11443217072E+04  0.99528856308E+03 0.  0.
         13    1    3    3    0    0  0.66554490791E+02  0.19635818275E+03 -0.59366787774E+03  0.62883033992E+03  0.10566000000E+00 0. -1.
         -4    1    3    3    0  502 -0.37114677311E+03 -0.33029625516E+03  0.13742563940E+03  0.51549136726E+03  0.00000000000E+00 0. -1.
        -13    1    1    2    0    0  0.30459228232E+03  0.13393807241E+03 -0.37023070885E+03  0.49778173392E+03  0.10566000000E+00 0.  1.
<mgrwt>
<rscale>  1 0.78748647E+03</rscale>
<asrwt>0</asrwt>
<pdfrwt beam="1">  1       21 0.62740808E-01 0.10494357E+04</pdfrwt>
<pdfrwt beam="2">  1       -4 0.18989049E+00 0.10494357E+04</pdfrwt>
<totfact> 0.13945407E+01</totfact>
</mgrwt>
</event>
<event>
 6    2  0.2294477E-005  0.1320015E+04  0.7818608E-02  0.9126860E-01
         21   -1    0    0  501  502  0.00000000000E+00  0.00000000000E+00  0.91275280884E+03  0.91275280884E+03  0.00000000000E+00 0.  1.
         -4   -1    0    0    0  501 -0.00000000000E+00 -0.00000000000E+00 -0.13629587934E+04  0.13629587934E+04  0.00000000000E+00 0. -1.
   -9000010    2    1    2    0  502 -0.67139196601E+03 -0.52907160635E+03 -0.51847913660E+03  0.14181889080E+04  0.10058604411E+04 0.  0.
         13    1    3    3    0    0 -0.67051570016E+03 -0.65814737451E+02  0.60773907136E+02  0.67647347529E+03  0.10566000000E+00 0. -1.
         -4    1    3    3    0  502 -0.87626585425E+00 -0.46325686890E+03 -0.57925304374E+03  0.74171543270E+03  0.00000000000E+00 0. -1.
        -13    1    1    2    0    0  0.67139196601E+03  0.52907160635E+03  0.68273152055E+02  0.85752269423E+03  0.10566000000E+00 0.  1.
<mgrwt>
<rscale>  1 0.11841327E+04</rscale>
<asrwt>0</asrwt>
<pdfrwt beam="1">  1       21 0.14042351E+00 0.13200148E+04</pdfrwt>
<pdfrwt beam="2">  1       -4 0.20968597E+00 0.13200148E+04</pdfrwt>
<totfact> 0.13732248E+00</totfact>
</mgrwt>
</event>
<event>
 6    2  0.2294477E-005  0.1007777E+04  0.7818608E-02  0.1008078E+00
         21   -1    0    0  501  502  0.00000000000E+00  0.00000000000E+00  0.31628668958E+03  0.31628668958E+03  0.00000000000E+00 0. -1.
         -4   -1    0    0    0  501 -0.00000000000E+00 -0.00000000000E+00 -0.92859368461E+03  0.92859368461E+03  0.00000000000E+00 0. -1.
   -9000010    2    1    2    0  502  0.17533704346E+02  0.70652268680E+02 -0.54484414476E+03  0.11456310861E+04  0.10051448997E+04 0.  0.
         13    1    3    3    0    0  0.20246137281E+03 -0.41019356524E+03 -0.10761997123E+03  0.46992705585E+03  0.10566000000E+00 0. -1.
         -4    1    3    3    0  502 -0.18492766847E+03  0.48084583392E+03 -0.43722417353E+03  0.67570403024E+03  0.00000000000E+00 0. -1.
        -13    1    1    2    0    0 -0.17533704346E+02 -0.70652268680E+02 -0.67462850271E+02  0.99249288100E+02  0.10566000000E+00 0.  1.
<mgrwt>
<rscale>  1 0.52245588E+03</rscale>
<asrwt>0</asrwt>
<pdfrwt beam="1">  1       21 0.48659491E-01 0.10077775E+04</pdfrwt>
<pdfrwt beam="2">  1       -4 0.14286057E+00 0.10077775E+04</pdfrwt>
<totfact> 0.54182378E+01</totfact>
</mgrwt>
</event>
<event>
 6    2  0.2294477E-005  0.9929824E+03  0.7818608E-02  0.1024399E+00
         -4   -1    0    0    0  501 -0.00000000000E+00  0.00000000000E+00  0.63328368932E+03  0.63328368932E+03  0.00000000000E+00 0. -1.
         21   -1    0    0  501  502  0.00000000000E+00 -0.00000000000E+00 -0.48866830868E+03  0.48866830868E+03  0.00000000000E+00 0. -1.
   -9000010    2    1    2    0  502  0.46182641909E+02 -0.26257887779E+01  0.24551991467E+02  0.99328591947E+03  0.99190442400E+03 0.  0.
         13    1    3    3    0    0  0.12651677960E+03  0.47247303987E+03  0.11637317603E+03  0.50277231048E+03  0.10566000000E+00 0. -1.
         -4    1    3    3    0  502 -0.80334137692E+02 -0.47509882865E+03 -0.91821184561E+02  0.49051360898E+03  0.00000000000E+00 0. -1.
        -13    1    1    2    0    0 -0.46182641909E+02  0.26257887779E+01  0.12006338918E+03  0.12866607853E+03  0.10566000000E+00 0.  1.
<mgrwt>
<rscale>  1 0.46131902E+03</rscale>
<asrwt>0</asrwt>
<pdfrwt beam="2">  1       21 0.75179740E-01 0.99298244E+03</pdfrwt>
<pdfrwt beam="1">  1       -4 0.97428260E-01 0.99298244E+03</pdfrwt>
<totfact> 0.53649603E+01</totfact>
</mgrwt>
</event>
<event>
 6    2  0.2294477E-005  0.1008102E+04  0.7818608E-02  0.9812717E-01
         21   -1    0    0  501  502  0.00000000000E+00  0.00000000000E+00  0.32278840313E+03  0.32278840313E+03  0.00000000000E+00 0. -1.
         -4   -1    0    0    0  501 -0.00000000000E+00 -0.00000000000E+00 -0.13144586912E+04  0.13144586912E+04  0.00000000000E+00 0. -1.
   -9000010    2    1    2    0  502  0.34857575949E+02  0.16728579094E+03 -0.51738525933E+03  0.11331182555E+04  0.99351390932E+03 0.  0.
         13    1    3    3    0    0  0.40382768551E+03  0.84063586150E+02 -0.61681632930E+03  0.74202822141E+03  0.10566000000E+00 0. -1.
         -4    1    3    3    0  502 -0.36897010956E+03  0.83222204788E+02  0.99431069975E+02  0.39109003413E+03  0.00000000000E+00 0. -1.
        -13    1    1    2    0    0 -0.34857575949E+02 -0.16728579094E+03 -0.47428502878E+03  0.50412883883E+03  0.10566000000E+00 0.  1.
<mgrwt>
<rscale>  1 0.64684532E+03</rscale>
<asrwt>0</asrwt>
<pdfrwt beam="1">  1       21 0.49659754E-01 0.10081019E+04</pdfrwt>
<pdfrwt beam="2">  1       -4 0.20222441E+00 0.10081019E+04</pdfrwt>
<totfact> 0.19385563E+01</totfact>
</mgrwt>
</event>
<event>
 6    2  0.2294477E-005  0.1006823E+04  0.7818608E-02  0.9588031E-01
         -4   -1    0    0    0  501 -0.00000000000E+00  0.00000000000E+00  0.40634688230E+03  0.40634688230E+03  0.00000000000E+00 0. -1.
         21   -1    0    0  501  502  0.00000000000E+00 -0.00000000000E+00 -0.14323703420E+04  0.14323703420E+04  0.00000000000E+00 0. -1.
   -9000010    2    1    2    0  502  0.25793922308E+03 -0.25742515837E+03 -0.10728633925E+04  0.14713014578E+04  0.93855834438E+03 0.  0.
         13    1    3    3    0    0  0.30558937550E+03 -0.27521070042E+03 -0.12348435396E+04  0.13015238663E+04  0.10566000000E+00 0. -1.
         -4    1    3    3    0  502 -0.47650152419E+02  0.17785542053E+02  0.16198014709E+03  0.16977759152E+03  0.00000000000E+00 0. -1.
        -13    1    1    2    0    0 -0.25793922308E+03  0.25742515837E+03  0.46839932861E+02  0.36741576646E+03  0.10566000000E+00 0.  1.
<mgrwt>
<rscale>  1 0.78093464E+03</rscale>
<asrwt>0</asrwt>
<pdfrwt beam="2">  1       21 0.22036467E+00 0.10068228E+04</pdfrwt>
<pdfrwt beam="1">  1       -4 0.62514905E-01 0.10068228E+04</pdfrwt>
<totfact> 0.80326373E+00</totfact>
</mgrwt>
</event>
<event>
 6    2  0.2294477E-005  0.1021347E+04  0.7818608E-02  0.1007137E+00
         -4   -1    0    0    0  501 -0.00000000000E+00  0.00000000000E+00  0.15943474291E+04  0.15943474291E+04  0.00000000000E+00 0. -1.
         21   -1    0    0  501  502  0.00000000000E+00 -0.00000000000E+00 -0.19856726398E+03  0.19856726398E+03  0.00000000000E+00 0. -1.
   -9000010    2    1    2    0  502  0.58573375648E+02  0.41879588227E+02  0.13838323611E+04  0.17199249580E+04  0.10188057308E+04 0.  0.
         13    1    3    3    0    0  0.18571459207E+03 -0.45084156008E+03  0.48919806550E+03  0.69069731465E+03  0.10566000000E+00 0. -1.
         -4    1    3    3    0  502 -0.12714121643E+03  0.49272114831E+03  0.89463429563E+03  0.10292276433E+04  0.00000000000E+00 0. -1.
        -13    1    1    2    0    0 -0.58573375648E+02 -0.41879588227E+02  0.11947803993E+02  0.72989735095E+02  0.10566000000E+00 0.  1.
<mgrwt>
<rscale>  1 0.52628508E+03</rscale>
<asrwt>0</asrwt>
<pdfrwt beam="2">  1       21 0.30548811E-01 0.10213471E+04</pdfrwt>
<pdfrwt beam="1">  1       -4 0.24528421E+00 0.10213471E+04</pdfrwt>
<totfact> 0.28408371E+01</totfact>
</mgrwt>
</event>
<event>
 6    2  0.2294477E-005  0.1014095E+04  0.7818608E-02  0.9804326E-01
         -4   -1    0    0    0  501 -0.00000000000E+00  0.00000000000E+00  0.23207012697E+03  0.23207012697E+03  0.00000000000E+00 0. -1.
         21   -1    0    0  501  502  0.00000000000E+00 -0.00000000000E+00 -0.15174593399E+04  0.15174593399E+04  0.00000000000E+00 0. -1.
   -9000010    2    1    2    0  502 -0.12818482510E+03 -0.11550655749E+03 -0.10866371545E+04  0.14863270617E+04  0.99930711723E+03 0.  0.
         13    1    3    3    0    0 -0.56420812198E+02  0.16105945662E+03  0.14379216991E+03  0.22315836508E+03  0.10566000000E+00 0. -1.
         -4    1    3    3    0  502 -0.71764012904E+02 -0.27656601411E+03 -0.12304293244E+04  0.12631686966E+04  0.00000000000E+00 0. -1.
        -13    1    1    2    0    0  0.12818482510E+03  0.11550655749E+03 -0.19875205844E+03  0.26320240521E+03  0.10566000000E+00 0.  1.
<mgrwt>
<rscale>  1 0.65130881E+03</rscale>
<asrwt>0</asrwt>
<pdfrwt beam="2">  1       21 0.23345528E+00 0.10140946E+04</pdfrwt>
<pdfrwt beam="1">  1       -4 0.35703097E-01 0.10140946E+04</pdfrwt>
<totfact> 0.21301683E+01</totfact>
</mgrwt>
</event>
<event>
 6    2  0.2294477E-005  0.1073720E+04  0.7818608E-02  0.9490219E-01
         -4   -1    0    0    0  501 -0.00000000000E+00  0.00000000000E+00  0.87345686165E+03  0.87345686165E+03  0.00000000000E+00 0. -1.
         21   -1    0    0  501  502  0.00000000000E+00 -0.00000000000E+00 -0.64793888330E+03  0.64793888330E+03  0.00000000000E+00 0. -1.
   -9000010    2    1    2    0  502  0.41812996230E+03  0.56074780270E+02  0.23617670528E+03  0.10993878469E+04  0.98736880421E+03 0.  0.
         13    1    3    3    0    0  0.70637041377E+03  0.86471863763E+02 -0.20923849587E+02  0.71195109616E+03  0.10566000000E+00 0. -1.
         -4    1    3    3    0  502 -0.28824045147E+03 -0.30397083493E+02  0.25710055486E+03  0.38743675079E+03  0.00000000000E+00 0. -1.
        -13    1    1    2    0    0 -0.41812996230E+03 -0.56074780270E+02 -0.10658726935E+02  0.42200789801E+03  0.10566000000E+00 0.  1.
<mgrwt>
<rscale>  1 0.85008779E+03</rscale>
<asrwt>0</asrwt>
<pdfrwt beam="2">  1       21 0.99682905E-01 0.10737198E+04</pdfrwt>
<pdfrwt beam="1">  1       -4 0.13437798E+00 0.10737198E+04</pdfrwt>
<totfact> 0.12161266E+01</totfact>
</mgrwt>
</event>
<event>
 6    2  0.2294477E-005  0.1060807E+04  0.7818608E-02  0.9553324E-01
         21   -1    0    0  501  502  0.00000000000E+00  0.00000000000E+00  0.76501578864E+03  0.76501578864E+03  0.00000000000E+00 0. -1.
         -4   -1    0    0    0  501 -0.00000000000E+00 -0.00000000000E+00 -0.66286957553E+03  0.66286957553E+03  0.00000000000E+00 0. -1.
   -9000010    2    1    2    0  502  0.27610056585E+03 -0.21697572384E+03 -0.47591503841E+01  0.10608175842E+04  0.10010001549E+04 0.  0.
         13    1    3    3    0    0 -0.89014924783E+01 -0.41507855691E+03  0.36562581436E+03  0.55321938891E+03  0.10566000000E+00 0. -1.
         -4    1    3    3    0  502  0.28500205833E+03  0.19810283307E+03 -0.37038496475E+03  0.50759819526E+03  0.00000000000E+00 0. -1.
        -13    1    1    2    0    0 -0.27610056585E+03  0.21697572384E+03  0.10690536350E+03  0.36706777999E+03  0.10566000000E+00 0.  1.
<mgrwt>
<rscale>  1 0.80464088E+03</rscale>
<asrwt>0</asrwt>
<pdfrwt beam="1">  1       21 0.11769474E+00 0.10608069E+04</pdfrwt>
<pdfrwt beam="2">  1       -4 0.10197994E+00 0.10608069E+04</pdfrwt>
<totfact> 0.15966336E+01</totfact>
</mgrwt>
</event>
<event>
 6    2  0.2294477E-005  0.1005424E+04  0.7818608E-02  0.9866762E-01
         21   -1    0    0  501  502  0.00000000000E+00  0.00000000000E+00  0.99812527115E+03  0.99812527115E+03  0.00000000000E+00 0. -1.
         -4   -1    0    0    0  501 -0.00000000000E+00 -0.00000000000E+00 -0.33498542412E+03  0.33498542412E+03  0.00000000000E+00 0. -1.
   -9000010    2    1    2    0  502  0.29444194570E+02  0.14141155489E+03  0.62450143113E+03  0.11835876977E+04  0.99499427749E+03 0.  0.
         13    1    3    3    0    0 -0.24666004536E+03  0.49548687531E+03  0.38954307047E+03  0.67682511515E+03  0.10566000000E+00 0. -1.
         -4    1    3    3    0  502  0.27610423993E+03 -0.35407532042E+03  0.23495836066E+03  0.50676258256E+03  0.00000000000E+00 0. -1.
        -13    1    1    2    0    0 -0.29444194570E+02 -0.14141155489E+03  0.38638415899E+02  0.14952299756E+03  0.10566000000E+00 0.  1.
<mgrwt>
<rscale>  1 0.61899510E+03</rscale>
<asrwt>0</asrwt>
<pdfrwt beam="1">  1       21 0.15355773E+00 0.10054242E+04</pdfrwt>
<pdfrwt beam="2">  1       -4 0.51536219E-01 0.10054242E+04</pdfrwt>
<totfact> 0.36700509E+01</totfact>
</mgrwt>
</event>
<event>
 6    2  0.2294477E-005  0.1002878E+04  0.7818608E-02  0.9972129E-01
         21   -1    0    0  501  502  0.00000000000E+00  0.00000000000E+00  0.11869057024E+04  0.11869057024E+04  0.00000000000E+00 0. -1.
         -4   -1    0    0    0  501 -0.00000000000E+00 -0.00000000000E+00 -0.71243728589E+03  0.71243728589E+03  0.00000000000E+00 0. -1.
   -9000010    2    1    2    0  502  0.74575686593E+02 -0.72263551611E+02  0.96869641371E+03  0.13943233072E+04  0.99748743808E+03 0.  0.
         13    1    3    3    0    0 -0.40389983543E+03  0.19697299105E+03  0.37090573597E+03  0.58267015746E+03  0.10566000000E+00 0. -1.
         -4    1    3    3    0  502  0.47847552202E+03 -0.26923654266E+03  0.59779067774E+03  0.81165314973E+03  0.00000000000E+00 0. -1.
        -13    1    1    2    0    0 -0.74575686593E+02  0.72263551611E+02 -0.49422799719E+03  0.50501968110E+03  0.10566000000E+00 0.  1.
<mgrwt>
<rscale>  1 0.56889412E+03</rscale>
<asrwt>0</asrwt>
<pdfrwt beam="1">  1       21 0.18260088E+00 0.10028782E+04</pdfrwt>
<pdfrwt beam="2">  1       -4 0.10960574E+00 0.10028782E+04</pdfrwt>
<totfact> 0.39734030E+00</totfact>
</mgrwt>
</event>
<event>
 6    2  0.2294477E-005  0.1056238E+04  0.7818608E-02  0.9643349E-01
         -4   -1    0    0    0  501 -0.00000000000E+00  0.00000000000E+00  0.22447162457E+04  0.22447162457E+04  0.00000000000E+00 0. -1.
         21   -1    0    0  501  502  0.00000000000E+00 -0.00000000000E+00 -0.22685748870E+03  0.22685748870E+03  0.00000000000E+00 0. -1.
   -9000010    2    1    2    0  502  0.17140978450E+03  0.19723836092E+03  0.11331754750E+04  0.15491048700E+04  0.10234036133E+04 0.  0.
         13    1    3    3    0    0  0.43521702242E+03  0.47124684329E+03  0.89208042373E+03  0.10987697382E+04  0.10566000000E+00 0. -1.
         -4    1    3    3    0  502 -0.26380723792E+03 -0.27400848237E+03  0.24109505127E+03  0.45033513180E+03  0.00000000000E+00 0. -1.
        -13    1    1    2    0    0 -0.17140978450E+03 -0.19723836092E+03  0.88468328196E+03  0.92246886440E+03  0.10566000000E+00 0.  1.
<mgrwt>
<rscale>  1 0.74492324E+03</rscale>
<asrwt>0</asrwt>
<pdfrwt beam="2">  1       21 0.34901154E-01 0.10562383E+04</pdfrwt>
<pdfrwt beam="1">  1       -4 0.34534095E+00 0.10562383E+04</pdfrwt>
<totfact> 0.51272903E+00</totfact>
</mgrwt>
</event>
<event>
 6    2  0.2294477E-005  0.1055896E+04  0.7818608E-02  0.9566039E-01
         -4   -1    0    0    0  501 -0.00000000000E+00  0.00000000000E+00  0.62740549866E+03  0.62740549866E+03  0.00000000000E+00 0. -1.
         21   -1    0    0  501  502  0.00000000000E+00 -0.00000000000E+00 -0.82690591054E+03  0.82690591054E+03  0.00000000000E+00 0. -1.
   -9000010    2    1    2    0  502  0.95171283000E+02  0.32721594665E+03 -0.30238880129E+03  0.10983424770E+04  0.99939449707E+03 0.  0.
         13    1    3    3    0    0  0.11051979320E+02 -0.21996467408E+03 -0.47072986540E+03  0.51970493689E+03  0.10566000000E+00 0. -1.
         -4    1    3    3    0  502  0.84119303680E+02  0.54718062073E+03  0.16834106411E+03  0.57863754011E+03  0.00000000000E+00 0. -1.
        -13    1    1    2    0    0 -0.95171283000E+02 -0.32721594665E+03  0.10288838941E+03  0.35596893220E+03  0.10566000000E+00 0.  1.
<mgrwt>
<rscale>  1 0.79585333E+03</rscale>
<asrwt>0</asrwt>
<pdfrwt beam="2">  1       21 0.12721629E+00 0.10558964E+04</pdfrwt>
<pdfrwt beam="1">  1       -4 0.96523924E-01 0.10558964E+04</pdfrwt>
<totfact> 0.14875659E+01</totfact>
</mgrwt>
</event>
<event>
 6    2  0.2294477E-005  0.1042083E+04  0.7818608E-02  0.9627289E-01
         -4   -1    0    0    0  501 -0.00000000000E+00  0.00000000000E+00  0.50515181466E+03  0.50515181466E+03  0.00000000000E+00 0. -1.
         21   -1    0    0  501  502  0.00000000000E+00 -0.00000000000E+00 -0.14459199589E+04  0.14459199589E+04  0.00000000000E+00 0. -1.
   -9000010    2    1    2    0  502  0.85090678009E+02 -0.27448933814E+03 -0.11820684189E+04  0.15758243166E+04  0.10016744528E+04 0.  0.
         13    1    3    3    0    0 -0.16931295282E+03  0.32164915485E+03 -0.25244345176E+03  0.44255255316E+03  0.10566000000E+00 0. -1.
         -4    1    3    3    0  502  0.25440363082E+03 -0.59613849299E+03 -0.92962496718E+03  0.11332717634E+04  0.00000000000E+00 0. -1.
        -13    1    1    2    0    0 -0.85090678009E+02  0.27448933814E+03  0.24130027469E+03  0.37524745697E+03  0.10566000000E+00 0.  1.
<mgrwt>
<rscale>  1 0.75516039E+03</rscale>
<asrwt>0</asrwt>
<pdfrwt beam="2">  1       21 0.22244922E+00 0.10420828E+04</pdfrwt>
<pdfrwt beam="1">  1       -4 0.77715664E-01 0.10420828E+04</pdfrwt>
<totfact> 0.47555733E+00</totfact>
</mgrwt>
</event>
<event>
 6    2  0.2294477E-005  0.1007061E+04  0.7818608E-02  0.1004412E+00
         21   -1    0    0  501  502  0.00000000000E+00  0.00000000000E+00  0.74449208487E+03  0.74449208487E+03  0.00000000000E+00 0. -1.
         -4   -1    0    0    0  501 -0.00000000000E+00 -0.00000000000E+00 -0.63139873981E+03  0.63139873981E+03  0.00000000000E+00 0. -1.
   -9000010    2    1    2    0  502  0.78546508673E+02 -0.22721629157E+02  0.39545961614E+03  0.10819239070E+04  0.10037356256E+04 0.  0.
         13    1    3    3    0    0  0.28152042930E+03  0.42463951866E+03  0.26180650257E+03  0.57281334558E+03  0.10566000000E+00 0. -1.
         -4    1    3    3    0  502 -0.20297392063E+03 -0.44736114782E+03  0.13365311357E+03  0.50911056147E+03  0.00000000000E+00 0. -1.
        -13    1    1    2    0    0 -0.78546508673E+02  0.22721629157E+02 -0.28236627108E+03  0.29396691764E+03  0.10566000000E+00 0.  1.
<mgrwt>
<rscale>  1 0.53757143E+03</rscale>
<asrwt>0</asrwt>
<pdfrwt beam="1">  1       21 0.11453724E+00 0.10070606E+04</pdfrwt>
<pdfrwt beam="2">  1       -4 0.97138268E-01 0.10070606E+04</pdfrwt>
<totfact> 0.19352308E+01</totfact>
</mgrwt>
</event>
<event>
 6    2  0.2294477E-005  0.1082120E+04  0.7818608E-02  0.9516238E-01
         21   -1    0    0  501  502  0.00000000000E+00  0.00000000000E+00  0.27766739658E+03  0.27766739658E+03  0.00000000000E+00 0. -1.
         -4   -1    0    0    0  501 -0.00000000000E+00 -0.00000000000E+00 -0.19441408692E+04  0.19441408692E+04  0.00000000000E+00 0. -1.
   -9000010    2    1    2    0  502  0.33323598652E+03 -0.17477343317E+03 -0.11112054676E+04  0.15510515705E+04  0.10145892802E+04 0.  0.
         13    1    3    3    0    0 -0.12679230898E+03 -0.49215557890E+03 -0.40139277342E+03  0.64761838545E+03  0.10566000000E+00 0. -1.
         -4    1    3    3    0  502  0.46002829551E+03  0.31738214573E+03 -0.70981269415E+03  0.90343318506E+03  0.00000000000E+00 0. -1.
        -13    1    1    2    0    0 -0.33323598652E+03  0.17477343317E+03 -0.55526800505E+03  0.67075669527E+03  0.10566000000E+00 0.  1.
<mgrwt>
<rscale>  1 0.83097194E+03</rscale>
<asrwt>0</asrwt>
<pdfrwt beam="1">  1       21 0.42718063E-01 0.10821199E+04</pdfrwt>
<pdfrwt beam="2">  1       -4 0.29909858E+00 0.10821199E+04</pdfrwt>
<totfact> 0.65620312E+00</totfact>
</mgrwt>
</event>
<event>
 6    2  0.2294477E-005  0.1017507E+04  0.7818608E-02  0.9670998E-01
         -4   -1    0    0    0  501 -0.00000000000E+00  0.00000000000E+00  0.43577995571E+03  0.43577995571E+03  0.00000000000E+00 0. -1.
         21   -1    0    0  501  502  0.00000000000E+00 -0.00000000000E+00 -0.13394042113E+04  0.13394042113E+04  0.00000000000E+00 0. -1.
   -9000010    2    1    2    0  502  0.16880093230E+01 -0.26619035119E+03 -0.10576556579E+04  0.14676360627E+04  0.98206922842E+03 0.  0.
         13    1    3    3    0    0 -0.43477360402E+03  0.70592180858E+02 -0.63575182244E+03  0.77342855756E+03  0.10566000000E+00 0. -1.
         -4    1    3    3    0  502  0.43646161334E+03 -0.33678253204E+03 -0.42190383544E+03  0.69420750512E+03  0.00000000000E+00 0. -1.
        -13    1    1    2    0    0 -0.16880093230E+01  0.26619035119E+03  0.15403140227E+03  0.30754810435E+03  0.10566000000E+00 0.  1.
<mgrwt>
<rscale>  1 0.72770149E+03</rscale>
<asrwt>0</asrwt>
<pdfrwt beam="2">  1       21 0.20606219E+00 0.10175068E+04</pdfrwt>
<pdfrwt beam="1">  1       -4 0.67043070E-01 0.10175068E+04</pdfrwt>
<totfact> 0.85681565E+00</totfact>
</mgrwt>
</event>
<event>
 6    2  0.2294477E-005  0.9885234E+03  0.7818608E-02  0.9757602E-01
         -4   -1    0    0    0  501 -0.00000000000E+00  0.00000000000E+00  0.15514891984E+04  0.15514891984E+04  0.00000000000E+00 0. -1.
         21   -1    0    0  501  502  0.00000000000E+00 -0.00000000000E+00 -0.46692384602E+03  0.46692384602E+03  0.00000000000E+00 0. -1.
   -9000010    2    1    2    0  502 -0.17054390466E+03 -0.13469146686E+03  0.81277839481E+02  0.99185916890E+03  0.96433993440E+03 0.  0.
         13    1    3    3    0    0  0.12754087951E+03 -0.49239979260E+03 -0.41428725227E+02  0.51033379482E+03  0.10566000000E+00 0. -1.
         -4    1    3    3    0  502 -0.29808478416E+03  0.35770832574E+03  0.12270656471E+03  0.48152537407E+03  0.00000000000E+00 0. -1.
        -13    1    1    2    0    0  0.17054390466E+03  0.13469146686E+03  0.10032875129E+04  0.10265538756E+04  0.10566000000E+00 0.  1.
<mgrwt>
<rscale>  1 0.67688368E+03</rscale>
<asrwt>0</asrwt>
<pdfrwt beam="2">  1       21 0.71834439E-01 0.98852341E+03</pdfrwt>
<pdfrwt beam="1">  1       -4 0.23869064E+00 0.98852341E+03</pdfrwt>
<totfact> 0.49927232E+00</totfact>
</mgrwt>
</event>
<event>
 6    2  0.2294477E-005  0.1088259E+04  0.7818608E-02  0.9475686E-01
         -4   -1    0    0    0  501 -0.00000000000E+00  0.00000000000E+00  0.35434726076E+03  0.35434726076E+03  0.00000000000E+00 0. -1.
         21   -1    0    0  501  502  0.00000000000E+00 -0.00000000000E+00 -0.16243367052E+04  0.16243367052E+04  0.00000000000E+00 0. -1.
   -9000010    2    1    2    0  502 -0.13341656360E+03  0.40499583892E+03 -0.85865845934E+03  0.13862189463E+04  0.10012427320E+04 0.  0.
         13    1    3    3    0    0  0.42098302993E+03  0.18108970761E+03 -0.21021849508E+03  0.50419442731E+03  0.10566000000E+00 0. -1.
         -4    1    3    3    0  502 -0.55439959352E+03  0.22390613131E+03 -0.64843996426E+03  0.88202451904E+03  0.00000000000E+00 0. -1.
        -13    1    1    2    0    0  0.13341656360E+03 -0.40499583892E+03 -0.41133098508E+03  0.59246501959E+03  0.10566000000E+00 0.  1.
<mgrwt>
<rscale>  1 0.86100382E+03</rscale>
<asrwt>0</asrwt>
<pdfrwt beam="2">  1       21 0.24989795E+00 0.10882594E+04</pdfrwt>
<pdfrwt beam="1">  1       -4 0.54514964E-01 0.10882594E+04</pdfrwt>
<totfact> 0.68781206E+00</totfact>
</mgrwt>
</event>
<event>
 6    2  0.2294477E-005  0.1021730E+04  0.7818608E-02  0.9764313E-01
         -4   -1    0    0    0  501 -0.00000000000E+00  0.00000000000E+00  0.50187723437E+03  0.50187723437E+03  0.00000000000E+00 0. -1.
         21   -1    0    0  501  502  0.00000000000E+00 -0.00000000000E+00 -0.73837600925E+03  0.73837600925E+03  0.00000000000E+00 0. -1.
   -9000010    2    1    2    0  502 -0.15630827479E+03  0.11233149526E+03 -0.23188329263E+03  0.10477124546E+04  0.10034345442E+04 0.  0.
         13    1    3    3    0    0  0.36792686388E+02 -0.43050244353E+03 -0.15776182971E+02  0.43235975156E+03  0.10566000000E+00 0. -1.
         -4    1    3    3    0  502 -0.19310096118E+03  0.54283393878E+03 -0.21610710966E+03  0.61535270305E+03  0.00000000000E+00 0. -1.
        -13    1    1    2    0    0  0.15630827479E+03 -0.11233149526E+03 -0.46154822518E+01  0.19254078901E+03  0.10566000000E+00 0.  1.
<mgrwt>
<rscale>  1 0.67313394E+03</rscale>
<asrwt>0</asrwt>
<pdfrwt beam="2">  1       21 0.11359631E+00 0.10217297E+04</pdfrwt>
<pdfrwt beam="1">  1       -4 0.77211883E-01 0.10217297E+04</pdfrwt>
<totfact> 0.33737558E+01</totfact>
</mgrwt>
</event>
<event>
 6    2  0.2294477E-005  0.1013801E+04  0.7818608E-02  0.9859911E-01
         -4   -1    0    0    0  501 -0.00000000000E+00  0.00000000000E+00  0.15167279034E+04  0.15167279034E+04  0.00000000000E+00 0. -1.
         21   -1    0    0  501  502  0.00000000000E+00 -0.00000000000E+00 -0.37448992552E+03  0.37448992552E+03  0.00000000000E+00 0. -1.
   -9000010    2    1    2    0  502 -0.76440949217E+02  0.12210402376E+03  0.32978310276E+03  0.10660902348E+04  0.10035132697E+04 0.  0.
         13    1    3    3    0    0  0.34068808321E+03  0.28610466416E+03  0.41666572697E+03  0.60953637143E+03  0.10566000000E+00 0. -1.
         -4    1    3    3    0  502 -0.41712903243E+03 -0.16400064040E+03 -0.86882624206E+02  0.45655386335E+03  0.00000000000E+00 0. -1.
        -13    1    1    2    0    0  0.76440949217E+02 -0.12210402376E+03  0.81245487511E+03  0.82512759413E+03  0.10566000000E+00 0.  1.
<mgrwt>
<rscale>  1 0.62244145E+03</rscale>
<asrwt>0</asrwt>
<pdfrwt beam="2">  1       21 0.57613835E-01 0.10138005E+04</pdfrwt>
<pdfrwt beam="1">  1       -4 0.23334275E+00 0.10138005E+04</pdfrwt>
<totfact> 0.88438720E+00</totfact>
</mgrwt>
</event>
<event>
 6    2  0.2294477E-005  0.9986752E+03  0.7818608E-02  0.1000457E+00
         -4   -1    0    0    0  501 -0.00000000000E+00  0.00000000000E+00  0.15644107507E+04  0.15644107507E+04  0.00000000000E+00 0. -1.
         21   -1    0    0  501  502  0.00000000000E+00 -0.00000000000E+00 -0.19470965286E+03  0.19470965286E+03  0.00000000000E+00 0. -1.
   -9000010    2    1    2    0  502  0.70907779780E+02 -0.63096990119E+02  0.11717828563E+04  0.15396191851E+04  0.99415442939E+03 0.  0.
         13    1    3    3    0    0  0.16164545859E+03 -0.46932381213E+03  0.94046836760E+03  0.10634259996E+04  0.10566000000E+00 0. -1.
         -4    1    3    3    0  502 -0.90737678810E+02  0.40622682202E+03  0.23131448867E+03  0.47619318553E+03  0.00000000000E+00 0. -1.
        -13    1    1    2    0    0 -0.70907779780E+02  0.63096990119E+02  0.19791824152E+03  0.21950121841E+03  0.10566000000E+00 0.  1.
<mgrwt>
<rscale>  1 0.55450275E+03</rscale>
<asrwt>0</asrwt>
<pdfrwt beam="2">  1       21 0.29955332E-01 0.99867521E+03</pdfrwt>
<pdfrwt beam="1">  1       -4 0.24067857E+00 0.99867521E+03</pdfrwt>
<totfact> 0.31643329E+01</totfact>
</mgrwt>
</event>
<event>
 6    2  0.2294477E-005  0.1060525E+04  0.7818608E-02  0.9666028E-01
         21   -1    0    0  501  502  0.00000000000E+00  0.00000000000E+00  0.12540608465E+04  0.12540608465E+04  0.00000000000E+00 0. -1.
         -4   -1    0    0    0  501 -0.00000000000E+00 -0.00000000000E+00 -0.42343733102E+03  0.42343733102E+03  0.00000000000E+00 0. -1.
   -9000010    2    1    2    0  502  0.23490132337E+03  0.44483590676E+02  0.93761914972E+03  0.14155716640E+04  0.10332260375E+04 0.  0.
         13    1    3    3    0    0  0.43705659678E+03 -0.37430123670E+03  0.65299489591E+03  0.87035752989E+03  0.10566000000E+00 0. -1.
         -4    1    3    3    0  502 -0.20215527341E+03  0.41878482738E+03  0.28462425381E+03  0.54521413414E+03  0.00000000000E+00 0. -1.
        -13    1    1    2    0    0 -0.23490132337E+03 -0.44483590676E+02 -0.10699563423E+03  0.26192651349E+03  0.10566000000E+00 0.  1.
<mgrwt>
<rscale>  1 0.73076006E+03</rscale>
<asrwt>0</asrwt>
<pdfrwt beam="1">  1       21 0.19293244E+00 0.10605251E+04</pdfrwt>
<pdfrwt beam="2">  1       -4 0.65144205E-01 0.10605251E+04</pdfrwt>
<totfact> 0.11186814E+01</totfact>
</mgrwt>
</event>
<event>
 6    2  0.2294477E-005  0.1065930E+04  0.7818608E-02  0.9529572E-01
         21   -1    0    0  501  502  0.00000000000E+00  0.00000000000E+00  0.11572544324E+04  0.11572544324E+04  0.00000000000E+00 0. -1.
         -4   -1    0    0    0  501 -0.00000000000E+00 -0.00000000000E+00 -0.44926145663E+03  0.44926145663E+03  0.00000000000E+00 0. -1.
   -9000010    2    1    2    0  502  0.26219280576E+03 -0.26927004893E+03  0.53846589855E+03  0.11942164011E+04  0.99747474261E+03 0.  0.
         13    1    3    3    0    0 -0.31117496721E+03 -0.32076273516E+03  0.40535961768E+03  0.60335314974E+03  0.10566000000E+00 0. -1.
         -4    1    3    3    0  502  0.57336777297E+03  0.51492686230E+02  0.13310628086E+03  0.59086325137E+03  0.00000000000E+00 0. -1.
        -13    1    1    2    0    0 -0.26219280576E+03  0.26927004893E+03  0.16952707719E+03  0.41229948788E+03  0.10566000000E+00 0.  1.
<mgrwt>
<rscale>  1 0.82138298E+03</rscale>
<asrwt>0</asrwt>
<pdfrwt beam="1">  1       21 0.17803914E+00 0.10659302E+04</pdfrwt>
<pdfrwt beam="2">  1       -4 0.69117148E-01 0.10659302E+04</pdfrwt>
<totfact> 0.12525473E+01</totfact>
</mgrwt>
</event>
<event>
 6    2  0.2294477E-005  0.9960405E+03  0.7818608E-02  0.1025219E+00
         -4   -1    0    0    0  501 -0.00000000000E+00  0.00000000000E+00  0.31280511020E+03  0.31280511020E+03  0.00000000000E+00 0. -1.
         21   -1    0    0  501  502  0.00000000000E+00 -0.00000000000E+00 -0.94104949493E+03  0.94104949493E+03  0.00000000000E+00 0. -1.
   -9000010    2    1    2    0  502  0.21625090212E+02  0.39143639684E+02 -0.49292624548E+03  0.11113383639E+04  0.99503608299E+03 0.  0.
         13    1    3    3    0    0 -0.15743418069E+03 -0.54266373007E+02 -0.75913820999E+03  0.77718800397E+03  0.10566000000E+00 0. -1.
         -4    1    3    3    0  502  0.17905927090E+03  0.93410012692E+02  0.26621196451E+03  0.33415035989E+03  0.00000000000E+00 0. -1.
        -13    1    1    2    0    0 -0.21625090212E+02 -0.39143639684E+02 -0.13531813924E+03  0.14251624127E+03  0.10566000000E+00 0.  1.
<mgrwt>
<rscale>  1 0.45849362E+03</rscale>
<asrwt>0</asrwt>
<pdfrwt beam="2">  1       21 0.14477684E+00 0.99604050E+03</pdfrwt>
<pdfrwt beam="1">  1       -4 0.48123864E-01 0.99604050E+03</pdfrwt>
<totfact> 0.49995547E+01</totfact>
</mgrwt>
</event>
<event>
 6    2  0.2294477E-005  0.1022476E+04  0.7818608E-02  0.9661240E-01
         -4   -1    0    0    0  501 -0.00000000000E+00  0.00000000000E+00  0.16872493873E+04  0.16872493873E+04  0.00000000000E+00 0. -1.
         21   -1    0    0  501  502  0.00000000000E+00 -0.00000000000E+00 -0.79984679941E+03  0.79984679941E+03  0.00000000000E+00 0. -1.
   -9000010    2    1    2    0  502  0.11584509180E+02  0.27087585321E+03 -0.45387824073E+03  0.11186875485E+04  0.98587445706E+03 0.  0.
         13    1    3    3    0    0  0.62925132874E+02 -0.84574085168E+02 -0.68404709023E+03  0.69212194088E+03  0.10566000000E+00 0. -1.
         -4    1    3    3    0  502 -0.51340623694E+02  0.35544993838E+03  0.23016884950E+03  0.42656560763E+03  0.00000000000E+00 0. -1.
        -13    1    1    2    0    0 -0.11584509180E+02 -0.27087585321E+03  0.13412808286E+04  0.13684086382E+04  0.10566000000E+00 0.  1.
<mgrwt>
<rscale>  1 0.73372193E+03</rscale>
<asrwt>0</asrwt>
<pdfrwt beam="2">  1       21 0.12305335E+00 0.10224756E+04</pdfrwt>
<pdfrwt beam="1">  1       -4 0.25957683E+00 0.10224756E+04</pdfrwt>
<totfact> 0.98834836E-01</totfact>
</mgrwt>
</event>
<event>
 6    2  0.2294477E-005  0.7939209E+03  0.7818608E-02  0.1010351E+00
         -4   -1    0    0    0  501 -0.00000000000E+00  0.00000000000E+00  0.35447330999E+03  0.35447330999E+03  0.00000000000E+00 0. -1.
         21   -1    0    0  501  502  0.00000000000E+00 -0.00000000000E+00 -0.13262561528E+04  0.13262561528E+04  0.00000000000E+00 0. -1.
   -9000010    2    1    2    0  502 -0.49723625034E+02  0.12956890849E+03 -0.11849716409E+04  0.14263478288E+04  0.78169674296E+03 0.  0.
         13    1    3    3    0    0 -0.24793243555E+03  0.15297394061E+03 -0.11915564984E+04  0.12266533410E+04  0.10566000000E+00 0. -1.
         -4    1    3    3    0  502  0.19820881052E+03 -0.23405032118E+02  0.65848574294E+01  0.19969448776E+03  0.00000000000E+00 0. -1.
        -13    1    1    2    0    0  0.49723625034E+02 -0.12956890849E+03  0.21318879809E+03  0.25438163403E+03  0.10566000000E+00 0.  1.
<mgrwt>
<rscale>  1 0.51335347E+03</rscale>
<asrwt>0</asrwt>
<pdfrwt beam="2">  1       21 0.20403941E+00 0.79392086E+03</pdfrwt>
<pdfrwt beam="1">  1       -4 0.54534356E-01 0.79392086E+03</pdfrwt>
<totfact> 0.14336434E+01</totfact>
</mgrwt>
</event>
<event>
 6    2  0.2294477E-005  0.1057128E+04  0.7818608E-02  0.9543180E-01
         -4   -1    0    0    0  501 -0.00000000000E+00  0.00000000000E+00  0.11848897947E+04  0.11848897947E+04  0.00000000000E+00 0. -1.
         21   -1    0    0  501  502  0.00000000000E+00 -0.00000000000E+00 -0.79577632029E+03  0.79577632029E+03  0.00000000000E+00 0.  1.
   -9000010    2    1    2    0  502 -0.17238708332E+02 -0.36711564727E+03 -0.38394473036E+03  0.11246929433E+04  0.99118595086E+03 0.  0.
         13    1    3    3    0    0 -0.29840867317E+03 -0.51694262692E+03 -0.50700467443E+03  0.78315462510E+03  0.10566000000E+00 0. -1.
         -4    1    3    3    0  502  0.28116996484E+03  0.14982697965E+03  0.12305994407E+03  0.34153831819E+03  0.00000000000E+00 0. -1.
        -13    1    1    2    0    0  0.17238708332E+02  0.36711564727E+03  0.77305820473E+03  0.85597317166E+03  0.10566000000E+00 0.  1.
<mgrwt>
<rscale>  1 0.81173848E+03</rscale>
<asrwt>0</asrwt>
<pdfrwt beam="2">  1       21 0.12242713E+00 0.10571285E+04</pdfrwt>
<pdfrwt beam="1">  1       -4 0.18229074E+00 0.10571285E+04</pdfrwt>
<totfact> 0.31319119E+00</totfact>
</mgrwt>
</event>
<event>
 6    2  0.2294477E-005  0.1121321E+04  0.7818608E-02  0.9422095E-01
         -4   -1    0    0    0  501 -0.00000000000E+00  0.00000000000E+00  0.11323091313E+04  0.11323091313E+04  0.00000000000E+00 0. -1.
         21   -1    0    0  501  502  0.00000000000E+00 -0.00000000000E+00 -0.56976713736E+03  0.56976713736E+03  0.00000000000E+00 0.  1.
   -9000010    2    1    2    0  502 -0.19125740672E+03 -0.43059055373E+03  0.29178182512E+03  0.11586623373E+04  0.10175333694E+04 0.  0.
         13    1    3    3    0    0 -0.27514297170E+03  0.22015802205E+03 -0.13342725053E+03  0.37679709646E+03  0.10566000000E+00 0. -1.
         -4    1    3    3    0  502  0.83885564983E+02 -0.65074857579E+03  0.42520907564E+03  0.78186524089E+03  0.00000000000E+00 0. -1.
        -13    1    1    2    0    0  0.19125740672E+03  0.43059055373E+03  0.27076016886E+03  0.54341393136E+03  0.10566000000E+00 0.  1.
<mgrwt>
<rscale>  1 0.90279406E+03</rscale>
<asrwt>0</asrwt>
<pdfrwt beam="2">  1       21 0.87656483E-01 0.11213214E+04</pdfrwt>
<pdfrwt beam="1">  1       -4 0.17420140E+00 0.11213214E+04</pdfrwt>
<totfact> 0.81820396E+00</totfact>
</mgrwt>
</event>
<event>
 6    2  0.2294477E-005  0.1030699E+04  0.7818608E-02  0.9764638E-01
         21   -1    0    0  501  502  0.00000000000E+00  0.00000000000E+00  0.50007531783E+03  0.50007531783E+03  0.00000000000E+00 0. -1.
         -4   -1    0    0    0  501 -0.00000000000E+00 -0.00000000000E+00 -0.83583028888E+03  0.83583028888E+03  0.00000000000E+00 0. -1.
   -9000010    2    1    2    0  502  0.47419052404E+02 -0.18120047185E+03 -0.10107302021E+03  0.10356427107E+04  0.10135373161E+04 0.  0.
         13    1    3    3    0    0  0.51508620765E+02 -0.44641518368E+03  0.31034948531E+03  0.54612861895E+03  0.10566000000E+00 0. -1.
         -4    1    3    3    0  502 -0.40895683610E+01  0.26521471184E+03 -0.41142250553E+03  0.48951409173E+03  0.00000000000E+00 0. -1.
        -13    1    1    2    0    0 -0.47419052404E+02  0.18120047185E+03 -0.23468195083E+03  0.30026289604E+03  0.10566000000E+00 0.  1.
<mgrwt>
<rscale>  1 0.67295290E+03</rscale>
<asrwt>0</asrwt>
<pdfrwt beam="1">  1       21 0.76934664E-01 0.10306988E+04</pdfrwt>
<pdfrwt beam="2">  1       -4 0.12858927E+00 0.10306988E+04</pdfrwt>
<totfact> 0.25492515E+01</totfact>
</mgrwt>
</event>
<event>
 6    2  0.2294477E-005  0.9941524E+03  0.7818608E-02  0.9805495E-01
         21   -1    0    0  501  502  0.00000000000E+00  0.00000000000E+00  0.27226558905E+03  0.27226558905E+03  0.00000000000E+00 0. -1.
         -4   -1    0    0    0  501 -0.00000000000E+00 -0.00000000000E+00 -0.18179974391E+04  0.18179974391E+04  0.00000000000E+00 0. -1.
   -9000010    2    1    2    0  502 -0.13362040093E+03 -0.12421995283E+03 -0.67746784762E+03  0.12030384809E+04  0.97726858829E+03 0.  0.
         13    1    3    3    0    0 -0.24598789572E+03  0.24386095224E+03  0.78126696239E+02  0.35508027360E+03  0.10566000000E+00 0. -1.
         -4    1    3    3    0  502  0.11236749479E+03 -0.36808090508E+03 -0.75559454386E+03  0.84795820727E+03  0.00000000000E+00 0. -1.
        -13    1    1    2    0    0  0.13362040093E+03  0.12421995283E+03 -0.86826400245E+03  0.88722454730E+03  0.10566000000E+00 0.  1.
<mgrwt>
<rscale>  1 0.65068502E+03</rscale>
<asrwt>0</asrwt>
<pdfrwt beam="1">  1       21 0.41887016E-01 0.99415235E+03</pdfrwt>
<pdfrwt beam="2">  1       -4 0.27969190E+00 0.99415235E+03</pdfrwt>
<totfact> 0.91149537E+00</totfact>
</mgrwt>
</event>
<event>
 6    2  0.2294477E-005  0.1110050E+04  0.7818608E-02  0.9434351E-01
         21   -1    0    0  501  502  0.00000000000E+00  0.00000000000E+00  0.12728833379E+04  0.12728833379E+04  0.00000000000E+00 0.  1.
         -4   -1    0    0    0  501 -0.00000000000E+00 -0.00000000000E+00 -0.48838082597E+03  0.48838082597E+03  0.00000000000E+00 0. -1.
   -9000010    2    1    2    0  502  0.27163769256E+03 -0.37735835582E+03  0.51319737924E+03  0.12229400506E+04  0.10079803831E+04 0.  0.
         13    1    3    3    0    0 -0.35583344217E+03 -0.16153187886E+03  0.38213499448E+03  0.54656852418E+03  0.10566000000E+00 0. -1.
         -4    1    3    3    0  502  0.62747113473E+03 -0.21582647696E+03  0.13106238476E+03  0.67637152644E+03  0.00000000000E+00 0. -1.
        -13    1    1    2    0    0 -0.27163769256E+03  0.37735835582E+03  0.27130513273E+03  0.53832411328E+03  0.10566000000E+00 0.  1.
<mgrwt>
<rscale>  1 0.89301854E+03</rscale>
<asrwt>0</asrwt>
<pdfrwt beam="1">  1       21 0.19582820E+00 0.11100499E+04</pdfrwt>
<pdfrwt beam="2">  1       -4 0.75135512E-01 0.11100499E+04</pdfrwt>
<totfact> 0.77065583E+00</totfact>
</mgrwt>
</event>
<event>
 6    2  0.2294477E-005  0.1011067E+04  0.7818608E-02  0.9761582E-01
         -4   -1    0    0    0  501 -0.00000000000E+00  0.00000000000E+00  0.61620206311E+03  0.61620206311E+03  0.00000000000E+00 0. -1.
         21   -1    0    0  501  502  0.00000000000E+00 -0.00000000000E+00 -0.11212757758E+04  0.11212757758E+04  0.00000000000E+00 0. -1.
   -9000010    2    1    2    0  502 -0.75613366982E+02 -0.18563429771E+03 -0.86165419724E+03  0.13284214530E+04  0.99099855073E+03 0.  0.
         13    1    3    3    0    0  0.34479407449E+03 -0.35234972513E+03 -0.21149832661E+03  0.53643716867E+03  0.10566000000E+00 0. -1.
         -4    1    3    3    0  502 -0.42040744147E+03  0.16671542742E+03 -0.65015587063E+03  0.79198428438E+03  0.00000000000E+00 0. -1.
        -13    1    1    2    0    0  0.75613366982E+02  0.18563429771E+03  0.35658048451E+03  0.40905638591E+03  0.10566000000E+00 0.  1.
<mgrwt>
<rscale>  1 0.67465642E+03</rscale>
<asrwt>0</asrwt>
<pdfrwt beam="2">  1       21 0.17250397E+00 0.10110666E+04</pdfrwt>
<pdfrwt beam="1">  1       -4 0.94800318E-01 0.10110666E+04</pdfrwt>
<totfact> 0.66869239E+00</totfact>
</mgrwt>
</event>
<event>
 6    2  0.2294477E-005  0.1047791E+04  0.7818608E-02  0.9609388E-01
         21   -1    0    0  501  502  0.00000000000E+00  0.00000000000E+00  0.12012341123E+04  0.12012341123E+04  0.00000000000E+00 0. -1.
         -4   -1    0    0    0  501 -0.00000000000E+00 -0.00000000000E+00 -0.49124041056E+03  0.49124041056E+03  0.00000000000E+00 0. -1.
   -9000010    2    1    2    0  502  0.16828788019E+03  0.24896774647E+03  0.86099238378E+03  0.13561616291E+04  0.10037732462E+04 0.  0.
         13    1    3    3    0    0 -0.29796774366E+02  0.21300637707E+03 -0.18943858812E+03  0.28661220189E+03  0.10566000000E+00 0. -1.
         -4    1    3    3    0  502  0.19808465455E+03  0.35961369398E+02  0.10504309719E+04  0.10695494272E+04  0.00000000000E+00 0. -1.
        -13    1    1    2    0    0 -0.16828788019E+03 -0.24896774647E+03 -0.15099868203E+03  0.33631289381E+03  0.10566000000E+00 0.  1.
<mgrwt>
<rscale>  1 0.76677952E+03</rscale>
<asrwt>0</asrwt>
<pdfrwt beam="1">  1       21 0.18480525E+00 0.10477912E+04</pdfrwt>
<pdfrwt beam="2">  1       -4 0.75575448E-01 0.10477912E+04</pdfrwt>
<totfact> 0.91679039E+00</totfact>
</mgrwt>
</event>
<event>
 6    2  0.2294477E-005  0.1035424E+04  0.7818608E-02  0.9598641E-01
         21   -1    0    0  501  502  0.00000000000E+00  0.00000000000E+00  0.84527538715E+03  0.84527538715E+03  0.00000000000E+00 0. -1.
         -4   -1    0    0    0  501 -0.00000000000E+00 -0.00000000000E+00 -0.70304113341E+03  0.70304113341E+03  0.00000000000E+00 0. -1.
   -9000010    2    1    2    0  502 -0.28080770181E+03 -0.15975807034E+03  0.42473412482E+03  0.11191524555E+04  0.98373143459E+03 0.  0.
         13    1    3    3    0    0 -0.10674380761E+03 -0.20825418846E+03 -0.29530450782E+03  0.37678748782E+03  0.10566000000E+00 0. -1.
         -4    1    3    3    0  502 -0.17406389419E+03  0.48496118119E+02  0.72003863263E+03  0.74236496767E+03  0.00000000000E+00 0. -1.
        -13    1    1    2    0    0  0.28080770181E+03  0.15975807034E+03 -0.28249987108E+03  0.42916406508E+03  0.10566000000E+00 0.  1.
<mgrwt>
<rscale>  1 0.77386213E+03</rscale>
<asrwt>0</asrwt>
<pdfrwt beam="1">  1       21 0.13004237E+00 0.10354241E+04</pdfrwt>
<pdfrwt beam="2">  1       -4 0.10816017E+00 0.10354241E+04</pdfrwt>
<totfact> 0.10670111E+01</totfact>
</mgrwt>
</event>
<event>
 6    2  0.2294477E-005  0.1009155E+04  0.7818608E-02  0.1020607E+00
         21   -1    0    0  501  502  0.00000000000E+00  0.00000000000E+00  0.20947284493E+03  0.20947284493E+03  0.00000000000E+00 0. -1.
         -4   -1    0    0    0  501 -0.00000000000E+00 -0.00000000000E+00 -0.14848350899E+04  0.14848350899E+04  0.00000000000E+00 0. -1.
   -9000010    2    1    2    0  502  0.18828059769E+01  0.49365981621E+02 -0.10223624008E+04  0.14365299734E+04  0.10079449096E+04 0.  0.
         13    1    3    3    0    0  0.24523365811E+03 -0.33910587114E+03 -0.13840114831E+03  0.44078024903E+03  0.10566000000E+00 0. -1.
         -4    1    3    3    0  502 -0.24335085213E+03  0.38847185276E+03 -0.88396125250E+03  0.99574972435E+03  0.00000000000E+00 0. -1.
        -13    1    1    2    0    0 -0.18828059769E+01 -0.49365981621E+02 -0.25299984416E+03  0.25777796145E+03  0.10566000000E+00 0.  1.
<mgrwt>
<rscale>  1 0.47468385E+03</rscale>
<asrwt>0</asrwt>
<pdfrwt beam="1">  1       21 0.32226592E-01 0.10091548E+04</pdfrwt>
<pdfrwt beam="2">  1       -4 0.22843617E+00 0.10091548E+04</pdfrwt>
<totfact> 0.32527648E+01</totfact>
</mgrwt>
</event>
<event>
 6    2  0.2294477E-005  0.1027005E+04  0.7818608E-02  0.9711889E-01
         -4   -1    0    0    0  501 -0.00000000000E+00  0.00000000000E+00  0.19305148013E+04  0.19305148013E+04  0.00000000000E+00 0. -1.
         21   -1    0    0  501  502  0.00000000000E+00 -0.00000000000E+00 -0.28544999001E+03  0.28544999001E+03  0.00000000000E+00 0. -1.
   -9000010    2    1    2    0  502  0.18858670335E+03  0.12390494316E+03  0.69644515969E+03  0.12408767778E+04  0.10019091463E+04 0.  0.
         13    1    3    3    0    0 -0.28322746365E+03  0.16113306946E+01  0.69820729808E+03  0.75346787245E+03  0.10566000000E+00 0. -1.
         -4    1    3    3    0  502  0.47181416700E+03  0.12229361247E+03 -0.17621383992E+01  0.48740890530E+03  0.00000000000E+00 0. -1.
        -13    1    1    2    0    0 -0.18858670335E+03 -0.12390494316E+03  0.94861965162E+03  0.97508801358E+03  0.10566000000E+00 0.  1.
<mgrwt>
<rscale>  1 0.70313334E+03</rscale>
<asrwt>0</asrwt>
<pdfrwt beam="2">  1       21 0.43915384E-01 0.10270050E+04</pdfrwt>
<pdfrwt beam="1">  1       -4 0.29700227E+00 0.10270050E+04</pdfrwt>
<totfact> 0.64220657E+00</totfact>
</mgrwt>
</event>
<event>
 6    2  0.2294477E-005  0.1113031E+04  0.7818608E-02  0.9427455E-01
         -4   -1    0    0    0  501 -0.00000000000E+00  0.00000000000E+00  0.10537566426E+04  0.10537566426E+04  0.00000000000E+00 0. -1.
         21   -1    0    0  501  502  0.00000000000E+00 -0.00000000000E+00 -0.64904609218E+03  0.64904609218E+03  0.00000000000E+00 0. -1.
   -9000010    2    1    2    0  502  0.43111838324E+03  0.19378189793E+03  0.50073418781E+03  0.12204801928E+04  0.10076818396E+04 0.  0.
         13    1    3    3    0    0 -0.95857578215E+02 -0.31612871167E+03  0.33133901114E+03  0.46787988748E+03  0.10566000000E+00 0. -1.
         -4    1    3    3    0  502  0.52697596145E+03  0.50991060960E+03  0.16939517667E+03  0.75260030535E+03  0.00000000000E+00 0. -1.
        -13    1    1    2    0    0 -0.43111838324E+03 -0.19378189793E+03 -0.96023637427E+02  0.48232254191E+03  0.10566000000E+00 0.  1.
<mgrwt>
<rscale>  1 0.89850254E+03</rscale>
<asrwt>0</asrwt>
<pdfrwt beam="2">  1       21 0.99853245E-01 0.11130306E+04</pdfrwt>
<pdfrwt beam="1">  1       -4 0.16211641E+00 0.11130306E+04</pdfrwt>
<totfact> 0.72924360E+00</totfact>
</mgrwt>
</event>
<event>
 6    2  0.2294477E-005  0.1061884E+04  0.7818608E-02  0.9560915E-01
         -4   -1    0    0    0  501 -0.00000000000E+00  0.00000000000E+00  0.40952616534E+03  0.40952616534E+03  0.00000000000E+00 0. -1.
         21   -1    0    0  501  502  0.00000000000E+00 -0.00000000000E+00 -0.12433864510E+04  0.12433864510E+04  0.00000000000E+00 0. -1.
   -9000010    2    1    2    0  502  0.15191455448E+03 -0.30531561755E+03 -0.75489689339E+03  0.13028684953E+04  0.10056347937E+04 0.  0.
         13    1    3    3    0    0 -0.40215397572E+02 -0.36221084562E+03 -0.95348273475E+03  0.10207562449E+04  0.10566000000E+00 0. -1.
         -4    1    3    3    0  502  0.19212995205E+03  0.56895228065E+02  0.19858584136E+03  0.28211225043E+03  0.00000000000E+00 0. -1.
        -13    1    1    2    0    0 -0.15191455448E+03  0.30531561755E+03 -0.78963392299E+02  0.35004412103E+03  0.10566000000E+00 0.  1.
<mgrwt>
<rscale>  1 0.79937978E+03</rscale>
<asrwt>0</asrwt>
<pdfrwt beam="2">  1       21 0.19129022E+00 0.10618837E+04</pdfrwt>
<pdfrwt beam="1">  1       -4 0.63004026E-01 0.10618837E+04</pdfrwt>
<totfact> 0.12364415E+01</totfact>
</mgrwt>
</event>
<event>
 6    2  0.2294477E-005  0.1075661E+04  0.7818608E-02  0.9481417E-01
         -4   -1    0    0    0  501 -0.00000000000E+00  0.00000000000E+00  0.25997868268E+03  0.25997868268E+03  0.00000000000E+00 0. -1.
         21   -1    0    0  501  502  0.00000000000E+00 -0.00000000000E+00 -0.22093784817E+04  0.22093784817E+04  0.00000000000E+00 0. -1.
   -9000010    2    1    2    0  502  0.16076504202E+03 -0.40178839079E+03 -0.14961080072E+04  0.18426572606E+04  0.98476763810E+03 0.  0.
         13    1    3    3    0    0  0.57283289822E+03 -0.27943687508E+03 -0.10043628694E+04  0.11895239725E+04  0.10566000000E+00 0. -1.
         -4    1    3    3    0  502 -0.41206785621E+03 -0.12235151571E+03 -0.49174513781E+03  0.65313328814E+03  0.00000000000E+00 0. -1.
        -13    1    1    2    0    0 -0.16076504202E+03  0.40178839079E+03 -0.45329179177E+03  0.62669990375E+03  0.10566000000E+00 0.  1.
<mgrwt>
<rscale>  1 0.85667836E+03</rscale>
<asrwt>0</asrwt>
<pdfrwt beam="2">  1       21 0.33990437E+00 0.10756610E+04</pdfrwt>
<pdfrwt beam="1">  1       -4 0.39996722E-01 0.10756610E+04</pdfrwt>
<totfact> 0.35921173E+00</totfact>
</mgrwt>
</event>
<event>
 6    2  0.2294477E-005  0.1113505E+04  0.7818608E-02  0.9373831E-01
         21   -1    0    0  501  502  0.00000000000E+00  0.00000000000E+00  0.56375361740E+03  0.56375361740E+03  0.00000000000E+00 0. -1.
         -4   -1    0    0    0  501 -0.00000000000E+00 -0.00000000000E+00 -0.12695200059E+04  0.12695200059E+04  0.00000000000E+00 0. -1.
   -9000010    2    1    2    0  502  0.56809494235E+03  0.65053175931E+02 -0.54241462536E+03  0.12385908600E+04  0.95547365927E+03 0.  0.
         13    1    3    3    0    0  0.54324344881E+03 -0.12604647496E+03  0.10116710521E+03  0.56677681046E+03  0.10566000000E+00 0. -1.
         -4    1    3    3    0  502  0.24851493538E+02  0.19109965089E+03 -0.64358173057E+03  0.67181404959E+03  0.00000000000E+00 0. -1.
        -13    1    1    2    0    0 -0.56809494235E+03 -0.65053175931E+02 -0.16335176313E+03  0.59468276325E+03  0.10566000000E+00 0.  1.
<mgrwt>
<rscale>  1 0.94260921E+03</rscale>
<asrwt>0</asrwt>
<pdfrwt beam="1">  1       21 0.86731327E-01 0.11135051E+04</pdfrwt>
<pdfrwt beam="2">  1       -4 0.19531077E+00 0.11135051E+04</pdfrwt>
<totfact> 0.60054202E+00</totfact>
</mgrwt>
</event>
<event>
 6    2  0.2294477E-005  0.1064688E+04  0.7818608E-02  0.9539813E-01
         -4   -1    0    0    0  501 -0.00000000000E+00  0.00000000000E+00  0.58545455838E+03  0.58545455838E+03  0.00000000000E+00 0. -1.
         21   -1    0    0  501  502  0.00000000000E+00 -0.00000000000E+00 -0.10494225964E+04  0.10494225964E+04  0.00000000000E+00 0. -1.
   -9000010    2    1    2    0  502 -0.27775603545E+03 -0.23521722386E+03 -0.25455748975E+02  0.10649924327E+04  0.10005425173E+04 0.  0.
         13    1    3    3    0    0 -0.44508030890E+03 -0.21945606514E+03 -0.41104235224E+03  0.64437044656E+03  0.10566000000E+00 0. -1.
         -4    1    3    3    0  502  0.16732427345E+03 -0.15761158715E+02  0.38558660327E+03  0.42062198615E+03  0.00000000000E+00 0. -1.
        -13    1    1    2    0    0  0.27775603545E+03  0.23521722386E+03 -0.43851228901E+03  0.56988472203E+03  0.10566000000E+00 0.  1.
<mgrwt>
<rscale>  1 0.81411142E+03</rscale>
<asrwt>0</asrwt>
<pdfrwt beam="2">  1       21 0.16144963E+00 0.10646882E+04</pdfrwt>
<pdfrwt beam="1">  1       -4 0.90069932E-01 0.10646882E+04</pdfrwt>
<totfact> 0.90914747E+00</totfact>
</mgrwt>
</event>
<event>
 6    2  0.2294477E-005  0.1054822E+04  0.7818608E-02  0.9704068E-01
         21   -1    0    0  501  502  0.00000000000E+00  0.00000000000E+00  0.46142745151E+03  0.46142745151E+03  0.00000000000E+00 0. -1.
         -4   -1    0    0    0  501 -0.00000000000E+00 -0.00000000000E+00 -0.11840656644E+04  0.11840656644E+04  0.00000000000E+00 0. -1.
   -9000010    2    1    2    0  502 -0.11680736558E+03 -0.17905721048E+03 -0.19032791046E+03  0.10718558485E+04  0.10329302015E+04 0.  0.
         13    1    3    3    0    0  0.84426497809E+01  0.35894685140E+03 -0.34529494105E+03  0.49813926561E+03  0.10566000000E+00 0. -1.
         -4    1    3    3    0  502 -0.12525001536E+03 -0.53800406188E+03  0.15496703059E+03  0.57371658292E+03  0.00000000000E+00 0. -1.
        -13    1    1    2    0    0  0.11680736558E+03  0.17905721048E+03 -0.53231030243E+03  0.57363726737E+03  0.10566000000E+00 0.  1.
<mgrwt>
<rscale>  1 0.70775102E+03</rscale>
<asrwt>0</asrwt>
<pdfrwt beam="1">  1       21 0.70988841E-01 0.10548224E+04</pdfrwt>
<pdfrwt beam="2">  1       -4 0.18216394E+00 0.10548224E+04</pdfrwt>
<totfact> 0.11890872E+01</totfact>
</mgrwt>
</event>
<event>
 6    2  0.2294477E-005  0.1045736E+04  0.7818608E-02  0.9678265E-01
         21   -1    0    0  501  502  0.00000000000E+00  0.00000000000E+00  0.37043771171E+03  0.37043771171E+03  0.00000000000E+00 0.  1.
         -4   -1    0    0    0  501 -0.00000000000E+00 -0.00000000000E+00 -0.12336158805E+04  0.12336158805E+04  0.00000000000E+00 0. -1.
   -9000010    2    1    2    0  502  0.23649177535E+03 -0.36415279659E+02 -0.47616054393E+03  0.11490403116E+04  0.10179932916E+04 0.  0.
         13    1    3    3    0    0 -0.11765101831E+03 -0.31116324481E+03  0.16135294475E+03  0.36972842867E+03  0.10566000000E+00 0. -1.
         -4    1    3    3    0  502  0.35414279366E+03  0.27474796515E+03 -0.63751348868E+03  0.77931188294E+03  0.00000000000E+00 0. -1.
        -13    1    1    2    0    0 -0.23649177535E+03  0.36415279659E+02 -0.38701762488E+03  0.45501328061E+03  0.10566000000E+00 0.  1.
<mgrwt>
<rscale>  1 0.72325733E+03</rscale>
<asrwt>0</asrwt>
<pdfrwt beam="1">  1       21 0.56990417E-01 0.10457365E+04</pdfrwt>
<pdfrwt beam="2">  1       -4 0.18978706E+00 0.10457365E+04</pdfrwt>
<totfact> 0.17313937E+01</totfact>
</mgrwt>
</event>
<event>
 6    2  0.2294477E-005  0.1078806E+04  0.7818608E-02  0.9502913E-01
         21   -1    0    0  501  502  0.00000000000E+00  0.00000000000E+00  0.49535918951E+03  0.49535918951E+03  0.00000000000E+00 0. -1.
         -4   -1    0    0    0  501 -0.00000000000E+00 -0.00000000000E+00 -0.11144713157E+04  0.11144713157E+04  0.00000000000E+00 0. -1.
   -9000010    2    1    2    0  502 -0.56022087896E+02 -0.39388817204E+03 -0.37033289546E+03  0.11405997696E+04  0.10027636883E+04 0.  0.
         13    1    3    3    0    0  0.30105328377E+03  0.21010177037E+03 -0.20208668512E+03  0.41906428271E+03  0.10566000000E+00 0. -1.
         -4    1    3    3    0  502 -0.35707537166E+03 -0.60398994241E+03 -0.16824621034E+03  0.72153548691E+03  0.00000000000E+00 0. -1.
        -13    1    1    2    0    0  0.56022087896E+02  0.39388817204E+03 -0.24877923074E+03  0.46923073559E+03  0.10566000000E+00 0.  1.
<mgrwt>
<rscale>  1 0.84069375E+03</rscale>
<asrwt>0</asrwt>
<pdfrwt beam="1">  1       21 0.76209106E-01 0.10788055E+04</pdfrwt>
<pdfrwt beam="2">  1       -4 0.17145712E+00 0.10788055E+04</pdfrwt>
<totfact> 0.11976622E+01</totfact>
</mgrwt>
</event>
<event>
 6    2  0.2294477E-005  0.1011397E+04  0.7818608E-02  0.9917171E-01
         -4   -1    0    0    0  501 -0.00000000000E+00  0.00000000000E+00  0.68239043560E+03  0.68239043560E+03  0.00000000000E+00 0. -1.
         21   -1    0    0  501  502  0.00000000000E+00 -0.00000000000E+00 -0.60620378333E+03  0.60620378333E+03  0.00000000000E+00 0. -1.
   -9000010    2    1    2    0  502 -0.72971679868E+01  0.12040534218E+03 -0.15943876541E+03  0.10238867508E+04  0.10041776055E+04 0.  0.
         13    1    3    3    0    0  0.13474152694E+03  0.53820947009E+03 -0.17665073973E+03  0.58226300569E+03  0.10566000000E+00 0. -1.
         -4    1    3    3    0  502 -0.14203869493E+03 -0.41780412792E+03  0.17211974320E+02  0.44162374508E+03  0.00000000000E+00 0. -1.
        -13    1    1    2    0    0  0.72971679868E+01 -0.12040534218E+03  0.23562541767E+03  0.26470746816E+03  0.10566000000E+00 0.  1.
<mgrwt>
<rscale>  1 0.59436287E+03</rscale>
<asrwt>0</asrwt>
<pdfrwt beam="2">  1       21 0.93262121E-01 0.10113967E+04</pdfrwt>
<pdfrwt beam="1">  1       -4 0.10498314E+00 0.10113967E+04</pdfrwt>
<totfact> 0.26785881E+01</totfact>
</mgrwt>
</event>
<event>
 6    2  0.2294477E-005  0.8191879E+03  0.7818608E-02  0.9800117E-01
         21   -1    0    0  501  502  0.00000000000E+00  0.00000000000E+00  0.40287886309E+03  0.40287886309E+03  0.00000000000E+00 0. -1.
         -4   -1    0    0    0  501 -0.00000000000E+00 -0.00000000000E+00 -0.82240402163E+03  0.82240402163E+03  0.00000000000E+00 0. -1.
   -9000010    2    1    2    0  502 -0.16012751460E+03  0.29070999163E+03 -0.30728453020E+03  0.87492436837E+03  0.74894308709E+03 0.  0.
         13    1    3    3    0    0 -0.28951448498E+03  0.26942430887E+02  0.15323410870E+03  0.32867192583E+03  0.10566000000E+00 0. -1.
         -4    1    3    3    0  502  0.12938697038E+03  0.26376756074E+03 -0.46051863890E+03  0.54625244254E+03  0.00000000000E+00 0. -1.
        -13    1    1    2    0    0  0.16012751460E+03 -0.29070999163E+03 -0.11224062835E+03  0.35035851635E+03  0.10566000000E+00 0.  1.
<mgrwt>
<rscale>  1 0.65356279E+03</rscale>
<asrwt>0</asrwt>
<pdfrwt beam="1">  1       21 0.61981365E-01 0.81918793E+03</pdfrwt>
<pdfrwt beam="2">  1       -4 0.12652369E+00 0.81918793E+03</pdfrwt>
<totfact> 0.44390682E+01</totfact>
</mgrwt>
</event>
<event>
 6    2  0.2294477E-005  0.1067194E+04  0.7818608E-02  0.9645811E-01
         -4   -1    0    0    0  501 -0.00000000000E+00  0.00000000000E+00  0.37688219438E+03  0.37688219438E+03  0.00000000000E+00 0. -1.
         21   -1    0    0  501  502  0.00000000000E+00 -0.00000000000E+00 -0.11852223527E+04  0.11852223527E+04  0.00000000000E+00 0. -1.
   -9000010    2    1    2    0  502 -0.25068321917E+03  0.16710665834E+02 -0.54559980897E+03  0.11985748715E+04  0.10371987506E+04 0.  0.
         13    1    3    3    0    0 -0.45081457380E+03  0.42017151591E+03 -0.29596513898E+03  0.68364702690E+03  0.10566000000E+00 0. -1.
         -4    1    3    3    0  502  0.20013135463E+03 -0.40346085007E+03 -0.24963466998E+03  0.51492784456E+03  0.00000000000E+00 0. -1.
        -13    1    1    2    0    0  0.25068321917E+03 -0.16710665834E+02 -0.26274034939E+03  0.36352967566E+03  0.10566000000E+00 0.  1.
<mgrwt>
<rscale>  1 0.74336916E+03</rscale>
<asrwt>0</asrwt>
<pdfrwt beam="2">  1       21 0.18234190E+00 0.10671938E+04</pdfrwt>
<pdfrwt beam="1">  1       -4 0.57981875E-01 0.10671938E+04</pdfrwt>
<totfact> 0.17154946E+01</totfact>
</mgrwt>
</event>
<event>
 6    2  0.2294477E-005  0.1072094E+04  0.7818608E-02  0.9520146E-01
         21   -1    0    0  501  502  0.00000000000E+00  0.00000000000E+00  0.51100630765E+03  0.51100630765E+03  0.00000000000E+00 0. -1.
         -4   -1    0    0    0  501 -0.00000000000E+00 -0.00000000000E+00 -0.10655750184E+04  0.10655750184E+04  0.00000000000E+00 0. -1.
   -9000010    2    1    2    0  502  0.19900171720E+03 -0.32572841377E+03 -0.52497752390E+03  0.11937284398E+04  0.10018410575E+04 0.  0.
         13    1    3    3    0    0 -0.58379096275E+02 -0.62818728807E+03 -0.15210394040E+03  0.64897072940E+03  0.10566000000E+00 0. -1.
         -4    1    3    3    0  502  0.25738081347E+03  0.30245887430E+03 -0.37287358351E+03  0.54475771042E+03  0.00000000000E+00 0. -1.
        -13    1    1    2    0    0 -0.19900171720E+03  0.32572841377E+03 -0.29591186848E+02  0.38285288622E+03  0.10566000000E+00 0.  1.
<mgrwt>
<rscale>  1 0.82814712E+03</rscale>
<asrwt>0</asrwt>
<pdfrwt beam="1">  1       21 0.78616355E-01 0.10720943E+04</pdfrwt>
<pdfrwt beam="2">  1       -4 0.16393462E+00 0.10720943E+04</pdfrwt>
<totfact> 0.12638412E+01</totfact>
</mgrwt>
</event>
<event>
 6    2  0.2294477E-005  0.9936981E+03  0.7818608E-02  0.9629468E-01
         -4   -1    0    0    0  501 -0.00000000000E+00  0.00000000000E+00  0.20745655666E+04  0.20745655666E+04  0.00000000000E+00 0. -1.
         21   -1    0    0  501  502  0.00000000000E+00 -0.00000000000E+00 -0.31620719634E+03  0.31620719634E+03  0.00000000000E+00 0. -1.
   -9000010    2    1    2    0  502 -0.19293001689E+02 -0.32841553494E+03  0.54445153685E+03  0.11330769353E+04  0.93766032326E+03 0.  0.
         13    1    3    3    0    0 -0.69345397113E+02  0.18563296878E+03 -0.16339299560E+03  0.25683781920E+03  0.10566000000E+00 0. -1.
         -4    1    3    3    0  502  0.50052395423E+02 -0.51404850371E+03  0.70784453245E+03  0.87623911610E+03  0.00000000000E+00 0. -1.
        -13    1    1    2    0    0  0.19293001689E+02  0.32841553494E+03  0.12139068334E+04  0.12576958277E+04  0.10566000000E+00 0.  1.
<mgrwt>
<rscale>  1 0.75376122E+03</rscale>
<asrwt>0</asrwt>
<pdfrwt beam="2">  1       21 0.48647262E-01 0.99369808E+03</pdfrwt>
<pdfrwt beam="1">  1       -4 0.31916393E+00 0.99369808E+03</pdfrwt>
<totfact> 0.37736214E+00</totfact>
</mgrwt>
</event>
<event>
 6    2  0.2294477E-005  0.9882080E+03  0.7818608E-02  0.1010062E+00
         21   -1    0    0  501  502  0.00000000000E+00  0.00000000000E+00  0.13125431326E+04  0.13125431326E+04  0.00000000000E+00 0. -1.
         -4   -1    0    0    0  501 -0.00000000000E+00 -0.00000000000E+00 -0.21805176312E+03  0.21805176312E+03  0.00000000000E+00 0. -1.
   -9000010    2    1    2    0  502  0.72599043717E+02  0.12119837996E+01  0.10631898457E+04  0.14515260232E+04  0.98553693888E+03 0.  0.
         13    1    3    3    0    0 -0.28523161088E+03 -0.10299042513E+03 -0.22067125916E+02  0.30405767336E+03  0.10566000000E+00 0. -1.
         -4    1    3    3    0  502  0.35783065460E+03  0.10420240893E+03  0.10852569716E+04  0.11474683498E+04  0.00000000000E+00 0. -1.
        -13    1    1    2    0    0 -0.72599043717E+02 -0.12119837996E+01  0.31301523830E+02  0.79068872582E+02  0.10566000000E+00 0.  1.
<mgrwt>
<rscale>  1 0.51449867E+03</rscale>
<asrwt>0</asrwt>
<pdfrwt beam="1">  1       21 0.20192971E+00 0.98820805E+03</pdfrwt>
<pdfrwt beam="2">  1       -4 0.33546426E-01 0.98820805E+03</pdfrwt>
<totfact> 0.39196556E+01</totfact>
</mgrwt>
</event>
<event>
 6    2  0.2294477E-005  0.1380423E+04  0.7818608E-02  0.9062018E-01
         21   -1    0    0  501  502  0.00000000000E+00  0.00000000000E+00  0.20472682862E+04  0.20472682862E+04  0.00000000000E+00 0.  1.
         -4   -1    0    0    0  501 -0.00000000000E+00 -0.00000000000E+00 -0.11397356749E+04  0.11397356749E+04  0.00000000000E+00 0. -1.
   -9000010    2    1    2    0  502 -0.54997125541E+03 -0.78409535114E+03 -0.51393557177E+03  0.14729894606E+04  0.99412990981E+03 0.  0.
         13    1    3    3    0    0 -0.55665313729E+03 -0.20017053171E+03  0.12793682144E+03  0.60522623742E+03  0.10566000000E+00 0. -1.
         -4    1    3    3    0  502  0.66818818878E+01 -0.58392481943E+03 -0.64187239321E+03  0.86776322315E+03  0.00000000000E+00 0. -1.
        -13    1    1    2    0    0  0.54997125541E+03  0.78409535114E+03  0.14214681830E+04  0.17140145005E+04  0.10566000000E+00 0.  1.
<mgrwt>
<rscale>  1 0.12598581E+04</rscale>
<asrwt>0</asrwt>
<pdfrwt beam="1">  1       21 0.31496435E+00 0.13804232E+04</pdfrwt>
<pdfrwt beam="2">  1       -4 0.17534395E+00 0.13804232E+04</pdfrwt>
<totfact> 0.14836153E-01</totfact>
</mgrwt>
</event>
<event>
 6    2  0.2294477E-005  0.1036991E+04  0.7818608E-02  0.9612078E-01
         -4   -1    0    0    0  501 -0.00000000000E+00  0.00000000000E+00  0.18458653167E+03  0.18458653167E+03  0.00000000000E+00 0. -1.
         21   -1    0    0  501  502  0.00000000000E+00 -0.00000000000E+00 -0.26238190959E+04  0.26238190959E+04  0.00000000000E+00 0. -1.
   -9000010    2    1    2    0  502  0.22000594865E+03  0.21434639583E+03 -0.21475896905E+04  0.23848462199E+04  0.99045596524E+03 0.  0.
         13    1    3    3    0    0 -0.15785064873E+03  0.24930307227E+03 -0.19196147140E+04  0.19421610414E+04  0.10566000000E+00 0. -1.
         -4    1    3    3    0  502  0.37785659738E+03 -0.34956676433E+02 -0.22797497647E+03  0.44268517855E+03  0.00000000000E+00 0. -1.
        -13    1    1    2    0    0 -0.22000594865E+03 -0.21434639583E+03 -0.29164287376E+03  0.42355940767E+03  0.10566000000E+00 0.  1.
<mgrwt>
<rscale>  1 0.76501898E+03</rscale>
<asrwt>0</asrwt>
<pdfrwt beam="2">  1       21 0.40366445E+00 0.10369908E+04</pdfrwt>
<pdfrwt beam="1">  1       -4 0.28397930E-01 0.10369908E+04</pdfrwt>
<totfact> 0.27850280E+00</totfact>
</mgrwt>
</event>
<event>
 6    2  0.2294477E-005  0.1017998E+04  0.7818608E-02  0.1004063E+00
         -4   -1    0    0    0  501 -0.00000000000E+00  0.00000000000E+00  0.66188873380E+03  0.66188873380E+03  0.00000000000E+00 0. -1.
         21   -1    0    0  501  502  0.00000000000E+00 -0.00000000000E+00 -0.89076315797E+03  0.89076315797E+03  0.00000000000E+00 0. -1.
   -9000010    2    1    2    0  502 -0.28228183691E+02  0.74883523863E+02 -0.59415810917E+03  0.11787046305E+04  0.10148479565E+04 0.  0.
         13    1    3    3    0    0 -0.35636106630E+03 -0.33469980756E+03 -0.23262171019E+03  0.54141485201E+03  0.10566000000E+00 0. -1.
         -4    1    3    3    0  502  0.32813288261E+03  0.40958333142E+03 -0.36153639898E+03  0.63728977853E+03  0.00000000000E+00 0. -1.
        -13    1    1    2    0    0  0.28228183691E+02 -0.74883523863E+02  0.36528368499E+03  0.37394726124E+03  0.10566000000E+00 0.  1.
<mgrwt>
<rscale>  1 0.53903875E+03</rscale>
<asrwt>0</asrwt>
<pdfrwt beam="2">  1       21 0.13704049E+00 0.10179984E+04</pdfrwt>
<pdfrwt beam="1">  1       -4 0.10182904E+00 0.10179984E+04</pdfrwt>
<totfact> 0.10767599E+01</totfact>
</mgrwt>
</event>
<event>
 6    2  0.2294477E-005  0.1017607E+04  0.7818608E-02  0.9785251E-01
         -4   -1    0    0    0  501 -0.00000000000E+00  0.00000000000E+00  0.40381173234E+03  0.40381173234E+03  0.00000000000E+00 0. -1.
         21   -1    0    0  501  502  0.00000000000E+00 -0.00000000000E+00 -0.92921823736E+03  0.92921823736E+03  0.00000000000E+00 0.  1.
   -9000010    2    1    2    0  502 -0.72802777499E+02 -0.16660952043E+03 -0.33888617833E+03  0.10725519089E+04  0.10012316309E+04 0.  0.
         13    1    3    3    0    0  0.41032129585E+03 -0.30927367205E+03 -0.16659249653E+03  0.54015446042E+03  0.10566000000E+00 0. -1.
         -4    1    3    3    0  502 -0.48312407335E+03  0.14266415162E+03 -0.17229368181E+03  0.53239744852E+03  0.00000000000E+00 0. -1.
        -13    1    1    2    0    0  0.72802777499E+02  0.16660952043E+03 -0.18652032668E+03  0.26047806076E+03  0.10566000000E+00 0.  1.
<mgrwt>
<rscale>  1 0.66160118E+03</rscale>
<asrwt>0</asrwt>
<pdfrwt beam="2">  1       21 0.14295665E+00 0.10176069E+04</pdfrwt>
<pdfrwt beam="1">  1       -4 0.62124882E-01 0.10176069E+04</pdfrwt>
<totfact> 0.29880784E+01</totfact>
</mgrwt>
</event>
<event>
 6    2  0.2294477E-005  0.1219148E+04  0.7818608E-02  0.9232629E-01
         -4   -1    0    0    0  501 -0.00000000000E+00  0.00000000000E+00  0.55243839608E+03  0.55243839608E+03  0.00000000000E+00 0. -1.
         21   -1    0    0  501  502  0.00000000000E+00 -0.00000000000E+00 -0.29586236632E+04  0.29586236632E+04  0.00000000000E+00 0.  1.
   -9000010    2    1    2    0  502  0.71571189783E+03  0.14163344427E+03 -0.24941693034E+04  0.27761846852E+04  0.97673811171E+03 0.  0.
         13    1    3    3    0    0  0.29866983048E+03 -0.43222060004E+02 -0.70430415496E+02  0.30989073671E+03  0.10566000000E+00 0. -1.
         -4    1    3    3    0  502  0.41704206735E+03  0.18485550428E+03 -0.24237388879E+04  0.24662939485E+04  0.00000000000E+00 0. -1.
        -13    1    1    2    0    0 -0.71571189783E+03 -0.14163344427E+03  0.87984036254E+02  0.73487737414E+03  0.10566000000E+00 0.  1.
<mgrwt>
<rscale>  1 0.10722897E+04</rscale>
<asrwt>0</asrwt>
<pdfrwt beam="2">  1       21 0.45517287E+00 0.12191476E+04</pdfrwt>
<pdfrwt beam="1">  1       -4 0.84990522E-01 0.12191476E+04</pdfrwt>
<totfact> 0.11799344E-01</totfact>
</mgrwt>
</event>
<event>
 6    2  0.2294477E-005  0.1035942E+04  0.7818608E-02  0.9630217E-01
         -4   -1    0    0    0  501 -0.00000000000E+00  0.00000000000E+00  0.32256239232E+03  0.32256239232E+03  0.00000000000E+00 0. -1.
         21   -1    0    0  501  502  0.00000000000E+00 -0.00000000000E+00 -0.14131159738E+04  0.14131159738E+04  0.00000000000E+00 0. -1.
   -9000010    2    1    2    0  502  0.17934098101E+03  0.22740656463E+03 -0.97891927953E+03  0.14252928612E+04  0.99463553693E+03 0.  0.
         13    1    3    3    0    0 -0.17282116777E+03 -0.94154158480E+02 -0.92461236660E+03  0.94532544726E+03  0.10566000000E+00 0. -1.
         -4    1    3    3    0  502  0.35216214878E+03  0.32156072311E+03 -0.54306912925E+02  0.47996741397E+03  0.00000000000E+00 0. -1.
        -13    1    1    2    0    0 -0.17934098101E+03 -0.22740656463E+03 -0.11163430192E+03  0.31038550487E+03  0.10566000000E+00 0.  1.
<mgrwt>
<rscale>  1 0.75328107E+03</rscale>
<asrwt>0</asrwt>
<pdfrwt beam="2">  1       21 0.21740246E+00 0.10359425E+04</pdfrwt>
<pdfrwt beam="1">  1       -4 0.49624983E-01 0.10359425E+04</pdfrwt>
<totfact> 0.13753625E+01</totfact>
</mgrwt>
</event>
<event>
 6    2  0.2294477E-005  0.8064692E+03  0.7818608E-02  0.9804326E-01
         21   -1    0    0  501  502  0.00000000000E+00  0.00000000000E+00  0.95702219261E+03  0.95702219261E+03  0.00000000000E+00 0. -1.
         -4   -1    0    0    0  501 -0.00000000000E+00 -0.00000000000E+00 -0.37166923846E+03  0.37166923846E+03  0.00000000000E+00 0. -1.
   -9000010    2    1    2    0  502 -0.33831603016E+03 -0.56926786954E+02  0.23888139703E+03  0.84110457071E+03  0.72985901494E+03 0.  0.
         13    1    3    3    0    0 -0.30080689607E+03 -0.58469777615E+02 -0.22218660975E+03  0.37851077176E+03  0.10566000000E+00 0. -1.
         -4    1    3    3    0  502 -0.37509134090E+02  0.15429906604E+01  0.46106800678E+03  0.46259379896E+03  0.00000000000E+00 0. -1.
        -13    1    1    2    0    0  0.33831603016E+03  0.56926786954E+02  0.34647155712E+03  0.48758686036E+03  0.10566000000E+00 0.  1.
<mgrwt>
<rscale>  1 0.65130921E+03</rscale>
<asrwt>0</asrwt>
<pdfrwt beam="1">  1       21 0.14723418E+00 0.80646920E+03</pdfrwt>
<pdfrwt beam="2">  1       -4 0.57179883E-01 0.80646920E+03</pdfrwt>
<totfact> 0.33775600E+01</totfact>
</mgrwt>
</event>
<event>
 6    2  0.2294477E-005  0.1110220E+04  0.7818608E-02  0.9398718E-01
         -4   -1    0    0    0  501 -0.00000000000E+00  0.00000000000E+00  0.24718005410E+04  0.24718005410E+04  0.00000000000E+00 0. -1.
         21   -1    0    0  501  502  0.00000000000E+00 -0.00000000000E+00 -0.31840361567E+03  0.31840361567E+03  0.00000000000E+00 0. -1.
   -9000010    2    1    2    0  502 -0.34673443327E+03  0.39772628211E+03  0.89631131338E+03  0.14268717652E+04  0.97682040372E+03 0.  0.
         13    1    3    3    0    0 -0.19969491297E+03  0.65386030931E+03  0.27119328253E+03  0.73549790619E+03  0.10566000000E+00 0. -1.
         -4    1    3    3    0  502 -0.14703952030E+03 -0.25613402720E+03  0.62511803085E+03  0.69137385900E+03  0.00000000000E+00 0. -1.
        -13    1    1    2    0    0  0.34673443327E+03 -0.39772628211E+03  0.12570856120E+04  0.13633323915E+04  0.10566000000E+00 0.  1.
<mgrwt>
<rscale>  1 0.92181264E+03</rscale>
<asrwt>0</asrwt>
<pdfrwt beam="2">  1       21 0.48985173E-01 0.11102203E+04</pdfrwt>
<pdfrwt beam="1">  1       -4 0.38027699E+00 0.11102203E+04</pdfrwt>
<totfact> 0.14656801E+00</totfact>
</mgrwt>
</event>
<event>
 6    2  0.2294477E-005  0.9196223E+03  0.7818608E-02  0.1011445E+00
         -4   -1    0    0    0  501 -0.00000000000E+00  0.00000000000E+00  0.64751757883E+03  0.64751757883E+03  0.00000000000E+00 0. -1.
         21   -1    0    0  501  502  0.00000000000E+00 -0.00000000000E+00 -0.39568173442E+03  0.39568173442E+03  0.00000000000E+00 0. -1.
   -9000010    2    1    2    0  502 -0.72815219486E+02 -0.46385960792E+02  0.19568748826E+03  0.94021211691E+03  0.91556076706E+03 0.  0.
         13    1    3    3    0    0  0.60359828280E+01 -0.33755117268E+03  0.43819543658E+03  0.55316586940E+03  0.10566000000E+00 0. -1.
         -4    1    3    3    0  502 -0.78851202314E+02  0.29116521189E+03 -0.24250794831E+03  0.38704624751E+03  0.00000000000E+00 0. -1.
        -13    1    1    2    0    0  0.72815219486E+02  0.46385960792E+02  0.56148356149E+02  0.10298719634E+03  0.10566000000E+00 0.  1.
<mgrwt>
<rscale>  1 0.50904222E+03</rscale>
<asrwt>0</asrwt>
<pdfrwt beam="2">  1       21 0.60874113E-01 0.91962233E+03</pdfrwt>
<pdfrwt beam="1">  1       -4 0.99618089E-01 0.91962233E+03</pdfrwt>
<totfact> 0.82697958E+01</totfact>
</mgrwt>
</event>
<event>
 6    2  0.2294477E-005  0.1019761E+04  0.7818608E-02  0.9839519E-01
         -4   -1    0    0    0  501 -0.00000000000E+00  0.00000000000E+00  0.26743604059E+03  0.26743604059E+03  0.00000000000E+00 0. -1.
         21   -1    0    0  501  502  0.00000000000E+00 -0.00000000000E+00 -0.14301050737E+04  0.14301050737E+04  0.00000000000E+00 0. -1.
   -9000010    2    1    2    0  502  0.13105455638E+02  0.15067751658E+03 -0.11623742457E+04  0.15462944117E+04  0.10084825500E+04 0.  0.
         13    1    3    3    0    0 -0.34713506667E+03  0.35865975131E+03 -0.96375349319E+03  0.10853388312E+04  0.10566000000E+00 0. -1.
         -4    1    3    3    0  502  0.36024052231E+03 -0.20798223473E+03 -0.19862075247E+03  0.46095558049E+03  0.00000000000E+00 0. -1.
        -13    1    1    2    0    0 -0.13105455638E+02 -0.15067751658E+03 -0.29478741771E+00  0.15124670256E+03  0.10566000000E+00 0.  1.
<mgrwt>
<rscale>  1 0.63284168E+03</rscale>
<asrwt>0</asrwt>
<pdfrwt beam="2">  1       21 0.22001616E+00 0.10197610E+04</pdfrwt>
<pdfrwt beam="1">  1       -4 0.41144006E-01 0.10197610E+04</pdfrwt>
<totfact> 0.19551441E+01</totfact>
</mgrwt>
</event>
<event>
 6    2  0.2294477E-005  0.1008007E+04  0.7818608E-02  0.9732309E-01
         -4   -1    0    0    0  501 -0.00000000000E+00  0.00000000000E+00  0.52119540704E+03  0.52119540704E+03  0.00000000000E+00 0. -1.
         21   -1    0    0  501  502  0.00000000000E+00 -0.00000000000E+00 -0.10296408995E+04  0.10296408995E+04  0.00000000000E+00 0. -1.
   -9000010    2    1    2    0  502  0.10118006268E+03 -0.19863991575E+03 -0.72374304814E+03  0.12409197535E+04  0.98304761516E+03 0.  0.
         13    1    3    3    0    0 -0.35616630900E+03  0.18249576479E+03 -0.38812652348E+03  0.55749560826E+03  0.10566000000E+00 0. -1.
         -4    1    3    3    0  502  0.45734637168E+03 -0.38113568055E+03 -0.33561652466E+03  0.68342414524E+03  0.00000000000E+00 0. -1.
        -13    1    1    2    0    0 -0.10118006268E+03  0.19863991575E+03  0.21529755567E+03  0.30991655305E+03  0.10566000000E+00 0.  1.
<mgrwt>
<rscale>  1 0.69125289E+03</rscale>
<asrwt>0</asrwt>
<pdfrwt beam="2">  1       21 0.15840629E+00 0.10080069E+04</pdfrwt>
<pdfrwt beam="1">  1       -4 0.80183908E-01 0.10080069E+04</pdfrwt>
<totfact> 0.12667550E+01</totfact>
</mgrwt>
</event>
<event>
 6    2  0.2294477E-005  0.9710478E+03  0.7818608E-02  0.9659432E-01
         21   -1    0    0  501  502  0.00000000000E+00  0.00000000000E+00  0.26099552960E+03  0.26099552960E+03  0.00000000000E+00 0. -1.
         -4   -1    0    0    0  501 -0.00000000000E+00 -0.00000000000E+00 -0.16272935440E+04  0.16272935440E+04  0.00000000000E+00 0. -1.
   -9000010    2    1    2    0  502  0.27700218965E+03  0.15712693297E+03 -0.90252535986E+03  0.13257020382E+04  0.91734114852E+03 0.  0.
         13    1    3    3    0    0  0.61475476782E+03  0.61516000266E+02 -0.53210753047E+03  0.81538094041E+03  0.10566000000E+00 0. -1.
         -4    1    3    3    0  502 -0.33775257817E+03  0.95610932708E+02 -0.37041782940E+03  0.51032109779E+03  0.00000000000E+00 0. -1.
        -13    1    1    2    0    0 -0.27700218965E+03 -0.15712693297E+03 -0.46377265459E+03  0.56258703544E+03  0.10566000000E+00 0.  1.
<mgrwt>
<rscale>  1 0.73484447E+03</rscale>
<asrwt>0</asrwt>
<pdfrwt beam="1">  1       21 0.40153159E-01 0.97104782E+03</pdfrwt>
<pdfrwt beam="2">  1       -4 0.25035285E+00 0.97104782E+03</pdfrwt>
<totfact> 0.15143444E+01</totfact>
</mgrwt>
</event>
<event>
 6    2  0.2294477E-005  0.1003336E+04  0.7818608E-02  0.1026868E+00
         -4   -1    0    0    0  501 -0.00000000000E+00  0.00000000000E+00  0.85071985404E+03  0.85071985404E+03  0.00000000000E+00 0. -1.
         21   -1    0    0  501  502  0.00000000000E+00 -0.00000000000E+00 -0.32586557845E+03  0.32586557845E+03  0.00000000000E+00 0. -1.
   -9000010    2    1    2    0  502 -0.36150300253E+02  0.20678340929E+02  0.47067754623E+03  0.11082512012E+04  0.10024714133E+04 0.  0.
         13    1    3    3    0    0 -0.32266089244E+03 -0.25917331479E+03 -0.85772031739E+02  0.42265554675E+03  0.10566000000E+00 0. -1.
         -4    1    3    3    0  502  0.28651059219E+03  0.27985165572E+03  0.55644957797E+03  0.68559565449E+03  0.00000000000E+00 0. -1.
        -13    1    1    2    0    0  0.36150300253E+02 -0.20678340929E+02  0.54176729357E+02  0.68334231245E+02  0.10566000000E+00 0.  1.
<mgrwt>
<rscale>  1 0.45287676E+03</rscale>
<asrwt>0</asrwt>
<pdfrwt beam="2">  1       21 0.50133166E-01 0.10033361E+04</pdfrwt>
<pdfrwt beam="1">  1       -4 0.13087998E+00 0.10033361E+04</pdfrwt>
<totfact> 0.63862326E+01</totfact>
</mgrwt>
</event>
<event>
 6    2  0.2294477E-005  0.1039090E+04  0.7818608E-02  0.1020699E+00
         -4   -1    0    0    0  501 -0.00000000000E+00  0.00000000000E+00  0.16033026837E+03  0.16033026837E+03  0.00000000000E+00 0. -1.
         21   -1    0    0  501  502  0.00000000000E+00 -0.00000000000E+00 -0.21926435405E+04  0.21926435405E+04  0.00000000000E+00 0. -1.
   -9000010    2    1    2    0  502  0.29549358655E+02  0.34108052299E+02 -0.20547744464E+04  0.23025650860E+04  0.10381095441E+04 0.  0.
         13    1    3    3    0    0 -0.31828346007E+03 -0.39412442645E+02 -0.18786195329E+04  0.19057987990E+04  0.10566000000E+00 0. -1.
         -4    1    3    3    0  502  0.34783281873E+03  0.73520494944E+02 -0.17615491356E+03  0.39676628704E+03  0.00000000000E+00 0. -1.
        -13    1    1    2    0    0 -0.29549358655E+02 -0.34108052299E+02  0.22461174298E+02  0.50408722890E+02  0.10566000000E+00 0.  1.
<mgrwt>
<rscale>  1 0.47435267E+03</rscale>
<asrwt>0</asrwt>
<pdfrwt beam="2">  1       21 0.33732976E+00 0.10390900E+04</pdfrwt>
<pdfrwt beam="1">  1       -4 0.24666196E-01 0.10390900E+04</pdfrwt>
<totfact> 0.97360459E+00</totfact>
</mgrwt>
</event>
<event>
 6    2  0.2294477E-005  0.1001050E+04  0.7818608E-02  0.9679910E-01
         21   -1    0    0  501  502  0.00000000000E+00  0.00000000000E+00  0.10394623398E+04  0.10394623398E+04  0.00000000000E+00 0. -1.
         -4   -1    0    0    0  501 -0.00000000000E+00 -0.00000000000E+00 -0.43574787249E+03  0.43574787249E+03  0.00000000000E+00 0. -1.
   -9000010    2    1    2    0  502  0.23928303481E+03 -0.12778722398E+03  0.65883263657E+03  0.11983998637E+04  0.96359527025E+03 0.  0.
         13    1    3    3    0    0  0.58873918048E+03 -0.23535638393E+03  0.44784347541E+03  0.77625397887E+03  0.10566000000E+00 0. -1.
         -4    1    3    3    0  502 -0.34945614567E+03  0.10756915995E+03  0.21098916116E+03  0.42214588479E+03  0.00000000000E+00 0. -1.
        -13    1    1    2    0    0 -0.23928303481E+03  0.12778722398E+03 -0.55118169256E+02  0.27681034862E+03  0.10566000000E+00 0.  1.
<mgrwt>
<rscale>  1 0.72225625E+03</rscale>
<asrwt>0</asrwt>
<pdfrwt beam="1">  1       21 0.15991728E+00 0.10010503E+04</pdfrwt>
<pdfrwt beam="2">  1       -4 0.67038135E-01 0.10010503E+04</pdfrwt>
<totfact> 0.18491897E+01</totfact>
</mgrwt>
</event>
<event>
 6    2  0.2294477E-005  0.1046795E+04  0.7818608E-02  0.9592113E-01
         21   -1    0    0  501  502  0.00000000000E+00  0.00000000000E+00  0.10930527595E+04  0.10930527595E+04  0.00000000000E+00 0. -1.
         -4   -1    0    0    0  501 -0.00000000000E+00 -0.00000000000E+00 -0.46774970438E+03  0.46774970438E+03  0.00000000000E+00 0. -1.
   -9000010    2    1    2    0  502  0.31843648124E+03 -0.28769026096E+02  0.66263527020E+03  0.12388969578E+04  0.99677014464E+03 0.  0.
         13    1    3    3    0    0 -0.78157469062E+02  0.20551803422E+03  0.73986008156E+03  0.77184143696E+03  0.10566000000E+00 0. -1.
         -4    1    3    3    0  502  0.39659395030E+03 -0.23428706031E+03 -0.77224811363E+02  0.46705552082E+03  0.00000000000E+00 0. -1.
        -13    1    1    2    0    0 -0.31843648124E+03  0.28769026096E+02 -0.37332215032E+02  0.32190550615E+03  0.10566000000E+00 0.  1.
<mgrwt>
<rscale>  1 0.77820371E+03</rscale>
<asrwt>0</asrwt>
<pdfrwt beam="1">  1       21 0.16816196E+00 0.10467952E+04</pdfrwt>
<pdfrwt beam="2">  1       -4 0.71961493E-01 0.10467952E+04</pdfrwt>
<totfact> 0.13575338E+01</totfact>
</mgrwt>
</event>
<event>
 6    2  0.2294477E-005  0.1359182E+04  0.7818608E-02  0.9084503E-01
         -4   -1    0    0    0  501 -0.00000000000E+00  0.00000000000E+00  0.21123545477E+04  0.21123545477E+04  0.00000000000E+00 0. -1.
         21   -1    0    0  501  502  0.00000000000E+00 -0.00000000000E+00 -0.66695439682E+03  0.66695439682E+03  0.00000000000E+00 0. -1.
   -9000010    2    1    2    0  502  0.31020185539E+03  0.86645673678E+03  0.46969306994E+03  0.14380495413E+04  0.10002011975E+04 0.  0.
         13    1    3    3    0    0  0.42602258006E+03  0.30363866385E+03  0.65132596129E+03  0.83541438575E+03  0.10566000000E+00 0. -1.
         -4    1    3    3    0  502 -0.11582072466E+03  0.56281807293E+03 -0.18163289135E+03  0.60263515555E+03  0.00000000000E+00 0. -1.
        -13    1    1    2    0    0 -0.31020185539E+03 -0.86645673678E+03  0.97570708098E+03  0.13412594033E+04  0.10566000000E+00 0.  1.
<mgrwt>
<rscale>  1 0.12329396E+04</rscale>
<asrwt>0</asrwt>
<pdfrwt beam="2">  1       21 0.10260837E+00 0.13591817E+04</pdfrwt>
<pdfrwt beam="1">  1       -4 0.32497762E+00 0.13591817E+04</pdfrwt>
<totfact> 0.58608982E-01</totfact>
</mgrwt>
</event>
<event>
 6    2  0.2294477E-005  0.1006529E+04  0.7818608E-02  0.9673943E-01
         21   -1    0    0  501  502  0.00000000000E+00  0.00000000000E+00  0.20175527068E+04  0.20175527068E+04  0.00000000000E+00 0. -1.
         -4   -1    0    0    0  501 -0.00000000000E+00 -0.00000000000E+00 -0.20652262344E+03  0.20652262344E+03  0.00000000000E+00 0. -1.
   -9000010    2    1    2    0  502 -0.22594662209E+03  0.15194050935E+03  0.15410481218E+04  0.18406329419E+04  0.96900078366E+03 0.  0.
         13    1    3    3    0    0 -0.60663547553E+03  0.10326919223E+03  0.10547494388E+04  0.12211337011E+04  0.10566000000E+00 0. -1.
         -4    1    3    3    0  502  0.38068885344E+03  0.48671317112E+02  0.48629868306E+03  0.61949924083E+03  0.00000000000E+00 0. -1.
        -13    1    1    2    0    0  0.22594662209E+03 -0.15194050935E+03  0.26998196148E+03  0.38344238825E+03  0.10566000000E+00 0.  1.
<mgrwt>
<rscale>  1 0.72589639E+03</rscale>
<asrwt>0</asrwt>
<pdfrwt beam="1">  1       21 0.31039271E+00 0.10065288E+04</pdfrwt>
<pdfrwt beam="2">  1       -4 0.31772713E-01 0.10065288E+04</pdfrwt>
<totfact> 0.88261696E+00</totfact>
</mgrwt>
</event>
<event>
 6    2  0.2294477E-005  0.1067515E+04  0.7818608E-02  0.9620852E-01
         -4   -1    0    0    0  501 -0.00000000000E+00  0.00000000000E+00  0.56903172698E+03  0.56903172698E+03  0.00000000000E+00 0. -1.
         21   -1    0    0  501  502  0.00000000000E+00 -0.00000000000E+00 -0.93228509628E+03  0.93228509628E+03  0.00000000000E+00 0. -1.
   -9000010    2    1    2    0  502 -0.16965537196E+03 -0.21420361268E+03 -0.51879026486E+03  0.11869001094E+04  0.10319507730E+04 0.  0.
         13    1    3    3    0    0 -0.26495940210E+03 -0.33595923202E+03 -0.77637563905E+03  0.88647122594E+03  0.10566000000E+00 0. -1.
         -4    1    3    3    0  502  0.95304030136E+02  0.12175561934E+03  0.25758537420E+03  0.30042888343E+03  0.00000000000E+00 0. -1.
        -13    1    1    2    0    0  0.16965537196E+03  0.21420361268E+03  0.15553689556E+03  0.31441671388E+03  0.10566000000E+00 0.  1.
<mgrwt>
<rscale>  1 0.75931327E+03</rscale>
<asrwt>0</asrwt>
<pdfrwt beam="2">  1       21 0.14342848E+00 0.10675151E+04</pdfrwt>
<pdfrwt beam="1">  1       -4 0.87543343E-01 0.10675151E+04</pdfrwt>
<totfact> 0.13549890E+01</totfact>
</mgrwt>
</event>
<event>
 6    2  0.2294477E-005  0.1261496E+04  0.7818608E-02  0.9189097E-01
         21   -1    0    0  501  502  0.00000000000E+00  0.00000000000E+00  0.25638753788E+04  0.25638753788E+04  0.00000000000E+00 0.  1.
         -4   -1    0    0    0  501 -0.00000000000E+00 -0.00000000000E+00 -0.65938503478E+03  0.65938503478E+03  0.00000000000E+00 0. -1.
   -9000010    2    1    2    0  502  0.45846807093E+03 -0.62426505024E+03  0.20766895998E+04  0.24298170194E+04  0.99572648282E+03 0.  0.
         13    1    3    3    0    0  0.20714926801E+03 -0.17082236058E+03 -0.20709373905E+02  0.26929535354E+03  0.10566000000E+00 0. -1.
         -4    1    3    3    0  502  0.25131880292E+03 -0.45344268967E+03  0.20973989737E+04  0.21605216658E+04  0.00000000000E+00 0. -1.
        -13    1    1    2    0    0 -0.45846807093E+03  0.62426505024E+03 -0.17219925577E+03  0.79344339424E+03  0.10566000000E+00 0.  1.
<mgrwt>
<rscale>  1 0.11166682E+04</rscale>
<asrwt>0</asrwt>
<pdfrwt beam="1">  1       21 0.39444236E+00 0.12614956E+04</pdfrwt>
<pdfrwt beam="2">  1       -4 0.10144385E+00 0.12614956E+04</pdfrwt>
<totfact> 0.19700741E-01</totfact>
</mgrwt>
</event>
<event>
 6    2  0.2294477E-005  0.9951733E+03  0.7818608E-02  0.1017445E+00
         21   -1    0    0  501  502  0.00000000000E+00  0.00000000000E+00  0.72480289244E+03  0.72480289244E+03  0.00000000000E+00 0. -1.
         -4   -1    0    0    0  501 -0.00000000000E+00 -0.00000000000E+00 -0.38569222323E+03  0.38569222323E+03  0.00000000000E+00 0. -1.
   -9000010    2    1    2    0  502 -0.35042405865E+02  0.44571993943E+02  0.34549177703E+03  0.10534393311E+04  0.99355685466E+03 0.  0.
         13    1    3    3    0    0 -0.49045369740E+03  0.91363426637E+02  0.34684925782E+02  0.50009515121E+03  0.10566000000E+00 0. -1.
         -4    1    3    3    0  502  0.45541129153E+03 -0.46791432694E+02  0.31080685125E+03  0.55334417988E+03  0.00000000000E+00 0. -1.
        -13    1    1    2    0    0  0.35042405865E+02 -0.44571993943E+02 -0.63811078171E+01  0.57055784579E+02  0.10566000000E+00 0.  1.
<mgrwt>
<rscale>  1 0.48620077E+03</rscale>
<asrwt>0</asrwt>
<pdfrwt beam="1">  1       21 0.11150814E+00 0.99517328E+03</pdfrwt>
<pdfrwt beam="2">  1       -4 0.59337265E-01 0.99517328E+03</pdfrwt>
<totfact> 0.63714448E+01</totfact>
</mgrwt>
</event>
<event>
 6    2  0.2294477E-005  0.9797211E+03  0.7818608E-02  0.1002188E+00
         -4   -1    0    0    0  501 -0.00000000000E+00  0.00000000000E+00  0.40666362243E+03  0.40666362243E+03  0.00000000000E+00 0. -1.
         21   -1    0    0  501  502  0.00000000000E+00 -0.00000000000E+00 -0.75693918390E+03  0.75693918390E+03  0.00000000000E+00 0. -1.
   -9000010    2    1    2    0  502  0.93540268594E+02  0.17746658046E+02 -0.39754456259E+03  0.10573056034E+04  0.97508396253E+03 0.  0.
         13    1    3    3    0    0  0.14417579175E+02  0.41162511724E+03  0.94001761623E+02  0.42246827820E+03  0.10566000000E+00 0. -1.
         -4    1    3    3    0  502  0.79122689419E+02 -0.39387845920E+03 -0.49154632422E+03  0.63483732519E+03  0.00000000000E+00 0. -1.
        -13    1    1    2    0    0 -0.93540268594E+02 -0.17746658046E+02  0.47269001124E+02  0.10629720293E+03  0.10566000000E+00 0.  1.
<mgrwt>
<rscale>  1 0.54701124E+03</rscale>
<asrwt>0</asrwt>
<pdfrwt beam="2">  1       21 0.11645218E+00 0.97972111E+03</pdfrwt>
<pdfrwt beam="1">  1       -4 0.62563634E-01 0.97972111E+03</pdfrwt>
<totfact> 0.50884249E+01</totfact>
</mgrwt>
</event>
<event>
 6    2  0.2294477E-005  0.1013011E+04  0.7818608E-02  0.9859306E-01
         -4   -1    0    0    0  501 -0.00000000000E+00  0.00000000000E+00  0.86938662413E+03  0.86938662413E+03  0.00000000000E+00 0. -1.
         21   -1    0    0  501  502  0.00000000000E+00 -0.00000000000E+00 -0.41235598542E+03  0.41235598542E+03  0.00000000000E+00 0. -1.
   -9000010    2    1    2    0  502 -0.94218532738E+02 -0.10979386654E+03  0.27587446126E+03  0.10499034480E+04  0.10026259057E+04 0.  0.
         13    1    3    3    0    0  0.11480818632E+03  0.22362446963E+03  0.52644337578E+03  0.58337934668E+03  0.10566000000E+00 0. -1.
         -4    1    3    3    0  502 -0.20902671906E+03 -0.33341833617E+03 -0.25056891453E+03  0.46652410131E+03  0.00000000000E+00 0. -1.
        -13    1    1    2    0    0  0.94218532738E+02  0.10979386654E+03  0.18115617745E+03  0.23183916156E+03  0.10566000000E+00 0.  1.
<mgrwt>
<rscale>  1 0.62274667E+03</rscale>
<asrwt>0</asrwt>
<pdfrwt beam="2">  1       21 0.63439382E-01 0.10130106E+04</pdfrwt>
<pdfrwt beam="1">  1       -4 0.13375179E+00 0.10130106E+04</pdfrwt>
<totfact> 0.35900327E+01</totfact>
</mgrwt>
</event>
<event>
 6    2  0.2294477E-005  0.1032270E+04  0.7818608E-02  0.9689239E-01
         21   -1    0    0  501  502  0.00000000000E+00  0.00000000000E+00  0.41596041041E+03  0.41596041041E+03  0.00000000000E+00 0. -1.
         -4   -1    0    0    0  501 -0.00000000000E+00 -0.00000000000E+00 -0.10197793695E+04  0.10197793695E+04  0.00000000000E+00 0. -1.
   -9000010    2    1    2    0  502  0.17428151141E+03 -0.16463561791E+03 -0.35857111974E+03  0.10927741172E+04  0.10040433713E+04 0.  0.
         13    1    3    3    0    0 -0.77510602783E+02 -0.22909167174E+02 -0.66599377975E+03  0.67088035395E+03  0.10566000000E+00 0. -1.
         -4    1    3    3    0  502  0.25179211419E+03 -0.14172645073E+03  0.30742266001E+03  0.42189376328E+03  0.00000000000E+00 0. -1.
        -13    1    1    2    0    0 -0.17428151141E+03  0.16463561791E+03 -0.24524783932E+03  0.34296566265E+03  0.10566000000E+00 0.  1.
<mgrwt>
<rscale>  1 0.71661134E+03</rscale>
<asrwt>0</asrwt>
<pdfrwt beam="1">  1       21 0.63993909E-01 0.10322703E+04</pdfrwt>
<pdfrwt beam="2">  1       -4 0.15688913E+00 0.10322703E+04</pdfrwt>
<totfact> 0.22994213E+01</totfact>
</mgrwt>
</event>
<event>
 6    2  0.2294477E-005  0.9964655E+03  0.7818608E-02  0.1003323E+00
         -4   -1    0    0    0  501 -0.00000000000E+00  0.00000000000E+00  0.73508972480E+03  0.73508972480E+03  0.00000000000E+00 0. -1.
         21   -1    0    0  501  502  0.00000000000E+00 -0.00000000000E+00 -0.40084825371E+03  0.40084825371E+03  0.00000000000E+00 0. -1.
   -9000010    2    1    2    0  502 -0.12643069257E+02 -0.86407598511E+02  0.32498265906E+03  0.10481207988E+04  0.99263153284E+03 0.  0.
         13    1    3    3    0    0  0.16094943786E+02 -0.52052666180E+03  0.32345303475E+03  0.61304888036E+03  0.10566000000E+00 0. -1.
         -4    1    3    3    0  502 -0.28738013043E+02  0.43411906329E+03  0.15296243116E+01  0.43507191848E+03  0.00000000000E+00 0. -1.
        -13    1    1    2    0    0  0.12643069257E+02  0.86407598511E+02  0.92588120283E+01  0.87817179668E+02  0.10566000000E+00 0.  1.
<mgrwt>
<rscale>  1 0.54216913E+03</rscale>
<asrwt>0</asrwt>
<pdfrwt beam="2">  1       21 0.61668962E-01 0.99646549E+03</pdfrwt>
<pdfrwt beam="1">  1       -4 0.11309073E+00 0.99646549E+03</pdfrwt>
<totfact> 0.58581496E+01</totfact>
</mgrwt>
</event>
<event>
 6    2  0.2294477E-005  0.1231200E+04  0.7818608E-02  0.9228572E-01
         -4   -1    0    0    0  501 -0.00000000000E+00  0.00000000000E+00  0.66985243879E+03  0.66985243879E+03  0.00000000000E+00 0. -1.
         21   -1    0    0  501  502  0.00000000000E+00 -0.00000000000E+00 -0.21435944062E+04  0.21435944062E+04  0.00000000000E+00 0. -1.
   -9000010    2    1    2    0  502  0.30267296470E+03 -0.65231804994E+03 -0.16636444375E+04  0.20696775789E+04  0.99936114797E+03 0.  0.
         13    1    3    3    0    0  0.18494415057E+03 -0.88172415646E+03 -0.94249875430E+03  0.13038196731E+04  0.10566000000E+00 0. -1.
         -4    1    3    3    0  502  0.11772881414E+03  0.22940610652E+03 -0.72114568322E+03  0.76585790576E+03  0.00000000000E+00 0. -1.
        -13    1    1    2    0    0 -0.30267296470E+03  0.65231804994E+03  0.18990247017E+03  0.74376926609E+03  0.10566000000E+00 0.  1.
<mgrwt>
<rscale>  1 0.10763321E+04</rscale>
<asrwt>0</asrwt>
<pdfrwt beam="2">  1       21 0.32978375E+00 0.12311996E+04</pdfrwt>
<pdfrwt beam="1">  1       -4 0.10305422E+00 0.12311996E+04</pdfrwt>
<totfact> 0.49566339E-01</totfact>
</mgrwt>
</event>
<event>
 6    2  0.2294477E-005  0.1082807E+04  0.7818608E-02  0.9497265E-01
         21   -1    0    0  501  502  0.00000000000E+00  0.00000000000E+00  0.26002192500E+03  0.26002192500E+03  0.00000000000E+00 0. -1.
         -4   -1    0    0    0  501 -0.00000000000E+00 -0.00000000000E+00 -0.27174675511E+04  0.27174675511E+04  0.00000000000E+00 0. -1.
   -9000010    2    1    2    0  502  0.21223815925E+03  0.34059624078E+03 -0.10290580066E+04  0.14937974467E+04  0.10056935891E+04 0.  0.
         13    1    3    3    0    0  0.98966055434E+02  0.69811366845E+03 -0.62095465889E+03  0.93954333257E+03  0.10566000000E+00 0. -1.
         -4    1    3    3    0  502  0.11327210382E+03 -0.35751742767E+03 -0.40810334773E+03  0.55425411412E+03  0.00000000000E+00 0. -1.
        -13    1    1    2    0    0 -0.21223815925E+03 -0.34059624078E+03 -0.14283876195E+04  0.14836920294E+04  0.10566000000E+00 0.  1.
<mgrwt>
<rscale>  1 0.84485774E+03</rscale>
<asrwt>0</asrwt>
<pdfrwt beam="1">  1       21 0.40003374E-01 0.10828067E+04</pdfrwt>
<pdfrwt beam="2">  1       -4 0.41807192E+00 0.10828067E+04</pdfrwt>
<totfact> 0.12397294E+00</totfact>
</mgrwt>
</event>
<event>
 6    2  0.2294477E-005  0.1047861E+04  0.7818608E-02  0.9598994E-01
         -4   -1    0    0    0  501 -0.00000000000E+00  0.00000000000E+00  0.13348353291E+04  0.13348353291E+04  0.00000000000E+00 0. -1.
         21   -1    0    0  501  502  0.00000000000E+00 -0.00000000000E+00 -0.48052653489E+03  0.48052653489E+03  0.00000000000E+00 0. -1.
   -9000010    2    1    2    0  502  0.21045854366E+02  0.31061558234E+03  0.16733928810E+03  0.10611390312E+04  0.10005441711E+04 0.  0.
         13    1    3    3    0    0  0.27233404997E+03 -0.16148819962E+03  0.37200496563E+03  0.48849972263E+03  0.10566000000E+00 0. -1.
         -4    1    3    3    0  502 -0.25128819561E+03  0.47210378196E+03 -0.20466567753E+03  0.57263930860E+03  0.00000000000E+00 0. -1.
        -13    1    1    2    0    0 -0.21045854366E+02 -0.31061558234E+03  0.68696950609E+03  0.75422283275E+03  0.10566000000E+00 0.  1.
<mgrwt>
<rscale>  1 0.77362832E+03</rscale>
<asrwt>0</asrwt>
<pdfrwt beam="2">  1       21 0.73927160E-01 0.10478614E+04</pdfrwt>
<pdfrwt beam="1">  1       -4 0.20535928E+00 0.10478614E+04</pdfrwt>
<totfact> 0.75635655E+00</totfact>
</mgrwt>
</event>
<event>
 6    2  0.2294477E-005  0.9286336E+03  0.7818608E-02  0.1085029E+00
         -4   -1    0    0    0  501 -0.00000000000E+00  0.00000000000E+00  0.68847712844E+03  0.68847712844E+03  0.00000000000E+00 0. -1.
         21   -1    0    0  501  502  0.00000000000E+00 -0.00000000000E+00 -0.32015043667E+03  0.32015043667E+03  0.00000000000E+00 0. -1.
   -9000010    2    1    2    0  502  0.33769605467E+01  0.95945172916E+01  0.36623515797E+03  0.99824275397E+03  0.92857791612E+03 0.  0.
         13    1    3    3    0    0 -0.29634424265E+03 -0.14966085237E+03 -0.16274902185E+03  0.36973711764E+03  0.10566000000E+00 0. -1.
         -4    1    3    3    0  502  0.29972120319E+03  0.15925536967E+03  0.52898417981E+03  0.62850563634E+03  0.00000000000E+00 0. -1.
        -13    1    1    2    0    0 -0.33769605467E+01 -0.95945172916E+01  0.20915338056E+01  0.10384811134E+02  0.10566000000E+00 0.  1.
<mgrwt>
<rscale>  1 0.30042430E+03</rscale>
<asrwt>0</asrwt>
<pdfrwt beam="2">  1       21 0.49253913E-01 0.92863362E+03</pdfrwt>
<pdfrwt beam="1">  1       -4 0.10591956E+00 0.92863362E+03</pdfrwt>
<totfact> 0.11326981E+02</totfact>
</mgrwt>
</event>
<event>
 6    2  0.2294477E-005  0.1055714E+04  0.7818608E-02  0.9565853E-01
         21   -1    0    0  501  502  0.00000000000E+00  0.00000000000E+00  0.19048418440E+04  0.19048418440E+04  0.00000000000E+00 0. -1.
         -4   -1    0    0    0  501 -0.00000000000E+00 -0.00000000000E+00 -0.25869605192E+03  0.25869605192E+03  0.00000000000E+00 0. -1.
   -9000010    2    1    2    0  502  0.24158359240E+03  0.24090381590E+03  0.13332235165E+04  0.17005933611E+04  0.99906734213E+03 0.  0.
         13    1    3    3    0    0  0.50071885619E+03 -0.92362716772E+02  0.31601674127E+03  0.59926357834E+03  0.10566000000E+00 0. -1.
         -4    1    3    3    0  502 -0.25913526380E+03  0.33326653267E+03  0.10172067752E+04  0.11013297827E+04  0.00000000000E+00 0. -1.
        -13    1    1    2    0    0 -0.24158359240E+03 -0.24090381590E+03  0.31292227559E+03  0.46294453486E+03  0.10566000000E+00 0.  1.
<mgrwt>
<rscale>  1 0.79598097E+03</rscale>
<asrwt>0</asrwt>
<pdfrwt beam="1">  1       21 0.29305258E+00 0.10557144E+04</pdfrwt>
<pdfrwt beam="2">  1       -4 0.39799394E-01 0.10557144E+04</pdfrwt>
<totfact> 0.71442491E+00</totfact>
</mgrwt>
</event>
<event>
 6    2  0.2294477E-005  0.1452194E+04  0.7818608E-02  0.9001068E-01
         -4   -1    0    0    0  501 -0.00000000000E+00  0.00000000000E+00  0.10871399960E+04  0.10871399960E+04  0.00000000000E+00 0. -1.
         21   -1    0    0  501  502  0.00000000000E+00 -0.00000000000E+00 -0.14306157636E+04  0.14306157636E+04  0.00000000000E+00 0.  1.
   -9000010    2    1    2    0  502 -0.88114975744E+03  0.55621217369E+03 -0.19704168041E+03  0.14655011183E+04  0.10114698348E+04 0.  0.
         13    1    3    3    0    0  0.11180050904E+00  0.34538771578E+02 -0.41668953480E+03  0.41811854636E+03  0.10566000000E+00 0. -1.
         -4    1    3    3    0  502 -0.88126155795E+03  0.52167340212E+03  0.21964785439E+03  0.10473825719E+04  0.00000000000E+00 0. -1.
        -13    1    1    2    0    0  0.88114975744E+03 -0.55621217369E+03 -0.14643408722E+03  0.10522546414E+04  0.10566000000E+00 0.  1.
<mgrwt>
<rscale>  1 0.13365560E+04</rscale>
<asrwt>0</asrwt>
<pdfrwt beam="2">  1       21 0.22009473E+00 0.14521942E+04</pdfrwt>
<pdfrwt beam="1">  1       -4 0.16725231E+00 0.14521942E+04</pdfrwt>
<totfact> 0.67961336E-01</totfact>
</mgrwt>
</event>
<event>
 6    2  0.2294477E-005  0.1110780E+04  0.7818608E-02  0.9408521E-01
         -4   -1    0    0    0  501 -0.00000000000E+00  0.00000000000E+00  0.11771969330E+04  0.11771969330E+04  0.00000000000E+00 0. -1.
         21   -1    0    0  501  502  0.00000000000E+00 -0.00000000000E+00 -0.13933900220E+04  0.13933900220E+04  0.00000000000E+00 0. -1.
   -9000010    2    1    2    0  502 -0.49037146058E+03  0.13539114263E+03 -0.10920611551E+04  0.15577000851E+04  0.98743964764E+03 0.  0.
         13    1    3    3    0    0 -0.12246212206E+03  0.25521913999E+02  0.18547154608E+03  0.22371420385E+03  0.10566000000E+00 0. -1.
         -4    1    3    3    0  502 -0.36790933853E+03  0.10986922863E+03 -0.12775327012E+04  0.13339858812E+04  0.00000000000E+00 0. -1.
        -13    1    1    2    0    0  0.49037146058E+03 -0.13539114263E+03  0.87586806606E+03  0.10128868699E+04  0.10566000000E+00 0.  1.
<mgrwt>
<rscale>  1 0.91377755E+03</rscale>
<asrwt>0</asrwt>
<pdfrwt beam="2">  1       21 0.21436770E+00 0.11107799E+04</pdfrwt>
<pdfrwt beam="1">  1       -4 0.18110722E+00 0.11107799E+04</pdfrwt>
<totfact> 0.62173747E-01</totfact>
</mgrwt>
</event>
<event>
 6    2  0.2294477E-005  0.9922445E+03  0.7818608E-02  0.9811247E-01
         -4   -1    0    0    0  501 -0.00000000000E+00  0.00000000000E+00  0.84760535814E+03  0.84760535814E+03  0.00000000000E+00 0. -1.
         21   -1    0    0  501  502  0.00000000000E+00 -0.00000000000E+00 -0.41363361646E+03  0.41363361646E+03  0.00000000000E+00 0. -1.
   -9000010    2    1    2    0  502  0.61958063237E+02 -0.16907305251E+03  0.29936772131E+03  0.10364218219E+04  0.97576875420E+03 0.  0.
         13    1    3    3    0    0  0.19609206623E+03 -0.16889723793E+03  0.62920645968E+03  0.68035222899E+03  0.10566000000E+00 0. -1.
         -4    1    3    3    0  502 -0.13413400300E+03 -0.17581457443E+00 -0.32983873837E+03  0.35606959292E+03  0.00000000000E+00 0. -1.
        -13    1    1    2    0    0 -0.61958063237E+02  0.16907305251E+03  0.13460402036E+03  0.22481715269E+03  0.10566000000E+00 0.  1.
<mgrwt>
<rscale>  1 0.64762440E+03</rscale>
<asrwt>0</asrwt>
<pdfrwt beam="2">  1       21 0.63635941E-01 0.99224451E+03</pdfrwt>
<pdfrwt beam="1">  1       -4 0.13040082E+00 0.99224451E+03</pdfrwt>
<totfact> 0.38127070E+01</totfact>
</mgrwt>
</event>
<event>
 6    2  0.2294477E-005  0.1338986E+04  0.7818608E-02  0.9123714E-01
         21   -1    0    0  501  502  0.00000000000E+00  0.00000000000E+00  0.76305281788E+03  0.76305281788E+03  0.00000000000E+00 0.  1.
         -4   -1    0    0    0  501 -0.00000000000E+00 -0.00000000000E+00 -0.16187150437E+04  0.16187150437E+04  0.00000000000E+00 0. -1.
   -9000010    2    1    2    0  502 -0.23929544485E+03 -0.79352678381E+03 -0.26746061811E+03  0.13654371039E+04  0.10516350298E+04 0.  0.
         13    1    3    3    0    0 -0.14838658084E+03 -0.87752991486E+03 -0.55743613705E+03  0.10501487451E+04  0.10566000000E+00 0. -1.
         -4    1    3    3    0  502 -0.90908864009E+02  0.84003131043E+02  0.28997551894E+03  0.31528835875E+03  0.00000000000E+00 0. -1.
        -13    1    1    2    0    0  0.23929544485E+03  0.79352678381E+03 -0.58820160770E+03  0.10163307577E+04  0.10566000000E+00 0.  1.
<mgrwt>
<rscale>  1 0.11876745E+04</rscale>
<asrwt>0</asrwt>
<pdfrwt beam="1">  1       21 0.11739274E+00 0.13389859E+04</pdfrwt>
<pdfrwt beam="2">  1       -4 0.24903308E+00 0.13389859E+04</pdfrwt>
<totfact> 0.12416940E+00</totfact>
</mgrwt>
</event>
<event>
 6    2  0.2294477E-005  0.9901260E+03  0.7818608E-02  0.9990088E-01
         -4   -1    0    0    0  501 -0.00000000000E+00  0.00000000000E+00  0.65034766706E+03  0.65034766706E+03  0.00000000000E+00 0. -1.
         21   -1    0    0  501  502  0.00000000000E+00 -0.00000000000E+00 -0.13511445450E+04  0.13511445450E+04  0.00000000000E+00 0. -1.
   -9000010    2    1    2    0  502  0.53228118897E+02  0.86948965423E+02 -0.11634544767E+04  0.15277355022E+04  0.98486348799E+03 0.  0.
         13    1    3    3    0    0 -0.23517975848E+03  0.16092148266E+03  0.40213590971E+02  0.28778878790E+03  0.10566000000E+00 0. -1.
         -4    1    3    3    0  502  0.28840787738E+03 -0.73972517240E+02 -0.12036680677E+04  0.12399467143E+04  0.00000000000E+00 0. -1.
        -13    1    1    2    0    0 -0.53228118897E+02 -0.86948965423E+02  0.46265759881E+03  0.47375670986E+03  0.10566000000E+00 0.  1.
<mgrwt>
<rscale>  1 0.56087021E+03</rscale>
<asrwt>0</asrwt>
<pdfrwt beam="2">  1       21 0.20786839E+00 0.99012597E+03</pdfrwt>
<pdfrwt beam="1">  1       -4 0.10005349E+00 0.99012597E+03</pdfrwt>
<totfact> 0.33167534E+00</totfact>
</mgrwt>
</event>
<event>
 6    2  0.2294477E-005  0.1050650E+04  0.7818608E-02  0.9525353E-01
         -4   -1    0    0    0  501 -0.00000000000E+00  0.00000000000E+00  0.65450130612E+03  0.65450130612E+03  0.00000000000E+00 0. -1.
         21   -1    0    0  501  502  0.00000000000E+00 -0.00000000000E+00 -0.80727902822E+03  0.80727902822E+03  0.00000000000E+00 0. -1.
   -9000010    2    1    2    0  502 -0.38389456486E+03 -0.10605159162E+03 -0.16386662792E+03  0.10633522329E+04  0.97223645399E+03 0.  0.
         13    1    3    3    0    0  0.25314013915E+03  0.85841125520E+02  0.17221752705E+03  0.31797408175E+03  0.10566000000E+00 0. -1.
         -4    1    3    3    0  502 -0.63703470401E+03 -0.19189271714E+03 -0.33608415496E+03  0.74537815116E+03  0.00000000000E+00 0. -1.
        -13    1    1    2    0    0  0.38389456486E+03  0.10605159162E+03  0.11088905815E+02  0.39842810144E+03  0.10566000000E+00 0.  1.
<mgrwt>
<rscale>  1 0.82440196E+03</rscale>
<asrwt>0</asrwt>
<pdfrwt beam="2">  1       21 0.12419677E+00 0.10506501E+04</pdfrwt>
<pdfrwt beam="1">  1       -4 0.10069251E+00 0.10506501E+04</pdfrwt>
<totfact> 0.14324850E+01</totfact>
</mgrwt>
</event>
<event>
 6    2  0.2294477E-005  0.1026070E+04  0.7818608E-02  0.1006461E+00
         21   -1    0    0  501  502  0.00000000000E+00  0.00000000000E+00  0.13267776231E+04  0.13267776231E+04  0.00000000000E+00 0. -1.
         -4   -1    0    0    0  501 -0.00000000000E+00 -0.00000000000E+00 -0.25978129781E+03  0.25978129781E+03  0.00000000000E+00 0. -1.
   -9000010    2    1    2    0  502  0.28943467136E+02  0.66498553419E+02  0.11022558541E+04  0.15059175703E+04  0.10235037757E+04 0.  0.
         13    1    3    3    0    0  0.11426086735E+03  0.30934164798E+03 -0.42576732017E+02  0.33250652663E+03  0.10566000000E+00 0. -1.
         -4    1    3    3    0  502 -0.85317400209E+02 -0.24284309456E+03  0.11448325861E+04  0.11734110437E+04  0.00000000000E+00 0. -1.
        -13    1    1    2    0    0 -0.28943467136E+02 -0.66498553419E+02 -0.35259528740E+02  0.80641350607E+02  0.10566000000E+00 0.  1.
<mgrwt>
<rscale>  1 0.52905868E+03</rscale>
<asrwt>0</asrwt>
<pdfrwt beam="1">  1       21 0.20411963E+00 0.10260701E+04</pdfrwt>
<pdfrwt beam="2">  1       -4 0.39966354E-01 0.10260701E+04</pdfrwt>
<totfact> 0.26503532E+01</totfact>
</mgrwt>
</event>
<event>
 6    2  0.2294477E-005  0.1005301E+04  0.7818608E-02  0.1004846E+00
         -4   -1    0    0    0  501 -0.00000000000E+00  0.00000000000E+00  0.30303727646E+03  0.30303727646E+03  0.00000000000E+00 0. -1.
         21   -1    0    0  501  502  0.00000000000E+00 -0.00000000000E+00 -0.10372217157E+04  0.10372217157E+04  0.00000000000E+00 0. -1.
   -9000010    2    1    2    0  502  0.57205760400E+02 -0.57474278302E+02 -0.75416831900E+03  0.12567415790E+04  0.10020248257E+04 0.  0.
         13    1    3    3    0    0  0.18798126722E+03  0.41922927605E+03 -0.16617928936E+03  0.48857518367E+03  0.10566000000E+00 0. -1.
         -4    1    3    3    0  502 -0.13077550682E+03 -0.47670355435E+03 -0.58798902964E+03  0.76816639532E+03  0.00000000000E+00 0. -1.
        -13    1    1    2    0    0 -0.57205760400E+02  0.57474278302E+02  0.19983879764E+02  0.83517413177E+02  0.10566000000E+00 0.  1.
<mgrwt>
<rscale>  1 0.53575421E+03</rscale>
<asrwt>0</asrwt>
<pdfrwt beam="2">  1       21 0.15957257E+00 0.10053007E+04</pdfrwt>
<pdfrwt beam="1">  1       -4 0.46621120E-01 0.10053007E+04</pdfrwt>
<totfact> 0.40641060E+01</totfact>
</mgrwt>
</event>
<event>
 6    2  0.2294477E-005  0.1010059E+04  0.7818608E-02  0.1015737E+00
         21   -1    0    0  501  502  0.00000000000E+00  0.00000000000E+00  0.37305831128E+03  0.37305831128E+03  0.00000000000E+00 0. -1.
         -4   -1    0    0    0  501 -0.00000000000E+00 -0.00000000000E+00 -0.87165754676E+03  0.87165754676E+03  0.00000000000E+00 0. -1.
   -9000010    2    1    2    0  502  0.25253932422E+02  0.51240483042E+02 -0.32360250431E+03  0.10606310534E+04  0.10084425132E+04 0.  0.
         13    1    3    3    0    0  0.10667992837E+03 -0.17319868935E+03 -0.63583207544E+03  0.66757833431E+03  0.10566000000E+00 0. -1.
         -4    1    3    3    0  502 -0.81425995949E+02  0.22443917240E+03  0.31222957113E+03  0.39305271913E+03  0.00000000000E+00 0. -1.
        -13    1    1    2    0    0 -0.25253932422E+02 -0.51240483042E+02 -0.17499673117E+03  0.18408480461E+03  0.10566000000E+00 0.  1.
<mgrwt>
<rscale>  1 0.49257033E+03</rscale>
<asrwt>0</asrwt>
<pdfrwt beam="1">  1       21 0.57393587E-01 0.10100592E+04</pdfrwt>
<pdfrwt beam="2">  1       -4 0.13410116E+00 0.10100592E+04</pdfrwt>
<totfact> 0.44602582E+01</totfact>
</mgrwt>
</event>
<event>
 6    2  0.2294477E-005  0.9393242E+03  0.7818608E-02  0.9834711E-01
         21   -1    0    0  501  502  0.00000000000E+00  0.00000000000E+00  0.12723175991E+04  0.12723175991E+04  0.00000000000E+00 0. -1.
         -4   -1    0    0    0  501 -0.00000000000E+00 -0.00000000000E+00 -0.25360147080E+03  0.25360147080E+03  0.00000000000E+00 0. -1.
   -9000010    2    1    2    0  502  0.70212113718E+02 -0.18361311708E+03  0.85208417333E+03  0.12682182021E+04  0.91852406177E+03 0.  0.
         13    1    3    3    0    0  0.40105645385E+03  0.16022271792E+03  0.24662505622E+03  0.49733442273E+03  0.10566000000E+00 0. -1.
         -4    1    3    3    0  502 -0.33084434013E+03 -0.34383583500E+03  0.60545911711E+03  0.77088377939E+03  0.00000000000E+00 0. -1.
        -13    1    1    2    0    0 -0.70212113718E+02  0.18361311708E+03  0.16663195497E+03  0.25770086779E+03  0.10566000000E+00 0.  1.
<mgrwt>
<rscale>  1 0.63532542E+03</rscale>
<asrwt>0</asrwt>
<pdfrwt beam="1">  1       21 0.19574117E+00 0.93932421E+03</pdfrwt>
<pdfrwt beam="2">  1       -4 0.39015612E-01 0.93932421E+03</pdfrwt>
<totfact> 0.32118431E+01</totfact>
</mgrwt>
</event>
<event>
 6    2  0.2294477E-005  0.1035179E+04  0.7818608E-02  0.9737167E-01
         -4   -1    0    0    0  501 -0.00000000000E+00  0.00000000000E+00  0.47612191237E+03  0.47612191237E+03  0.00000000000E+00 0. -1.
         21   -1    0    0  501  502  0.00000000000E+00 -0.00000000000E+00 -0.88723372993E+03  0.88723372993E+03  0.00000000000E+00 0. -1.
   -9000010    2    1    2    0  502 -0.69623403667E+02 -0.19018065344E+03 -0.49090369369E+03  0.11456796125E+04  0.10151744869E+04 0.  0.
         13    1    3    3    0    0 -0.61799674961E+02 -0.48539555558E+03 -0.64735577310E+03  0.81147862161E+03  0.10566000000E+00 0. -1.
         -4    1    3    3    0  502 -0.78237287061E+01  0.29521490214E+03  0.15645207941E+03  0.33420099091E+03  0.00000000000E+00 0. -1.
        -13    1    1    2    0    0  0.69623403667E+02  0.19018065344E+03  0.79791876130E+02  0.21767602978E+03  0.10566000000E+00 0.  1.
<mgrwt>
<rscale>  1 0.68846341E+03</rscale>
<asrwt>0</asrwt>
<pdfrwt beam="2">  1       21 0.13649750E+00 0.10351789E+04</pdfrwt>
<pdfrwt beam="1">  1       -4 0.73249525E-01 0.10351789E+04</pdfrwt>
<totfact> 0.23452538E+01</totfact>
</mgrwt>
</event>
<event>
 6    2  0.2294477E-005  0.9943863E+03  0.7818608E-02  0.1001180E+00
         21   -1    0    0  501  502  0.00000000000E+00  0.00000000000E+00  0.30543493089E+03  0.30543493089E+03  0.00000000000E+00 0. -1.
         -4   -1    0    0    0  501 -0.00000000000E+00 -0.00000000000E+00 -0.98661394786E+03  0.98661394786E+03  0.00000000000E+00 0. -1.
   -9000010    2    1    2    0  502  0.70819610717E+02 -0.61792142831E+02 -0.56889540228E+03  0.11456203724E+04  0.98993452953E+03 0.  0.
         13    1    3    3    0    0  0.76613183934E+02  0.45080098193E+03 -0.14284010087E+03  0.47905574920E+03  0.10566000000E+00 0. -1.
         -4    1    3    3    0  502 -0.57935732167E+01 -0.51259312476E+03 -0.42605530142E+03  0.66656462321E+03  0.00000000000E+00 0. -1.
        -13    1    1    2    0    0 -0.70819610717E+02  0.61792142831E+02 -0.11228361469E+03  0.14642850634E+03  0.10566000000E+00 0.  1.
<mgrwt>
<rscale>  1 0.55135860E+03</rscale>
<asrwt>0</asrwt>
<pdfrwt beam="1">  1       21 0.46989990E-01 0.99438627E+03</pdfrwt>
<pdfrwt beam="2">  1       -4 0.15178676E+00 0.99438627E+03</pdfrwt>
<totfact> 0.49728863E+01</totfact>
</mgrwt>
</event>
<event>
 6    2  0.2294477E-005  0.8695188E+03  0.7818608E-02  0.9908292E-01
         -4   -1    0    0    0  501 -0.00000000000E+00  0.00000000000E+00  0.97976446400E+03  0.97976446400E+03  0.00000000000E+00 0. -1.
         21   -1    0    0  501  502  0.00000000000E+00 -0.00000000000E+00 -0.41608684600E+03  0.41608684600E+03  0.00000000000E+00 0. -1.
   -9000010    2    1    2    0  502 -0.10182389022E+03  0.16667643072E+03  0.78763226090E+02  0.87307878220E+03  0.84729792692E+03 0.  0.
         13    1    3    3    0    0 -0.61999407007E+02 -0.34790820200E+03  0.30414012950E+02  0.35469573839E+03  0.10566000000E+00 0. -1.
         -4    1    3    3    0  502 -0.39824483217E+02  0.51458463272E+03  0.48349213139E+02  0.51838304381E+03  0.00000000000E+00 0. -1.
        -13    1    1    2    0    0  0.10182389022E+03 -0.16667643072E+03  0.48491439191E+03  0.52277252780E+03  0.10566000000E+00 0.  1.
<mgrwt>
<rscale>  1 0.59861119E+03</rscale>
<asrwt>0</asrwt>
<pdfrwt beam="2">  1       21 0.64013361E-01 0.86951878E+03</pdfrwt>
<pdfrwt beam="1">  1       -4 0.15073299E+00 0.86951878E+03</pdfrwt>
<totfact> 0.26024373E+01</totfact>
</mgrwt>
</event>
<event>
 6    2  0.2294477E-005  0.1059452E+04  0.7818608E-02  0.9947559E-01
         21   -1    0    0  501  502  0.00000000000E+00  0.00000000000E+00  0.78060418829E+03  0.78060418829E+03  0.00000000000E+00 0. -1.
         -4   -1    0    0    0  501 -0.00000000000E+00 -0.00000000000E+00 -0.55232682846E+03  0.55232682846E+03  0.00000000000E+00 0. -1.
   -9000010    2    1    2    0  502 -0.93480400952E+02  0.18188052540E+02  0.40334738281E+03  0.11336349688E+04  0.10551633715E+04 0.  0.
         13    1    3    3    0    0  0.36386079773E+03  0.33101100717E+03  0.10006891384E+03  0.50197287345E+03  0.10566000000E+00 0. -1.
         -4    1    3    3    0  502 -0.45734119869E+03 -0.31282295463E+03  0.30327846897E+03  0.63166209535E+03  0.00000000000E+00 0. -1.
        -13    1    1    2    0    0  0.93480400952E+02 -0.18188052540E+02 -0.17507002298E+03  0.19929604794E+03  0.10566000000E+00 0.  1.
<mgrwt>
<rscale>  1 0.58010737E+03</rscale>
<asrwt>0</asrwt>
<pdfrwt beam="1">  1       21 0.12009295E+00 0.10594523E+04</pdfrwt>
<pdfrwt beam="2">  1       -4 0.84973358E-01 0.10594523E+04</pdfrwt>
<totfact> 0.23367271E+01</totfact>
</mgrwt>
</event>
<event>
 6    2  0.2294477E-005  0.1034824E+04  0.7818608E-02  0.9840632E-01
         21   -1    0    0  501  502  0.00000000000E+00  0.00000000000E+00  0.91920095720E+03  0.91920095720E+03  0.00000000000E+00 0. -1.
         -4   -1    0    0    0  501 -0.00000000000E+00 -0.00000000000E+00 -0.44986084799E+03  0.44986084799E+03  0.00000000000E+00 0. -1.
   -9000010    2    1    2    0  502  0.95711100240E+02 -0.10787517860E+03  0.58091273226E+03  0.11867265913E+04  0.10247256857E+04 0.  0.
         13    1    3    3    0    0  0.52863431115E+03 -0.76331700621E+02  0.52523199801E+03  0.74909907645E+03  0.10566000000E+00 0. -1.
         -4    1    3    3    0  502 -0.43292321091E+03 -0.31543477982E+02  0.55680734249E+02  0.43762751480E+03  0.00000000000E+00 0. -1.
        -13    1    1    2    0    0 -0.95711100240E+02  0.10787517860E+03 -0.11157262305E+03  0.18233521395E+03  0.10566000000E+00 0.  1.
<mgrwt>
<rscale>  1 0.63226870E+03</rscale>
<asrwt>0</asrwt>
<pdfrwt beam="1">  1       21 0.14141553E+00 0.10348238E+04</pdfrwt>
<pdfrwt beam="2">  1       -4 0.69209361E-01 0.10348238E+04</pdfrwt>
<totfact> 0.24195161E+01</totfact>
</mgrwt>
</event>
<event>
 6    2  0.2294477E-005  0.1035853E+04  0.7818608E-02  0.9585254E-01
         21   -1    0    0  501  502  0.00000000000E+00  0.00000000000E+00  0.19687573864E+04  0.19687573864E+04  0.00000000000E+00 0. -1.
         -4   -1    0    0    0  501 -0.00000000000E+00 -0.00000000000E+00 -0.25398548460E+03  0.25398548460E+03  0.00000000000E+00 0. -1.
   -9000010    2    1    2    0  502  0.33395680335E+03 -0.51050415506E+02  0.14982795441E+04  0.18214920223E+04  0.97921310436E+03 0.  0.
         13    1    3    3    0    0 -0.98227403264E+02  0.83490512239E+01  0.13604105459E+04  0.13639777102E+04  0.10566000000E+00 0. -1.
         -4    1    3    3    0  502  0.43218420662E+03 -0.59399466730E+02  0.13786899813E+03  0.45751431206E+03  0.00000000000E+00 0. -1.
        -13    1    1    2    0    0 -0.33395680335E+03  0.51050415506E+02  0.21649235769E+03  0.40125084864E+03  0.10566000000E+00 0.  1.
<mgrwt>
<rscale>  1 0.78279883E+03</rscale>
<asrwt>0</asrwt>
<pdfrwt beam="1">  1       21 0.30288574E+00 0.10358531E+04</pdfrwt>
<pdfrwt beam="2">  1       -4 0.39074691E-01 0.10358531E+04</pdfrwt>
<totfact> 0.64628010E+00</totfact>
</mgrwt>
</event>
<event>
 6    2  0.2294477E-005  0.1205093E+04  0.7818608E-02  0.9254457E-01
         21   -1    0    0  501  502  0.00000000000E+00  0.00000000000E+00  0.37336477499E+03  0.37336477499E+03  0.00000000000E+00 0.  1.
         -4   -1    0    0    0  501 -0.00000000000E+00 -0.00000000000E+00 -0.24426471258E+04  0.24426471258E+04  0.00000000000E+00 0. -1.
   -9000010    2    1    2    0  502 -0.66029266700E+03  0.22262439512E+03 -0.11842132803E+04  0.16895593727E+04  0.98320992324E+03 0.  0.
         13    1    3    3    0    0 -0.86344592156E+03 -0.49673983704E+02 -0.87165815919E+03  0.12279227670E+04  0.10566000000E+00 0. -1.
         -4    1    3    3    0  502  0.20315325456E+03  0.27229837883E+03 -0.31255512114E+03  0.46163660568E+03  0.00000000000E+00 0. -1.
        -13    1    1    2    0    0  0.66029266700E+03 -0.22262439512E+03 -0.88506907050E+03  0.11264525281E+04  0.10566000000E+00 0.  1.
<mgrwt>
<rscale>  1 0.10508592E+04</rscale>
<asrwt>0</asrwt>
<pdfrwt beam="1">  1       21 0.57440733E-01 0.12050933E+04</pdfrwt>
<pdfrwt beam="2">  1       -4 0.37579188E+00 0.12050933E+04</pdfrwt>
<totfact> 0.10931316E+00</totfact>
</mgrwt>
</event>
<event>
 6    2  0.2294477E-005  0.1086940E+04  0.7818608E-02  0.9447151E-01
         21   -1    0    0  501  502  0.00000000000E+00  0.00000000000E+00  0.93803770409E+03  0.93803770409E+03  0.00000000000E+00 0. -1.
         -4   -1    0    0    0  501 -0.00000000000E+00 -0.00000000000E+00 -0.90367207779E+03  0.90367207779E+03  0.00000000000E+00 0. -1.
   -9000010    2    1    2    0  502  0.22606713892E+03  0.41580636368E+03  0.48314234913E+03  0.11894814158E+04  0.97848772383E+03 0.  0.
         13    1    3    3    0    0 -0.18045190092E+03  0.58098874623E+03  0.12041178088E+03  0.62016918654E+03  0.10566000000E+00 0. -1.
         -4    1    3    3    0  502  0.40651903985E+03 -0.16518238256E+03  0.36273056825E+03  0.56931222928E+03  0.00000000000E+00 0. -1.
        -13    1    1    2    0    0 -0.22606713892E+03 -0.41580636368E+03 -0.44877672283E+03  0.65222836607E+03  0.10566000000E+00 0.  1.
<mgrwt>
<rscale>  1 0.88294901E+03</rscale>
<asrwt>0</asrwt>
<pdfrwt beam="1">  1       21 0.14431349E+00 0.10869404E+04</pdfrwt>
<pdfrwt beam="2">  1       -4 0.13902647E+00 0.10869404E+04</pdfrwt>
<totfact> 0.42356254E+00</totfact>
</mgrwt>
</event>
<event>
 6    2  0.2294477E-005  0.1117661E+04  0.7818608E-02  0.9376392E-01
         21   -1    0    0  501  502  0.00000000000E+00  0.00000000000E+00  0.28957276296E+04  0.28957276296E+04  0.00000000000E+00 0.  1.
         -4   -1    0    0    0  501 -0.00000000000E+00 -0.00000000000E+00 -0.24412585909E+03  0.24412585909E+03  0.00000000000E+00 0. -1.
   -9000010    2    1    2    0  502 -0.49145031094E+03 -0.26903741048E+03  0.18617141969E+04  0.21714388427E+04  0.96708963415E+03 0.  0.
         13    1    3    3    0    0 -0.40604026674E+03  0.26116736984E+03  0.44590552357E+03  0.65719771789E+03  0.10566000000E+00 0. -1.
         -4    1    3    3    0  502 -0.85410044196E+02 -0.53020478032E+03  0.14158086733E+04  0.15142411249E+04  0.00000000000E+00 0. -1.
        -13    1    1    2    0    0  0.49145031094E+03  0.26903741048E+03  0.78988757356E+03  0.96841464590E+03  0.10566000000E+00 0.  1.
<mgrwt>
<rscale>  1 0.94044278E+03</rscale>
<asrwt>0</asrwt>
<pdfrwt beam="1">  1       21 0.44549653E+00 0.11176614E+04</pdfrwt>
<pdfrwt beam="2">  1       -4 0.37557827E-01 0.11176614E+04</pdfrwt>
<totfact> 0.82411555E-01</totfact>
</mgrwt>
</event>
<event>
 6    2  0.2294477E-005  0.1019920E+04  0.7818608E-02  0.9669885E-01
         -4   -1    0    0    0  501 -0.00000000000E+00  0.00000000000E+00  0.50700732543E+03  0.50700732543E+03  0.00000000000E+00 0. -1.
         21   -1    0    0  501  502  0.00000000000E+00 -0.00000000000E+00 -0.11269744012E+04  0.11269744012E+04  0.00000000000E+00 0. -1.
   -9000010    2    1    2    0  502 -0.77235828132E+02  0.25381318715E+03 -0.81430283178E+03  0.13051156379E+04  0.98481024534E+03 0.  0.
         13    1    3    3    0    0 -0.24328922872E+03  0.50744183648E+03 -0.82859479772E+03  0.10016267849E+04  0.10566000000E+00 0. -1.
         -4    1    3    3    0  502  0.16605340059E+03 -0.25362864934E+03  0.14291965946E+02  0.30348885301E+03  0.00000000000E+00 0. -1.
        -13    1    1    2    0    0  0.77235828132E+02 -0.25381318715E+03  0.19433575599E+03  0.32886608876E+03  0.10566000000E+00 0.  1.
<mgrwt>
<rscale>  1 0.72838486E+03</rscale>
<asrwt>0</asrwt>
<pdfrwt beam="2">  1       21 0.17338068E+00 0.10199205E+04</pdfrwt>
<pdfrwt beam="1">  1       -4 0.78001127E-01 0.10199205E+04</pdfrwt>
<totfact> 0.10369743E+01</totfact>
</mgrwt>
</event>
<event>
 6    2  0.2294477E-005  0.1014959E+04  0.7818608E-02  0.9834839E-01
         21   -1    0    0  501  502  0.00000000000E+00  0.00000000000E+00  0.16300104130E+03  0.16300104130E+03  0.00000000000E+00 0. -1.
         -4   -1    0    0    0  501 -0.00000000000E+00 -0.00000000000E+00 -0.24052039059E+04  0.24052039059E+04  0.00000000000E+00 0. -1.
   -9000010    2    1    2    0  502 -0.13826682052E+03 -0.71720256891E+02 -0.15085767386E+04  0.18182257390E+04  0.10029354678E+04 0.  0.
         13    1    3    3    0    0  0.47559557223E+02 -0.51706031155E+03 -0.63536830218E+03  0.82055235533E+03  0.10566000000E+00 0. -1.
         -4    1    3    3    0  502 -0.18582637774E+03  0.44534005466E+03 -0.87320843647E+03  0.99767338366E+03  0.00000000000E+00 0. -1.
        -13    1    1    2    0    0  0.13826682052E+03  0.71720256891E+02 -0.73362612594E+03  0.74997920820E+03  0.10566000000E+00 0.  1.
<mgrwt>
<rscale>  1 0.63525927E+03</rscale>
<asrwt>0</asrwt>
<pdfrwt beam="1">  1       21 0.25077085E-01 0.10149587E+04</pdfrwt>
<pdfrwt beam="2">  1       -4 0.37003135E+00 0.10149587E+04</pdfrwt>
<totfact> 0.69256517E+00</totfact>
</mgrwt>
</event>
<event>
 6    2  0.2294477E-005  0.1019514E+04  0.7818608E-02  0.9742765E-01
         -4   -1    0    0    0  501 -0.00000000000E+00  0.00000000000E+00  0.15405308858E+04  0.15405308858E+04  0.00000000000E+00 0. -1.
         21   -1    0    0  501  502  0.00000000000E+00 -0.00000000000E+00 -0.31414059159E+03  0.31414059159E+03  0.00000000000E+00 0. -1.
   -9000010    2    1    2    0  502  0.20175312878E+03 -0.50977239613E+02  0.57420826884E+03  0.11700953974E+04  0.99805064954E+03 0.  0.
         13    1    3    3    0    0 -0.18152427763E+03 -0.25209620216E+03 -0.13541531472E+03  0.33888180408E+03  0.10566000000E+00 0. -1.
         -4    1    3    3    0  502  0.38327740641E+03  0.20111896254E+03  0.70962358356E+03  0.83121359331E+03  0.00000000000E+00 0. -1.
        -13    1    1    2    0    0 -0.20175312878E+03  0.50977239613E+02  0.65218202540E+03  0.68457608004E+03  0.10566000000E+00 0.  1.
<mgrwt>
<rscale>  1 0.68526658E+03</rscale>
<asrwt>0</asrwt>
<pdfrwt beam="2">  1       21 0.48329323E-01 0.10195137E+04</pdfrwt>
<pdfrwt beam="1">  1       -4 0.23700475E+00 0.10195137E+04</pdfrwt>
<totfact> 0.12299378E+01</totfact>
</mgrwt>
</event>
<event>
 6    2  0.2294477E-005  0.1046657E+04  0.7818608E-02  0.9572574E-01
         21   -1    0    0  501  502  0.00000000000E+00  0.00000000000E+00  0.42568979101E+03  0.42568979101E+03  0.00000000000E+00 0. -1.
         -4   -1    0    0    0  501 -0.00000000000E+00 -0.00000000000E+00 -0.14954276057E+04  0.14954276057E+04  0.00000000000E+00 0. -1.
   -9000010    2    1    2    0  502  0.40424701389E+02 -0.33968850479E+03 -0.31589597805E+03  0.10932889347E+04  0.98917540857E+03 0.  0.
         13    1    3    3    0    0  0.62832890755E+02 -0.52923856921E+03  0.17951865064E+03  0.56237744656E+03  0.10566000000E+00 0. -1.
         -4    1    3    3    0  502 -0.22408189367E+02  0.18955006443E+03 -0.49541462869E+03  0.53091148810E+03  0.00000000000E+00 0. -1.
        -13    1    1    2    0    0 -0.40424701389E+02  0.33968850479E+03 -0.75384183668E+03  0.82782846210E+03  0.10566000000E+00 0.  1.
<mgrwt>
<rscale>  1 0.79138327E+03</rscale>
<asrwt>0</asrwt>
<pdfrwt beam="1">  1       21 0.65490737E-01 0.10466568E+04</pdfrwt>
<pdfrwt beam="2">  1       -4 0.23006579E+00 0.10466568E+04</pdfrwt>
<totfact> 0.69323240E+00</totfact>
</mgrwt>
</event>
<event>
 6    2  0.2294477E-005  0.1049427E+04  0.7818608E-02  0.9612258E-01
         21   -1    0    0  501  502  0.00000000000E+00  0.00000000000E+00  0.15105768896E+04  0.15105768896E+04  0.00000000000E+00 0. -1.
         -4   -1    0    0    0  501 -0.00000000000E+00 -0.00000000000E+00 -0.32837789797E+03  0.32837789797E+03  0.00000000000E+00 0. -1.
   -9000010    2    1    2    0  502 -0.29606581990E+03  0.84619623707E+01  0.11227967452E+04  0.15368700104E+04  0.10067622974E+04 0.  0.
         13    1    3    3    0    0 -0.15832509392E+03  0.46269857514E+03  0.87262815315E+03  0.10003183052E+04  0.10566000000E+00 0. -1.
         -4    1    3    3    0  502 -0.13774072598E+03 -0.45423661277E+03  0.25016859205E+03  0.53655170527E+03  0.00000000000E+00 0. -1.
        -13    1    1    2    0    0  0.29606581990E+03 -0.84619623707E+01  0.59402246397E+02  0.30208477711E+03  0.10566000000E+00 0.  1.
<mgrwt>
<rscale>  1 0.76490158E+03</rscale>
<asrwt>0</asrwt>
<pdfrwt beam="1">  1       21 0.23239644E+00 0.10494269E+04</pdfrwt>
<pdfrwt beam="2">  1       -4 0.50519677E-01 0.10494269E+04</pdfrwt>
<totfact> 0.10538282E+01</totfact>
</mgrwt>
</event>
<event>
 6    2  0.2294477E-005  0.9839363E+03  0.7818608E-02  0.9849764E-01
         21   -1    0    0  501  502  0.00000000000E+00  0.00000000000E+00  0.16726068515E+04  0.16726068515E+04  0.00000000000E+00 0. -1.
         -4   -1    0    0    0  501 -0.00000000000E+00 -0.00000000000E+00 -0.19833918177E+03  0.19833918177E+03  0.00000000000E+00 0. -1.
   -9000010    2    1    2    0  502 -0.10850120935E+03  0.12144665432E+03  0.11982118201E+04  0.15504329360E+04  0.97036535428E+03 0.  0.
         13    1    3    3    0    0 -0.40710573098E+03 -0.20740145464E+03  0.29485027775E+03  0.54377121755E+03  0.10566000000E+00 0. -1.
         -4    1    3    3    0  502  0.29860452162E+03  0.32884810896E+03  0.90336154237E+03  0.10066617184E+04  0.00000000000E+00 0. -1.
        -13    1    1    2    0    0  0.10850120935E+03 -0.12144665432E+03  0.27605584961E+03  0.32051309730E+03  0.10566000000E+00 0.  1.
<mgrwt>
<rscale>  1 0.62758956E+03</rscale>
<asrwt>0</asrwt>
<pdfrwt beam="1">  1       21 0.25732412E+00 0.98393634E+03</pdfrwt>
<pdfrwt beam="2">  1       -4 0.30513721E-01 0.98393634E+03</pdfrwt>
<totfact> 0.20562356E+01</totfact>
</mgrwt>
</event>
<event>
 6    2  0.2294477E-005  0.1005559E+04  0.7818608E-02  0.9788981E-01
         21   -1    0    0  501  502  0.00000000000E+00  0.00000000000E+00  0.38249959845E+03  0.38249959845E+03  0.00000000000E+00 0.  1.
         -4   -1    0    0    0  501 -0.00000000000E+00 -0.00000000000E+00 -0.94449161768E+03  0.94449161768E+03  0.00000000000E+00 0. -1.
   -9000010    2    1    2    0  502  0.94760305362E+02  0.16020804646E+03 -0.53465149681E+03  0.11388592174E+04  0.98818113742E+03 0.  0.
         13    1    3    3    0    0  0.53673015969E+03  0.16719292753E+03 -0.26976762468E+03  0.62354416189E+03  0.10566000000E+00 0. -1.
         -4    1    3    3    0  502 -0.44196985433E+03 -0.69848810698E+01 -0.26488387214E+03  0.51531505549E+03  0.00000000000E+00 0. -1.
        -13    1    1    2    0    0 -0.94760305362E+02 -0.16020804646E+03 -0.27340522414E+02  0.18813199875E+03  0.10566000000E+00 0.  1.
<mgrwt>
<rscale>  1 0.65957237E+03</rscale>
<asrwt>0</asrwt>
<pdfrwt beam="1">  1       21 0.58846093E-01 0.10055586E+04</pdfrwt>
<pdfrwt beam="2">  1       -4 0.14530640E+00 0.10055586E+04</pdfrwt>
<totfact> 0.34190063E+01</totfact>
</mgrwt>
</event>
<event>
 6    2  0.2294477E-005  0.1010874E+04  0.7818608E-02  0.9927894E-01
         21   -1    0    0  501  502  0.00000000000E+00  0.00000000000E+00  0.68160592745E+03  0.68160592745E+03  0.00000000000E+00 0. -1.
         -4   -1    0    0    0  501 -0.00000000000E+00 -0.00000000000E+00 -0.50157147427E+03  0.50157147427E+03  0.00000000000E+00 0. -1.
   -9000010    2    1    2    0  502  0.47621441997E+02  0.10658034611E+03  0.25740196236E+03  0.10431312859E+04  0.10041115165E+04 0.  0.
         13    1    3    3    0    0  0.47418926112E+03  0.17364509135E+03  0.33280872093E+03  0.60478899544E+03  0.10566000000E+00 0. -1.
         -4    1    3    3    0  502 -0.42656781913E+03 -0.67064745247E+02 -0.75406758571E+02  0.43834229046E+03  0.00000000000E+00 0. -1.
        -13    1    1    2    0    0 -0.47621441997E+02 -0.10658034611E+03 -0.77367509177E+02  0.14004611581E+03  0.10566000000E+00 0.  1.
<mgrwt>
<rscale>  1 0.58928267E+03</rscale>
<asrwt>0</asrwt>
<pdfrwt beam="1">  1       21 0.10486245E+00 0.10108744E+04</pdfrwt>
<pdfrwt beam="2">  1       -4 0.77164842E-01 0.10108744E+04</pdfrwt>
<totfact> 0.41407059E+01</totfact>
</mgrwt>
</event>
<event>
 6    2  0.2294477E-005  0.9856590E+03  0.7818608E-02  0.1044784E+00
         -4   -1    0    0    0  501 -0.00000000000E+00  0.00000000000E+00  0.35034414126E+03  0.35034414126E+03  0.00000000000E+00 0. -1.
         21   -1    0    0  501  502  0.00000000000E+00 -0.00000000000E+00 -0.86324512946E+03  0.86324512946E+03  0.00000000000E+00 0. -1.
   -9000010    2    1    2    0  502  0.24210644174E+02 -0.93957443005E+01 -0.57860566828E+03  0.11429383581E+04  0.98531676926E+03 0.  0.
         13    1    3    3    0    0  0.20341208518E+03  0.19150810420E+03  0.18378755132E+03  0.33440948783E+03  0.10566000000E+00 0. -1.
         -4    1    3    3    0  502 -0.17920144101E+03 -0.20090384850E+03 -0.76239321959E+03  0.80852887028E+03  0.00000000000E+00 0. -1.
        -13    1    1    2    0    0 -0.24210644174E+02  0.93957443005E+01  0.65704680084E+02  0.70650912601E+02  0.10566000000E+00 0.  1.
<mgrwt>
<rscale>  1 0.39711239E+03</rscale>
<asrwt>0</asrwt>
<pdfrwt beam="2">  1       21 0.13280694E+00 0.98565895E+03</pdfrwt>
<pdfrwt beam="1">  1       -4 0.53899099E-01 0.98565895E+03</pdfrwt>
<totfact> 0.49753501E+01</totfact>
</mgrwt>
</event>
<event>
 6    2  0.2294477E-005  0.1088943E+04  0.7818608E-02  0.9479892E-01
         21   -1    0    0  501  502  0.00000000000E+00  0.00000000000E+00  0.14907667133E+04  0.14907667133E+04  0.00000000000E+00 0. -1.
         -4   -1    0    0    0  501 -0.00000000000E+00 -0.00000000000E+00 -0.45611313831E+03  0.45611313831E+03  0.00000000000E+00 0. -1.
   -9000010    2    1    2    0  502 -0.33824501027E+02 -0.41799045146E+03  0.10692018366E+04  0.15261023475E+04  0.10049555678E+04 0.  0.
         13    1    3    3    0    0  0.12690522060E+03 -0.55695765398E+03  0.11615596827E+04  0.12944217516E+04  0.10566000000E+00 0. -1.
         -4    1    3    3    0  502 -0.16072972163E+03  0.13896720251E+03 -0.92357846065E+02  0.23168059591E+03  0.00000000000E+00 0. -1.
        -13    1    1    2    0    0  0.33824501027E+02  0.41799045146E+03 -0.34548261698E+02  0.42077750407E+03  0.10566000000E+00 0.  1.
<mgrwt>
<rscale>  1 0.85782686E+03</rscale>
<asrwt>0</asrwt>
<pdfrwt beam="1">  1       21 0.22934872E+00 0.10889425E+04</pdfrwt>
<pdfrwt beam="2">  1       -4 0.70171253E-01 0.10889425E+04</pdfrwt>
<totfact> 0.53641715E+00</totfact>
</mgrwt>
</event>
<event>
 6    2  0.2294477E-005  0.1159370E+04  0.7818608E-02  0.9585718E-01
         -4   -1    0    0    0  501 -0.00000000000E+00  0.00000000000E+00  0.52281580432E+03  0.52281580432E+03  0.00000000000E+00 0. -1.
         21   -1    0    0  501  502  0.00000000000E+00 -0.00000000000E+00 -0.13098689251E+04  0.13098689251E+04  0.00000000000E+00 0. -1.
   -9000010    2    1    2    0  502 -0.53024257261E+02 -0.23465431560E+03 -0.98487649738E+03  0.15212231440E+04  0.11341357586E+04 0.  0.
         13    1    3    3    0    0  0.82320376234E+02 -0.45763032033E+03  0.37130396727E+02  0.46645560556E+03  0.10566000000E+00 0. -1.
         -4    1    3    3    0  502 -0.13534463349E+03  0.22297600473E+03 -0.10220068941E+04  0.10547675384E+04  0.00000000000E+00 0. -1.
        -13    1    1    2    0    0  0.53024257261E+02  0.23465431560E+03  0.19782337662E+03  0.31146158542E+03  0.10566000000E+00 0.  1.
<mgrwt>
<rscale>  1 0.78248698E+03</rscale>
<asrwt>0</asrwt>
<pdfrwt beam="2">  1       21 0.20151830E+00 0.11593697E+04</pdfrwt>
<pdfrwt beam="1">  1       -4 0.80433201E-01 0.11593697E+04</pdfrwt>
<totfact> 0.59845971E+00</totfact>
</mgrwt>
</event>
<event>
 6    2  0.2294477E-005  0.1045607E+04  0.7818608E-02  0.9637254E-01
         21   -1    0    0  501  502  0.00000000000E+00  0.00000000000E+00  0.11767705059E+04  0.11767705059E+04  0.00000000000E+00 0. -1.
         -4   -1    0    0    0  501 -0.00000000000E+00 -0.00000000000E+00 -0.43436768159E+03  0.43436768159E+03  0.00000000000E+00 0. -1.
   -9000010    2    1    2    0  502  0.63069726788E+02 -0.26766793935E+03  0.81615200640E+03  0.13264227696E+04  0.10087959902E+04 0.  0.
         13    1    3    3    0    0  0.41162628743E+03  0.20339849958E+03  0.33885362473E+03  0.57063906306E+03  0.10566000000E+00 0. -1.
         -4    1    3    3    0  502 -0.34855656065E+03 -0.47106643893E+03  0.47729838167E+03  0.75578370649E+03  0.00000000000E+00 0. -1.
        -13    1    1    2    0    0 -0.63069726788E+02  0.26766793935E+03 -0.73749182076E+02  0.28471541795E+03  0.10566000000E+00 0.  1.
<mgrwt>
<rscale>  1 0.74878762E+03</rscale>
<asrwt>0</asrwt>
<pdfrwt beam="1">  1       21 0.18104161E+00 0.10456066E+04</pdfrwt>
<pdfrwt beam="2">  1       -4 0.66825798E-01 0.10456066E+04</pdfrwt>
<totfact> 0.12870618E+01</totfact>
</mgrwt>
</event>
<event>
 6    2  0.2294477E-005  0.1008088E+04  0.7818608E-02  0.9768813E-01
         21   -1    0    0  501  502  0.00000000000E+00  0.00000000000E+00  0.63525414666E+03  0.63525414666E+03  0.00000000000E+00 0. -1.
         -4   -1    0    0    0  501 -0.00000000000E+00 -0.00000000000E+00 -0.58336895152E+03  0.58336895152E+03  0.00000000000E+00 0. -1.
   -9000010    2    1    2    0  502  0.18146952200E+03  0.77804383330E+02  0.10667614245E+03  0.10137163668E+04  0.98856277674E+03 0.  0.
         13    1    3    3    0    0  0.31417953357E+03 -0.32900351717E+03  0.29920046153E+03  0.54449336173E+03  0.10566000000E+00 0. -1.
         -4    1    3    3    0  502 -0.13271001157E+03  0.40680790050E+03 -0.19252431908E+03  0.46922300511E+03  0.00000000000E+00 0. -1.
        -13    1    1    2    0    0 -0.18146952200E+03 -0.77804383330E+02 -0.54790947313E+02  0.20490673134E+03  0.10566000000E+00 0.  1.
<mgrwt>
<rscale>  1 0.67063402E+03</rscale>
<asrwt>0</asrwt>
<pdfrwt beam="1">  1       21 0.97731407E-01 0.10080878E+04</pdfrwt>
<pdfrwt beam="2">  1       -4 0.89749070E-01 0.10080878E+04</pdfrwt>
<totfact> 0.34783126E+01</totfact>
</mgrwt>
</event>
<event>
 6    2  0.2294477E-005  0.1114184E+04  0.7818608E-02  0.9438639E-01
         -4   -1    0    0    0  501 -0.00000000000E+00  0.00000000000E+00  0.64012717330E+03  0.64012717330E+03  0.00000000000E+00 0. -1.
         21   -1    0    0  501  502  0.00000000000E+00 -0.00000000000E+00 -0.99267181335E+03  0.99267181335E+03  0.00000000000E+00 0.  1.
   -9000010    2    1    2    0  502 -0.44168149117E+03 -0.10000526113E+03 -0.38487338266E+03  0.11787849443E+04  0.10179994265E+04 0.  0.
         13    1    3    3    0    0  0.33143491153E+02  0.36781628224E+03 -0.35389271122E+03  0.51149523038E+03  0.10566000000E+00 0. -1.
         -4    1    3    3    0  502 -0.47482498233E+03 -0.46782154337E+03 -0.30980671438E+02  0.66728971390E+03  0.00000000000E+00 0. -1.
        -13    1    1    2    0    0  0.44168149117E+03  0.10000526113E+03  0.32328742613E+02  0.45401404236E+03  0.10566000000E+00 0.  1.
<mgrwt>
<rscale>  1 0.88962937E+03</rscale>
<asrwt>0</asrwt>
<pdfrwt beam="2">  1       21 0.15271874E+00 0.11141842E+04</pdfrwt>
<pdfrwt beam="1">  1       -4 0.98481104E-01 0.11141842E+04</pdfrwt>
<totfact> 0.85637701E+00</totfact>
</mgrwt>
</event>
<event>
 6    2  0.2294477E-005  0.1151194E+04  0.7818608E-02  0.9359169E-01
         -4   -1    0    0    0  501 -0.00000000000E+00  0.00000000000E+00  0.11405792887E+04  0.11405792887E+04  0.00000000000E+00 0. -1.
         21   -1    0    0  501  502  0.00000000000E+00 -0.00000000000E+00 -0.67971731380E+03  0.67971731380E+03  0.00000000000E+00 0. -1.
   -9000010    2    1    2    0  502  0.51402208769E+03  0.18269259145E+03  0.78008866334E+02  0.11538344479E+04  0.10137323416E+04 0.  0.
         13    1    3    3    0    0  0.77611113889E+02  0.41175257456E+03 -0.31438834091E+03  0.52383557317E+03  0.10566000000E+00 0. -1.
         -4    1    3    3    0  502  0.43641097380E+03 -0.22905998311E+03  0.39239720724E+03  0.62999887473E+03  0.00000000000E+00 0. -1.
        -13    1    1    2    0    0 -0.51402208769E+03 -0.18269259145E+03  0.38285310857E+03  0.66646215459E+03  0.10566000000E+00 0.  1.
<mgrwt>
<rscale>  1 0.95513500E+03</rscale>
<asrwt>0</asrwt>
<pdfrwt beam="2">  1       21 0.10457189E+00 0.11511944E+04</pdfrwt>
<pdfrwt beam="1">  1       -4 0.17547374E+00 0.11511944E+04</pdfrwt>
<totfact> 0.51753507E+00</totfact>
</mgrwt>
</event>
<event>
 6    2  0.2294477E-005  0.1011535E+04  0.7818608E-02  0.9720864E-01
         21   -1    0    0  501  502  0.00000000000E+00  0.00000000000E+00  0.82524107106E+03  0.82524107106E+03  0.00000000000E+00 0. -1.
         -4   -1    0    0    0  501 -0.00000000000E+00 -0.00000000000E+00 -0.48931923682E+03  0.48931923682E+03  0.00000000000E+00 0. -1.
   -9000010    2    1    2    0  502  0.29670360801E+02  0.22725344885E+03  0.38114266805E+03  0.10809593762E+04  0.98523041933E+03 0.  0.
         13    1    3    3    0    0  0.15256854306E+03 -0.26747751234E+03 -0.15193374746E+03  0.34337334597E+03  0.10566000000E+00 0. -1.
         -4    1    3    3    0  502 -0.12289818226E+03  0.49473096119E+03  0.53307641552E+03  0.73758603020E+03  0.00000000000E+00 0. -1.
        -13    1    1    2    0    0 -0.29670360801E+02 -0.22725344885E+03 -0.45220833812E+02  0.23360093172E+03  0.10566000000E+00 0.  1.
<mgrwt>
<rscale>  1 0.69788033E+03</rscale>
<asrwt>0</asrwt>
<pdfrwt beam="1">  1       21 0.12696016E+00 0.10115352E+04</pdfrwt>
<pdfrwt beam="2">  1       -4 0.75279883E-01 0.10115352E+04</pdfrwt>
<totfact> 0.26800439E+01</totfact>
</mgrwt>
</event>
<event>
 6    2  0.2294477E-005  0.9487169E+03  0.7818608E-02  0.1033831E+00
         -4   -1    0    0    0  501 -0.00000000000E+00  0.00000000000E+00  0.35471245782E+03  0.35471245782E+03  0.00000000000E+00 0. -1.
         21   -1    0    0  501  502  0.00000000000E+00 -0.00000000000E+00 -0.85072139475E+03  0.85072139475E+03  0.00000000000E+00 0. -1.
   -9000010    2    1    2    0  502  0.14900097115E+02  0.37197679257E+02 -0.58028766122E+03  0.11121140006E+04  0.94787029724E+03 0.  0.
         13    1    3    3    0    0  0.42346017691E+03 -0.20643694321E+03 -0.32418720426E+03  0.57186719395E+03  0.10566000000E+00 0. -1.
         -4    1    3    3    0  502 -0.40856007979E+03  0.24363462247E+03 -0.25610045696E+03  0.54024680667E+03  0.00000000000E+00 0. -1.
        -13    1    1    2    0    0 -0.14900097115E+02 -0.37197679257E+02  0.84278724291E+02  0.93319851951E+02  0.10566000000E+00 0.  1.
<mgrwt>
<rscale>  1 0.43009089E+03</rscale>
<asrwt>0</asrwt>
<pdfrwt beam="2">  1       21 0.13088021E+00 0.94871691E+03</pdfrwt>
<pdfrwt beam="1">  1       -4 0.54571148E-01 0.94871691E+03</pdfrwt>
<totfact> 0.50548033E+01</totfact>
</mgrwt>
</event>
<event>
 6    2  0.2294477E-005  0.1023711E+04  0.7818608E-02  0.9746883E-01
         21   -1    0    0  501  502  0.00000000000E+00  0.00000000000E+00  0.31263656756E+03  0.31263656756E+03  0.00000000000E+00 0. -1.
         -4   -1    0    0    0  501 -0.00000000000E+00 -0.00000000000E+00 -0.12951921450E+04  0.12951921450E+04  0.00000000000E+00 0. -1.
   -9000010    2    1    2    0  502  0.22470038423E+02  0.20150352012E+03 -0.96070746818E+03  0.14039024458E+04  0.10034314459E+04 0.  0.
         13    1    3    3    0    0  0.49975011806E+03  0.10705313566E+03 -0.33416914242E+03  0.61063866670E+03  0.10566000000E+00 0. -1.
         -4    1    3    3    0  502 -0.47728007963E+03  0.94450384463E+02 -0.62653832575E+03  0.79326377907E+03  0.00000000000E+00 0. -1.
        -13    1    1    2    0    0 -0.22470038423E+02 -0.20150352012E+03 -0.21848109268E+02  0.20392626680E+03  0.10566000000E+00 0.  1.
<mgrwt>
<rscale>  1 0.68292733E+03</rscale>
<asrwt>0</asrwt>
<pdfrwt beam="1">  1       21 0.48097934E-01 0.10237105E+04</pdfrwt>
<pdfrwt beam="2">  1       -4 0.19926033E+00 0.10237105E+04</pdfrwt>
<totfact> 0.21692625E+01</totfact>
</mgrwt>
</event>
<event>
 6    2  0.2294477E-005  0.9978328E+03  0.7818608E-02  0.9897044E-01
         -4   -1    0    0    0  501 -0.00000000000E+00  0.00000000000E+00  0.11356516824E+04  0.11356516824E+04  0.00000000000E+00 0. -1.
         21   -1    0    0  501  502  0.00000000000E+00 -0.00000000000E+00 -0.30279557067E+03  0.30279557067E+03  0.00000000000E+00 0. -1.
   -9000010    2    1    2    0  502 -0.64468451712E+02  0.11747503532E+03  0.58496760493E+03  0.11566578137E+04  0.98879403010E+03 0.  0.
         13    1    3    3    0    0  0.43277950764E+03  0.18475531043E+03  0.41338215252E+03  0.62635249033E+03  0.10566000000E+00 0. -1.
         -4    1    3    3    0  502 -0.49724795935E+03 -0.67280275116E+02  0.17158545242E+03  0.53030532335E+03  0.00000000000E+00 0. -1.
        -13    1    1    2    0    0  0.64468451712E+02 -0.11747503532E+03  0.24788850684E+03  0.28178943943E+03  0.10566000000E+00 0.  1.
<mgrwt>
<rscale>  1 0.60404773E+03</rscale>
<asrwt>0</asrwt>
<pdfrwt beam="2">  1       21 0.46583934E-01 0.99783275E+03</pdfrwt>
<pdfrwt beam="1">  1       -4 0.17471564E+00 0.99783275E+03</pdfrwt>
<totfact> 0.34295535E+01</totfact>
</mgrwt>
</event>
<event>
 6    2  0.2294477E-005  0.1016053E+04  0.7818608E-02  0.9640054E-01
         21   -1    0    0  501  502  0.00000000000E+00  0.00000000000E+00  0.82824741516E+03  0.82824741516E+03  0.00000000000E+00 0. -1.
         -4   -1    0    0    0  501 -0.00000000000E+00 -0.00000000000E+00 -0.63062513900E+03  0.63062513900E+03  0.00000000000E+00 0. -1.
   -9000010    2    1    2    0  502  0.15384343604E+03 -0.25388916566E+03  0.40811966189E+03  0.10949540580E+04  0.97171766453E+03 0.  0.
         13    1    3    3    0    0  0.40191508151E+02 -0.13452380290E+03 -0.31945423381E+03  0.34894559681E+03  0.10566000000E+00 0. -1.
         -4    1    3    3    0  502  0.11365192789E+03 -0.11936536276E+03  0.72757389569E+03  0.74600846123E+03  0.00000000000E+00 0. -1.
        -13    1    1    2    0    0 -0.15384343604E+03  0.25388916566E+03 -0.21049738572E+03  0.36391849611E+03  0.10566000000E+00 0.  1.
<mgrwt>
<rscale>  1 0.74700940E+03</rscale>
<asrwt>0</asrwt>
<pdfrwt beam="1">  1       21 0.12742268E+00 0.10160525E+04</pdfrwt>
<pdfrwt beam="2">  1       -4 0.97019253E-01 0.10160525E+04</pdfrwt>
<totfact> 0.14693710E+01</totfact>
</mgrwt>
</event>
<event>
 6    2  0.2294477E-005  0.8602015E+03  0.7818608E-02  0.9836067E-01
         -4   -1    0    0    0  501 -0.00000000000E+00  0.00000000000E+00  0.94119552306E+03  0.94119552306E+03  0.00000000000E+00 0. -1.
         21   -1    0    0  501  502  0.00000000000E+00 -0.00000000000E+00 -0.71873279420E+03  0.71873279420E+03  0.00000000000E+00 0. -1.
   -9000010    2    1    2    0  502  0.15061807640E+03  0.20556463062E+03 -0.42838472293E+03  0.96096834775E+03  0.82158631454E+03 0.  0.
         13    1    3    3    0    0  0.24358511870E+03 -0.22216482395E+03 -0.40556146263E+03  0.52265766060E+03  0.10566000000E+00 0. -1.
         -4    1    3    3    0  502 -0.92967042295E+02  0.42772945457E+03 -0.22823260292E+02  0.43831068715E+03  0.00000000000E+00 0. -1.
        -13    1    1    2    0    0 -0.15061807640E+03 -0.20556463062E+03  0.65084745179E+03  0.69895996950E+03  0.10566000000E+00 0.  1.
<mgrwt>
<rscale>  1 0.63462387E+03</rscale>
<asrwt>0</asrwt>
<pdfrwt beam="2">  1       21 0.11057428E+00 0.86020154E+03</pdfrwt>
<pdfrwt beam="1">  1       -4 0.14479931E+00 0.86020154E+03</pdfrwt>
<totfact> 0.79051888E+00</totfact>
</mgrwt>
</event>
<event>
 6    2  0.2294477E-005  0.9900980E+03  0.7818608E-02  0.1002417E+00
         21   -1    0    0  501  502  0.00000000000E+00  0.00000000000E+00  0.13296386942E+04  0.13296386942E+04  0.00000000000E+00 0. -1.
         -4   -1    0    0    0  501 -0.00000000000E+00 -0.00000000000E+00 -0.22957495480E+03  0.22957495480E+03  0.00000000000E+00 0. -1.
   -9000010    2    1    2    0  502  0.34919958088E+02  0.84668287978E+02  0.10805605454E+04  0.14655733361E+04  0.98585292452E+03 0.  0.
         13    1    3    3    0    0 -0.23939774960E+02  0.19045800327E+03  0.12459281370E+04  0.12606285328E+04  0.10566000000E+00 0. -1.
         -4    1    3    3    0  502  0.58859733047E+02 -0.10578971529E+03 -0.16536759166E+03  0.20494480331E+03  0.00000000000E+00 0. -1.
        -13    1    1    2    0    0 -0.34919958088E+02 -0.84668287978E+02  0.19503194032E+02  0.93640312919E+02  0.10566000000E+00 0.  1.
<mgrwt>
<rscale>  1 0.54603039E+03</rscale>
<asrwt>0</asrwt>
<pdfrwt beam="1">  1       21 0.20455979E+00 0.99009803E+03</pdfrwt>
<pdfrwt beam="2">  1       -4 0.35319225E-01 0.99009803E+03</pdfrwt>
<totfact> 0.33931885E+01</totfact>
</mgrwt>
</event>
<event>
 6    2  0.2294477E-005  0.8959093E+03  0.7818608E-02  0.9835447E-01
         -4   -1    0    0    0  501 -0.00000000000E+00  0.00000000000E+00  0.34805139074E+03  0.34805139074E+03  0.00000000000E+00 0. -1.
         21   -1    0    0  501  502  0.00000000000E+00 -0.00000000000E+00 -0.16725150977E+04  0.16725150977E+04  0.00000000000E+00 0. -1.
   -9000010    2    1    2    0  502 -0.20524438005E+03  0.94661954818E+02 -0.14912431975E+04  0.17396722898E+04  0.86692978998E+03 0.  0.
         13    1    3    3    0    0 -0.44757822126E+03  0.17707114130E+03 -0.13782451979E+04  0.14598768064E+04  0.10566000000E+00 0. -1.
         -4    1    3    3    0  502  0.24233384121E+03 -0.82409186486E+02 -0.11299799953E+03  0.27979548337E+03  0.00000000000E+00 0. -1.
        -13    1    1    2    0    0  0.20524438005E+03 -0.94661954818E+02  0.16677949047E+03  0.28089419865E+03  0.10566000000E+00 0.  1.
<mgrwt>
<rscale>  1 0.63494472E+03</rscale>
<asrwt>0</asrwt>
<pdfrwt beam="2">  1       21 0.25731002E+00 0.89590926E+03</pdfrwt>
<pdfrwt beam="1">  1       -4 0.53546367E-01 0.89590926E+03</pdfrwt>
<totfact> 0.66158724E+00</totfact>
</mgrwt>
</event>
<event>
 6    2  0.2294477E-005  0.1025888E+04  0.7818608E-02  0.9691828E-01
         -4   -1    0    0    0  501 -0.00000000000E+00  0.00000000000E+00  0.37675958304E+03  0.37675958304E+03  0.00000000000E+00 0. -1.
         21   -1    0    0  501  502  0.00000000000E+00 -0.00000000000E+00 -0.14713636501E+04  0.14713636501E+04  0.00000000000E+00 0. -1.
   -9000010    2    1    2    0  502  0.16444622393E+03  0.17772668778E+03 -0.12045384604E+04  0.15822004660E+04  0.99690324299E+03 0.  0.
         13    1    3    3    0    0  0.14436564929E+03  0.18875043755E+03  0.11393189191E+03  0.26353112819E+03  0.10566000000E+00 0. -1.
         -4    1    3    3    0  502  0.20080574644E+02 -0.11023749773E+02 -0.13184703523E+04  0.13186693378E+04  0.00000000000E+00 0. -1.
        -13    1    1    2    0    0 -0.16444622393E+03 -0.17772668778E+03  0.10993439330E+03  0.26592276719E+03  0.10566000000E+00 0.  1.
<mgrwt>
<rscale>  1 0.71505463E+03</rscale>
<asrwt>0</asrwt>
<pdfrwt beam="2">  1       21 0.22636364E+00 0.10258876E+04</pdfrwt>
<pdfrwt beam="1">  1       -4 0.57963012E-01 0.10258876E+04</pdfrwt>
<totfact> 0.86258593E+00</totfact>
</mgrwt>
</event>
<event>
 6    2  0.2294477E-005  0.1058463E+04  0.7818608E-02  0.9608888E-01
         21   -1    0    0  501  502  0.00000000000E+00  0.00000000000E+00  0.12400365530E+04  0.12400365530E+04  0.00000000000E+00 0. -1.
         -4   -1    0    0    0  501 -0.00000000000E+00 -0.00000000000E+00 -0.59928001188E+03  0.59928001188E+03  0.00000000000E+00 0. -1.
   -9000010    2    1    2    0  502  0.27798518633E+03 -0.89407390306E+02  0.94404880804E+03  0.14182991595E+04  0.10173863124E+04 0.  0.
         13    1    3    3    0    0  0.43951325338E+03 -0.37391724681E+03  0.92543655616E+03  0.10906048038E+04  0.10566000000E+00 0. -1.
         -4    1    3    3    0  502 -0.16152806705E+03  0.28450985650E+03  0.18612251881E+02  0.32769435578E+03  0.00000000000E+00 0. -1.
        -13    1    1    2    0    0 -0.27798518633E+03  0.89407390306E+02 -0.30329226692E+03  0.42101740534E+03  0.10566000000E+00 0.  1.
<mgrwt>
<rscale>  1 0.76710711E+03</rscale>
<asrwt>0</asrwt>
<pdfrwt beam="1">  1       21 0.19077485E+00 0.10584632E+04</pdfrwt>
<pdfrwt beam="2">  1       -4 0.92196925E-01 0.10584632E+04</pdfrwt>
<totfact> 0.52367448E+00</totfact>
</mgrwt>
</event>
<event>
 6    2  0.2294477E-005  0.1011073E+04  0.7818608E-02  0.9818827E-01
         21   -1    0    0  501  502  0.00000000000E+00  0.00000000000E+00  0.29375466235E+03  0.29375466235E+03  0.00000000000E+00 0. -1.
         -4   -1    0    0    0  501 -0.00000000000E+00 -0.00000000000E+00 -0.14901805689E+04  0.14901805689E+04  0.00000000000E+00 0. -1.
   -9000010    2    1    2    0  502  0.71584416484E+02  0.14979721514E+03 -0.62447653515E+03  0.11883769814E+04  0.99734917288E+03 0.  0.
         13    1    3    3    0    0  0.15246917557E+03 -0.36265416484E+03 -0.53159826367E+03  0.66133321244E+03  0.10566000000E+00 0. -1.
         -4    1    3    3    0  502 -0.80884759091E+02  0.51245137998E+03 -0.92878271484E+02  0.52704376897E+03  0.00000000000E+00 0. -1.
        -13    1    1    2    0    0 -0.71584416484E+02 -0.14979721514E+03 -0.57194937136E+03  0.59555824981E+03  0.10566000000E+00 0.  1.
<mgrwt>
<rscale>  1 0.64361894E+03</rscale>
<asrwt>0</asrwt>
<pdfrwt beam="1">  1       21 0.45193025E-01 0.10110731E+04</pdfrwt>
<pdfrwt beam="2">  1       -4 0.22925855E+00 0.10110731E+04</pdfrwt>
<totfact> 0.15898113E+01</totfact>
</mgrwt>
</event>
<event>
 6    2  0.2294477E-005  0.1023163E+04  0.7818608E-02  0.9694925E-01
         -4   -1    0    0    0  501 -0.00000000000E+00  0.00000000000E+00  0.98325095170E+03  0.98325095170E+03  0.00000000000E+00 0. -1.
         21   -1    0    0  501  502  0.00000000000E+00 -0.00000000000E+00 -0.45890828200E+03  0.45890828200E+03  0.00000000000E+00 0. -1.
   -9000010    2    1    2    0  502 -0.20053729095E+03 -0.13464906411E+03  0.20791674922E+03  0.10440751347E+04  0.99424239340E+03 0.  0.
         13    1    3    3    0    0  0.16118026319E+03 -0.46657982988E+03  0.24624609263E+03  0.55164568719E+03  0.10566000000E+00 0. -1.
         -4    1    3    3    0  502 -0.36171755415E+03  0.33193076577E+03 -0.38329343414E+02  0.49242944754E+03  0.00000000000E+00 0. -1.
        -13    1    1    2    0    0  0.20053729095E+03  0.13464906411E+03  0.31642592049E+03  0.39808409897E+03  0.10566000000E+00 0.  1.
<mgrwt>
<rscale>  1 0.71319744E+03</rscale>
<asrwt>0</asrwt>
<pdfrwt beam="2">  1       21 0.70601274E-01 0.10231635E+04</pdfrwt>
<pdfrwt beam="1">  1       -4 0.15126938E+00 0.10231635E+04</pdfrwt>
<totfact> 0.20315942E+01</totfact>
</mgrwt>
</event>
<event>
 6    2  0.2294477E-005  0.1105167E+04  0.7818608E-02  0.9420584E-01
         21   -1    0    0  501  502  0.00000000000E+00  0.00000000000E+00  0.19098593327E+04  0.19098593327E+04  0.00000000000E+00 0. -1.
         -4   -1    0    0    0  501 -0.00000000000E+00 -0.00000000000E+00 -0.35099894293E+03  0.35099894293E+03  0.00000000000E+00 0. -1.
   -9000010    2    1    2    0  502  0.48665071994E+03  0.89281626420E+02  0.12867053854E+04  0.16961738597E+04  0.98822815251E+03 0.  0.
         13    1    3    3    0    0  0.45674462260E+03 -0.40038602893E+03  0.80698904125E+03  0.10100276958E+04  0.10566000000E+00 0. -1.
         -4    1    3    3    0  502  0.29906097345E+02  0.48966765535E+03  0.47971634419E+03  0.68614616390E+03  0.00000000000E+00 0. -1.
        -13    1    1    2    0    0 -0.48665071994E+03 -0.89281626420E+02  0.27215500432E+03  0.56468441592E+03  0.10566000000E+00 0.  1.
<mgrwt>
<rscale>  1 0.90400850E+03</rscale>
<asrwt>0</asrwt>
<pdfrwt beam="1">  1       21 0.29382451E+00 0.11051674E+04</pdfrwt>
<pdfrwt beam="2">  1       -4 0.53999839E-01 0.11051674E+04</pdfrwt>
<totfact> 0.37061931E+00</totfact>
</mgrwt>
</event>
<event>
 6    2  0.2294477E-005  0.1293708E+04  0.7818608E-02  0.9151763E-01
         21   -1    0    0  501  502  0.00000000000E+00  0.00000000000E+00  0.14265618331E+04  0.14265618331E+04  0.00000000000E+00 0. -1.
         -4   -1    0    0    0  501 -0.00000000000E+00 -0.00000000000E+00 -0.82725705570E+03  0.82725705570E+03  0.00000000000E+00 0. -1.
   -9000010    2    1    2    0  502 -0.74748832440E+03  0.35222628346E+03  0.12173843988E+03  0.12994228663E+04  0.99542824347E+03 0.  0.
         13    1    3    3    0    0  0.98619569703E+02  0.29064990722E+03  0.30369876692E+03  0.43178251503E+03  0.10566000000E+00 0. -1.
         -4    1    3    3    0  502 -0.84610789410E+03  0.61576376240E+02 -0.18196032704E+03  0.86764035129E+03  0.00000000000E+00 0. -1.
        -13    1    1    2    0    0  0.74748832440E+03 -0.35222628346E+03  0.47756633755E+03  0.95439602252E+03  0.10566000000E+00 0.  1.
<mgrwt>
<rscale>  1 0.11565490E+04</rscale>
<asrwt>0</asrwt>
<pdfrwt beam="1">  1       21 0.21947105E+00 0.12937077E+04</pdfrwt>
<pdfrwt beam="2">  1       -4 0.12727032E+00 0.12937077E+04</pdfrwt>
<totfact> 0.14587408E+00</totfact>
</mgrwt>
</event>
<event>
 6    2  0.2294477E-005  0.1068333E+04  0.7818608E-02  0.9523642E-01
         -4   -1    0    0    0  501 -0.00000000000E+00  0.00000000000E+00  0.16780030828E+04  0.16780030828E+04  0.00000000000E+00 0. -1.
         21   -1    0    0  501  502  0.00000000000E+00 -0.00000000000E+00 -0.39691550006E+03  0.39691550006E+03  0.00000000000E+00 0. -1.
   -9000010    2    1    2    0  502 -0.27599530146E+03  0.26277991422E+03  0.44734509755E+03  0.11582107600E+04  0.99805202194E+03 0.  0.
         13    1    3    3    0    0 -0.14328091855E+03 -0.10856540488E+03  0.67795480194E+03  0.70138334268E+03  0.10566000000E+00 0. -1.
         -4    1    3    3    0  502 -0.13271438291E+03  0.37134531910E+03 -0.23060970438E+03  0.45682741731E+03  0.00000000000E+00 0. -1.
        -13    1    1    2    0    0  0.27599530146E+03 -0.26277991422E+03  0.83374248519E+03  0.91670782287E+03  0.10566000000E+00 0.  1.
<mgrwt>
<rscale>  1 0.82563038E+03</rscale>
<asrwt>0</asrwt>
<pdfrwt beam="2">  1       21 0.61063924E-01 0.10683326E+04</pdfrwt>
<pdfrwt beam="1">  1       -4 0.25815432E+00 0.10683326E+04</pdfrwt>
<totfact> 0.54097912E+00</totfact>
</mgrwt>
</event>
<event>
 6    2  0.2294477E-005  0.1008544E+04  0.7818608E-02  0.9722258E-01
         -4   -1    0    0    0  501 -0.00000000000E+00  0.00000000000E+00  0.12683999900E+04  0.12683999900E+04  0.00000000000E+00 0. -1.
         21   -1    0    0  501  502  0.00000000000E+00 -0.00000000000E+00 -0.30980090032E+03  0.30980090032E+03  0.00000000000E+00 0. -1.
   -9000010    2    1    2    0  502  0.21929173636E+03 -0.69871475695E+02  0.86877749678E+03  0.13311405364E+04  0.98193171865E+03 0.  0.
         13    1    3    3    0    0  0.26472007632E+03  0.33905959822E+03  0.74420888374E+02  0.43655081003E+03  0.10566000000E+00 0. -1.
         -4    1    3    3    0  502 -0.45428339956E+02 -0.40893107391E+03  0.79435660841E+03  0.89458972641E+03  0.00000000000E+00 0. -1.
        -13    1    1    2    0    0 -0.21929173636E+03  0.69871475695E+02  0.89821592932E+02  0.24706035391E+03  0.10566000000E+00 0.  1.
<mgrwt>
<rscale>  1 0.69706909E+03</rscale>
<asrwt>0</asrwt>
<pdfrwt beam="2">  1       21 0.47661678E-01 0.10085439E+04</pdfrwt>
<pdfrwt beam="1">  1       -4 0.19513846E+00 0.10085439E+04</pdfrwt>
<totfact> 0.23602249E+01</totfact>
</mgrwt>
</event>
<event>
 6    2  0.2294477E-005  0.1007945E+04  0.7818608E-02  0.1011435E+00
         21   -1    0    0  501  502  0.00000000000E+00  0.00000000000E+00  0.51700684762E+03  0.51700684762E+03  0.00000000000E+00 0. -1.
         -4   -1    0    0    0  501 -0.00000000000E+00 -0.00000000000E+00 -0.59299359808E+03  0.59299359808E+03  0.00000000000E+00 0. -1.
   -9000010    2    1    2    0  502  0.60499500357E+02 -0.25337176964E+02  0.21965649104E+01  0.10079474984E+04  0.10058087157E+04 0.  0.
         13    1    3    3    0    0  0.27524213091E+03  0.40546441510E+03  0.13554696378E+03  0.50846102416E+03  0.10566000000E+00 0. -1.
         -4    1    3    3    0  502 -0.21474263055E+03 -0.43080159206E+03 -0.13335039887E+03  0.49948647427E+03  0.00000000000E+00 0. -1.
        -13    1    1    2    0    0 -0.60499500357E+02  0.25337176964E+02 -0.78183315367E+02  0.10205294727E+03  0.10566000000E+00 0.  1.
<mgrwt>
<rscale>  1 0.50908306E+03</rscale>
<asrwt>0</asrwt>
<pdfrwt beam="1">  1       21 0.79539515E-01 0.10079451E+04</pdfrwt>
<pdfrwt beam="2">  1       -4 0.91229784E-01 0.10079451E+04</pdfrwt>
<totfact> 0.54915381E+01</totfact>
</mgrwt>
</event>
<event>
 6    2  0.2294477E-005  0.9788716E+03  0.7818608E-02  0.1044414E+00
         -4   -1    0    0    0  501 -0.00000000000E+00  0.00000000000E+00  0.58863040897E+03  0.58863040897E+03  0.00000000000E+00 0. -1.
         21   -1    0    0  501  502  0.00000000000E+00 -0.00000000000E+00 -0.43239199079E+03  0.43239199079E+03  0.00000000000E+00 0. -1.
   -9000010    2    1    2    0  502  0.95677024344E+01  0.25032457670E+02  0.16530538167E+03  0.99273130827E+03  0.97850468386E+03 0.  0.
         13    1    3    3    0    0 -0.24411582586E+03  0.34526511695E+03  0.34566163173E+03  0.54615246244E+03  0.10566000000E+00 0. -1.
         -4    1    3    3    0  502  0.25368352830E+03 -0.32023265928E+03 -0.18035625006E+03  0.44657884582E+03  0.00000000000E+00 0. -1.
        -13    1    1    2    0    0 -0.95677024344E+01 -0.25032457670E+02 -0.90669634864E+01  0.28291091491E+02  0.10566000000E+00 0.  1.
<mgrwt>
<rscale>  1 0.39817429E+03</rscale>
<asrwt>0</asrwt>
<pdfrwt beam="2">  1       21 0.66521844E-01 0.97887159E+03</pdfrwt>
<pdfrwt beam="1">  1       -4 0.90558525E-01 0.97887159E+03</pdfrwt>
<totfact> 0.84601501E+01</totfact>
</mgrwt>
</event>
<event>
 6    2  0.2294477E-005  0.9905101E+03  0.7818608E-02  0.1029860E+00
         21   -1    0    0  501  502  0.00000000000E+00  0.00000000000E+00  0.32323118095E+03  0.32323118095E+03  0.00000000000E+00 0. -1.
         -4   -1    0    0    0  501 -0.00000000000E+00 -0.00000000000E+00 -0.90143453071E+03  0.90143453071E+03  0.00000000000E+00 0. -1.
   -9000010    2    1    2    0  502  0.10617796000E+02 -0.38146639603E+02 -0.44532531888E+03  0.10860133191E+04  0.98971833667E+03 0.  0.
         13    1    3    3    0    0 -0.11092819356E+03  0.45923486521E+03 -0.27369944948E+03  0.54599736754E+03  0.10566000000E+00 0. -1.
         -4    1    3    3    0  502  0.12154598956E+03 -0.49738150481E+03 -0.17162586940E+03  0.54001595157E+03  0.00000000000E+00 0. -1.
        -13    1    1    2    0    0 -0.10617796000E+02  0.38146639603E+02 -0.13287803087E+03  0.13865239254E+03  0.10566000000E+00 0.  1.
<mgrwt>
<rscale>  1 0.44290389E+03</rscale>
<asrwt>0</asrwt>
<pdfrwt beam="1">  1       21 0.49727875E-01 0.99051012E+03</pdfrwt>
<pdfrwt beam="2">  1       -4 0.13868223E+00 0.99051012E+03</pdfrwt>
<totfact> 0.55987013E+01</totfact>
</mgrwt>
</event>
<event>
 6    2  0.2294477E-005  0.1004240E+04  0.7818608E-02  0.9895772E-01
         -4   -1    0    0    0  501 -0.00000000000E+00  0.00000000000E+00  0.13691835908E+04  0.13691835908E+04  0.00000000000E+00 0. -1.
         21   -1    0    0  501  502  0.00000000000E+00 -0.00000000000E+00 -0.24203302457E+03  0.24203302457E+03  0.00000000000E+00 0. -1.
   -9000010    2    1    2    0  502  0.79259264690E+02  0.10554644955E+03  0.10698079308E+04  0.14673059728E+04  0.99552786244E+03 0.  0.
         13    1    3    3    0    0 -0.66861871358E+02  0.30294011871E+03  0.11637264456E+04  0.12043680819E+04  0.10566000000E+00 0. -1.
         -4    1    3    3    0  502  0.14612113605E+03 -0.19739366916E+03 -0.93918514811E+02  0.26293789086E+03  0.00000000000E+00 0. -1.
        -13    1    1    2    0    0 -0.79259264690E+02 -0.10554644955E+03  0.57342635458E+02  0.14391064261E+03  0.10566000000E+00 0.  1.
<mgrwt>
<rscale>  1 0.60466623E+03</rscale>
<asrwt>0</asrwt>
<pdfrwt beam="2">  1       21 0.37235851E-01 0.10042399E+04</pdfrwt>
<pdfrwt beam="1">  1       -4 0.21064362E+00 0.10042399E+04</pdfrwt>
<totfact> 0.31422714E+01</totfact>
</mgrwt>
</event>
<event>
 6    2  0.2294477E-005  0.1101311E+04  0.7818608E-02  0.9426197E-01
         -4   -1    0    0    0  501 -0.00000000000E+00  0.00000000000E+00  0.54371386338E+03  0.54371386338E+03  0.00000000000E+00 0. -1.
         21   -1    0    0  501  502  0.00000000000E+00 -0.00000000000E+00 -0.15036508140E+04  0.15036508140E+04  0.00000000000E+00 0. -1.
   -9000010    2    1    2    0  502 -0.38805501074E+03 -0.29935919687E+03 -0.10802923597E+04  0.15426983958E+04  0.98624750337E+03 0.  0.
         13    1    3    3    0    0 -0.50189390253E+03 -0.55130761062E+03 -0.10136586593E+04  0.12583089683E+04  0.10566000000E+00 0. -1.
         -4    1    3    3    0  502  0.11383889179E+03  0.25194841374E+03 -0.66633700421E+02  0.28438942755E+03  0.00000000000E+00 0. -1.
        -13    1    1    2    0    0  0.38805501074E+03  0.29935919687E+03  0.12035540907E+03  0.50466628159E+03  0.10566000000E+00 0.  1.
<mgrwt>
<rscale>  1 0.89950756E+03</rscale>
<asrwt>0</asrwt>
<pdfrwt beam="2">  1       21 0.23133089E+00 0.11013114E+04</pdfrwt>
<pdfrwt beam="1">  1       -4 0.83648287E-01 0.11013114E+04</pdfrwt>
<totfact> 0.34809325E+00</totfact>
</mgrwt>
</event>
<event>
 6    2  0.2294477E-005  0.1024161E+04  0.7818608E-02  0.9840927E-01
         21   -1    0    0  501  502  0.00000000000E+00  0.00000000000E+00  0.16946494611E+04  0.16946494611E+04  0.00000000000E+00 0. -1.
         -4   -1    0    0    0  501 -0.00000000000E+00 -0.00000000000E+00 -0.20690889555E+03  0.20690889555E+03  0.00000000000E+00 0. -1.
   -9000010    2    1    2    0  502 -0.14701312780E+03  0.21808589378E+02  0.11994154399E+04  0.15771822423E+04  0.10133202621E+04 0.  0.
         13    1    3    3    0    0  0.27364884532E+03 -0.32925417710E+03  0.29560185933E+03  0.52026192835E+03  0.10566000000E+00 0. -1.
         -4    1    3    3    0  502 -0.42066197312E+03  0.35106276648E+03  0.90381358058E+03  0.10569203140E+04  0.00000000000E+00 0. -1.
        -13    1    1    2    0    0  0.14701312780E+03 -0.21808589378E+02  0.28832512565E+03  0.32437611435E+03  0.10566000000E+00 0.  1.
<mgrwt>
<rscale>  1 0.63211643E+03</rscale>
<asrwt>0</asrwt>
<pdfrwt beam="1">  1       21 0.26071529E+00 0.10241613E+04</pdfrwt>
<pdfrwt beam="2">  1       -4 0.31832139E-01 0.10241613E+04</pdfrwt>
<totfact> 0.17905427E+01</totfact>
</mgrwt>
</event>
<event>
 6    2  0.2294477E-005  0.1020190E+04  0.7818608E-02  0.9729299E-01
         -4   -1    0    0    0  501 -0.00000000000E+00  0.00000000000E+00  0.46316711116E+03  0.46316711116E+03  0.00000000000E+00 0. -1.
         21   -1    0    0  501  502  0.00000000000E+00 -0.00000000000E+00 -0.83163288800E+03  0.83163288800E+03  0.00000000000E+00 0. -1.
   -9000010    2    1    2    0  502 -0.18440546523E+03 -0.11476251401E+03 -0.34202462814E+03  0.10759965354E+04  0.99680082654E+03 0.  0.
         13    1    3    3    0    0 -0.37619119889E+03  0.29884595066E+03 -0.38830261862E+03  0.61774400453E+03  0.10566000000E+00 0. -1.
         -4    1    3    3    0  502  0.19178573365E+03 -0.41360846467E+03  0.46277990473E+02  0.45825253091E+03  0.00000000000E+00 0. -1.
        -13    1    1    2    0    0  0.18440546523E+03  0.11476251401E+03 -0.26441148697E+02  0.21880346373E+03  0.10566000000E+00 0.  1.
<mgrwt>
<rscale>  1 0.69298804E+03</rscale>
<asrwt>0</asrwt>
<pdfrwt beam="2">  1       21 0.12794352E+00 0.10201900E+04</pdfrwt>
<pdfrwt beam="1">  1       -4 0.71256479E-01 0.10201900E+04</pdfrwt>
<totfact> 0.29703695E+01</totfact>
</mgrwt>
</event>
<event>
 6    2  0.2294477E-005  0.1370950E+04  0.7818608E-02  0.9090206E-01
         21   -1    0    0  501  502  0.00000000000E+00  0.00000000000E+00  0.15434069417E+04  0.15434069417E+04  0.00000000000E+00 0. -1.
         -4   -1    0    0    0  501 -0.00000000000E+00 -0.00000000000E+00 -0.83897813306E+03  0.83897813306E+03  0.00000000000E+00 0. -1.
   -9000010    2    1    2    0  502  0.26791711429E+02  0.87702767281E+03  0.24753074365E+03  0.13931170688E+04  0.10533794965E+04 0.  0.
         13    1    3    3    0    0  0.36021414306E+03  0.91132844613E+02  0.37738095853E+03  0.52959968207E+03  0.10566000000E+00 0. -1.
         -4    1    3    3    0  502 -0.33342243163E+03  0.78589482819E+03 -0.12985021488E+03  0.86351738674E+03  0.00000000000E+00 0. -1.
        -13    1    1    2    0    0 -0.26791711429E+02 -0.87702767281E+03  0.45689806503E+03  0.98926800598E+03  0.10566000000E+00 0.  1.
<mgrwt>
<rscale>  1 0.12262251E+04</rscale>
<asrwt>0</asrwt>
<pdfrwt beam="1">  1       21 0.23744722E+00 0.13709499E+04</pdfrwt>
<pdfrwt beam="2">  1       -4 0.12907356E+00 0.13709499E+04</pdfrwt>
<totfact> 0.10601265E+00</totfact>
</mgrwt>
</event>
<event>
 6    2  0.2294477E-005  0.1067888E+04  0.7818608E-02  0.9512527E-01
         -4   -1    0    0    0  501 -0.00000000000E+00  0.00000000000E+00  0.65572119111E+03  0.65572119111E+03  0.00000000000E+00 0. -1.
         21   -1    0    0  501  502  0.00000000000E+00 -0.00000000000E+00 -0.81957349870E+03  0.81957349870E+03  0.00000000000E+00 0. -1.
   -9000010    2    1    2    0  502  0.32991977049E+03  0.22015994681E+03 -0.15046156456E+03  0.10784360496E+04  0.99149794431E+03 0.  0.
         13    1    3    3    0    0  0.33196625958E+03  0.12090823792E+02  0.38231321738E+03  0.50646934050E+03  0.10566000000E+00 0. -1.
         -4    1    3    3    0  502 -0.20464890983E+01  0.20806912301E+03 -0.53277478194E+03  0.57196670911E+03  0.00000000000E+00 0. -1.
        -13    1    1    2    0    0 -0.32991977049E+03 -0.22015994681E+03 -0.13390743025E+02  0.39685864020E+03  0.10566000000E+00 0.  1.
<mgrwt>
<rscale>  1 0.83366491E+03</rscale>
<asrwt>0</asrwt>
<pdfrwt beam="2">  1       21 0.12608823E+00 0.10678884E+04</pdfrwt>
<pdfrwt beam="1">  1       -4 0.10088018E+00 0.10678884E+04</pdfrwt>
<totfact> 0.13679229E+01</totfact>
</mgrwt>
</event>
<event>
 6    2  0.2294477E-005  0.1040929E+04  0.7818608E-02  0.9629804E-01
         -4   -1    0    0    0  501 -0.00000000000E+00  0.00000000000E+00  0.99644335541E+03  0.99644335541E+03  0.00000000000E+00 0. -1.
         21   -1    0    0  501  502  0.00000000000E+00 -0.00000000000E+00 -0.76818355861E+03  0.76818355861E+03  0.00000000000E+00 0. -1.
   -9000010    2    1    2    0  502  0.27595886042E+03 -0.74640031567E+02 -0.36744447630E+03  0.11038788386E+04  0.10009039016E+04 0.  0.
         13    1    3    3    0    0 -0.24580607856E+03  0.90041265701E+02  0.18948119675E+03  0.32315815458E+03  0.10566000000E+00 0. -1.
         -4    1    3    3    0  502  0.52176493898E+03 -0.16468129727E+03 -0.55692567306E+03  0.78072068406E+03  0.00000000000E+00 0. -1.
        -13    1    1    2    0    0 -0.27595886042E+03  0.74640031567E+02  0.59570427311E+03  0.66074807538E+03  0.10566000000E+00 0.  1.
<mgrwt>
<rscale>  1 0.75354606E+03</rscale>
<asrwt>0</asrwt>
<pdfrwt beam="2">  1       21 0.11818209E+00 0.10409289E+04</pdfrwt>
<pdfrwt beam="1">  1       -4 0.15329898E+00 0.10409289E+04</pdfrwt>
<totfact> 0.55945289E+00</totfact>
</mgrwt>
</event>
<event>
 6    2  0.2294477E-005  0.8351858E+03  0.7818608E-02  0.1004297E+00
         -4   -1    0    0    0  501 -0.00000000000E+00  0.00000000000E+00  0.84860653058E+03  0.84860653058E+03  0.00000000000E+00 0. -1.
         21   -1    0    0  501  502  0.00000000000E+00 -0.00000000000E+00 -0.28475464582E+03  0.28475464582E+03  0.00000000000E+00 0. -1.
   -9000010    2    1    2    0  502 -0.26518104904E+02  0.14140010837E+03  0.44259981009E+03  0.94521421972E+03  0.82270172525E+03 0.  0.
         13    1    3    3    0    0 -0.18818123369E+03 -0.42344796223E+02 -0.18765497647E+03  0.26910901107E+03  0.10566000000E+00 0. -1.
         -4    1    3    3    0  502  0.16166312879E+03  0.18374490459E+03  0.63025478656E+03  0.67610520865E+03  0.00000000000E+00 0. -1.
        -13    1    1    2    0    0  0.26518104904E+02 -0.14140010837E+03  0.12125207467E+03  0.18814695669E+03  0.10566000000E+00 0.  1.
<mgrwt>
<rscale>  1 0.53805455E+03</rscale>
<asrwt>0</asrwt>
<pdfrwt beam="2">  1       21 0.43808407E-01 0.83518581E+03</pdfrwt>
<pdfrwt beam="1">  1       -4 0.13055485E+00 0.83518581E+03</pdfrwt>
<totfact> 0.86880990E+01</totfact>
</mgrwt>
</event>
<event>
 6    2  0.2294477E-005  0.1027024E+04  0.7818608E-02  0.9706255E-01
         -4   -1    0    0    0  501 -0.00000000000E+00  0.00000000000E+00  0.14874012959E+04  0.14874012959E+04  0.00000000000E+00 0. -1.
         21   -1    0    0  501  502  0.00000000000E+00 -0.00000000000E+00 -0.53623256449E+03  0.53623256449E+03  0.00000000000E+00 0. -1.
   -9000010    2    1    2    0  502  0.21820840009E+03 -0.72482382431E+02 -0.18384967046E+02  0.10271886853E+04  0.10009545377E+04 0.  0.
         13    1    3    3    0    0  0.77326405881E+02  0.44715624124E+03  0.12371450669E+03  0.47035451253E+03  0.10566000000E+00 0. -1.
         -4    1    3    3    0  502  0.14088199421E+03 -0.51963862367E+03 -0.14209947373E+03  0.55683417275E+03  0.00000000000E+00 0. -1.
        -13    1    1    2    0    0 -0.21820840009E+03  0.72482382431E+02  0.96955369844E+03  0.99644517509E+03  0.10566000000E+00 0.  1.
<mgrwt>
<rscale>  1 0.70645618E+03</rscale>
<asrwt>0</asrwt>
<pdfrwt beam="2">  1       21 0.82497318E-01 0.10270241E+04</pdfrwt>
<pdfrwt beam="1">  1       -4 0.22883097E+00 0.10270241E+04</pdfrwt>
<totfact> 0.41457850E+00</totfact>
</mgrwt>
</event>
<event>
 6    2  0.2294477E-005  0.1036953E+04  0.7818608E-02  0.9640526E-01
         21   -1    0    0  501  502  0.00000000000E+00  0.00000000000E+00  0.77969882384E+03  0.77969882384E+03  0.00000000000E+00 0. -1.
         -4   -1    0    0    0  501 -0.00000000000E+00 -0.00000000000E+00 -0.67054361023E+03  0.67054361023E+03  0.00000000000E+00 0. -1.
   -9000010    2    1    2    0  502 -0.26166610598E+03  0.96301634820E+02  0.33681374764E+03  0.10902819152E+04  0.99876323423E+03 0.  0.
         13    1    3    3    0    0 -0.25074832504E+03  0.47487188719E+03 -0.61664081172E+02  0.54053723445E+03  0.10566000000E+00 0. -1.
         -4    1    3    3    0  502 -0.10917780945E+02 -0.37857025237E+03  0.39847782882E+03  0.54974468072E+03  0.00000000000E+00 0. -1.
        -13    1    1    2    0    0  0.26166610598E+03 -0.96301634820E+02 -0.22765853403E+03  0.35996051891E+03  0.10566000000E+00 0.  1.
<mgrwt>
<rscale>  1 0.74671010E+03</rscale>
<asrwt>0</asrwt>
<pdfrwt beam="1">  1       21 0.11995367E+00 0.10369528E+04</pdfrwt>
<pdfrwt beam="2">  1       -4 0.10316056E+00 0.10369528E+04</pdfrwt>
<totfact> 0.14814504E+01</totfact>
</mgrwt>
</event>
<event>
 6    2  0.2294477E-005  0.1014120E+04  0.7818608E-02  0.9702481E-01
         -4   -1    0    0    0  501 -0.00000000000E+00  0.00000000000E+00  0.40545385463E+03  0.40545385463E+03  0.00000000000E+00 0. -1.
         21   -1    0    0  501  502  0.00000000000E+00 -0.00000000000E+00 -0.99998816535E+03  0.99998816535E+03  0.00000000000E+00 0. -1.
   -9000010    2    1    2    0  502 -0.18675729891E+03 -0.15368059897E+03 -0.56741471910E+03  0.11620667981E+04  0.98485723061E+03 0.  0.
         13    1    3    3    0    0  0.13408388963E+03 -0.13224573010E+03  0.23293116165E+03  0.29954024741E+03  0.10566000000E+00 0. -1.
         -4    1    3    3    0  502 -0.32084118855E+03 -0.21434868872E+02 -0.80034588075E+03  0.86252655072E+03  0.00000000000E+00 0. -1.
        -13    1    1    2    0    0  0.18675729891E+03  0.15368059897E+03 -0.27119591621E+02  0.24337522185E+03  0.10566000000E+00 0.  1.
<mgrwt>
<rscale>  1 0.70869256E+03</rscale>
<asrwt>0</asrwt>
<pdfrwt beam="2">  1       21 0.15384433E+00 0.10141202E+04</pdfrwt>
<pdfrwt beam="1">  1       -4 0.62377516E-01 0.10141202E+04</pdfrwt>
<totfact> 0.24164043E+01</totfact>
</mgrwt>
</event>
<event>
 6    2  0.2294477E-005  0.9055078E+03  0.7818608E-02  0.9726587E-01
         -4   -1    0    0    0  501 -0.00000000000E+00  0.00000000000E+00  0.11665417167E+04  0.11665417167E+04  0.00000000000E+00 0. -1.
         21   -1    0    0  501  502  0.00000000000E+00 -0.00000000000E+00 -0.33557212960E+03  0.33557212960E+03  0.00000000000E+00 0. -1.
   -9000010    2    1    2    0  502 -0.16170808289E+03  0.26850399133E+03  0.45742060144E+03  0.10144841166E+04  0.84952958676E+03 0.  0.
         13    1    3    3    0    0  0.10939740764E+02  0.46336496907E+03 -0.27274172688E+02  0.46429587997E+03  0.10566000000E+00 0. -1.
         -4    1    3    3    0  502 -0.17264782366E+03 -0.19486097775E+03  0.48469477413E+03  0.55018823663E+03  0.00000000000E+00 0. -1.
        -13    1    1    2    0    0  0.16170808289E+03 -0.26850399133E+03  0.37354898565E+03  0.48762972969E+03  0.10566000000E+00 0.  1.
<mgrwt>
<rscale>  1 0.69455615E+03</rscale>
<asrwt>0</asrwt>
<pdfrwt beam="2">  1       21 0.51626482E-01 0.90550782E+03</pdfrwt>
<pdfrwt beam="1">  1       -4 0.17946795E+00 0.90550782E+03</pdfrwt>
<totfact> 0.25677125E+01</totfact>
</mgrwt>
</event>
<event>
 6    2  0.2294477E-005  0.1026083E+04  0.7818608E-02  0.9766072E-01
         21   -1    0    0  501  502  0.00000000000E+00  0.00000000000E+00  0.39410504893E+03  0.39410504893E+03  0.00000000000E+00 0. -1.
         -4   -1    0    0    0  501 -0.00000000000E+00 -0.00000000000E+00 -0.96264816019E+03  0.96264816019E+03  0.00000000000E+00 0. -1.
   -9000010    2    1    2    0  502 -0.18482594702E+03 -0.39227340242E+02 -0.39275695931E+03  0.10986830689E+04  0.10085370800E+04 0.  0.
         13    1    3    3    0    0  0.18107473648E+03  0.34552813541E+03  0.67631364666E+02  0.39591888715E+03  0.10566000000E+00 0. -1.
         -4    1    3    3    0  502 -0.36590068350E+03 -0.38475547566E+03 -0.46038832398E+03  0.70276418170E+03  0.00000000000E+00 0. -1.
        -13    1    1    2    0    0  0.18482594702E+03  0.39227340242E+02 -0.17578615195E+03  0.25807014026E+03  0.10566000000E+00 0.  1.
<mgrwt>
<rscale>  1 0.67215517E+03</rscale>
<asrwt>0</asrwt>
<pdfrwt beam="1">  1       21 0.60631547E-01 0.10260831E+04</pdfrwt>
<pdfrwt beam="2">  1       -4 0.14809972E+00 0.10260831E+04</pdfrwt>
<totfact> 0.30348266E+01</totfact>
</mgrwt>
</event>
<event>
 6    2  0.2294477E-005  0.1017642E+04  0.7818608E-02  0.9787602E-01
         21   -1    0    0  501  502  0.00000000000E+00  0.00000000000E+00  0.48326934425E+03  0.48326934425E+03  0.00000000000E+00 0. -1.
         -4   -1    0    0    0  501 -0.00000000000E+00 -0.00000000000E+00 -0.84264539106E+03  0.84264539106E+03  0.00000000000E+00 0. -1.
   -9000010    2    1    2    0  502  0.36234434651E+02  0.17672376841E+03 -0.11783527792E+03  0.10244413886E+04  0.10015242291E+04 0.  0.
         13    1    3    3    0    0 -0.10392913770E+03  0.63145149928E+02 -0.54623369886E+03  0.55960686250E+03  0.10566000000E+00 0. -1.
         -4    1    3    3    0  502  0.14016357235E+03  0.11357861848E+03  0.42839842094E+03  0.46483452610E+03  0.00000000000E+00 0. -1.
        -13    1    1    2    0    0 -0.36234434651E+02 -0.17672376841E+03 -0.24154076890E+03  0.30147334671E+03  0.10566000000E+00 0.  1.
<mgrwt>
<rscale>  1 0.66032158E+03</rscale>
<asrwt>0</asrwt>
<pdfrwt beam="1">  1       21 0.74349131E-01 0.10176419E+04</pdfrwt>
<pdfrwt beam="2">  1       -4 0.12963775E+00 0.10176419E+04</pdfrwt>
<totfact> 0.27066191E+01</totfact>
</mgrwt>
</event>
<event>
 6    2  0.2294477E-005  0.9981958E+03  0.7818608E-02  0.9963819E-01
         -4   -1    0    0    0  501 -0.00000000000E+00  0.00000000000E+00  0.98668422406E+03  0.98668422406E+03  0.00000000000E+00 0. -1.
         21   -1    0    0  501  502  0.00000000000E+00 -0.00000000000E+00 -0.54566744489E+03  0.54566744489E+03  0.00000000000E+00 0. -1.
   -9000010    2    1    2    0  502  0.62648636173E+02  0.88125975199E+02 -0.78901443346E+02  0.10013092899E+04  0.99232243604E+03 0.  0.
         13    1    3    3    0    0  0.33246649588E+03  0.31691881523E+02 -0.43661829227E+03  0.54970345692E+03  0.10566000000E+00 0. -1.
         -4    1    3    3    0  502 -0.26981785971E+03  0.56434093676E+02  0.35771684892E+03  0.45160583294E+03  0.00000000000E+00 0. -1.
        -13    1    1    2    0    0 -0.62648636173E+02 -0.88125975199E+02  0.51991822252E+03  0.53104237909E+03  0.10566000000E+00 0.  1.
<mgrwt>
<rscale>  1 0.57265558E+03</rscale>
<asrwt>0</asrwt>
<pdfrwt beam="2">  1       21 0.83948837E-01 0.99819580E+03</pdfrwt>
<pdfrwt beam="1">  1       -4 0.15179757E+00 0.99819580E+03</pdfrwt>
<totfact> 0.13466305E+01</totfact>
</mgrwt>
</event>
<event>
 6    2  0.2294477E-005  0.8767679E+03  0.7818608E-02  0.1005341E+00
         21   -1    0    0  501  502  0.00000000000E+00  0.00000000000E+00  0.53031934881E+03  0.53031934881E+03  0.00000000000E+00 0. -1.
         -4   -1    0    0    0  501 -0.00000000000E+00 -0.00000000000E+00 -0.46931598740E+03  0.46931598740E+03  0.00000000000E+00 0. -1.
   -9000010    2    1    2    0  502 -0.11965669171E+03 -0.13062148685E+02  0.65252960036E+02  0.87919276130E+03  0.86846624524E+03 0.  0.
         13    1    3    3    0    0  0.25941056866E+03 -0.16355592893E+03 -0.22350454454E+03  0.37947157682E+03  0.10566000000E+00 0. -1.
         -4    1    3    3    0  502 -0.37906726037E+03  0.15049378024E+03  0.28875750457E+03  0.49972118448E+03  0.00000000000E+00 0. -1.
        -13    1    1    2    0    0  0.11965669171E+03  0.13062148685E+02 -0.42495986282E+01  0.12044257491E+03  0.10566000000E+00 0.  1.
<mgrwt>
<rscale>  1 0.53369221E+03</rscale>
<asrwt>0</asrwt>
<pdfrwt beam="1">  1       21 0.81587592E-01 0.87676791E+03</pdfrwt>
<pdfrwt beam="2">  1       -4 0.72202460E-01 0.87676791E+03</pdfrwt>
<totfact> 0.89557204E+01</totfact>
</mgrwt>
</event>
<event>
 6    2  0.2294477E-005  0.1016325E+04  0.7818608E-02  0.9843592E-01
         -4   -1    0    0    0  501 -0.00000000000E+00  0.00000000000E+00  0.67926656080E+03  0.67926656080E+03  0.00000000000E+00 0. -1.
         21   -1    0    0  501  502  0.00000000000E+00 -0.00000000000E+00 -0.51258704433E+03  0.51258704433E+03  0.00000000000E+00 0. -1.
   -9000010    2    1    2    0  502 -0.12799868736E+03  0.79678557281E+02  0.83728206331E+02  0.10197685463E+04  0.10050796680E+04 0.  0.
         13    1    3    3    0    0 -0.27528936867E+03 -0.11769321995E+03  0.47261270033E+03  0.55946287294E+03  0.10566000000E+00 0. -1.
         -4    1    3    3    0  502  0.14729068132E+03  0.19737177723E+03 -0.38888449400E+03  0.46030567335E+03  0.00000000000E+00 0. -1.
        -13    1    1    2    0    0  0.12799868736E+03 -0.79678557281E+02  0.82951310144E+02  0.17208505883E+03  0.10566000000E+00 0.  1.
<mgrwt>
<rscale>  1 0.63074693E+03</rscale>
<asrwt>0</asrwt>
<pdfrwt beam="2">  1       21 0.78859545E-01 0.10163255E+04</pdfrwt>
<pdfrwt beam="1">  1       -4 0.10450255E+00 0.10163255E+04</pdfrwt>
<totfact> 0.40426440E+01</totfact>
</mgrwt>
</event>
<event>
 6    2  0.2294477E-005  0.9957500E+03  0.7818608E-02  0.1016511E+00
         -4   -1    0    0    0  501 -0.00000000000E+00  0.00000000000E+00  0.72304560971E+03  0.72304560971E+03  0.00000000000E+00 0. -1.
         21   -1    0    0  501  502  0.00000000000E+00 -0.00000000000E+00 -0.61144973015E+03  0.61144973015E+03  0.00000000000E+00 0. -1.
   -9000010    2    1    2    0  502 -0.67320667295E+01 -0.57840730628E+02 -0.20158224488E+03  0.10159495510E+04  0.99404588314E+03 0.  0.
         13    1    3    3    0    0 -0.39812368141E+03 -0.96393519795E+02 -0.40252751244E+03  0.57430182465E+03  0.10566000000E+00 0. -1.
         -4    1    3    3    0  502  0.39139161468E+03  0.38552789167E+02  0.20094526757E+03  0.44164772630E+03  0.00000000000E+00 0. -1.
        -13    1    1    2    0    0  0.67320667295E+01  0.57840730628E+02  0.31317812443E+03  0.31854578891E+03  0.10566000000E+00 0.  1.
<mgrwt>
<rscale>  1 0.48966811E+03</rscale>
<asrwt>0</asrwt>
<pdfrwt beam="2">  1       21 0.94069189E-01 0.99575001E+03</pdfrwt>
<pdfrwt beam="1">  1       -4 0.11123779E+00 0.99575001E+03</pdfrwt>
<totfact> 0.22790823E+01</totfact>
</mgrwt>
</event>
<event>
 6    2  0.2294477E-005  0.1022944E+04  0.7818608E-02  0.9858552E-01
         -4   -1    0    0    0  501 -0.00000000000E+00  0.00000000000E+00  0.57379680435E+03  0.57379680435E+03  0.00000000000E+00 0. -1.
         21   -1    0    0  501  502  0.00000000000E+00 -0.00000000000E+00 -0.79156323466E+03  0.79156323466E+03  0.00000000000E+00 0. -1.
   -9000010    2    1    2    0  502 -0.48875485123E+02 -0.13209677097E+03 -0.43081523591E+03  0.11099619680E+04  0.10132005887E+04 0.  0.
         13    1    3    3    0    0 -0.34305839257E+03 -0.74019556106E+02 -0.64989175663E+03  0.73859817350E+03  0.10566000000E+00 0. -1.
         -4    1    3    3    0  502  0.29418290745E+03 -0.58077214864E+02  0.21907652072E+03  0.37136379448E+03  0.00000000000E+00 0. -1.
        -13    1    1    2    0    0  0.48875485123E+02  0.13209677097E+03  0.21304880560E+03  0.25539807102E+03  0.10566000000E+00 0.  1.
<mgrwt>
<rscale>  1 0.62312773E+03</rscale>
<asrwt>0</asrwt>
<pdfrwt beam="2">  1       21 0.12177896E+00 0.10229437E+04</pdfrwt>
<pdfrwt beam="1">  1       -4 0.88276431E-01 0.10229437E+04</pdfrwt>
<totfact> 0.20684996E+01</totfact>
</mgrwt>
</event>
<event>
 6    2  0.2294477E-005  0.1091865E+04  0.7818608E-02  0.9474068E-01
         21   -1    0    0  501  502  0.00000000000E+00  0.00000000000E+00  0.30084886686E+03  0.30084886686E+03  0.00000000000E+00 0. -1.
         -4   -1    0    0    0  501 -0.00000000000E+00 -0.00000000000E+00 -0.29879092563E+04  0.29879092563E+04  0.00000000000E+00 0. -1.
   -9000010    2    1    2    0  502 -0.40853690367E+03 -0.11570206429E+03 -0.79755623021E+03  0.13521333923E+04  0.10059221644E+04 0.  0.
         13    1    3    3    0    0 -0.69815078109E+03  0.10548205160E+03 -0.39468498388E+03  0.80889877241E+03  0.10566000000E+00 0. -1.
         -4    1    3    3    0  502  0.28961387742E+03 -0.22118411589E+03 -0.40287124632E+03  0.54323461988E+03  0.00000000000E+00 0. -1.
        -13    1    1    2    0    0  0.40853690367E+03  0.11570206429E+03 -0.18895041593E+04  0.19366247309E+04  0.10566000000E+00 0.  1.
<mgrwt>
<rscale>  1 0.86222959E+03</rscale>
<asrwt>0</asrwt>
<pdfrwt beam="1">  1       21 0.46284443E-01 0.10918648E+04</pdfrwt>
<pdfrwt beam="2">  1       -4 0.45967833E+00 0.10918648E+04</pdfrwt>
<totfact> 0.44962491E-01</totfact>
</mgrwt>
</event>
<event>
 6    2  0.2294477E-005  0.1098608E+04  0.7818608E-02  0.9452715E-01
         21   -1    0    0  501  502  0.00000000000E+00  0.00000000000E+00  0.73390423874E+03  0.73390423874E+03  0.00000000000E+00 0.  1.
         -4   -1    0    0    0  501 -0.00000000000E+00 -0.00000000000E+00 -0.81817246065E+03  0.81817246065E+03  0.00000000000E+00 0. -1.
   -9000010    2    1    2    0  502 -0.38599613780E+03 -0.23021556553E+03 -0.26346349385E+02  0.10989242091E+04  0.10024709782E+04 0.  0.
         13    1    3    3    0    0  0.25296295245E+03  0.16552504132E+03  0.13359586598E+03  0.33050969908E+03  0.10566000000E+00 0. -1.
         -4    1    3    3    0  502 -0.63895909024E+03 -0.39574060685E+03 -0.15994221536E+03  0.76841450999E+03  0.00000000000E+00 0. -1.
        -13    1    1    2    0    0  0.38599613780E+03  0.23021556553E+03 -0.57921872525E+02  0.45315249032E+03  0.10566000000E+00 0.  1.
<mgrwt>
<rscale>  1 0.87861579E+03</rscale>
<asrwt>0</asrwt>
<pdfrwt beam="1">  1       21 0.11290835E+00 0.10986083E+04</pdfrwt>
<pdfrwt beam="2">  1       -4 0.12587269E+00 0.10986083E+04</pdfrwt>
<totfact> 0.10483804E+01</totfact>
</mgrwt>
</event>
<event>
 6    2  0.2294477E-005  0.1056009E+04  0.7818608E-02  0.9532262E-01
         21   -1    0    0  501  502  0.00000000000E+00  0.00000000000E+00  0.61330640093E+03  0.61330640093E+03  0.00000000000E+00 0.  1.
         -4   -1    0    0    0  501 -0.00000000000E+00 -0.00000000000E+00 -0.85773233008E+03  0.85773233008E+03  0.00000000000E+00 0. -1.
   -9000010    2    1    2    0  502 -0.36638830220E+03  0.11133096041E+03 -0.26087968033E+03  0.10877559270E+04  0.98413402463E+03 0.  0.
         13    1    3    3    0    0  0.15343345559E+02 -0.34297189946E+03 -0.34701991020E+03  0.48814748930E+03  0.10566000000E+00 0. -1.
         -4    1    3    3    0  502 -0.38173164776E+03  0.45430285986E+03  0.86140229872E+02  0.59960843772E+03  0.00000000000E+00 0. -1.
        -13    1    1    2    0    0  0.36638830220E+03 -0.11133096041E+03  0.16453751182E+02  0.38328280398E+03  0.10566000000E+00 0.  1.
<mgrwt>
<rscale>  1 0.81946504E+03</rscale>
<asrwt>0</asrwt>
<pdfrwt beam="1">  1       21 0.94354831E-01 0.10560089E+04</pdfrwt>
<pdfrwt beam="2">  1       -4 0.13195882E+00 0.10560089E+04</pdfrwt>
<totfact> 0.14615711E+01</totfact>
</mgrwt>
</event>
<event>
 6    2  0.2294477E-005  0.1008246E+04  0.7818608E-02  0.9933830E-01
         21   -1    0    0  501  502  0.00000000000E+00  0.00000000000E+00  0.12478092214E+04  0.12478092214E+04  0.00000000000E+00 0. -1.
         -4   -1    0    0    0  501 -0.00000000000E+00 -0.00000000000E+00 -0.47265562754E+03  0.47265562754E+03  0.00000000000E+00 0. -1.
   -9000010    2    1    2    0  502  0.10538308049E+03 -0.47124158417E+02  0.10296013979E+04  0.14410547988E+04  0.10016155024E+04 0.  0.
         13    1    3    3    0    0 -0.28373936455E+03  0.32629082985E+03  0.27108022808E+03  0.51035108882E+03  0.10566000000E+00 0. -1.
         -4    1    3    3    0  502  0.38912244504E+03 -0.37341498826E+03  0.75852116983E+03  0.93070370998E+03  0.00000000000E+00 0. -1.
        -13    1    1    2    0    0 -0.10538308049E+03  0.47124158417E+02 -0.25444780406E+03  0.27941005013E+03  0.10566000000E+00 0.  1.
<mgrwt>
<rscale>  1 0.58649394E+03</rscale>
<asrwt>0</asrwt>
<pdfrwt beam="1">  1       21 0.19197065E+00 0.10082459E+04</pdfrwt>
<pdfrwt beam="2">  1       -4 0.72716251E-01 0.10082459E+04</pdfrwt>
<totfact> 0.89476039E+00</totfact>
</mgrwt>
</event>
<event>
 6    2  0.2294477E-005  0.1024483E+04  0.7818608E-02  0.9630271E-01
         21   -1    0    0  501  502  0.00000000000E+00  0.00000000000E+00  0.11402697673E+04  0.11402697673E+04  0.00000000000E+00 0. -1.
         -4   -1    0    0    0  501 -0.00000000000E+00 -0.00000000000E+00 -0.43102632756E+03  0.43102632756E+03  0.00000000000E+00 0. -1.
   -9000010    2    1    2    0  502  0.29828364946E+03  0.25686305632E+02  0.74927615034E+03  0.12692438628E+04  0.97976135461E+03 0.  0.
         13    1    3    3    0    0  0.26068633380E+03 -0.39089200788E+03  0.75031899430E+02  0.47579798607E+03  0.10566000000E+00 0. -1.
         -4    1    3    3    0  502  0.37597315664E+02  0.41657831351E+03  0.67424425091E+03  0.79344587675E+03  0.00000000000E+00 0. -1.
        -13    1    1    2    0    0 -0.29828364946E+03 -0.25686305632E+02 -0.40032710552E+02  0.30205223209E+03  0.10566000000E+00 0.  1.
<mgrwt>
<rscale>  1 0.75324627E+03</rscale>
<asrwt>0</asrwt>
<pdfrwt beam="1">  1       21 0.17542612E+00 0.10244829E+04</pdfrwt>
<pdfrwt beam="2">  1       -4 0.66311743E-01 0.10244829E+04</pdfrwt>
<totfact> 0.14427291E+01</totfact>
</mgrwt>
</event>
<event>
 6    2  0.2294477E-005  0.1128867E+04  0.7818608E-02  0.9477513E-01
         21   -1    0    0  501  502  0.00000000000E+00  0.00000000000E+00  0.10099397865E+04  0.10099397865E+04  0.00000000000E+00 0. -1.
         -4   -1    0    0    0  501 -0.00000000000E+00 -0.00000000000E+00 -0.79151208896E+03  0.79151208896E+03  0.00000000000E+00 0. -1.
   -9000010    2    1    2    0  502 -0.37909899070E+03  0.19072483037E+02  0.58700691660E+03  0.12723673299E+04  0.10631376664E+04 0.  0.
         13    1    3    3    0    0 -0.54975349485E+03  0.41788051545E+03  0.30451578150E+03  0.75470716350E+03  0.10566000000E+00 0. -1.
         -4    1    3    3    0  502  0.17065450415E+03 -0.39880803241E+03  0.28249113510E+03  0.51766016643E+03  0.00000000000E+00 0. -1.
        -13    1    1    2    0    0  0.37909899070E+03 -0.19072483037E+02 -0.36857921910E+03  0.52908454549E+03  0.10566000000E+00 0.  1.
<mgrwt>
<rscale>  1 0.85962211E+03</rscale>
<asrwt>0</asrwt>
<pdfrwt beam="1">  1       21 0.15537535E+00 0.11288674E+04</pdfrwt>
<pdfrwt beam="2">  1       -4 0.12177109E+00 0.11288674E+04</pdfrwt>
<totfact> 0.48241103E+00</totfact>
</mgrwt>
</event>
<event>
 6    2  0.2294477E-005  0.1039625E+04  0.7818608E-02  0.1000154E+00
         -4   -1    0    0    0  501 -0.00000000000E+00  0.00000000000E+00  0.45828036346E+03  0.45828036346E+03  0.00000000000E+00 0. -1.
         21   -1    0    0  501  502  0.00000000000E+00 -0.00000000000E+00 -0.90456474498E+03  0.90456474498E+03  0.00000000000E+00 0. -1.
   -9000010    2    1    2    0  502 -0.83861823882E+02  0.13516574568E+02 -0.59039007955E+03  0.11955669967E+04  0.10361488765E+04 0.  0.
         13    1    3    3    0    0 -0.52766889273E+03 -0.14285617962E+03 -0.19322268916E+03  0.57980804339E+03  0.10566000000E+00 0. -1.
         -4    1    3    3    0  502  0.44380706885E+03  0.15637275419E+03 -0.39716739039E+03  0.61575895333E+03  0.00000000000E+00 0. -1.
        -13    1    1    2    0    0  0.83861823882E+02 -0.13516574568E+02  0.14410569802E+03  0.16727811172E+03  0.10566000000E+00 0.  1.
<mgrwt>
<rscale>  1 0.55582865E+03</rscale>
<asrwt>0</asrwt>
<pdfrwt beam="2">  1       21 0.13916381E+00 0.10396249E+04</pdfrwt>
<pdfrwt beam="1">  1       -4 0.70504672E-01 0.10396249E+04</pdfrwt>
<totfact> 0.24239728E+01</totfact>
</mgrwt>
</event>
<event>
 6    2  0.2294477E-005  0.1043495E+04  0.7818608E-02  0.9544598E-01
         21   -1    0    0  501  502  0.00000000000E+00  0.00000000000E+00  0.34982866166E+03  0.34982866166E+03  0.00000000000E+00 0. -1.
         -4   -1    0    0    0  501 -0.00000000000E+00 -0.00000000000E+00 -0.15284393346E+04  0.15284393346E+04  0.00000000000E+00 0. -1.
   -9000010    2    1    2    0  502  0.94313350081E+01 -0.38012429193E+03 -0.65817481224E+03  0.12337240306E+04  0.97174969660E+03 0.  0.
         13    1    3    3    0    0  0.25992389068E+03  0.24797322120E+03 -0.15702282400E+03  0.39205525860E+03  0.10566000000E+00 0. -1.
         -4    1    3    3    0  502 -0.25049255568E+03 -0.62809751312E+03 -0.50115198824E+03  0.84166877200E+03  0.00000000000E+00 0. -1.
        -13    1    1    2    0    0 -0.94313350081E+01  0.38012429193E+03 -0.52043586068E+03  0.64454396563E+03  0.10566000000E+00 0.  1.
<mgrwt>
<rscale>  1 0.81074161E+03</rscale>
<asrwt>0</asrwt>
<pdfrwt beam="1">  1       21 0.53819795E-01 0.10434946E+04</pdfrwt>
<pdfrwt beam="2">  1       -4 0.23514451E+00 0.10434946E+04</pdfrwt>
<totfact> 0.99749935E+00</totfact>
</mgrwt>
</event>
<event>
 6    2  0.2294477E-005  0.1204645E+04  0.7818608E-02  0.9264060E-01
         -4   -1    0    0    0  501 -0.00000000000E+00  0.00000000000E+00  0.53905808428E+03  0.53905808428E+03  0.00000000000E+00 0. -1.
         21   -1    0    0  501  502  0.00000000000E+00 -0.00000000000E+00 -0.24413181087E+04  0.24413181087E+04  0.00000000000E+00 0. -1.
   -9000010    2    1    2    0  502 -0.19894583548E+03 -0.64326405659E+03 -0.19642272208E+04  0.23042045900E+04  0.99890045842E+03 0.  0.
         13    1    3    3    0    0 -0.26222543399E+03  0.20743291912E+03 -0.38996386907E+03  0.51367540773E+03  0.10566000000E+00 0. -1.
         -4    1    3    3    0  502  0.63279598504E+02 -0.85069697571E+03 -0.15742633517E+04  0.17905291823E+04  0.00000000000E+00 0. -1.
        -13    1    1    2    0    0  0.19894583548E+03  0.64326405659E+03  0.61967196436E+02  0.67617160289E+03  0.10566000000E+00 0.  1.
<mgrwt>
<rscale>  1 0.10415995E+04</rscale>
<asrwt>0</asrwt>
<pdfrwt beam="2">  1       21 0.37558740E+00 0.12046453E+04</pdfrwt>
<pdfrwt beam="1">  1       -4 0.82932013E-01 0.12046453E+04</pdfrwt>
<totfact> 0.42635590E-01</totfact>
</mgrwt>
</event>
<event>
 6    2  0.2294477E-005  0.1121329E+04  0.7818608E-02  0.9425380E-01
         -4   -1    0    0    0  501 -0.00000000000E+00  0.00000000000E+00  0.80115046592E+03  0.80115046592E+03  0.00000000000E+00 0. -1.
         21   -1    0    0  501  502  0.00000000000E+00 -0.00000000000E+00 -0.85590300253E+03  0.85590300253E+03  0.00000000000E+00 0.  1.
   -9000010    2    1    2    0  502  0.30969980097E+03  0.34776223669E+03  0.17978724586E+03  0.11356501114E+04  0.10200613618E+04 0.  0.
         13    1    3    3    0    0  0.43148733569E+03  0.45717728866E+03  0.48185279254E+03  0.79206976901E+03  0.10566000000E+00 0. -1.
         -4    1    3    3    0  502 -0.12178753472E+03 -0.10941505197E+03 -0.30206554668E+03  0.34358034243E+03  0.00000000000E+00 0. -1.
        -13    1    1    2    0    0 -0.30969980097E+03 -0.34776223669E+03 -0.23453978246E+03  0.52140335702E+03  0.10566000000E+00 0.  1.
<mgrwt>
<rscale>  1 0.90016118E+03</rscale>
<asrwt>0</asrwt>
<pdfrwt beam="2">  1       21 0.13167738E+00 0.11213286E+04</pdfrwt>
<pdfrwt beam="1">  1       -4 0.12325392E+00 0.11213286E+04</pdfrwt>
<totfact> 0.73818458E+00</totfact>
</mgrwt>
</event>
<event>
 6    2  0.2294477E-005  0.1243780E+04  0.7818608E-02  0.9212762E-01
         -4   -1    0    0    0  501 -0.00000000000E+00  0.00000000000E+00  0.81376289682E+03  0.81376289682E+03  0.00000000000E+00 0. -1.
         21   -1    0    0  501  502  0.00000000000E+00 -0.00000000000E+00 -0.14631540761E+04  0.14631540761E+04  0.00000000000E+00 0. -1.
   -9000010    2    1    2    0  502 -0.61235785566E+03 -0.41502550349E+03 -0.85478037250E+03  0.15091845692E+04  0.99988012620E+03 0.  0.
         13    1    3    3    0    0 -0.37994574247E+03 -0.43891967864E+03  0.42410382358E+02  0.58207207734E+03  0.10566000000E+00 0. -1.
         -4    1    3    3    0  502 -0.23241211319E+03  0.23894175153E+02 -0.89719075486E+03  0.92711249186E+03  0.00000000000E+00 0. -1.
        -13    1    1    2    0    0  0.61235785566E+03  0.41502550349E+03  0.20538919318E+03  0.76773240375E+03  0.10566000000E+00 0.  1.
<mgrwt>
<rscale>  1 0.10922668E+04</rscale>
<asrwt>0</asrwt>
<pdfrwt beam="2">  1       21 0.22510063E+00 0.12437800E+04</pdfrwt>
<pdfrwt beam="1">  1       -4 0.12519429E+00 0.12437800E+04</pdfrwt>
<totfact> 0.14056172E+00</totfact>
</mgrwt>
</event>
<event>
 6    2  0.2294477E-005  0.1035555E+04  0.7818608E-02  0.9683019E-01
         -4   -1    0    0    0  501 -0.00000000000E+00  0.00000000000E+00  0.91728645502E+03  0.91728645502E+03  0.00000000000E+00 0. -1.
         21   -1    0    0  501  502  0.00000000000E+00 -0.00000000000E+00 -0.49329034928E+03  0.49329034928E+03  0.00000000000E+00 0. -1.
   -9000010    2    1    2    0  502  0.56889735869E+01  0.24242703122E+03  0.15278443435E+03  0.10467650236E+04  0.10067624851E+04 0.  0.
         13    1    3    3    0    0  0.35321280680E+03 -0.17367869739E+03  0.28835973508E+03  0.48792922109E+03  0.10566000000E+00 0. -1.
         -4    1    3    3    0  502 -0.34752383321E+03  0.41610572861E+03 -0.13557530073E+03  0.55883580254E+03  0.00000000000E+00 0. -1.
        -13    1    1    2    0    0 -0.56889735869E+01 -0.24242703122E+03  0.27121167140E+03  0.36381178067E+03  0.10566000000E+00 0.  1.
<mgrwt>
<rscale>  1 0.72036898E+03</rscale>
<asrwt>0</asrwt>
<pdfrwt beam="2">  1       21 0.75890823E-01 0.10355549E+04</pdfrwt>
<pdfrwt beam="1">  1       -4 0.14112099E+00 0.10355549E+04</pdfrwt>
<totfact> 0.20661705E+01</totfact>
</mgrwt>
</event>
<event>
 6    2  0.2294477E-005  0.9915558E+03  0.7818608E-02  0.9654521E-01
         21   -1    0    0  501  502  0.00000000000E+00  0.00000000000E+00  0.10491694186E+04  0.10491694186E+04  0.00000000000E+00 0. -1.
         -4   -1    0    0    0  501 -0.00000000000E+00 -0.00000000000E+00 -0.40038070894E+03  0.40038070894E+03  0.00000000000E+00 0. -1.
   -9000010    2    1    2    0  502  0.30411918052E+03  0.11315693276E+01  0.51464866382E+03  0.11171598156E+04  0.94376535746E+03 0.  0.
         13    1    3    3    0    0  0.24612160975E+03 -0.45438344462E+03  0.37056864829E+03  0.63589409164E+03  0.10566000000E+00 0. -1.
         -4    1    3    3    0  502  0.57997570774E+02  0.45551501395E+03  0.14408001553E+03  0.48126572393E+03  0.00000000000E+00 0. -1.
        -13    1    1    2    0    0 -0.30411918052E+03 -0.11315693276E+01  0.13414004579E+03  0.33239031192E+03  0.10566000000E+00 0.  1.
<mgrwt>
<rscale>  1 0.73790349E+03</rscale>
<asrwt>0</asrwt>
<pdfrwt beam="1">  1       21 0.16141068E+00 0.99155575E+03</pdfrwt>
<pdfrwt beam="2">  1       -4 0.61597033E-01 0.99155575E+03</pdfrwt>
<totfact> 0.21723098E+01</totfact>
</mgrwt>
</event>
<event>
 6    2  0.2294477E-005  0.8905834E+03  0.7818608E-02  0.9767026E-01
         -4   -1    0    0    0  501 -0.00000000000E+00  0.00000000000E+00  0.11393133120E+04  0.11393133120E+04  0.00000000000E+00 0. -1.
         21   -1    0    0  501  502  0.00000000000E+00 -0.00000000000E+00 -0.93853585669E+03  0.93853585669E+03  0.00000000000E+00 0. -1.
   -9000010    2    1    2    0  502  0.20533928060E+03  0.20202747247E+03 -0.69960241960E+03  0.11325115305E+04  0.84270961875E+03 0.  0.
         13    1    3    3    0    0  0.31502032800E+03  0.13549194692E+03 -0.86074514927E+03  0.92654093157E+03  0.10566000000E+00 0. -1.
         -4    1    3    3    0  502 -0.10968104740E+03  0.66535525549E+02  0.16114272966E+03  0.20597059898E+03  0.00000000000E+00 0. -1.
        -13    1    1    2    0    0 -0.20533928060E+03 -0.20202747247E+03  0.90037987490E+03  0.94533763814E+03  0.10566000000E+00 0.  1.
<mgrwt>
<rscale>  1 0.67162553E+03</rscale>
<asrwt>0</asrwt>
<pdfrwt beam="2">  1       21 0.14439013E+00 0.89058342E+03</pdfrwt>
<pdfrwt beam="1">  1       -4 0.17527897E+00 0.89058342E+03</pdfrwt>
<totfact> 0.23122649E+00</totfact>
</mgrwt>
</event>
<event>
 6    2  0.2294477E-005  0.1011300E+04  0.7818608E-02  0.9809279E-01
         -4   -1    0    0    0  501 -0.00000000000E+00  0.00000000000E+00  0.56088699273E+03  0.56088699273E+03  0.00000000000E+00 0. -1.
         21   -1    0    0  501  502  0.00000000000E+00 -0.00000000000E+00 -0.72211279796E+03  0.72211279796E+03  0.00000000000E+00 0. -1.
   -9000010    2    1    2    0  502  0.14704921419E+03  0.87631352636E+02 -0.30836994059E+03  0.10572695688E+04  0.99670667470E+03 0.  0.
         13    1    3    3    0    0  0.76129318311E+02 -0.45631220917E+03 -0.13254222393E+03  0.48123170888E+03  0.10566000000E+00 0. -1.
         -4    1    3    3    0  502  0.70919895882E+02  0.54394356180E+03 -0.17582771667E+03  0.57603785987E+03  0.00000000000E+00 0. -1.
        -13    1    1    2    0    0 -0.14704921419E+03 -0.87631352636E+02  0.14714413536E+03  0.22573022193E+03  0.10566000000E+00 0.  1.
<mgrwt>
<rscale>  1 0.64866939E+03</rscale>
<asrwt>0</asrwt>
<pdfrwt beam="2">  1       21 0.11109428E+00 0.10112996E+04</pdfrwt>
<pdfrwt beam="1">  1       -4 0.86290306E-01 0.10112996E+04</pdfrwt>
<totfact> 0.27653724E+01</totfact>
</mgrwt>
</event>
<event>
 6    2  0.2294477E-005  0.1002357E+04  0.7818608E-02  0.1017128E+00
         -4   -1    0    0    0  501 -0.00000000000E+00  0.00000000000E+00  0.61148331669E+03  0.61148331669E+03  0.00000000000E+00 0. -1.
         21   -1    0    0  501  502  0.00000000000E+00 -0.00000000000E+00 -0.47585421201E+03  0.47585421201E+03  0.00000000000E+00 0. -1.
   -9000010    2    1    2    0  502  0.55699590838E+02  0.60374349277E+01  0.75567157921E+02  0.10052013999E+04  0.10007899700E+04 0.  0.
         13    1    3    3    0    0 -0.36174355606E+03 -0.19085782201E+03  0.28484937302E+03  0.49842179431E+03  0.10566000000E+00 0. -1.
         -4    1    3    3    0  502  0.41744314690E+03  0.19689525694E+03 -0.20928221509E+03  0.50677960560E+03  0.00000000000E+00 0. -1.
        -13    1    1    2    0    0 -0.55699590838E+02 -0.60374349277E+01  0.60061946760E+02  0.82136128790E+02  0.10566000000E+00 0.  1.
<mgrwt>
<rscale>  1 0.48737595E+03</rscale>
<asrwt>0</asrwt>
<pdfrwt beam="2">  1       21 0.73208340E-01 0.10023570E+04</pdfrwt>
<pdfrwt beam="1">  1       -4 0.94074357E-01 0.10023570E+04</pdfrwt>
<totfact> 0.61980785E+01</totfact>
</mgrwt>
</event>
<event>
 6    2  0.2294477E-005  0.1010068E+04  0.7818608E-02  0.9812622E-01
         -4   -1    0    0    0  501 -0.00000000000E+00  0.00000000000E+00  0.27031933727E+03  0.27031933727E+03  0.00000000000E+00 0. -1.
         21   -1    0    0  501  502  0.00000000000E+00 -0.00000000000E+00 -0.20176496095E+04  0.20176496095E+04  0.00000000000E+00 0. -1.
   -9000010    2    1    2    0  502  0.21370978119E+01 -0.16992246110E+03 -0.18365878618E+04  0.20960180717E+04  0.99566991156E+03 0.  0.
         13    1    3    3    0    0 -0.78509601463E+02 -0.56347043231E+03 -0.77840475076E+03  0.96414555580E+03  0.10566000000E+00 0. -1.
         -4    1    3    3    0  502  0.80646699275E+02  0.39354797120E+03 -0.10581831110E+04  0.11318725159E+04  0.00000000000E+00 0. -1.
        -13    1    1    2    0    0 -0.21370978119E+01  0.16992246110E+03  0.89257589581E+02  0.19195087506E+03  0.10566000000E+00 0.  1.
<mgrwt>
<rscale>  1 0.64689556E+03</rscale>
<asrwt>0</asrwt>
<pdfrwt beam="2">  1       21 0.31040763E+00 0.10100677E+04</pdfrwt>
<pdfrwt beam="1">  1       -4 0.41587591E-01 0.10100677E+04</pdfrwt>
<totfact> 0.51325002E+00</totfact>
</mgrwt>
</event>
<event>
 6    2  0.2294477E-005  0.1006169E+04  0.7818608E-02  0.1012405E+00
         -4   -1    0    0    0  501 -0.00000000000E+00  0.00000000000E+00  0.12124735499E+04  0.12124735499E+04  0.00000000000E+00 0. -1.
         21   -1    0    0  501  502  0.00000000000E+00 -0.00000000000E+00 -0.25030359778E+03  0.25030359778E+03  0.00000000000E+00 0. -1.
   -9000010    2    1    2    0  502  0.18155064619E+02  0.61370446360E+02  0.79047425051E+03  0.12795413347E+04  0.10041317385E+04 0.  0.
         13    1    3    3    0    0 -0.17727911182E+03  0.49690421435E+03  0.44634184643E+03  0.69105914129E+03  0.10566000000E+00 0. -1.
         -4    1    3    3    0  502  0.19543417643E+03 -0.43553376798E+03  0.34413240408E+03  0.58848219337E+03  0.00000000000E+00 0. -1.
        -13    1    1    2    0    0 -0.18155064619E+02 -0.61370446360E+02  0.17169570166E+03  0.18323581307E+03  0.10566000000E+00 0.  1.
<mgrwt>
<rscale>  1 0.50529801E+03</rscale>
<asrwt>0</asrwt>
<pdfrwt beam="2">  1       21 0.38508246E-01 0.10061692E+04</pdfrwt>
<pdfrwt beam="1">  1       -4 0.18653439E+00 0.10061692E+04</pdfrwt>
<totfact> 0.42375690E+01</totfact>
</mgrwt>
</event>
<event>
 6    2  0.2294477E-005  0.1051598E+04  0.7818608E-02  0.9491626E-01
         -4   -1    0    0    0  501 -0.00000000000E+00  0.00000000000E+00  0.16855274240E+04  0.16855274240E+04  0.00000000000E+00 0. -1.
         21   -1    0    0  501  502  0.00000000000E+00 -0.00000000000E+00 -0.36808953838E+03  0.36808953838E+03  0.00000000000E+00 0.  1.
   -9000010    2    1    2    0  502 -0.35921511438E+03 -0.26578473466E+03  0.11918444126E+04  0.15894502303E+04  0.95193587339E+03 0.  0.
         13    1    3    3    0    0 -0.36590202932E+03 -0.51813300251E+03  0.11764364199E+04  0.13365435887E+04  0.10566000000E+00 0. -1.
         -4    1    3    3    0  502  0.66869149364E+01  0.25234826785E+03  0.15407992780E+02  0.25290664159E+03  0.00000000000E+00 0. -1.
        -13    1    1    2    0    0  0.35921511438E+03  0.26578473466E+03  0.12559347301E+03  0.46416673212E+03  0.10566000000E+00 0.  1.
<mgrwt>
<rscale>  1 0.84904062E+03</rscale>
<asrwt>0</asrwt>
<pdfrwt beam="2">  1       21 0.56629160E-01 0.10515983E+04</pdfrwt>
<pdfrwt beam="1">  1       -4 0.25931191E+00 0.10515983E+04</pdfrwt>
<totfact> 0.63061065E+00</totfact>
</mgrwt>
</event>
<event>
 6    2  0.2294477E-005  0.1330980E+04  0.7818608E-02  0.9117887E-01
         21   -1    0    0  501  502  0.00000000000E+00  0.00000000000E+00  0.59129434419E+03  0.59129434419E+03  0.00000000000E+00 0.  1.
         -4   -1    0    0    0  501 -0.00000000000E+00 -0.00000000000E+00 -0.20380712124E+04  0.20380712124E+04  0.00000000000E+00 0. -1.
   -9000010    2    1    2    0  502  0.84300174455E+03 -0.18362654915E+03 -0.92940824863E+03  0.16233630961E+04  0.10134778726E+04 0.  0.
         13    1    3    3    0    0  0.93601870016E+03 -0.39840849143E+03 -0.94540457526E+03  0.13887584942E+04  0.10566000000E+00 0. -1.
         -4    1    3    3    0  502 -0.93016955619E+02  0.21478194228E+03  0.15996326630E+02  0.23460460189E+03  0.00000000000E+00 0. -1.
        -13    1    1    2    0    0 -0.84300174455E+03  0.18362654915E+03 -0.51736861959E+03  0.10060024605E+04  0.10566000000E+00 0.  1.
<mgrwt>
<rscale>  1 0.11942696E+04</rscale>
<asrwt>0</asrwt>
<pdfrwt beam="1">  1       21 0.90968359E-01 0.13309801E+04</pdfrwt>
<pdfrwt beam="2">  1       -4 0.31354942E+00 0.13309801E+04</pdfrwt>
<totfact> 0.93579935E-01</totfact>
</mgrwt>
</event>
<event>
 6    2  0.2294477E-005  0.1037984E+04  0.7818608E-02  0.9732181E-01
         -4   -1    0    0    0  501 -0.00000000000E+00  0.00000000000E+00  0.68356229082E+03  0.68356229082E+03  0.00000000000E+00 0. -1.
         21   -1    0    0  501  502  0.00000000000E+00 -0.00000000000E+00 -0.59709200963E+03  0.59709200963E+03  0.00000000000E+00 0.  1.
   -9000010    2    1    2    0  502  0.11971829306E+02 -0.20389860472E+03  0.18424368172E+03  0.10542086895E+04  0.10176896683E+04 0.  0.
         13    1    3    3    0    0 -0.47871085360E+03 -0.15358038898E+03  0.24131993999E+03  0.55766149395E+03  0.10566000000E+00 0. -1.
         -4    1    3    3    0  502  0.49068268291E+03 -0.50318215738E+02 -0.57076258262E+02  0.49654719554E+03  0.00000000000E+00 0. -1.
        -13    1    1    2    0    0 -0.11971829306E+02  0.20389860472E+03 -0.97773400534E+02  0.22644561095E+03  0.10566000000E+00 0.  1.
<mgrwt>
<rscale>  1 0.69132676E+03</rscale>
<asrwt>0</asrwt>
<pdfrwt beam="2">  1       21 0.91860309E-01 0.10379837E+04</pdfrwt>
<pdfrwt beam="1">  1       -4 0.10516343E+00 0.10379837E+04</pdfrwt>
<totfact> 0.27607204E+01</totfact>
</mgrwt>
</event>
<event>
 6    2  0.2294477E-005  0.1006915E+04  0.7818608E-02  0.9930965E-01
         -4   -1    0    0    0  501 -0.00000000000E+00  0.00000000000E+00  0.83399407271E+03  0.83399407271E+03  0.00000000000E+00 0. -1.
         21   -1    0    0  501  502  0.00000000000E+00 -0.00000000000E+00 -0.43314126507E+03  0.43314126507E+03  0.00000000000E+00 0. -1.
   -9000010    2    1    2    0  502  0.98386618506E+02 -0.63250842142E+02  0.18807490041E+03  0.10243287384E+04  0.10000982954E+04 0.  0.
         13    1    3    3    0    0  0.12520195415E+02  0.43107295639E+03 -0.10421998477E+03  0.44366931989E+03  0.10566000000E+00 0. -1.
         -4    1    3    3    0  502  0.85866423091E+02 -0.49432379853E+03  0.29229488518E+03  0.58065941852E+03  0.00000000000E+00 0. -1.
        -13    1    1    2    0    0 -0.98386618506E+02  0.63250842142E+02  0.21277790723E+03  0.24280659938E+03  0.10566000000E+00 0.  1.
<mgrwt>
<rscale>  1 0.58783803E+03</rscale>
<asrwt>0</asrwt>
<pdfrwt beam="2">  1       21 0.66637118E-01 0.10069147E+04</pdfrwt>
<pdfrwt beam="1">  1       -4 0.12830678E+00 0.10069147E+04</pdfrwt>
<totfact> 0.35765173E+01</totfact>
</mgrwt>
</event>
<event>
 6    2  0.2294477E-005  0.1272203E+04  0.7818608E-02  0.9167044E-01
         -4   -1    0    0    0  501 -0.00000000000E+00  0.00000000000E+00  0.70599807401E+03  0.70599807401E+03  0.00000000000E+00 0. -1.
         21   -1    0    0  501  502  0.00000000000E+00 -0.00000000000E+00 -0.15593018502E+04  0.15593018502E+04  0.00000000000E+00 0. -1.
   -9000010    2    1    2    0  502 -0.68096910343E+03  0.45736390632E+03 -0.60139058832E+03  0.14071851720E+04  0.97241904847E+03 0.  0.
         13    1    3    3    0    0 -0.51473000669E+02  0.59798840740E+03 -0.14625570083E+03  0.61776237047E+03  0.10566000000E+00 0. -1.
         -4    1    3    3    0  502 -0.62949610276E+03 -0.14062450108E+03 -0.45513488749E+03  0.78942280149E+03  0.00000000000E+00 0. -1.
        -13    1    1    2    0    0  0.68096910343E+03 -0.45736390632E+03 -0.25191318786E+03  0.85811475224E+03  0.10566000000E+00 0.  1.
<mgrwt>
<rscale>  1 0.11400164E+04</rscale>
<asrwt>0</asrwt>
<pdfrwt beam="2">  1       21 0.23989259E+00 0.12722026E+04</pdfrwt>
<pdfrwt beam="1">  1       -4 0.10861509E+00 0.12722026E+04</pdfrwt>
<totfact> 0.15998347E+00</totfact>
</mgrwt>
</event>
<event>
 6    2  0.2294477E-005  0.9986303E+03  0.7818608E-02  0.9861398E-01
         21   -1    0    0  501  502  0.00000000000E+00  0.00000000000E+00  0.46401905429E+03  0.46401905429E+03  0.00000000000E+00 0. -1.
         -4   -1    0    0    0  501 -0.00000000000E+00 -0.00000000000E+00 -0.75395060950E+03  0.75395060950E+03  0.00000000000E+00 0. -1.
   -9000010    2    1    2    0  502  0.14983130588E+03  0.70614161970E+01 -0.34741268352E+03  0.10573353739E+04  0.98730098570E+03 0.  0.
         13    1    3    3    0    0  0.20058504047E+03 -0.42611780186E+03 -0.40016387091E+03  0.61801446121E+03  0.10566000000E+00 0. -1.
         -4    1    3    3    0  502 -0.50753734588E+02  0.43317921806E+03  0.52751187396E+02  0.43932091266E+03  0.00000000000E+00 0. -1.
        -13    1    1    2    0    0 -0.14983130588E+03 -0.70614161970E+01  0.57481128307E+02  0.16063428991E+03  0.10566000000E+00 0.  1.
<mgrwt>
<rscale>  1 0.62169121E+03</rscale>
<asrwt>0</asrwt>
<pdfrwt beam="1">  1       21 0.71387547E-01 0.99863032E+03</pdfrwt>
<pdfrwt beam="2">  1       -4 0.11599240E+00 0.99863032E+03</pdfrwt>
<totfact> 0.39464380E+01</totfact>
</mgrwt>
</event>
<event>
 6    2  0.2294477E-005  0.1085077E+04  0.7818608E-02  0.9511239E-01
         21   -1    0    0  501  502  0.00000000000E+00  0.00000000000E+00  0.13857364690E+04  0.13857364690E+04  0.00000000000E+00 0. -1.
         -4   -1    0    0    0  501 -0.00000000000E+00 -0.00000000000E+00 -0.12094306913E+04  0.12094306913E+04  0.00000000000E+00 0. -1.
   -9000010    2    1    2    0  502 -0.20927063458E+03  0.31692719270E+03  0.11312217263E+04  0.15674991574E+04  0.10164418186E+04 0.  0.
         13    1    3    3    0    0  0.30955761713E+03 -0.29457361826E+02  0.80616956398E+03  0.86406193733E+03  0.10566000000E+00 0. -1.
         -4    1    3    3    0  502 -0.51882825171E+03  0.34638455452E+03  0.32505216231E+03  0.70343722009E+03  0.00000000000E+00 0. -1.
        -13    1    1    2    0    0  0.20927063458E+03 -0.31692719270E+03 -0.95491594861E+03  0.10276680028E+04  0.10566000000E+00 0.  1.
<mgrwt>
<rscale>  1 0.83460287E+03</rscale>
<asrwt>0</asrwt>
<pdfrwt beam="1">  1       21 0.21319023E+00 0.10850765E+04</pdfrwt>
<pdfrwt beam="2">  1       -4 0.18606626E+00 0.10850765E+04</pdfrwt>
<totfact> 0.58767832E-01</totfact>
</mgrwt>
</event>
<event>
 6    2  0.2294477E-005  0.1038516E+04  0.7818608E-02  0.9559357E-01
         -4   -1    0    0    0  501 -0.00000000000E+00  0.00000000000E+00  0.55454962903E+03  0.55454962903E+03  0.00000000000E+00 0. -1.
         21   -1    0    0  501  502  0.00000000000E+00 -0.00000000000E+00 -0.89044507741E+03  0.89044507741E+03  0.00000000000E+00 0. -1.
   -9000010    2    1    2    0  502 -0.13250505677E+03 -0.34174187719E+03 -0.26268867043E+03  0.10712242633E+04  0.97168461135E+03 0.  0.
         13    1    3    3    0    0  0.13870612700E+03 -0.40290742474E+03  0.24562999127E+03  0.49184132233E+03  0.10566000000E+00 0. -1.
         -4    1    3    3    0  502 -0.27121118377E+03  0.61165547553E+02 -0.50831866169E+03  0.57938294093E+03  0.00000000000E+00 0. -1.
        -13    1    1    2    0    0  0.13250505677E+03  0.34174187719E+03 -0.73206777952E+02  0.37377044318E+03  0.10566000000E+00 0.  1.
<mgrwt>
<rscale>  1 0.80045647E+03</rscale>
<asrwt>0</asrwt>
<pdfrwt beam="2">  1       21 0.13699155E+00 0.10385163E+04</pdfrwt>
<pdfrwt beam="1">  1       -4 0.85315329E-01 0.10385163E+04</pdfrwt>
<totfact> 0.16364694E+01</totfact>
</mgrwt>
</event>
<event>
 6    2  0.2294477E-005  0.9941011E+03  0.7818608E-02  0.9913195E-01
         -4   -1    0    0    0  501 -0.00000000000E+00  0.00000000000E+00  0.15592316133E+04  0.15592316133E+04  0.00000000000E+00 0. -1.
         21   -1    0    0  501  502  0.00000000000E+00 -0.00000000000E+00 -0.27854777298E+03  0.27854777298E+03  0.00000000000E+00 0. -1.
   -9000010    2    1    2    0  502 -0.12456828690E+03  0.32198629017E+02  0.63545468991E+03  0.11798472640E+04  0.98573976975E+03 0.  0.
         13    1    3    3    0    0 -0.47096298092E+03 -0.22874155603E+03  0.50386496457E+03  0.72664210072E+03  0.10566000000E+00 0. -1.
         -4    1    3    3    0  502  0.34639469403E+03  0.26094018505E+03  0.13158972534E+03  0.45320516329E+03  0.00000000000E+00 0. -1.
        -13    1    1    2    0    0  0.12456828690E+03 -0.32198629017E+02  0.64522915039E+03  0.65793212225E+03  0.10566000000E+00 0.  1.
<mgrwt>
<rscale>  1 0.59626022E+03</rscale>
<asrwt>0</asrwt>
<pdfrwt beam="2">  1       21 0.42853505E-01 0.99410105E+03</pdfrwt>
<pdfrwt beam="1">  1       -4 0.23988178E+00 0.99410105E+03</pdfrwt>
<totfact> 0.15295763E+01</totfact>
</mgrwt>
</event>
<event>
 6    2  0.2294477E-005  0.1102055E+04  0.7818608E-02  0.9449807E-01
         -4   -1    0    0    0  501 -0.00000000000E+00  0.00000000000E+00  0.49892207316E+03  0.49892207316E+03  0.00000000000E+00 0. -1.
         21   -1    0    0  501  502  0.00000000000E+00 -0.00000000000E+00 -0.13361740450E+04  0.13361740450E+04  0.00000000000E+00 0. -1.
   -9000010    2    1    2    0  502 -0.41525828811E+03 -0.17294731173E+03 -0.31575873978E+03  0.11463977657E+04  0.10060686045E+04 0.  0.
         13    1    3    3    0    0 -0.71797791897E+03 -0.57253708745E+02 -0.40826683706E+02  0.72141327168E+03  0.10566000000E+00 0. -1.
         -4    1    3    3    0  502  0.30271963086E+03 -0.11569360299E+03 -0.27493205608E+03  0.42498449400E+03  0.00000000000E+00 0. -1.
        -13    1    1    2    0    0  0.41525828811E+03  0.17294731173E+03 -0.52149323206E+03  0.68869835249E+03  0.10566000000E+00 0.  1.
<mgrwt>
<rscale>  1 0.88087714E+03</rscale>
<asrwt>0</asrwt>
<pdfrwt beam="2">  1       21 0.20556524E+00 0.11020546E+04</pdfrwt>
<pdfrwt beam="1">  1       -4 0.76757241E-01 0.11020546E+04</pdfrwt>
<totfact> 0.62957660E+00</totfact>
</mgrwt>
</event>
<event>
 6    2  0.2294477E-005  0.1081729E+04  0.7818608E-02  0.9494965E-01
         21   -1    0    0  501  502  0.00000000000E+00  0.00000000000E+00  0.78275917549E+03  0.78275917549E+03  0.00000000000E+00 0. -1.
         -4   -1    0    0    0  501 -0.00000000000E+00 -0.00000000000E+00 -0.78911955943E+03  0.78911955943E+03  0.00000000000E+00 0. -1.
   -9000010    2    1    2    0  502  0.47337502524E+02  0.40299497621E+03  0.22486636230E+03  0.11048545286E+04  0.10027426681E+04 0.  0.
         13    1    3    3    0    0  0.81078390668E+02  0.33081951677E+03  0.61696571819E+03  0.70474248254E+03  0.10566000000E+00 0. -1.
         -4    1    3    3    0  502 -0.33740888143E+02  0.72175459441E+02 -0.39209935589E+03  0.40011204602E+03  0.00000000000E+00 0. -1.
        -13    1    1    2    0    0 -0.47337502524E+02 -0.40299497621E+03 -0.23122674624E+03  0.46702420637E+03  0.10566000000E+00 0.  1.
<mgrwt>
<rscale>  1 0.84656017E+03</rscale>
<asrwt>0</asrwt>
<pdfrwt beam="1">  1       21 0.12042449E+00 0.10817295E+04</pdfrwt>
<pdfrwt beam="2">  1       -4 0.12140301E+00 0.10817295E+04</pdfrwt>
<totfact> 0.97541839E+00</totfact>
</mgrwt>
</event>
<event>
 6    2  0.2294477E-005  0.1136453E+04  0.7818608E-02  0.9559439E-01
         21   -1    0    0  501  502  0.00000000000E+00  0.00000000000E+00  0.34069105742E+03  0.34069105742E+03  0.00000000000E+00 0. -1.
         -4   -1    0    0    0  501 -0.00000000000E+00 -0.00000000000E+00 -0.14956598958E+04  0.14956598958E+04  0.00000000000E+00 0. -1.
   -9000010    2    1    2    0  502  0.14616215443E+03 -0.23838101391E+03 -0.10146499348E+04  0.15234958925E+04  0.11015154838E+04 0.  0.
         13    1    3    3    0    0 -0.44465831847E+03  0.58430486659E+02 -0.25310192264E+03  0.51497158792E+03  0.10566000000E+00 0. -1.
         -4    1    3    3    0  502  0.59082047289E+03 -0.29681150056E+03 -0.76154801218E+03  0.10085243046E+04  0.00000000000E+00 0. -1.
        -13    1    1    2    0    0 -0.14616215443E+03  0.23838101391E+03 -0.14031890359E+03  0.31285506077E+03  0.10566000000E+00 0.  1.
<mgrwt>
<rscale>  1 0.80039944E+03</rscale>
<asrwt>0</asrwt>
<pdfrwt beam="1">  1       21 0.52414009E-01 0.11364529E+04</pdfrwt>
<pdfrwt beam="2">  1       -4 0.23010152E+00 0.11364529E+04</pdfrwt>
<totfact> 0.11256855E+01</totfact>
</mgrwt>
</event>
<event>
 6    2  0.2294477E-005  0.1054603E+04  0.7818608E-02  0.9718643E-01
         -4   -1    0    0    0  501 -0.00000000000E+00  0.00000000000E+00  0.40913514095E+03  0.40913514095E+03  0.00000000000E+00 0. -1.
         21   -1    0    0  501  502  0.00000000000E+00 -0.00000000000E+00 -0.96793697340E+03  0.96793697340E+03  0.00000000000E+00 0. -1.
   -9000010    2    1    2    0  502  0.64498909204E+01  0.20363886589E+03 -0.47843451343E+03  0.11580531519E+04  0.10347352947E+04 0.  0.
         13    1    3    3    0    0 -0.37645871696E+03  0.42564570562E+03 -0.43040494959E+03  0.71284210319E+03  0.10566000000E+00 0. -1.
         -4    1    3    3    0  502  0.38290860788E+03 -0.22200683973E+03 -0.48029563836E+02  0.44521104869E+03  0.00000000000E+00 0. -1.
        -13    1    1    2    0    0 -0.64498909204E+01 -0.20363886589E+03 -0.80367319021E+02  0.21901896247E+03  0.10566000000E+00 0.  1.
<mgrwt>
<rscale>  1 0.69917577E+03</rscale>
<asrwt>0</asrwt>
<pdfrwt beam="2">  1       21 0.14891338E+00 0.10546030E+04</pdfrwt>
<pdfrwt beam="1">  1       -4 0.62943868E-01 0.10546030E+04</pdfrwt>
<totfact> 0.25839577E+01</totfact>
</mgrwt>
</event>
<event>
 6    2  0.2294477E-005  0.1170411E+04  0.7818608E-02  0.9317331E-01
         21   -1    0    0  501  502  0.00000000000E+00  0.00000000000E+00  0.27247309760E+03  0.27247309760E+03  0.00000000000E+00 0.  1.
         -4   -1    0    0    0  501 -0.00000000000E+00 -0.00000000000E+00 -0.29185509107E+04  0.29185509107E+04  0.00000000000E+00 0. -1.
   -9000010    2    1    2    0  502 -0.12334471110E+03 -0.59133549921E+03 -0.15889322636E+04  0.19734656670E+04  0.10024816259E+04 0.  0.
         13    1    3    3    0    0  0.22873289027E+03 -0.61117038484E+03 -0.14578767774E+04  0.15972641246E+04  0.10566000000E+00 0. -1.
         -4    1    3    3    0  502 -0.35207760137E+03  0.19834885626E+02 -0.13105548618E+03  0.37620154244E+03  0.00000000000E+00 0. -1.
        -13    1    1    2    0    0  0.12334471110E+03  0.59133549921E+03 -0.10571455495E+04  0.12175583412E+04  0.10566000000E+00 0.  1.
<mgrwt>
<rscale>  1 0.99202855E+03</rscale>
<asrwt>0</asrwt>
<pdfrwt beam="1">  1       21 0.41918939E-01 0.11704106E+04</pdfrwt>
<pdfrwt beam="2">  1       -4 0.44900782E+00 0.11704106E+04</pdfrwt>
<totfact> 0.65901245E-01</totfact>
</mgrwt>
</event>
<event>
 6    2  0.2294477E-005  0.1059305E+04  0.7818608E-02  0.9514837E-01
         21   -1    0    0  501  502  0.00000000000E+00  0.00000000000E+00  0.31777336155E+04  0.31777336155E+04  0.00000000000E+00 0. -1.
         -4   -1    0    0    0  501 -0.00000000000E+00 -0.00000000000E+00 -0.19071414059E+03  0.19071414059E+03  0.00000000000E+00 0. -1.
   -9000010    2    1    2    0  502  0.28557299407E+03  0.28448318945E+03  0.26089383484E+04  0.28157923757E+04  0.97961460670E+03 0.  0.
         13    1    3    3    0    0  0.12870582259E+03  0.50853381861E+03  0.24368044264E+04  0.24926266582E+04  0.10566000000E+00 0. -1.
         -4    1    3    3    0  502  0.15686717149E+03 -0.22405062916E+03  0.17213392200E+03  0.32316571758E+03  0.00000000000E+00 0. -1.
        -13    1    1    2    0    0 -0.28557299407E+03 -0.28448318945E+03  0.37808112656E+03  0.55265538037E+03  0.10566000000E+00 0.  1.
<mgrwt>
<rscale>  1 0.83198727E+03</rscale>
<asrwt>0</asrwt>
<pdfrwt beam="1">  1       21 0.48888206E+00 0.10593051E+04</pdfrwt>
<pdfrwt beam="2">  1       -4 0.29340639E-01 0.10593051E+04</pdfrwt>
<totfact> 0.67797304E-01</totfact>
</mgrwt>
</event>
<event>
 6    2  0.2294477E-005  0.1076735E+04  0.7818608E-02  0.9743415E-01
         21   -1    0    0  501  502  0.00000000000E+00  0.00000000000E+00  0.41550397360E+03  0.41550397360E+03  0.00000000000E+00 0. -1.
         -4   -1    0    0    0  501 -0.00000000000E+00 -0.00000000000E+00 -0.10988181256E+04  0.10988181256E+04  0.00000000000E+00 0. -1.
   -9000010    2    1    2    0  502 -0.42959697883E+02 -0.17095321764E+03 -0.34125844765E+03  0.11295200016E+04  0.10622088155E+04 0.  0.
         13    1    3    3    0    0 -0.56781284833E+02  0.40933527445E+03 -0.36100732634E+03  0.54873106532E+03  0.10566000000E+00 0. -1.
         -4    1    3    3    0  502  0.13821586950E+02 -0.58028849208E+03  0.19748878691E+02  0.58078893629E+03  0.00000000000E+00 0. -1.
        -13    1    1    2    0    0  0.42959697883E+02  0.17095321764E+03 -0.34205570438E+03  0.38480209761E+03  0.10566000000E+00 0.  1.
<mgrwt>
<rscale>  1 0.68489693E+03</rscale>
<asrwt>0</asrwt>
<pdfrwt beam="1">  1       21 0.63923689E-01 0.10767349E+04</pdfrwt>
<pdfrwt beam="2">  1       -4 0.16904894E+00 0.10767349E+04</pdfrwt>
<totfact> 0.18659948E+01</totfact>
</mgrwt>
</event>
<event>
 6    2  0.2294477E-005  0.1017693E+04  0.7818608E-02  0.9723143E-01
         21   -1    0    0  501  502  0.00000000000E+00  0.00000000000E+00  0.89934523252E+03  0.89934523252E+03  0.00000000000E+00 0. -1.
         -4   -1    0    0    0  501 -0.00000000000E+00 -0.00000000000E+00 -0.43065034387E+03  0.43065034387E+03  0.00000000000E+00 0. -1.
   -9000010    2    1    2    0  502 -0.20412289538E+03 -0.90638238427E+02  0.34434615027E+03  0.10743707212E+04  0.99288303878E+03 0.  0.
         13    1    3    3    0    0  0.10341051244E+03  0.25180059599E+03 -0.21724256636E+03  0.34826946181E+03  0.10566000000E+00 0. -1.
         -4    1    3    3    0  502 -0.30753340782E+03 -0.34243883442E+03  0.56158871663E+03  0.72610125940E+03  0.00000000000E+00 0. -1.
        -13    1    1    2    0    0  0.20412289538E+03  0.90638238427E+02  0.12434873838E+03  0.25562485518E+03  0.10566000000E+00 0.  1.
<mgrwt>
<rscale>  1 0.69655418E+03</rscale>
<asrwt>0</asrwt>
<pdfrwt beam="1">  1       21 0.13836080E+00 0.10176926E+04</pdfrwt>
<pdfrwt beam="2">  1       -4 0.66253899E-01 0.10176926E+04</pdfrwt>
<totfact> 0.28350766E+01</totfact>
</mgrwt>
</event>
<event>
 6    2  0.2294477E-005  0.1020212E+04  0.7818608E-02  0.9726617E-01
         -4   -1    0    0    0  501 -0.00000000000E+00  0.00000000000E+00  0.13751150061E+04  0.13751150061E+04  0.00000000000E+00 0. -1.
         21   -1    0    0  501  502  0.00000000000E+00 -0.00000000000E+00 -0.38267288774E+03  0.38267288774E+03  0.00000000000E+00 0. -1.
   -9000010    2    1    2    0  502 -0.45362027864E+02 -0.21439063710E+03  0.34932261254E+03  0.10783588918E+04  0.99639879221E+03 0.  0.
         13    1    3    3    0    0 -0.27816587946E+03 -0.53473035498E+03  0.31703391093E+03  0.68104575535E+03  0.10566000000E+00 0. -1.
         -4    1    3    3    0  502  0.23280385159E+03  0.32033971788E+03  0.32288701609E+02  0.39731313648E+03  0.00000000000E+00 0. -1.
        -13    1    1    2    0    0  0.45362027864E+02  0.21439063710E+03  0.64311950577E+03  0.67942900196E+03  0.10566000000E+00 0.  1.
<mgrwt>
<rscale>  1 0.69453903E+03</rscale>
<asrwt>0</asrwt>
<pdfrwt beam="2">  1       21 0.58872753E-01 0.10202116E+04</pdfrwt>
<pdfrwt beam="1">  1       -4 0.21155615E+00 0.10202116E+04</pdfrwt>
<totfact> 0.11591919E+01</totfact>
</mgrwt>
</event>
<event>
 6    2  0.2294477E-005  0.1013858E+04  0.7818608E-02  0.9829133E-01
         21   -1    0    0  501  502  0.00000000000E+00  0.00000000000E+00  0.37919361973E+03  0.37919361973E+03  0.00000000000E+00 0. -1.
         -4   -1    0    0    0  501 -0.00000000000E+00 -0.00000000000E+00 -0.94410896149E+03  0.94410896149E+03  0.00000000000E+00 0. -1.
   -9000010    2    1    2    0  502 -0.15089210582E+03 -0.50772398372E+02 -0.57173086938E+03  0.11639516270E+04  0.10012796507E+04 0.  0.
         13    1    3    3    0    0 -0.31255699162E+02  0.30261010040E+02 -0.84962355112E+03  0.85073664388E+03  0.10566000000E+00 0. -1.
         -4    1    3    3    0  502 -0.11963640666E+03 -0.81033408412E+02  0.27789268174E+03  0.31321498311E+03  0.00000000000E+00 0. -1.
        -13    1    1    2    0    0  0.15089210582E+03  0.50772398372E+02  0.68155276237E+01  0.15935095424E+03  0.10566000000E+00 0.  1.
<mgrwt>
<rscale>  1 0.63822239E+03</rscale>
<asrwt>0</asrwt>
<pdfrwt beam="1">  1       21 0.58337480E-01 0.10138576E+04</pdfrwt>
<pdfrwt beam="2">  1       -4 0.14524753E+00 0.10138576E+04</pdfrwt>
<totfact> 0.34868110E+01</totfact>
</mgrwt>
</event>
<event>
 6    2  0.2294477E-005  0.1033720E+04  0.7818608E-02  0.9755330E-01
         -4   -1    0    0    0  501 -0.00000000000E+00  0.00000000000E+00  0.12190621872E+04  0.12190621872E+04  0.00000000000E+00 0. -1.
         21   -1    0    0  501  502  0.00000000000E+00 -0.00000000000E+00 -0.31644947192E+03  0.31644947192E+03  0.00000000000E+00 0. -1.
   -9000010    2    1    2    0  502 -0.17380871610E+03  0.80336559592E+02  0.66003183850E+03  0.12264664755E+04  0.10158319521E+04 0.  0.
         13    1    3    3    0    0 -0.60139681344E+03  0.73087151924E+02  0.37361918074E+03  0.71176622733E+03  0.10566000000E+00 0. -1.
         -4    1    3    3    0  502  0.42758809734E+03  0.72494076678E+01  0.28641265776E+03  0.51470024813E+03  0.00000000000E+00 0. -1.
        -13    1    1    2    0    0  0.17380871610E+03 -0.80336559592E+02  0.24258087682E+03  0.30904518369E+03  0.10566000000E+00 0.  1.
<mgrwt>
<rscale>  1 0.67815894E+03</rscale>
<asrwt>0</asrwt>
<pdfrwt beam="2">  1       21 0.48684535E-01 0.10337205E+04</pdfrwt>
<pdfrwt beam="1">  1       -4 0.18754803E+00 0.10337205E+04</pdfrwt>
<totfact> 0.25315403E+01</totfact>
</mgrwt>
</event>
<event>
 6    2  0.2294477E-005  0.1028996E+04  0.7818608E-02  0.9772439E-01
         21   -1    0    0  501  502  0.00000000000E+00  0.00000000000E+00  0.32937795991E+03  0.32937795991E+03  0.00000000000E+00 0. -1.
         -4   -1    0    0    0  501 -0.00000000000E+00 -0.00000000000E+00 -0.19154657783E+04  0.19154657783E+04  0.00000000000E+00 0. -1.
   -9000010    2    1    2    0  502 -0.16801290808E+03  0.73637410163E+02 -0.50121922991E+03  0.11445752842E+04  0.10125122514E+04 0.  0.
         13    1    3    3    0    0  0.18787278375E+03 -0.31510107515E+03 -0.49672937087E+03  0.61751514109E+03  0.10566000000E+00 0. -1.
         -4    1    3    3    0  502 -0.35588569183E+03  0.38873848531E+03 -0.44898590448E+01  0.52706014310E+03  0.00000000000E+00 0. -1.
        -13    1    1    2    0    0  0.16801290808E+03 -0.73637410163E+02 -0.10848685885E+04  0.11002684540E+04  0.10566000000E+00 0.  1.
<mgrwt>
<rscale>  1 0.66862803E+03</rscale>
<asrwt>0</asrwt>
<pdfrwt beam="1">  1       21 0.50673532E-01 0.10289956E+04</pdfrwt>
<pdfrwt beam="2">  1       -4 0.29468705E+00 0.10289956E+04</pdfrwt>
<totfact> 0.48812706E+00</totfact>
</mgrwt>
</event>
<event>
 6    2  0.2294477E-005  0.1004733E+04  0.7818608E-02  0.9734181E-01
         -4   -1    0    0    0  501 -0.00000000000E+00  0.00000000000E+00  0.27882031644E+04  0.27882031644E+04  0.00000000000E+00 0. -1.
         21   -1    0    0  501  502  0.00000000000E+00 -0.00000000000E+00 -0.15219753855E+03  0.15219753855E+03  0.00000000000E+00 0. -1.
   -9000010    2    1    2    0  502  0.18874763026E+03 -0.12008785388E+03  0.16709890350E+04  0.19497929135E+04  0.97951074020E+03 0.  0.
         13    1    3    3    0    0 -0.73493458218E+02 -0.51771740971E+03  0.97583780255E+03  0.11071097655E+04  0.10566000000E+00 0. -1.
         -4    1    3    3    0  502  0.26224108848E+03  0.39762955583E+03  0.69515123240E+03  0.84268314808E+03  0.00000000000E+00 0. -1.
        -13    1    1    2    0    0 -0.18874763026E+03  0.12008785388E+03  0.96501659092E+03  0.99060778944E+03  0.10566000000E+00 0.  1.
<mgrwt>
<rscale>  1 0.69017616E+03</rscale>
<asrwt>0</asrwt>
<pdfrwt beam="2">  1       21 0.23415008E-01 0.10047328E+04</pdfrwt>
<pdfrwt beam="1">  1       -4 0.42895429E+00 0.10047328E+04</pdfrwt>
<totfact> 0.31046640E+00</totfact>
</mgrwt>
</event>
<event>
 6    2  0.2294477E-005  0.9682590E+03  0.7818608E-02  0.9657562E-01
         21   -1    0    0  501  502  0.00000000000E+00  0.00000000000E+00  0.86804033236E+03  0.86804033236E+03  0.00000000000E+00 0. -1.
         -4   -1    0    0    0  501 -0.00000000000E+00 -0.00000000000E+00 -0.51556903105E+03  0.51556903105E+03  0.00000000000E+00 0. -1.
   -9000010    2    1    2    0  502  0.12646818488E+03 -0.29749573529E+03  0.41654941584E+03  0.10540582593E+04  0.91270339314E+03 0.  0.
         13    1    3    3    0    0 -0.35816339419E+03 -0.16956352934E+03 -0.92488837979E+01  0.39638158438E+03  0.10566000000E+00 0. -1.
         -4    1    3    3    0  502  0.48463157907E+03 -0.12793220595E+03  0.42579829963E+03  0.65767667491E+03  0.00000000000E+00 0. -1.
        -13    1    1    2    0    0 -0.12646818488E+03  0.29749573529E+03 -0.64078114532E+02  0.32955110412E+03  0.10566000000E+00 0.  1.
<mgrwt>
<rscale>  1 0.73600726E+03</rscale>
<asrwt>0</asrwt>
<pdfrwt beam="1">  1       21 0.13354467E+00 0.96825895E+03</pdfrwt>
<pdfrwt beam="2">  1       -4 0.79318312E-01 0.96825895E+03</pdfrwt>
<totfact> 0.20892807E+01</totfact>
</mgrwt>
</event>
<event>
 6    2  0.2294477E-005  0.1096235E+04  0.7818608E-02  0.9459513E-01
         21   -1    0    0  501  502  0.00000000000E+00  0.00000000000E+00  0.81328182897E+03  0.81328182897E+03  0.00000000000E+00 0. -1.
         -4   -1    0    0    0  501 -0.00000000000E+00 -0.00000000000E+00 -0.72991554746E+03  0.72991554746E+03  0.00000000000E+00 0. -1.
   -9000010    2    1    2    0  502 -0.26304502397E+03 -0.35474292465E+03  0.10350151010E+03  0.11011106589E+04  0.10033428593E+04 0.  0.
         13    1    3    3    0    0  0.42770498321E+02 -0.18941092262E+03 -0.42572227346E+03  0.46791588819E+03  0.10566000000E+00 0. -1.
         -4    1    3    3    0  502 -0.30581552229E+03 -0.16533200202E+03  0.52922378356E+03  0.63319477071E+03  0.00000000000E+00 0. -1.
        -13    1    1    2    0    0  0.26304502397E+03  0.35474292465E+03 -0.20135228584E+02  0.44208671753E+03  0.10566000000E+00 0.  1.
<mgrwt>
<rscale>  1 0.87335741E+03</rscale>
<asrwt>0</asrwt>
<pdfrwt beam="1">  1       21 0.12512028E+00 0.10962354E+04</pdfrwt>
<pdfrwt beam="2">  1       -4 0.11229470E+00 0.10962354E+04</pdfrwt>
<totfact> 0.10703822E+01</totfact>
</mgrwt>
</event>
<event>
 6    2  0.2294477E-005  0.1035704E+04  0.7818608E-02  0.9651703E-01
         -4   -1    0    0    0  501 -0.00000000000E+00  0.00000000000E+00  0.87451625633E+03  0.87451625633E+03  0.00000000000E+00 0. -1.
         21   -1    0    0  501  502  0.00000000000E+00 -0.00000000000E+00 -0.48908415704E+03  0.48908415704E+03  0.00000000000E+00 0. -1.
   -9000010    2    1    2    0  502  0.19509673686E+03  0.18581406580E+03  0.34192541367E+03  0.10906856893E+04  0.10000463392E+04 0.  0.
         13    1    3    3    0    0  0.29992155145E+03  0.22453233656E+03 -0.27434686291E+03  0.46436399466E+03  0.10566000000E+00 0. -1.
         -4    1    3    3    0  502 -0.10482481458E+03 -0.38718270762E+02  0.61627227658E+03  0.62632169460E+03  0.00000000000E+00 0. -1.
        -13    1    1    2    0    0 -0.19509673686E+03 -0.18581406580E+03  0.43506685614E+02  0.27291472412E+03  0.10566000000E+00 0.  1.
<mgrwt>
<rscale>  1 0.73966664E+03</rscale>
<asrwt>0</asrwt>
<pdfrwt beam="2">  1       21 0.75243717E-01 0.10357038E+04</pdfrwt>
<pdfrwt beam="1">  1       -4 0.13454096E+00 0.10357038E+04</pdfrwt>
<totfact> 0.23883044E+01</totfact>
</mgrwt>
</event>
<event>
 6    2  0.2294477E-005  0.1039936E+04  0.7818608E-02  0.9678095E-01
         -4   -1    0    0    0  501 -0.00000000000E+00  0.00000000000E+00  0.11064887624E+04  0.11064887624E+04  0.00000000000E+00 0. -1.
         21   -1    0    0  501  502  0.00000000000E+00 -0.00000000000E+00 -0.44692593799E+03  0.44692593799E+03  0.00000000000E+00 0. -1.
   -9000010    2    1    2    0  502  0.15234730244E+03 -0.18988328937E+03  0.23833384545E+03  0.10668972516E+04  0.10110397417E+04 0.  0.
         13    1    3    3    0    0  0.22243598161E+03 -0.49165148198E+03  0.44081960361E+03  0.69679328336E+03  0.10566000000E+00 0. -1.
         -4    1    3    3    0  502 -0.70088679170E+02  0.30176819261E+03 -0.20248575816E+03  0.37010396820E+03  0.00000000000E+00 0. -1.
        -13    1    1    2    0    0 -0.15234730244E+03  0.18988328937E+03  0.42122897899E+03  0.48651744886E+03  0.10566000000E+00 0.  1.
<mgrwt>
<rscale>  1 0.72336096E+03</rscale>
<asrwt>0</asrwt>
<pdfrwt beam="2">  1       21 0.68757837E-01 0.10399359E+04</pdfrwt>
<pdfrwt beam="1">  1       -4 0.17022904E+00 0.10399359E+04</pdfrwt>
<totfact> 0.15560890E+01</totfact>
</mgrwt>
</event>
<event>
 6    2  0.2294477E-005  0.1043143E+04  0.7818608E-02  0.9612149E-01
         21   -1    0    0  501  502  0.00000000000E+00  0.00000000000E+00  0.14064646619E+04  0.14064646619E+04  0.00000000000E+00 0. -1.
         -4   -1    0    0    0  501 -0.00000000000E+00 -0.00000000000E+00 -0.32382005557E+03  0.32382005557E+03  0.00000000000E+00 0. -1.
   -9000010    2    1    2    0  502 -0.19052989283E+03 -0.23390432671E+03  0.89916365487E+03  0.13771867922E+04  0.99856662684E+03 0.  0.
         13    1    3    3    0    0 -0.30655009564E+03  0.24116864123E+03  0.78265910742E+03  0.87446587369E+03  0.10566000000E+00 0. -1.
         -4    1    3    3    0  502  0.11602020280E+03 -0.47507296794E+03  0.11650454745E+03  0.50272091851E+03  0.00000000000E+00 0. -1.
        -13    1    1    2    0    0  0.19052989283E+03  0.23390432671E+03  0.18348095143E+03  0.35309792525E+03  0.10566000000E+00 0.  1.
<mgrwt>
<rscale>  1 0.76497259E+03</rscale>
<asrwt>0</asrwt>
<pdfrwt beam="1">  1       21 0.21637918E+00 0.10431434E+04</pdfrwt>
<pdfrwt beam="2">  1       -4 0.49818471E-01 0.10431434E+04</pdfrwt>
<totfact> 0.13843560E+01</totfact>
</mgrwt>
</event>
<event>
 6    2  0.2294477E-005  0.1089536E+04  0.7818608E-02  0.9498713E-01
         -4   -1    0    0    0  501 -0.00000000000E+00  0.00000000000E+00  0.86277233064E+03  0.86277233064E+03  0.00000000000E+00 0. -1.
         21   -1    0    0  501  502  0.00000000000E+00 -0.00000000000E+00 -0.64170577784E+03  0.64170577784E+03  0.00000000000E+00 0. -1.
   -9000010    2    1    2    0  502 -0.22728440697E+03  0.31929713816E+03  0.99219995134E+02  0.10940448510E+04  0.10166025105E+04 0.  0.
         13    1    3    3    0    0 -0.44336882012E+03 -0.13391491733E+03  0.30160846584E+03  0.55269955090E+03  0.10566000000E+00 0. -1.
         -4    1    3    3    0  502  0.21608441314E+03  0.45321205549E+03 -0.20238847071E+03  0.54134530008E+03  0.00000000000E+00 0. -1.
        -13    1    1    2    0    0  0.22728440697E+03 -0.31929713816E+03  0.12184655766E+03  0.41043325751E+03  0.10566000000E+00 0.  1.
<mgrwt>
<rscale>  1 0.84378799E+03</rscale>
<asrwt>0</asrwt>
<pdfrwt beam="2">  1       21 0.98723965E-01 0.10895364E+04</pdfrwt>
<pdfrwt beam="1">  1       -4 0.13273421E+00 0.10895364E+04</pdfrwt>
<totfact> 0.12838252E+01</totfact>
</mgrwt>
</event>
<event>
 6    2  0.2294477E-005  0.1012092E+04  0.7818608E-02  0.9898350E-01
         -4   -1    0    0    0  501 -0.00000000000E+00  0.00000000000E+00  0.21335704436E+04  0.21335704436E+04  0.00000000000E+00 0. -1.
         21   -1    0    0  501  502  0.00000000000E+00 -0.00000000000E+00 -0.15512572706E+03  0.15512572706E+03  0.00000000000E+00 0. -1.
   -9000010    2    1    2    0  502  0.12385701528E+03 -0.31819346538E+02  0.16430803239E+04  0.19297779097E+04  0.10039804773E+04 0.  0.
         13    1    3    3    0    0 -0.66537188960E+02 -0.30108397930E+03  0.15593394468E+04  0.15895339825E+04  0.10566000000E+00 0. -1.
         -4    1    3    3    0  502  0.19039420424E+03  0.26926463276E+03  0.83740877086E+02  0.34024392714E+03  0.00000000000E+00 0. -1.
        -13    1    1    2    0    0 -0.12385701528E+03  0.31819346538E+02  0.33536439268E+03  0.35891826101E+03  0.10566000000E+00 0.  1.
<mgrwt>
<rscale>  1 0.60341312E+03</rscale>
<asrwt>0</asrwt>
<pdfrwt beam="2">  1       21 0.23865498E-01 0.10120918E+04</pdfrwt>
<pdfrwt beam="1">  1       -4 0.32824159E+00 0.10120918E+04</pdfrwt>
<totfact> 0.14239760E+01</totfact>
</mgrwt>
</event>
<event>
 6    2  0.2294477E-005  0.1030991E+04  0.7818608E-02  0.9888097E-01
         21   -1    0    0  501  502  0.00000000000E+00  0.00000000000E+00  0.14583416405E+04  0.14583416405E+04  0.00000000000E+00 0. -1.
         -4   -1    0    0    0  501 -0.00000000000E+00 -0.00000000000E+00 -0.27423969716E+03  0.27423969716E+03  0.00000000000E+00 0. -1.
   -9000010    2    1    2    0  502  0.12142930465E+03 -0.29819183794E+02  0.12249171059E+04  0.16010513092E+04  0.10233812186E+04 0.  0.
         13    1    3    3    0    0 -0.83833019998E+02  0.15735872557E+03  0.13008951906E+04  0.13130567588E+04  0.10566000000E+00 0. -1.
         -4    1    3    3    0  502  0.20526232465E+03 -0.18717790936E+03 -0.75978084723E+02  0.28799455035E+03  0.00000000000E+00 0. -1.
        -13    1    1    2    0    0 -0.12142930465E+03  0.29819183794E+02 -0.40815162502E+02  0.13153002853E+03  0.10566000000E+00 0.  1.
<mgrwt>
<rscale>  1 0.60841653E+03</rscale>
<asrwt>0</asrwt>
<pdfrwt beam="1">  1       21 0.22436025E+00 0.10309915E+04</pdfrwt>
<pdfrwt beam="2">  1       -4 0.42190723E-01 0.10309915E+04</pdfrwt>
<totfact> 0.17359312E+01</totfact>
</mgrwt>
</event>
<event>
 6    2  0.2294477E-005  0.1078404E+04  0.7818608E-02  0.9451182E-01
         21   -1    0    0  501  502  0.00000000000E+00  0.00000000000E+00  0.20199364243E+04  0.20199364243E+04  0.00000000000E+00 0. -1.
         -4   -1    0    0    0  501 -0.00000000000E+00 -0.00000000000E+00 -0.33040643734E+03  0.33040643734E+03  0.00000000000E+00 0. -1.
   -9000010    2    1    2    0  502  0.22803018310E+03 -0.41982378527E+03  0.14736223263E+04  0.18260663085E+04  0.96680175184E+03 0.  0.
         13    1    3    3    0    0 -0.13752908159E+03 -0.57945421180E+02  0.12604614733E+04  0.12692655581E+04  0.10566000000E+00 0. -1.
         -4    1    3    3    0  502  0.36555926469E+03 -0.36187836409E+03  0.21316085300E+03  0.55680075040E+03  0.00000000000E+00 0. -1.
        -13    1    1    2    0    0 -0.22803018310E+03  0.41982378527E+03  0.21590766066E+03  0.52427655315E+03  0.10566000000E+00 0.  1.
<mgrwt>
<rscale>  1 0.87980707E+03</rscale>
<asrwt>0</asrwt>
<pdfrwt beam="1">  1       21 0.31075944E+00 0.10784041E+04</pdfrwt>
<pdfrwt beam="2">  1       -4 0.50831761E-01 0.10784041E+04</pdfrwt>
<totfact> 0.33201850E+00</totfact>
</mgrwt>
</event>
<event>
 6    2  0.2294477E-005  0.1076690E+04  0.7818608E-02  0.9543737E-01
         -4   -1    0    0    0  501 -0.00000000000E+00  0.00000000000E+00  0.25239648080E+03  0.25239648080E+03  0.00000000000E+00 0. -1.
         21   -1    0    0  501  502  0.00000000000E+00 -0.00000000000E+00 -0.20582277982E+04  0.20582277982E+04  0.00000000000E+00 0. -1.
   -9000010    2    1    2    0  502 -0.14589741369E+03 -0.31503501114E+03 -0.15096881594E+04  0.18542977569E+04  0.10191804154E+04 0.  0.
         13    1    3    3    0    0 -0.56609908255E+03 -0.52454316195E+02 -0.94691930142E+03  0.11044798781E+04  0.10566000000E+00 0. -1.
         -4    1    3    3    0  502  0.42020166886E+03 -0.26258069495E+03 -0.56276885800E+03  0.74981787882E+03  0.00000000000E+00 0. -1.
        -13    1    1    2    0    0  0.14589741369E+03  0.31503501114E+03 -0.29614315797E+03  0.45632652206E+03  0.10566000000E+00 0.  1.
<mgrwt>
<rscale>  1 0.81134652E+03</rscale>
<asrwt>0</asrwt>
<pdfrwt beam="2">  1       21 0.31665043E+00 0.10766902E+04</pdfrwt>
<pdfrwt beam="1">  1       -4 0.38830228E-01 0.10766902E+04</pdfrwt>
<totfact> 0.53355781E+00</totfact>
</mgrwt>
</event>
<event>
 6    2  0.2294477E-005  0.1025148E+04  0.7818608E-02  0.9741829E-01
         -4   -1    0    0    0  501 -0.00000000000E+00  0.00000000000E+00  0.75230160545E+03  0.75230160545E+03  0.00000000000E+00 0. -1.
         21   -1    0    0  501  502  0.00000000000E+00 -0.00000000000E+00 -0.57260740167E+03  0.57260740167E+03  0.00000000000E+00 0. -1.
   -9000010    2    1    2    0  502 -0.11592720127E+03 -0.16946041021E+03 -0.37755361571E+02  0.10258433433E+04  0.10043769965E+04 0.  0.
         13    1    3    3    0    0 -0.42996712146E+03 -0.47109882071E+02  0.31719008213E+03  0.53637731672E+03  0.10566000000E+00 0. -1.
         -4    1    3    3    0  502  0.31403992019E+03 -0.12235052814E+03 -0.35494544370E+03  0.48946602661E+03  0.00000000000E+00 0. -1.
        -13    1    1    2    0    0  0.11592720127E+03  0.16946041021E+03  0.21744956535E+03  0.29906566379E+03  0.10566000000E+00 0.  1.
<mgrwt>
<rscale>  1 0.68579987E+03</rscale>
<asrwt>0</asrwt>
<pdfrwt beam="2">  1       21 0.88093446E-01 0.10251483E+04</pdfrwt>
<pdfrwt beam="1">  1       -4 0.11573871E+00 0.10251483E+04</pdfrwt>
<totfact> 0.24151301E+01</totfact>
</mgrwt>
</event>
<event>
 6    2  0.2294477E-005  0.9370514E+03  0.7818608E-02  0.9820508E-01
         -4   -1    0    0    0  501 -0.00000000000E+00  0.00000000000E+00  0.33616934845E+03  0.33616934845E+03  0.00000000000E+00 0. -1.
         21   -1    0    0  501  502  0.00000000000E+00 -0.00000000000E+00 -0.97578125016E+03  0.97578125016E+03  0.00000000000E+00 0. -1.
   -9000010    2    1    2    0  502 -0.91486466870E+02  0.18614704794E+03 -0.54455353271E+03  0.10837914398E+04  0.91380787798E+03 0.  0.
         13    1    3    3    0    0  0.21349813308E+03  0.15505132813E+03 -0.69419749555E+03  0.74265236900E+03  0.10566000000E+00 0. -1.
         -4    1    3    3    0  502 -0.30498459995E+03  0.31095719808E+02  0.14964396284E+03  0.34113907078E+03  0.00000000000E+00 0. -1.
        -13    1    1    2    0    0  0.91486466870E+02 -0.18614704794E+03 -0.95058369003E+02  0.22815915883E+03  0.10566000000E+00 0.  1.
<mgrwt>
<rscale>  1 0.64273508E+03</rscale>
<asrwt>0</asrwt>
<pdfrwt beam="2">  1       21 0.15012019E+00 0.93705140E+03</pdfrwt>
<pdfrwt beam="1">  1       -4 0.51718362E-01 0.93705140E+03</pdfrwt>
<totfact> 0.39078739E+01</totfact>
</mgrwt>
</event>
<event>
 6    2  0.2294477E-005  0.1032798E+04  0.7818608E-02  0.9569894E-01
         -4   -1    0    0    0  501 -0.00000000000E+00  0.00000000000E+00  0.13241711916E+04  0.13241711916E+04  0.00000000000E+00 0. -1.
         21   -1    0    0  501  502  0.00000000000E+00 -0.00000000000E+00 -0.36681430297E+03  0.36681430297E+03  0.00000000000E+00 0. -1.
   -9000010    2    1    2    0  502  0.36277339941E+02  0.35751018672E+03  0.67273298598E+03  0.12325748096E+04  0.96826722127E+03 0.  0.
         13    1    3    3    0    0 -0.17791430944E+03 -0.26884625660E+03  0.54791560106E+02  0.32700754948E+03  0.10566000000E+00 0. -1.
         -4    1    3    3    0  502  0.21419164938E+03  0.62635644332E+03  0.61794142588E+03  0.90556726010E+03  0.00000000000E+00 0. -1.
        -13    1    1    2    0    0 -0.36277339941E+02 -0.35751018672E+03  0.28462390266E+03  0.45841068501E+03  0.10566000000E+00 0.  1.
<mgrwt>
<rscale>  1 0.79321269E+03</rscale>
<asrwt>0</asrwt>
<pdfrwt beam="2">  1       21 0.56432970E-01 0.10327977E+04</pdfrwt>
<pdfrwt beam="1">  1       -4 0.20371864E+00 0.10327977E+04</pdfrwt>
<totfact> 0.14300119E+01</totfact>
</mgrwt>
</event>
<event>
 6    2  0.2294477E-005  0.9388325E+03  0.7818608E-02  0.9965211E-01
         -4   -1    0    0    0  501 -0.00000000000E+00  0.00000000000E+00  0.94151535881E+03  0.94151535881E+03  0.00000000000E+00 0. -1.
         21   -1    0    0  501  502  0.00000000000E+00 -0.00000000000E+00 -0.34139845494E+03  0.34139845494E+03  0.00000000000E+00 0. -1.
   -9000010    2    1    2    0  502  0.51886678738E+02  0.11852750440E+03  0.35118813536E+03  0.10023669555E+04  0.92987386795E+03 0.  0.
         13    1    3    3    0    0 -0.12527901455E+03 -0.53230400232E+02  0.62157817231E+03  0.63630789909E+03  0.10566000000E+00 0. -1.
         -4    1    3    3    0  502  0.17716569329E+03  0.17175790463E+03 -0.27039003695E+03  0.36605905639E+03  0.00000000000E+00 0. -1.
        -13    1    1    2    0    0 -0.51886678738E+02 -0.11852750440E+03  0.24892876851E+03  0.28054685827E+03  0.10566000000E+00 0.  1.
<mgrwt>
<rscale>  1 0.57202338E+03</rscale>
<asrwt>0</asrwt>
<pdfrwt beam="2">  1       21 0.52522839E-01 0.93883247E+03</pdfrwt>
<pdfrwt beam="1">  1       -4 0.14484852E+00 0.93883247E+03</pdfrwt>
<totfact> 0.44522969E+01</totfact>
</mgrwt>
</event>
<event>
 6    2  0.2294477E-005  0.1087590E+04  0.7818608E-02  0.9473928E-01
         21   -1    0    0  501  502  0.00000000000E+00  0.00000000000E+00  0.34168683621E+03  0.34168683621E+03  0.00000000000E+00 0. -1.
         -4   -1    0    0    0  501 -0.00000000000E+00 -0.00000000000E+00 -0.16941325066E+04  0.16941325066E+04  0.00000000000E+00 0. -1.
   -9000010    2    1    2    0  502 -0.12609204562E+03  0.41093262334E+03 -0.89933683787E+03  0.14112615391E+04  0.99904332186E+03 0.  0.
         13    1    3    3    0    0 -0.55788792531E+03  0.30119369633E+03 -0.61150489908E+03  0.88084892727E+03  0.10566000000E+00 0. -1.
         -4    1    3    3    0  502  0.43179587969E+03  0.10973892701E+03 -0.28783193879E+03  0.53041261185E+03  0.00000000000E+00 0. -1.
        -13    1    1    2    0    0  0.12609204562E+03 -0.41093262334E+03 -0.45310883252E+03  0.62455780370E+03  0.10566000000E+00 0.  1.
<mgrwt>
<rscale>  1 0.86233571E+03</rscale>
<asrwt>0</asrwt>
<pdfrwt beam="1">  1       21 0.52567206E-01 0.10875902E+04</pdfrwt>
<pdfrwt beam="2">  1       -4 0.26063577E+00 0.10875902E+04</pdfrwt>
<totfact> 0.72549572E+00</totfact>
</mgrwt>
</event>
<event>
 6    2  0.2294477E-005  0.1007701E+04  0.7818608E-02  0.1005293E+00
         21   -1    0    0  501  502  0.00000000000E+00  0.00000000000E+00  0.32688077462E+03  0.32688077462E+03  0.00000000000E+00 0. -1.
         -4   -1    0    0    0  501 -0.00000000000E+00 -0.00000000000E+00 -0.11126688559E+04  0.11126688559E+04  0.00000000000E+00 0. -1.
   -9000010    2    1    2    0  502 -0.32308502976E+02 -0.72529285261E+02 -0.46632840385E+03  0.11103706013E+04  0.10045677456E+04 0.  0.
         13    1    3    3    0    0 -0.42210412589E+03  0.17314131463E+03 -0.20076829743E+01  0.45623880795E+03  0.10566000000E+00 0. -1.
         -4    1    3    3    0  502  0.38979562291E+03 -0.24567059989E+03 -0.46432072088E+03  0.65413179339E+03  0.00000000000E+00 0. -1.
        -13    1    1    2    0    0  0.32308502976E+02  0.72529285261E+02 -0.31945967747E+03  0.32917902922E+03  0.10566000000E+00 0.  1.
<mgrwt>
<rscale>  1 0.53389234E+03</rscale>
<asrwt>0</asrwt>
<pdfrwt beam="1">  1       21 0.50289351E-01 0.10077007E+04</pdfrwt>
<pdfrwt beam="2">  1       -4 0.17117982E+00 0.10077007E+04</pdfrwt>
<totfact> 0.30797565E+01</totfact>
</mgrwt>
</event>
<event>
 6    2  0.2294477E-005  0.1000363E+04  0.7818608E-02  0.1007365E+00
         21   -1    0    0  501  502  0.00000000000E+00  0.00000000000E+00  0.49926394928E+03  0.49926394928E+03  0.00000000000E+00 0. -1.
         -4   -1    0    0    0  501 -0.00000000000E+00 -0.00000000000E+00 -0.63640976030E+03  0.63640976030E+03  0.00000000000E+00 0. -1.
   -9000010    2    1    2    0  502  0.60162789512E+02  0.46588930619E+02 -0.25655991853E+02  0.10006919307E+04  0.99746479662E+03 0.  0.
         13    1    3    3    0    0 -0.21019747119E+03 -0.15856764825E+03 -0.41043082335E+03  0.48762705819E+03  0.10566000000E+00 0. -1.
         -4    1    3    3    0  502  0.27036026070E+03  0.20515657887E+03  0.38477483149E+03  0.51306487248E+03  0.00000000000E+00 0. -1.
        -13    1    1    2    0    0 -0.60162789512E+02 -0.46588930619E+02 -0.11148981916E+03  0.13498177891E+03  0.10566000000E+00 0.  1.
<mgrwt>
<rscale>  1 0.52535634E+03</rscale>
<asrwt>0</asrwt>
<pdfrwt beam="1">  1       21 0.76809839E-01 0.10003630E+04</pdfrwt>
<pdfrwt beam="2">  1       -4 0.97909194E-01 0.10003630E+04</pdfrwt>
<totfact> 0.50408532E+01</totfact>
</mgrwt>
</event>
<event>
 6    2  0.2294477E-005  0.1041517E+04  0.7818608E-02  0.9601374E-01
         21   -1    0    0  501  502  0.00000000000E+00  0.00000000000E+00  0.18091096246E+03  0.18091096246E+03  0.00000000000E+00 0. -1.
         -4   -1    0    0    0  501 -0.00000000000E+00 -0.00000000000E+00 -0.31942152866E+04  0.31942152866E+04  0.00000000000E+00 0. -1.
   -9000010    2    1    2    0  502  0.28564551826E+03  0.13154002361E+03 -0.14789793545E+04  0.18089049162E+04  0.99290529501E+03 0.  0.
         13    1    3    3    0    0 -0.29889656329E+03 -0.18415114017E+03 -0.33073196033E+03  0.48232192436E+03  0.10566000000E+00 0. -1.
         -4    1    3    3    0  502  0.58454208155E+03  0.31569116378E+03 -0.11482473942E+04  0.13265829918E+04  0.00000000000E+00 0. -1.
        -13    1    1    2    0    0 -0.28564551826E+03 -0.13154002361E+03 -0.15343249696E+04  0.15662213329E+04  0.10566000000E+00 0.  1.
<mgrwt>
<rscale>  1 0.77205299E+03</rscale>
<asrwt>0</asrwt>
<pdfrwt beam="1">  1       21 0.27832456E-01 0.10415167E+04</pdfrwt>
<pdfrwt beam="2">  1       -4 0.49141773E+00 0.10415167E+04</pdfrwt>
<totfact> 0.73708761E-01</totfact>
</mgrwt>
</event>
<event>
 6    2  0.2294477E-005  0.9891913E+03  0.7818608E-02  0.1033264E+00
         21   -1    0    0  501  502  0.00000000000E+00  0.00000000000E+00  0.83521688417E+03  0.83521688417E+03  0.00000000000E+00 0. -1.
         -4   -1    0    0    0  501 -0.00000000000E+00 -0.00000000000E+00 -0.32521200855E+03  0.32521200855E+03  0.00000000000E+00 0. -1.
   -9000010    2    1    2    0  502  0.91443617616E+01  0.34763588238E+02  0.52683425605E+03  0.11207380168E+04  0.98853793180E+03 0.  0.
         13    1    3    3    0    0 -0.80038521191E+02 -0.46492891989E+03  0.17520307787E+03  0.50325062850E+03  0.10566000000E+00 0. -1.
         -4    1    3    3    0  502  0.89182882952E+02  0.49969250812E+03  0.35163117818E+03  0.61748738833E+03  0.00000000000E+00 0. -1.
        -13    1    1    2    0    0 -0.91443617616E+01 -0.34763588238E+02 -0.16829380432E+02  0.39690875891E+02  0.10566000000E+00 0.  1.
<mgrwt>
<rscale>  1 0.43189065E+03</rscale>
<asrwt>0</asrwt>
<pdfrwt beam="1">  1       21 0.12849490E+00 0.98919127E+03</pdfrwt>
<pdfrwt beam="2">  1       -4 0.50032617E-01 0.98919127E+03</pdfrwt>
<totfact> 0.63596909E+01</totfact>
</mgrwt>
</event>
<event>
 6    2  0.2294477E-005  0.1177742E+04  0.7818608E-02  0.9298166E-01
         -4   -1    0    0    0  501 -0.00000000000E+00  0.00000000000E+00  0.10210095343E+04  0.10210095343E+04  0.00000000000E+00 0. -1.
         21   -1    0    0  501  502  0.00000000000E+00 -0.00000000000E+00 -0.10006548027E+04  0.10006548027E+04  0.00000000000E+00 0. -1.
   -9000010    2    1    2    0  502 -0.50105284283E+03  0.39136256653E+03 -0.41765886509E+03  0.12496057046E+04  0.99139138570E+03 0.  0.
         13    1    3    3    0    0 -0.14435054109E+03  0.63820145968E+03 -0.47981488099E+03  0.81139417858E+03  0.10566000000E+00 0. -1.
         -4    1    3    3    0  502 -0.35670230174E+03 -0.24683889315E+03  0.62156015895E+02  0.43821152603E+03  0.00000000000E+00 0. -1.
        -13    1    1    2    0    0  0.50105284283E+03 -0.39136256653E+03  0.43801359667E+03  0.77205863237E+03  0.10566000000E+00 0.  1.
<mgrwt>
<rscale>  1 0.10095192E+04</rscale>
<asrwt>0</asrwt>
<pdfrwt beam="2">  1       21 0.15394689E+00 0.11777417E+04</pdfrwt>
<pdfrwt beam="1">  1       -4 0.15707839E+00 0.11777417E+04</pdfrwt>
<totfact> 0.25204841E+00</totfact>
</mgrwt>
</event>
<event>
 6    2  0.2294477E-005  0.1260608E+04  0.7818608E-02  0.9196116E-01
         21   -1    0    0  501  502  0.00000000000E+00  0.00000000000E+00  0.77190893941E+03  0.77190893941E+03  0.00000000000E+00 0.  1.
         -4   -1    0    0    0  501 -0.00000000000E+00 -0.00000000000E+00 -0.21459721041E+04  0.21459721041E+04  0.00000000000E+00 0. -1.
   -9000010    2    1    2    0  502 -0.34829631051E+03  0.67104696455E+03 -0.16816252738E+04  0.21016648891E+04  0.10087206730E+04 0.  0.
         13    1    3    3    0    0 -0.21248869922E+02  0.87479532541E+03 -0.11859676500E+04  0.14738512998E+04  0.10566000000E+00 0. -1.
         -4    1    3    3    0  502 -0.32704744058E+03 -0.20374836086E+03 -0.49565762375E+03  0.62781358932E+03  0.00000000000E+00 0. -1.
        -13    1    1    2    0    0  0.34829631051E+03 -0.67104696455E+03  0.30756210911E+03  0.81621615438E+03  0.10566000000E+00 0.  1.
<mgrwt>
<rscale>  1 0.11093610E+04</rscale>
<asrwt>0</asrwt>
<pdfrwt beam="1">  1       21 0.11875522E+00 0.12606077E+04</pdfrwt>
<pdfrwt beam="2">  1       -4 0.33014955E+00 0.12606077E+04</pdfrwt>
<totfact> 0.37952842E-01</totfact>
</mgrwt>
</event>
<event>
 6    2  0.2294477E-005  0.1087259E+04  0.7818608E-02  0.9526267E-01
         -4   -1    0    0    0  501 -0.00000000000E+00  0.00000000000E+00  0.13301286220E+04  0.13301286220E+04  0.00000000000E+00 0. -1.
         21   -1    0    0  501  502  0.00000000000E+00 -0.00000000000E+00 -0.42490056445E+03  0.42490056445E+03  0.00000000000E+00 0. -1.
   -9000010    2    1    2    0  502  0.35782503213E+03  0.17269326595E+02  0.45238498102E+03  0.11776178544E+04  0.10265450096E+04 0.  0.
         13    1    3    3    0    0 -0.28177883816E+03  0.26515121801E+03  0.25658155124E+03  0.46426133335E+03  0.10566000000E+00 0. -1.
         -4    1    3    3    0  502  0.63960387029E+03 -0.24788189141E+03  0.19580342979E+03  0.71335652103E+03  0.00000000000E+00 0. -1.
        -13    1    1    2    0    0 -0.35782503213E+03 -0.17269326595E+02  0.45284307649E+03  0.57741133203E+03  0.10566000000E+00 0.  1.
<mgrwt>
<rscale>  1 0.82374667E+03</rscale>
<asrwt>0</asrwt>
<pdfrwt beam="2">  1       21 0.65369318E-01 0.10872588E+04</pdfrwt>
<pdfrwt beam="1">  1       -4 0.20463517E+00 0.10872588E+04</pdfrwt>
<totfact> 0.10093181E+01</totfact>
</mgrwt>
</event>
<event>
 6    2  0.2294477E-005  0.1025850E+04  0.7818608E-02  0.9662087E-01
         21   -1    0    0  501  502  0.00000000000E+00  0.00000000000E+00  0.11467069003E+04  0.11467069003E+04  0.00000000000E+00 0. -1.
         -4   -1    0    0    0  501 -0.00000000000E+00 -0.00000000000E+00 -0.47173386382E+03  0.47173386382E+03  0.00000000000E+00 0. -1.
   -9000010    2    1    2    0  502  0.23633576853E+03 -0.12570877450E+03  0.82062254461E+03  0.13136931935E+04  0.99030861571E+03 0.  0.
         13    1    3    3    0    0  0.26854826782E+03 -0.45621222354E+03  0.12659004011E+03  0.54430948409E+03  0.10566000000E+00 0. -1.
         -4    1    3    3    0  502 -0.32212499284E+02  0.33050344904E+03  0.69403250450E+03  0.76938370936E+03  0.00000000000E+00 0. -1.
        -13    1    1    2    0    0 -0.23633576853E+03  0.12570877450E+03 -0.14564950810E+03  0.30474757070E+03  0.10566000000E+00 0.  1.
<mgrwt>
<rscale>  1 0.73319668E+03</rscale>
<asrwt>0</asrwt>
<pdfrwt beam="1">  1       21 0.17641645E+00 0.10258501E+04</pdfrwt>
<pdfrwt beam="2">  1       -4 0.72574441E-01 0.10258501E+04</pdfrwt>
<totfact> 0.11592069E+01</totfact>
</mgrwt>
</event>
<event>
 6    2  0.2294477E-005  0.1061960E+04  0.7818608E-02  0.9525110E-01
         -4   -1    0    0    0  501 -0.00000000000E+00  0.00000000000E+00  0.53842521227E+03  0.53842521227E+03  0.00000000000E+00 0. -1.
         21   -1    0    0  501  502  0.00000000000E+00 -0.00000000000E+00 -0.10690687642E+04  0.10690687642E+04  0.00000000000E+00 0.  1.
   -9000010    2    1    2    0  502 -0.33314773075E+03 -0.19497611327E+03 -0.59326458272E+03  0.12164383539E+04  0.98932113522E+03 0.  0.
         13    1    3    3    0    0  0.58571991812E+01  0.35480270182E+03 -0.24300467762E+02  0.35568214448E+03  0.10566000000E+00 0. -1.
         -4    1    3    3    0  502 -0.33900492993E+03 -0.54977881509E+03 -0.56896411496E+03  0.86075620947E+03  0.00000000000E+00 0. -1.
        -13    1    1    2    0    0  0.33314773075E+03  0.19497611327E+03  0.62621030787E+02  0.39105562253E+03  0.10566000000E+00 0.  1.
<mgrwt>
<rscale>  1 0.82457580E+03</rscale>
<asrwt>0</asrwt>
<pdfrwt beam="2">  1       21 0.16447212E+00 0.10619602E+04</pdfrwt>
<pdfrwt beam="1">  1       -4 0.82834648E-01 0.10619602E+04</pdfrwt>
<totfact> 0.10481975E+01</totfact>
</mgrwt>
</event>
<event>
 6    2  0.2294477E-005  0.1052470E+04  0.7818608E-02  0.9563744E-01
         21   -1    0    0  501  502  0.00000000000E+00  0.00000000000E+00  0.10490309442E+04  0.10490309442E+04  0.00000000000E+00 0. -1.
         -4   -1    0    0    0  501 -0.00000000000E+00 -0.00000000000E+00 -0.78894980803E+03  0.78894980803E+03  0.00000000000E+00 0. -1.
   -9000010    2    1    2    0  502 -0.78130131789E+01 -0.34676251245E+03  0.71023781451E+03  0.12696970823E+04  0.99367381189E+03 0.  0.
         13    1    3    3    0    0  0.28762310078E+02 -0.30685454449E+03 -0.19378176618E+03  0.36405819044E+03  0.10566000000E+00 0. -1.
         -4    1    3    3    0  502 -0.36575323257E+02 -0.39907967954E+02  0.90401958069E+03  0.90563889186E+03  0.00000000000E+00 0. -1.
        -13    1    1    2    0    0  0.78130131789E+01  0.34676251245E+03 -0.45015667838E+03  0.56828366989E+03  0.10566000000E+00 0.  1.
<mgrwt>
<rscale>  1 0.79743053E+03</rscale>
<asrwt>0</asrwt>
<pdfrwt beam="1">  1       21 0.16138938E+00 0.10524699E+04</pdfrwt>
<pdfrwt beam="2">  1       -4 0.12137689E+00 0.10524699E+04</pdfrwt>
<totfact> 0.44051569E+00</totfact>
</mgrwt>
</event>
<event>
 6    2  0.2294477E-005  0.9815569E+03  0.7818608E-02  0.9925729E-01
         21   -1    0    0  501  502  0.00000000000E+00  0.00000000000E+00  0.51167801574E+03  0.51167801574E+03  0.00000000000E+00 0. -1.
         -4   -1    0    0    0  501 -0.00000000000E+00 -0.00000000000E+00 -0.60837986484E+03  0.60837986484E+03  0.00000000000E+00 0. -1.
   -9000010    2    1    2    0  502 -0.11950216628E+03  0.46959215992E+02 -0.47986011269E+02  0.98272915185E+03  0.97312280464E+03 0.  0.
         13    1    3    3    0    0 -0.31760036036E+03 -0.63708109902E+02 -0.43002807998E+03  0.53837985931E+03  0.10566000000E+00 0. -1.
         -4    1    3    3    0  502  0.19809819408E+03  0.11066732589E+03  0.38204206871E+03  0.44434929255E+03  0.00000000000E+00 0. -1.
        -13    1    1    2    0    0  0.11950216628E+03 -0.46959215992E+02 -0.48715837828E+02  0.13732872872E+03  0.10566000000E+00 0.  1.
<mgrwt>
<rscale>  1 0.59030416E+03</rscale>
<asrwt>0</asrwt>
<pdfrwt beam="1">  1       21 0.78719695E-01 0.98155689E+03</pdfrwt>
<pdfrwt beam="2">  1       -4 0.93596902E-01 0.98155689E+03</pdfrwt>
<totfact> 0.53069986E+01</totfact>
</mgrwt>
</event>
<event>
 6    2  0.2294477E-005  0.1087822E+04  0.7818608E-02  0.9522142E-01
         -4   -1    0    0    0  501 -0.00000000000E+00  0.00000000000E+00  0.57296882603E+03  0.57296882603E+03  0.00000000000E+00 0. -1.
         21   -1    0    0  501  502  0.00000000000E+00 -0.00000000000E+00 -0.11972213368E+04  0.11972213368E+04  0.00000000000E+00 0. -1.
   -9000010    2    1    2    0  502 -0.35534491267E+03 -0.73459913290E+02 -0.81593069056E+03  0.13598160633E+04  0.10255196090E+04 0.  0.
         13    1    3    3    0    0 -0.56149727566E+03  0.30251335314E+03 -0.61601976705E+03  0.88672086023E+03  0.10566000000E+00 0. -1.
         -4    1    3    3    0  502  0.20615236299E+03 -0.37597326643E+03 -0.19991092350E+03  0.47309520307E+03  0.00000000000E+00 0. -1.
        -13    1    1    2    0    0  0.35534491267E+03  0.73459913290E+02  0.19167817976E+03  0.41037409955E+03  0.10566000000E+00 0.  1.
<mgrwt>
<rscale>  1 0.82670917E+03</rscale>
<asrwt>0</asrwt>
<pdfrwt beam="2">  1       21 0.18418790E+00 0.10878221E+04</pdfrwt>
<pdfrwt beam="1">  1       -4 0.88149050E-01 0.10878221E+04</pdfrwt>
<totfact> 0.64595601E+00</totfact>
</mgrwt>
</event>
<event>
 6    2  0.2294477E-005  0.9133522E+03  0.7818608E-02  0.9702916E-01
         -4   -1    0    0    0  501 -0.00000000000E+00  0.00000000000E+00  0.61498365405E+03  0.61498365405E+03  0.00000000000E+00 0. -1.
         21   -1    0    0  501  502  0.00000000000E+00 -0.00000000000E+00 -0.66438371639E+03  0.66438371639E+03  0.00000000000E+00 0. -1.
   -9000010    2    1    2    0  502 -0.29989220005E+03 -0.13910959690E+03 -0.16698748817E+03  0.92849185765E+03  0.85142556746E+03 0.  0.
         13    1    3    3    0    0  0.21208935973E+03 -0.20930125051E+03  0.13805904670E+03  0.32840405222E+03  0.10566000000E+00 0. -1.
         -4    1    3    3    0  502 -0.51198155978E+03  0.70191653610E+02 -0.30504653486E+03  0.60008780543E+03  0.00000000000E+00 0. -1.
        -13    1    1    2    0    0  0.29989220005E+03  0.13910959690E+03  0.11758742583E+03  0.35087551279E+03  0.10566000000E+00 0.  1.
<mgrwt>
<rscale>  1 0.70843449E+03</rscale>
<asrwt>0</asrwt>
<pdfrwt beam="2">  1       21 0.10221288E+00 0.91335224E+03</pdfrwt>
<pdfrwt beam="1">  1       -4 0.94612870E-01 0.91335224E+03</pdfrwt>
<totfact> 0.27727131E+01</totfact>
</mgrwt>
</event>
<event>
 6    2  0.2294477E-005  0.1032058E+04  0.7818608E-02  0.9738994E-01
         -4   -1    0    0    0  501 -0.00000000000E+00  0.00000000000E+00  0.26787910883E+03  0.26787910883E+03  0.00000000000E+00 0. -1.
         21   -1    0    0  501  502  0.00000000000E+00 -0.00000000000E+00 -0.18653329489E+04  0.18653329489E+04  0.00000000000E+00 0.  1.
   -9000010    2    1    2    0  502 -0.56995747378E+02 -0.19496872325E+03 -0.16282302483E+04  0.19277649435E+04  0.10118708502E+04 0.  0.
         13    1    3    3    0    0 -0.27228746675E+03  0.14507017447E+03 -0.67289783582E+02  0.31577483466E+03  0.10566000000E+00 0. -1.
         -4    1    3    3    0  502  0.21529171937E+03 -0.34003889771E+03 -0.15609404648E+04  0.16119901088E+04  0.00000000000E+00 0. -1.
        -13    1    1    2    0    0  0.56995747378E+02  0.19496872325E+03  0.30776408314E+02  0.20544711421E+03  0.10566000000E+00 0.  1.
<mgrwt>
<rscale>  1 0.68741818E+03</rscale>
<asrwt>0</asrwt>
<pdfrwt beam="2">  1       21 0.28697431E+00 0.10320581E+04</pdfrwt>
<pdfrwt beam="1">  1       -4 0.41212169E-01 0.10320581E+04</pdfrwt>
<totfact> 0.72872363E+00</totfact>
</mgrwt>
</event>
<event>
 6    2  0.2294477E-005  0.1002199E+04  0.7818608E-02  0.9926847E-01
         21   -1    0    0  501  502  0.00000000000E+00  0.00000000000E+00  0.91678140638E+03  0.91678140638E+03  0.00000000000E+00 0. -1.
         -4   -1    0    0    0  501 -0.00000000000E+00 -0.00000000000E+00 -0.53247124309E+03  0.53247124309E+03  0.00000000000E+00 0. -1.
   -9000010    2    1    2    0  502 -0.73395154018E+02 -0.95184188864E+02  0.62437248629E+03  0.11807814061E+04  0.99496575262E+03 0.  0.
         13    1    3    3    0    0  0.24819462103E+03  0.36181721786E+03  0.33121414671E+03  0.54974093097E+03  0.10566000000E+00 0. -1.
         -4    1    3    3    0  502 -0.32158977504E+03 -0.45700140672E+03  0.29315833958E+03  0.63104047511E+03  0.00000000000E+00 0. -1.
        -13    1    1    2    0    0  0.73395154018E+02  0.95184188864E+02 -0.24006232300E+03  0.26847124339E+03  0.10566000000E+00 0.  1.
<mgrwt>
<rscale>  1 0.58977643E+03</rscale>
<asrwt>0</asrwt>
<pdfrwt beam="1">  1       21 0.14104329E+00 0.10021994E+04</pdfrwt>
<pdfrwt beam="2">  1       -4 0.81918653E-01 0.10021994E+04</pdfrwt>
<totfact> 0.16674029E+01</totfact>
</mgrwt>
</event>
<event>
 6    2  0.2294477E-005  0.1166663E+04  0.7818608E-02  0.9317595E-01
         21   -1    0    0  501  502  0.00000000000E+00  0.00000000000E+00  0.29755626753E+04  0.29755626753E+04  0.00000000000E+00 0. -1.
         -4   -1    0    0    0  501 -0.00000000000E+00 -0.00000000000E+00 -0.28830877298E+03  0.28830877298E+03  0.00000000000E+00 0. -1.
   -9000010    2    1    2    0  502 -0.52238420486E+03  0.31365537778E+03  0.12886886760E+04  0.17383388669E+04  0.99490630662E+03 0.  0.
         13    1    3    3    0    0 -0.51560676977E+03  0.61365343809E+03  0.64739291125E+03  0.10303098931E+04  0.10566000000E+00 0. -1.
         -4    1    3    3    0  502 -0.67774350899E+01 -0.29999806031E+03  0.64129576478E+03  0.70802897380E+03  0.00000000000E+00 0. -1.
        -13    1    1    2    0    0  0.52238420486E+03 -0.31365537778E+03  0.13985652263E+04  0.15255325814E+04  0.10566000000E+00 0.  1.
<mgrwt>
<rscale>  1 0.99179002E+03</rscale>
<asrwt>0</asrwt>
<pdfrwt beam="1">  1       21 0.45777885E+00 0.11666634E+04</pdfrwt>
<pdfrwt beam="2">  1       -4 0.44355198E-01 0.11666634E+04</pdfrwt>
<totfact> 0.47744950E-01</totfact>
</mgrwt>
</event>
<event>
 6    2  0.2294477E-005  0.1240131E+04  0.7818608E-02  0.9212334E-01
         -4   -1    0    0    0  501 -0.00000000000E+00  0.00000000000E+00  0.11508544237E+04  0.11508544237E+04  0.00000000000E+00 0. -1.
         21   -1    0    0  501  502  0.00000000000E+00 -0.00000000000E+00 -0.89103900280E+03  0.89103900280E+03  0.00000000000E+00 0.  1.
   -9000010    2    1    2    0  502  0.18495536315E+03  0.72424445779E+03 -0.29204849922E+02  0.12404751530E+04  0.98953886277E+03 0.  0.
         13    1    3    3    0    0  0.18956198116E+03  0.96055846313E+03  0.75441215387E+02  0.98198660579E+03  0.10566000000E+00 0. -1.
         -4    1    3    3    0  502 -0.46066180119E+01 -0.23631400535E+03 -0.10464606531E+03  0.25848854721E+03  0.00000000000E+00 0. -1.
        -13    1    1    2    0    0 -0.18495536315E+03 -0.72424445779E+03  0.28902027081E+03  0.80141827350E+03  0.10566000000E+00 0.  1.
<mgrwt>
<rscale>  1 0.10927022E+04</rscale>
<asrwt>0</asrwt>
<pdfrwt beam="2">  1       21 0.13708292E+00 0.12401313E+04</pdfrwt>
<pdfrwt beam="1">  1       -4 0.17705453E+00 0.12401313E+04</pdfrwt>
<totfact> 0.24646705E+00</totfact>
</mgrwt>
</event>
<event>
 6    2  0.2294477E-005  0.1084568E+04  0.7818608E-02  0.9644436E-01
         -4   -1    0    0    0  501 -0.00000000000E+00  0.00000000000E+00  0.10684859180E+04  0.10684859180E+04  0.00000000000E+00 0. -1.
         21   -1    0    0  501  502  0.00000000000E+00 -0.00000000000E+00 -0.45117070115E+03  0.45117070115E+03  0.00000000000E+00 0. -1.
   -9000010    2    1    2    0  502 -0.21132838003E+03  0.11475805738E+03  0.30721469632E+03  0.11272391884E+04  0.10575718521E+04 0.  0.
         13    1    3    3    0    0  0.39017683506E+03  0.22461423349E+03  0.17317878913E+02  0.45054349024E+03  0.10566000000E+00 0. -1.
         -4    1    3    3    0  502 -0.60150521509E+03 -0.10985617611E+03  0.28989681741E+03  0.67669569819E+03  0.00000000000E+00 0. -1.
        -13    1    1    2    0    0  0.21132838003E+03 -0.11475805738E+03  0.31010052048E+03  0.39241743069E+03  0.10566000000E+00 0.  1.
<mgrwt>
<rscale>  1 0.74423629E+03</rscale>
<asrwt>0</asrwt>
<pdfrwt beam="2">  1       21 0.69410877E-01 0.10845678E+04</pdfrwt>
<pdfrwt beam="1">  1       -4 0.16438245E+00 0.10845678E+04</pdfrwt>
<totfact> 0.16722036E+01</totfact>
</mgrwt>
</event>
<event>
 6    2  0.2294477E-005  0.1034603E+04  0.7818608E-02  0.9628535E-01
         21   -1    0    0  501  502  0.00000000000E+00  0.00000000000E+00  0.16293637435E+04  0.16293637435E+04  0.00000000000E+00 0.  1.
         -4   -1    0    0    0  501 -0.00000000000E+00 -0.00000000000E+00 -0.27710927883E+03  0.27710927883E+03  0.00000000000E+00 0. -1.
   -9000010    2    1    2    0  502  0.23140243057E+03 -0.17876473025E+03  0.11703970268E+04  0.15621242855E+04  0.99242086311E+03 0.  0.
         13    1    3    3    0    0  0.27474471085E+03 -0.57113091302E+03  0.63739618689E+03  0.89885988128E+03  0.10566000000E+00 0. -1.
         -4    1    3    3    0  502 -0.43342280285E+02  0.39236618277E+03  0.53300083988E+03  0.66326440426E+03  0.00000000000E+00 0. -1.
        -13    1    1    2    0    0 -0.23140243057E+03  0.17876473025E+03  0.18185743793E+03  0.34434873682E+03  0.10566000000E+00 0.  1.
<mgrwt>
<rscale>  1 0.75435976E+03</rscale>
<asrwt>0</asrwt>
<pdfrwt beam="1">  1       21 0.25067134E+00 0.10346029E+04</pdfrwt>
<pdfrwt beam="2">  1       -4 0.42632198E-01 0.10346029E+04</pdfrwt>
<totfact> 0.11487279E+01</totfact>
</mgrwt>
</event>
<event>
 6    2  0.2294477E-005  0.1031525E+04  0.7818608E-02  0.9945406E-01
         21   -1    0    0  501  502  0.00000000000E+00  0.00000000000E+00  0.11361413547E+04  0.11361413547E+04  0.00000000000E+00 0. -1.
         -4   -1    0    0    0  501 -0.00000000000E+00 -0.00000000000E+00 -0.28847482472E+03  0.28847482472E+03  0.00000000000E+00 0. -1.
   -9000010    2    1    2    0  502 -0.59653208018E+02 -0.85056409199E+02  0.81821594982E+03  0.13166326352E+04  0.10262802043E+04 0.  0.
         13    1    3    3    0    0  0.16835383808E+03 -0.26976450911E+03 -0.11517571043E+03  0.33820313513E+03  0.10566000000E+00 0. -1.
         -4    1    3    3    0  502 -0.22800704610E+03  0.18470809991E+03  0.93339166025E+03  0.97842950011E+03  0.00000000000E+00 0. -1.
        -13    1    1    2    0    0  0.59653208018E+02  0.85056409199E+02  0.29450580129E+02  0.10798354415E+03  0.10566000000E+00 0.  1.
<mgrwt>
<rscale>  1 0.58110310E+03</rscale>
<asrwt>0</asrwt>
<pdfrwt beam="1">  1       21 0.17479098E+00 0.10315252E+04</pdfrwt>
<pdfrwt beam="2">  1       -4 0.44380743E-01 0.10315252E+04</pdfrwt>
<totfact> 0.34446459E+01</totfact>
</mgrwt>
</event>
<event>
 6    2  0.2294477E-005  0.1040786E+04  0.7818608E-02  0.9744312E-01
         -4   -1    0    0    0  501 -0.00000000000E+00  0.00000000000E+00  0.10910027759E+04  0.10910027759E+04  0.00000000000E+00 0. -1.
         21   -1    0    0  501  502  0.00000000000E+00 -0.00000000000E+00 -0.35959133567E+03  0.35959133567E+03  0.00000000000E+00 0. -1.
   -9000010    2    1    2    0  502  0.17146823227E+03  0.91999783510E+02  0.52068497810E+03  0.11637649501E+04  0.10224337132E+04 0.  0.
         13    1    3    3    0    0 -0.35425387879E+03  0.30018827995E+03  0.15132046574E+03  0.48837148624E+03  0.10566000000E+00 0. -1.
         -4    1    3    3    0  502  0.52572211105E+03 -0.20818849644E+03  0.36936451236E+03  0.67539346391E+03  0.00000000000E+00 0. -1.
        -13    1    1    2    0    0 -0.17146823227E+03 -0.91999783510E+02  0.21072646216E+03  0.28682916146E+03  0.10566000000E+00 0.  1.
<mgrwt>
<rscale>  1 0.68438640E+03</rscale>
<asrwt>0</asrwt>
<pdfrwt beam="2">  1       21 0.55321744E-01 0.10407862E+04</pdfrwt>
<pdfrwt beam="1">  1       -4 0.16784658E+00 0.10407862E+04</pdfrwt>
<totfact> 0.26357046E+01</totfact>
</mgrwt>
</event>
<event>
 6    2  0.2294477E-005  0.1106480E+04  0.7818608E-02  0.9422747E-01
         21   -1    0    0  501  502  0.00000000000E+00  0.00000000000E+00  0.22131647369E+04  0.22131647369E+04  0.00000000000E+00 0.  1.
         -4   -1    0    0    0  501 -0.00000000000E+00 -0.00000000000E+00 -0.30886141444E+03  0.30886141444E+03  0.00000000000E+00 0. -1.
   -9000010    2    1    2    0  502  0.53668748405E+01  0.48920488717E+03  0.16018503476E+04  0.19468496236E+04  0.99244581492E+03 0.  0.
         13    1    3    3    0    0 -0.16944708169E+03 -0.14549988496E+03  0.92415343731E+01  0.22353511389E+03  0.10566000000E+00 0. -1.
         -4    1    3    3    0  502  0.17481395653E+03  0.63470477213E+03  0.15926088133E+04  0.17233145097E+04  0.00000000000E+00 0. -1.
        -13    1    1    2    0    0 -0.53668748405E+01 -0.48920488717E+03  0.30245297482E+03  0.57517652778E+03  0.10566000000E+00 0.  1.
<mgrwt>
<rscale>  1 0.90227107E+03</rscale>
<asrwt>0</asrwt>
<pdfrwt beam="1">  1       21 0.34048687E+00 0.11064804E+04</pdfrwt>
<pdfrwt beam="2">  1       -4 0.47517142E-01 0.11064804E+04</pdfrwt>
<totfact> 0.24803925E+00</totfact>
</mgrwt>
</event>
<event>
 6    2  0.2294477E-005  0.8237721E+03  0.7818608E-02  0.1032361E+00
         -4   -1    0    0    0  501 -0.00000000000E+00  0.00000000000E+00  0.43070901856E+03  0.43070901856E+03  0.00000000000E+00 0. -1.
         21   -1    0    0  501  502  0.00000000000E+00 -0.00000000000E+00 -0.67707550203E+03  0.67707550203E+03  0.00000000000E+00 0. -1.
   -9000010    2    1    2    0  502 -0.63843344996E+02  0.31660381990E+01 -0.41863196250E+03  0.92404175765E+03  0.82128828883E+03 0.  0.
         13    1    3    3    0    0  0.38060097372E+02 -0.40126141911E+03 -0.24916082002E+03  0.47385696457E+03  0.10566000000E+00 0. -1.
         -4    1    3    3    0  502 -0.10190344237E+03  0.40442745731E+03 -0.16947114249E+03  0.45018479309E+03  0.00000000000E+00 0. -1.
        -13    1    1    2    0    0  0.63843344996E+02 -0.31660381990E+01  0.17226547904E+03  0.18374276293E+03  0.10566000000E+00 0.  1.
<mgrwt>
<rscale>  1 0.43477814E+03</rscale>
<asrwt>0</asrwt>
<pdfrwt beam="2">  1       21 0.10416546E+00 0.82377209E+03</pdfrwt>
<pdfrwt beam="1">  1       -4 0.66262926E-01 0.82377209E+03</pdfrwt>
<totfact> 0.60303102E+01</totfact>
</mgrwt>
</event>
<event>
 6    2  0.2294477E-005  0.1008237E+04  0.7818608E-02  0.9817880E-01
         -4   -1    0    0    0  501 -0.00000000000E+00  0.00000000000E+00  0.57391152855E+03  0.57391152855E+03  0.00000000000E+00 0. -1.
         21   -1    0    0  501  502  0.00000000000E+00 -0.00000000000E+00 -0.66379891073E+03  0.66379891073E+03  0.00000000000E+00 0. -1.
   -9000010    2    1    2    0  502 -0.16743939257E+03  0.13054049898E+02 -0.21172022581E+03  0.10302264366E+04  0.99415023931E+03 0.  0.
         13    1    3    3    0    0  0.23115355335E+03 -0.28774259615E+02  0.30026845409E+03  0.38002773442E+03  0.10566000000E+00 0. -1.
         -4    1    3    3    0  502 -0.39859294592E+03  0.41828309514E+02 -0.51198867990E+03  0.65019870222E+03  0.00000000000E+00 0. -1.
        -13    1    1    2    0    0  0.16743939257E+03 -0.13054049898E+02  0.12183284363E+03  0.20748400265E+03  0.10566000000E+00 0.  1.
<mgrwt>
<rscale>  1 0.64411772E+03</rscale>
<asrwt>0</asrwt>
<pdfrwt beam="2">  1       21 0.10212291E+00 0.10082366E+04</pdfrwt>
<pdfrwt beam="1">  1       -4 0.88294082E-01 0.10082366E+04</pdfrwt>
<totfact> 0.32410922E+01</totfact>
</mgrwt>
</event>
<event>
 6    2  0.2294477E-005  0.8408846E+03  0.7818608E-02  0.9997383E-01
         -4   -1    0    0    0  501 -0.00000000000E+00  0.00000000000E+00  0.99087235035E+03  0.99087235035E+03  0.00000000000E+00 0. -1.
         21   -1    0    0  501  502  0.00000000000E+00 -0.00000000000E+00 -0.82570636579E+03  0.82570636579E+03  0.00000000000E+00 0. -1.
   -9000010    2    1    2    0  502  0.70094975825E+02 -0.14676606747E+03 -0.60084562396E+03  0.10334903560E+04  0.82500501087E+03 0.  0.
         13    1    3    3    0    0  0.73621428006E+02 -0.44010406562E+03 -0.59025376482E+03  0.73994001195E+03  0.10566000000E+00 0. -1.
         -4    1    3    3    0  502 -0.35264521811E+01  0.29333799815E+03 -0.10591859140E+02  0.29355034407E+03  0.00000000000E+00 0. -1.
        -13    1    1    2    0    0 -0.70094975825E+02  0.14676606747E+03  0.76601160852E+03  0.78308836011E+03  0.10566000000E+00 0.  1.
<mgrwt>
<rscale>  1 0.55765150E+03</rscale>
<asrwt>0</asrwt>
<pdfrwt beam="2">  1       21 0.12703175E+00 0.84088457E+03</pdfrwt>
<pdfrwt beam="1">  1       -4 0.15244190E+00 0.84088457E+03</pdfrwt>
<totfact> 0.48354296E+00</totfact>
</mgrwt>
</event>
<event>
 6    2  0.2294477E-005  0.1031789E+04  0.7818608E-02  0.9692310E-01
         -4   -1    0    0    0  501 -0.00000000000E+00  0.00000000000E+00  0.25151362741E+03  0.25151362741E+03  0.00000000000E+00 0. -1.
         21   -1    0    0  501  502  0.00000000000E+00 -0.00000000000E+00 -0.16043421301E+04  0.16043421301E+04  0.00000000000E+00 0. -1.
   -9000010    2    1    2    0  502  0.81670519622E+02  0.22314211266E+03 -0.11282974365E+04  0.15289357565E+04  0.10040552604E+04 0.  0.
         13    1    3    3    0    0  0.74435819400E+02  0.57047008889E+02 -0.12921271647E+04  0.12955260218E+04  0.10566000000E+00 0. -1.
         -4    1    3    3    0  502  0.72347002218E+01  0.16609510377E+03  0.16382972819E+03  0.23340973463E+03  0.00000000000E+00 0. -1.
        -13    1    1    2    0    0 -0.81670519622E+02 -0.22314211266E+03 -0.22453106618E+03  0.32692000101E+03  0.10566000000E+00 0.  1.
<mgrwt>
<rscale>  1 0.71476505E+03</rscale>
<asrwt>0</asrwt>
<pdfrwt beam="2">  1       21 0.24682186E+00 0.10317894E+04</pdfrwt>
<pdfrwt beam="1">  1       -4 0.38694405E-01 0.10317894E+04</pdfrwt>
<totfact> 0.14824515E+01</totfact>
</mgrwt>
</event>
<event>
 6    2  0.2294477E-005  0.1027952E+04  0.7818608E-02  0.9635623E-01
         21   -1    0    0  501  502  0.00000000000E+00  0.00000000000E+00  0.74734876080E+03  0.74734876080E+03  0.00000000000E+00 0. -1.
         -4   -1    0    0    0  501 -0.00000000000E+00 -0.00000000000E+00 -0.13038823708E+04  0.13038823708E+04  0.00000000000E+00 0. -1.
   -9000010    2    1    2    0  502 -0.26843939072E+03 -0.11239872873E+03  0.36033987113E+03  0.10892798998E+04  0.98589689967E+03 0.  0.
         13    1    3    3    0    0  0.22596416805E+03  0.13173637193E+03  0.45979635596E+03  0.52898674563E+03  0.10566000000E+00 0. -1.
         -4    1    3    3    0  502 -0.49440355877E+03 -0.24413510066E+03 -0.99456484830E+02  0.56029315422E+03  0.00000000000E+00 0. -1.
        -13    1    1    2    0    0  0.26843939072E+03  0.11239872873E+03 -0.91687348110E+03  0.96195123172E+03  0.10566000000E+00 0.  1.
<mgrwt>
<rscale>  1 0.74982648E+03</rscale>
<asrwt>0</asrwt>
<pdfrwt beam="1">  1       21 0.11497673E+00 0.10279523E+04</pdfrwt>
<pdfrwt beam="2">  1       -4 0.20059729E+00 0.10279523E+04</pdfrwt>
<totfact> 0.27812661E+00</totfact>
</mgrwt>
</event>
<event>
 6    2  0.2294477E-005  0.1064707E+04  0.7818608E-02  0.1040243E+00
         21   -1    0    0  501  502  0.00000000000E+00  0.00000000000E+00  0.68533841595E+03  0.68533841595E+03  0.00000000000E+00 0. -1.
         -4   -1    0    0    0  501 -0.00000000000E+00 -0.00000000000E+00 -0.47930819103E+03  0.47930819103E+03  0.00000000000E+00 0. -1.
   -9000010    2    1    2    0  502 -0.17008688943E+02  0.16215237720E+02  0.26838366384E+03  0.10980118417E+04  0.10644472669E+04 0.  0.
         13    1    3    3    0    0 -0.82640792394E+02 -0.40418887130E+03  0.47151240675E+03  0.62651584588E+03  0.10566000000E+00 0. -1.
         -4    1    3    3    0  502  0.65632103451E+02  0.42040410902E+03 -0.20312874291E+03  0.47149599583E+03  0.00000000000E+00 0. -1.
        -13    1    1    2    0    0  0.17008688943E+02 -0.16215237720E+02 -0.62353438925E+02  0.66634765278E+02  0.10566000000E+00 0.  1.
<mgrwt>
<rscale>  1 0.41038220E+03</rscale>
<asrwt>0</asrwt>
<pdfrwt beam="1">  1       21 0.10543668E+00 0.10647066E+04</pdfrwt>
<pdfrwt beam="2">  1       -4 0.73739722E-01 0.10647066E+04</pdfrwt>
<totfact> 0.45077495E+01</totfact>
</mgrwt>
</event>
<event>
 6    2  0.2294477E-005  0.9976672E+03  0.7818608E-02  0.9940040E-01
         -4   -1    0    0    0  501 -0.00000000000E+00  0.00000000000E+00  0.29286484505E+03  0.29286484505E+03  0.00000000000E+00 0. -1.
         21   -1    0    0  501  502  0.00000000000E+00 -0.00000000000E+00 -0.13149305537E+04  0.13149305537E+04  0.00000000000E+00 0. -1.
   -9000010    2    1    2    0  502 -0.80025309435E+02  0.85093641709E+02 -0.10859450102E+04  0.14746580473E+04  0.99080513386E+03 0.  0.
         13    1    3    3    0    0  0.39977888412E+03 -0.98220384065E+00 -0.83640001933E+03  0.92703242900E+03  0.10566000000E+00 0. -1.
         -4    1    3    3    0  502 -0.47980419356E+03  0.86075845549E+02 -0.24954499084E+03  0.54762561828E+03  0.00000000000E+00 0. -1.
        -13    1    1    2    0    0  0.80025309435E+02 -0.85093641709E+02  0.63879301573E+02  0.13313735142E+03  0.10566000000E+00 0.  1.
<mgrwt>
<rscale>  1 0.58359413E+03</rscale>
<asrwt>0</asrwt>
<pdfrwt beam="2">  1       21 0.20229701E+00 0.99766717E+03</pdfrwt>
<pdfrwt beam="1">  1       -4 0.45056129E-01 0.99766717E+03</pdfrwt>
<totfact> 0.21386618E+01</totfact>
</mgrwt>
</event>
<event>
 6    2  0.2294477E-005  0.1017962E+04  0.7818608E-02  0.9712406E-01
         -4   -1    0    0    0  501 -0.00000000000E+00  0.00000000000E+00  0.18893973869E+04  0.18893973869E+04  0.00000000000E+00 0. -1.
         21   -1    0    0  501  502  0.00000000000E+00 -0.00000000000E+00 -0.27392909575E+03  0.27392909575E+03  0.00000000000E+00 0. -1.
   -9000010    2    1    2    0  502 -0.27130581517E+02  0.22971869746E+03  0.74183728495E+03  0.12595909602E+04  0.99133247764E+03 0.  0.
         13    1    3    3    0    0  0.40398982088E+03  0.37553252755E+03  0.49874458271E+03  0.74362532539E+03  0.10566000000E+00 0. -1.
         -4    1    3    3    0  502 -0.43112040239E+03 -0.14581383009E+03  0.24309270225E+03  0.51596563480E+03  0.00000000000E+00 0. -1.
        -13    1    1    2    0    0  0.27130581517E+02 -0.22971869746E+03  0.87363100619E+03  0.90373552246E+03  0.10566000000E+00 0.  1.
<mgrwt>
<rscale>  1 0.70282918E+03</rscale>
<asrwt>0</asrwt>
<pdfrwt beam="2">  1       21 0.42142939E-01 0.10179621E+04</pdfrwt>
<pdfrwt beam="1">  1       -4 0.29067651E+00 0.10179621E+04</pdfrwt>
<totfact> 0.76763662E+00</totfact>
</mgrwt>
</event>
<event>
 6    2  0.2294477E-005  0.1040490E+04  0.7818608E-02  0.9508978E-01
         -4   -1    0    0    0  501 -0.00000000000E+00  0.00000000000E+00  0.52926428298E+03  0.52926428298E+03  0.00000000000E+00 0. -1.
         21   -1    0    0  501  502  0.00000000000E+00 -0.00000000000E+00 -0.12071769734E+04  0.12071769734E+04  0.00000000000E+00 0. -1.
   -9000010    2    1    2    0  502 -0.39418951948E+03 -0.18192406652E+03 -0.76777234591E+03  0.12930943131E+04  0.94558806264E+03 0.  0.
         13    1    3    3    0    0 -0.45239652961E+03 -0.30297144772E+03 -0.32273445836E+02  0.54543185148E+03  0.10566000000E+00 0. -1.
         -4    1    3    3    0  502  0.58207010134E+02  0.12104738120E+03 -0.73549890007E+03  0.74766246163E+03  0.00000000000E+00 0. -1.
        -13    1    1    2    0    0  0.39418951948E+03  0.18192406652E+03  0.89859655504E+02  0.44334694326E+03  0.10566000000E+00 0.  1.
<mgrwt>
<rscale>  1 0.83625160E+03</rscale>
<asrwt>0</asrwt>
<pdfrwt beam="2">  1       21 0.18571953E+00 0.10404896E+04</pdfrwt>
<pdfrwt beam="1">  1       -4 0.81425276E-01 0.10404896E+04</pdfrwt>
<totfact> 0.76204997E+00</totfact>
</mgrwt>
</event>
<event>
 6    2  0.2294477E-005  0.1005452E+04  0.7818608E-02  0.9791449E-01
         -4   -1    0    0    0  501 -0.00000000000E+00  0.00000000000E+00  0.26102728581E+04  0.26102728581E+04  0.00000000000E+00 0. -1.
         21   -1    0    0  501  502  0.00000000000E+00 -0.00000000000E+00 -0.13565959172E+03  0.13565959172E+03  0.00000000000E+00 0. -1.
   -9000010    2    1    2    0  502  0.17159094488E+03  0.68310523339E+02  0.20902931544E+04  0.23195385714E+04  0.98834403559E+03 0.  0.
         13    1    3    3    0    0  0.33248679619E+03 -0.38270750796E+03  0.84582679368E+03  0.98612143388E+03  0.10566000000E+00 0. -1.
         -4    1    3    3    0  502 -0.16089585131E+03  0.45101803130E+03  0.12444663608E+04  0.13334171375E+04  0.00000000000E+00 0. -1.
        -13    1    1    2    0    0 -0.17159094488E+03 -0.68310523339E+02  0.38432011191E+03  0.42639387841E+03  0.10566000000E+00 0.  1.
<mgrwt>
<rscale>  1 0.65823487E+03</rscale>
<asrwt>0</asrwt>
<pdfrwt beam="2">  1       21 0.20870708E-01 0.10054520E+04</pdfrwt>
<pdfrwt beam="1">  1       -4 0.40158040E+00 0.10054520E+04</pdfrwt>
<totfact> 0.60706948E+00</totfact>
</mgrwt>
</event>
<event>
 6    2  0.2294477E-005  0.7364298E+03  0.7818608E-02  0.1029976E+00
         21   -1    0    0  501  502  0.00000000000E+00  0.00000000000E+00  0.23620805133E+03  0.23620805133E+03  0.00000000000E+00 0. -1.
         -4   -1    0    0    0  501 -0.00000000000E+00 -0.00000000000E+00 -0.80582881928E+03  0.80582881928E+03  0.00000000000E+00 0. -1.
   -9000010    2    1    2    0  502 -0.59781753246E+02 -0.75133681435E+02 -0.37815824950E+03  0.82784808649E+03  0.73014372868E+03 0.  0.
         13    1    3    3    0    0 -0.37452653261E+03 -0.60396309927E+02 -0.67418295033E+02  0.38530906498E+03  0.10566000000E+00 0. -1.
         -4    1    3    3    0  502  0.31474477937E+03 -0.14737371508E+02 -0.31073995447E+03  0.44253902152E+03  0.00000000000E+00 0. -1.
        -13    1    1    2    0    0  0.59781753246E+02  0.75133681435E+02 -0.19146251845E+03  0.21418878412E+03  0.10566000000E+00 0.  1.
<mgrwt>
<rscale>  1 0.44252073E+03</rscale>
<asrwt>0</asrwt>
<pdfrwt beam="1">  1       21 0.36339700E-01 0.73642976E+03</pdfrwt>
<pdfrwt beam="2">  1       -4 0.12397366E+00 0.73642976E+03</pdfrwt>
<totfact> 0.14741767E+02</totfact>
</mgrwt>
</event>
<event>
 6    2  0.2294477E-005  0.1004084E+04  0.7818608E-02  0.9975189E-01
         21   -1    0    0  501  502  0.00000000000E+00  0.00000000000E+00  0.19215003938E+04  0.19215003938E+04  0.00000000000E+00 0. -1.
         -4   -1    0    0    0  501 -0.00000000000E+00 -0.00000000000E+00 -0.19212310152E+03  0.19212310152E+03  0.00000000000E+00 0. -1.
   -9000010    2    1    2    0  502  0.34205646762E+02  0.96594213797E+02  0.17417147151E+04  0.20104116182E+04  0.99884145751E+03 0.  0.
         13    1    3    3    0    0 -0.45332538068E+03  0.20325015008E+03  0.99726489097E+03  0.11141596825E+04  0.10566000000E+00 0. -1.
         -4    1    3    3    0  502  0.48753102744E+03 -0.10665593628E+03  0.74444982418E+03  0.89625193566E+03  0.00000000000E+00 0. -1.
        -13    1    1    2    0    0 -0.34205646762E+02 -0.96594213797E+02 -0.12337422883E+02  0.10321187711E+03  0.10566000000E+00 0.  1.
<mgrwt>
<rscale>  1 0.56751675E+03</rscale>
<asrwt>0</asrwt>
<pdfrwt beam="1">  1       21 0.29561543E+00 0.10040840E+04</pdfrwt>
<pdfrwt beam="2">  1       -4 0.29557402E-01 0.10040840E+04</pdfrwt>
<totfact> 0.12573680E+01</totfact>
</mgrwt>
</event>
<event>
 6    2  0.2294477E-005  0.1006317E+04  0.7818608E-02  0.9940551E-01
         -4   -1    0    0    0  501 -0.00000000000E+00  0.00000000000E+00  0.60447015128E+03  0.60447015128E+03  0.00000000000E+00 0. -1.
         21   -1    0    0  501  502  0.00000000000E+00 -0.00000000000E+00 -0.64675301828E+03  0.64675301828E+03  0.00000000000E+00 0. -1.
   -9000010    2    1    2    0  502 -0.11145964522E+03  0.22153729471E+02 -0.22955604519E+03  0.10321677093E+04  0.99988007379E+03 0.  0.
         13    1    3    3    0    0 -0.24678723250E+03 -0.22762212809E+03 -0.52444560061E+03  0.62270295525E+03  0.10566000000E+00 0. -1.
         -4    1    3    3    0  502  0.13532758728E+03  0.24977585756E+03  0.29488955542E+03  0.40946475403E+03  0.00000000000E+00 0. -1.
        -13    1    1    2    0    0  0.11145964522E+03 -0.22153729471E+02  0.18727317819E+03  0.21905546027E+03  0.10566000000E+00 0.  1.
<mgrwt>
<rscale>  1 0.58335640E+03</rscale>
<asrwt>0</asrwt>
<pdfrwt beam="2">  1       21 0.99500464E-01 0.10063171E+04</pdfrwt>
<pdfrwt beam="1">  1       -4 0.92995408E-01 0.10063171E+04</pdfrwt>
<totfact> 0.30605531E+01</totfact>
</mgrwt>
</event>
<event>
 6    2  0.2294477E-005  0.9906744E+03  0.7818608E-02  0.9706882E-01
         21   -1    0    0  501  502  0.00000000000E+00  0.00000000000E+00  0.51906656077E+03  0.51906656077E+03  0.00000000000E+00 0. -1.
         -4   -1    0    0    0  501 -0.00000000000E+00 -0.00000000000E+00 -0.88544294987E+03  0.88544294987E+03  0.00000000000E+00 0. -1.
   -9000010    2    1    2    0  502  0.13992326309E+03  0.21395162474E+03 -0.42081691343E+02  0.99156777208E+03  0.95712170626E+03 0.  0.
         13    1    3    3    0    0 -0.30222479349E+03  0.39881883747E+03  0.52302509669E+02  0.50312210705E+03  0.10566000000E+00 0. -1.
         -4    1    3    3    0  502  0.44214805658E+03 -0.18486721274E+03 -0.94384201012E+02  0.48844566503E+03  0.00000000000E+00 0. -1.
        -13    1    1    2    0    0 -0.13992326309E+03 -0.21395162474E+03 -0.32429469777E+03  0.41294173856E+03  0.10566000000E+00 0.  1.
<mgrwt>
<rscale>  1 0.70608516E+03</rscale>
<asrwt>0</asrwt>
<pdfrwt beam="1">  1       21 0.79856394E-01 0.99067441E+03</pdfrwt>
<pdfrwt beam="2">  1       -4 0.13622199E+00 0.99067441E+03</pdfrwt>
<totfact> 0.20209788E+01</totfact>
</mgrwt>
</event>
<event>
 6    2  0.2294477E-005  0.1370922E+04  0.7818608E-02  0.9067030E-01
         -4   -1    0    0    0  501 -0.00000000000E+00  0.00000000000E+00  0.15248244309E+04  0.15248244309E+04  0.00000000000E+00 0. -1.
         21   -1    0    0  501  502  0.00000000000E+00 -0.00000000000E+00 -0.89767259568E+03  0.89767259568E+03  0.00000000000E+00 0.  1.
   -9000010    2    1    2    0  502 -0.63295547513E+03 -0.72059966654E+03  0.25910511329E+03  0.13951923427E+04  0.97955586897E+03 0.  0.
         13    1    3    3    0    0 -0.35409957618E+03 -0.49795017805E+03 -0.33897782972E+03  0.69874664212E+03  0.10566000000E+00 0. -1.
         -4    1    3    3    0  502 -0.27885589896E+03 -0.22264948849E+03  0.59808294301E+03  0.69644570056E+03  0.00000000000E+00 0. -1.
        -13    1    1    2    0    0  0.63295547513E+03  0.72059966654E+03  0.36804672196E+03  0.10273046839E+04  0.10566000000E+00 0.  1.
<mgrwt>
<rscale>  1 0.12537959E+04</rscale>
<asrwt>0</asrwt>
<pdfrwt beam="2">  1       21 0.13810348E+00 0.13709217E+04</pdfrwt>
<pdfrwt beam="1">  1       -4 0.23458837E+00 0.13709217E+04</pdfrwt>
<totfact> 0.98873925E-01</totfact>
</mgrwt>
</event>
<event>
 6    2  0.2294477E-005  0.1119351E+04  0.7818608E-02  0.9403150E-01
         -4   -1    0    0    0  501 -0.00000000000E+00  0.00000000000E+00  0.67427539256E+03  0.67427539256E+03  0.00000000000E+00 0. -1.
         21   -1    0    0  501  502  0.00000000000E+00 -0.00000000000E+00 -0.12166928173E+04  0.12166928173E+04  0.00000000000E+00 0.  1.
   -9000010    2    1    2    0  502 -0.49185775553E+03 -0.12193495658E+03  0.38594086619E+02  0.11200164780E+04  0.99807575976E+03 0.  0.
         13    1    3    3    0    0  0.26821526159E+03  0.15534440496E+03  0.22814712973E+02  0.31079226663E+03  0.10566000000E+00 0. -1.
         -4    1    3    3    0  502 -0.76007301712E+03 -0.27727936154E+03  0.15779373645E+02  0.80922421140E+03  0.00000000000E+00 0. -1.
        -13    1    1    2    0    0  0.49185775553E+03  0.12193495658E+03 -0.58101151133E+03  0.77095173180E+03  0.10566000000E+00 0.  1.
<mgrwt>
<rscale>  1 0.91816894E+03</rscale>
<asrwt>0</asrwt>
<pdfrwt beam="2">  1       21 0.18718351E+00 0.11193513E+04</pdfrwt>
<pdfrwt beam="1">  1       -4 0.10373468E+00 0.11193513E+04</pdfrwt>
<totfact> 0.41497580E+00</totfact>
</mgrwt>
</event>
<event>
 6    2  0.2294477E-005  0.1030836E+04  0.7818608E-02  0.9683001E-01
         -4   -1    0    0    0  501 -0.00000000000E+00  0.00000000000E+00  0.88801119236E+03  0.88801119236E+03  0.00000000000E+00 0. -1.
         21   -1    0    0  501  502  0.00000000000E+00 -0.00000000000E+00 -0.49065726601E+03  0.49065726601E+03  0.00000000000E+00 0. -1.
   -9000010    2    1    2    0  502 -0.97498202446E+02 -0.22569511473E+03  0.45398406715E+03  0.11263766267E+04  0.10010887012E+04 0.  0.
         13    1    3    3    0    0 -0.52641956997E+03  0.18434080618E+02  0.31460621924E+03  0.61354255217E+03  0.10566000000E+00 0. -1.
         -4    1    3    3    0  502  0.42892136753E+03 -0.24412919535E+03  0.13937784791E+03  0.51283407456E+03  0.00000000000E+00 0. -1.
        -13    1    1    2    0    0  0.97498202446E+02  0.22569511473E+03 -0.56630140807E+02  0.25229183163E+03  0.10566000000E+00 0.  1.
<mgrwt>
<rscale>  1 0.72037984E+03</rscale>
<asrwt>0</asrwt>
<pdfrwt beam="2">  1       21 0.75485733E-01 0.10308360E+04</pdfrwt>
<pdfrwt beam="1">  1       -4 0.13661711E+00 0.10308360E+04</pdfrwt>
<totfact> 0.22792355E+01</totfact>
</mgrwt>
</event>
<event>
 6    2  0.2294477E-005  0.1029429E+04  0.7818608E-02  0.9710892E-01
         -4   -1    0    0    0  501 -0.00000000000E+00  0.00000000000E+00  0.56817905521E+03  0.56817905521E+03  0.00000000000E+00 0. -1.
         21   -1    0    0  501  502  0.00000000000E+00 -0.00000000000E+00 -0.10405919823E+04  0.10405919823E+04  0.00000000000E+00 0.  1.
   -9000010    2    1    2    0  502  0.11484304299E+03 -0.19325887939E+03 -0.73366124888E+03  0.12641137936E+04  0.10045829663E+04 0.  0.
         13    1    3    3    0    0 -0.40843512403E+03 -0.28354759455E+03 -0.38539780624E+03  0.62908661497E+03  0.10566000000E+00 0. -1.
         -4    1    3    3    0  502  0.52327816701E+03  0.90288715153E+02 -0.34826344264E+03  0.63502717866E+03  0.00000000000E+00 0. -1.
        -13    1    1    2    0    0 -0.11484304299E+03  0.19325887939E+03  0.26124832177E+03  0.34465724391E+03  0.10566000000E+00 0.  1.
<mgrwt>
<rscale>  1 0.70371953E+03</rscale>
<asrwt>0</asrwt>
<pdfrwt beam="2">  1       21 0.16009107E+00 0.10294294E+04</pdfrwt>
<pdfrwt beam="1">  1       -4 0.87412162E-01 0.10294294E+04</pdfrwt>
<totfact> 0.10035099E+01</totfact>
</mgrwt>
</event>
<event>
 6    2  0.2294477E-005  0.9677508E+03  0.7818608E-02  0.9903714E-01
         21   -1    0    0  501  502  0.00000000000E+00  0.00000000000E+00  0.93775044444E+03  0.93775044444E+03  0.00000000000E+00 0. -1.
         -4   -1    0    0    0  501 -0.00000000000E+00 -0.00000000000E+00 -0.32987038148E+03  0.32987038148E+03  0.00000000000E+00 0. -1.
   -9000010    2    1    2    0  502 -0.13736831984E+03 -0.42432372366E+02  0.51240528759E+03  0.10950345999E+04  0.95701151230E+03 0.  0.
         13    1    3    3    0    0 -0.12264524325E+03 -0.33493666572E+03  0.67251699521E+03  0.76125130262E+03  0.10566000000E+00 0. -1.
         -4    1    3    3    0  502 -0.14723076597E+02  0.29250429336E+03 -0.16011170762E+03  0.33378329726E+03  0.00000000000E+00 0. -1.
        -13    1    1    2    0    0  0.13736831984E+03  0.42432372366E+02  0.95474775365E+02  0.17258622603E+03  0.10566000000E+00 0.  1.
<mgrwt>
<rscale>  1 0.60081639E+03</rscale>
<asrwt>0</asrwt>
<pdfrwt beam="1">  1       21 0.14426930E+00 0.96775079E+03</pdfrwt>
<pdfrwt beam="2">  1       -4 0.50749290E-01 0.96775079E+03</pdfrwt>
<totfact> 0.45260252E+01</totfact>
</mgrwt>
</event>
<event>
 6    2  0.2294477E-005  0.1084578E+04  0.7818608E-02  0.9626508E-01
         -4   -1    0    0    0  501 -0.00000000000E+00  0.00000000000E+00  0.13090087514E+04  0.13090087514E+04  0.00000000000E+00 0. -1.
         21   -1    0    0  501  502  0.00000000000E+00 -0.00000000000E+00 -0.98270946940E+03  0.98270946940E+03  0.00000000000E+00 0. -1.
   -9000010    2    1    2    0  502  0.20273426120E+03 -0.15563040738E+03 -0.66217124477E+03  0.12707402593E+04  0.10540341763E+04 0.  0.
         13    1    3    3    0    0 -0.13363940001E+03 -0.50802696480E+03 -0.11430134431E+03  0.53760179936E+03  0.10566000000E+00 0. -1.
         -4    1    3    3    0  502  0.33637366121E+03  0.35239655742E+03 -0.54786990046E+03  0.73313845996E+03  0.00000000000E+00 0. -1.
        -13    1    1    2    0    0 -0.20273426120E+03  0.15563040738E+03  0.98847052675E+03  0.10209779615E+04  0.10566000000E+00 0.  1.
<mgrwt>
<rscale>  1 0.75566294E+03</rscale>
<asrwt>0</asrwt>
<pdfrwt beam="2">  1       21 0.15118607E+00 0.10845783E+04</pdfrwt>
<pdfrwt beam="1">  1       -4 0.20138596E+00 0.10845783E+04</pdfrwt>
<totfact> 0.13096714E+00</totfact>
</mgrwt>
</event>
<event>
 6    2  0.2294477E-005  0.1233996E+04  0.7818608E-02  0.9224575E-01
         21   -1    0    0  501  502  0.00000000000E+00  0.00000000000E+00  0.52785738560E+03  0.52785738560E+03  0.00000000000E+00 0.  1.
         -4   -1    0    0    0  501 -0.00000000000E+00 -0.00000000000E+00 -0.22848474995E+04  0.22848474995E+04  0.00000000000E+00 0. -1.
   -9000010    2    1    2    0  502  0.24323479285E+03  0.68289494282E+03 -0.16788656216E+04  0.20835875319E+04  0.99861832562E+03 0.  0.
         13    1    3    3    0    0 -0.12736171960E+03 -0.20163942453E+03 -0.15967250652E+03  0.28701007935E+03  0.10566000000E+00 0. -1.
         -4    1    3    3    0  502  0.37059651246E+03  0.88453436735E+03 -0.15191931150E+04  0.17965774525E+04  0.00000000000E+00 0. -1.
        -13    1    1    2    0    0 -0.24323479285E+03 -0.68289494282E+03 -0.78124492379E+02  0.72911735329E+03  0.10566000000E+00 0.  1.
<mgrwt>
<rscale>  1 0.10803338E+04</rscale>
<asrwt>0</asrwt>
<pdfrwt beam="1">  1       21 0.81208829E-01 0.12339964E+04</pdfrwt>
<pdfrwt beam="2">  1       -4 0.35151500E+00 0.12339964E+04</pdfrwt>
<totfact> 0.71234749E-01</totfact>
</mgrwt>
</event>
<event>
 6    2  0.2294477E-005  0.1106034E+04  0.7818608E-02  0.9419653E-01
         21   -1    0    0  501  502  0.00000000000E+00  0.00000000000E+00  0.96472110959E+03  0.96472110959E+03  0.00000000000E+00 0.  1.
         -4   -1    0    0    0  501 -0.00000000000E+00 -0.00000000000E+00 -0.78138092435E+03  0.78138092435E+03  0.00000000000E+00 0. -1.
   -9000010    2    1    2    0  502 -0.29471911083E+03  0.39801114820E+03 -0.19471986709E+03  0.11230437359E+04  0.98895863301E+03 0.  0.
         13    1    3    3    0    0  0.16301330377E+03 -0.17965834475E+03 -0.29199125770E+03  0.37961739131E+03  0.10566000000E+00 0. -1.
         -4    1    3    3    0  502 -0.45773241460E+03  0.57766949295E+03  0.97271390608E+02  0.74342634463E+03  0.00000000000E+00 0. -1.
        -13    1    1    2    0    0  0.29471911083E+03 -0.39801114820E+03  0.37806005233E+03  0.62305829800E+03  0.10566000000E+00 0.  1.
<mgrwt>
<rscale>  1 0.90475812E+03</rscale>
<asrwt>0</asrwt>
<pdfrwt beam="1">  1       21 0.14841863E+00 0.11060341E+04</pdfrwt>
<pdfrwt beam="2">  1       -4 0.12021245E+00 0.11060341E+04</pdfrwt>
<totfact> 0.56829913E+00</totfact>
</mgrwt>
</event>
<event>
 6    2  0.2294477E-005  0.1066689E+04  0.7818608E-02  0.9568145E-01
         -4   -1    0    0    0  501 -0.00000000000E+00  0.00000000000E+00  0.32670526629E+03  0.32670526629E+03  0.00000000000E+00 0. -1.
         21   -1    0    0  501  502  0.00000000000E+00 -0.00000000000E+00 -0.16602914677E+04  0.16602914677E+04  0.00000000000E+00 0.  1.
   -9000010    2    1    2    0  502  0.32426748434E+03 -0.50283895716E+02 -0.12596649447E+04  0.16506305126E+04  0.10149617947E+04 0.  0.
         13    1    3    3    0    0 -0.91850745505E+02  0.42282235278E+03 -0.44408399662E+03  0.62002089374E+03  0.10566000000E+00 0. -1.
         -4    1    3    3    0  502  0.41611822984E+03 -0.47310624850E+03 -0.81558094805E+03  0.10306096188E+04  0.00000000000E+00 0. -1.
        -13    1    1    2    0    0 -0.32426748434E+03  0.50283895716E+02 -0.73921256770E+02  0.33636622145E+03  0.10566000000E+00 0.  1.
<mgrwt>
<rscale>  1 0.79440901E+03</rscale>
<asrwt>0</asrwt>
<pdfrwt beam="2">  1       21 0.25542945E+00 0.10666890E+04</pdfrwt>
<pdfrwt beam="1">  1       -4 0.50262349E-01 0.10666890E+04</pdfrwt>
<totfact> 0.75638937E+00</totfact>
</mgrwt>
</event>
<event>
 6    2  0.2294477E-005  0.1109276E+04  0.7818608E-02  0.9421906E-01
         21   -1    0    0  501  502  0.00000000000E+00  0.00000000000E+00  0.84687285419E+03  0.84687285419E+03  0.00000000000E+00 0. -1.
         -4   -1    0    0    0  501 -0.00000000000E+00 -0.00000000000E+00 -0.75839046950E+03  0.75839046950E+03  0.00000000000E+00 0. -1.
   -9000010    2    1    2    0  502  0.40590337583E+02  0.48530446876E+03  0.12813581541E+03  0.11166526314E+04  0.99665756863E+03 0.  0.
         13    1    3    3    0    0 -0.73083477508E-01  0.59168584812E+03  0.47043091786E+03  0.75590833296E+03  0.10566000000E+00 0. -1.
         -4    1    3    3    0  502  0.40663421060E+02 -0.10638137936E+03 -0.34229510245E+03  0.36074429843E+03  0.00000000000E+00 0. -1.
        -13    1    1    2    0    0 -0.40590337583E+02 -0.48530446876E+03 -0.39653430714E+02  0.48861069230E+03  0.10566000000E+00 0.  1.
<mgrwt>
<rscale>  1 0.90294619E+03</rscale>
<asrwt>0</asrwt>
<pdfrwt beam="1">  1       21 0.13028813E+00 0.11092765E+04</pdfrwt>
<pdfrwt beam="2">  1       -4 0.11667546E+00 0.11092765E+04</pdfrwt>
<totfact> 0.87318327E+00</totfact>
</mgrwt>
</event>
<event>
 6    2  0.2294477E-005  0.9958518E+03  0.7818608E-02  0.9999793E-01
         -4   -1    0    0    0  501 -0.00000000000E+00  0.00000000000E+00  0.23055043074E+03  0.23055043074E+03  0.00000000000E+00 0. -1.
         21   -1    0    0  501  502  0.00000000000E+00 -0.00000000000E+00 -0.13013374057E+04  0.13013374057E+04  0.00000000000E+00 0. -1.
   -9000010    2    1    2    0  502 -0.40561498604E+02 -0.88307719255E+02 -0.10029462985E+04  0.14133726180E+04  0.99109908246E+03 0.  0.
         13    1    3    3    0    0  0.18334860194E+03  0.19470670714E+03  0.74062300133E+02  0.27751152607E+03  0.10566000000E+00 0. -1.
         -4    1    3    3    0  502 -0.22391010054E+03 -0.28301442639E+03 -0.10770085986E+04  0.11358610920E+04  0.00000000000E+00 0. -1.
        -13    1    1    2    0    0  0.40561498604E+02  0.88307719255E+02 -0.67840676460E+02  0.11851521841E+03  0.10566000000E+00 0.  1.
<mgrwt>
<rscale>  1 0.55659291E+03</rscale>
<asrwt>0</asrwt>
<pdfrwt beam="2">  1       21 0.20020575E+00 0.99585184E+03</pdfrwt>
<pdfrwt beam="1">  1       -4 0.35469297E-01 0.99585184E+03</pdfrwt>
<totfact> 0.36008022E+01</totfact>
</mgrwt>
</event>
<event>
 6    2  0.2294477E-005  0.1012055E+04  0.7818608E-02  0.9721220E-01
         -4   -1    0    0    0  501 -0.00000000000E+00  0.00000000000E+00  0.13758271458E+04  0.13758271458E+04  0.00000000000E+00 0. -1.
         21   -1    0    0  501  502  0.00000000000E+00 -0.00000000000E+00 -0.28059573527E+03  0.28059573527E+03  0.00000000000E+00 0. -1.
   -9000010    2    1    2    0  502  0.67641644190E+02 -0.21831896597E+03  0.92921305843E+03  0.13739327621E+04  0.98590859812E+03 0.  0.
         13    1    3    3    0    0  0.26914121145E+03 -0.55196456721E+03  0.48166247461E+03  0.78044898985E+03  0.10566000000E+00 0. -1.
         -4    1    3    3    0  502 -0.20149956726E+03  0.33364560123E+03  0.44755058382E+03  0.59348377223E+03  0.00000000000E+00 0. -1.
        -13    1    1    2    0    0 -0.67641644190E+02  0.21831896597E+03  0.16601835215E+03  0.28249011903E+03  0.10566000000E+00 0.  1.
<mgrwt>
<rscale>  1 0.69767297E+03</rscale>
<asrwt>0</asrwt>
<pdfrwt beam="2">  1       21 0.43168575E-01 0.10120545E+04</pdfrwt>
<pdfrwt beam="1">  1       -4 0.21166571E+00 0.10120545E+04</pdfrwt>
<totfact> 0.22688637E+01</totfact>
</mgrwt>
</event>
<event>
 6    2  0.2294477E-005  0.1055351E+04  0.7818608E-02  0.9564549E-01
         21   -1    0    0  501  502  0.00000000000E+00  0.00000000000E+00  0.30849936117E+03  0.30849936117E+03  0.00000000000E+00 0. -1.
         -4   -1    0    0    0  501 -0.00000000000E+00 -0.00000000000E+00 -0.22980906346E+04  0.22980906346E+04  0.00000000000E+00 0. -1.
   -9000010    2    1    2    0  502 -0.30233227453E+03 -0.16213417802E+03 -0.68624091239E+03  0.12588457802E+04  0.99803497559E+03 0.  0.
         13    1    3    3    0    0 -0.46091660186E+03 -0.26500100008E+03  0.15700382204E+02  0.53189863421E+03  0.10566000000E+00 0. -1.
         -4    1    3    3    0  502  0.15858432733E+03  0.10286682205E+03 -0.70194129459E+03  0.72694714595E+03  0.00000000000E+00 0. -1.
        -13    1    1    2    0    0  0.30233227453E+03  0.16213417802E+03 -0.13033503611E+04  0.13477442156E+04  0.10566000000E+00 0.  1.
<mgrwt>
<rscale>  1 0.79687694E+03</rscale>
<asrwt>0</asrwt>
<pdfrwt beam="1">  1       21 0.47461441E-01 0.10553512E+04</pdfrwt>
<pdfrwt beam="2">  1       -4 0.35355240E+00 0.10553512E+04</pdfrwt>
<totfact> 0.23781864E+00</totfact>
</mgrwt>
</event>
<event>
 6    2  0.2294477E-005  0.1033388E+04  0.7818608E-02  0.9686089E-01
         21   -1    0    0  501  502  0.00000000000E+00  0.00000000000E+00  0.67000229642E+03  0.67000229642E+03  0.00000000000E+00 0. -1.
         -4   -1    0    0    0  501 -0.00000000000E+00 -0.00000000000E+00 -0.63147754588E+03  0.63147754588E+03  0.00000000000E+00 0. -1.
   -9000010    2    1    2    0  502 -0.22777578635E+03 -0.80296997151E+02  0.13347194152E+03  0.10419718524E+04  0.10047692100E+04 0.  0.
         13    1    3    3    0    0  0.31254111169E+03 -0.75525516847E+02 -0.22597113327E+03  0.39300001835E+03  0.10566000000E+00 0. -1.
         -4    1    3    3    0  502 -0.54031689804E+03 -0.47714803033E+01  0.35944307479E+03  0.64897183402E+03  0.00000000000E+00 0. -1.
        -13    1    1    2    0    0  0.22777578635E+03  0.80296997151E+02 -0.94947190985E+02  0.25950798993E+03  0.10566000000E+00 0.  1.
<mgrwt>
<rscale>  1 0.71851113E+03</rscale>
<asrwt>0</asrwt>
<pdfrwt beam="1">  1       21 0.10307728E+00 0.10333879E+04</pdfrwt>
<pdfrwt beam="2">  1       -4 0.97150392E-01 0.10333879E+04</pdfrwt>
<totfact> 0.25192934E+01</totfact>
</mgrwt>
</event>
<event>
 6    2  0.2294477E-005  0.1024554E+04  0.7818608E-02  0.9760866E-01
         -4   -1    0    0    0  501 -0.00000000000E+00  0.00000000000E+00  0.68730792931E+03  0.68730792931E+03  0.00000000000E+00 0. -1.
         21   -1    0    0  501  502  0.00000000000E+00 -0.00000000000E+00 -0.74924808882E+03  0.74924808882E+03  0.00000000000E+00 0. -1.
   -9000010    2    1    2    0  502  0.18782046271E+03 -0.44795121983E+02 -0.35610932614E+03  0.10846772905E+04  0.10061947343E+04 0.  0.
         13    1    3    3    0    0  0.36671313183E+03 -0.41277002214E+03 -0.15588406068E+02  0.55235914205E+03  0.10566000000E+00 0. -1.
         -4    1    3    3    0  502 -0.17889266912E+03  0.36797490016E+03 -0.34052092007E+03  0.53231814849E+03  0.00000000000E+00 0. -1.
        -13    1    1    2    0    0 -0.18782046271E+03  0.44795121983E+02  0.29416916663E+03  0.35187872758E+03  0.10566000000E+00 0.  1.
<mgrwt>
<rscale>  1 0.67505664E+03</rscale>
<asrwt>0</asrwt>
<pdfrwt beam="2">  1       21 0.11526894E+00 0.10245540E+04</pdfrwt>
<pdfrwt beam="1">  1       -4 0.10573968E+00 0.10245540E+04</pdfrwt>
<totfact> 0.15475835E+01</totfact>
</mgrwt>
</event>
<event>
 6    2  0.2294477E-005  0.1487146E+04  0.7818608E-02  0.8971953E-01
         -4   -1    0    0    0  501 -0.00000000000E+00  0.00000000000E+00  0.14936962717E+04  0.14936962717E+04  0.00000000000E+00 0. -1.
         21   -1    0    0  501  502  0.00000000000E+00 -0.00000000000E+00 -0.11613967666E+04  0.11613967666E+04  0.00000000000E+00 0.  1.
   -9000010    2    1    2    0  502  0.50388937091E+03 -0.96371438490E+03  0.46827126840E+03  0.15591285109E+04  0.10143736091E+04 0.  0.
         13    1    3    3    0    0 -0.24006839817E+03 -0.54012618060E+02 -0.84856973666E+02  0.26029006100E+03  0.10566000000E+00 0. -1.
         -4    1    3    3    0  502  0.74395776908E+03 -0.90970176684E+03  0.55312824207E+03  0.12988384499E+04  0.00000000000E+00 0. -1.
        -13    1    1    2    0    0 -0.50388937091E+03  0.96371438490E+03 -0.13597176336E+03  0.10959645274E+04  0.10566000000E+00 0.  1.
<mgrwt>
<rscale>  1 0.13752205E+04</rscale>
<asrwt>0</asrwt>
<pdfrwt beam="2">  1       21 0.17867643E+00 0.14871462E+04</pdfrwt>
<pdfrwt beam="1">  1       -4 0.22979943E+00 0.14871462E+04</pdfrwt>
<totfact> 0.49853079E-01</totfact>
</mgrwt>
</event>
<event>
 6    2  0.2294477E-005  0.1046006E+04  0.7818608E-02  0.9480323E-01
         -4   -1    0    0    0  501 -0.00000000000E+00  0.00000000000E+00  0.19341688303E+04  0.19341688303E+04  0.00000000000E+00 0. -1.
         21   -1    0    0  501  502  0.00000000000E+00 -0.00000000000E+00 -0.37534286426E+03  0.37534286426E+03  0.00000000000E+00 0. -1.
   -9000010    2    1    2    0  502  0.43551084215E+03  0.18308645072E+03  0.51962223738E+03  0.11679624215E+04  0.93324091547E+03 0.  0.
         13    1    3    3    0    0  0.49013157923E+02  0.52561054655E+03  0.29575652410E+03  0.60509558667E+03  0.10566000000E+00 0. -1.
         -4    1    3    3    0  502  0.38649768423E+03 -0.34252409583E+03  0.22386571327E+03  0.56286683480E+03  0.00000000000E+00 0. -1.
        -13    1    1    2    0    0 -0.43551084215E+03 -0.18308645072E+03  0.10392037286E+04  0.11415492730E+04  0.10566000000E+00 0.  1.
<mgrwt>
<rscale>  1 0.85750195E+03</rscale>
<asrwt>0</asrwt>
<pdfrwt beam="2">  1       21 0.57745057E-01 0.10460062E+04</pdfrwt>
<pdfrwt beam="1">  1       -4 0.29756443E+00 0.10460062E+04</pdfrwt>
<totfact> 0.35107067E+00</totfact>
</mgrwt>
</event>
<event>
 6    2  0.2294477E-005  0.1036363E+04  0.7818608E-02  0.9780330E-01
         -4   -1    0    0    0  501 -0.00000000000E+00  0.00000000000E+00  0.82452363637E+03  0.82452363637E+03  0.00000000000E+00 0. -1.
         21   -1    0    0  501  502  0.00000000000E+00 -0.00000000000E+00 -0.52704401073E+03  0.52704401073E+03  0.00000000000E+00 0. -1.
   -9000010    2    1    2    0  502 -0.11211377354E+03 -0.13429408971E+03  0.36031877591E+02  0.10369896172E+04  0.10214914436E+04 0.  0.
         13    1    3    3    0    0 -0.20026169807E+03 -0.11817562241E+03 -0.46931349211E+03  0.52376081420E+03  0.10566000000E+00 0. -1.
         -4    1    3    3    0  502  0.88147924531E+02 -0.16118467303E+02  0.50534536970E+03  0.51322880304E+03  0.00000000000E+00 0. -1.
        -13    1    1    2    0    0  0.11211377354E+03  0.13429408971E+03  0.26144774805E+03  0.31457802987E+03  0.10566000000E+00 0.  1.
<mgrwt>
<rscale>  1 0.66428901E+03</rscale>
<asrwt>0</asrwt>
<pdfrwt beam="2">  1       21 0.81083694E-01 0.10363634E+04</pdfrwt>
<pdfrwt beam="1">  1       -4 0.12684979E+00 0.10363634E+04</pdfrwt>
<totfact> 0.23322197E+01</totfact>
</mgrwt>
</event>
<event>
 6    2  0.2294477E-005  0.9727352E+03  0.7818608E-02  0.9869552E-01
         -4   -1    0    0    0  501 -0.00000000000E+00  0.00000000000E+00  0.21343171126E+04  0.21343171126E+04  0.00000000000E+00 0. -1.
         21   -1    0    0  501  502  0.00000000000E+00 -0.00000000000E+00 -0.15286375710E+03  0.15286375710E+03  0.00000000000E+00 0. -1.
   -9000010    2    1    2    0  502 -0.88183419381E+02  0.13118276434E+03  0.18039438138E+04  0.20494943500E+04  0.95980652943E+03 0.  0.
         13    1    3    3    0    0  0.67442708562E+01  0.38976775994E+03  0.23208650580E+03  0.45368331379E+03  0.10566000000E+00 0. -1.
         -4    1    3    3    0  502 -0.94927690237E+02 -0.25858499560E+03  0.15718573080E+04  0.15958110362E+04  0.00000000000E+00 0. -1.
        -13    1    1    2    0    0  0.88183419381E+02 -0.13118276434E+03  0.17750954162E+03  0.23768651969E+03  0.10566000000E+00 0.  1.
<mgrwt>
<rscale>  1 0.61759886E+03</rscale>
<asrwt>0</asrwt>
<pdfrwt beam="2">  1       21 0.23517503E-01 0.97273522E+03</pdfrwt>
<pdfrwt beam="1">  1       -4 0.32835646E+00 0.97273522E+03</pdfrwt>
<totfact> 0.14705838E+01</totfact>
</mgrwt>
</event>
<event>
 6    2  0.2294477E-005  0.1017634E+04  0.7818608E-02  0.9735481E-01
         -4   -1    0    0    0  501 -0.00000000000E+00  0.00000000000E+00  0.26725024400E+03  0.26725024400E+03  0.00000000000E+00 0. -1.
         21   -1    0    0  501  502  0.00000000000E+00 -0.00000000000E+00 -0.19134146424E+04  0.19134146424E+04  0.00000000000E+00 0. -1.
   -9000010    2    1    2    0  502  0.13075313299E+03  0.16989023417E+03 -0.16794621705E+04  0.19637136794E+04  0.99479603885E+03 0.  0.
         13    1    3    3    0    0  0.36720768005E+03  0.47894564390E+03 -0.80091407377E+03  0.10028428465E+04  0.10566000000E+00 0. -1.
         -4    1    3    3    0  502 -0.23645454706E+03 -0.30905540974E+03 -0.87854809675E+03  0.96087083285E+03  0.00000000000E+00 0. -1.
        -13    1    1    2    0    0 -0.13075313299E+03 -0.16989023417E+03  0.33297772086E+02  0.21695120705E+03  0.10566000000E+00 0.  1.
<mgrwt>
<rscale>  1 0.68942974E+03</rscale>
<asrwt>0</asrwt>
<pdfrwt beam="2">  1       21 0.29437149E+00 0.10176336E+04</pdfrwt>
<pdfrwt beam="1">  1       -4 0.41115421E-01 0.10176336E+04</pdfrwt>
<totfact> 0.66016443E+00</totfact>
</mgrwt>
</event>
<event>
 6    2  0.2294477E-005  0.1420543E+04  0.7818608E-02  0.9021191E-01
         -4   -1    0    0    0  501 -0.00000000000E+00  0.00000000000E+00  0.13040733376E+04  0.13040733376E+04  0.00000000000E+00 0. -1.
         21   -1    0    0  501  502  0.00000000000E+00 -0.00000000000E+00 -0.11521027421E+04  0.11521027421E+04  0.00000000000E+00 0.  1.
   -9000010    2    1    2    0  502  0.99117159636E+03  0.27748409960E+03  0.13252700054E+03  0.14267118387E+04  0.97904274970E+03 0.  0.
         13    1    3    3    0    0  0.94043924927E+03  0.30094701349E+03  0.46368433813E+03  0.10908704153E+04  0.10566000000E+00 0. -1.
         -4    1    3    3    0  502  0.50732347091E+02 -0.23462913896E+02 -0.33115733759E+03  0.33584142331E+03  0.00000000000E+00 0. -1.
        -13    1    1    2    0    0 -0.99117159636E+03 -0.27748409960E+03  0.19443595005E+02  0.10294642410E+04  0.10566000000E+00 0.  1.
<mgrwt>
<rscale>  1 0.13106127E+04</rscale>
<asrwt>0</asrwt>
<pdfrwt beam="2">  1       21 0.17724658E+00 0.14205433E+04</pdfrwt>
<pdfrwt beam="1">  1       -4 0.20062667E+00 0.14205433E+04</pdfrwt>
<totfact> 0.79715204E-01</totfact>
</mgrwt>
</event>
<event>
 6    2  0.2294477E-005  0.1106082E+04  0.7818608E-02  0.9498252E-01
         21   -1    0    0  501  502  0.00000000000E+00  0.00000000000E+00  0.58707746298E+03  0.58707746298E+03  0.00000000000E+00 0.  1.
         -4   -1    0    0    0  501 -0.00000000000E+00 -0.00000000000E+00 -0.10109351851E+04  0.10109351851E+04  0.00000000000E+00 0. -1.
   -9000010    2    1    2    0  502 -0.32329859938E+03 -0.19041672035E+03 -0.11501668620E+03  0.11120462826E+04  0.10404987193E+04 0.  0.
         13    1    3    3    0    0  0.34688392441E+03 -0.15342286571E+03 -0.21096562715E+03  0.43402020660E+03  0.10566000000E+00 0. -1.
         -4    1    3    3    0  502 -0.67018252378E+03 -0.36993854645E+02  0.95948940950E+02  0.67802607600E+03  0.00000000000E+00 0. -1.
        -13    1    1    2    0    0  0.32329859938E+03  0.19041672035E+03 -0.30884103592E+03  0.48596636548E+03  0.10566000000E+00 0.  1.
<mgrwt>
<rscale>  1 0.84412820E+03</rscale>
<asrwt>0</asrwt>
<pdfrwt beam="1">  1       21 0.90319609E-01 0.11060823E+04</pdfrwt>
<pdfrwt beam="2">  1       -4 0.15552849E+00 0.11060823E+04</pdfrwt>
<totfact> 0.10461264E+01</totfact>
</mgrwt>
</event>
<event>
 6    2  0.2294477E-005  0.1037806E+04  0.7818608E-02  0.9622556E-01
         21   -1    0    0  501  502  0.00000000000E+00  0.00000000000E+00  0.72730824398E+03  0.72730824398E+03  0.00000000000E+00 0. -1.
         -4   -1    0    0    0  501 -0.00000000000E+00 -0.00000000000E+00 -0.63350416605E+03  0.63350416605E+03  0.00000000000E+00 0. -1.
   -9000010    2    1    2    0  502  0.22063477251E+02  0.29484822717E+03  0.17895622558E+03  0.10531223492E+04  0.99479599804E+03 0.  0.
         13    1    3    3    0    0 -0.62772249065E+02  0.46736024154E+03 -0.28494688477E+03  0.55096341887E+03  0.10566000000E+00 0. -1.
         -4    1    3    3    0  502  0.84835726316E+02 -0.17251201437E+03  0.46390311035E+03  0.50215893038E+03  0.00000000000E+00 0. -1.
        -13    1    1    2    0    0 -0.22063477251E+02 -0.29484822717E+03 -0.85152147644E+02  0.30769006079E+03  0.10566000000E+00 0.  1.
<mgrwt>
<rscale>  1 0.75821070E+03</rscale>
<asrwt>0</asrwt>
<pdfrwt beam="1">  1       21 0.11189358E+00 0.10378060E+04</pdfrwt>
<pdfrwt beam="2">  1       -4 0.97462180E-01 0.10378060E+04</pdfrwt>
<totfact> 0.20313227E+01</totfact>
</mgrwt>
</event>
<event>
 6    2  0.2294477E-005  0.1013806E+04  0.7818608E-02  0.9919723E-01
         -4   -1    0    0    0  501 -0.00000000000E+00  0.00000000000E+00  0.71860603538E+03  0.71860603538E+03  0.00000000000E+00 0. -1.
         21   -1    0    0  501  502  0.00000000000E+00 -0.00000000000E+00 -0.70575640609E+03  0.70575640609E+03  0.00000000000E+00 0. -1.
   -9000010    2    1    2    0  502 -0.20817123057E+01 -0.11877428770E+03 -0.32628916059E+03  0.10650202718E+04  0.10068226746E+04 0.  0.
         13    1    3    3    0    0  0.33710306723E+03  0.26835276500E+03 -0.34196585046E+03  0.55008393766E+03  0.10566000000E+00 0. -1.
         -4    1    3    3    0  502 -0.33918477953E+03 -0.38712705270E+03  0.15676689869E+02  0.51493633413E+03  0.00000000000E+00 0. -1.
        -13    1    1    2    0    0  0.20817123057E+01  0.11877428770E+03  0.33913878988E+03  0.35934216968E+03  0.10566000000E+00 0.  1.
<mgrwt>
<rscale>  1 0.59314875E+03</rscale>
<asrwt>0</asrwt>
<pdfrwt beam="2">  1       21 0.10857791E+00 0.10138065E+04</pdfrwt>
<pdfrwt beam="1">  1       -4 0.11055477E+00 0.10138065E+04</pdfrwt>
<totfact> 0.16169400E+01</totfact>
</mgrwt>
</event>
<event>
 6    2  0.2294477E-005  0.1115843E+04  0.7818608E-02  0.9344645E-01
         -4   -1    0    0    0  501 -0.00000000000E+00  0.00000000000E+00  0.89303302867E+03  0.89303302867E+03  0.00000000000E+00 0. -1.
         21   -1    0    0  501  502  0.00000000000E+00 -0.00000000000E+00 -0.11892839350E+04  0.11892839350E+04  0.00000000000E+00 0. -1.
   -9000010    2    1    2    0  502 -0.25455118887E+03  0.57770703190E+03 -0.71453669188E+03  0.13250160116E+04  0.92008859596E+03 0.  0.
         13    1    3    3    0    0 -0.11887369356E+03  0.62527919276E+03 -0.89251771548E+03  0.10962175457E+04  0.10566000000E+00 0. -1.
         -4    1    3    3    0  502 -0.13567749531E+03 -0.47572160858E+02  0.17798102359E+03  0.22879846586E+03  0.00000000000E+00 0. -1.
        -13    1    1    2    0    0  0.25455118887E+03 -0.57770703190E+03  0.41828578556E+03  0.75730095208E+03  0.10566000000E+00 0.  1.
<mgrwt>
<rscale>  1 0.96774611E+03</rscale>
<asrwt>0</asrwt>
<pdfrwt beam="2">  1       21 0.18296676E+00 0.11158426E+04</pdfrwt>
<pdfrwt beam="1">  1       -4 0.13738970E+00 0.11158426E+04</pdfrwt>
<totfact> 0.21929862E+00</totfact>
</mgrwt>
</event>
<event>
 6    2  0.2294477E-005  0.1133994E+04  0.7818608E-02  0.9382087E-01
         -4   -1    0    0    0  501 -0.00000000000E+00  0.00000000000E+00  0.83030420840E+03  0.83030420840E+03  0.00000000000E+00 0. -1.
         21   -1    0    0  501  502  0.00000000000E+00 -0.00000000000E+00 -0.11365273250E+04  0.11365273250E+04  0.00000000000E+00 0.  1.
   -9000010    2    1    2    0  502  0.22136978668E+03 -0.47665427459E+03  0.29155829073E+03  0.11708751891E+04  0.10048574982E+04 0.  0.
         13    1    3    3    0    0 -0.39116715756E+03 -0.77750797446E+02  0.15136297978E+03  0.42657671581E+03  0.10566000000E+00 0. -1.
         -4    1    3    3    0  502  0.61253694424E+03 -0.39890347714E+03  0.14019531095E+03  0.74429847329E+03  0.00000000000E+00 0. -1.
        -13    1    1    2    0    0 -0.22136978668E+03  0.47665427459E+03 -0.59778140737E+03  0.79595634435E+03  0.10566000000E+00 0.  1.
<mgrwt>
<rscale>  1 0.93564663E+03</rscale>
<asrwt>0</asrwt>
<pdfrwt beam="2">  1       21 0.17485036E+00 0.11339940E+04</pdfrwt>
<pdfrwt beam="1">  1       -4 0.12773911E+00 0.11339940E+04</pdfrwt>
<totfact> 0.30277067E+00</totfact>
</mgrwt>
</event>
<event>
 6    2  0.2294477E-005  0.1100372E+04  0.7818608E-02  0.9454522E-01
         21   -1    0    0  501  502  0.00000000000E+00  0.00000000000E+00  0.60241828364E+03  0.60241828364E+03  0.00000000000E+00 0. -1.
         -4   -1    0    0    0  501 -0.00000000000E+00 -0.00000000000E+00 -0.10173137185E+04  0.10173137185E+04  0.00000000000E+00 0. -1.
   -9000010    2    1    2    0  502 -0.36917306055E+03  0.24744534422E+03 -0.17347265585E+03  0.11139623743E+04  0.10066287608E+04 0.  0.
         13    1    3    3    0    0  0.29353552555E+03 -0.51853933376E+02 -0.24149119365E+03  0.38362734905E+03  0.10566000000E+00 0. -1.
         -4    1    3    3    0  502 -0.66270858610E+03  0.29929927760E+03  0.68018537799E+02  0.73033502528E+03  0.00000000000E+00 0. -1.
        -13    1    1    2    0    0  0.36917306055E+03 -0.24744534422E+03 -0.24142277898E+03  0.50576962779E+03  0.10566000000E+00 0.  1.
<mgrwt>
<rscale>  1 0.87721407E+03</rscale>
<asrwt>0</asrwt>
<pdfrwt beam="1">  1       21 0.92679736E-01 0.11003724E+04</pdfrwt>
<pdfrwt beam="2">  1       -4 0.15650980E+00 0.11003724E+04</pdfrwt>
<totfact> 0.96639498E+00</totfact>
</mgrwt>
</event>
<event>
 6    2  0.2294477E-005  0.9961324E+03  0.7818608E-02  0.1009955E+00
         -4   -1    0    0    0  501 -0.00000000000E+00  0.00000000000E+00  0.31256409774E+03  0.31256409774E+03  0.00000000000E+00 0. -1.
         21   -1    0    0  501  502  0.00000000000E+00 -0.00000000000E+00 -0.11723373232E+04  0.11723373232E+04  0.00000000000E+00 0. -1.
   -9000010    2    1    2    0  502 -0.71091339528E+02 -0.22233919068E+01 -0.94556995264E+03  0.13734563152E+04  0.99358985119E+03 0.  0.
         13    1    3    3    0    0 -0.17040725210E+03  0.79275254648E+02 -0.11317510526E+04  0.11472504756E+04  0.10566000000E+00 0. -1.
         -4    1    3    3    0  502  0.99315912568E+02 -0.81498646554E+02  0.18618109996E+03  0.22620583958E+03  0.00000000000E+00 0. -1.
        -13    1    1    2    0    0  0.71091339528E+02  0.22233919068E+01  0.85796727202E+02  0.11144510572E+03  0.10566000000E+00 0.  1.
<mgrwt>
<rscale>  1 0.51492640E+03</rscale>
<asrwt>0</asrwt>
<pdfrwt beam="2">  1       21 0.18035959E+00 0.99613238E+03</pdfrwt>
<pdfrwt beam="1">  1       -4 0.48086784E-01 0.99613238E+03</pdfrwt>
<totfact> 0.26635869E+01</totfact>
</mgrwt>
</event>
<event>
 6    2  0.2294477E-005  0.1007696E+04  0.7818608E-02  0.9993187E-01
         -4   -1    0    0    0  501 -0.00000000000E+00  0.00000000000E+00  0.67664099730E+03  0.67664099730E+03  0.00000000000E+00 0. -1.
         21   -1    0    0  501  502  0.00000000000E+00 -0.00000000000E+00 -0.63902959985E+03  0.63902959985E+03  0.00000000000E+00 0. -1.
   -9000010    2    1    2    0  502  0.34556135188E+02 -0.89313741742E+02 -0.22813310931E+03  0.10331971914E+04  0.10031354095E+04 0.  0.
         13    1    3    3    0    0  0.14219316367E+03  0.39311015872E+03 -0.32500038629E+03  0.52950897531E+03  0.10566000000E+00 0. -1.
         -4    1    3    3    0  502 -0.10763702849E+03 -0.48242390046E+03  0.96867276980E+02  0.50368821605E+03  0.00000000000E+00 0. -1.
        -13    1    1    2    0    0 -0.34556135188E+02  0.89313741742E+02  0.26574450676E+03  0.28247340580E+03  0.10566000000E+00 0.  1.
<mgrwt>
<rscale>  1 0.55949963E+03</rscale>
<asrwt>0</asrwt>
<pdfrwt beam="2">  1       21 0.98312246E-01 0.10076962E+04</pdfrwt>
<pdfrwt beam="1">  1       -4 0.10409861E+00 0.10076962E+04</pdfrwt>
<totfact> 0.24039731E+01</totfact>
</mgrwt>
</event>
<event>
 6    2  0.2294477E-005  0.8672248E+03  0.7818608E-02  0.9884923E-01
         21   -1    0    0  501  502  0.00000000000E+00  0.00000000000E+00  0.70082358745E+03  0.70082358745E+03  0.00000000000E+00 0. -1.
         -4   -1    0    0    0  501 -0.00000000000E+00 -0.00000000000E+00 -0.84325759797E+03  0.84325759797E+03  0.00000000000E+00 0. -1.
   -9000010    2    1    2    0  502 -0.13750723999E+03  0.16168891077E+03  0.40485701901E+03  0.95707264453E+03  0.84084915184E+03 0.  0.
         13    1    3    3    0    0 -0.14178115915E+03  0.49635627955E+03  0.33435737437E+03  0.61503359119E+03  0.10566000000E+00 0. -1.
         -4    1    3    3    0  502  0.42739191567E+01 -0.33466736878E+03  0.70499644643E+02  0.34203905334E+03  0.00000000000E+00 0. -1.
        -13    1    1    2    0    0  0.13750723999E+03 -0.16168891077E+03 -0.54729102952E+03  0.58700854089E+03  0.10566000000E+00 0.  1.
<mgrwt>
<rscale>  1 0.60997564E+03</rscale>
<asrwt>0</asrwt>
<pdfrwt beam="1">  1       21 0.10781901E+00 0.86722479E+03</pdfrwt>
<pdfrwt beam="2">  1       -4 0.12973194E+00 0.86722479E+03</pdfrwt>
<totfact> 0.11201917E+01</totfact>
</mgrwt>
</event>
<event>
 6    2  0.2294477E-005  0.1050242E+04  0.7818608E-02  0.9682154E-01
         21   -1    0    0  501  502  0.00000000000E+00  0.00000000000E+00  0.12345140165E+04  0.12345140165E+04  0.00000000000E+00 0. -1.
         -4   -1    0    0    0  501 -0.00000000000E+00 -0.00000000000E+00 -0.33921910757E+03  0.33921910757E+03  0.00000000000E+00 0. -1.
   -9000010    2    1    2    0  502  0.19440807355E+03  0.12868422741E+03  0.64897181161E+03  0.12345735615E+04  0.10240377615E+04 0.  0.
         13    1    3    3    0    0  0.15389934135E+03  0.55759079004E+03  0.19924658797E+03  0.61179384632E+03  0.10566000000E+00 0. -1.
         -4    1    3    3    0  502  0.40508732204E+02 -0.42890656264E+03  0.44972522365E+03  0.62277971518E+03  0.00000000000E+00 0. -1.
        -13    1    1    2    0    0 -0.19440807355E+03 -0.12868422741E+03  0.24632309730E+03  0.33915956256E+03  0.10566000000E+00 0.  1.
<mgrwt>
<rscale>  1 0.72089341E+03</rscale>
<asrwt>0</asrwt>
<pdfrwt beam="1">  1       21 0.18992523E+00 0.10502416E+04</pdfrwt>
<pdfrwt beam="2">  1       -4 0.52187556E-01 0.10502416E+04</pdfrwt>
<totfact> 0.19022850E+01</totfact>
</mgrwt>
</event>
<event>
 6    2  0.2294477E-005  0.1036077E+04  0.7818608E-02  0.9589976E-01
         21   -1    0    0  501  502  0.00000000000E+00  0.00000000000E+00  0.77368915420E+03  0.77368915420E+03  0.00000000000E+00 0. -1.
         -4   -1    0    0    0  501 -0.00000000000E+00 -0.00000000000E+00 -0.67608686956E+03  0.67608686956E+03  0.00000000000E+00 0. -1.
   -9000010    2    1    2    0  502  0.33105460556E+03 -0.27401959530E+02 -0.13416573544E+03  0.10447273285E+04  0.98138001155E+03 0.  0.
         13    1    3    3    0    0  0.22164252963E+03  0.43126051716E+03  0.13296811048E+03  0.50278382450E+03  0.10566000000E+00 0. -1.
         -4    1    3    3    0  502  0.10941207593E+03 -0.45866247669E+03 -0.26713384592E+03  0.54194350399E+03  0.00000000000E+00 0. -1.
        -13    1    1    2    0    0 -0.33105460556E+03  0.27401959530E+02  0.23176802008E+03  0.40504869528E+03  0.10566000000E+00 0.  1.
<mgrwt>
<rscale>  1 0.77963177E+03</rscale>
<asrwt>0</asrwt>
<pdfrwt beam="1">  1       21 0.11902910E+00 0.10360766E+04</pdfrwt>
<pdfrwt beam="2">  1       -4 0.10401337E+00 0.10360766E+04</pdfrwt>
<totfact> 0.14817089E+01</totfact>
</mgrwt>
</event>
<event>
 6    2  0.2294477E-005  0.1018546E+04  0.7818608E-02  0.9594298E-01
         -4   -1    0    0    0  501 -0.00000000000E+00  0.00000000000E+00  0.12435336917E+04  0.12435336917E+04  0.00000000000E+00 0. -1.
         21   -1    0    0  501  502  0.00000000000E+00 -0.00000000000E+00 -0.54767731086E+03  0.54767731086E+03  0.00000000000E+00 0. -1.
   -9000010    2    1    2    0  502  0.32428186645E+03 -0.11625223801E+03  0.42464923256E+01  0.10185548301E+04  0.95852104698E+03 0.  0.
         13    1    3    3    0    0  0.34946182905E+03  0.13158911018E+03 -0.39778755007E+03  0.54559528043E+03  0.10566000000E+00 0. -1.
         -4    1    3    3    0  502 -0.25179962601E+02 -0.24784134819E+03  0.40203404239E+03  0.47295954968E+03  0.00000000000E+00 0. -1.
        -13    1    1    2    0    0 -0.32428186645E+03  0.11625223801E+03  0.69160988849E+03  0.77265617241E+03  0.10566000000E+00 0.  1.
<mgrwt>
<rscale>  1 0.77674706E+03</rscale>
<asrwt>0</asrwt>
<pdfrwt beam="2">  1       21 0.84258048E-01 0.10185460E+04</pdfrwt>
<pdfrwt beam="1">  1       -4 0.19131288E+00 0.10185460E+04</pdfrwt>
<totfact> 0.69237168E+00</totfact>
</mgrwt>
</event>
<event>
 6    2  0.2294477E-005  0.1036253E+04  0.7818608E-02  0.9699022E-01
         -4   -1    0    0    0  501 -0.00000000000E+00  0.00000000000E+00  0.16344791162E+04  0.16344791162E+04  0.00000000000E+00 0. -1.
         21   -1    0    0  501  502  0.00000000000E+00 -0.00000000000E+00 -0.26088614819E+03  0.26088614819E+03  0.00000000000E+00 0. -1.
   -9000010    2    1    2    0  502  0.19059131614E+03 -0.12755276980E+03  0.91405519223E+03  0.13817800841E+04  0.10105565534E+04 0.  0.
         13    1    3    3    0    0  0.46773865789E+03 -0.30911259127E+03  0.88702890194E+03  0.10493571033E+04  0.10566000000E+00 0. -1.
         -4    1    3    3    0  502 -0.27714734175E+03  0.18155982147E+03  0.27026290283E+02  0.33242298082E+03  0.00000000000E+00 0. -1.
        -13    1    1    2    0    0 -0.19059131614E+03  0.12755276980E+03  0.45953777578E+03  0.51358518028E+03  0.10566000000E+00 0.  1.
<mgrwt>
<rscale>  1 0.71075025E+03</rscale>
<asrwt>0</asrwt>
<pdfrwt beam="2">  1       21 0.40136332E-01 0.10362525E+04</pdfrwt>
<pdfrwt beam="1">  1       -4 0.25145832E+00 0.10362525E+04</pdfrwt>
<totfact> 0.14808734E+01</totfact>
</mgrwt>
</event>
<event>
 6    2  0.2294477E-005  0.1008839E+04  0.7818608E-02  0.9817108E-01
         21   -1    0    0  501  502  0.00000000000E+00  0.00000000000E+00  0.20584794564E+03  0.20584794564E+03  0.00000000000E+00 0. -1.
         -4   -1    0    0    0  501 -0.00000000000E+00 -0.00000000000E+00 -0.22028650958E+04  0.22028650958E+04  0.00000000000E+00 0. -1.
   -9000010    2    1    2    0  502 -0.56985300942E+02 -0.15811492636E+03 -0.10858298935E+04  0.14821549579E+04  0.99474072347E+03 0.  0.
         13    1    3    3    0    0 -0.51932854714E+03 -0.12660538843E+03 -0.68907829312E+03  0.87210089409E+03  0.10566000000E+00 0. -1.
         -4    1    3    3    0  502  0.46234324620E+03 -0.31509537932E+02 -0.39675160041E+03  0.61005406377E+03  0.00000000000E+00 0. -1.
        -13    1    1    2    0    0  0.56985300942E+02  0.15811492636E+03 -0.91118725663E+03  0.92655808359E+03  0.10566000000E+00 0.  1.
<mgrwt>
<rscale>  1 0.64452433E+03</rscale>
<asrwt>0</asrwt>
<pdfrwt beam="1">  1       21 0.31668914E-01 0.10088393E+04</pdfrwt>
<pdfrwt beam="2">  1       -4 0.33890232E+00 0.10088393E+04</pdfrwt>
<totfact> 0.69244802E+00</totfact>
</mgrwt>
</event>
<event>
 6    2  0.2294477E-005  0.1000387E+04  0.7818608E-02  0.9889991E-01
         21   -1    0    0  501  502  0.00000000000E+00  0.00000000000E+00  0.58559763683E+03  0.58559763683E+03  0.00000000000E+00 0. -1.
         -4   -1    0    0    0  501 -0.00000000000E+00 -0.00000000000E+00 -0.80500414883E+03  0.80500414883E+03  0.00000000000E+00 0. -1.
   -9000010    2    1    2    0  502 -0.13532517163E+03  0.13868806472E+02  0.13643197581E+03  0.10096473442E+04  0.99109476329E+03 0.  0.
         13    1    3    3    0    0  0.33381948120E+03 -0.25587664067E+03 -0.77584241746E+02  0.42770039397E+03  0.10566000000E+00 0. -1.
         -4    1    3    3    0  502 -0.46914465283E+03  0.26974544714E+03  0.21401621756E+03  0.58194695026E+03  0.00000000000E+00 0. -1.
        -13    1    1    2    0    0  0.13532517163E+03 -0.13868806472E+02 -0.35583848782E+03  0.38095444143E+03  0.10566000000E+00 0.  1.
<mgrwt>
<rscale>  1 0.60748829E+03</rscale>
<asrwt>0</asrwt>
<pdfrwt beam="1">  1       21 0.90091944E-01 0.10003870E+04</pdfrwt>
<pdfrwt beam="2">  1       -4 0.12384679E+00 0.10003870E+04</pdfrwt>
<totfact> 0.19343367E+01</totfact>
</mgrwt>
</event>
<event>
 6    2  0.2294477E-005  0.9699303E+03  0.7818608E-02  0.9804938E-01
         21   -1    0    0  501  502  0.00000000000E+00  0.00000000000E+00  0.31365927243E+03  0.31365927243E+03  0.00000000000E+00 0. -1.
         -4   -1    0    0    0  501 -0.00000000000E+00 -0.00000000000E+00 -0.12586333942E+04  0.12586333942E+04  0.00000000000E+00 0. -1.
   -9000010    2    1    2    0  502 -0.11946951578E+03  0.15640506529E+03 -0.97256716859E+03  0.13735544040E+04  0.94975222748E+03 0.  0.
         13    1    3    3    0    0  0.22231227160E+03  0.54471697428E+02  0.95124153428E+02  0.24786796416E+03  0.10566000000E+00 0. -1.
         -4    1    3    3    0  502 -0.34178178738E+03  0.10193336787E+03 -0.10676913220E+04  0.11256864398E+04  0.00000000000E+00 0. -1.
        -13    1    1    2    0    0  0.11946951578E+03 -0.15640506529E+03  0.27593046810E+02  0.19873826266E+03  0.10566000000E+00 0.  1.
<mgrwt>
<rscale>  1 0.65098222E+03</rscale>
<asrwt>0</asrwt>
<pdfrwt beam="1">  1       21 0.48255272E-01 0.96993031E+03</pdfrwt>
<pdfrwt beam="2">  1       -4 0.19363591E+00 0.96993031E+03</pdfrwt>
<totfact> 0.23613541E+01</totfact>
</mgrwt>
</event>
<event>
 6    2  0.2294477E-005  0.1029874E+04  0.7818608E-02  0.9693221E-01
         21   -1    0    0  501  502  0.00000000000E+00  0.00000000000E+00  0.14389212711E+04  0.14389212711E+04  0.00000000000E+00 0. -1.
         -4   -1    0    0    0  501 -0.00000000000E+00 -0.00000000000E+00 -0.29527591373E+03  0.29527591373E+03  0.00000000000E+00 0. -1.
   -9000010    2    1    2    0  502  0.18218887908E+03  0.15347433554E+03  0.10694112909E+04  0.14846819205E+04  0.10019444778E+04 0.  0.
         13    1    3    3    0    0 -0.17324431602E+03  0.42867900730E+03  0.88559605122E+03  0.99902935964E+03  0.10566000000E+00 0. -1.
         -4    1    3    3    0  502  0.35543319509E+03 -0.27520467176E+03  0.18381523971E+03  0.48565256087E+03  0.00000000000E+00 0. -1.
        -13    1    1    2    0    0 -0.18218887908E+03 -0.15347433554E+03  0.74234066392E+02  0.24951526427E+03  0.10566000000E+00 0.  1.
<mgrwt>
<rscale>  1 0.71421836E+03</rscale>
<asrwt>0</asrwt>
<pdfrwt beam="1">  1       21 0.22137250E+00 0.10298737E+04</pdfrwt>
<pdfrwt beam="2">  1       -4 0.45427064E-01 0.10298737E+04</pdfrwt>
<totfact> 0.15591189E+01</totfact>
</mgrwt>
</event>
<event>
 6    2  0.2294477E-005  0.1069666E+04  0.7818608E-02  0.9641846E-01
         21   -1    0    0  501  502  0.00000000000E+00  0.00000000000E+00  0.30508483212E+03  0.30508483212E+03  0.00000000000E+00 0. -1.
         -4   -1    0    0    0  501 -0.00000000000E+00 -0.00000000000E+00 -0.17417750779E+04  0.17417750779E+04  0.00000000000E+00 0. -1.
   -9000010    2    1    2    0  502 -0.19882801783E+03 -0.15625703849E+03 -0.72666672036E+03  0.12931475905E+04  0.10393446616E+04 0.  0.
         13    1    3    3    0    0 -0.18920441631E+03  0.12079398384E+02 -0.97484543091E+03  0.99311018942E+03  0.10566000000E+00 0. -1.
         -4    1    3    3    0  502 -0.96236015213E+01 -0.16833643688E+03  0.24817871054E+03  0.30003740109E+03  0.00000000000E+00 0. -1.
        -13    1    1    2    0    0  0.19882801783E+03  0.15625703849E+03 -0.71002352544E+03  0.75371231952E+03  0.10566000000E+00 0.  1.
<mgrwt>
<rscale>  1 0.74587381E+03</rscale>
<asrwt>0</asrwt>
<pdfrwt beam="1">  1       21 0.46936129E-01 0.10696664E+04</pdfrwt>
<pdfrwt beam="2">  1       -4 0.26796539E+00 0.10696664E+04</pdfrwt>
<totfact> 0.83714104E+00</totfact>
</mgrwt>
</event>
<event>
 6    2  0.2294477E-005  0.1085421E+04  0.7818608E-02  0.9503982E-01
         21   -1    0    0  501  502  0.00000000000E+00  0.00000000000E+00  0.10174541064E+04  0.10174541064E+04  0.00000000000E+00 0.  1.
         -4   -1    0    0    0  501 -0.00000000000E+00 -0.00000000000E+00 -0.56177643750E+03  0.56177643750E+03  0.00000000000E+00 0. -1.
   -9000010    2    1    2    0  502 -0.34386940927E+03  0.18221663693E+03  0.17506862340E+03  0.10994488008E+04  0.10132569118E+04 0.  0.
         13    1    3    3    0    0  0.58384609911E+01 -0.39034324991E+03  0.17675298718E+03  0.42853654455E+03  0.10566000000E+00 0. -1.
         -4    1    3    3    0  502 -0.34970787026E+03  0.57255988684E+03 -0.16843637810E+01  0.67091225627E+03  0.00000000000E+00 0. -1.
        -13    1    1    2    0    0  0.34386940927E+03 -0.18221663693E+03  0.28060904547E+03  0.47978174305E+03  0.10566000000E+00 0.  1.
<mgrwt>
<rscale>  1 0.83990862E+03</rscale>
<asrwt>0</asrwt>
<pdfrwt beam="1">  1       21 0.15653140E+00 0.10854210E+04</pdfrwt>
<pdfrwt beam="2">  1       -4 0.86427144E-01 0.10854210E+04</pdfrwt>
<totfact> 0.10917494E+01</totfact>
</mgrwt>
</event>
<event>
 6    2  0.2294477E-005  0.1121978E+04  0.7818608E-02  0.9399311E-01
         21   -1    0    0  501  502  0.00000000000E+00  0.00000000000E+00  0.14143665800E+04  0.14143665800E+04  0.00000000000E+00 0. -1.
         -4   -1    0    0    0  501 -0.00000000000E+00 -0.00000000000E+00 -0.51247846661E+03  0.51247846661E+03  0.00000000000E+00 0. -1.
   -9000010    2    1    2    0  502 -0.71493938797E+02  0.50511395322E+03  0.86249238336E+03  0.14151776510E+04  0.99929134062E+03 0.  0.
         13    1    3    3    0    0  0.39512093665E+03  0.10195620316E+03  0.64116389809E+03  0.76000445875E+03  0.10566000000E+00 0. -1.
         -4    1    3    3    0  502 -0.46661487545E+03  0.40315775006E+03  0.22132848527E+03  0.65517319223E+03  0.00000000000E+00 0. -1.
        -13    1    1    2    0    0  0.71493938797E+02 -0.50511395322E+03  0.39395729991E+02  0.51166739561E+03  0.10566000000E+00 0.  1.
<mgrwt>
<rscale>  1 0.92132407E+03</rscale>
<asrwt>0</asrwt>
<pdfrwt beam="1">  1       21 0.21759486E+00 0.11219780E+04</pdfrwt>
<pdfrwt beam="2">  1       -4 0.78842842E-01 0.11219780E+04</pdfrwt>
<totfact> 0.49001954E+00</totfact>
</mgrwt>
</event>
<event>
 6    2  0.2294477E-005  0.1001347E+04  0.7818608E-02  0.9868012E-01
         21   -1    0    0  501  502  0.00000000000E+00  0.00000000000E+00  0.52678684982E+03  0.52678684982E+03  0.00000000000E+00 0. -1.
         -4   -1    0    0    0  501 -0.00000000000E+00 -0.00000000000E+00 -0.91662490366E+03  0.91662490366E+03  0.00000000000E+00 0. -1.
   -9000010    2    1    2    0  502  0.14556088573E+03  0.43356934379E+01  0.27161779550E+02  0.10017154303E+04  0.99070140373E+03 0.  0.
         13    1    3    3    0    0  0.14573887593E+03 -0.26884869607E+03 -0.39458831404E+03  0.49921877977E+03  0.10566000000E+00 0. -1.
         -4    1    3    3    0  502 -0.17799019772E+00  0.27318438950E+03  0.42175009359E+03  0.50249665053E+03  0.00000000000E+00 0. -1.
        -13    1    1    2    0    0 -0.14556088573E+03 -0.43356934379E+01 -0.41699983339E+03  0.44169632317E+03  0.10566000000E+00 0.  1.
<mgrwt>
<rscale>  1 0.61836917E+03</rscale>
<asrwt>0</asrwt>
<pdfrwt beam="1">  1       21 0.81044132E-01 0.10013471E+04</pdfrwt>
<pdfrwt beam="2">  1       -4 0.14101921E+00 0.10013471E+04</pdfrwt>
<totfact> 0.17806147E+01</totfact>
</mgrwt>
</event>
<event>
 6    2  0.2294477E-005  0.9200204E+03  0.7818608E-02  0.9771032E-01
         -4   -1    0    0    0  501 -0.00000000000E+00  0.00000000000E+00  0.59952781786E+03  0.59952781786E+03  0.00000000000E+00 0. -1.
         21   -1    0    0  501  502  0.00000000000E+00 -0.00000000000E+00 -0.11340158701E+04  0.11340158701E+04  0.00000000000E+00 0. -1.
   -9000010    2    1    2    0  502 -0.40371491930E+02 -0.25466895030E+03 -0.89947779343E+03  0.12866615402E+04  0.88314862087E+03 0.  0.
         13    1    3    3    0    0 -0.29541943796E+03 -0.12311232665E+03  0.22712036924E+02  0.32085064607E+03  0.10566000000E+00 0. -1.
         -4    1    3    3    0  502  0.25504794603E+03 -0.13155662365E+03 -0.92218983035E+03  0.96581089412E+03  0.00000000000E+00 0. -1.
        -13    1    1    2    0    0  0.40371491930E+02  0.25466895030E+03  0.36498974122E+03  0.44688214773E+03  0.10566000000E+00 0.  1.
<mgrwt>
<rscale>  1 0.66940585E+03</rscale>
<asrwt>0</asrwt>
<pdfrwt beam="2">  1       21 0.17446398E+00 0.92002044E+03</pdfrwt>
<pdfrwt beam="1">  1       -4 0.92235049E-01 0.92002044E+03</pdfrwt>
<totfact> 0.69896407E+00</totfact>
</mgrwt>
</event>
<event>
 6    2  0.2294477E-005  0.1069853E+04  0.7818608E-02  0.9489696E-01
         21   -1    0    0  501  502  0.00000000000E+00  0.00000000000E+00  0.23870904106E+03  0.23870904106E+03  0.00000000000E+00 0. -1.
         -4   -1    0    0    0  501 -0.00000000000E+00 -0.00000000000E+00 -0.27338693114E+04  0.27338693114E+04  0.00000000000E+00 0. -1.
   -9000010    2    1    2    0  502  0.42423239020E+03  0.50667202638E+02 -0.11945990375E+04  0.16036372223E+04  0.98083902554E+03 0.  0.
         13    1    3    3    0    0  0.67117791318E+03  0.28519570033E+03 -0.81978592878E+03  0.10972079834E+04  0.10566000000E+00 0. -1.
         -4    1    3    3    0  502 -0.24694552298E+03 -0.23452849769E+03 -0.37481310869E+03  0.50642923888E+03  0.00000000000E+00 0. -1.
        -13    1    1    2    0    0 -0.42423239020E+03 -0.50667202638E+02 -0.13005612329E+04  0.13689411302E+04  0.10566000000E+00 0.  1.
<mgrwt>
<rscale>  1 0.85047770E+03</rscale>
<asrwt>0</asrwt>
<pdfrwt beam="1">  1       21 0.36724469E-01 0.10698530E+04</pdfrwt>
<pdfrwt beam="2">  1       -4 0.42059527E+00 0.10698530E+04</pdfrwt>
<totfact> 0.14243463E+00</totfact>
</mgrwt>
</event>
<event>
 6    2  0.2294477E-005  0.1641164E+04  0.7818608E-02  0.8851551E-01
         21   -1    0    0  501  502  0.00000000000E+00  0.00000000000E+00  0.84528842443E+03  0.84528842443E+03  0.00000000000E+00 0.  1.
         -4   -1    0    0    0  501 -0.00000000000E+00 -0.00000000000E+00 -0.26283298707E+04  0.26283298707E+04  0.00000000000E+00 0. -1.
   -9000010    2    1    2    0  502 -0.10117935894E+04  0.82807904207E+03 -0.73626730063E+03  0.17987519450E+04  0.99195657883E+03 0.  0.
         13    1    3    3    0    0 -0.55896469160E+03  0.99735200971E+03 -0.40591661499E+03  0.12132274590E+04  0.10566000000E+00 0. -1.
         -4    1    3    3    0  502 -0.45282889782E+03 -0.16927296764E+03 -0.33035068564E+03  0.58552448606E+03  0.00000000000E+00 0. -1.
        -13    1    1    2    0    0  0.10117935894E+04 -0.82807904207E+03 -0.10467741456E+04  0.16748663501E+04  0.10566000000E+00 0.  1.
<mgrwt>
<rscale>  1 0.15504963E+04</rscale>
<asrwt>0</asrwt>
<pdfrwt beam="1">  1       21 0.13004437E+00 0.16411639E+04</pdfrwt>
<pdfrwt beam="2">  1       -4 0.40435845E+00 0.16411639E+04</pdfrwt>
<totfact> 0.90130522E-02</totfact>
</mgrwt>
</event>
<event>
 6    2  0.2294477E-005  0.1018846E+04  0.7818608E-02  0.1053206E+00
         -4   -1    0    0    0  501 -0.00000000000E+00  0.00000000000E+00  0.13819695942E+04  0.13819695942E+04  0.00000000000E+00 0. -1.
         21   -1    0    0  501  502  0.00000000000E+00 -0.00000000000E+00 -0.19748358111E+03  0.19748358111E+03  0.00000000000E+00 0. -1.
   -9000010    2    1    2    0  502 -0.11630919722E+02 -0.14363590621E+02  0.11279523627E+04  0.15199749791E+04  0.10186784643E+04 0.  0.
         13    1    3    3    0    0 -0.50191058623E+03 -0.12267727388E+03  0.56387260511E+03  0.76479819302E+03  0.10566000000E+00 0. -1.
         -4    1    3    3    0  502  0.49027966651E+03  0.10831368326E+03  0.56407975757E+03  0.75517678610E+03  0.00000000000E+00 0. -1.
        -13    1    1    2    0    0  0.11630919722E+02  0.14363590621E+02  0.56533650445E+02  0.59478196222E+02  0.10566000000E+00 0.  1.
<mgrwt>
<rscale>  1 0.37391383E+03</rscale>
<asrwt>0</asrwt>
<pdfrwt beam="2">  1       21 0.30382090E-01 0.10188461E+04</pdfrwt>
<pdfrwt beam="1">  1       -4 0.21261070E+00 0.10188461E+04</pdfrwt>
<totfact> 0.46210473E+01</totfact>
</mgrwt>
</event>
<event>
 6    2  0.2294477E-005  0.1017017E+04  0.7818608E-02  0.9618840E-01
         21   -1    0    0  501  502  0.00000000000E+00  0.00000000000E+00  0.32703477262E+03  0.32703477262E+03  0.00000000000E+00 0. -1.
         -4   -1    0    0    0  501 -0.00000000000E+00 -0.00000000000E+00 -0.13653847381E+04  0.13653847381E+04  0.00000000000E+00 0. -1.
   -9000010    2    1    2    0  502 -0.68047558285E+02  0.31082248524E+03 -0.82164102403E+03  0.13074469611E+04  0.96596195378E+03 0.  0.
         13    1    3    3    0    0  0.14535252903E+03  0.55648627176E+03 -0.79460390981E+03  0.98091779115E+03  0.10566000000E+00 0. -1.
         -4    1    3    3    0  502 -0.21340008731E+03 -0.24566378652E+03 -0.27037114227E+02  0.32652916993E+03  0.00000000000E+00 0. -1.
        -13    1    1    2    0    0  0.68047558285E+02 -0.31082248524E+03 -0.21670894145E+03  0.38497254965E+03  0.10566000000E+00 0.  1.
<mgrwt>
<rscale>  1 0.76061664E+03</rscale>
<asrwt>0</asrwt>
<pdfrwt beam="1">  1       21 0.50313042E-01 0.10170170E+04</pdfrwt>
<pdfrwt beam="2">  1       -4 0.21005919E+00 0.10170170E+04</pdfrwt>
<totfact> 0.16734745E+01</totfact>
</mgrwt>
</event>
<event>
 6    2  0.2294477E-005  0.1153454E+04  0.7818608E-02  0.9351861E-01
         -4   -1    0    0    0  501 -0.00000000000E+00  0.00000000000E+00  0.96246396796E+03  0.96246396796E+03  0.00000000000E+00 0. -1.
         21   -1    0    0  501  502  0.00000000000E+00 -0.00000000000E+00 -0.77308005321E+03  0.77308005321E+03  0.00000000000E+00 0. -1.
   -9000010    2    1    2    0  502 -0.53828336538E+03 -0.14247343691E+03  0.20351211497E+02  0.11536336092E+04  0.10101527957E+04 0.  0.
         13    1    3    3    0    0 -0.83405246865E+03 -0.52744652204E+02  0.77536464514E+02  0.83930771073E+03  0.10566000000E+00 0. -1.
         -4    1    3    3    0  502  0.29576910328E+03 -0.89728784709E+02 -0.57185253017E+02  0.31432589843E+03  0.00000000000E+00 0. -1.
        -13    1    1    2    0    0  0.53828336538E+03  0.14247343691E+03  0.16903270325E+03  0.58191041201E+03  0.10566000000E+00 0.  1.
<mgrwt>
<rscale>  1 0.96145463E+03</rscale>
<asrwt>0</asrwt>
<pdfrwt beam="2">  1       21 0.11893539E+00 0.11534541E+04</pdfrwt>
<pdfrwt beam="1">  1       -4 0.14807138E+00 0.11534541E+04</pdfrwt>
<totfact> 0.59643557E+00</totfact>
</mgrwt>
</event>
<event>
 6    2  0.2294477E-005  0.8398449E+03  0.7818608E-02  0.9728412E-01
         21   -1    0    0  501  502  0.00000000000E+00  0.00000000000E+00  0.66842017243E+03  0.66842017243E+03  0.00000000000E+00 0. -1.
         -4   -1    0    0    0  501 -0.00000000000E+00 -0.00000000000E+00 -0.56883786937E+03  0.56883786937E+03  0.00000000000E+00 0. -1.
   -9000010    2    1    2    0  502 -0.15571869728E+03 -0.35807815121E+03  0.28221191577E+02  0.84031888469E+03  0.74355303594E+03 0.  0.
         13    1    3    3    0    0 -0.39571087670E+03 -0.13632990099E+03 -0.17704208864E+03  0.45444125270E+03  0.10566000000E+00 0. -1.
         -4    1    3    3    0  502  0.23999217943E+03 -0.22174825022E+03  0.20526328022E+03  0.38587763199E+03  0.00000000000E+00 0. -1.
        -13    1    1    2    0    0  0.15571869728E+03  0.35807815121E+03  0.71361111482E+02  0.39693915712E+03  0.10566000000E+00 0.  1.
<mgrwt>
<rscale>  1 0.69350053E+03</rscale>
<asrwt>0</asrwt>
<pdfrwt beam="1">  1       21 0.10283387E+00 0.83984486E+03</pdfrwt>
<pdfrwt beam="2">  1       -4 0.87513519E-01 0.83984486E+03</pdfrwt>
<totfact> 0.33067709E+01</totfact>
</mgrwt>
</event>
<event>
 6    2  0.2294477E-005  0.1005663E+04  0.7818608E-02  0.9786884E-01
         21   -1    0    0  501  502  0.00000000000E+00  0.00000000000E+00  0.55209547583E+03  0.55209547583E+03  0.00000000000E+00 0. -1.
         -4   -1    0    0    0  501 -0.00000000000E+00 -0.00000000000E+00 -0.75359571641E+03  0.75359571641E+03  0.00000000000E+00 0. -1.
   -9000010    2    1    2    0  502  0.12437200114E+03 -0.14013415212E+03  0.32171522691E+02  0.10061774540E+04  0.98805469833E+03 0.  0.
         13    1    3    3    0    0  0.50298358184E+01 -0.22984235465E+03 -0.44788425236E+03  0.50344127951E+03  0.10566000000E+00 0. -1.
         -4    1    3    3    0  502  0.11934216532E+03  0.89708202528E+02  0.48005577505E+03  0.50273617453E+03  0.00000000000E+00 0. -1.
        -13    1    1    2    0    0 -0.12437200114E+03  0.14013415212E+03 -0.23367176327E+03  0.29951373820E+03  0.10566000000E+00 0.  1.
<mgrwt>
<rscale>  1 0.66071170E+03</rscale>
<asrwt>0</asrwt>
<pdfrwt beam="1">  1       21 0.84937766E-01 0.10056630E+04</pdfrwt>
<pdfrwt beam="2">  1       -4 0.11593780E+00 0.10056630E+04</pdfrwt>
<totfact> 0.26290618E+01</totfact>
</mgrwt>
</event>
<event>
 6    2  0.2294477E-005  0.7523853E+03  0.7818608E-02  0.1030826E+00
         -4   -1    0    0    0  501 -0.00000000000E+00  0.00000000000E+00  0.92017762317E+03  0.92017762317E+03  0.00000000000E+00 0. -1.
         21   -1    0    0  501  502  0.00000000000E+00 -0.00000000000E+00 -0.26999969605E+03  0.26999969605E+03  0.00000000000E+00 0. -1.
   -9000010    2    1    2    0  502  0.13538308798E+02  0.86745749091E+02  0.26901289706E+03  0.79903169149E+03  0.74724533751E+03 0.  0.
         13    1    3    3    0    0  0.13811996897E+03 -0.30685233321E+03  0.15658740759E+03  0.37115375197E+03  0.10566000000E+00 0. -1.
         -4    1    3    3    0  502 -0.12458166017E+03  0.39359808230E+03  0.11242548946E+03  0.42787793951E+03  0.00000000000E+00 0. -1.
        -13    1    1    2    0    0 -0.13538308798E+02 -0.86745749091E+02  0.38116503006E+03  0.39114562774E+03  0.10566000000E+00 0.  1.
<mgrwt>
<rscale>  1 0.43974288E+03</rscale>
<asrwt>0</asrwt>
<pdfrwt beam="2">  1       21 0.41538415E-01 0.75238534E+03</pdfrwt>
<pdfrwt beam="1">  1       -4 0.14156579E+00 0.75238534E+03</pdfrwt>
<totfact> 0.79356935E+01</totfact>
</mgrwt>
</event>
<event>
 6    2  0.2294477E-005  0.1269221E+04  0.7818608E-02  0.9174144E-01
         -4   -1    0    0    0  501 -0.00000000000E+00  0.00000000000E+00  0.11093756726E+04  0.11093756726E+04  0.00000000000E+00 0. -1.
         21   -1    0    0  501  502  0.00000000000E+00 -0.00000000000E+00 -0.10312560779E+04  0.10312560779E+04  0.00000000000E+00 0.  1.
   -9000010    2    1    2    0  502  0.71450022625E+03 -0.36939252000E+03  0.30411586340E+03  0.13051464235E+04  0.98181430074E+03 0.  0.
         13    1    3    3    0    0 -0.64455216990E+02 -0.42302944282E+03  0.30303478996E+03  0.52434576339E+03  0.10566000000E+00 0. -1.
         -4    1    3    3    0  502  0.77895544324E+03  0.53636922821E+02  0.10810734359E+01  0.78080066007E+03  0.00000000000E+00 0. -1.
        -13    1    1    2    0    0 -0.71450022625E+03  0.36939252000E+03 -0.22599626863E+03  0.83548532706E+03  0.10566000000E+00 0.  1.
<mgrwt>
<rscale>  1 0.11324334E+04</rscale>
<asrwt>0</asrwt>
<pdfrwt beam="2">  1       21 0.15865478E+00 0.12692205E+04</pdfrwt>
<pdfrwt beam="1">  1       -4 0.17067318E+00 0.12692205E+04</pdfrwt>
<totfact> 0.18139060E+00</totfact>
</mgrwt>
</event>
<event>
 6    2  0.2294477E-005  0.1015896E+04  0.7818608E-02  0.9922827E-01
         -4   -1    0    0    0  501 -0.00000000000E+00  0.00000000000E+00  0.93410751664E+03  0.93410751664E+03  0.00000000000E+00 0. -1.
         21   -1    0    0  501  502  0.00000000000E+00 -0.00000000000E+00 -0.36581902002E+03  0.36581902002E+03  0.00000000000E+00 0. -1.
   -9000010    2    1    2    0  502  0.31541197250E+02 -0.11255712157E+03  0.39305489191E+03  0.10892828087E+04  0.10091486197E+04 0.  0.
         13    1    3    3    0    0  0.80475315618E+01 -0.50769139176E+03  0.46319070159E+03  0.68728520225E+03  0.10566000000E+00 0. -1.
         -4    1    3    3    0  502  0.23493665688E+02  0.39513427019E+03 -0.70135809683E+02  0.40199760646E+03  0.00000000000E+00 0. -1.
        -13    1    1    2    0    0 -0.31541197250E+02  0.11255712157E+03  0.17523360471E+03  0.21064372794E+03  0.10566000000E+00 0.  1.
<mgrwt>
<rscale>  1 0.59167614E+03</rscale>
<asrwt>0</asrwt>
<pdfrwt beam="2">  1       21 0.56279850E-01 0.10158961E+04</pdfrwt>
<pdfrwt beam="1">  1       -4 0.14370885E+00 0.10158961E+04</pdfrwt>
<totfact> 0.38826403E+01</totfact>
</mgrwt>
</event>
<event>
 6    2  0.2294477E-005  0.1096750E+04  0.7818608E-02  0.9453399E-01
         -4   -1    0    0    0  501 -0.00000000000E+00  0.00000000000E+00  0.10277228948E+04  0.10277228948E+04  0.00000000000E+00 0. -1.
         21   -1    0    0  501  502  0.00000000000E+00 -0.00000000000E+00 -0.69261961596E+03  0.69261961596E+03  0.00000000000E+00 0. -1.
   -9000010    2    1    2    0  502  0.35052890738E+03  0.28319537177E+03 -0.90525156076E+02  0.11004798572E+04  0.99989548390E+03 0.  0.
         13    1    3    3    0    0 -0.15127394383E+03  0.33933512655E+03 -0.36917844437E+03  0.52376031650E+03  0.10566000000E+00 0. -1.
         -4    1    3    3    0  502  0.50180285120E+03 -0.56139754774E+02  0.27865328830E+03  0.57671954070E+03  0.00000000000E+00 0. -1.
        -13    1    1    2    0    0 -0.35052890738E+03 -0.28319537177E+03  0.42562843489E+03  0.61986265354E+03  0.10566000000E+00 0.  1.
<mgrwt>
<rscale>  1 0.87808502E+03</rscale>
<asrwt>0</asrwt>
<pdfrwt beam="2">  1       21 0.10655686E+00 0.10967503E+04</pdfrwt>
<pdfrwt beam="1">  1       -4 0.15811122E+00 0.10967503E+04</pdfrwt>
<totfact> 0.66506503E+00</totfact>
</mgrwt>
</event>
<event>
 6    2  0.2294477E-005  0.1061398E+04  0.7818608E-02  0.9649006E-01
         21   -1    0    0  501  502  0.00000000000E+00  0.00000000000E+00  0.45635486090E+03  0.45635486090E+03  0.00000000000E+00 0. -1.
         -4   -1    0    0    0  501 -0.00000000000E+00 -0.00000000000E+00 -0.13994301501E+04  0.13994301501E+04  0.00000000000E+00 0. -1.
   -9000010    2    1    2    0  502 -0.14964577166E+03 -0.20353471373E+03 -0.21209412672E+03  0.10823810365E+04  0.10308950252E+04 0.  0.
         13    1    3    3    0    0 -0.57204796028E+03 -0.27072693830E+03 -0.10580694230E+03  0.64165961707E+03  0.10566000000E+00 0. -1.
         -4    1    3    3    0  502  0.42240218862E+03  0.67192224563E+02 -0.10628718441E+03  0.44072141945E+03  0.00000000000E+00 0. -1.
        -13    1    1    2    0    0  0.14964577166E+03  0.20353471373E+03 -0.73098116252E+03  0.77340397451E+03  0.10566000000E+00 0.  1.
<mgrwt>
<rscale>  1 0.74135868E+03</rscale>
<asrwt>0</asrwt>
<pdfrwt beam="1">  1       21 0.70208441E-01 0.10613976E+04</pdfrwt>
<pdfrwt beam="2">  1       -4 0.21529694E+00 0.10613976E+04</pdfrwt>
<totfact> 0.73320902E+00</totfact>
</mgrwt>
</event>
<event>
 6    2  0.2294477E-005  0.1072997E+04  0.7818608E-02  0.9519508E-01
         -4   -1    0    0    0  501 -0.00000000000E+00  0.00000000000E+00  0.13778952148E+04  0.13778952148E+04  0.00000000000E+00 0. -1.
         21   -1    0    0  501  502  0.00000000000E+00 -0.00000000000E+00 -0.42427246496E+03  0.42427246496E+03  0.00000000000E+00 0. -1.
   -9000010    2    1    2    0  502 -0.18022544252E+03 -0.33634940356E+03  0.43391452529E+03  0.11574128572E+04  0.10028512229E+04 0.  0.
         13    1    3    3    0    0  0.14284358525E+03 -0.58086454648E+03  0.45521698641E+03  0.75168505844E+03  0.10566000000E+00 0. -1.
         -4    1    3    3    0  502 -0.32306902777E+03  0.24451514292E+03 -0.21302461123E+02  0.40572779874E+03  0.00000000000E+00 0. -1.
        -13    1    1    2    0    0  0.18022544252E+03  0.33634940356E+03  0.51970822458E+03  0.64475482260E+03  0.10566000000E+00 0.  1.
<mgrwt>
<rscale>  1 0.82860700E+03</rscale>
<asrwt>0</asrwt>
<pdfrwt beam="2">  1       21 0.65272687E-01 0.10729971E+04</pdfrwt>
<pdfrwt beam="1">  1       -4 0.21198388E+00 0.10729971E+04</pdfrwt>
<totfact> 0.90835827E+00</totfact>
</mgrwt>
</event>
<event>
 6    2  0.2294477E-005  0.9973905E+03  0.7818608E-02  0.9872918E-01
         21   -1    0    0  501  502  0.00000000000E+00  0.00000000000E+00  0.75498198125E+03  0.75498198125E+03  0.00000000000E+00 0. -1.
         -4   -1    0    0    0  501 -0.00000000000E+00 -0.00000000000E+00 -0.66192939484E+03  0.66192939484E+03  0.00000000000E+00 0. -1.
   -9000010    2    1    2    0  502  0.10475785079E+03  0.10031683391E+03  0.40219857180E+03  0.10754308848E+04  0.98678783050E+03 0.  0.
         13    1    3    3    0    0 -0.20168443398E+02  0.11202564248E+02  0.72113194619E+03  0.72150090682E+03  0.10566000000E+00 0. -1.
         -4    1    3    3    0  502  0.12492629418E+03  0.89114269660E+02 -0.31893337439E+03  0.35392997801E+03  0.00000000000E+00 0. -1.
        -13    1    1    2    0    0 -0.10475785079E+03 -0.10031683391E+03 -0.30914598539E+03  0.34148049127E+03  0.10566000000E+00 0.  1.
<mgrwt>
<rscale>  1 0.61591911E+03</rscale>
<asrwt>0</asrwt>
<pdfrwt beam="1">  1       21 0.11615107E+00 0.99739054E+03</pdfrwt>
<pdfrwt beam="2">  1       -4 0.10183529E+00 0.99739054E+03</pdfrwt>
<totfact> 0.16681801E+01</totfact>
</mgrwt>
</event>
<event>
 6    2  0.2294477E-005  0.1200543E+04  0.7818608E-02  0.9272592E-01
         21   -1    0    0  501  502  0.00000000000E+00  0.00000000000E+00  0.92980095274E+03  0.92980095274E+03  0.00000000000E+00 0. -1.
         -4   -1    0    0    0  501 -0.00000000000E+00 -0.00000000000E+00 -0.17184595732E+04  0.17184595732E+04  0.00000000000E+00 0. -1.
   -9000010    2    1    2    0  502  0.46658200951E+03 -0.46570966806E+03  0.41968614185E+03  0.12717862827E+04  0.10033541871E+04 0.  0.
         13    1    3    3    0    0 -0.17235184955E+02 -0.61029658037E+03 -0.71705465559E+01  0.61058201375E+03  0.10566000000E+00 0. -1.
         -4    1    3    3    0  502  0.48381719447E+03  0.14458691231E+03  0.42685668840E+03  0.66120426897E+03  0.00000000000E+00 0. -1.
        -13    1    1    2    0    0 -0.46658200951E+03  0.46570966806E+03 -0.12083447623E+04  0.13764742433E+04  0.10566000000E+00 0.  1.
<mgrwt>
<rscale>  1 0.10334574E+04</rscale>
<asrwt>0</asrwt>
<pdfrwt beam="1">  1       21 0.14304630E+00 0.12005432E+04</pdfrwt>
<pdfrwt beam="2">  1       -4 0.26437840E+00 0.12005432E+04</pdfrwt>
<totfact> 0.59888128E-01</totfact>
</mgrwt>
</event>
<event>
 6    2  0.2294477E-005  0.1025808E+04  0.7818608E-02  0.9765462E-01
         -4   -1    0    0    0  501 -0.00000000000E+00  0.00000000000E+00  0.28018226694E+03  0.28018226694E+03  0.00000000000E+00 0. -1.
         21   -1    0    0  501  502  0.00000000000E+00 -0.00000000000E+00 -0.14491897036E+04  0.14491897036E+04  0.00000000000E+00 0. -1.
   -9000010    2    1    2    0  502 -0.14617246186E+03 -0.12056103977E+03 -0.11467235314E+04  0.15385895381E+04  0.10081575057E+04 0.  0.
         13    1    3    3    0    0 -0.33604769495E+03  0.34648823291E+03 -0.35186354231E+03  0.59731910433E+03  0.10566000000E+00 0. -1.
         -4    1    3    3    0  502  0.18987523310E+03 -0.46704927268E+03 -0.79485998908E+03  0.94127043377E+03  0.00000000000E+00 0. -1.
        -13    1    1    2    0    0  0.14617246186E+03  0.12056103977E+03 -0.22283905235E+02  0.19078243240E+03  0.10566000000E+00 0.  1.
<mgrwt>
<rscale>  1 0.67249423E+03</rscale>
<asrwt>0</asrwt>
<pdfrwt beam="2">  1       21 0.22295226E+00 0.10258084E+04</pdfrwt>
<pdfrwt beam="1">  1       -4 0.43104965E-01 0.10258084E+04</pdfrwt>
<totfact> 0.16978808E+01</totfact>
</mgrwt>
</event>
<event>
 6    2  0.2294477E-005  0.1023004E+04  0.7818608E-02  0.9713143E-01
         -4   -1    0    0    0  501 -0.00000000000E+00  0.00000000000E+00  0.62443477886E+03  0.62443477886E+03  0.00000000000E+00 0. -1.
         21   -1    0    0  501  502  0.00000000000E+00 -0.00000000000E+00 -0.69812774971E+03  0.69812774971E+03  0.00000000000E+00 0. -1.
   -9000010    2    1    2    0  502 -0.22456235567E+03  0.35499798965E+02 -0.22759839715E+03  0.10480167606E+04  0.99742148202E+03 0.  0.
         13    1    3    3    0    0  0.17605082165E+03 -0.12380719148E+03  0.29839465165E+03  0.36791506053E+03  0.10566000000E+00 0. -1.
         -4    1    3    3    0  502 -0.40061317732E+03  0.15930699044E+03 -0.52599304880E+03  0.68010170006E+03  0.00000000000E+00 0. -1.
        -13    1    1    2    0    0  0.22456235567E+03 -0.35499798965E+02  0.15390542629E+03  0.27454576798E+03  0.10566000000E+00 0.  1.
<mgrwt>
<rscale>  1 0.70239657E+03</rscale>
<asrwt>0</asrwt>
<pdfrwt beam="2">  1       21 0.10740427E+00 0.10230044E+04</pdfrwt>
<pdfrwt beam="1">  1       -4 0.96066890E-01 0.10230044E+04</pdfrwt>
<totfact> 0.23358100E+01</totfact>
</mgrwt>
</event>
<event>
 6    2  0.2294477E-005  0.1053068E+04  0.7818608E-02  0.9653359E-01
         21   -1    0    0  501  502  0.00000000000E+00  0.00000000000E+00  0.10303317609E+04  0.10303317609E+04  0.00000000000E+00 0. -1.
         -4   -1    0    0    0  501 -0.00000000000E+00 -0.00000000000E+00 -0.92011603580E+03  0.92011603580E+03  0.00000000000E+00 0. -1.
   -9000010    2    1    2    0  502  0.24665698883E+03  0.64225448000E+02  0.72929908806E+03  0.12809488797E+04  0.10217574537E+04 0.  0.
         13    1    3    3    0    0 -0.12259929642E+03  0.38887278470E+03  0.67188999492E+03  0.78593180786E+03  0.10566000000E+00 0. -1.
         -4    1    3    3    0  502  0.36925628525E+03 -0.32464733670E+03  0.57409093133E+02  0.49501707182E+03  0.00000000000E+00 0. -1.
        -13    1    1    2    0    0 -0.24665698883E+03 -0.64225448000E+02 -0.61908336301E+03  0.66949891697E+03  0.10566000000E+00 0.  1.
<mgrwt>
<rscale>  1 0.73863009E+03</rscale>
<asrwt>0</asrwt>
<pdfrwt beam="1">  1       21 0.15851258E+00 0.10530683E+04</pdfrwt>
<pdfrwt beam="2">  1       -4 0.14155631E+00 0.10530683E+04</pdfrwt>
<totfact> 0.31186264E+00</totfact>
</mgrwt>
</event>
<event>
 6    2  0.2294477E-005  0.1072399E+04  0.7818608E-02  0.9667453E-01
         -4   -1    0    0    0  501 -0.00000000000E+00  0.00000000000E+00  0.40856976449E+04  0.40856976449E+04  0.00000000000E+00 0. -1.
         21   -1    0    0  501  502  0.00000000000E+00 -0.00000000000E+00 -0.10402809807E+03  0.10402809807E+03  0.00000000000E+00 0. -1.
   -9000010    2    1    2    0  502  0.18810996008E+03 -0.13253802208E+03  0.32022150951E+04  0.33770136551E+04  0.10474196994E+04 0.  0.
         13    1    3    3    0    0 -0.42860009918E+03  0.39811479801E+02  0.13790054225E+04  0.14446241606E+04  0.10566000000E+00 0. -1.
         -4    1    3    3    0  502  0.61671005926E+03 -0.17234950188E+03  0.18232096726E+04  0.19323894945E+04  0.00000000000E+00 0. -1.
        -13    1    1    2    0    0 -0.18810996008E+03  0.13253802208E+03  0.77945445167E+03  0.81271208787E+03  0.10566000000E+00 0.  1.
<mgrwt>
<rscale>  1 0.72988140E+03</rscale>
<asrwt>0</asrwt>
<pdfrwt beam="2">  1       21 0.16004326E-01 0.10723990E+04</pdfrwt>
<pdfrwt beam="1">  1       -4 0.62856874E+00 0.10723990E+04</pdfrwt>
<totfact> 0.14153233E-01</totfact>
</mgrwt>
</event>
<event>
 6    2  0.2294477E-005  0.1177059E+04  0.7818608E-02  0.9309308E-01
         -4   -1    0    0    0  501 -0.00000000000E+00  0.00000000000E+00  0.13019040620E+04  0.13019040620E+04  0.00000000000E+00 0. -1.
         21   -1    0    0  501  502  0.00000000000E+00 -0.00000000000E+00 -0.94820190853E+03  0.94820190853E+03  0.00000000000E+00 0. -1.
   -9000010    2    1    2    0  502  0.58724635204E+03 -0.17050985819E+03 -0.43257726772E+03  0.12540300552E+04  0.10057516578E+04 0.  0.
         13    1    3    3    0    0  0.56983486898E+03  0.32290566217E+03 -0.10965806660E+03  0.66408188297E+03  0.10566000000E+00 0. -1.
         -4    1    3    3    0  502  0.17411483068E+02 -0.49341552036E+03 -0.32291920112E+03  0.58994817223E+03  0.00000000000E+00 0. -1.
        -13    1    1    2    0    0 -0.58724635204E+03  0.17050985819E+03  0.78627942118E+03  0.99607591531E+03  0.10566000000E+00 0.  1.
<mgrwt>
<rscale>  1 0.99930437E+03</rscale>
<asrwt>0</asrwt>
<pdfrwt beam="2">  1       21 0.14587722E+00 0.11770592E+04</pdfrwt>
<pdfrwt beam="1">  1       -4 0.20029293E+00 0.11770592E+04</pdfrwt>
<totfact> 0.14517570E+00</totfact>
</mgrwt>
</event>
<event>
 6    2  0.2294477E-005  0.1025255E+04  0.7818608E-02  0.9778847E-01
         -4   -1    0    0    0  501 -0.00000000000E+00  0.00000000000E+00  0.50846881493E+03  0.50846881493E+03  0.00000000000E+00 0. -1.
         21   -1    0    0  501  502  0.00000000000E+00 -0.00000000000E+00 -0.72182919660E+03  0.72182919660E+03  0.00000000000E+00 0. -1.
   -9000010    2    1    2    0  502  0.10387425808E+03 -0.14892860411E+03 -0.14129983719E+03  0.10349462164E+04  0.10090482824E+04 0.  0.
         13    1    3    3    0    0  0.25640161450E+03 -0.31903988921E+03  0.32040898476E+03  0.51979819883E+03  0.10566000000E+00 0. -1.
         -4    1    3    3    0  502 -0.15252735642E+03  0.17011128510E+03 -0.46170882195E+03  0.51514801761E+03  0.00000000000E+00 0. -1.
        -13    1    1    2    0    0 -0.10387425808E+03  0.14892860411E+03 -0.72060544472E+02  0.19535179510E+03  0.10566000000E+00 0.  1.
<mgrwt>
<rscale>  1 0.66510195E+03</rscale>
<asrwt>0</asrwt>
<pdfrwt beam="2">  1       21 0.11105065E+00 0.10252551E+04</pdfrwt>
<pdfrwt beam="1">  1       -4 0.78225971E-01 0.10252551E+04</pdfrwt>
<totfact> 0.34679220E+01</totfact>
</mgrwt>
</event>
<event>
 6    2  0.2294477E-005  0.1046152E+04  0.7818608E-02  0.9593836E-01
         -4   -1    0    0    0  501 -0.00000000000E+00  0.00000000000E+00  0.16827851792E+04  0.16827851792E+04  0.00000000000E+00 0. -1.
         21   -1    0    0  501  502  0.00000000000E+00 -0.00000000000E+00 -0.32463644395E+03  0.32463644395E+03  0.00000000000E+00 0. -1.
   -9000010    2    1    2    0  502  0.25548772100E+03  0.19007418234E+03  0.65174252610E+03  0.12325591103E+04  0.99650964350E+03 0.  0.
         13    1    3    3    0    0  0.61163476597E+03  0.13004930529E+03  0.60197428799E+03  0.86797636104E+03  0.10566000000E+00 0. -1.
         -4    1    3    3    0  502 -0.35614704497E+03  0.60024877048E+02  0.49768238111E+02  0.36458274923E+03  0.00000000000E+00 0. -1.
        -13    1    1    2    0    0 -0.25548772100E+03 -0.19007418234E+03  0.70640620910E+03  0.77486251283E+03  0.10566000000E+00 0.  1.
<mgrwt>
<rscale>  1 0.77705534E+03</rscale>
<asrwt>0</asrwt>
<pdfrwt beam="2">  1       21 0.49944069E-01 0.10461518E+04</pdfrwt>
<pdfrwt beam="1">  1       -4 0.25889002E+00 0.10461518E+04</pdfrwt>
<totfact> 0.83535845E+00</totfact>
</mgrwt>
</event>
<event>
 6    2  0.2294477E-005  0.1004888E+04  0.7818608E-02  0.1023069E+00
         21   -1    0    0  501  502  0.00000000000E+00  0.00000000000E+00  0.12685782253E+04  0.12685782253E+04  0.00000000000E+00 0. -1.
         -4   -1    0    0    0  501 -0.00000000000E+00 -0.00000000000E+00 -0.21950821347E+03  0.21950821347E+03  0.00000000000E+00 0. -1.
   -9000010    2    1    2    0  502 -0.29136924770E+02 -0.36178229218E+02  0.10263254767E+04  0.14363645894E+04  0.10038134414E+04 0.  0.
         13    1    3    3    0    0 -0.44979005172E+03 -0.54038581140E+02  0.17320524861E+03  0.48500652387E+03  0.10566000000E+00 0. -1.
         -4    1    3    3    0  502  0.42065312695E+03  0.17860351922E+02  0.85312022804E+03  0.95135806555E+03  0.00000000000E+00 0. -1.
        -13    1    1    2    0    0  0.29136924770E+02  0.36178229218E+02  0.22744535156E+02  0.51721849328E+02  0.10566000000E+00 0.  1.
<mgrwt>
<rscale>  1 0.46595121E+03</rscale>
<asrwt>0</asrwt>
<pdfrwt beam="1">  1       21 0.19516588E+00 0.10048877E+04</pdfrwt>
<pdfrwt beam="2">  1       -4 0.33770495E-01 0.10048877E+04</pdfrwt>
<totfact> 0.42990643E+01</totfact>
</mgrwt>
</event>
<event>
 6    2  0.2294477E-005  0.1024056E+04  0.7818608E-02  0.9941141E-01
         -4   -1    0    0    0  501 -0.00000000000E+00  0.00000000000E+00  0.28098806756E+03  0.28098806756E+03  0.00000000000E+00 0. -1.
         21   -1    0    0  501  502  0.00000000000E+00 -0.00000000000E+00 -0.11396246375E+04  0.11396246375E+04  0.00000000000E+00 0. -1.
   -9000010    2    1    2    0  502 -0.28492691360E+01 -0.10759561627E+03 -0.78163833625E+03  0.12882734662E+04  0.10183835722E+04 0.  0.
         13    1    3    3    0    0 -0.49458063792E+03 -0.22844672623E+02 -0.54406769239E+03  0.73562324021E+03  0.10566000000E+00 0. -1.
         -4    1    3    3    0  502  0.49173136879E+03 -0.84750943643E+02 -0.23757064386E+03  0.55265022602E+03  0.00000000000E+00 0. -1.
        -13    1    1    2    0    0  0.28492691360E+01  0.10759561627E+03 -0.76998233654E+02  0.13233923879E+03  0.10566000000E+00 0.  1.
<mgrwt>
<rscale>  1 0.58308173E+03</rscale>
<asrwt>0</asrwt>
<pdfrwt beam="2">  1       21 0.17532687E+00 0.10240557E+04</pdfrwt>
<pdfrwt beam="1">  1       -4 0.43228933E-01 0.10240557E+04</pdfrwt>
<totfact> 0.36070322E+01</totfact>
</mgrwt>
</event>
<event>
 6    2  0.2294477E-005  0.7072905E+03  0.7818608E-02  0.1060313E+00
         21   -1    0    0  501  502  0.00000000000E+00  0.00000000000E+00  0.21727698326E+03  0.21727698326E+03  0.00000000000E+00 0. -1.
         -4   -1    0    0    0  501 -0.00000000000E+00 -0.00000000000E+00 -0.65414987443E+03  0.65414987443E+03  0.00000000000E+00 0. -1.
   -9000010    2    1    2    0  502 -0.28082153797E+02  0.35449078731E+02 -0.39674643581E+03  0.81096705180E+03  0.70584316971E+03 0.  0.
         13    1    3    3    0    0 -0.55774813840E+02  0.36835966421E+03 -0.22680301636E+03  0.43616429413E+03  0.10566000000E+00 0. -1.
         -4    1    3    3    0  502  0.27692660043E+02 -0.33291058548E+03 -0.16994341945E+03  0.37480275767E+03  0.00000000000E+00 0. -1.
        -13    1    1    2    0    0  0.28082153797E+02 -0.35449078731E+02 -0.40126455356E+02  0.60459805890E+02  0.10566000000E+00 0.  1.
<mgrwt>
<rscale>  1 0.35566556E+03</rscale>
<asrwt>0</asrwt>
<pdfrwt beam="1">  1       21 0.33427228E-01 0.70729048E+03</pdfrwt>
<pdfrwt beam="2">  1       -4 0.10063844E+00 0.70729048E+03</pdfrwt>
<totfact> 0.29248410E+02</totfact>
</mgrwt>
</event>
<event>
 6    2  0.2294477E-005  0.1008974E+04  0.7818608E-02  0.9722133E-01
         -4   -1    0    0    0  501 -0.00000000000E+00  0.00000000000E+00  0.19049149283E+03  0.19049149283E+03  0.00000000000E+00 0. -1.
         21   -1    0    0  501  502  0.00000000000E+00 -0.00000000000E+00 -0.20526093142E+04  0.20526093142E+04  0.00000000000E+00 0. -1.
   -9000010    2    1    2    0  502  0.22368443227E+03 -0.53337196348E+02 -0.16252297058E+04  0.19129560324E+04  0.98242027842E+03 0.  0.
         13    1    3    3    0    0 -0.33204120266E+03 -0.25138785855E+03 -0.60639110576E+03  0.73563401226E+03  0.10566000000E+00 0. -1.
         -4    1    3    3    0  502  0.55572563493E+03  0.19805066221E+03 -0.10188386001E+04  0.11773220202E+04  0.00000000000E+00 0. -1.
        -13    1    1    2    0    0 -0.22368443227E+03  0.53337196348E+02 -0.23688811548E+03  0.33014477457E+03  0.10566000000E+00 0.  1.
<mgrwt>
<rscale>  1 0.69714176E+03</rscale>
<asrwt>0</asrwt>
<pdfrwt beam="2">  1       21 0.31578606E+00 0.10089743E+04</pdfrwt>
<pdfrwt beam="1">  1       -4 0.29306383E-01 0.10089743E+04</pdfrwt>
<totfact> 0.95692325E+00</totfact>
</mgrwt>
</event>
<event>
 6    2  0.2294477E-005  0.7604319E+03  0.7818608E-02  0.1071611E+00
         -4   -1    0    0    0  501 -0.00000000000E+00  0.00000000000E+00  0.64009272907E+03  0.64009272907E+03  0.00000000000E+00 0. -1.
         21   -1    0    0  501  502  0.00000000000E+00 -0.00000000000E+00 -0.25951037865E+03  0.25951037865E+03  0.00000000000E+00 0. -1.
   -9000010    2    1    2    0  502 -0.71012208917E+01  0.25657297580E+02  0.30473485206E+03  0.81921916387E+03  0.75996577827E+03 0.  0.
         13    1    3    3    0    0 -0.79925168089E+02 -0.12784950737E+03 -0.22053707084E+03  0.26715190399E+03  0.10566000000E+00 0. -1.
         -4    1    3    3    0  502  0.72823947197E+02  0.15350680495E+03  0.52527192290E+03  0.55206725988E+03  0.00000000000E+00 0. -1.
        -13    1    1    2    0    0  0.71012208917E+01 -0.25657297580E+02  0.75847498360E+02  0.80383943849E+02  0.10566000000E+00 0.  1.
<mgrwt>
<rscale>  1 0.32893173E+03</rscale>
<asrwt>0</asrwt>
<pdfrwt beam="2">  1       21 0.39924674E-01 0.76043192E+03</pdfrwt>
<pdfrwt beam="1">  1       -4 0.98475804E-01 0.76043192E+03</pdfrwt>
<totfact> 0.21315085E+02</totfact>
</mgrwt>
</event>
<event>
 6    2  0.2294477E-005  0.9328193E+03  0.7818608E-02  0.1031912E+00
         -4   -1    0    0    0  501 -0.00000000000E+00  0.00000000000E+00  0.47482801221E+03  0.47482801221E+03  0.00000000000E+00 0. -1.
         21   -1    0    0  501  502  0.00000000000E+00 -0.00000000000E+00 -0.50655611997E+03  0.50655611997E+03  0.00000000000E+00 0. -1.
   -9000010    2    1    2    0  502 -0.29392265235E+02 -0.33558591635E+02 -0.47603352521E+02  0.93403311436E+03  0.93175194941E+03 0.  0.
         13    1    3    3    0    0 -0.13000254690E+03  0.42201214985E+03  0.83515112953E+02  0.44941039383E+03  0.10566000000E+00 0. -1.
         -4    1    3    3    0  502  0.10061028167E+03 -0.45557074149E+03 -0.13111846547E+03  0.48462272054E+03  0.00000000000E+00 0. -1.
        -13    1    1    2    0    0  0.29392265235E+02  0.33558591635E+02  0.15875244766E+02  0.47351017820E+02  0.10566000000E+00 0.  1.
<mgrwt>
<rscale>  1 0.43622180E+03</rscale>
<asrwt>0</asrwt>
<pdfrwt beam="2">  1       21 0.77931711E-01 0.93281926E+03</pdfrwt>
<pdfrwt beam="1">  1       -4 0.73050463E-01 0.93281926E+03</pdfrwt>
<totfact> 0.96719715E+01</totfact>
</mgrwt>
</event>
<event>
 6    2  0.2294477E-005  0.1027362E+04  0.7818608E-02  0.9650631E-01
         21   -1    0    0  501  502  0.00000000000E+00  0.00000000000E+00  0.22742250304E+04  0.22742250304E+04  0.00000000000E+00 0. -1.
         -4   -1    0    0    0  501 -0.00000000000E+00 -0.00000000000E+00 -0.33739984160E+03  0.33739984160E+03  0.00000000000E+00 0. -1.
   -9000010    2    1    2    0  502 -0.23894819804E+03 -0.14020657178E+03  0.20649385365E+04  0.23063919034E+04  0.98930194000E+03 0.  0.
         13    1    3    3    0    0  0.21742711909E+03 -0.12360581518E+03  0.69811624956E+02  0.25966637019E+03  0.10566000000E+00 0. -1.
         -4    1    3    3    0  502 -0.45637531713E+03 -0.16600756597E+02  0.19951269115E+04  0.20467255332E+04  0.00000000000E+00 0. -1.
        -13    1    1    2    0    0  0.23894819804E+03  0.14020657178E+03 -0.12811334766E+03  0.30523296862E+03  0.10566000000E+00 0.  1.
<mgrwt>
<rscale>  1 0.74033846E+03</rscale>
<asrwt>0</asrwt>
<pdfrwt beam="1">  1       21 0.34988076E+00 0.10273619E+04</pdfrwt>
<pdfrwt beam="2">  1       -4 0.51907669E-01 0.10273619E+04</pdfrwt>
<totfact> 0.18226391E+00</totfact>
</mgrwt>
</event>
<event>
 6    2  0.2294477E-005  0.9976712E+03  0.7818608E-02  0.1009922E+00
         -4   -1    0    0    0  501 -0.00000000000E+00  0.00000000000E+00  0.25381893601E+03  0.25381893601E+03  0.00000000000E+00 0. -1.
         21   -1    0    0  501  502  0.00000000000E+00 -0.00000000000E+00 -0.14123335783E+04  0.14123335783E+04  0.00000000000E+00 0. -1.
   -9000010    2    1    2    0  502  0.31510241255E+02 -0.63478379831E+02 -0.12174231234E+04  0.15739971004E+04  0.99515094872E+03 0.  0.
         13    1    3    3    0    0  0.92588120992E+02 -0.47425293202E+03 -0.98731395316E+03  0.10992166561E+04  0.10566000000E+00 0. -1.
         -4    1    3    3    0  502 -0.61077879738E+02  0.41077455219E+03 -0.23010917020E+03  0.47478044434E+03  0.00000000000E+00 0. -1.
        -13    1    1    2    0    0 -0.31510241255E+02  0.63478379831E+02  0.58908481072E+02  0.92155413927E+02  0.10566000000E+00 0.  1.
<mgrwt>
<rscale>  1 0.51505619E+03</rscale>
<asrwt>0</asrwt>
<pdfrwt beam="2">  1       21 0.21728209E+00 0.99767119E+03</pdfrwt>
<pdfrwt beam="1">  1       -4 0.39049068E-01 0.99767119E+03</pdfrwt>
<totfact> 0.22742139E+01</totfact>
</mgrwt>
</event>
<event>
 6    2  0.2294477E-005  0.1031389E+04  0.7818608E-02  0.9822753E-01
         21   -1    0    0  501  502  0.00000000000E+00  0.00000000000E+00  0.26685204416E+03  0.26685204416E+03  0.00000000000E+00 0. -1.
         -4   -1    0    0    0  501 -0.00000000000E+00 -0.00000000000E+00 -0.15830686167E+04  0.15830686167E+04  0.00000000000E+00 0. -1.
   -9000010    2    1    2    0  502  0.14851696665E+02  0.15369268269E+03 -0.78338253159E+03  0.12951647326E+04  0.10197654044E+04 0.  0.
         13    1    3    3    0    0 -0.15230916171E+03 -0.85199441493E+02 -0.94555808585E+03  0.96152853855E+03  0.10566000000E+00 0. -1.
         -4    1    3    3    0  502  0.16716085837E+03  0.23889212418E+03  0.16217555426E+03  0.33363619403E+03  0.00000000000E+00 0. -1.
        -13    1    1    2    0    0 -0.14851696665E+02 -0.15369268269E+03 -0.53283404094E+03  0.55475592827E+03  0.10566000000E+00 0.  1.
<mgrwt>
<rscale>  1 0.64155633E+03</rscale>
<asrwt>0</asrwt>
<pdfrwt beam="1">  1       21 0.41054160E-01 0.10313891E+04</pdfrwt>
<pdfrwt beam="2">  1       -4 0.24354902E+00 0.10313891E+04</pdfrwt>
<totfact> 0.15820390E+01</totfact>
</mgrwt>
</event>
<event>
 6    2  0.2294477E-005  0.1029987E+04  0.7818608E-02  0.9785842E-01
         -4   -1    0    0    0  501 -0.00000000000E+00  0.00000000000E+00  0.11723122161E+04  0.11723122161E+04  0.00000000000E+00 0. -1.
         21   -1    0    0  501  502  0.00000000000E+00 -0.00000000000E+00 -0.38583844467E+03  0.38583844467E+03  0.00000000000E+00 0. -1.
   -9000010    2    1    2    0  502 -0.73940710309E+02 -0.15861476541E+03  0.34988283996E+03  0.10877917286E+04  0.10150108229E+04 0.  0.
         13    1    3    3    0    0 -0.15664935587E+03  0.12385413170E+02 -0.33876015000E+03  0.37343121127E+03  0.10566000000E+00 0. -1.
         -4    1    3    3    0  502  0.82708645565E+02 -0.17100017858E+03  0.68864298996E+03  0.71436051735E+03  0.00000000000E+00 0. -1.
        -13    1    1    2    0    0  0.73940710309E+02  0.15861476541E+03  0.43659093146E+03  0.47035893214E+03  0.10566000000E+00 0.  1.
<mgrwt>
<rscale>  1 0.66127915E+03</rscale>
<asrwt>0</asrwt>
<pdfrwt beam="2">  1       21 0.59359761E-01 0.10299868E+04</pdfrwt>
<pdfrwt beam="1">  1       -4 0.18035572E+00 0.10299868E+04</pdfrwt>
<totfact> 0.18394513E+01</totfact>
</mgrwt>
</event>
<event>
 6    2  0.2294477E-005  0.1032661E+04  0.7818608E-02  0.9655034E-01
         21   -1    0    0  501  502  0.00000000000E+00  0.00000000000E+00  0.64073644560E+03  0.64073644560E+03  0.00000000000E+00 0. -1.
         -4   -1    0    0    0  501 -0.00000000000E+00 -0.00000000000E+00 -0.70091588217E+03  0.70091588217E+03  0.00000000000E+00 0. -1.
   -9000010    2    1    2    0  502 -0.99210096256E+02 -0.24978310152E+03  0.85053912648E+02  0.10361576831E+04  0.99707288364E+03 0.  0.
         13    1    3    3    0    0 -0.26972812883E+03  0.30722767051E+03 -0.10733125315E+03  0.42268441428E+03  0.10566000000E+00 0. -1.
         -4    1    3    3    0  502  0.17051803257E+03 -0.55701077203E+03  0.19238516580E+03  0.61347326887E+03  0.00000000000E+00 0. -1.
        -13    1    1    2    0    0  0.99210096256E+02  0.24978310152E+03 -0.14523334921E+03  0.30549464462E+03  0.10566000000E+00 0.  1.
<mgrwt>
<rscale>  1 0.73758352E+03</rscale>
<asrwt>0</asrwt>
<pdfrwt beam="1">  1       21 0.98574838E-01 0.10326609E+04</pdfrwt>
<pdfrwt beam="2">  1       -4 0.10783321E+00 0.10326609E+04</pdfrwt>
<totfact> 0.21856978E+01</totfact>
</mgrwt>
</event>
<event>
 6    2  0.2294477E-005  0.1010037E+04  0.7818608E-02  0.9867795E-01
         21   -1    0    0  501  502  0.00000000000E+00  0.00000000000E+00  0.49403470032E+03  0.49403470032E+03  0.00000000000E+00 0. -1.
         -4   -1    0    0    0  501 -0.00000000000E+00 -0.00000000000E+00 -0.74862291180E+03  0.74862291180E+03  0.00000000000E+00 0. -1.
   -9000010    2    1    2    0  502  0.41635400760E+02 -0.13575769810E+03 -0.73742378142E+02  0.10127252617E+04  0.10000054290E+04 0.  0.
         13    1    3    3    0    0  0.54744344972E+02  0.48734850931E+02  0.45070142055E+03  0.45662217495E+03  0.10566000000E+00 0. -1.
         -4    1    3    3    0  502 -0.13108944212E+02 -0.18449254903E+03 -0.52444379869E+03  0.55610308672E+03  0.00000000000E+00 0. -1.
        -13    1    1    2    0    0 -0.41635400760E+02  0.13575769810E+03 -0.18084583334E+03  0.22993235046E+03  0.10566000000E+00 0.  1.
<mgrwt>
<rscale>  1 0.61847781E+03</rscale>
<asrwt>0</asrwt>
<pdfrwt beam="1">  1       21 0.76005339E-01 0.10100369E+04</pdfrwt>
<pdfrwt beam="2">  1       -4 0.11517276E+00 0.10100369E+04</pdfrwt>
<totfact> 0.34708143E+01</totfact>
</mgrwt>
</event>
<event>
 6    2  0.2294477E-005  0.1095203E+04  0.7818608E-02  0.9469151E-01
         -4   -1    0    0    0  501 -0.00000000000E+00  0.00000000000E+00  0.73604289112E+03  0.73604289112E+03  0.00000000000E+00 0. -1.
         21   -1    0    0  501  502  0.00000000000E+00 -0.00000000000E+00 -0.78840869856E+03  0.78840869856E+03  0.00000000000E+00 0.  1.
   -9000010    2    1    2    0  502  0.34941502415E+03 -0.24730916473E+03 -0.50517755313E+02  0.10963673591E+04  0.10080757215E+04 0.  0.
         13    1    3    3    0    0  0.29139735258E+03 -0.31512759419E+02  0.45638521026E+03  0.54239555899E+03  0.10566000000E+00 0. -1.
         -4    1    3    3    0  502  0.58017671566E+02 -0.21579640531E+03 -0.50690296558E+03  0.55397180007E+03  0.00000000000E+00 0. -1.
        -13    1    1    2    0    0 -0.34941502415E+03  0.24730916473E+03 -0.18480521260E+01  0.42808423064E+03  0.10566000000E+00 0.  1.
<mgrwt>
<rscale>  1 0.86596877E+03</rscale>
<asrwt>0</asrwt>
<pdfrwt beam="2">  1       21 0.12129365E+00 0.10952029E+04</pdfrwt>
<pdfrwt beam="1">  1       -4 0.11323737E+00 0.10952029E+04</pdfrwt>
<totfact> 0.11377441E+01</totfact>
</mgrwt>
</event>
<event>
 6    2  0.2294477E-005  0.1047609E+04  0.7818608E-02  0.9578220E-01
         -4   -1    0    0    0  501 -0.00000000000E+00  0.00000000000E+00  0.70509859399E+03  0.70509859399E+03  0.00000000000E+00 0. -1.
         21   -1    0    0  501  502  0.00000000000E+00 -0.00000000000E+00 -0.16763999746E+04  0.16763999746E+04  0.00000000000E+00 0.  1.
   -9000010    2    1    2    0  502  0.25805458069E+03 -0.21296757448E+03  0.28151450994E+03  0.10847738402E+04  0.99274191547E+03 0.  0.
         13    1    3    3    0    0  0.54660076382E+03 -0.41638449990E+03  0.24647588903E+03  0.72999919301E+03  0.10566000000E+00 0. -1.
         -4    1    3    3    0  502 -0.28854618313E+03  0.20341692542E+03  0.35038620909E+02  0.35477464721E+03  0.00000000000E+00 0. -1.
        -13    1    1    2    0    0 -0.25805458069E+03  0.21296757448E+03 -0.12528158905E+04  0.12967247284E+04  0.10566000000E+00 0.  1.
<mgrwt>
<rscale>  1 0.78754630E+03</rscale>
<asrwt>0</asrwt>
<pdfrwt beam="2">  1       21 0.25790769E+00 0.10476086E+04</pdfrwt>
<pdfrwt beam="1">  1       -4 0.10847671E+00 0.10476086E+04</pdfrwt>
<totfact> 0.12748252E+00</totfact>
</mgrwt>
</event>
<event>
 6    2  0.2294477E-005  0.1000545E+04  0.7818608E-02  0.9974839E-01
         -4   -1    0    0    0  501 -0.00000000000E+00  0.00000000000E+00  0.32610840716E+03  0.32610840716E+03  0.00000000000E+00 0. -1.
         21   -1    0    0  501  502  0.00000000000E+00 -0.00000000000E+00 -0.10151225934E+04  0.10151225934E+04  0.00000000000E+00 0. -1.
   -9000010    2    1    2    0  502  0.94443865942E+02  0.42772192448E+02 -0.72039644762E+03  0.12329075879E+04  0.99515876833E+03 0.  0.
         13    1    3    3    0    0  0.19943226826E+03  0.30273303137E+03 -0.84997135961E+03  0.92405186068E+03  0.10566000000E+00 0. -1.
         -4    1    3    3    0  502 -0.10498840232E+03 -0.25996083892E+03  0.12957491199E+03  0.30885572717E+03  0.00000000000E+00 0. -1.
        -13    1    1    2    0    0 -0.94443865942E+02 -0.42772192448E+02  0.31382261328E+02  0.10832341276E+03  0.10566000000E+00 0.  1.
<mgrwt>
<rscale>  1 0.56767403E+03</rscale>
<asrwt>0</asrwt>
<pdfrwt beam="2">  1       21 0.15617270E+00 0.10005449E+04</pdfrwt>
<pdfrwt beam="1">  1       -4 0.50170525E-01 0.10005449E+04</pdfrwt>
<totfact> 0.37059538E+01</totfact>
</mgrwt>
</event>
<event>
 6    2  0.2294477E-005  0.1201450E+04  0.7818608E-02  0.9293103E-01
         21   -1    0    0  501  502  0.00000000000E+00  0.00000000000E+00  0.45450805606E+03  0.45450805606E+03  0.00000000000E+00 0.  1.
         -4   -1    0    0    0  501 -0.00000000000E+00 -0.00000000000E+00 -0.18065313480E+04  0.18065313480E+04  0.00000000000E+00 0. -1.
   -9000010    2    1    2    0  502 -0.15406422220E+03  0.59029953157E+03 -0.86578648831E+03  0.14809012356E+04  0.10350328037E+04 0.  0.
         13    1    3    3    0    0 -0.16871530262E+03  0.73575933536E+03 -0.10196500895E+04  0.12686579402E+04  0.10566000000E+00 0. -1.
         -4    1    3    3    0  502  0.14651080428E+02 -0.14545980379E+03  0.15386360121E+03  0.21224329542E+03  0.00000000000E+00 0. -1.
        -13    1    1    2    0    0  0.15406422220E+03 -0.59029953157E+03 -0.48623680361E+03  0.78013816846E+03  0.10566000000E+00 0.  1.
<mgrwt>
<rscale>  1 0.10142027E+04</rscale>
<asrwt>0</asrwt>
<pdfrwt beam="1">  1       21 0.69924315E-01 0.12014501E+04</pdfrwt>
<pdfrwt beam="2">  1       -4 0.27792790E+00 0.12014501E+04</pdfrwt>
<totfact> 0.29534651E+00</totfact>
</mgrwt>
</event>
<event>
 6    2  0.2294477E-005  0.1007063E+04  0.7818608E-02  0.1002772E+00
         21   -1    0    0  501  502  0.00000000000E+00  0.00000000000E+00  0.51834217526E+03  0.51834217526E+03  0.00000000000E+00 0. -1.
         -4   -1    0    0    0  501 -0.00000000000E+00 -0.00000000000E+00 -0.62753022318E+03  0.62753022318E+03  0.00000000000E+00 0. -1.
   -9000010    2    1    2    0  502  0.69936567068E+02  0.50174494458E+02 -0.28670918832E+00  0.10070627588E+04  0.10033776531E+04 0.  0.
         13    1    3    3    0    0 -0.94011512082E+02 -0.41564367688E+03 -0.20450654136E+03  0.47267406017E+03  0.10566000000E+00 0. -1.
         -4    1    3    3    0  502  0.16394807915E+03  0.46581817134E+03  0.20421983217E+03  0.53438869866E+03  0.00000000000E+00 0. -1.
        -13    1    1    2    0    0 -0.69936567068E+02 -0.50174494458E+02 -0.10890133873E+03  0.13880963961E+03  0.10566000000E+00 0.  1.
<mgrwt>
<rscale>  1 0.54451458E+03</rscale>
<asrwt>0</asrwt>
<pdfrwt beam="1">  1       21 0.79744951E-01 0.10070627E+04</pdfrwt>
<pdfrwt beam="2">  1       -4 0.96543111E-01 0.10070627E+04</pdfrwt>
<totfact> 0.47722752E+01</totfact>
</mgrwt>
</event>
<event>
 6    2  0.2294477E-005  0.1037525E+04  0.7818608E-02  0.9673768E-01
         21   -1    0    0  501  502  0.00000000000E+00  0.00000000000E+00  0.14004248014E+04  0.14004248014E+04  0.00000000000E+00 0. -1.
         -4   -1    0    0    0  501 -0.00000000000E+00 -0.00000000000E+00 -0.36674614482E+03  0.36674614482E+03  0.00000000000E+00 0. -1.
   -9000010    2    1    2    0  502  0.22411101023E+03 -0.10793246269E+03  0.10975824487E+04  0.15103463617E+04  0.10072654760E+04 0.  0.
         13    1    3    3    0    0 -0.38198738995E+02  0.36657487456E+03  0.11153411497E+03  0.38506642581E+03  0.10566000000E+00 0. -1.
         -4    1    3    3    0  502  0.26230974922E+03 -0.47450733725E+03  0.98604833374E+03  0.11252799359E+04  0.00000000000E+00 0. -1.
        -13    1    1    2    0    0 -0.22411101023E+03  0.10793246269E+03 -0.63903792122E+02  0.25682458453E+03  0.10566000000E+00 0.  1.
<mgrwt>
<rscale>  1 0.72600331E+03</rscale>
<asrwt>0</asrwt>
<pdfrwt beam="1">  1       21 0.21544997E+00 0.10375254E+04</pdfrwt>
<pdfrwt beam="2">  1       -4 0.56422484E-01 0.10375254E+04</pdfrwt>
<totfact> 0.10775933E+01</totfact>
</mgrwt>
</event>
<event>
 6    2  0.2294477E-005  0.9983931E+03  0.7818608E-02  0.9948905E-01
         21   -1    0    0  501  502  0.00000000000E+00  0.00000000000E+00  0.11035618501E+04  0.11035618501E+04  0.00000000000E+00 0. -1.
         -4   -1    0    0    0  501 -0.00000000000E+00 -0.00000000000E+00 -0.52623291262E+03  0.52623291262E+03  0.00000000000E+00 0. -1.
   -9000010    2    1    2    0  502  0.74200675825E+02 -0.85634459878E+02  0.86476205434E+03  0.13208339094E+04  0.99194244015E+03 0.  0.
         13    1    3    3    0    0 -0.24163430691E+03 -0.29516197528E+03  0.86109162943E+03  0.94179962592E+03  0.10566000000E+00 0. -1.
         -4    1    3    3    0  502  0.31583498274E+03  0.20952751541E+03  0.36704249042E+01  0.37903428348E+03  0.00000000000E+00 0. -1.
        -13    1    1    2    0    0 -0.74200675825E+02  0.85634459878E+02 -0.28743311690E+03  0.30896085329E+03  0.10566000000E+00 0.  1.
<mgrwt>
<rscale>  1 0.57948558E+03</rscale>
<asrwt>0</asrwt>
<pdfrwt beam="1">  1       21 0.16977875E+00 0.99839311E+03</pdfrwt>
<pdfrwt beam="2">  1       -4 0.80958910E-01 0.99839311E+03</pdfrwt>
<totfact> 0.10153903E+01</totfact>
</mgrwt>
</event>
<event>
 6    2  0.2294477E-005  0.1020433E+04  0.7818608E-02  0.1067522E+00
         21   -1    0    0  501  502  0.00000000000E+00  0.00000000000E+00  0.58224179408E+03  0.58224179408E+03  0.00000000000E+00 0. -1.
         -4   -1    0    0    0  501 -0.00000000000E+00 -0.00000000000E+00 -0.47705016951E+03  0.47705016951E+03  0.00000000000E+00 0. -1.
   -9000010    2    1    2    0  502 -0.11784263776E+02  0.36159563837E+01  0.13281743716E+03  0.10290406711E+04  0.10203589011E+04 0.  0.
         13    1    3    3    0    0 -0.10974852806E+03 -0.24161408352E+03 -0.37339474197E+03  0.45808923722E+03  0.10566000000E+00 0. -1.
         -4    1    3    3    0  502  0.97964264285E+02  0.24523003990E+03  0.50621217912E+03  0.57095143387E+03  0.00000000000E+00 0. -1.
        -13    1    1    2    0    0  0.11784263776E+02 -0.36159563837E+01 -0.27625812584E+02  0.30251292505E+02  0.10566000000E+00 0.  1.
<mgrwt>
<rscale>  1 0.33830072E+03</rscale>
<asrwt>0</asrwt>
<pdfrwt beam="1">  1       21 0.89575660E-01 0.10204334E+04</pdfrwt>
<pdfrwt beam="2">  1       -4 0.73392334E-01 0.10204334E+04</pdfrwt>
<totfact> 0.68318308E+01</totfact>
</mgrwt>
</event>
<event>
 6    2  0.2294477E-005  0.1037099E+04  0.7818608E-02  0.9649534E-01
         21   -1    0    0  501  502  0.00000000000E+00  0.00000000000E+00  0.70962110086E+03  0.70962110086E+03  0.00000000000E+00 0. -1.
         -4   -1    0    0    0  501 -0.00000000000E+00 -0.00000000000E+00 -0.60862819385E+03  0.60862819385E+03  0.00000000000E+00 0. -1.
   -9000010    2    1    2    0  502  0.24565405575E+03  0.11280856289E+03  0.24788749532E+02  0.10373956464E+04  0.10012509966E+04 0.  0.
         13    1    3    3    0    0 -0.37245600905E+03  0.17845110423E+03  0.45267349401E+02  0.41547252540E+03  0.10566000000E+00 0. -1.
         -4    1    3    3    0  502  0.61811006479E+03 -0.65642541341E+02 -0.20478599869E+02  0.62192312104E+03  0.00000000000E+00 0. -1.
        -13    1    1    2    0    0 -0.24565405575E+03 -0.11280856289E+03  0.76204157474E+02  0.28085364827E+03  0.10566000000E+00 0.  1.
<mgrwt>
<rscale>  1 0.74102695E+03</rscale>
<asrwt>0</asrwt>
<pdfrwt beam="1">  1       21 0.10917248E+00 0.10370994E+04</pdfrwt>
<pdfrwt beam="2">  1       -4 0.93635106E-01 0.10370994E+04</pdfrwt>
<totfact> 0.23791895E+01</totfact>
</mgrwt>
</event>
<event>
 6    2  0.2294477E-005  0.1147682E+04  0.7818608E-02  0.9354875E-01
         -4   -1    0    0    0  501 -0.00000000000E+00  0.00000000000E+00  0.13874355959E+04  0.13874355959E+04  0.00000000000E+00 0. -1.
         21   -1    0    0  501  502  0.00000000000E+00 -0.00000000000E+00 -0.10339140387E+04  0.10339140387E+04  0.00000000000E+00 0.  1.
   -9000010    2    1    2    0  502  0.55182380283E+03  0.90172101047E+02 -0.61570152099E+03  0.13024064261E+04  0.10022642459E+04 0.  0.
         13    1    3    3    0    0  0.76767478411E+02 -0.42286495269E+03 -0.35056731383E+03  0.55462191324E+03  0.10566000000E+00 0. -1.
         -4    1    3    3    0  502  0.47505632442E+03  0.51303705374E+03 -0.26513420716E+03  0.74778451287E+03  0.00000000000E+00 0. -1.
        -13    1    1    2    0    0 -0.55182380283E+03 -0.90172101047E+02  0.96922307824E+03  0.11189432085E+04  0.10566000000E+00 0.  1.
<mgrwt>
<rscale>  1 0.95884158E+03</rscale>
<asrwt>0</asrwt>
<pdfrwt beam="2">  1       21 0.15906370E+00 0.11476821E+04</pdfrwt>
<pdfrwt beam="1">  1       -4 0.21345163E+00 0.11476821E+04</pdfrwt>
<totfact> 0.93686557E-01</totfact>
</mgrwt>
</event>
<event>
 6    2  0.2294477E-005  0.9802183E+03  0.7818608E-02  0.9774477E-01
         -4   -1    0    0    0  501 -0.00000000000E+00  0.00000000000E+00  0.10373253504E+04  0.10373253504E+04  0.00000000000E+00 0. -1.
         21   -1    0    0  501  502  0.00000000000E+00 -0.00000000000E+00 -0.81011686524E+03  0.81011686524E+03  0.00000000000E+00 0. -1.
   -9000010    2    1    2    0  502 -0.18293296542E+03 -0.10472592886E+03 -0.49286344705E+03  0.10971518793E+04  0.95728568300E+03 0.  0.
         13    1    3    3    0    0  0.26167589111E+02 -0.45404740933E+03  0.39705828937E+01  0.45481817172E+03  0.10566000000E+00 0. -1.
         -4    1    3    3    0  502 -0.20910055453E+03  0.34932148046E+03 -0.49683402995E+03  0.64233370761E+03  0.00000000000E+00 0. -1.
        -13    1    1    2    0    0  0.18293296542E+03  0.10472592886E+03  0.72007193221E+03  0.75029033630E+03  0.10566000000E+00 0.  1.
<mgrwt>
<rscale>  1 0.66750432E+03</rscale>
<asrwt>0</asrwt>
<pdfrwt beam="2">  1       21 0.12463336E+00 0.98021828E+03</pdfrwt>
<pdfrwt beam="1">  1       -4 0.15958852E+00 0.98021828E+03</pdfrwt>
<totfact> 0.43977732E+00</totfact>
</mgrwt>
</event>
<event>
 6    2  0.2294477E-005  0.9470590E+03  0.7818608E-02  0.9769882E-01
         21   -1    0    0  501  502  0.00000000000E+00  0.00000000000E+00  0.22619190235E+03  0.22619190235E+03  0.00000000000E+00 0. -1.
         -4   -1    0    0    0  501 -0.00000000000E+00 -0.00000000000E+00 -0.17371982113E+04  0.17371982113E+04  0.00000000000E+00 0. -1.
   -9000010    2    1    2    0  502 -0.19050349965E+03  0.14147134822E+03 -0.89415143069E+03  0.13024697873E+04  0.91685060951E+03 0.  0.
         13    1    3    3    0    0 -0.30086983520E+01  0.36178154948E+03 -0.94214359128E+03  0.10092222251E+04  0.10566000000E+00 0. -1.
         -4    1    3    3    0  502 -0.18749480130E+03 -0.22031020126E+03  0.47992160593E+02  0.29324756226E+03  0.00000000000E+00 0. -1.
        -13    1    1    2    0    0  0.19050349965E+03 -0.14147134822E+03 -0.61685487823E+03  0.66092032629E+03  0.10566000000E+00 0.  1.
<mgrwt>
<rscale>  1 0.67004174E+03</rscale>
<asrwt>0</asrwt>
<pdfrwt beam="1">  1       21 0.34798755E-01 0.94705901E+03</pdfrwt>
<pdfrwt beam="2">  1       -4 0.26726126E+00 0.94705901E+03</pdfrwt>
<totfact> 0.16073368E+01</totfact>
</mgrwt>
</event>
<event>
 6    2  0.2294477E-005  0.1040067E+04  0.7818608E-02  0.9703778E-01
         -4   -1    0    0    0  501 -0.00000000000E+00  0.00000000000E+00  0.66873584066E+03  0.66873584066E+03  0.00000000000E+00 0. -1.
         21   -1    0    0  501  502  0.00000000000E+00 -0.00000000000E+00 -0.70824489598E+03  0.70824489598E+03  0.00000000000E+00 0. -1.
   -9000010    2    1    2    0  502  0.63181083747E+02  0.21410633624E+03 -0.25050729116E+03  0.10698103617E+04  0.10158282013E+04 0.  0.
         13    1    3    3    0    0 -0.43938818536E+03  0.24877812160E+03 -0.25578282918E+03  0.56601890259E+03  0.10566000000E+00 0. -1.
         -4    1    3    3    0  502  0.50256926911E+03 -0.34671785361E+02  0.52755380238E+01  0.50379145909E+03  0.00000000000E+00 0. -1.
        -13    1    1    2    0    0 -0.63181083747E+02 -0.21410633624E+03  0.21099823584E+03  0.30717037496E+03  0.10566000000E+00 0.  1.
<mgrwt>
<rscale>  1 0.70792325E+03</rscale>
<asrwt>0</asrwt>
<pdfrwt beam="2">  1       21 0.10896075E+00 0.10400675E+04</pdfrwt>
<pdfrwt beam="1">  1       -4 0.10288244E+00 0.10400675E+04</pdfrwt>
<totfact> 0.19062646E+01</totfact>
</mgrwt>
</event>
<event>
 6    2  0.2294477E-005  0.1001796E+04  0.7818608E-02  0.9895058E-01
         -4   -1    0    0    0  501 -0.00000000000E+00  0.00000000000E+00  0.38790113426E+03  0.38790113426E+03  0.00000000000E+00 0. -1.
         21   -1    0    0  501  502  0.00000000000E+00 -0.00000000000E+00 -0.83394477779E+03  0.83394477779E+03  0.00000000000E+00 0. -1.
   -9000010    2    1    2    0  502 -0.12141680002E+03  0.54937207855E+02 -0.36701914289E+03  0.10669103803E+04  0.99289202445E+03 0.  0.
         13    1    3    3    0    0 -0.41650306431E+03  0.18507657626E+03  0.13042598317E+03  0.47406654587E+03  0.10566000000E+00 0. -1.
         -4    1    3    3    0  502  0.29508626429E+03 -0.13013936840E+03 -0.49744512607E+03  0.59284383443E+03  0.00000000000E+00 0. -1.
        -13    1    1    2    0    0  0.12141680002E+03 -0.54937207855E+02 -0.79024500639E+02  0.15493553175E+03  0.10566000000E+00 0.  1.
<mgrwt>
<rscale>  1 0.60501377E+03</rscale>
<asrwt>0</asrwt>
<pdfrwt beam="2">  1       21 0.12829920E+00 0.10017957E+04</pdfrwt>
<pdfrwt beam="1">  1       -4 0.59677098E-01 0.10017957E+04</pdfrwt>
<totfact> 0.43718498E+01</totfact>
</mgrwt>
</event>
<event>
 6    2  0.2294477E-005  0.1014412E+04  0.7818608E-02  0.9771303E-01
         -4   -1    0    0    0  501 -0.00000000000E+00  0.00000000000E+00  0.19979069717E+04  0.19979069717E+04  0.00000000000E+00 0. -1.
         21   -1    0    0  501  502  0.00000000000E+00 -0.00000000000E+00 -0.18217730354E+03  0.18217730354E+03  0.00000000000E+00 0. -1.
   -9000010    2    1    2    0  502 -0.47015699674E+02  0.18634810447E+03  0.15287581873E+04  0.18347022635E+04  0.99603951144E+03 0.  0.
         13    1    3    3    0    0 -0.40588704447E+03  0.41442613536E+03  0.10012897712E+04  0.11571838797E+04  0.10566000000E+00 0. -1.
         -4    1    3    3    0  502  0.35887134480E+03 -0.22807803089E+03  0.52746841616E+03  0.67751838376E+03  0.00000000000E+00 0. -1.
        -13    1    1    2    0    0  0.47015699674E+02 -0.18634810447E+03  0.28697148085E+03  0.34538201175E+03  0.10566000000E+00 0.  1.
<mgrwt>
<rscale>  1 0.66925570E+03</rscale>
<asrwt>0</asrwt>
<pdfrwt beam="2">  1       21 0.28027279E-01 0.10144116E+04</pdfrwt>
<pdfrwt beam="1">  1       -4 0.30737029E+00 0.10144116E+04</pdfrwt>
<totfact> 0.13986724E+01</totfact>
</mgrwt>
</event>
<event>
 6    2  0.2294477E-005  0.9826371E+03  0.7818608E-02  0.9779249E-01
         21   -1    0    0  501  502  0.00000000000E+00  0.00000000000E+00  0.42674779261E+03  0.42674779261E+03  0.00000000000E+00 0. -1.
         -4   -1    0    0    0  501 -0.00000000000E+00 -0.00000000000E+00 -0.99128792605E+03  0.99128792605E+03  0.00000000000E+00 0. -1.
   -9000010    2    1    2    0  502  0.53907375910E+01  0.20589652635E+03 -0.20517226419E+03  0.10038283838E+04  0.96080868365E+03 0.  0.
         13    1    3    3    0    0  0.18458180452E+03  0.55258307824E+03 -0.19174826480E+03  0.61333996212E+03  0.10566000000E+00 0. -1.
         -4    1    3    3    0  502 -0.17919106692E+03 -0.34668655189E+03 -0.13423999396E+02  0.39048842171E+03  0.00000000000E+00 0. -1.
        -13    1    1    2    0    0 -0.53907375910E+01 -0.20589652635E+03 -0.35936786925E+03  0.41420733483E+03  0.10566000000E+00 0.  1.
<mgrwt>
<rscale>  1 0.66488166E+03</rscale>
<asrwt>0</asrwt>
<pdfrwt beam="1">  1       21 0.65653507E-01 0.98263715E+03</pdfrwt>
<pdfrwt beam="2">  1       -4 0.15250583E+00 0.98263715E+03</pdfrwt>
<totfact> 0.23548041E+01</totfact>
</mgrwt>
</event>
<event>
 6    2  0.2294477E-005  0.1025254E+04  0.7818608E-02  0.9777618E-01
         21   -1    0    0  501  502  0.00000000000E+00  0.00000000000E+00  0.30683027290E+03  0.30683027290E+03  0.00000000000E+00 0. -1.
         -4   -1    0    0    0  501 -0.00000000000E+00 -0.00000000000E+00 -0.14366044061E+04  0.14366044061E+04  0.00000000000E+00 0. -1.
   -9000010    2    1    2    0  502  0.18144121081E+03  0.17816805873E+02 -0.61088998995E+03  0.11934536640E+04  0.10089136320E+04 0.  0.
         13    1    3    3    0    0  0.50102944019E+03 -0.25387627954E+03 -0.51745792912E+03  0.76370569254E+03  0.10566000000E+00 0. -1.
         -4    1    3    3    0  502 -0.31958822937E+03  0.27169308541E+03 -0.93432060836E+02  0.42974797150E+03  0.00000000000E+00 0. -1.
        -13    1    1    2    0    0 -0.18144121081E+03 -0.17816805873E+02 -0.51888414322E+03  0.54998101495E+03  0.10566000000E+00 0.  1.
<mgrwt>
<rscale>  1 0.66577648E+03</rscale>
<asrwt>0</asrwt>
<pdfrwt beam="1">  1       21 0.47204657E-01 0.10252537E+04</pdfrwt>
<pdfrwt beam="2">  1       -4 0.22101606E+00 0.10252537E+04</pdfrwt>
<totfact> 0.16309896E+01</totfact>
</mgrwt>
</event>
<event>
 6    2  0.2294477E-005  0.8140906E+03  0.7818608E-02  0.9844700E-01
         21   -1    0    0  501  502  0.00000000000E+00  0.00000000000E+00  0.15473585933E+04  0.15473585933E+04  0.00000000000E+00 0. -1.
         -4   -1    0    0    0  501 -0.00000000000E+00 -0.00000000000E+00 -0.20173334048E+03  0.20173334048E+03  0.00000000000E+00 0. -1.
   -9000010    2    1    2    0  502  0.20936341113E+03 -0.20398350592E+03  0.10922255809E+04  0.13622409114E+04  0.75980344333E+03 0.  0.
         13    1    3    3    0    0 -0.26817037258E+03 -0.14610524996E+03  0.60422873693E+03  0.67701881103E+03  0.10566000000E+00 0. -1.
         -4    1    3    3    0  502  0.47753378372E+03 -0.57878255957E+02  0.48799684401E+03  0.68522210039E+03  0.00000000000E+00 0. -1.
        -13    1    1    2    0    0 -0.20936341113E+03  0.20398350592E+03  0.25339967185E+03  0.38685102232E+03  0.10566000000E+00 0.  1.
<mgrwt>
<rscale>  1 0.63017867E+03</rscale>
<asrwt>0</asrwt>
<pdfrwt beam="1">  1       21 0.23805516E+00 0.81409065E+03</pdfrwt>
<pdfrwt beam="2">  1       -4 0.31035900E-01 0.81409065E+03</pdfrwt>
<totfact> 0.27054188E+01</totfact>
</mgrwt>
</event>
<event>
 6    2  0.2294477E-005  0.9939782E+03  0.7818608E-02  0.9807791E-01
         21   -1    0    0  501  502  0.00000000000E+00  0.00000000000E+00  0.12916070430E+04  0.12916070430E+04  0.00000000000E+00 0. -1.
         -4   -1    0    0    0  501 -0.00000000000E+00 -0.00000000000E+00 -0.28722682331E+03  0.28722682331E+03  0.00000000000E+00 0. -1.
   -9000010    2    1    2    0  502  0.61343724833E+02 -0.17046649630E+03  0.98032345568E+03  0.13960755067E+04  0.97732843192E+03 0.  0.
         13    1    3    3    0    0 -0.28947777068E+03  0.23846174469E+03  0.68676353144E+03  0.78249954803E+03  0.10566000000E+00 0. -1.
         -4    1    3    3    0  502  0.35082149551E+03 -0.40892824098E+03  0.29355992424E+03  0.61357595871E+03  0.00000000000E+00 0. -1.
        -13    1    1    2    0    0 -0.61343724833E+02  0.17046649630E+03  0.24056764012E+02  0.18275835958E+03  0.10566000000E+00 0.  1.
<mgrwt>
<rscale>  1 0.64946104E+03</rscale>
<asrwt>0</asrwt>
<pdfrwt beam="1">  1       21 0.19870877E+00 0.99397824E+03</pdfrwt>
<pdfrwt beam="2">  1       -4 0.44188743E-01 0.99397824E+03</pdfrwt>
<totfact> 0.23577291E+01</totfact>
</mgrwt>
</event>
<event>
 6    2  0.2294477E-005  0.1003147E+04  0.7818608E-02  0.1002668E+00
         21   -1    0    0  501  502  0.00000000000E+00  0.00000000000E+00  0.42989575680E+03  0.42989575680E+03  0.00000000000E+00 0. -1.
         -4   -1    0    0    0  501 -0.00000000000E+00 -0.00000000000E+00 -0.88191646640E+03  0.88191646640E+03  0.00000000000E+00 0. -1.
   -9000010    2    1    2    0  502 -0.26857435236E+02  0.83137185292E+02 -0.17111847281E+03  0.10176367803E+04  0.99933476448E+03 0.  0.
         13    1    3    3    0    0 -0.15659782454E+03 -0.22976641925E+03 -0.48291637070E+03  0.55724655074E+03  0.10566000000E+00 0. -1.
         -4    1    3    3    0  502  0.12974038931E+03  0.31290360454E+03  0.31179789789E+03  0.46039022957E+03  0.00000000000E+00 0. -1.
        -13    1    1    2    0    0  0.26857435236E+02 -0.83137185292E+02 -0.28090223679E+03  0.29417544290E+03  0.10566000000E+00 0.  1.
<mgrwt>
<rscale>  1 0.54495557E+03</rscale>
<asrwt>0</asrwt>
<pdfrwt beam="1">  1       21 0.66137808E-01 0.10031466E+04</pdfrwt>
<pdfrwt beam="2">  1       -4 0.13567946E+00 0.10031466E+04</pdfrwt>
<totfact> 0.31514027E+01</totfact>
</mgrwt>
</event>
<event>
 6    2  0.2294477E-005  0.1174848E+04  0.7818608E-02  0.9312954E-01
         21   -1    0    0  501  502  0.00000000000E+00  0.00000000000E+00  0.32185198634E+03  0.32185198634E+03  0.00000000000E+00 0. -1.
         -4   -1    0    0    0  501 -0.00000000000E+00 -0.00000000000E+00 -0.24932207356E+04  0.24932207356E+04  0.00000000000E+00 0. -1.
   -9000010    2    1    2    0  502 -0.22493701166E+03  0.56361306191E+03 -0.12878466697E+04  0.17432202979E+04  0.10059878824E+04 0.  0.
         13    1    3    3    0    0 -0.33643826025E+03  0.45814878115E+03 -0.14270069808E+04  0.15360468557E+04  0.10566000000E+00 0. -1.
         -4    1    3    3    0  502  0.11150124858E+03  0.10546428076E+03  0.13916031107E+03  0.20717344214E+03  0.00000000000E+00 0. -1.
        -13    1    1    2    0    0  0.22493701166E+03 -0.56361306191E+03 -0.88352207953E+03  0.10718524241E+04  0.10566000000E+00 0.  1.
<mgrwt>
<rscale>  1 0.99599019E+03</rscale>
<asrwt>0</asrwt>
<pdfrwt beam="1">  1       21 0.49515691E-01 0.11748481E+04</pdfrwt>
<pdfrwt beam="2">  1       -4 0.38357241E+00 0.11748481E+04</pdfrwt>
<totfact> 0.13470715E+00</totfact>
</mgrwt>
</event>
<event>
 6    2  0.2294477E-005  0.1137445E+04  0.7818608E-02  0.9367211E-01
         -4   -1    0    0    0  501 -0.00000000000E+00  0.00000000000E+00  0.16573171666E+04  0.16573171666E+04  0.00000000000E+00 0. -1.
         21   -1    0    0  501  502  0.00000000000E+00 -0.00000000000E+00 -0.42981663235E+03  0.42981663235E+03  0.00000000000E+00 0.  1.
   -9000010    2    1    2    0  502 -0.46011997184E+03  0.30019656649E+03  0.79094628722E+03  0.13854159149E+04  0.99596830322E+03 0.  0.
         13    1    3    3    0    0 -0.61848311867E+03 -0.22315584237E+02  0.12891345992E+03  0.63216931648E+03  0.10566000000E+00 0. -1.
         -4    1    3    3    0  502  0.15836314683E+03  0.32251215073E+03  0.66203282730E+03  0.75324659844E+03  0.00000000000E+00 0. -1.
        -13    1    1    2    0    0  0.46011997184E+03 -0.30019656649E+03  0.43655424705E+03  0.70171788406E+03  0.10566000000E+00 0.  1.
<mgrwt>
<rscale>  1 0.94823903E+03</rscale>
<asrwt>0</asrwt>
<pdfrwt beam="2">  1       21 0.66125637E-01 0.11374450E+04</pdfrwt>
<pdfrwt beam="1">  1       -4 0.25497187E+00 0.11374450E+04</pdfrwt>
<totfact> 0.46898829E+00</totfact>
</mgrwt>
</event>
<event>
 6    2  0.2294477E-005  0.1038184E+04  0.7818608E-02  0.9815290E-01
         21   -1    0    0  501  502  0.00000000000E+00  0.00000000000E+00  0.64122830312E+03  0.64122830312E+03  0.00000000000E+00 0. -1.
         -4   -1    0    0    0  501 -0.00000000000E+00 -0.00000000000E+00 -0.67420161631E+03  0.67420161631E+03  0.00000000000E+00 0. -1.
   -9000010    2    1    2    0  502 -0.90517803066E+02  0.12599372568E+03 -0.23129604949E+03  0.10636367295E+04  0.10265268327E+04 0.  0.
         13    1    3    3    0    0  0.75132569448E+00 -0.19150756023E+03 -0.56348693468E+03  0.59514136710E+03  0.10566000000E+00 0. -1.
         -4    1    3    3    0  502 -0.91269128761E+02  0.31750128591E+03  0.33219088518E+03  0.46849536243E+03  0.00000000000E+00 0. -1.
        -13    1    1    2    0    0  0.90517803066E+02 -0.12599372568E+03  0.19832273630E+03  0.25179318990E+03  0.10566000000E+00 0.  1.
<mgrwt>
<rscale>  1 0.64548398E+03</rscale>
<asrwt>0</asrwt>
<pdfrwt beam="1">  1       21 0.98650508E-01 0.10381836E+04</pdfrwt>
<pdfrwt beam="2">  1       -4 0.10372333E+00 0.10381836E+04</pdfrwt>
<totfact> 0.23978753E+01</totfact>
</mgrwt>
</event>
<event>
 6    2  0.2294477E-005  0.1021364E+04  0.7818608E-02  0.9773304E-01
         21   -1    0    0  501  502  0.00000000000E+00  0.00000000000E+00  0.20024169221E+03  0.20024169221E+03  0.00000000000E+00 0. -1.
         -4   -1    0    0    0  501 -0.00000000000E+00 -0.00000000000E+00 -0.18466735736E+04  0.18466735736E+04  0.00000000000E+00 0. -1.
   -9000010    2    1    2    0  502  0.15381494351E+01  0.18704306605E+03 -0.14684233560E+04  0.17887011672E+04  0.10040902542E+04 0.  0.
         13    1    3    3    0    0 -0.26465555996E+03  0.47922883323E+03 -0.49487181754E+03  0.73797084426E+03  0.10566000000E+00 0. -1.
         -4    1    3    3    0  502  0.26619370940E+03 -0.29218576718E+03 -0.97355153843E+03  0.10507303229E+04  0.00000000000E+00 0. -1.
        -13    1    1    2    0    0 -0.15381494351E+01 -0.18704306605E+03 -0.17800852545E+03  0.25821409868E+03  0.10566000000E+00 0.  1.
<mgrwt>
<rscale>  1 0.66815097E+03</rscale>
<asrwt>0</asrwt>
<pdfrwt beam="1">  1       21 0.30806412E-01 0.10213641E+04</pdfrwt>
<pdfrwt beam="2">  1       -4 0.28410365E+00 0.10213641E+04</pdfrwt>
<totfact> 0.16091507E+01</totfact>
</mgrwt>
</event>
<event>
 6    2  0.2294477E-005  0.1022888E+04  0.7818608E-02  0.9698122E-01
         21   -1    0    0  501  502  0.00000000000E+00  0.00000000000E+00  0.18410818822E+03  0.18410818822E+03  0.00000000000E+00 0. -1.
         -4   -1    0    0    0  501 -0.00000000000E+00 -0.00000000000E+00 -0.26716083439E+04  0.26716083439E+04  0.00000000000E+00 0. -1.
   -9000010    2    1    2    0  502 -0.23667803297E+03 -0.34390097812E+02 -0.13522491233E+04  0.16955466791E+04  0.99453591163E+03 0.  0.
         13    1    3    3    0    0 -0.56487839500E+03 -0.14714182480E+03 -0.47640794090E+03  0.75346058627E+03  0.10566000000E+00 0. -1.
         -4    1    3    3    0  502  0.32820036203E+03  0.11275172699E+03 -0.87584118241E+03  0.94208609287E+03  0.00000000000E+00 0. -1.
        -13    1    1    2    0    0  0.23667803297E+03  0.34390097812E+02 -0.11352510324E+04  0.11601698530E+04  0.10566000000E+00 0.  1.
<mgrwt>
<rscale>  1 0.71128712E+03</rscale>
<asrwt>0</asrwt>
<pdfrwt beam="1">  1       21 0.28324336E-01 0.10228885E+04</pdfrwt>
<pdfrwt beam="2">  1       -4 0.41101668E+00 0.10228885E+04</pdfrwt>
<totfact> 0.28487818E+00</totfact>
</mgrwt>
</event>
<event>
 6    2  0.2294477E-005  0.9880015E+03  0.7818608E-02  0.9803365E-01
         -4   -1    0    0    0  501 -0.00000000000E+00  0.00000000000E+00  0.14809060061E+04  0.14809060061E+04  0.00000000000E+00 0. -1.
         21   -1    0    0  501  502  0.00000000000E+00 -0.00000000000E+00 -0.30086069453E+03  0.30086069453E+03  0.00000000000E+00 0. -1.
   -9000010    2    1    2    0  502  0.15317539219E+03  0.10756958136E+03  0.12397656046E+04  0.15852967534E+04  0.97010985280E+03 0.  0.
         13    1    3    3    0    0 -0.30359336680E+03 -0.84653414489E+00  0.10250536336E+04  0.10690671691E+04  0.10566000000E+00 0. -1.
         -4    1    3    3    0  502  0.45676875899E+03  0.10841611550E+03  0.21471197094E+03  0.51622958435E+03  0.00000000000E+00 0. -1.
        -13    1    1    2    0    0 -0.15317539219E+03 -0.10756958136E+03 -0.59720292990E+02  0.19646994723E+03  0.10566000000E+00 0.  1.
<mgrwt>
<rscale>  1 0.65182254E+03</rscale>
<asrwt>0</asrwt>
<pdfrwt beam="2">  1       21 0.46286262E-01 0.98800154E+03</pdfrwt>
<pdfrwt beam="1">  1       -4 0.22783169E+00 0.98800154E+03</pdfrwt>
<totfact> 0.15463269E+01</totfact>
</mgrwt>
</event>
<event>
 6    2  0.2294477E-005  0.1067316E+04  0.7818608E-02  0.9579588E-01
         21   -1    0    0  501  502  0.00000000000E+00  0.00000000000E+00  0.97913583668E+03  0.97913583668E+03  0.00000000000E+00 0. -1.
         -4   -1    0    0    0  501 -0.00000000000E+00 -0.00000000000E+00 -0.56300629523E+03  0.56300629523E+03  0.00000000000E+00 0. -1.
   -9000010    2    1    2    0  502  0.29873454795E+03  0.99617853075E+02  0.54913743038E+03  0.12002983716E+04  0.10198030283E+04 0.  0.
         13    1    3    3    0    0  0.37241202130E+03  0.27092229584E+03  0.77860906761E+03  0.90461135043E+03  0.10566000000E+00 0. -1.
         -4    1    3    3    0  502 -0.73677473349E+02 -0.17130444277E+03 -0.22947163723E+03  0.29568702117E+03  0.00000000000E+00 0. -1.
        -13    1    1    2    0    0 -0.29873454795E+03 -0.99617853075E+02 -0.13300788893E+03  0.34184376032E+03  0.10566000000E+00 0.  1.
<mgrwt>
<rscale>  1 0.78662051E+03</rscale>
<asrwt>0</asrwt>
<pdfrwt beam="1">  1       21 0.15063628E+00 0.10673164E+04</pdfrwt>
<pdfrwt beam="2">  1       -4 0.86616353E-01 0.10673164E+04</pdfrwt>
<totfact> 0.12125710E+01</totfact>
</mgrwt>
</event>
<event>
 6    2  0.2294477E-005  0.1001464E+04  0.7818608E-02  0.9754733E-01
         -4   -1    0    0    0  501 -0.00000000000E+00  0.00000000000E+00  0.33738258771E+03  0.33738258771E+03  0.00000000000E+00 0. -1.
         21   -1    0    0  501  502  0.00000000000E+00 -0.00000000000E+00 -0.11471309906E+04  0.11471309906E+04  0.00000000000E+00 0. -1.
   -9000010    2    1    2    0  502  0.16846513235E+03  0.12704279269E+03 -0.78421410738E+03  0.12719756208E+04  0.97898408653E+03 0.  0.
         13    1    3    3    0    0  0.23867358537E+02  0.24980843133E+03 -0.97271118774E+03  0.10045600873E+04  0.10566000000E+00 0. -1.
         -4    1    3    3    0  502  0.14459777381E+03 -0.12276563864E+03  0.18849708036E+03  0.26741553344E+03  0.00000000000E+00 0. -1.
        -13    1    1    2    0    0 -0.16846513235E+03 -0.12704279269E+03 -0.25534295549E+02  0.21253795757E+03  0.10566000000E+00 0.  1.
<mgrwt>
<rscale>  1 0.67849458E+03</rscale>
<asrwt>0</asrwt>
<pdfrwt beam="2">  1       21 0.17648169E+00 0.10014640E+04</pdfrwt>
<pdfrwt beam="1">  1       -4 0.51905013E-01 0.10014640E+04</pdfrwt>
<totfact> 0.24179210E+01</totfact>
</mgrwt>
</event>
<event>
 6    2  0.2294477E-005  0.9922059E+03  0.7818608E-02  0.9737653E-01
         21   -1    0    0  501  502  0.00000000000E+00  0.00000000000E+00  0.69695935530E+03  0.69695935530E+03  0.00000000000E+00 0. -1.
         -4   -1    0    0    0  501 -0.00000000000E+00 -0.00000000000E+00 -0.77515974854E+03  0.77515974854E+03  0.00000000000E+00 0. -1.
   -9000010    2    1    2    0  502  0.16733781013E+03  0.15724208926E+03  0.29394623525E+03  0.10348318509E+04  0.96526967893E+03 0.  0.
         13    1    3    3    0    0  0.56618755079E+03  0.16091135223E+03  0.22447653088E+03  0.62996073690E+03  0.10566000000E+00 0. -1.
         -4    1    3    3    0  502 -0.39884974066E+03 -0.36692629629E+01  0.69469704369E+02  0.40487111399E+03  0.00000000000E+00 0. -1.
        -13    1    1    2    0    0 -0.16733781013E+03 -0.15724208926E+03 -0.37214662848E+03  0.43728725295E+03  0.10566000000E+00 0.  1.
<mgrwt>
<rscale>  1 0.68818550E+03</rscale>
<asrwt>0</asrwt>
<pdfrwt beam="1">  1       21 0.10722452E+00 0.99220591E+03</pdfrwt>
<pdfrwt beam="2">  1       -4 0.11925535E+00 0.99220591E+03</pdfrwt>
<totfact> 0.13861447E+01</totfact>
</mgrwt>
</event>
<event>
 6    2  0.2294477E-005  0.1039887E+04  0.7818608E-02  0.9691927E-01
         21   -1    0    0  501  502  0.00000000000E+00  0.00000000000E+00  0.18287170085E+03  0.18287170085E+03  0.00000000000E+00 0. -1.
         -4   -1    0    0    0  501 -0.00000000000E+00 -0.00000000000E+00 -0.22137445661E+04  0.22137445661E+04  0.00000000000E+00 0. -1.
   -9000010    2    1    2    0  502 -0.20039621831E+03  0.11770773828E+03 -0.16773037158E+04  0.19735029127E+04  0.10135838571E+04 0.  0.
         13    1    3    3    0    0 -0.35569964311E+03  0.27798917008E+03 -0.16906882290E+04  0.17499219736E+04  0.10566000000E+00 0. -1.
         -4    1    3    3    0  502  0.15530342480E+03 -0.16028143180E+03  0.13384513189E+02  0.22358093910E+03  0.00000000000E+00 0. -1.
        -13    1    1    2    0    0  0.20039621831E+03 -0.11770773828E+03 -0.35356914943E+03  0.42311335427E+03  0.10566000000E+00 0.  1.
<mgrwt>
<rscale>  1 0.71499479E+03</rscale>
<asrwt>0</asrwt>
<pdfrwt beam="1">  1       21 0.28134109E-01 0.10398875E+04</pdfrwt>
<pdfrwt beam="2">  1       -4 0.34057607E+00 0.10398875E+04</pdfrwt>
<totfact> 0.85421799E+00</totfact>
</mgrwt>
</event>
<event>
 6    2  0.2294477E-005  0.1021990E+04  0.7818608E-02  0.9758504E-01
         -4   -1    0    0    0  501 -0.00000000000E+00  0.00000000000E+00  0.27091406573E+04  0.27091406573E+04  0.00000000000E+00 0. -1.
         21   -1    0    0  501  502  0.00000000000E+00 -0.00000000000E+00 -0.14208774948E+03  0.14208774948E+03  0.00000000000E+00 0. -1.
   -9000010    2    1    2    0  502 -0.19364093280E+03 -0.30788957001E+02  0.19191199486E+04  0.21742779644E+04  0.10030047449E+04 0.  0.
         13    1    3    3    0    0 -0.18278754446E+03 -0.37848759444E+03  0.17259155982E+04  0.17763582997E+04  0.10566000000E+00 0. -1.
         -4    1    3    3    0  502 -0.10853388347E+02  0.34769863744E+03  0.19320435041E+03  0.39791966467E+03  0.00000000000E+00 0. -1.
        -13    1    1    2    0    0  0.19364093280E+03  0.30788957001E+02  0.64793295916E+03  0.67695044240E+03  0.10566000000E+00 0.  1.
<mgrwt>
<rscale>  1 0.67637822E+03</rscale>
<asrwt>0</asrwt>
<pdfrwt beam="2">  1       21 0.21859656E-01 0.10219899E+04</pdfrwt>
<pdfrwt beam="1">  1       -4 0.41679083E+00 0.10219899E+04</pdfrwt>
<totfact> 0.43284130E+00</totfact>
</mgrwt>
</event>
<event>
 6    2  0.2294477E-005  0.1006957E+04  0.7818608E-02  0.9940522E-01
         21   -1    0    0  501  502  0.00000000000E+00  0.00000000000E+00  0.38758381681E+03  0.38758381681E+03  0.00000000000E+00 0. -1.
         -4   -1    0    0    0  501 -0.00000000000E+00 -0.00000000000E+00 -0.83157014648E+03  0.83157014648E+03  0.00000000000E+00 0. -1.
   -9000010    2    1    2    0  502  0.11311676274E+03 -0.84730564386E+01 -0.33335037429E+03  0.10607004355E+04  0.10005477235E+04 0.  0.
         13    1    3    3    0    0  0.32773124171E+03 -0.24465463711E+03 -0.54231837977E+03  0.67924435548E+03  0.10566000000E+00 0. -1.
         -4    1    3    3    0  502 -0.21461447897E+03  0.23618158068E+03  0.20896800548E+03  0.38145607997E+03  0.00000000000E+00 0. -1.
        -13    1    1    2    0    0 -0.11311676274E+03  0.84730564386E+01 -0.11063595539E+03  0.15845352784E+03  0.10566000000E+00 0.  1.
<mgrwt>
<rscale>  1 0.58336962E+03</rscale>
<asrwt>0</asrwt>
<pdfrwt beam="1">  1       21 0.59628280E-01 0.10069573E+04</pdfrwt>
<pdfrwt beam="2">  1       -4 0.12793387E+00 0.10069573E+04</pdfrwt>
<totfact> 0.46263089E+01</totfact>
</mgrwt>
</event>
<event>
 6    2  0.2294477E-005  0.1285756E+04  0.7818608E-02  0.9158243E-01
         21   -1    0    0  501  502  0.00000000000E+00  0.00000000000E+00  0.56876108538E+03  0.56876108538E+03  0.00000000000E+00 0.  1.
         -4   -1    0    0    0  501 -0.00000000000E+00 -0.00000000000E+00 -0.21147207664E+04  0.21147207664E+04  0.00000000000E+00 0. -1.
   -9000010    2    1    2    0  502 -0.73542145029E+03 -0.36589659511E+03 -0.12942848167E+04  0.18243745963E+04  0.98916351186E+03 0.  0.
         13    1    3    3    0    0 -0.75628129695E+03 -0.53310463814E+03 -0.13588119048E+04  0.16439378818E+04  0.10566000000E+00 0. -1.
         -4    1    3    3    0  502  0.20859846657E+02  0.16720804303E+03  0.64527088132E+02  0.18043671456E+03  0.00000000000E+00 0. -1.
        -13    1    1    2    0    0  0.73542145029E+03  0.36589659511E+03 -0.25167486435E+03  0.85910725545E+03  0.10566000000E+00 0.  1.
<mgrwt>
<rscale>  1 0.11495025E+04</rscale>
<asrwt>0</asrwt>
<pdfrwt beam="1">  1       21 0.87501705E-01 0.12857564E+04</pdfrwt>
<pdfrwt beam="2">  1       -4 0.32534166E+00 0.12857564E+04</pdfrwt>
<totfact> 0.87133510E-01</totfact>
</mgrwt>
</event>
<event>
 6    2  0.2294477E-005  0.1106055E+04  0.7818608E-02  0.9433996E-01
         -4   -1    0    0    0  501 -0.00000000000E+00  0.00000000000E+00  0.21344019264E+04  0.21344019264E+04  0.00000000000E+00 0. -1.
         21   -1    0    0  501  502  0.00000000000E+00 -0.00000000000E+00 -0.29153342502E+03  0.29153342502E+03  0.00000000000E+00 0. -1.
   -9000010    2    1    2    0  502  0.45026958267E+03  0.13685328668E+03  0.12529469155E+04  0.16712970223E+04  0.10009426779E+04 0.  0.
         13    1    3    3    0    0  0.27860633266E+03  0.53546761492E+03  0.43063513014E+03  0.74148073590E+03  0.10566000000E+00 0. -1.
         -4    1    3    3    0  502  0.17166325000E+03 -0.39861432823E+03  0.82231178535E+03  0.92981628637E+03  0.00000000000E+00 0. -1.
        -13    1    1    2    0    0 -0.45026958267E+03 -0.13685328668E+03  0.58992158584E+03  0.75463832911E+03  0.10566000000E+00 0.  1.
<mgrwt>
<rscale>  1 0.89329992E+03</rscale>
<asrwt>0</asrwt>
<pdfrwt beam="2">  1       21 0.44851297E-01 0.11060550E+04</pdfrwt>
<pdfrwt beam="1">  1       -4 0.32836952E+00 0.11060550E+04</pdfrwt>
<totfact> 0.38666891E+00</totfact>
</mgrwt>
</event>
<event>
 6    2  0.2294477E-005  0.1106445E+04  0.7818608E-02  0.9417795E-01
         -4   -1    0    0    0  501 -0.00000000000E+00  0.00000000000E+00  0.99054280212E+03  0.99054280212E+03  0.00000000000E+00 0. -1.
         21   -1    0    0  501  502  0.00000000000E+00 -0.00000000000E+00 -0.65317237488E+03  0.65317237488E+03  0.00000000000E+00 0.  1.
   -9000010    2    1    2    0  502 -0.89770914117E+02  0.48982364759E+03  0.17677221508E+03  0.11204773538E+04  0.98804608267E+03 0.  0.
         13    1    3    3    0    0 -0.34999201354E+03  0.58162320886E+03 -0.14754310530E+03  0.69465743047E+03  0.10566000000E+00 0. -1.
         -4    1    3    3    0  502  0.26022109942E+03 -0.91799561269E+02  0.32431532038E+03  0.42581992328E+03  0.00000000000E+00 0. -1.
        -13    1    1    2    0    0  0.89770914117E+02 -0.48982364759E+03  0.16059821217E+03  0.52323782325E+03  0.10566000000E+00 0.  1.
<mgrwt>
<rscale>  1 0.90625590E+03</rscale>
<asrwt>0</asrwt>
<pdfrwt beam="2">  1       21 0.10048806E+00 0.11064452E+04</pdfrwt>
<pdfrwt beam="1">  1       -4 0.15239120E+00 0.11064452E+04</pdfrwt>
<totfact> 0.85106118E+00</totfact>
</mgrwt>
</event>
<event>
 6    2  0.2294477E-005  0.1099513E+04  0.7818608E-02  0.9768341E-01
         -4   -1    0    0    0  501 -0.00000000000E+00  0.00000000000E+00  0.13166183111E+04  0.13166183111E+04  0.00000000000E+00 0. -1.
         21   -1    0    0  501  502  0.00000000000E+00 -0.00000000000E+00 -0.29780028863E+03  0.29780028863E+03  0.00000000000E+00 0. -1.
   -9000010    2    1    2    0  502 -0.82922367010E+02 -0.12787976707E+03  0.88092278526E+03  0.14088840251E+04  0.10888984749E+04 0.  0.
         13    1    3    3    0    0 -0.11493636934E+03 -0.57141466819E+03  0.74086821538E+03  0.94266155949E+03  0.10566000000E+00 0. -1.
         -4    1    3    3    0  502  0.32014002327E+02  0.44353490112E+03  0.14005456988E+03  0.46622246557E+03  0.00000000000E+00 0. -1.
        -13    1    1    2    0    0  0.82922367010E+02  0.12787976707E+03  0.13789523718E+03  0.20553457465E+03  0.10566000000E+00 0.  1.
<mgrwt>
<rscale>  1 0.67089568E+03</rscale>
<asrwt>0</asrwt>
<pdfrwt beam="2">  1       21 0.45815430E-01 0.10995132E+04</pdfrwt>
<pdfrwt beam="1">  1       -4 0.20255666E+00 0.10995132E+04</pdfrwt>
<totfact> 0.22733502E+01</totfact>
</mgrwt>
</event>
<event>
 6    2  0.2294477E-005  0.1032013E+04  0.7818608E-02  0.9837543E-01
         21   -1    0    0  501  502  0.00000000000E+00  0.00000000000E+00  0.39002158867E+03  0.39002158867E+03  0.00000000000E+00 0. -1.
         -4   -1    0    0    0  501 -0.00000000000E+00 -0.00000000000E+00 -0.10924516327E+04  0.10924516327E+04  0.00000000000E+00 0. -1.
   -9000010    2    1    2    0  502  0.10226029706E+03  0.10541541561E+03 -0.33217631540E+03  0.10841549906E+04  0.10215093543E+04 0.  0.
         13    1    3    3    0    0  0.53014102401E+03 -0.81038650254E+02 -0.49714056347E+02  0.53859842808E+03  0.10566000000E+00 0. -1.
         -4    1    3    3    0  502 -0.42788072694E+03  0.18645406587E+03 -0.28246225905E+03  0.54555656256E+03  0.00000000000E+00 0. -1.
        -13    1    1    2    0    0 -0.10226029706E+03 -0.10541541561E+03 -0.37025372861E+03  0.39831823071E+03  0.10566000000E+00 0.  1.
<mgrwt>
<rscale>  1 0.63386114E+03</rscale>
<asrwt>0</asrwt>
<pdfrwt beam="1">  1       21 0.60003322E-01 0.10320131E+04</pdfrwt>
<pdfrwt beam="2">  1       -4 0.16806948E+00 0.10320131E+04</pdfrwt>
<totfact> 0.21953504E+01</totfact>
</mgrwt>
</event>
<event>
 6    2  0.2294477E-005  0.1013575E+04  0.7818608E-02  0.9835329E-01
         -4   -1    0    0    0  501 -0.00000000000E+00  0.00000000000E+00  0.54011398274E+03  0.54011398274E+03  0.00000000000E+00 0. -1.
         21   -1    0    0  501  502  0.00000000000E+00 -0.00000000000E+00 -0.10924423370E+04  0.10924423370E+04  0.00000000000E+00 0. -1.
   -9000010    2    1    2    0  502  0.12406901509E+03  0.94814476241E+02 -0.83261399977E+03  0.13117090669E+04  0.10014747617E+04 0.  0.
         13    1    3    3    0    0 -0.21473804369E+03 -0.55302043349E+02  0.14585731911E+03  0.26541498094E+03  0.10566000000E+00 0. -1.
         -4    1    3    3    0  502  0.33880705878E+03  0.15011651959E+03 -0.97847131887E+03  0.10462940860E+04  0.00000000000E+00 0. -1.
        -13    1    1    2    0    0 -0.12406901509E+03 -0.94814476241E+02  0.28028564549E+03  0.32084725282E+03  0.10566000000E+00 0.  1.
<mgrwt>
<rscale>  1 0.63500578E+03</rscale>
<asrwt>0</asrwt>
<pdfrwt beam="2">  1       21 0.16806805E+00 0.10135752E+04</pdfrwt>
<pdfrwt beam="1">  1       -4 0.83094461E-01 0.10135752E+04</pdfrwt>
<totfact> 0.98295879E+00</totfact>
</mgrwt>
</event>
<event>
 6    2  0.2294477E-005  0.1020268E+04  0.7818608E-02  0.9709952E-01
         21   -1    0    0  501  502  0.00000000000E+00  0.00000000000E+00  0.10558702583E+04  0.10558702583E+04  0.00000000000E+00 0. -1.
         -4   -1    0    0    0  501 -0.00000000000E+00 -0.00000000000E+00 -0.37354579100E+03  0.37354579100E+03  0.00000000000E+00 0. -1.
   -9000010    2    1    2    0  502  0.74494688941E+02  0.21933880982E+03  0.59977671389E+03  0.11835032295E+04  0.99362408159E+03 0.  0.
         13    1    3    3    0    0  0.29229238410E+03 -0.12741029704E+03  0.69363138190E+03  0.76340862368E+03  0.10566000000E+00 0. -1.
         -4    1    3    3    0  502 -0.21779769516E+03  0.34674910686E+03 -0.93854668011E+02  0.42009460581E+03  0.00000000000E+00 0. -1.
        -13    1    1    2    0    0 -0.74494688941E+02 -0.21933880982E+03  0.82547753381E+02  0.24591281977E+03  0.10566000000E+00 0.  1.
<mgrwt>
<rscale>  1 0.70427320E+03</rscale>
<asrwt>0</asrwt>
<pdfrwt beam="1">  1       21 0.16244158E+00 0.10202685E+04</pdfrwt>
<pdfrwt beam="2">  1       -4 0.57468584E-01 0.10202685E+04</pdfrwt>
<totfact> 0.24724265E+01</totfact>
</mgrwt>
</event>
<event>
 6    2  0.2294477E-005  0.1014580E+04  0.7818608E-02  0.9984428E-01
         21   -1    0    0  501  502  0.00000000000E+00  0.00000000000E+00  0.13138472754E+04  0.13138472754E+04  0.00000000000E+00 0. -1.
         -4   -1    0    0    0  501 -0.00000000000E+00 -0.00000000000E+00 -0.28316736300E+03  0.28316736300E+03  0.00000000000E+00 0. -1.
   -9000010    2    1    2    0  502  0.26757385641E+02  0.92676845349E+02  0.10856928241E+04  0.14859678601E+04  0.10099834738E+04 0.  0.
         13    1    3    3    0    0  0.78432944774E+02  0.14005404985E+03  0.12744980052E+04  0.12845668687E+04  0.10566000000E+00 0. -1.
         -4    1    3    3    0  502 -0.51675559133E+02 -0.47377204506E+02 -0.18880518109E+03  0.20140099137E+03  0.00000000000E+00 0. -1.
        -13    1    1    2    0    0 -0.26757385641E+02 -0.92676845349E+02 -0.55012911750E+02  0.11104677831E+03  0.10566000000E+00 0.  1.
<mgrwt>
<rscale>  1 0.56338323E+03</rscale>
<asrwt>0</asrwt>
<pdfrwt beam="1">  1       21 0.20213035E+00 0.10145795E+04</pdfrwt>
<pdfrwt beam="2">  1       -4 0.43564210E-01 0.10145795E+04</pdfrwt>
<totfact> 0.22943605E+01</totfact>
</mgrwt>
</event>
<event>
 6    2  0.2294477E-005  0.1226805E+04  0.7818608E-02  0.9213379E-01
         21   -1    0    0  501  502  0.00000000000E+00  0.00000000000E+00  0.10102205343E+04  0.10102205343E+04  0.00000000000E+00 0.  1.
         -4   -1    0    0    0  501 -0.00000000000E+00 -0.00000000000E+00 -0.10825383422E+04  0.10825383422E+04  0.00000000000E+00 0. -1.
   -9000010    2    1    2    0  502  0.15881817281E+03 -0.75253912128E+03  0.26143261842E+03  0.12543510406E+04  0.95577778697E+03 0.  0.
         13    1    3    3    0    0  0.48344138112E+03 -0.25378963028E+03 -0.10426911913E+03  0.55587481125E+03  0.10566000000E+00 0. -1.
         -4    1    3    3    0  502 -0.32462320831E+03 -0.49874949100E+03  0.36570173755E+03  0.69847622937E+03  0.00000000000E+00 0. -1.
        -13    1    1    2    0    0 -0.15881817281E+03  0.75253912128E+03 -0.33375042627E+03  0.83840783588E+03  0.10566000000E+00 0.  1.
<mgrwt>
<rscale>  1 0.10916399E+04</rscale>
<asrwt>0</asrwt>
<pdfrwt beam="1">  1       21 0.15541854E+00 0.12268046E+04</pdfrwt>
<pdfrwt beam="2">  1       -4 0.16654436E+00 0.12268046E+04</pdfrwt>
<totfact> 0.20726545E+00</totfact>
</mgrwt>
</event>
<event>
 6    2  0.2294477E-005  0.9890081E+03  0.7818608E-02  0.1014778E+00
         21   -1    0    0  501  502  0.00000000000E+00  0.00000000000E+00  0.54348429957E+03  0.54348429957E+03  0.00000000000E+00 0. -1.
         -4   -1    0    0    0  501 -0.00000000000E+00 -0.00000000000E+00 -0.53943889094E+03  0.53943889094E+03  0.00000000000E+00 0. -1.
   -9000010    2    1    2    0  502 -0.54458605584E+02 -0.30995517350E+02  0.70584135499E+02  0.99152365466E+03  0.98702106145E+03 0.  0.
         13    1    3    3    0    0 -0.33409377631E+03  0.18024235413E+03 -0.29823730741E+03  0.48275403705E+03  0.10566000000E+00 0. -1.
         -4    1    3    3    0  502  0.27963517072E+03 -0.21123787148E+03  0.36882144291E+03  0.50876961761E+03  0.00000000000E+00 0. -1.
        -13    1    1    2    0    0  0.54458605584E+02  0.30995517350E+02 -0.66538726868E+02  0.91399535859E+02  0.10566000000E+00 0.  1.
<mgrwt>
<rscale>  1 0.49619252E+03</rscale>
<asrwt>0</asrwt>
<pdfrwt beam="1">  1       21 0.83612969E-01 0.98900811E+03</pdfrwt>
<pdfrwt beam="2">  1       -4 0.82990599E-01 0.98900811E+03</pdfrwt>
<totfact> 0.60973451E+01</totfact>
</mgrwt>
</event>
<event>
 6    2  0.2294477E-005  0.1089513E+04  0.7818608E-02  0.9326983E-01
         21   -1    0    0  501  502  0.00000000000E+00  0.00000000000E+00  0.36042469731E+03  0.36042469731E+03  0.00000000000E+00 0. -1.
         -4   -1    0    0    0  501 -0.00000000000E+00 -0.00000000000E+00 -0.23192038407E+04  0.23192038407E+04  0.00000000000E+00 0. -1.
   -9000010    2    1    2    0  502 -0.34988120095E+03 -0.63274016549E+03 -0.13472464227E+04  0.17326600848E+04  0.81502213101E+03 0.  0.
         13    1    3    3    0    0  0.38774849959E+02 -0.69069760216E+03 -0.77967063034E+03  0.10423305472E+04  0.10566000000E+00 0. -1.
         -4    1    3    3    0  502 -0.38865605091E+03  0.57957436671E+02 -0.56757579239E+03  0.69032953760E+03  0.00000000000E+00 0. -1.
        -13    1    1    2    0    0  0.34988120095E+03  0.63274016549E+03 -0.61153272068E+03  0.94696845323E+03  0.10566000000E+00 0.  1.
<mgrwt>
<rscale>  1 0.98336297E+03</rscale>
<asrwt>0</asrwt>
<pdfrwt beam="1">  1       21 0.55449952E-01 0.10895128E+04</pdfrwt>
<pdfrwt beam="2">  1       -4 0.35680060E+00 0.10895128E+04</pdfrwt>
<totfact> 0.16066481E+00</totfact>
</mgrwt>
</event>
<event>
 6    2  0.2294477E-005  0.1123197E+04  0.7818608E-02  0.9415155E-01
         21   -1    0    0  501  502  0.00000000000E+00  0.00000000000E+00  0.88865739032E+03  0.88865739032E+03  0.00000000000E+00 0. -1.
         -4   -1    0    0    0  501 -0.00000000000E+00 -0.00000000000E+00 -0.95725268859E+03  0.95725268859E+03  0.00000000000E+00 0. -1.
   -9000010    2    1    2    0  502  0.37905002291E+02  0.47903214143E+03  0.38278065583E+03  0.11866310448E+04  0.10152160481E+04 0.  0.
         13    1    3    3    0    0 -0.29958600688E+03  0.42517728489E+03  0.59033642550E+03  0.78678116750E+03  0.10566000000E+00 0. -1.
         -4    1    3    3    0  502  0.33749100917E+03  0.53854856541E+02 -0.20755576967E+03  0.39984987729E+03  0.00000000000E+00 0. -1.
        -13    1    1    2    0    0 -0.37905002291E+02 -0.47903214143E+03 -0.45137595410E+03  0.65927903411E+03  0.10566000000E+00 0.  1.
<mgrwt>
<rscale>  1 0.90838939E+03</rscale>
<asrwt>0</asrwt>
<pdfrwt beam="1">  1       21 0.13671652E+00 0.11231973E+04</pdfrwt>
<pdfrwt beam="2">  1       -4 0.14726964E+00 0.11231973E+04</pdfrwt>
<totfact> 0.41966681E+00</totfact>
</mgrwt>
</event>
<event>
 6    2  0.2294477E-005  0.1193135E+04  0.7818608E-02  0.9212567E-01
         -4   -1    0    0    0  501 -0.00000000000E+00  0.00000000000E+00  0.67337378602E+03  0.67337378602E+03  0.00000000000E+00 0. -1.
         21   -1    0    0  501  502  0.00000000000E+00 -0.00000000000E+00 -0.15398369205E+04  0.15398369205E+04  0.00000000000E+00 0.  1.
   -9000010    2    1    2    0  502  0.57277399527E+03 -0.61253698373E+03 -0.58327306988E+03  0.13280732991E+04  0.84870466459E+03 0.  0.
         13    1    3    3    0    0  0.49601985793E+03 -0.74998871141E+03 -0.21059663372E+03  0.92350945853E+03  0.10566000000E+00 0. -1.
         -4    1    3    3    0  502  0.76754137342E+02  0.13745172768E+03 -0.37267643616E+03  0.40456384059E+03  0.00000000000E+00 0. -1.
        -13    1    1    2    0    0 -0.57277399527E+03  0.61253698373E+03 -0.28319006457E+03  0.88513740737E+03  0.10566000000E+00 0.  1.
<mgrwt>
<rscale>  1 0.10924651E+04</rscale>
<asrwt>0</asrwt>
<pdfrwt beam="2">  1       21 0.23689798E+00 0.11931350E+04</pdfrwt>
<pdfrwt beam="1">  1       -4 0.10359597E+00 0.11931350E+04</pdfrwt>
<totfact> 0.19003702E+00</totfact>
</mgrwt>
</event>
<event>
 6    2  0.2294477E-005  0.1092828E+04  0.7818608E-02  0.9427111E-01
         -4   -1    0    0    0  501 -0.00000000000E+00  0.00000000000E+00  0.15470968662E+04  0.15470968662E+04  0.00000000000E+00 0. -1.
         21   -1    0    0  501  502  0.00000000000E+00 -0.00000000000E+00 -0.62134382169E+03  0.62134382169E+03  0.00000000000E+00 0.  1.
   -9000010    2    1    2    0  502 -0.49233251468E+02  0.49754995485E+03  0.11793387732E+04  0.16078288761E+04  0.97174784908E+03 0.  0.
         13    1    3    3    0    0 -0.23712522965E+03  0.63511329137E+03  0.11955629306E+04  0.13743973223E+04  0.10566000000E+00 0. -1.
         -4    1    3    3    0  502  0.18789197818E+03 -0.13756333652E+03 -0.16224157390E+02  0.23343155378E+03  0.00000000000E+00 0. -1.
        -13    1    1    2    0    0  0.49233251468E+02 -0.49754995485E+03 -0.25358572865E+03  0.56061181183E+03  0.10566000000E+00 0.  1.
<mgrwt>
<rscale>  1 0.89877740E+03</rscale>
<asrwt>0</asrwt>
<pdfrwt beam="2">  1       21 0.95591358E-01 0.10928283E+04</pdfrwt>
<pdfrwt beam="1">  1       -4 0.23801490E+00 0.10928283E+04</pdfrwt>
<totfact> 0.25223179E+00</totfact>
</mgrwt>
</event>
<event>
 6    2  0.2294477E-005  0.1009766E+04  0.7818608E-02  0.1000734E+00
         21   -1    0    0  501  502  0.00000000000E+00  0.00000000000E+00  0.15908682596E+04  0.15908682596E+04  0.00000000000E+00 0. -1.
         -4   -1    0    0    0  501 -0.00000000000E+00 -0.00000000000E+00 -0.22089780775E+03  0.22089780775E+03  0.00000000000E+00 0. -1.
   -9000010    2    1    2    0  502  0.69483277515E+02  0.58803564315E+02  0.13904901447E+04  0.17184555428E+04  0.10056544262E+04 0.  0.
         13    1    3    3    0    0 -0.93655401911E+02 -0.41171772235E+03  0.10004194696E+04  0.10858738157E+04  0.10566000000E+00 0. -1.
         -4    1    3    3    0  502  0.16313867943E+03  0.47052128666E+03  0.39007067504E+03  0.63258172709E+03  0.00000000000E+00 0. -1.
        -13    1    1    2    0    0 -0.69483277515E+02 -0.58803564315E+02 -0.20519692862E+02  0.93310524538E+02  0.10566000000E+00 0.  1.
<mgrwt>
<rscale>  1 0.55329560E+03</rscale>
<asrwt>0</asrwt>
<pdfrwt beam="1">  1       21 0.24474896E+00 0.10097656E+04</pdfrwt>
<pdfrwt beam="2">  1       -4 0.33984279E-01 0.10097656E+04</pdfrwt>
<totfact> 0.19900099E+01</totfact>
</mgrwt>
</event>
<event>
 6    2  0.2294477E-005  0.1030635E+04  0.7818608E-02  0.9815264E-01
         21   -1    0    0  501  502  0.00000000000E+00  0.00000000000E+00  0.15025484667E+04  0.15025484667E+04  0.00000000000E+00 0. -1.
         -4   -1    0    0    0  501 -0.00000000000E+00 -0.00000000000E+00 -0.34679271661E+03  0.34679271661E+03  0.00000000000E+00 0. -1.
   -9000010    2    1    2    0  502 -0.37232816983E+02 -0.15415298230E+03  0.12832323729E+04  0.16458719593E+04  0.10183613107E+04 0.  0.
         13    1    3    3    0    0 -0.44702402831E+03  0.71896336219E+02  0.26347344992E+03  0.52384905748E+03  0.10566000000E+00 0. -1.
         -4    1    3    3    0  502  0.40979121133E+03 -0.22604931852E+03  0.10197589229E+04  0.11220229018E+04  0.00000000000E+00 0. -1.
        -13    1    1    2    0    0  0.37232816983E+02  0.15415298230E+03 -0.12747662276E+03  0.20346922403E+03  0.10566000000E+00 0.  1.
<mgrwt>
<rscale>  1 0.64549785E+03</rscale>
<asrwt>0</asrwt>
<pdfrwt beam="1">  1       21 0.23116130E+00 0.10306353E+04</pdfrwt>
<pdfrwt beam="2">  1       -4 0.53352726E-01 0.10306353E+04</pdfrwt>
<totfact> 0.95850100E+00</totfact>
</mgrwt>
</event>
<event>
 6    2  0.2294477E-005  0.1117638E+04  0.7818608E-02  0.9518140E-01
         -4   -1    0    0    0  501 -0.00000000000E+00  0.00000000000E+00  0.77895783198E+03  0.77895783198E+03  0.00000000000E+00 0. -1.
         21   -1    0    0  501  502  0.00000000000E+00 -0.00000000000E+00 -0.88395040354E+03  0.88395040354E+03  0.00000000000E+00 0. -1.
   -9000010    2    1    2    0  502  0.25125984711E+03 -0.22799385939E+03 -0.42577065846E+03  0.11959914304E+04  0.10648953645E+04 0.  0.
         13    1    3    3    0    0 -0.40098864256E+03 -0.21427247881E+03 -0.94717929276E+02  0.46440939259E+03  0.10566000000E+00 0. -1.
         -4    1    3    3    0  502  0.65224848967E+03 -0.13721380585E+02 -0.33105272918E+03  0.73158203782E+03  0.00000000000E+00 0. -1.
        -13    1    1    2    0    0 -0.25125984711E+03  0.22799385939E+03  0.32077808690E+03  0.46691680510E+03  0.10566000000E+00 0.  1.
<mgrwt>
<rscale>  1 0.82959534E+03</rscale>
<asrwt>0</asrwt>
<pdfrwt beam="2">  1       21 0.13599237E+00 0.11176381E+04</pdfrwt>
<pdfrwt beam="1">  1       -4 0.11983967E+00 0.11176381E+04</pdfrwt>
<totfact> 0.72732388E+00</totfact>
</mgrwt>
</event>
<event>
 6    2  0.2294477E-005  0.1032184E+04  0.7818608E-02  0.9663906E-01
         21   -1    0    0  501  502  0.00000000000E+00  0.00000000000E+00  0.76369945716E+03  0.76369945716E+03  0.00000000000E+00 0.  1.
         -4   -1    0    0    0  501 -0.00000000000E+00 -0.00000000000E+00 -0.79339520901E+03  0.79339520901E+03  0.00000000000E+00 0. -1.
   -9000010    2    1    2    0  502  0.24428588324E+03  0.92408901659E+02 -0.39742472347E+03  0.11060518682E+04  0.99859367437E+03 0.  0.
         13    1    3    3    0    0  0.53614255780E+03 -0.21543475716E+03 -0.96156723448E+02  0.58575344942E+03  0.10566000000E+00 0. -1.
         -4    1    3    3    0  502 -0.29185667456E+03  0.30784365882E+03 -0.30126800002E+03  0.52029841879E+03  0.00000000000E+00 0. -1.
        -13    1    1    2    0    0 -0.24428588324E+03 -0.92408901659E+02  0.36772897162E+03  0.45104279796E+03  0.10566000000E+00 0.  1.
<mgrwt>
<rscale>  1 0.73207060E+03</rscale>
<asrwt>0</asrwt>
<pdfrwt beam="1">  1       21 0.11749222E+00 0.10321842E+04</pdfrwt>
<pdfrwt beam="2">  1       -4 0.12206080E+00 0.10321842E+04</pdfrwt>
<totfact> 0.10312278E+01</totfact>
</mgrwt>
</event>
<event>
 6    2  0.2294477E-005  0.1140927E+04  0.7818608E-02  0.9359637E-01
         21   -1    0    0  501  502  0.00000000000E+00  0.00000000000E+00  0.85955373294E+03  0.85955373294E+03  0.00000000000E+00 0.  1.
         -4   -1    0    0    0  501 -0.00000000000E+00 -0.00000000000E+00 -0.88648318622E+03  0.88648318622E+03  0.00000000000E+00 0. -1.
   -9000010    2    1    2    0  502 -0.27141060453E+03  0.48918875260E+03 -0.20446951496E+03  0.11591043535E+04  0.99435696202E+03 0.  0.
         13    1    3    3    0    0 -0.20123350590E+03  0.74153960537E+03  0.79883481546E+02  0.77250067444E+03  0.10566000000E+00 0. -1.
         -4    1    3    3    0  502 -0.70177098638E+02 -0.25235085277E+03 -0.28435299650E+03  0.38660367909E+03  0.00000000000E+00 0. -1.
        -13    1    1    2    0    0  0.27141060453E+03 -0.48918875260E+03  0.17754006169E+03  0.58693256563E+03  0.10566000000E+00 0.  1.
<mgrwt>
<rscale>  1 0.95473153E+03</rscale>
<asrwt>0</asrwt>
<pdfrwt beam="1">  1       21 0.13223904E+00 0.11409273E+04</pdfrwt>
<pdfrwt beam="2">  1       -4 0.13638203E+00 0.11409273E+04</pdfrwt>
<totfact> 0.56129180E+00</totfact>
</mgrwt>
</event>
<event>
 6    2  0.2294477E-005  0.1053645E+04  0.7818608E-02  0.9703207E-01
         -4   -1    0    0    0  501 -0.00000000000E+00  0.00000000000E+00  0.51660706564E+03  0.51660706564E+03  0.00000000000E+00 0. -1.
         21   -1    0    0  501  502  0.00000000000E+00 -0.00000000000E+00 -0.14279367114E+04  0.14279367114E+04  0.00000000000E+00 0. -1.
   -9000010    2    1    2    0  502 -0.20012120059E+03 -0.78934814213E+02 -0.11919941499E+04  0.15909171734E+04  0.10314495623E+04 0.  0.
         13    1    3    3    0    0 -0.48468794646E+03 -0.29535925246E+03 -0.32722941290E+03  0.65516302802E+03  0.10566000000E+00 0. -1.
         -4    1    3    3    0  502  0.28456674586E+03  0.21642443825E+03 -0.86476473696E+03  0.93575414538E+03  0.00000000000E+00 0. -1.
        -13    1    1    2    0    0  0.20012120059E+03  0.78934814213E+02  0.28066450405E+03  0.35362660367E+03  0.10566000000E+00 0.  1.
<mgrwt>
<rscale>  1 0.70826196E+03</rscale>
<asrwt>0</asrwt>
<pdfrwt beam="2">  1       21 0.21968257E+00 0.10536448E+04</pdfrwt>
<pdfrwt beam="1">  1       -4 0.79478010E-01 0.10536448E+04</pdfrwt>
<totfact> 0.47036164E+00</totfact>
</mgrwt>
</event>
<event>
 6    2  0.2294477E-005  0.1011818E+04  0.7818608E-02  0.9819618E-01
         21   -1    0    0  501  502  0.00000000000E+00  0.00000000000E+00  0.84425582147E+03  0.84425582147E+03  0.00000000000E+00 0. -1.
         -4   -1    0    0    0  501 -0.00000000000E+00 -0.00000000000E+00 -0.65211349438E+03  0.65211349438E+03  0.00000000000E+00 0. -1.
   -9000010    2    1    2    0  502  0.13079290667E+03  0.10096331075E+03  0.51376920926E+03  0.11347835901E+04  0.99823575446E+03 0.  0.
         13    1    3    3    0    0 -0.24711927507E+03 -0.32956592260E+03  0.34572799074E+03  0.53778200806E+03  0.10566000000E+00 0. -1.
         -4    1    3    3    0  502  0.37791218174E+03  0.43052923335E+03  0.16804121852E+03  0.59700158207E+03  0.00000000000E+00 0. -1.
        -13    1    1    2    0    0 -0.13079290667E+03 -0.10096331075E+03 -0.32162688216E+03  0.36158572572E+03  0.10566000000E+00 0.  1.
<mgrwt>
<rscale>  1 0.64320260E+03</rscale>
<asrwt>0</asrwt>
<pdfrwt beam="1">  1       21 0.12988551E+00 0.10118177E+04</pdfrwt>
<pdfrwt beam="2">  1       -4 0.10032515E+00 0.10118177E+04</pdfrwt>
<totfact> 0.12893133E+01</totfact>
</mgrwt>
</event>
<event>
 6    2  0.2294477E-005  0.1118940E+04  0.7818608E-02  0.9395101E-01
         -4   -1    0    0    0  501 -0.00000000000E+00  0.00000000000E+00  0.60784199281E+03  0.60784199281E+03  0.00000000000E+00 0. -1.
         21   -1    0    0  501  502  0.00000000000E+00 -0.00000000000E+00 -0.12062360696E+04  0.12062360696E+04  0.00000000000E+00 0. -1.
   -9000010    2    1    2    0  502 -0.27860333888E+03  0.44157463621E+03 -0.64218234730E+03  0.12901263436E+04  0.98965642299E+03 0.  0.
         13    1    3    3    0    0  0.57756382350E+02  0.69473832007E+03 -0.42418862132E+03  0.81604726009E+03  0.10566000000E+00 0. -1.
         -4    1    3    3    0  502 -0.33635972123E+03 -0.25316368385E+03 -0.21799372598E+03  0.47407908355E+03  0.00000000000E+00 0. -1.
        -13    1    1    2    0    0  0.27860333888E+03 -0.44157463621E+03  0.43788270543E+02  0.52395171875E+03  0.10566000000E+00 0.  1.
<mgrwt>
<rscale>  1 0.92479945E+03</rscale>
<asrwt>0</asrwt>
<pdfrwt beam="2">  1       21 0.18557478E+00 0.11189405E+04</pdfrwt>
<pdfrwt beam="1">  1       -4 0.93514153E-01 0.11189405E+04</pdfrwt>
<totfact> 0.54700987E+00</totfact>
</mgrwt>
</event>
<event>
 6    2  0.2294477E-005  0.1216354E+04  0.7818608E-02  0.9245895E-01
         21   -1    0    0  501  502  0.00000000000E+00  0.00000000000E+00  0.75651247685E+03  0.75651247685E+03  0.00000000000E+00 0. -1.
         -4   -1    0    0    0  501 -0.00000000000E+00 -0.00000000000E+00 -0.12131134557E+04  0.12131134557E+04  0.00000000000E+00 0. -1.
   -9000010    2    1    2    0  502  0.19992425093E+03 -0.67023087571E+03 -0.30368108967E+03  0.12536904351E+04  0.99515745987E+03 0.  0.
         13    1    3    3    0    0 -0.41795214039E+02 -0.60742528758E+03 -0.60770298208E+03  0.86024138793E+03  0.10566000000E+00 0. -1.
         -4    1    3    3    0  502  0.24171946497E+03 -0.62805588132E+02  0.30402189241E+03  0.39344904716E+03  0.00000000000E+00 0. -1.
        -13    1    1    2    0    0 -0.19992425093E+03  0.67023087571E+03 -0.15291988919E+03  0.71593549747E+03  0.10566000000E+00 0.  1.
<mgrwt>
<rscale>  1 0.10592015E+04</rscale>
<asrwt>0</asrwt>
<pdfrwt beam="1">  1       21 0.11638654E+00 0.12163542E+04</pdfrwt>
<pdfrwt beam="2">  1       -4 0.18663284E+00 0.12163542E+04</pdfrwt>
<totfact> 0.32692406E+00</totfact>
</mgrwt>
</event>
<event>
 6    2  0.2294477E-005  0.1027869E+04  0.7818608E-02  0.9666415E-01
         -4   -1    0    0    0  501 -0.00000000000E+00  0.00000000000E+00  0.53248122301E+03  0.53248122301E+03  0.00000000000E+00 0. -1.
         21   -1    0    0  501  502  0.00000000000E+00 -0.00000000000E+00 -0.11011667337E+04  0.11011667337E+04  0.00000000000E+00 0. -1.
   -9000010    2    1    2    0  502 -0.13853404970E+03 -0.22267439032E+03 -0.78528231381E+03  0.12935159921E+04  0.99385096585E+03 0.  0.
         13    1    3    3    0    0 -0.17476463023E+03  0.24944747109E+03  0.73071096023E+02  0.31321895384E+03  0.10566000000E+00 0. -1.
         -4    1    3    3    0  502  0.36230580522E+02 -0.47212186141E+03 -0.85835340984E+03  0.98029703823E+03  0.00000000000E+00 0. -1.
        -13    1    1    2    0    0  0.13853404970E+03  0.22267439032E+03  0.21659680316E+03  0.34013196459E+03  0.10566000000E+00 0.  1.
<mgrwt>
<rscale>  1 0.73052100E+03</rscale>
<asrwt>0</asrwt>
<pdfrwt beam="2">  1       21 0.16941026E+00 0.10278693E+04</pdfrwt>
<pdfrwt beam="1">  1       -4 0.81920189E-01 0.10278693E+04</pdfrwt>
<totfact> 0.99076311E+00</totfact>
</mgrwt>
</event>
<event>
 6    2  0.2294477E-005  0.1057161E+04  0.7818608E-02  0.9553270E-01
         21   -1    0    0  501  502  0.00000000000E+00  0.00000000000E+00  0.70914964532E+03  0.70914964532E+03  0.00000000000E+00 0. -1.
         -4   -1    0    0    0  501 -0.00000000000E+00 -0.00000000000E+00 -0.71101286144E+03  0.71101286144E+03  0.00000000000E+00 0. -1.
   -9000010    2    1    2    0  502 -0.35484901382E+03 -0.36197062525E+01  0.64566625596E+02  0.10591308462E+04  0.99582045338E+03 0.  0.
         13    1    3    3    0    0 -0.14055518604E+03  0.44018440940E+03 -0.19567927828E+03  0.50180520694E+03  0.10566000000E+00 0. -1.
         -4    1    3    3    0  502 -0.21429382779E+03 -0.44380411565E+03  0.26024590388E+03  0.55732563927E+03  0.00000000000E+00 0. -1.
        -13    1    1    2    0    0  0.35484901382E+03  0.36197062525E+01 -0.66429841720E+02  0.36103166055E+03  0.10566000000E+00 0.  1.
<mgrwt>
<rscale>  1 0.80467849E+03</rscale>
<asrwt>0</asrwt>
<pdfrwt beam="1">  1       21 0.10909995E+00 0.10571610E+04</pdfrwt>
<pdfrwt beam="2">  1       -4 0.10938659E+00 0.10571610E+04</pdfrwt>
<totfact> 0.16325770E+01</totfact>
</mgrwt>
</event>
<event>
 6    2  0.2294477E-005  0.1008186E+04  0.7818608E-02  0.9689625E-01
         21   -1    0    0  501  502  0.00000000000E+00  0.00000000000E+00  0.44296355557E+03  0.44296355557E+03  0.00000000000E+00 0. -1.
         -4   -1    0    0    0  501 -0.00000000000E+00 -0.00000000000E+00 -0.11823113812E+04  0.11823113812E+04  0.00000000000E+00 0. -1.
   -9000010    2    1    2    0  502 -0.21029832301E+03 -0.14774469526E+03 -0.20001403031E+03  0.10278347025E+04  0.97487675303E+03 0.  0.
         13    1    3    3    0    0  0.67270567861E+02  0.53847178259E+01 -0.55086429089E+03  0.55498270480E+03  0.10566000000E+00 0. -1.
         -4    1    3    3    0  502 -0.27756889087E+03 -0.15312941309E+03  0.35085026058E+03  0.47285199765E+03  0.00000000000E+00 0. -1.
        -13    1    1    2    0    0  0.21029832301E+03  0.14774469526E+03 -0.53933379534E+03  0.59744023433E+03  0.10566000000E+00 0.  1.
<mgrwt>
<rscale>  1 0.71637880E+03</rscale>
<asrwt>0</asrwt>
<pdfrwt beam="1">  1       21 0.68148240E-01 0.10081858E+04</pdfrwt>
<pdfrwt beam="2">  1       -4 0.18189406E+00 0.10081858E+04</pdfrwt>
<totfact> 0.13178577E+01</totfact>
</mgrwt>
</event>
<event>
 6    2  0.2294477E-005  0.9974065E+03  0.7818608E-02  0.1005593E+00
         21   -1    0    0  501  502  0.00000000000E+00  0.00000000000E+00  0.85960454873E+03  0.85960454873E+03  0.00000000000E+00 0. -1.
         -4   -1    0    0    0  501 -0.00000000000E+00 -0.00000000000E+00 -0.46563457257E+03  0.46563457257E+03  0.00000000000E+00 0. -1.
   -9000010    2    1    2    0  502 -0.54856922405E+02 -0.59760431945E+02  0.55753921189E+03  0.11426590096E+04  0.99410213167E+03 0.  0.
         13    1    3    3    0    0 -0.44893370810E+03  0.21025749561E+03  0.15921565953E+03  0.52067199476E+03  0.10566000000E+00 0. -1.
         -4    1    3    3    0  502  0.39407678569E+03 -0.27001792756E+03  0.39832355236E+03  0.62198701481E+03  0.00000000000E+00 0. -1.
        -13    1    1    2    0    0  0.54856922405E+02  0.59760431945E+02 -0.16356923573E+03  0.18258011174E+03  0.10566000000E+00 0.  1.
<mgrwt>
<rscale>  1 0.53264437E+03</rscale>
<asrwt>0</asrwt>
<pdfrwt beam="1">  1       21 0.13224685E+00 0.99740646E+03</pdfrwt>
<pdfrwt beam="2">  1       -4 0.71636088E-01 0.99740646E+03</pdfrwt>
<totfact> 0.26942709E+01</totfact>
</mgrwt>
</event>
<event>
 6    2  0.2294477E-005  0.1021910E+04  0.7818608E-02  0.9677794E-01
         -4   -1    0    0    0  501 -0.00000000000E+00  0.00000000000E+00  0.29626880289E+03  0.29626880289E+03  0.00000000000E+00 0. -1.
         21   -1    0    0  501  502  0.00000000000E+00 -0.00000000000E+00 -0.14077498629E+04  0.14077498629E+04  0.00000000000E+00 0. -1.
   -9000010    2    1    2    0  502 -0.24176655277E+03  0.86624478376E+02 -0.97840617110E+03  0.14147717064E+04  0.98911348149E+03 0.  0.
         13    1    3    3    0    0 -0.58485675084E+03  0.25691234990E+01 -0.86424829616E+03  0.10435464283E+04  0.10566000000E+00 0. -1.
         -4    1    3    3    0  502  0.34309019807E+03  0.84055354877E+02 -0.11415787494E+03  0.37122527811E+03  0.00000000000E+00 0. -1.
        -13    1    1    2    0    0  0.24176655277E+03 -0.86624478376E+02 -0.13307488888E+03  0.28924695938E+03  0.10566000000E+00 0.  1.
<mgrwt>
<rscale>  1 0.72354475E+03</rscale>
<asrwt>0</asrwt>
<pdfrwt beam="2">  1       21 0.21657690E+00 0.10219101E+04</pdfrwt>
<pdfrwt beam="1">  1       -4 0.45579816E-01 0.10219101E+04</pdfrwt>
<totfact> 0.16675581E+01</totfact>
</mgrwt>
</event>
<event>
 6    2  0.2294477E-005  0.8900668E+03  0.7818608E-02  0.1021680E+00
         21   -1    0    0  501  502  0.00000000000E+00  0.00000000000E+00  0.26862549340E+03  0.26862549340E+03  0.00000000000E+00 0. -1.
         -4   -1    0    0    0  501 -0.00000000000E+00 -0.00000000000E+00 -0.89069706368E+03  0.89069706368E+03  0.00000000000E+00 0. -1.
   -9000010    2    1    2    0  502 -0.65167312261E+02 -0.24742316607E+02 -0.50576551652E+03  0.10237273133E+04  0.88733302292E+03 0.  0.
         13    1    3    3    0    0 -0.64685138976E+02 -0.45327208031E+03 -0.21475815018E+03  0.50572801013E+03  0.10566000000E+00 0. -1.
         -4    1    3    3    0  502 -0.48217328517E+00  0.42852976370E+03 -0.29100736633E+03  0.51799930321E+03  0.00000000000E+00 0. -1.
        -13    1    1    2    0    0  0.65167312261E+02  0.24742316607E+02 -0.11630605377E+03  0.13559524374E+03  0.10566000000E+00 0.  1.
<mgrwt>
<rscale>  1 0.47085262E+03</rscale>
<asrwt>0</asrwt>
<pdfrwt beam="1">  1       21 0.41326998E-01 0.89006677E+03</pdfrwt>
<pdfrwt beam="2">  1       -4 0.13703032E+00 0.89006677E+03</pdfrwt>
<totfact> 0.86339000E+01</totfact>
</mgrwt>
</event>
<event>
 6    2  0.2294477E-005  0.1246685E+04  0.7818608E-02  0.9205700E-01
         -4   -1    0    0    0  501 -0.00000000000E+00  0.00000000000E+00  0.16405570608E+04  0.16405570608E+04  0.00000000000E+00 0. -1.
         21   -1    0    0  501  502  0.00000000000E+00 -0.00000000000E+00 -0.83674711970E+03  0.83674711970E+03  0.00000000000E+00 0. -1.
   -9000010    2    1    2    0  502  0.33976740187E+03  0.67331383202E+03 -0.15625204657E+03  0.12564387354E+04  0.99268836496E+03 0.  0.
         13    1    3    3    0    0 -0.20267660844E+03  0.66779121424E+03 -0.15061046644E+03  0.71393727819E+03  0.10566000000E+00 0. -1.
         -4    1    3    3    0  502  0.54244401031E+03  0.55226177830E+01 -0.56415801373E+01  0.54250145719E+03  0.00000000000E+00 0. -1.
        -13    1    1    2    0    0 -0.33976740187E+03 -0.67331383202E+03  0.96006198771E+03  0.12208654452E+04  0.10566000000E+00 0.  1.
<mgrwt>
<rscale>  1 0.10994789E+04</rscale>
<asrwt>0</asrwt>
<pdfrwt beam="2">  1       21 0.12873033E+00 0.12466850E+04</pdfrwt>
<pdfrwt beam="1">  1       -4 0.25239339E+00 0.12466850E+04</pdfrwt>
<totfact> 0.93919358E-01</totfact>
</mgrwt>
</event>
<event>
 6    2  0.2294477E-005  0.1091700E+04  0.7818608E-02  0.9480580E-01
         -4   -1    0    0    0  501 -0.00000000000E+00  0.00000000000E+00  0.22375635047E+04  0.22375635047E+04  0.00000000000E+00 0. -1.
         21   -1    0    0  501  502  0.00000000000E+00 -0.00000000000E+00 -0.30033568710E+03  0.30033568710E+03  0.00000000000E+00 0.  1.
   -9000010    2    1    2    0  502 -0.35493125032E+03  0.21540678198E+03  0.88047956802E+03  0.14025168120E+04  0.10096696807E+04 0.  0.
         13    1    3    3    0    0 -0.51192664355E+03  0.23731743205E+03  0.10364761910E+04  0.11801149764E+04  0.10566000000E+00 0. -1.
         -4    1    3    3    0  502  0.15699539324E+03 -0.21910650068E+02 -0.15599662299E+03  0.22240183558E+03  0.00000000000E+00 0. -1.
        -13    1    1    2    0    0  0.35493125032E+03 -0.21540678198E+03  0.10567482496E+04  0.11353823798E+04  0.10566000000E+00 0.  1.
<mgrwt>
<rscale>  1 0.85730865E+03</rscale>
<asrwt>0</asrwt>
<pdfrwt beam="2">  1       21 0.46205492E-01 0.10917001E+04</pdfrwt>
<pdfrwt beam="1">  1       -4 0.34424053E+00 0.10917001E+04</pdfrwt>
<totfact> 0.28786789E+00</totfact>
</mgrwt>
</event>
<event>
 6    2  0.2294477E-005  0.1122405E+04  0.7818608E-02  0.9372668E-01
         21   -1    0    0  501  502  0.00000000000E+00  0.00000000000E+00  0.14259385373E+04  0.14259385373E+04  0.00000000000E+00 0. -1.
         -4   -1    0    0    0  501 -0.00000000000E+00 -0.00000000000E+00 -0.50278544709E+03  0.50278544709E+03  0.00000000000E+00 0. -1.
   -9000010    2    1    2    0  502  0.56065380645E+03  0.84802859079E+00  0.71436568464E+03  0.13304551471E+04  0.97234724102E+03 0.  0.
         13    1    3    3    0    0  0.61836428096E+03  0.36762719063E+03  0.61412039022E+03  0.94586891275E+03  0.10566000000E+00 0. -1.
         -4    1    3    3    0  502 -0.57710474508E+02 -0.36677916204E+03  0.10024529442E+03  0.38458623432E+03  0.00000000000E+00 0. -1.
        -13    1    1    2    0    0 -0.56065380645E+03 -0.84802859079E+00  0.20878740558E+03  0.59826883734E+03  0.10566000000E+00 0.  1.
<mgrwt>
<rscale>  1 0.94359572E+03</rscale>
<asrwt>0</asrwt>
<pdfrwt beam="1">  1       21 0.21937516E+00 0.11224048E+04</pdfrwt>
<pdfrwt beam="2">  1       -4 0.77351608E-01 0.11224048E+04</pdfrwt>
<totfact> 0.49812807E+00</totfact>
</mgrwt>
</event>
<event>
 6    2  0.2294477E-005  0.1010830E+04  0.7818608E-02  0.9688534E-01
         21   -1    0    0  501  502  0.00000000000E+00  0.00000000000E+00  0.28819168202E+03  0.28819168202E+03  0.00000000000E+00 0. -1.
         -4   -1    0    0    0  501 -0.00000000000E+00 -0.00000000000E+00 -0.14087523883E+04  0.14087523883E+04  0.00000000000E+00 0. -1.
   -9000010    2    1    2    0  502  0.25462417554E+03 -0.25870383620E+02 -0.81574114528E+03  0.12989268302E+04  0.97789291160E+03 0.  0.
         13    1    3    3    0    0  0.46100277550E+03  0.22749670496E+03 -0.11653045196E+03  0.52712206099E+03  0.10566000000E+00 0. -1.
         -4    1    3    3    0  502 -0.20637859996E+03 -0.25336708858E+03 -0.69921069332E+03  0.77180476919E+03  0.00000000000E+00 0. -1.
        -13    1    1    2    0    0 -0.25462417554E+03  0.25870383620E+02 -0.30481956105E+03  0.39801724018E+03  0.10566000000E+00 0.  1.
<mgrwt>
<rscale>  1 0.71703613E+03</rscale>
<asrwt>0</asrwt>
<pdfrwt beam="1">  1       21 0.44337181E-01 0.10108300E+04</pdfrwt>
<pdfrwt beam="2">  1       -4 0.21673114E+00 0.10108300E+04</pdfrwt>
<totfact> 0.19888983E+01</totfact>
</mgrwt>
</event>
<event>
 6    2  0.2294477E-005  0.1015647E+04  0.7818608E-02  0.9777291E-01
         21   -1    0    0  501  502  0.00000000000E+00  0.00000000000E+00  0.13334373656E+04  0.13334373656E+04  0.00000000000E+00 0. -1.
         -4   -1    0    0    0  501 -0.00000000000E+00 -0.00000000000E+00 -0.36878538182E+03  0.36878538182E+03  0.00000000000E+00 0. -1.
   -9000010    2    1    2    0  502  0.11578816241E+03 -0.14777996637E+03  0.10794685470E+04  0.14821575949E+04  0.99814476655E+03 0.  0.
         13    1    3    3    0    0 -0.29601456118E+03  0.23388939376E+03  0.17105979294E+03  0.41423463505E+03  0.10566000000E+00 0. -1.
         -4    1    3    3    0  502  0.41180272359E+03 -0.38166936013E+03  0.90840875409E+03  0.10679229598E+04  0.00000000000E+00 0. -1.
        -13    1    1    2    0    0 -0.11578816241E+03  0.14777996637E+03 -0.11481656324E+03  0.22006515256E+03  0.10566000000E+00 0.  1.
<mgrwt>
<rscale>  1 0.66595602E+03</rscale>
<asrwt>0</asrwt>
<pdfrwt beam="1">  1       21 0.20514421E+00 0.10156470E+04</pdfrwt>
<pdfrwt beam="2">  1       -4 0.56736213E-01 0.10156470E+04</pdfrwt>
<totfact> 0.12529550E+01</totfact>
</mgrwt>
</event>
<event>
 6    2  0.2294477E-005  0.9801052E+03  0.7818608E-02  0.9925986E-01
         -4   -1    0    0    0  501 -0.00000000000E+00  0.00000000000E+00  0.39429852322E+03  0.39429852322E+03  0.00000000000E+00 0. -1.
         21   -1    0    0  501  502  0.00000000000E+00 -0.00000000000E+00 -0.81683051352E+03  0.81683051352E+03  0.00000000000E+00 0. -1.
   -9000010    2    1    2    0  502  0.70573502217E+02 -0.10781928579E+03 -0.45142098169E+03  0.10790676775E+04  0.97159689810E+03 0.  0.
         13    1    3    3    0    0  0.41846845711E+03 -0.35792160972E+03 -0.27779005169E+03  0.61675850402E+03  0.10566000000E+00 0. -1.
         -4    1    3    3    0  502 -0.34789495489E+03  0.25010232393E+03 -0.17363093000E+03  0.46230917353E+03  0.00000000000E+00 0. -1.
        -13    1    1    2    0    0 -0.70573502217E+02  0.10781928579E+03  0.28888991398E+02  0.13206135919E+03  0.10566000000E+00 0.  1.
<mgrwt>
<rscale>  1 0.59018263E+03</rscale>
<asrwt>0</asrwt>
<pdfrwt beam="2">  1       21 0.12566623E+00 0.98010517E+03</pdfrwt>
<pdfrwt beam="1">  1       -4 0.60661312E-01 0.98010517E+03</pdfrwt>
<totfact> 0.44650638E+01</totfact>
</mgrwt>
</event>
<event>
 6    2  0.2294477E-005  0.1223598E+04  0.7818608E-02  0.9239544E-01
         21   -1    0    0  501  502  0.00000000000E+00  0.00000000000E+00  0.21040388925E+04  0.21040388925E+04  0.00000000000E+00 0.  1.
         -4   -1    0    0    0  501 -0.00000000000E+00 -0.00000000000E+00 -0.45924582259E+03  0.45924582259E+03  0.00000000000E+00 0. -1.
   -9000010    2    1    2    0  502 -0.55011814633E+03  0.43834454870E+03  0.12805894847E+04  0.17711861221E+04  0.10012067382E+04 0.  0.
         13    1    3    3    0    0 -0.69195937148E+03 -0.36633870255E+02  0.94799408612E+03  0.11742412915E+04  0.10566000000E+00 0. -1.
         -4    1    3    3    0  502  0.14184122514E+03  0.47497841896E+03  0.33259539856E+03  0.59694483059E+03  0.00000000000E+00 0. -1.
        -13    1    1    2    0    0  0.55011814633E+03 -0.43834454870E+03  0.36420358519E+03  0.79209859293E+03  0.10566000000E+00 0.  1.
<mgrwt>
<rscale>  1 0.10654425E+04</rscale>
<asrwt>0</asrwt>
<pdfrwt beam="1">  1       21 0.32369828E+00 0.12235975E+04</pdfrwt>
<pdfrwt beam="2">  1       -4 0.70653205E-01 0.12235975E+04</pdfrwt>
<totfact> 0.13102160E+00</totfact>
</mgrwt>
</event>
<event>
 6    2  0.2294477E-005  0.1022429E+04  0.7818608E-02  0.9776559E-01
         21   -1    0    0  501  502  0.00000000000E+00  0.00000000000E+00  0.53953660522E+03  0.53953660522E+03  0.00000000000E+00 0. -1.
         -4   -1    0    0    0  501 -0.00000000000E+00 -0.00000000000E+00 -0.79513195343E+03  0.79513195343E+03  0.00000000000E+00 0. -1.
   -9000010    2    1    2    0  502 -0.18166712868E+03  0.32050160655E+02 -0.36841636566E+01  0.10224356096E+04  0.10056494639E+04 0.  0.
         13    1    3    3    0    0  0.34121072084E+03 -0.23032698396E+03  0.11079950289E+03  0.42632360545E+03  0.10566000000E+00 0. -1.
         -4    1    3    3    0  502 -0.52287784952E+03  0.26237714461E+03 -0.11448366655E+03  0.59611200411E+03  0.00000000000E+00 0. -1.
        -13    1    1    2    0    0  0.18166712868E+03 -0.32050160655E+02 -0.25191118455E+03  0.31223294910E+03  0.10566000000E+00 0.  1.
<mgrwt>
<rscale>  1 0.66635840E+03</rscale>
<asrwt>0</asrwt>
<pdfrwt beam="1">  1       21 0.83005632E-01 0.10224290E+04</pdfrwt>
<pdfrwt beam="2">  1       -4 0.12232799E+00 0.10224290E+04</pdfrwt>
<totfact> 0.24231808E+01</totfact>
</mgrwt>
</event>
<event>
 6    2  0.2294477E-005  0.2096412E+04  0.7818608E-02  0.8593737E-01
         -4   -1    0    0    0  501 -0.00000000000E+00  0.00000000000E+00  0.28773678948E+04  0.28773678948E+04  0.00000000000E+00 0. -1.
         21   -1    0    0  501  502  0.00000000000E+00 -0.00000000000E+00 -0.14335075232E+04  0.14335075232E+04  0.00000000000E+00 0.  1.
   -9000010    2    1    2    0  502 -0.71964640002E+03  0.16881160492E+04  0.22631236482E+03  0.21085925350E+04  0.10135671935E+04 0.  0.
         13    1    3    3    0    0  0.12257220529E+02  0.10423797761E+04 -0.16801429752E+03  0.10559046607E+04  0.10566000000E+00 0. -1.
         -4    1    3    3    0  502 -0.73190362055E+03  0.64573627304E+03  0.39432666234E+03  0.10526878743E+04  0.00000000000E+00 0. -1.
        -13    1    1    2    0    0  0.71964640002E+03 -0.16881160492E+04  0.12175480068E+04  0.22022828829E+04  0.10566000000E+00 0.  1.
<mgrwt>
<rscale>  1 0.20277903E+04</rscale>
<asrwt>0</asrwt>
<pdfrwt beam="2">  1       21 0.22053962E+00 0.20964125E+04</pdfrwt>
<pdfrwt beam="1">  1       -4 0.44267198E+00 0.20964125E+04</pdfrwt>
<totfact> 0.91292624E-03</totfact>
</mgrwt>
</event>
<event>
 6    2  0.2294477E-005  0.9011210E+03  0.7818608E-02  0.9949817E-01
         21   -1    0    0  501  502  0.00000000000E+00  0.00000000000E+00  0.19377927037E+04  0.19377927037E+04  0.00000000000E+00 0. -1.
         -4   -1    0    0    0  501 -0.00000000000E+00 -0.00000000000E+00 -0.21524537501E+03  0.21524537501E+03  0.00000000000E+00 0. -1.
   -9000010    2    1    2    0  502  0.82111229199E+02 -0.12988094345E+03  0.17750274285E+04  0.19906635565E+04  0.88792325684E+03 0.  0.
         13    1    3    3    0    0 -0.23380766726E+03 -0.39602534058E+03  0.11786579473E+04  0.12652022224E+04  0.10566000000E+00 0. -1.
         -4    1    3    3    0  502  0.31591889646E+03  0.26614439713E+03  0.59636948119E+03  0.72546133415E+03  0.00000000000E+00 0. -1.
        -13    1    1    2    0    0 -0.82111229199E+02  0.12988094345E+03 -0.52480099740E+02  0.16237452222E+03  0.10566000000E+00 0.  1.
<mgrwt>
<rscale>  1 0.57906507E+03</rscale>
<asrwt>0</asrwt>
<pdfrwt beam="1">  1       21 0.29812194E+00 0.90112098E+03</pdfrwt>
<pdfrwt beam="2">  1       -4 0.33114674E-01 0.90112098E+03</pdfrwt>
<totfact> 0.98773359E+00</totfact>
</mgrwt>
</event>
<event>
 6    2  0.2294477E-005  0.1050240E+04  0.7818608E-02  0.9628518E-01
         -4   -1    0    0    0  501 -0.00000000000E+00  0.00000000000E+00  0.69562400235E+03  0.69562400235E+03  0.00000000000E+00 0. -1.
         21   -1    0    0  501  502  0.00000000000E+00 -0.00000000000E+00 -0.69359006257E+03  0.69359006257E+03  0.00000000000E+00 0. -1.
   -9000010    2    1    2    0  502 -0.36812667262E+02 -0.27712560602E+03 -0.16564635669E+03  0.10632225513E+04  0.10123486080E+04 0.  0.
         13    1    3    3    0    0  0.14260236684E+03  0.35902918796E+03 -0.22752831090E+02  0.38698203488E+03  0.10566000000E+00 0. -1.
         -4    1    3    3    0  502 -0.17941503410E+03 -0.63615479397E+03 -0.14289352560E+03  0.67624051640E+03  0.00000000000E+00 0. -1.
        -13    1    1    2    0    0  0.36812667262E+02  0.27712560602E+03  0.16768029647E+03  0.32599151365E+03  0.10566000000E+00 0.  1.
<mgrwt>
<rscale>  1 0.75437117E+03</rscale>
<asrwt>0</asrwt>
<pdfrwt beam="2">  1       21 0.10670616E+00 0.10502397E+04</pdfrwt>
<pdfrwt beam="1">  1       -4 0.10701908E+00 0.10502397E+04</pdfrwt>
<totfact> 0.18233521E+01</totfact>
</mgrwt>
</event>
<event>
 6    2  0.2294477E-005  0.1078954E+04  0.7818608E-02  0.9516934E-01
         21   -1    0    0  501  502  0.00000000000E+00  0.00000000000E+00  0.54222327384E+03  0.54222327384E+03  0.00000000000E+00 0. -1.
         -4   -1    0    0    0  501 -0.00000000000E+00 -0.00000000000E+00 -0.10133185136E+04  0.10133185136E+04  0.00000000000E+00 0. -1.
   -9000010    2    1    2    0  502 -0.13878221800E+03 -0.35234151287E+03 -0.21995676418E+03  0.11011459349E+04  0.10103149737E+04 0.  0.
         13    1    3    3    0    0 -0.37459447404E+03 -0.56861731662E+03  0.49661032435E+02  0.68272461655E+03  0.10566000000E+00 0. -1.
         -4    1    3    3    0  502  0.23581225604E+03  0.21627580374E+03 -0.26961779662E+03  0.41842131833E+03  0.00000000000E+00 0. -1.
        -13    1    1    2    0    0  0.13878221800E+03  0.35234151287E+03 -0.25113847553E+03  0.45439585252E+03  0.10566000000E+00 0.  1.
<mgrwt>
<rscale>  1 0.83046763E+03</rscale>
<asrwt>0</asrwt>
<pdfrwt beam="1">  1       21 0.83418966E-01 0.10789538E+04</pdfrwt>
<pdfrwt beam="2">  1       -4 0.15589516E+00 0.10789538E+04</pdfrwt>
<totfact> 0.12612758E+01</totfact>
</mgrwt>
</event>
<event>
 6    2  0.2294477E-005  0.1003283E+04  0.7818608E-02  0.9970629E-01
         21   -1    0    0  501  502  0.00000000000E+00  0.00000000000E+00  0.20223132305E+04  0.20223132305E+04  0.00000000000E+00 0. -1.
         -4   -1    0    0    0  501 -0.00000000000E+00 -0.00000000000E+00 -0.15164275502E+03  0.15164275502E+03  0.00000000000E+00 0. -1.
   -9000010    2    1    2    0  502  0.98817264670E+02  0.33097183685E+02  0.16880112989E+04  0.19636593823E+04  0.99785557531E+03 0.  0.
         13    1    3    3    0    0  0.42765107195E+03 -0.20817140092E+03  0.43000196317E+03  0.64118832725E+03  0.10566000000E+00 0. -1.
         -4    1    3    3    0  502 -0.32883380728E+03  0.24126858460E+03  0.12580093357E+04  0.13224710550E+04  0.00000000000E+00 0. -1.
        -13    1    1    2    0    0 -0.98817264670E+02 -0.33097183685E+02  0.18265917662E+03  0.21029660323E+03  0.10566000000E+00 0.  1.
<mgrwt>
<rscale>  1 0.56957076E+03</rscale>
<asrwt>0</asrwt>
<pdfrwt beam="1">  1       21 0.31112509E+00 0.10032826E+04</pdfrwt>
<pdfrwt beam="2">  1       -4 0.23329656E-01 0.10032826E+04</pdfrwt>
<totfact> 0.15878964E+01</totfact>
</mgrwt>
</event>
<event>
 6    2  0.2294477E-005  0.1053483E+04  0.7818608E-02  0.9532500E-01
         21   -1    0    0  501  502  0.00000000000E+00  0.00000000000E+00  0.15775872537E+04  0.15775872537E+04  0.00000000000E+00 0. -1.
         -4   -1    0    0    0  501 -0.00000000000E+00 -0.00000000000E+00 -0.32857801130E+03  0.32857801130E+03  0.00000000000E+00 0. -1.
   -9000010    2    1    2    0  502  0.29392313543E+03  0.24923986699E+03  0.88118953734E+03  0.13734339374E+04  0.98046644957E+03 0.  0.
         13    1    3    3    0    0 -0.22439741239E+03  0.41993296831E+03  0.57907150928E+03  0.74968107925E+03  0.10566000000E+00 0. -1.
         -4    1    3    3    0  502  0.51832054782E+03 -0.17069310131E+03  0.30211802806E+03  0.62375285811E+03  0.00000000000E+00 0. -1.
        -13    1    1    2    0    0 -0.29392313543E+03 -0.24923986699E+03  0.36781970503E+03  0.53273132760E+03  0.10566000000E+00 0.  1.
<mgrwt>
<rscale>  1 0.81929548E+03</rscale>
<asrwt>0</asrwt>
<pdfrwt beam="1">  1       21 0.24270573E+00 0.10534827E+04</pdfrwt>
<pdfrwt beam="2">  1       -4 0.50550464E-01 0.10534827E+04</pdfrwt>
<totfact> 0.90246690E+00</totfact>
</mgrwt>
</event>
<event>
 6    2  0.2294477E-005  0.1047428E+04  0.7818608E-02  0.9766933E-01
         -4   -1    0    0    0  501 -0.00000000000E+00  0.00000000000E+00  0.38145334237E+03  0.38145334237E+03  0.00000000000E+00 0. -1.
         21   -1    0    0  501  502  0.00000000000E+00 -0.00000000000E+00 -0.11792984136E+04  0.11792984136E+04  0.00000000000E+00 0. -1.
   -9000010    2    1    2    0  502 -0.91485693881E+02 -0.15166448300E+03 -0.87761486398E+03  0.13664968240E+04  0.10323439218E+04 0.  0.
         13    1    3    3    0    0 -0.39874399985E+03  0.10634768893E+03 -0.12500240898E+02  0.41287150004E+03  0.10566000000E+00 0. -1.
         -4    1    3    3    0  502  0.30725830597E+03 -0.25801217193E+03 -0.86511462308E+03  0.95362532397E+03  0.00000000000E+00 0. -1.
        -13    1    1    2    0    0  0.91485693881E+02  0.15166448300E+03  0.79769792762E+02  0.19425493196E+03  0.10566000000E+00 0.  1.
<mgrwt>
<rscale>  1 0.67167709E+03</rscale>
<asrwt>0</asrwt>
<pdfrwt beam="2">  1       21 0.18143052E+00 0.10474281E+04</pdfrwt>
<pdfrwt beam="1">  1       -4 0.58685131E-01 0.10474281E+04</pdfrwt>
<totfact> 0.17005347E+01</totfact>
</mgrwt>
</event>
<event>
 6    2  0.2294477E-005  0.1125576E+04  0.7818608E-02  0.9387127E-01
         21   -1    0    0  501  502  0.00000000000E+00  0.00000000000E+00  0.58022330765E+03  0.58022330765E+03  0.00000000000E+00 0. -1.
         -4   -1    0    0    0  501 -0.00000000000E+00 -0.00000000000E+00 -0.11857225947E+04  0.11857225947E+04  0.00000000000E+00 0. -1.
   -9000010    2    1    2    0  502  0.51574991403E+03  0.11214876678E+03 -0.34435736513E+03  0.11770737310E+04  0.99415554793E+03 0.  0.
         13    1    3    3    0    0 -0.19240030207E+03  0.33094613860E+03 -0.87837020573E+02  0.39275765586E+03  0.10566000000E+00 0. -1.
         -4    1    3    3    0  502  0.70815021610E+03 -0.21879737182E+03 -0.25652034456E+03  0.78431607509E+03  0.00000000000E+00 0. -1.
        -13    1    1    2    0    0 -0.51574991403E+03 -0.11214876678E+03 -0.26114192194E+03  0.58887217142E+03  0.10566000000E+00 0.  1.
<mgrwt>
<rscale>  1 0.93142706E+03</rscale>
<asrwt>0</asrwt>
<pdfrwt beam="1">  1       21 0.89265125E-01 0.11255757E+04</pdfrwt>
<pdfrwt beam="2">  1       -4 0.18241886E+00 0.11255757E+04</pdfrwt>
<totfact> 0.68515561E+00</totfact>
</mgrwt>
</event>
<event>
 6    2  0.2294477E-005  0.1159534E+04  0.7818608E-02  0.9380604E-01
         21   -1    0    0  501  502  0.00000000000E+00  0.00000000000E+00  0.55806053569E+03  0.55806053569E+03  0.00000000000E+00 0. -1.
         -4   -1    0    0    0  501 -0.00000000000E+00 -0.00000000000E+00 -0.14305753237E+04  0.14305753237E+04  0.00000000000E+00 0. -1.
   -9000010    2    1    2    0  502  0.86024271990E+02  0.48666206028E+03 -0.23687989285E+03  0.11834825402E+04  0.10489417062E+04 0.  0.
         13    1    3    3    0    0  0.10928231282E+02 -0.32846393829E+03  0.90160767558E+01  0.32876935045E+03  0.10566000000E+00 0. -1.
         -4    1    3    3    0  502  0.75096040707E+02  0.81512599857E+03 -0.24589596961E+03  0.85471318975E+03  0.00000000000E+00 0. -1.
        -13    1    1    2    0    0 -0.86024271990E+02 -0.48666206028E+03 -0.63563489516E+03  0.80515331919E+03  0.10566000000E+00 0.  1.
<mgrwt>
<rscale>  1 0.93689240E+03</rscale>
<asrwt>0</asrwt>
<pdfrwt beam="1">  1       21 0.85855470E-01 0.11595339E+04</pdfrwt>
<pdfrwt beam="2">  1       -4 0.22008850E+00 0.11595339E+04</pdfrwt>
<totfact> 0.42137239E+00</totfact>
</mgrwt>
</event>
<event>
 6    2  0.2294477E-005  0.9464240E+03  0.7818608E-02  0.1029591E+00
         21   -1    0    0  501  502  0.00000000000E+00  0.00000000000E+00  0.91831403069E+03  0.91831403069E+03  0.00000000000E+00 0. -1.
         -4   -1    0    0    0  501 -0.00000000000E+00 -0.00000000000E+00 -0.30989454681E+03  0.30989454681E+03  0.00000000000E+00 0. -1.
   -9000010    2    1    2    0  502  0.30630785251E+02 -0.33989258494E+02  0.66407209908E+03  0.11561617910E+04  0.94531731157E+03 0.  0.
         13    1    3    3    0    0 -0.48287263470E+02 -0.25137718151E+03  0.83191520658E+03  0.87040511792E+03  0.10566000000E+00 0. -1.
         -4    1    3    3    0  502  0.78918048721E+02  0.21738792301E+03 -0.16784310750E+03  0.28575667310E+03  0.00000000000E+00 0. -1.
        -13    1    1    2    0    0 -0.30630785251E+02  0.33989258494E+02 -0.55652615204E+02  0.72046786473E+02  0.10566000000E+00 0.  1.
<mgrwt>
<rscale>  1 0.44378650E+03</rscale>
<asrwt>0</asrwt>
<pdfrwt beam="1">  1       21 0.14127908E+00 0.94642397E+03</pdfrwt>
<pdfrwt beam="2">  1       -4 0.47676085E-01 0.94642397E+03</pdfrwt>
<totfact> 0.54780870E+01</totfact>
</mgrwt>
</event>
<event>
 6    2  0.2294477E-005  0.1041616E+04  0.7818608E-02  0.9620456E-01
         -4   -1    0    0    0  501 -0.00000000000E+00  0.00000000000E+00  0.10638433949E+04  0.10638433949E+04  0.00000000000E+00 0. -1.
         21   -1    0    0  501  502  0.00000000000E+00 -0.00000000000E+00 -0.41985583693E+03  0.41985583693E+03  0.00000000000E+00 0. -1.
   -9000010    2    1    2    0  502 -0.28874243257E+03 -0.58163603560E+02  0.51864868583E+03  0.11635976211E+04  0.99910348187E+03 0.  0.
         13    1    3    3    0    0 -0.10086907122E+03  0.37461531697E+03  0.56947752294E+03  0.68906883947E+03  0.10566000000E+00 0. -1.
         -4    1    3    3    0  502 -0.18787336135E+03 -0.43277892053E+03 -0.50828837107E+02  0.47452878168E+03  0.00000000000E+00 0. -1.
        -13    1    1    2    0    0  0.28874243257E+03  0.58163603560E+02  0.12533887218E+03  0.32010161073E+03  0.10566000000E+00 0.  1.
<mgrwt>
<rscale>  1 0.75956963E+03</rscale>
<asrwt>0</asrwt>
<pdfrwt beam="2">  1       21 0.64593206E-01 0.10416156E+04</pdfrwt>
<pdfrwt beam="1">  1       -4 0.16366821E+00 0.10416156E+04</pdfrwt>
<totfact> 0.20017657E+01</totfact>
</mgrwt>
</event>
<event>
 6    2  0.2294477E-005  0.9973056E+03  0.7818608E-02  0.9842342E-01
         -4   -1    0    0    0  501 -0.00000000000E+00  0.00000000000E+00  0.18404105755E+04  0.18404105755E+04  0.00000000000E+00 0. -1.
         21   -1    0    0  501  502  0.00000000000E+00 -0.00000000000E+00 -0.18244255343E+03  0.18244255343E+03  0.00000000000E+00 0. -1.
   -9000010    2    1    2    0  502 -0.12302725453E+03  0.10263102605E+03  0.13927825584E+04  0.17130270904E+04  0.98435243918E+03 0.  0.
         13    1    3    3    0    0 -0.60767004508E+02  0.48633471429E+03  0.35598900491E+03  0.60575759668E+03  0.10566000000E+00 0. -1.
         -4    1    3    3    0  502 -0.62260250025E+02 -0.38370368824E+03  0.10367935535E+04  0.11072694937E+04  0.00000000000E+00 0. -1.
        -13    1    1    2    0    0  0.12302725453E+03 -0.10263102605E+03  0.26518546370E+03  0.30982603859E+03  0.10566000000E+00 0.  1.
<mgrwt>
<rscale>  1 0.63138898E+03</rscale>
<asrwt>0</asrwt>
<pdfrwt beam="2">  1       21 0.28068086E-01 0.99730565E+03</pdfrwt>
<pdfrwt beam="1">  1       -4 0.28314007E+00 0.99730565E+03</pdfrwt>
<totfact> 0.19731786E+01</totfact>
</mgrwt>
</event>
<event>
 6    2  0.2294477E-005  0.1045070E+04  0.7818608E-02  0.9682679E-01
         -4   -1    0    0    0  501 -0.00000000000E+00  0.00000000000E+00  0.14707032800E+04  0.14707032800E+04  0.00000000000E+00 0. -1.
         21   -1    0    0  501  502  0.00000000000E+00 -0.00000000000E+00 -0.27959512904E+03  0.27959512904E+03  0.00000000000E+00 0. -1.
   -9000010    2    1    2    0  502  0.14513517940E+03  0.18635000049E+03  0.94107543404E+03  0.14063406883E+04  0.10180278071E+04 0.  0.
         13    1    3    3    0    0  0.26220767837E+03 -0.26844230389E+03  0.84837383303E+03  0.92765958673E+03  0.10566000000E+00 0. -1.
         -4    1    3    3    0  502 -0.11707249897E+03  0.45479230438E+03  0.92701601011E+02  0.47868110154E+03  0.00000000000E+00 0. -1.
        -13    1    1    2    0    0 -0.14513517940E+03 -0.18635000049E+03  0.25003271692E+03  0.34395772077E+03  0.10566000000E+00 0.  1.
<mgrwt>
<rscale>  1 0.72057485E+03</rscale>
<asrwt>0</asrwt>
<pdfrwt beam="2">  1       21 0.43014636E-01 0.10450699E+04</pdfrwt>
<pdfrwt beam="1">  1       -4 0.22626204E+00 0.10450699E+04</pdfrwt>
<totfact> 0.18376693E+01</totfact>
</mgrwt>
</event>
<event>
 6    2  0.2294477E-005  0.1258073E+04  0.7818608E-02  0.9193107E-01
         -4   -1    0    0    0  501 -0.00000000000E+00  0.00000000000E+00  0.40773609584E+03  0.40773609584E+03  0.00000000000E+00 0. -1.
         21   -1    0    0  501  502  0.00000000000E+00 -0.00000000000E+00 -0.26714026117E+04  0.26714026117E+04  0.00000000000E+00 0. -1.
   -9000010    2    1    2    0  502  0.75568200624E+03  0.14376715407E+03 -0.17456032289E+04  0.21517154656E+04  0.99550214628E+03 0.  0.
         13    1    3    3    0    0  0.92380791062E+03 -0.93064956955E+02 -0.15311880891E+04  0.17907035258E+04  0.10566000000E+00 0. -1.
         -4    1    3    3    0  502 -0.16812590438E+03  0.23683211103E+03 -0.21441513974E+03  0.36101193981E+03  0.00000000000E+00 0. -1.
        -13    1    1    2    0    0 -0.75568200624E+03 -0.14376715407E+03 -0.51806328702E+03  0.92742324193E+03  0.10566000000E+00 0.  1.
<mgrwt>
<rscale>  1 0.11124857E+04</rscale>
<asrwt>0</asrwt>
<pdfrwt beam="2">  1       21 0.41098500E+00 0.12580735E+04</pdfrwt>
<pdfrwt beam="1">  1       -4 0.62728632E-01 0.12580735E+04</pdfrwt>
<totfact> 0.46476740E-01</totfact>
</mgrwt>
</event>
<event>
 6    2  0.2294477E-005  0.1159399E+04  0.7818608E-02  0.9365610E-01
         21   -1    0    0  501  502  0.00000000000E+00  0.00000000000E+00  0.86953896886E+03  0.86953896886E+03  0.00000000000E+00 0. -1.
         -4   -1    0    0    0  501 -0.00000000000E+00 -0.00000000000E+00 -0.90719588717E+03  0.90719588717E+03  0.00000000000E+00 0. -1.
   -9000010    2    1    2    0  502  0.39406370356E+03 -0.34198715921E+03  0.24253335230E+03  0.11844950242E+04  0.10353572407E+04 0.  0.
         13    1    3    3    0    0  0.57268492486E+03  0.67088072384E+02  0.41025066369E+03  0.70765418874E+03  0.10566000000E+00 0. -1.
         -4    1    3    3    0  502 -0.17862122130E+03 -0.40907523159E+03 -0.16771731138E+03  0.47684083543E+03  0.00000000000E+00 0. -1.
        -13    1    1    2    0    0 -0.39406370356E+03  0.34198715921E+03 -0.28019027062E+03  0.59223983186E+03  0.10566000000E+00 0.  1.
<mgrwt>
<rscale>  1 0.94960713E+03</rscale>
<asrwt>0</asrwt>
<pdfrwt beam="1">  1       21 0.13377523E+00 0.11593990E+04</pdfrwt>
<pdfrwt beam="2">  1       -4 0.13956860E+00 0.11593990E+04</pdfrwt>
<totfact> 0.51107948E+00</totfact>
</mgrwt>
</event>
<event>
 6    2  0.2294477E-005  0.9664467E+03  0.7818608E-02  0.9827774E-01
         21   -1    0    0  501  502  0.00000000000E+00  0.00000000000E+00  0.17048849996E+04  0.17048849996E+04  0.00000000000E+00 0. -1.
         -4   -1    0    0    0  501 -0.00000000000E+00 -0.00000000000E+00 -0.22541488371E+03  0.22541488371E+03  0.00000000000E+00 0. -1.
   -9000010    2    1    2    0  502  0.17939037871E+03  0.43635373061E+02  0.14511516307E+04  0.17435195269E+04  0.94864868720E+03 0.  0.
         13    1    3    3    0    0  0.13374122328E+03  0.45575922318E+02 -0.11163017470E+03  0.18006994909E+03  0.10566000000E+00 0. -1.
         -4    1    3    3    0  502  0.45649155426E+02 -0.19405492571E+01  0.15627818054E+04  0.15634495779E+04  0.00000000000E+00 0. -1.
        -13    1    1    2    0    0 -0.17939037871E+03 -0.43635373061E+02  0.28318485144E+02  0.18678035635E+03  0.10566000000E+00 0.  1.
<mgrwt>
<rscale>  1 0.63893076E+03</rscale>
<asrwt>0</asrwt>
<pdfrwt beam="1">  1       21 0.26228999E+00 0.96644673E+03</pdfrwt>
<pdfrwt beam="2">  1       -4 0.34679214E-01 0.96644673E+03</pdfrwt>
<totfact> 0.14894351E+01</totfact>
</mgrwt>
</event>
<event>
 6    2  0.2294477E-005  0.1066162E+04  0.7818608E-02  0.9535474E-01
         21   -1    0    0  501  502  0.00000000000E+00  0.00000000000E+00  0.10642565851E+04  0.10642565851E+04  0.00000000000E+00 0. -1.
         -4   -1    0    0    0  501 -0.00000000000E+00 -0.00000000000E+00 -0.48885349726E+03  0.48885349726E+03  0.00000000000E+00 0. -1.
   -9000010    2    1    2    0  502  0.31331657032E+03  0.19295231731E+03  0.49962485586E+03  0.11774237483E+04  0.10006516959E+04 0.  0.
         13    1    3    3    0    0  0.25433868833E+03 -0.35269293910E+03  0.45094786976E+03  0.62644590355E+03  0.10566000000E+00 0. -1.
         -4    1    3    3    0  502  0.58977881983E+02  0.54564525641E+03  0.48676986093E+02  0.55097784473E+03  0.00000000000E+00 0. -1.
        -13    1    1    2    0    0 -0.31331657032E+03 -0.19295231731E+03  0.75778231952E+02  0.37568633405E+03  0.10566000000E+00 0.  1.
<mgrwt>
<rscale>  1 0.81718225E+03</rscale>
<asrwt>0</asrwt>
<pdfrwt beam="1">  1       21 0.16373178E+00 0.10661621E+04</pdfrwt>
<pdfrwt beam="2">  1       -4 0.75208230E-01 0.10661621E+04</pdfrwt>
<totfact> 0.13247325E+01</totfact>
</mgrwt>
</event>
<event>
 6    2  0.2294477E-005  0.1022723E+04  0.7818608E-02  0.9708288E-01
         21   -1    0    0  501  502  0.00000000000E+00  0.00000000000E+00  0.34790726221E+03  0.34790726221E+03  0.00000000000E+00 0. -1.
         -4   -1    0    0    0  501 -0.00000000000E+00 -0.00000000000E+00 -0.14194045072E+04  0.14194045072E+04  0.00000000000E+00 0. -1.
   -9000010    2    1    2    0  502 -0.61428048609E+02  0.22295754363E+03 -0.47518450685E+03  0.11277241177E+04  0.99623184983E+03 0.  0.
         13    1    3    3    0    0  0.40667309025E+03  0.61101012860E+02 -0.48043339242E+03  0.63240223894E+03  0.10566000000E+00 0. -1.
         -4    1    3    3    0  502 -0.46810113886E+03  0.16185653077E+03  0.52488855642E+01  0.49532187874E+03  0.00000000000E+00 0. -1.
        -13    1    1    2    0    0  0.61428048609E+02 -0.22295754363E+03 -0.59631273816E+03  0.63958765175E+03  0.10566000000E+00 0.  1.
<mgrwt>
<rscale>  1 0.70525444E+03</rscale>
<asrwt>0</asrwt>
<pdfrwt beam="1">  1       21 0.53524195E-01 0.10227225E+04</pdfrwt>
<pdfrwt beam="2">  1       -4 0.21836992E+00 0.10227225E+04</pdfrwt>
<totfact> 0.12921793E+01</totfact>
</mgrwt>
</event>
<event>
 6    2  0.2294477E-005  0.1239590E+04  0.7818608E-02  0.9300739E-01
         -4   -1    0    0    0  501 -0.00000000000E+00  0.00000000000E+00  0.52295131171E+03  0.52295131171E+03  0.00000000000E+00 0. -1.
         21   -1    0    0  501  502  0.00000000000E+00 -0.00000000000E+00 -0.22294022267E+04  0.22294022267E+04  0.00000000000E+00 0. -1.
   -9000010    2    1    2    0  502 -0.29827501785E+03  0.45036528543E+03 -0.18183753300E+04  0.22006978827E+04  0.11156995355E+04 0.  0.
         13    1    3    3    0    0 -0.44795668615E+03 -0.23870270544E+02 -0.17130013922E+03  0.48018614239E+03  0.10566000000E+00 0. -1.
         -4    1    3    3    0  502  0.14968166830E+03  0.47423555597E+03 -0.16470751908E+04  0.17205117403E+04  0.00000000000E+00 0. -1.
        -13    1    1    2    0    0  0.29827501785E+03 -0.45036528543E+03  0.11192441506E+03  0.55165565568E+03  0.10566000000E+00 0.  1.
<mgrwt>
<rscale>  1 0.10071485E+04</rscale>
<asrwt>0</asrwt>
<pdfrwt beam="2">  1       21 0.34298496E+00 0.12395896E+04</pdfrwt>
<pdfrwt beam="1">  1       -4 0.80454048E-01 0.12395896E+04</pdfrwt>
<totfact> 0.73436218E-01</totfact>
</mgrwt>
</event>
<event>
 6    2  0.2294477E-005  0.1008206E+04  0.7818608E-02  0.9882786E-01
         -4   -1    0    0    0  501 -0.00000000000E+00  0.00000000000E+00  0.92226991362E+03  0.92226991362E+03  0.00000000000E+00 0. -1.
         21   -1    0    0  501  502  0.00000000000E+00 -0.00000000000E+00 -0.40129558585E+03  0.40129558585E+03  0.00000000000E+00 0. -1.
   -9000010    2    1    2    0  502  0.28526685194E+02  0.13299345650E+03  0.27919160991E+03  0.10461489804E+04  0.99898884022E+03 0.  0.
         13    1    3    3    0    0  0.39425981984E+03  0.55698397611E+02  0.47851901619E+03  0.62251391716E+03  0.10566000000E+00 0. -1.
         -4    1    3    3    0  502 -0.36573313465E+03  0.77295058887E+02 -0.19932740628E+03  0.42363506323E+03  0.00000000000E+00 0. -1.
        -13    1    1    2    0    0 -0.28526685194E+02 -0.13299345650E+03  0.24178271786E+03  0.27741651908E+03  0.10566000000E+00 0.  1.
<mgrwt>
<rscale>  1 0.61102861E+03</rscale>
<asrwt>0</asrwt>
<pdfrwt beam="2">  1       21 0.61737783E-01 0.10082062E+04</pdfrwt>
<pdfrwt beam="1">  1       -4 0.14188768E+00 0.10082062E+04</pdfrwt>
<totfact> 0.32713834E+01</totfact>
</mgrwt>
</event>
<event>
 6    2  0.2294477E-005  0.1038470E+04  0.7818608E-02  0.9786165E-01
         -4   -1    0    0    0  501 -0.00000000000E+00  0.00000000000E+00  0.67247692016E+03  0.67247692016E+03  0.00000000000E+00 0. -1.
         21   -1    0    0  501  502  0.00000000000E+00 -0.00000000000E+00 -0.62517822291E+03  0.62517822291E+03  0.00000000000E+00 0. -1.
   -9000010    2    1    2    0  502  0.95055230449E+02 -0.14162540141E+03 -0.13592447356E+03  0.10473273726E+04  0.10243661024E+04 0.  0.
         13    1    3    3    0    0 -0.17788185858E+03 -0.31300408700E+03 -0.46409799407E+03  0.58736740917E+03  0.10566000000E+00 0. -1.
         -4    1    3    3    0  502  0.27293708903E+03  0.17137868559E+03  0.32817352051E+03  0.45995996348E+03  0.00000000000E+00 0. -1.
        -13    1    1    2    0    0 -0.95055230449E+02  0.14162540141E+03  0.18322317081E+03  0.25032777043E+03  0.10566000000E+00 0.  1.
<mgrwt>
<rscale>  1 0.66110342E+03</rscale>
<asrwt>0</asrwt>
<pdfrwt beam="2">  1       21 0.96181265E-01 0.10384696E+04</pdfrwt>
<pdfrwt beam="1">  1       -4 0.10345799E+00 0.10384696E+04</pdfrwt>
<totfact> 0.25681282E+01</totfact>
</mgrwt>
</event>
<event>
 6    2  0.2294477E-005  0.1059341E+04  0.7818608E-02  0.9569746E-01
         -4   -1    0    0    0  501 -0.00000000000E+00  0.00000000000E+00  0.16918745025E+04  0.16918745025E+04  0.00000000000E+00 0. -1.
         21   -1    0    0  501  502  0.00000000000E+00 -0.00000000000E+00 -0.41287410928E+03  0.41287410928E+03  0.00000000000E+00 0. -1.
   -9000010    2    1    2    0  502  0.10967408019E+03 -0.31460583344E+03  0.34658667527E+03  0.11145968119E+04  0.10055836590E+04 0.  0.
         13    1    3    3    0    0  0.33360968799E+03  0.23309503474E+03 -0.38217569801E+02  0.40876559658E+03  0.10566000000E+00 0. -1.
         -4    1    3    3    0  502 -0.22393560780E+03 -0.54770086818E+03  0.38480424507E+03  0.70583121528E+03  0.00000000000E+00 0. -1.
        -13    1    1    2    0    0 -0.10967408019E+03  0.31460583344E+03  0.93241371800E+03  0.99015179997E+03  0.10566000000E+00 0.  1.
<mgrwt>
<rscale>  1 0.79331347E+03</rscale>
<asrwt>0</asrwt>
<pdfrwt beam="2">  1       21 0.63519095E-01 0.10593412E+04</pdfrwt>
<pdfrwt beam="1">  1       -4 0.26028838E+00 0.10593412E+04</pdfrwt>
<totfact> 0.48088443E+00</totfact>
</mgrwt>
</event>
<event>
 6    2  0.2294477E-005  0.1017304E+04  0.7818608E-02  0.9798309E-01
         -4   -1    0    0    0  501 -0.00000000000E+00  0.00000000000E+00  0.89547888866E+03  0.89547888866E+03  0.00000000000E+00 0. -1.
         21   -1    0    0  501  502  0.00000000000E+00 -0.00000000000E+00 -0.43286249308E+03  0.43286249308E+03  0.00000000000E+00 0. -1.
   -9000010    2    1    2    0  502  0.13638214120E+03 -0.10858795857E+03  0.23936063335E+03  0.10450842905E+04  0.10022555704E+04 0.  0.
         13    1    3    3    0    0  0.25181643966E+03 -0.52496379508E+03  0.97715125641E+02  0.59037849077E+03  0.10566000000E+00 0. -1.
         -4    1    3    3    0  502 -0.11543429846E+03  0.41637583651E+03  0.14164550771E+03  0.45470579977E+03  0.00000000000E+00 0. -1.
        -13    1    1    2    0    0 -0.13638214120E+03  0.10858795857E+03  0.22325576223E+03  0.28325709120E+03  0.10566000000E+00 0.  1.
<mgrwt>
<rscale>  1 0.65453371E+03</rscale>
<asrwt>0</asrwt>
<pdfrwt beam="2">  1       21 0.66594230E-01 0.10173041E+04</pdfrwt>
<pdfrwt beam="1">  1       -4 0.13776598E+00 0.10173041E+04</pdfrwt>
<totfact> 0.29778398E+01</totfact>
</mgrwt>
</event>
<event>
 6    2  0.2294477E-005  0.1034661E+04  0.7818608E-02  0.9812939E-01
         21   -1    0    0  501  502  0.00000000000E+00  0.00000000000E+00  0.23878287142E+03  0.23878287142E+03  0.00000000000E+00 0. -1.
         -4   -1    0    0    0  501 -0.00000000000E+00 -0.00000000000E+00 -0.15718160622E+04  0.15718160622E+04  0.00000000000E+00 0. -1.
   -9000010    2    1    2    0  502  0.21741602760E+02 -0.15643625610E+03 -0.98564456735E+03  0.14289919809E+04  0.10225350208E+04 0.  0.
         13    1    3    3    0    0 -0.70309325282E+02  0.41350430805E+03 -0.60972886385E+03  0.74006655956E+03  0.10566000000E+00 0. -1.
         -4    1    3    3    0  502  0.92050928042E+02 -0.56994056415E+03 -0.37591570349E+03  0.68892542133E+03  0.00000000000E+00 0. -1.
        -13    1    1    2    0    0 -0.21741602760E+02  0.15643625610E+03 -0.34738862344E+03  0.38160695273E+03  0.10566000000E+00 0.  1.
<mgrwt>
<rscale>  1 0.64672767E+03</rscale>
<asrwt>0</asrwt>
<pdfrwt beam="1">  1       21 0.36735826E-01 0.10346608E+04</pdfrwt>
<pdfrwt beam="2">  1       -4 0.24181786E+00 0.10346608E+04</pdfrwt>
<totfact> 0.20441613E+01</totfact>
</mgrwt>
</event>
<event>
 6    2  0.2294477E-005  0.1007142E+04  0.7818608E-02  0.9829886E-01
         21   -1    0    0  501  502  0.00000000000E+00  0.00000000000E+00  0.16399251121E+04  0.16399251121E+04  0.00000000000E+00 0. -1.
         -4   -1    0    0    0  501 -0.00000000000E+00 -0.00000000000E+00 -0.38106422394E+03  0.38106422394E+03  0.00000000000E+00 0. -1.
   -9000010    2    1    2    0  502 -0.15889285584E+03  0.31643372602E+02  0.14531311564E+04  0.17680284874E+04  0.99402531759E+03 0.  0.
         13    1    3    3    0    0 -0.44033356963E+02  0.28178684251E+03  0.14650150378E+04  0.14925186207E+04  0.10566000000E+00 0. -1.
         -4    1    3    3    0  502 -0.11485949888E+03 -0.25014346990E+03 -0.11883881381E+02  0.27550986671E+03  0.00000000000E+00 0. -1.
        -13    1    1    2    0    0  0.15889285584E+03 -0.31643372602E+02 -0.19427026821E+03  0.25296084863E+03  0.10566000000E+00 0.  1.
<mgrwt>
<rscale>  1 0.63783084E+03</rscale>
<asrwt>0</asrwt>
<pdfrwt beam="1">  1       21 0.25229617E+00 0.10071418E+04</pdfrwt>
<pdfrwt beam="2">  1       -4 0.58625266E-01 0.10071418E+04</pdfrwt>
<totfact> 0.57473157E+00</totfact>
</mgrwt>
</event>
<event>
 6    2  0.2294477E-005  0.1022320E+04  0.7818608E-02  0.9664041E-01
         -4   -1    0    0    0  501 -0.00000000000E+00  0.00000000000E+00  0.10331456142E+04  0.10331456142E+04  0.00000000000E+00 0. -1.
         21   -1    0    0  501  502  0.00000000000E+00 -0.00000000000E+00 -0.48719911606E+03  0.48719911606E+03  0.00000000000E+00 0. -1.
   -9000010    2    1    2    0  502  0.11632273086E+03 -0.24220591615E+03  0.13761520095E+03  0.10315409425E+04  0.98637928250E+03 0.  0.
         13    1    3    3    0    0  0.43793497568E+03 -0.25118634928E+03  0.37735898017E+03  0.63030265434E+03  0.10566000000E+00 0. -1.
         -4    1    3    3    0  502 -0.32161224482E+03  0.89804331342E+01 -0.23974377922E+03  0.40123828814E+03  0.00000000000E+00 0. -1.
        -13    1    1    2    0    0 -0.11632273086E+03  0.24220591615E+03  0.40833129720E+03  0.48880378780E+03  0.10566000000E+00 0.  1.
<mgrwt>
<rscale>  1 0.73198705E+03</rscale>
<asrwt>0</asrwt>
<pdfrwt beam="2">  1       21 0.74953710E-01 0.10223203E+04</pdfrwt>
<pdfrwt beam="1">  1       -4 0.15894548E+00 0.10223203E+04</pdfrwt>
<totfact> 0.15466742E+01</totfact>
</mgrwt>
</event>
<event>
 6    2  0.2294477E-005  0.1101727E+04  0.7818608E-02  0.9453216E-01
         -4   -1    0    0    0  501 -0.00000000000E+00  0.00000000000E+00  0.25017234856E+04  0.25017234856E+04  0.00000000000E+00 0. -1.
         21   -1    0    0  501  502  0.00000000000E+00 -0.00000000000E+00 -0.43427570629E+03  0.43427570629E+03  0.00000000000E+00 0. -1.
   -9000010    2    1    2    0  502 -0.13728652846E+03 -0.42312560739E+03  0.34119216953E+03  0.11533491107E+04  0.10079281741E+04 0.  0.
         13    1    3    3    0    0  0.14286396244E+02 -0.61651044723E+03  0.55348427883E+03  0.82863387013E+03  0.10566000000E+00 0. -1.
         -4    1    3    3    0  502 -0.15157292470E+03  0.19338483983E+03 -0.21229210930E+03  0.32471524056E+03  0.00000000000E+00 0. -1.
        -13    1    1    2    0    0  0.13728652846E+03  0.42312560739E+03  0.17262556098E+04  0.17826500812E+04  0.10566000000E+00 0.  1.
<mgrwt>
<rscale>  1 0.87822639E+03</rscale>
<asrwt>0</asrwt>
<pdfrwt beam="2">  1       21 0.66811649E-01 0.11017269E+04</pdfrwt>
<pdfrwt beam="1">  1       -4 0.38488053E+00 0.11017269E+04</pdfrwt>
<totfact> 0.68680814E-01</totfact>
</mgrwt>
</event>
<event>
 6    2  0.2294477E-005  0.1010596E+04  0.7818608E-02  0.1006032E+00
         -4   -1    0    0    0  501 -0.00000000000E+00  0.00000000000E+00  0.67366121550E+03  0.67366121550E+03  0.00000000000E+00 0. -1.
         21   -1    0    0  501  502  0.00000000000E+00 -0.00000000000E+00 -0.43937269319E+03  0.43937269319E+03  0.00000000000E+00 0. -1.
   -9000010    2    1    2    0  502  0.76348638170E+02  0.94057217397E+01  0.20832794758E+03  0.10318455798E+04  0.10076642221E+04 0.  0.
         13    1    3    3    0    0  0.35408628522E+02  0.50366438623E+03  0.33634024180E+02  0.50602652467E+03  0.10566000000E+00 0. -1.
         -4    1    3    3    0  502  0.40940009648E+02 -0.49425866449E+03  0.17469392340E+03  0.52581905508E+03  0.00000000000E+00 0. -1.
        -13    1    1    2    0    0 -0.76348638170E+02 -0.94057217397E+01  0.25960574723E+02  0.81188328939E+02  0.10566000000E+00 0.  1.
<mgrwt>
<rscale>  1 0.53082504E+03</rscale>
<asrwt>0</asrwt>
<pdfrwt beam="2">  1       21 0.67595799E-01 0.10105962E+04</pdfrwt>
<pdfrwt beam="1">  1       -4 0.10364019E+00 0.10105962E+04</pdfrwt>
<totfact> 0.58927636E+01</totfact>
</mgrwt>
</event>
<event>
 6    2  0.2294477E-005  0.1055825E+04  0.7818608E-02  0.9576771E-01
         21   -1    0    0  501  502  0.00000000000E+00  0.00000000000E+00  0.62269027192E+03  0.62269027192E+03  0.00000000000E+00 0. -1.
         -4   -1    0    0    0  501 -0.00000000000E+00 -0.00000000000E+00 -0.77980485637E+03  0.77980485637E+03  0.00000000000E+00 0. -1.
   -9000010    2    1    2    0  502 -0.15710361793E+03 -0.28846341408E+03 -0.50025945417E+02  0.10570089841E+04  0.10034304706E+04 0.  0.
         13    1    3    3    0    0 -0.42784375299E+03 -0.42358897382E+02 -0.37283708452E+03  0.56908000836E+03  0.10566000000E+00 0. -1.
         -4    1    3    3    0  502  0.27074013506E+03 -0.24610451669E+03  0.32281113910E+03  0.48792897577E+03  0.00000000000E+00 0. -1.
        -13    1    1    2    0    0  0.15710361793E+03  0.28846341408E+03 -0.10708863903E+03  0.34548614415E+03  0.10566000000E+00 0.  1.
<mgrwt>
<rscale>  1 0.78852926E+03</rscale>
<asrwt>0</asrwt>
<pdfrwt beam="1">  1       21 0.95798503E-01 0.10558245E+04</pdfrwt>
<pdfrwt beam="2">  1       -4 0.11996998E+00 0.10558245E+04</pdfrwt>
<totfact> 0.17958613E+01</totfact>
</mgrwt>
</event>
<event>
 6    2  0.2294477E-005  0.9822667E+03  0.7818608E-02  0.9841302E-01
         21   -1    0    0  501  502  0.00000000000E+00  0.00000000000E+00  0.15741632888E+03  0.15741632888E+03  0.00000000000E+00 0. -1.
         -4   -1    0    0    0  501 -0.00000000000E+00 -0.00000000000E+00 -0.21130813246E+04  0.21130813246E+04  0.00000000000E+00 0. -1.
   -9000010    2    1    2    0  502  0.15461704884E+03  0.66359505031E+02 -0.16084732994E+04  0.18846840964E+04  0.96774881683E+03 0.  0.
         13    1    3    3    0    0  0.49930597315E+03 -0.18147239104E+03 -0.67326440654E+03  0.85762675787E+03  0.10566000000E+00 0. -1.
         -4    1    3    3    0  502 -0.34468892431E+03  0.24783189607E+03 -0.93520889288E+03  0.10270573385E+04  0.00000000000E+00 0. -1.
        -13    1    1    2    0    0 -0.15461704884E+03 -0.66359505031E+02 -0.34719169629E+03  0.38581355710E+03  0.10566000000E+00 0.  1.
<mgrwt>
<rscale>  1 0.63192362E+03</rscale>
<asrwt>0</asrwt>
<pdfrwt beam="1">  1       21 0.24217897E-01 0.98226666E+03</pdfrwt>
<pdfrwt beam="2">  1       -4 0.32508944E+00 0.98226666E+03</pdfrwt>
<totfact> 0.14538437E+01</totfact>
</mgrwt>
</event>
<event>
 6    2  0.2294477E-005  0.1018114E+04  0.7818608E-02  0.1014482E+00
         21   -1    0    0  501  502  0.00000000000E+00  0.00000000000E+00  0.17344830542E+04  0.17344830542E+04  0.00000000000E+00 0. -1.
         -4   -1    0    0    0  501 -0.00000000000E+00 -0.00000000000E+00 -0.18312367044E+03  0.18312367044E+03  0.00000000000E+00 0. -1.
   -9000010    2    1    2    0  502 -0.48906676440E+02  0.31106492714E+02  0.15559709232E+04  0.18594624699E+04  0.10164623390E+04 0.  0.
         13    1    3    3    0    0  0.34027300091E+03  0.81991203339E+02  0.11874311402E+03  0.36960548003E+03  0.10566000000E+00 0. -1.
         -4    1    3    3    0  502 -0.38917967735E+03 -0.50884710625E+02  0.14372278091E+04  0.14898569899E+04  0.00000000000E+00 0. -1.
        -13    1    1    2    0    0  0.48906676440E+02 -0.31106492714E+02 -0.46115394434E+01  0.58144254655E+02  0.10566000000E+00 0.  1.
<mgrwt>
<rscale>  1 0.49731470E+03</rscale>
<asrwt>0</asrwt>
<pdfrwt beam="1">  1       21 0.26684354E+00 0.10181135E+04</pdfrwt>
<pdfrwt beam="2">  1       -4 0.28172874E-01 0.10181135E+04</pdfrwt>
<totfact> 0.20828551E+01</totfact>
</mgrwt>
</event>
<event>
 6    2  0.2294477E-005  0.1003082E+04  0.7818608E-02  0.1003916E+00
         -4   -1    0    0    0  501 -0.00000000000E+00  0.00000000000E+00  0.82025276443E+03  0.82025276443E+03  0.00000000000E+00 0. -1.
         21   -1    0    0  501  502  0.00000000000E+00 -0.00000000000E+00 -0.41280581856E+03  0.41280581856E+03  0.00000000000E+00 0. -1.
   -9000010    2    1    2    0  502  0.20916504145E+02 -0.81392280109E+02  0.21898193217E+03  0.10267062727E+04  0.99955514124E+03 0.  0.
         13    1    3    3    0    0 -0.14520197293E+03  0.36727941373E+03 -0.15004850840E+03  0.42248354610E+03  0.10566000000E+00 0. -1.
         -4    1    3    3    0  502  0.16611847707E+03 -0.44867169384E+03  0.36903044057E+03  0.60422272660E+03  0.00000000000E+00 0. -1.
        -13    1    1    2    0    0 -0.20916504145E+02  0.81392280109E+02  0.18846501370E+03  0.20635231028E+03  0.10566000000E+00 0.  1.
<mgrwt>
<rscale>  1 0.53965948E+03</rscale>
<asrwt>0</asrwt>
<pdfrwt beam="2">  1       21 0.63508588E-01 0.10030816E+04</pdfrwt>
<pdfrwt beam="1">  1       -4 0.12619273E+00 0.10030816E+04</pdfrwt>
<totfact> 0.41616685E+01</totfact>
</mgrwt>
</event>
<event>
 6    2  0.2294477E-005  0.1015461E+04  0.7818608E-02  0.9783356E-01
         -4   -1    0    0    0  501 -0.00000000000E+00  0.00000000000E+00  0.82609396476E+03  0.82609396476E+03  0.00000000000E+00 0. -1.
         21   -1    0    0  501  502  0.00000000000E+00 -0.00000000000E+00 -0.45559080916E+03  0.45559080916E+03  0.00000000000E+00 0. -1.
   -9000010    2    1    2    0  502 -0.13639093077E+03 -0.12368734316E+03  0.20895124339E+03  0.10367356438E+04  0.99862862371E+03 0.  0.
         13    1    3    3    0    0 -0.19819754873E+03 -0.54988723403E+03  0.13248334509E+03  0.59934137715E+03  0.10566000000E+00 0. -1.
         -4    1    3    3    0  502  0.61806617954E+02  0.42619989087E+03  0.76467898297E+02  0.43739426662E+03  0.00000000000E+00 0. -1.
        -13    1    1    2    0    0  0.13639093077E+03  0.12368734316E+03  0.16155191222E+03  0.24494913015E+03  0.10566000000E+00 0.  1.
<mgrwt>
<rscale>  1 0.66263436E+03</rscale>
<asrwt>0</asrwt>
<pdfrwt beam="2">  1       21 0.70090894E-01 0.10154606E+04</pdfrwt>
<pdfrwt beam="1">  1       -4 0.12709138E+00 0.10154606E+04</pdfrwt>
<totfact> 0.32631580E+01</totfact>
</mgrwt>
</event>
<event>
 6    2  0.2294477E-005  0.9993365E+03  0.7818608E-02  0.1061149E+00
         -4   -1    0    0    0  501 -0.00000000000E+00  0.00000000000E+00  0.13076106664E+04  0.13076106664E+04  0.00000000000E+00 0. -1.
         21   -1    0    0  501  502  0.00000000000E+00 -0.00000000000E+00 -0.19886579051E+03  0.19886579051E+03  0.00000000000E+00 0. -1.
   -9000010    2    1    2    0  502 -0.48959778575E+01  0.14878254833E+02  0.11059422806E+04  0.14905642361E+04  0.99921373130E+03 0.  0.
         13    1    3    3    0    0 -0.42996509782E+03  0.26516319831E+03  0.59116280468E+03  0.77759564035E+03  0.10566000000E+00 0. -1.
         -4    1    3    3    0  502  0.42506911997E+03 -0.25028494348E+03  0.51477947590E+03  0.71296859573E+03  0.00000000000E+00 0. -1.
        -13    1    1    2    0    0  0.48959778575E+01 -0.14878254833E+02  0.28025952621E+01  0.15912220785E+02  0.10566000000E+00 0.  1.
<mgrwt>
<rscale>  1 0.35359478E+03</rscale>
<asrwt>0</asrwt>
<pdfrwt beam="2">  1       21 0.30594738E-01 0.99933649E+03</pdfrwt>
<pdfrwt beam="1">  1       -4 0.20117087E+00 0.99933649E+03</pdfrwt>
<totfact> 0.54198602E+01</totfact>
</mgrwt>
</event>
<event>
 6    2  0.2294477E-005  0.1173199E+04  0.7818608E-02  0.9316225E-01
         21   -1    0    0  501  502  0.00000000000E+00  0.00000000000E+00  0.84205297132E+03  0.84205297132E+03  0.00000000000E+00 0.  1.
         -4   -1    0    0    0  501 -0.00000000000E+00 -0.00000000000E+00 -0.94874617696E+03  0.94874617696E+03  0.00000000000E+00 0. -1.
   -9000010    2    1    2    0  502 -0.23863192591E+03 -0.55288512556E+03  0.28826656623E+02  0.11735530042E+04  0.10068607250E+04 0.  0.
         13    1    3    3    0    0 -0.39267963000E+03 -0.33580168578E+03  0.44341650428E+03  0.68086582483E+03  0.10566000000E+00 0. -1.
         -4    1    3    3    0  502  0.15404770409E+03 -0.21708343978E+03 -0.41458984765E+03  0.49268717939E+03  0.00000000000E+00 0. -1.
        -13    1    1    2    0    0  0.23863192591E+03  0.55288512556E+03 -0.13551986227E+03  0.61724614407E+03  0.10566000000E+00 0.  1.
<mgrwt>
<rscale>  1 0.99302751E+03</rscale>
<asrwt>0</asrwt>
<pdfrwt beam="1">  1       21 0.12954661E+00 0.11731989E+04</pdfrwt>
<pdfrwt beam="2">  1       -4 0.14596095E+00 0.11731989E+04</pdfrwt>
<totfact> 0.49370337E+00</totfact>
</mgrwt>
</event>
<event>
 6    2  0.2294477E-005  0.1315593E+04  0.7818608E-02  0.9142090E-01
         21   -1    0    0  501  502  0.00000000000E+00  0.00000000000E+00  0.51319118357E+03  0.51319118357E+03  0.00000000000E+00 0.  1.
         -4   -1    0    0    0  501 -0.00000000000E+00 -0.00000000000E+00 -0.24664128831E+04  0.24664128831E+04  0.00000000000E+00 0. -1.
   -9000010    2    1    2    0  502  0.25924609990E+02 -0.81460942426E+03 -0.71530987842E+03  0.14974818425E+04  0.10327260270E+04 0.  0.
         13    1    3    3    0    0 -0.20807701896E+03 -0.40845564417E+03 -0.88686853010E+03  0.99833253975E+03  0.10566000000E+00 0. -1.
         -4    1    3    3    0  502  0.23400162895E+03 -0.40615378009E+03  0.17155865168E+03  0.49914930271E+03  0.00000000000E+00 0. -1.
        -13    1    1    2    0    0 -0.25924609990E+02  0.81460942426E+03 -0.12379118211E+04  0.14821222242E+04  0.10566000000E+00 0.  1.
<mgrwt>
<rscale>  1 0.11671680E+04</rscale>
<asrwt>0</asrwt>
<pdfrwt beam="1">  1       21 0.78952492E-01 0.13155925E+04</pdfrwt>
<pdfrwt beam="2">  1       -4 0.37944813E+00 0.13155925E+04</pdfrwt>
<totfact> 0.49097833E-01</totfact>
</mgrwt>
</event>
<event>
 6    2  0.2294477E-005  0.9864771E+03  0.7818608E-02  0.9786569E-01
         21   -1    0    0  501  502  0.00000000000E+00  0.00000000000E+00  0.32059250449E+03  0.32059250449E+03  0.00000000000E+00 0. -1.
         -4   -1    0    0    0  501 -0.00000000000E+00 -0.00000000000E+00 -0.13925273990E+04  0.13925273990E+04  0.00000000000E+00 0. -1.
   -9000010    2    1    2    0  502 -0.11009354331E+03 -0.16543424799E+03 -0.49657770481E+03  0.11044122679E+04  0.96625460513E+03 0.  0.
         13    1    3    3    0    0  0.14707281277E+02 -0.53225227914E+03 -0.85091567876E+02  0.53921181261E+03  0.10566000000E+00 0. -1.
         -4    1    3    3    0  502 -0.12480082459E+03  0.36681803115E+03 -0.41148613694E+03  0.56520045531E+03  0.00000000000E+00 0. -1.
        -13    1    1    2    0    0  0.11009354331E+03  0.16543424799E+03 -0.57535718971E+03  0.60870763557E+03  0.10566000000E+00 0.  1.
<mgrwt>
<rscale>  1 0.66088347E+03</rscale>
<asrwt>0</asrwt>
<pdfrwt beam="1">  1       21 0.49321924E-01 0.98647709E+03</pdfrwt>
<pdfrwt beam="2">  1       -4 0.21423498E+00 0.98647709E+03</pdfrwt>
<totfact> 0.16470838E+01</totfact>
</mgrwt>
</event>
<event>
 6    2  0.2294477E-005  0.1356055E+04  0.7818608E-02  0.9087229E-01
         -4   -1    0    0    0  501 -0.00000000000E+00  0.00000000000E+00  0.12031947226E+04  0.12031947226E+04  0.00000000000E+00 0. -1.
         21   -1    0    0  501  502  0.00000000000E+00 -0.00000000000E+00 -0.17578185370E+04  0.17578185370E+04  0.00000000000E+00 0. -1.
   -9000010    2    1    2    0  502  0.16030078544E+03  0.90294708816E+03 -0.12231079832E+04  0.18261648640E+04  0.99893702817E+03 0.  0.
         13    1    3    3    0    0  0.43763837364E+03  0.68712347188E+03 -0.12292471004E+04  0.14746913089E+04  0.10566000000E+00 0. -1.
         -4    1    3    3    0  502 -0.27733758820E+03  0.21582361628E+03  0.61391171817E+01  0.35147355510E+03  0.00000000000E+00 0. -1.
        -13    1    1    2    0    0 -0.16030078544E+03 -0.90294708816E+03  0.66848416875E+03  0.11348483955E+04  0.10566000000E+00 0.  1.
<mgrwt>
<rscale>  1 0.12297253E+04</rscale>
<asrwt>0</asrwt>
<pdfrwt beam="2">  1       21 0.27043362E+00 0.13560549E+04</pdfrwt>
<pdfrwt beam="1">  1       -4 0.18510688E+00 0.13560549E+04</pdfrwt>
<totfact> 0.24263118E-01</totfact>
</mgrwt>
</event>
<event>
 6    2  0.2294477E-005  0.1016209E+04  0.7818608E-02  0.1004005E+00
         -4   -1    0    0    0  501 -0.00000000000E+00  0.00000000000E+00  0.11367509148E+04  0.11367509148E+04  0.00000000000E+00 0. -1.
         21   -1    0    0  501  502  0.00000000000E+00 -0.00000000000E+00 -0.29069383247E+03  0.29069383247E+03  0.00000000000E+00 0. -1.
   -9000010    2    1    2    0  502  0.72420966479E+02  0.35374462189E+02  0.62710160105E+03  0.11941259463E+04  0.10130075066E+04 0.  0.
         13    1    3    3    0    0  0.70057019749E+02  0.38566946279E+03 -0.84490399758E+02  0.40098324074E+03  0.10566000000E+00 0. -1.
         -4    1    3    3    0  502  0.23639467307E+01 -0.35029500060E+03  0.71159200081E+03  0.79314270551E+03  0.00000000000E+00 0. -1.
        -13    1    1    2    0    0 -0.72420966479E+02 -0.35374462189E+02  0.21895548132E+03  0.23331880106E+03  0.10566000000E+00 0.  1.
<mgrwt>
<rscale>  1 0.53928620E+03</rscale>
<asrwt>0</asrwt>
<pdfrwt beam="2">  1       21 0.44722128E-01 0.10162088E+04</pdfrwt>
<pdfrwt beam="1">  1       -4 0.17488475E+00 0.10162088E+04</pdfrwt>
<totfact> 0.37250387E+01</totfact>
</mgrwt>
</event>
<event>
 6    2  0.2294477E-005  0.1013660E+04  0.7818608E-02  0.9906873E-01
         -4   -1    0    0    0  501 -0.00000000000E+00  0.00000000000E+00  0.57596354433E+03  0.57596354433E+03  0.00000000000E+00 0. -1.
         21   -1    0    0  501  502  0.00000000000E+00 -0.00000000000E+00 -0.71520445127E+03  0.71520445127E+03  0.00000000000E+00 0. -1.
   -9000010    2    1    2    0  502 -0.39624197257E+02 -0.11733598716E+03 -0.32800115212E+03  0.10654065015E+04  0.10060658263E+04 0.  0.
         13    1    3    3    0    0 -0.34806575848E+03  0.32228324424E+03 -0.18945392062E+03  0.51079258114E+03  0.10566000000E+00 0. -1.
         -4    1    3    3    0  502  0.30844156122E+03 -0.43961923140E+03 -0.13854723150E+03  0.55461392037E+03  0.00000000000E+00 0. -1.
        -13    1    1    2    0    0  0.39624197257E+02  0.11733598716E+03  0.18876024518E+03  0.22576149410E+03  0.10566000000E+00 0.  1.
<mgrwt>
<rscale>  1 0.59929360E+03</rscale>
<asrwt>0</asrwt>
<pdfrwt beam="2">  1       21 0.11003145E+00 0.10136598E+04</pdfrwt>
<pdfrwt beam="1">  1       -4 0.88609776E-01 0.10136598E+04</pdfrwt>
<totfact> 0.26625783E+01</totfact>
</mgrwt>
</event>
<event>
 6    2  0.2294477E-005  0.9906130E+03  0.7818608E-02  0.9993945E-01
         21   -1    0    0  501  502  0.00000000000E+00  0.00000000000E+00  0.18940526212E+03  0.18940526212E+03  0.00000000000E+00 0. -1.
         -4   -1    0    0    0  501 -0.00000000000E+00 -0.00000000000E+00 -0.15768088457E+04  0.15768088457E+04  0.00000000000E+00 0. -1.
   -9000010    2    1    2    0  502 -0.18868459432E+02 -0.98779421751E+02 -0.12281799039E+04  0.15778910230E+04  0.98549521123E+03 0.  0.
         13    1    3    3    0    0 -0.34651987413E+03 -0.41000542586E+03 -0.61816759396E+03  0.81872563035E+03  0.10566000000E+00 0. -1.
         -4    1    3    3    0  502  0.32765141470E+03  0.31122600411E+03 -0.61001230994E+03  0.75916539269E+03  0.00000000000E+00 0. -1.
        -13    1    1    2    0    0  0.18868459432E+02  0.98779421751E+02 -0.15922367966E+03  0.18832308475E+03  0.10566000000E+00 0.  1.
<mgrwt>
<rscale>  1 0.55916529E+03</rscale>
<asrwt>0</asrwt>
<pdfrwt beam="1">  1       21 0.29139272E-01 0.99061304E+03</pdfrwt>
<pdfrwt beam="2">  1       -4 0.24258597E+00 0.99061304E+03</pdfrwt>
<totfact> 0.32578468E+01</totfact>
</mgrwt>
</event>
<event>
 6    2  0.2294477E-005  0.1005307E+04  0.7818608E-02  0.9965009E-01
         -4   -1    0    0    0  501 -0.00000000000E+00  0.00000000000E+00  0.29972961142E+03  0.29972961142E+03  0.00000000000E+00 0. -1.
         21   -1    0    0  501  502  0.00000000000E+00 -0.00000000000E+00 -0.11694411644E+04  0.11694411644E+04  0.00000000000E+00 0. -1.
   -9000010    2    1    2    0  502  0.84769379153E-01 -0.10544757249E+03 -0.91027797743E+03  0.13561891680E+04  0.99976190442E+03 0.  0.
         13    1    3    3    0    0  0.36092739978E+03  0.21889797541E+03 -0.72081736287E+03  0.83532185015E+03  0.10566000000E+00 0. -1.
         -4    1    3    3    0  502 -0.36084263040E+03 -0.32434554790E+03 -0.18946061456E+03  0.52086731787E+03  0.00000000000E+00 0. -1.
        -13    1    1    2    0    0 -0.84769379153E-01  0.10544757249E+03  0.40566424493E+02  0.11298160775E+03  0.10566000000E+00 0.  1.
<mgrwt>
<rscale>  1 0.57211510E+03</rscale>
<asrwt>0</asrwt>
<pdfrwt beam="2">  1       21 0.17991402E+00 0.10053074E+04</pdfrwt>
<pdfrwt beam="1">  1       -4 0.46112249E-01 0.10053074E+04</pdfrwt>
<totfact> 0.29263099E+01</totfact>
</mgrwt>
</event>
<event>
 6    2  0.2294477E-005  0.1020306E+04  0.7818608E-02  0.9791030E-01
         21   -1    0    0  501  502  0.00000000000E+00  0.00000000000E+00  0.23351451381E+03  0.23351451381E+03  0.00000000000E+00 0. -1.
         -4   -1    0    0    0  501 -0.00000000000E+00 -0.00000000000E+00 -0.15637837129E+04  0.15637837129E+04  0.00000000000E+00 0. -1.
   -9000010    2    1    2    0  502  0.15434918716E+03  0.86598140398E+02 -0.12127020065E+04  0.15848247803E+04  0.10048385533E+04 0.  0.
         13    1    3    3    0    0  0.14741124382E+03 -0.45527477679E+02 -0.13703534625E+04  0.13790110403E+04  0.10566000000E+00 0. -1.
         -4    1    3    3    0  502  0.69379433357E+01  0.13212561808E+03  0.15765145596E+03  0.20581374001E+03  0.00000000000E+00 0. -1.
        -13    1    1    2    0    0 -0.15434918716E+03 -0.86598140398E+02 -0.11756719263E+03  0.21247344644E+03  0.10566000000E+00 0.  1.
<mgrwt>
<rscale>  1 0.65846171E+03</rscale>
<asrwt>0</asrwt>
<pdfrwt beam="1">  1       21 0.35925308E-01 0.10203056E+04</pdfrwt>
<pdfrwt beam="2">  1       -4 0.24058212E+00 0.10203056E+04</pdfrwt>
<totfact> 0.21821702E+01</totfact>
</mgrwt>
</event>
<event>
 6    2  0.2294477E-005  0.9326153E+03  0.7818608E-02  0.9848078E-01
         -4   -1    0    0    0  501 -0.00000000000E+00  0.00000000000E+00  0.15840102243E+04  0.15840102243E+04  0.00000000000E+00 0. -1.
         21   -1    0    0  501  502  0.00000000000E+00 -0.00000000000E+00 -0.20159461631E+03  0.20159461631E+03  0.00000000000E+00 0. -1.
   -9000010    2    1    2    0  502  0.96092900625E+02 -0.16656736098E+03  0.10768049296E+04  0.14245280770E+04  0.91257484872E+03 0.  0.
         13    1    3    3    0    0 -0.14255929118E+03  0.30918554369E+03  0.18902996744E+03  0.38942417963E+03  0.10566000000E+00 0. -1.
         -4    1    3    3    0  502  0.23865219180E+03 -0.47575290466E+03  0.88777496219E+03  0.10351038974E+04  0.00000000000E+00 0. -1.
        -13    1    1    2    0    0 -0.96092900625E+02  0.16656736098E+03  0.30561067836E+03  0.36107676357E+03  0.10566000000E+00 0.  1.
<mgrwt>
<rscale>  1 0.62844987E+03</rscale>
<asrwt>0</asrwt>
<pdfrwt beam="2">  1       21 0.31014557E-01 0.93261535E+03</pdfrwt>
<pdfrwt beam="1">  1       -4 0.24369387E+00 0.93261535E+03</pdfrwt>
<totfact> 0.28446985E+01</totfact>
</mgrwt>
</event>
<event>
 6    2  0.2294477E-005  0.1608331E+04  0.7818608E-02  0.8874692E-01
         -4   -1    0    0    0  501 -0.00000000000E+00  0.00000000000E+00  0.89369967652E+03  0.89369967652E+03  0.00000000000E+00 0. -1.
         21   -1    0    0  501  502  0.00000000000E+00 -0.00000000000E+00 -0.25826407729E+04  0.25826407729E+04  0.00000000000E+00 0.  1.
   -9000010    2    1    2    0  502  0.45708851625E+03 -0.11800517280E+04 -0.14954375815E+04  0.21961468649E+04  0.99261044710E+03 0.  0.
         13    1    3    3    0    0 -0.29785714015E+03 -0.18543050263E+03 -0.42768844068E+03  0.55319143223E+03  0.10566000000E+00 0. -1.
         -4    1    3    3    0  502  0.75494565640E+03 -0.99462122533E+03 -0.10677491409E+04  0.16429554327E+04  0.00000000000E+00 0. -1.
        -13    1    1    2    0    0 -0.45708851625E+03  0.11800517280E+04 -0.19350351485E+03  0.12801935845E+04  0.10566000000E+00 0.  1.
<mgrwt>
<rscale>  1 0.15147667E+04</rscale>
<asrwt>0</asrwt>
<pdfrwt beam="2">  1       21 0.39732933E+00 0.16083307E+04</pdfrwt>
<pdfrwt beam="1">  1       -4 0.13749226E+00 0.16083307E+04</pdfrwt>
<totfact> 0.82342649E-02</totfact>
</mgrwt>
</event>
<event>
 6    2  0.2294477E-005  0.8938859E+03  0.7818608E-02  0.9799761E-01
         -4   -1    0    0    0  501 -0.00000000000E+00  0.00000000000E+00  0.86919664802E+03  0.86919664802E+03  0.00000000000E+00 0. -1.
         21   -1    0    0  501  502  0.00000000000E+00 -0.00000000000E+00 -0.44598772774E+03  0.44598772774E+03  0.00000000000E+00 0.  1.
   -9000010    2    1    2    0  502  0.62760372031E+02  0.24792666927E+03  0.94738967274E+02  0.89889238831E+03  0.85651944298E+03 0.  0.
         13    1    3    3    0    0 -0.99677416336E+02  0.53750388540E+03  0.13864708219E+03  0.56397609765E+03  0.10566000000E+00 0. -1.
         -4    1    3    3    0  502  0.16243778837E+03 -0.28957721614E+03 -0.43908114914E+02  0.33491629066E+03  0.00000000000E+00 0. -1.
        -13    1    1    2    0    0 -0.62760372031E+02 -0.24792666927E+03  0.32846995301E+03  0.41629198746E+03  0.10566000000E+00 0.  1.
<mgrwt>
<rscale>  1 0.65375376E+03</rscale>
<asrwt>0</asrwt>
<pdfrwt beam="2">  1       21 0.68613497E-01 0.89388593E+03</pdfrwt>
<pdfrwt beam="1">  1       -4 0.13372256E+00 0.89388593E+03</pdfrwt>
<totfact> 0.30408606E+01</totfact>
</mgrwt>
</event>
<event>
 6    2  0.2294477E-005  0.1005210E+04  0.7818608E-02  0.9863945E-01
         -4   -1    0    0    0  501 -0.00000000000E+00  0.00000000000E+00  0.37243677602E+03  0.37243677602E+03  0.00000000000E+00 0. -1.
         21   -1    0    0  501  502  0.00000000000E+00 -0.00000000000E+00 -0.91641413946E+03  0.91641413946E+03  0.00000000000E+00 0. -1.
   -9000010    2    1    2    0  502 -0.99566798500E+02  0.10659346446E+03 -0.54403691230E+03  0.11429888960E+04  0.99457113387E+03 0.  0.
         13    1    3    3    0    0 -0.35357032794E+03 -0.33918803720E+03 -0.30340604907E+03  0.57629484047E+03  0.10566000000E+00 0. -1.
         -4    1    3    3    0  502  0.25400352944E+03  0.44578150166E+03 -0.24063086323E+03  0.56669405549E+03  0.00000000000E+00 0. -1.
        -13    1    1    2    0    0  0.99566798500E+02 -0.10659346446E+03  0.59548849122E-01  0.14586201952E+03  0.10566000000E+00 0.  1.
<mgrwt>
<rscale>  1 0.62040915E+03</rscale>
<asrwt>0</asrwt>
<pdfrwt beam="2">  1       21 0.14098679E+00 0.10052102E+04</pdfrwt>
<pdfrwt beam="1">  1       -4 0.57297966E-01 0.10052102E+04</pdfrwt>
<totfact> 0.37057360E+01</totfact>
</mgrwt>
</event>
<event>
 6    2  0.2294477E-005  0.9850003E+03  0.7818608E-02  0.1011454E+00
         -4   -1    0    0    0  501 -0.00000000000E+00  0.00000000000E+00  0.36121278249E+03  0.36121278249E+03  0.00000000000E+00 0. -1.
         21   -1    0    0  501  502  0.00000000000E+00 -0.00000000000E+00 -0.83428295874E+03  0.83428295874E+03  0.00000000000E+00 0. -1.
   -9000010    2    1    2    0  502 -0.58828873289E+02  0.38377766991E+02 -0.51721380433E+03  0.11125357485E+04  0.98249273939E+03 0.  0.
         13    1    3    3    0    0  0.71190974721E+02 -0.47946684470E+00  0.28764140697E+03  0.29632072985E+03  0.10566000000E+00 0. -1.
         -4    1    3    3    0  502 -0.13001984801E+03  0.38857233836E+02 -0.80485521130E+03  0.81621501864E+03  0.00000000000E+00 0. -1.
        -13    1    1    2    0    0  0.58828873289E+02 -0.38377766991E+02  0.44143628084E+02  0.82959992744E+02  0.10566000000E+00 0.  1.
<mgrwt>
<rscale>  1 0.50900715E+03</rscale>
<asrwt>0</asrwt>
<pdfrwt beam="2">  1       21 0.12835122E+00 0.98500034E+03</pdfrwt>
<pdfrwt beam="1">  1       -4 0.55571198E-01 0.98500034E+03</pdfrwt>
<totfact> 0.51026175E+01</totfact>
</mgrwt>
</event>
<event>
 6    2  0.2294477E-005  0.1046410E+04  0.7818608E-02  0.9872290E-01
         -4   -1    0    0    0  501 -0.00000000000E+00  0.00000000000E+00  0.81032749040E+03  0.81032749040E+03  0.00000000000E+00 0. -1.
         21   -1    0    0  501  502  0.00000000000E+00 -0.00000000000E+00 -0.67563594145E+03  0.67563594145E+03  0.00000000000E+00 0. -1.
   -9000010    2    1    2    0  502  0.12584495693E+03 -0.16224232894E+01 -0.25451194570E+03  0.10769170325E+04  0.10388139289E+04 0.  0.
         13    1    3    3    0    0  0.17636845899E+03  0.20060951970E+03 -0.60938246572E+03  0.66535480265E+03  0.10566000000E+00 0. -1.
         -4    1    3    3    0  502 -0.50523502068E+02 -0.20223194299E+03  0.35487052002E+03  0.41156222981E+03  0.00000000000E+00 0. -1.
        -13    1    1    2    0    0 -0.12584495693E+03  0.16224232894E+01  0.38920349465E+03  0.40904639939E+03  0.10566000000E+00 0.  1.
<mgrwt>
<rscale>  1 0.61623227E+03</rscale>
<asrwt>0</asrwt>
<pdfrwt beam="2">  1       21 0.10394399E+00 0.10464100E+04</pdfrwt>
<pdfrwt beam="1">  1       -4 0.12466577E+00 0.10464100E+04</pdfrwt>
<totfact> 0.13318119E+01</totfact>
</mgrwt>
</event>
<event>
 6    2  0.2294477E-005  0.1058031E+04  0.7818608E-02  0.9604830E-01
         21   -1    0    0  501  502  0.00000000000E+00  0.00000000000E+00  0.26376633807E+04  0.26376633807E+04  0.00000000000E+00 0. -1.
         -4   -1    0    0    0  501 -0.00000000000E+00 -0.00000000000E+00 -0.18681721496E+03  0.18681721496E+03  0.00000000000E+00 0. -1.
   -9000010    2    1    2    0  502  0.29336002171E+03  0.42713802018E+02  0.21788625169E+04  0.24221627019E+04  0.10156503906E+04 0.  0.
         13    1    3    3    0    0  0.96518279892E+02 -0.47939101178E+03  0.84501655656E+03  0.97631168822E+03  0.10566000000E+00 0. -1.
         -4    1    3    3    0  502  0.19684174182E+03  0.52210481380E+03  0.13338459604E+04  0.14458510137E+04  0.00000000000E+00 0. -1.
        -13    1    1    2    0    0 -0.29336002171E+03 -0.42713802018E+02  0.27198364887E+03  0.40231789376E+03  0.10566000000E+00 0.  1.
<mgrwt>
<rscale>  1 0.76977355E+03</rscale>
<asrwt>0</asrwt>
<pdfrwt beam="1">  1       21 0.40579434E+00 0.10580313E+04</pdfrwt>
<pdfrwt beam="2">  1       -4 0.28741112E-01 0.10580313E+04</pdfrwt>
<totfact> 0.26228471E+00</totfact>
</mgrwt>
</event>
<event>
 6    2  0.2294477E-005  0.1008891E+04  0.7818608E-02  0.9975369E-01
         -4   -1    0    0    0  501 -0.00000000000E+00  0.00000000000E+00  0.64565560167E+03  0.64565560167E+03  0.00000000000E+00 0. -1.
         21   -1    0    0  501  502  0.00000000000E+00 -0.00000000000E+00 -0.64564433881E+03  0.64564433881E+03  0.00000000000E+00 0. -1.
   -9000010    2    1    2    0  502  0.99753104922E+02  0.15541720695E+02 -0.23467102498E+03  0.10358238860E+04  0.10038268804E+04 0.  0.
         13    1    3    3    0    0  0.76772343475E+01 -0.46555829161E+03 -0.28094058913E+03  0.54381162970E+03  0.10566000000E+00 0. -1.
         -4    1    3    3    0  502  0.92075870574E+02  0.48110001231E+03  0.46269564149E+02  0.49201225630E+03  0.00000000000E+00 0. -1.
        -13    1    1    2    0    0 -0.99753104922E+02 -0.15541720695E+02  0.23468228784E+03  0.25547605448E+03  0.10566000000E+00 0.  1.
<mgrwt>
<rscale>  1 0.56743591E+03</rscale>
<asrwt>0</asrwt>
<pdfrwt beam="2">  1       21 0.99329898E-01 0.10088908E+04</pdfrwt>
<pdfrwt beam="1">  1       -4 0.99331631E-01 0.10088908E+04</pdfrwt>
<totfact> 0.26255585E+01</totfact>
</mgrwt>
</event>
<event>
 6    2  0.2294477E-005  0.1037580E+04  0.7818608E-02  0.9857169E-01
         21   -1    0    0  501  502  0.00000000000E+00  0.00000000000E+00  0.10950596529E+04  0.10950596529E+04  0.00000000000E+00 0. -1.
         -4   -1    0    0    0  501 -0.00000000000E+00 -0.00000000000E+00 -0.55758068182E+03  0.55758068182E+03  0.00000000000E+00 0. -1.
   -9000010    2    1    2    0  502  0.66097259783E+02 -0.11837592814E+03  0.83098963250E+03  0.13293289868E+04  0.10286836626E+04 0.  0.
         13    1    3    3    0    0 -0.39319299382E+03  0.17442141620E+03  0.59865836272E+03  0.73716715013E+03  0.10566000000E+00 0. -1.
         -4    1    3    3    0  502  0.45929025360E+03 -0.29279734433E+03  0.23233126978E+03  0.59216183668E+03  0.00000000000E+00 0. -1.
        -13    1    1    2    0    0 -0.66097259783E+02  0.11837592814E+03 -0.29351066145E+03  0.32331134787E+03  0.10566000000E+00 0.  1.
<mgrwt>
<rscale>  1 0.62382732E+03</rscale>
<asrwt>0</asrwt>
<pdfrwt beam="1">  1       21 0.16847072E+00 0.10375798E+04</pdfrwt>
<pdfrwt beam="2">  1       -4 0.85781644E-01 0.10375798E+04</pdfrwt>
<totfact> 0.90386020E+00</totfact>
</mgrwt>
</event>
<event>
 6    2  0.2294477E-005  0.1062267E+04  0.7818608E-02  0.9538317E-01
         21   -1    0    0  501  502  0.00000000000E+00  0.00000000000E+00  0.56506751867E+03  0.56506751867E+03  0.00000000000E+00 0. -1.
         -4   -1    0    0    0  501 -0.00000000000E+00 -0.00000000000E+00 -0.90553484385E+03  0.90553484385E+03  0.00000000000E+00 0. -1.
   -9000010    2    1    2    0  502 -0.35647977841E+02  0.36664446822E+03 -0.25077850776E+03  0.10914677696E+04  0.99634988221E+03 0.  0.
         13    1    3    3    0    0  0.11440918506E+03 -0.10798975035E+03  0.30632728427E+03  0.34436559651E+03  0.10566000000E+00 0. -1.
         -4    1    3    3    0  502 -0.15005716290E+03  0.47463421857E+03 -0.55710579203E+03  0.74710217312E+03  0.00000000000E+00 0. -1.
        -13    1    1    2    0    0  0.35647977841E+02 -0.36664446822E+03 -0.89688817424E+02  0.37913459290E+03  0.10566000000E+00 0.  1.
<mgrwt>
<rscale>  1 0.81516862E+03</rscale>
<asrwt>0</asrwt>
<pdfrwt beam="1">  1       21 0.86933465E-01 0.10622674E+04</pdfrwt>
<pdfrwt beam="2">  1       -4 0.13931305E+00 0.10622674E+04</pdfrwt>
<totfact> 0.15466764E+01</totfact>
</mgrwt>
</event>
<event>
 6    2  0.2294477E-005  0.1120178E+04  0.7818608E-02  0.9402095E-01
         -4   -1    0    0    0  501 -0.00000000000E+00  0.00000000000E+00  0.54298694130E+03  0.54298694130E+03  0.00000000000E+00 0. -1.
         21   -1    0    0  501  502  0.00000000000E+00 -0.00000000000E+00 -0.13701189774E+04  0.13701189774E+04  0.00000000000E+00 0.  1.
   -9000010    2    1    2    0  502  0.44015989036E+03  0.25268895316E+03 -0.84828632902E+03  0.14051295891E+04  0.99860253861E+03 0.  0.
         13    1    3    3    0    0  0.51128316945E+03 -0.26792112397E+03 -0.31985917179E+03  0.65992583596E+03  0.10566000000E+00 0. -1.
         -4    1    3    3    0  502 -0.71123279084E+02  0.52061007713E+03 -0.52842715723E+03  0.74520375317E+03  0.00000000000E+00 0. -1.
        -13    1    1    2    0    0 -0.44015989036E+03 -0.25268895316E+03  0.21154292927E+02  0.50797632957E+03  0.10566000000E+00 0.  1.
<mgrwt>
<rscale>  1 0.91903492E+03</rscale>
<asrwt>0</asrwt>
<pdfrwt beam="2">  1       21 0.21078753E+00 0.11201783E+04</pdfrwt>
<pdfrwt beam="1">  1       -4 0.83536454E-01 0.11201783E+04</pdfrwt>
<totfact> 0.47645443E+00</totfact>
</mgrwt>
</event>
<event>
 6    2  0.2294477E-005  0.1019553E+04  0.7818608E-02  0.9754400E-01
         21   -1    0    0  501  502  0.00000000000E+00  0.00000000000E+00  0.46380946488E+03  0.46380946488E+03  0.00000000000E+00 0. -1.
         -4   -1    0    0    0  501 -0.00000000000E+00 -0.00000000000E+00 -0.12328524201E+04  0.12328524201E+04  0.00000000000E+00 0. -1.
   -9000010    2    1    2    0  502 -0.12233115654E+02 -0.19981245557E+03 -0.97409889123E+03  0.14100914493E+04  0.99970724662E+03 0.  0.
         13    1    3    3    0    0 -0.49366937187E+03 -0.59365718596E+02 -0.62681342323E+03  0.80008050593E+03  0.10566000000E+00 0. -1.
         -4    1    3    3    0  502  0.48143625622E+03 -0.14044673697E+03 -0.34728546800E+03  0.61001094335E+03  0.00000000000E+00 0. -1.
        -13    1    1    2    0    0  0.12233115654E+02  0.19981245557E+03  0.20505593605E+03  0.28657043565E+03  0.10566000000E+00 0.  1.
<mgrwt>
<rscale>  1 0.67868197E+03</rscale>
<asrwt>0</asrwt>
<pdfrwt beam="1">  1       21 0.71355302E-01 0.10195535E+04</pdfrwt>
<pdfrwt beam="2">  1       -4 0.18966960E+00 0.10195535E+04</pdfrwt>
<totfact> 0.10477312E+01</totfact>
</mgrwt>
</event>
<event>
 6    2  0.2294477E-005  0.1097109E+04  0.7818608E-02  0.9452182E-01
         21   -1    0    0  501  502  0.00000000000E+00  0.00000000000E+00  0.87210215182E+03  0.87210215182E+03  0.00000000000E+00 0. -1.
         -4   -1    0    0    0  501 -0.00000000000E+00 -0.00000000000E+00 -0.69436602046E+03  0.69436602046E+03  0.00000000000E+00 0. -1.
   -9000010    2    1    2    0  502  0.43405865827E+03  0.12654945218E+03  0.19359828796E+03  0.11140598370E+04  0.99961359564E+03 0.  0.
         13    1    3    3    0    0  0.75392739971E+02 -0.19275765766E+03  0.50224219529E+03  0.54321893719E+03  0.10566000000E+00 0. -1.
         -4    1    3    3    0  502  0.35866591830E+03  0.31930710983E+03 -0.30864390733E+03  0.57084089979E+03  0.00000000000E+00 0. -1.
        -13    1    1    2    0    0 -0.43405865827E+03 -0.12654945218E+03 -0.15862156601E+02  0.45240833530E+03  0.10566000000E+00 0.  1.
<mgrwt>
<rscale>  1 0.87902924E+03</rscale>
<asrwt>0</asrwt>
<pdfrwt beam="1">  1       21 0.13416956E+00 0.10971094E+04</pdfrwt>
<pdfrwt beam="2">  1       -4 0.10682554E+00 0.10971094E+04</pdfrwt>
<totfact> 0.10052298E+01</totfact>
</mgrwt>
</event>
<event>
 6    2  0.2294477E-005  0.9925462E+03  0.7818608E-02  0.1014976E+00
         -4   -1    0    0    0  501 -0.00000000000E+00  0.00000000000E+00  0.14517566744E+03  0.14517566744E+03  0.00000000000E+00 0. -1.
         21   -1    0    0  501  502  0.00000000000E+00 -0.00000000000E+00 -0.21411131935E+04  0.21411131935E+04  0.00000000000E+00 0. -1.
   -9000010    2    1    2    0  502 -0.87486952345E+01  0.60994651410E+02 -0.19907368849E+04  0.22244508063E+04  0.99063169632E+03 0.  0.
         13    1    3    3    0    0  0.45348289232E+03 -0.12073567367E+03 -0.71299677691E+03  0.85357381143E+03  0.10566000000E+00 0. -1.
         -4    1    3    3    0  502 -0.46223158755E+03  0.18173032508E+03 -0.12777401080E+04  0.13708769949E+04  0.00000000000E+00 0. -1.
        -13    1    1    2    0    0  0.87486952345E+01 -0.60994651410E+02 -0.52006412111E+01  0.61838054643E+02  0.10566000000E+00 0.  1.
<mgrwt>
<rscale>  1 0.49544070E+03</rscale>
<asrwt>0</asrwt>
<pdfrwt beam="2">  1       21 0.32940201E+00 0.99254624E+03</pdfrwt>
<pdfrwt beam="1">  1       -4 0.22334720E-01 0.99254624E+03</pdfrwt>
<totfact> 0.13289057E+01</totfact>
</mgrwt>
</event>
<event>
 6    2  0.2294477E-005  0.1077709E+04  0.7818608E-02  0.9539546E-01
         -4   -1    0    0    0  501 -0.00000000000E+00  0.00000000000E+00  0.79784783487E+03  0.79784783487E+03  0.00000000000E+00 0. -1.
         21   -1    0    0  501  502  0.00000000000E+00 -0.00000000000E+00 -0.98680059250E+03  0.98680059250E+03  0.00000000000E+00 0. -1.
   -9000010    2    1    2    0  502  0.31337906018E+03 -0.15868149206E+03 -0.60837100022E+03  0.12375671494E+04  0.10188576565E+04 0.  0.
         13    1    3    3    0    0  0.17547337838E+03 -0.46768086216E+03  0.45239873706E+02  0.50156051747E+03  0.10566000000E+00 0. -1.
         -4    1    3    3    0  502  0.13790568181E+03  0.30899937009E+03 -0.65361087392E+03  0.73600663197E+03  0.00000000000E+00 0. -1.
        -13    1    1    2    0    0 -0.31337906018E+03  0.15868149206E+03  0.41941824259E+03  0.54708127793E+03  0.10566000000E+00 0.  1.
<mgrwt>
<rscale>  1 0.81430022E+03</rscale>
<asrwt>0</asrwt>
<pdfrwt beam="2">  1       21 0.15181548E+00 0.10777092E+04</pdfrwt>
<pdfrwt beam="1">  1       -4 0.12274582E+00 0.10777092E+04</pdfrwt>
<totfact> 0.50775120E+00</totfact>
</mgrwt>
</event>
<event>
 6    2  0.2294477E-005  0.9924358E+03  0.7818608E-02  0.9917467E-01
         21   -1    0    0  501  502  0.00000000000E+00  0.00000000000E+00  0.24309357997E+03  0.24309357997E+03  0.00000000000E+00 0. -1.
         -4   -1    0    0    0  501 -0.00000000000E+00 -0.00000000000E+00 -0.13252336798E+04  0.13252336798E+04  0.00000000000E+00 0. -1.
   -9000010    2    1    2    0  502 -0.12089887232E+03 -0.40656655542E+02 -0.10305971345E+04  0.14307547720E+04  0.98420488869E+03 0.  0.
         13    1    3    3    0    0 -0.41067476743E+03 -0.19946232813E+03 -0.99952607587E+03  0.10988591231E+04  0.10566000000E+00 0. -1.
         -4    1    3    3    0  502  0.28977589511E+03  0.15880567259E+03 -0.31071058607E+02  0.33189564884E+03  0.00000000000E+00 0. -1.
        -13    1    1    2    0    0  0.12089887232E+03  0.40656655542E+02 -0.51542965393E+02  0.13757248785E+03  0.10566000000E+00 0.  1.
<mgrwt>
<rscale>  1 0.59422193E+03</rscale>
<asrwt>0</asrwt>
<pdfrwt beam="1">  1       21 0.37399013E-01 0.99243577E+03</pdfrwt>
<pdfrwt beam="2">  1       -4 0.20388210E+00 0.99243577E+03</pdfrwt>
<totfact> 0.34501900E+01</totfact>
</mgrwt>
</event>
<event>
 6    2  0.2294477E-005  0.1004198E+04  0.7818608E-02  0.9832265E-01
         -4   -1    0    0    0  501 -0.00000000000E+00  0.00000000000E+00  0.55152081389E+03  0.55152081389E+03  0.00000000000E+00 0. -1.
         21   -1    0    0  501  502  0.00000000000E+00 -0.00000000000E+00 -0.62443154371E+03  0.62443154371E+03  0.00000000000E+00 0. -1.
   -9000010    2    1    2    0  502 -0.60105839195E+01 -0.16206640888E+03 -0.10810400034E+03  0.10099998781E+04  0.99101545437E+03 0.  0.
         13    1    3    3    0    0  0.21581922557E+03  0.21049400469E+03  0.29222121450E+03  0.41985582466E+03  0.10566000000E+00 0. -1.
         -4    1    3    3    0  502 -0.22182980948E+03 -0.37256041357E+03 -0.40032521484E+03  0.59014405341E+03  0.00000000000E+00 0. -1.
        -13    1    1    2    0    0  0.60105839195E+01  0.16206640888E+03  0.35193270519E+02  0.16595247953E+03  0.10566000000E+00 0.  1.
<mgrwt>
<rscale>  1 0.63659372E+03</rscale>
<asrwt>0</asrwt>
<pdfrwt beam="2">  1       21 0.96066391E-01 0.10041978E+04</pdfrwt>
<pdfrwt beam="1">  1       -4 0.84849356E-01 0.10041978E+04</pdfrwt>
<totfact> 0.41384864E+01</totfact>
</mgrwt>
</event>
<event>
 6    2  0.2294477E-005  0.1086608E+04  0.7818608E-02  0.9462515E-01
         -4   -1    0    0    0  501 -0.00000000000E+00  0.00000000000E+00  0.61104103627E+03  0.61104103627E+03  0.00000000000E+00 0. -1.
         21   -1    0    0  501  502  0.00000000000E+00 -0.00000000000E+00 -0.97603197527E+03  0.97603197527E+03  0.00000000000E+00 0. -1.
   -9000010    2    1    2    0  502  0.44868891064E+03  0.18479123034E+01 -0.33632013471E+03  0.11374652052E+04  0.98964170628E+03 0.  0.
         13    1    3    3    0    0  0.66787190133E+03  0.27917959486E+03 -0.15539567349E+03  0.74036609138E+03  0.10566000000E+00 0. -1.
         -4    1    3    3    0  502 -0.21918299069E+03 -0.27733168255E+03 -0.18092446122E+03  0.39709911385E+03  0.00000000000E+00 0. -1.
        -13    1    1    2    0    0 -0.44868891064E+03 -0.18479123034E+01 -0.28670804287E+02  0.44960780630E+03  0.10566000000E+00 0.  1.
<mgrwt>
<rscale>  1 0.87104739E+03</rscale>
<asrwt>0</asrwt>
<pdfrwt beam="2">  1       21 0.15015876E+00 0.10866075E+04</pdfrwt>
<pdfrwt beam="1">  1       -4 0.94006314E-01 0.10866075E+04</pdfrwt>
<totfact> 0.10065441E+01</totfact>
</mgrwt>
</event>
<event>
 6    2  0.2294477E-005  0.1087046E+04  0.7818608E-02  0.9481704E-01
         21   -1    0    0  501  502  0.00000000000E+00  0.00000000000E+00  0.53487195002E+03  0.53487195002E+03  0.00000000000E+00 0. -1.
         -4   -1    0    0    0  501 -0.00000000000E+00 -0.00000000000E+00 -0.14616926809E+04  0.14616926809E+04  0.00000000000E+00 0. -1.
   -9000010    2    1    2    0  502  0.31713504167E+03 -0.27365252963E+03 -0.12796747942E+03  0.10945519535E+04  0.10030991783E+04 0.  0.
         13    1    3    3    0    0 -0.25071976042E+03 -0.26786998772E+03 -0.32833100884E+03  0.49235758460E+03  0.10566000000E+00 0. -1.
         -4    1    3    3    0  502  0.56785480209E+03 -0.57825419061E+01  0.20036352942E+03  0.60219436893E+03  0.00000000000E+00 0. -1.
        -13    1    1    2    0    0 -0.31713504167E+03  0.27365252963E+03 -0.79885325146E+03  0.90201267738E+03  0.10566000000E+00 0.  1.
<mgrwt>
<rscale>  1 0.85646224E+03</rscale>
<asrwt>0</asrwt>
<pdfrwt beam="1">  1       21 0.82287993E-01 0.10870457E+04</pdfrwt>
<pdfrwt beam="2">  1       -4 0.22487580E+00 0.10870457E+04</pdfrwt>
<totfact> 0.43840964E+00</totfact>
</mgrwt>
</event>
<event>
 6    2  0.2294477E-005  0.1049308E+04  0.7818608E-02  0.9606752E-01
         -4   -1    0    0    0  501 -0.00000000000E+00  0.00000000000E+00  0.14963071167E+04  0.14963071167E+04  0.00000000000E+00 0. -1.
         21   -1    0    0  501  502  0.00000000000E+00 -0.00000000000E+00 -0.30665295815E+03  0.30665295815E+03  0.00000000000E+00 0. -1.
   -9000010    2    1    2    0  502 -0.21621209395E+03 -0.21072679335E+03  0.86779697911E+03  0.13616602832E+04  0.10049346639E+04 0.  0.
         13    1    3    3    0    0 -0.49799770871E+03  0.75163853435E+02  0.12748742453E+03  0.51952322116E+03  0.10566000000E+00 0. -1.
         -4    1    3    3    0  502  0.28178561476E+03 -0.28589064679E+03  0.74030955457E+03  0.84213706200E+03  0.00000000000E+00 0. -1.
        -13    1    1    2    0    0  0.21621209395E+03  0.21072679335E+03  0.32185717943E+03  0.44129979166E+03  0.10566000000E+00 0.  1.
<mgrwt>
<rscale>  1 0.76850883E+03</rscale>
<asrwt>0</asrwt>
<pdfrwt beam="2">  1       21 0.47177379E-01 0.10493079E+04</pdfrwt>
<pdfrwt beam="1">  1       -4 0.23020109E+00 0.10493079E+04</pdfrwt>
<totfact> 0.14245918E+01</totfact>
</mgrwt>
</event>
<event>
 6    2  0.2294477E-005  0.1047404E+04  0.7818608E-02  0.9593571E-01
         21   -1    0    0  501  502  0.00000000000E+00  0.00000000000E+00  0.13270120332E+04  0.13270120332E+04  0.00000000000E+00 0. -1.
         -4   -1    0    0    0  501 -0.00000000000E+00 -0.00000000000E+00 -0.42462353204E+03  0.42462353204E+03  0.00000000000E+00 0. -1.
   -9000010    2    1    2    0  502 -0.23220575997E+03  0.21665655734E+03  0.96928308674E+03  0.14270828337E+04  0.99809625441E+03 0.  0.
         13    1    3    3    0    0 -0.51165162615E+03 -0.13110898601E+03  0.25888387687E+03  0.58821579851E+03  0.10566000000E+00 0. -1.
         -4    1    3    3    0  502  0.27944586618E+03  0.34776554334E+03  0.71039920987E+03  0.83886703514E+03  0.00000000000E+00 0. -1.
        -13    1    1    2    0    0  0.23220575997E+03 -0.21665655734E+03 -0.66894585626E+02  0.32455273154E+03  0.10566000000E+00 0.  1.
<mgrwt>
<rscale>  1 0.77723152E+03</rscale>
<asrwt>0</asrwt>
<pdfrwt beam="1">  1       21 0.20415569E+00 0.10474043E+04</pdfrwt>
<pdfrwt beam="2">  1       -4 0.65326698E-01 0.10474043E+04</pdfrwt>
<totfact> 0.93126626E+00</totfact>
</mgrwt>
</event>
<event>
 6    2  0.2294477E-005  0.8433614E+03  0.7818608E-02  0.1016254E+00
         -4   -1    0    0    0  501 -0.00000000000E+00  0.00000000000E+00  0.67255783572E+03  0.67255783572E+03  0.00000000000E+00 0. -1.
         21   -1    0    0  501  502  0.00000000000E+00 -0.00000000000E+00 -0.83639945015E+03  0.83639945015E+03  0.00000000000E+00 0. -1.
   -9000010    2    1    2    0  502  0.96501003140E+02 -0.43597932190E+01 -0.61741716590E+03  0.10452092471E+04  0.83781081521E+03 0.  0.
         13    1    3    3    0    0 -0.32976133603E+02 -0.18671257927E+03 -0.75779768361E+03  0.78115706046E+03  0.10566000000E+00 0. -1.
         -4    1    3    3    0  502  0.12947713674E+03  0.18235278605E+03  0.14038051771E+03  0.26405218665E+03  0.00000000000E+00 0. -1.
        -13    1    1    2    0    0 -0.96501003140E+02  0.43597932190E+01  0.45357555147E+03  0.46374803877E+03  0.10566000000E+00 0.  1.
<mgrwt>
<rscale>  1 0.49062988E+03</rscale>
<asrwt>0</asrwt>
<pdfrwt beam="2">  1       21 0.12867684E+00 0.84336138E+03</pdfrwt>
<pdfrwt beam="1">  1       -4 0.10347044E+00 0.84336138E+03</pdfrwt>
<totfact> 0.12516656E+01</totfact>
</mgrwt>
</event>
<event>
 6    2  0.2294477E-005  0.1029410E+04  0.7818608E-02  0.1019691E+00
         -4   -1    0    0    0  501 -0.00000000000E+00  0.00000000000E+00  0.21263596977E+03  0.21263596977E+03  0.00000000000E+00 0. -1.
         21   -1    0    0  501  502  0.00000000000E+00 -0.00000000000E+00 -0.16605848636E+04  0.16605848636E+04  0.00000000000E+00 0. -1.
   -9000010    2    1    2    0  502  0.38090218389E+02 -0.28961373664E+02 -0.14889863007E+04  0.18101834965E+04  0.10282968741E+04 0.  0.
         13    1    3    3    0    0 -0.30118264041E+03  0.13620964029E+03 -0.64783113300E+02  0.33683959376E+03  0.10566000000E+00 0. -1.
         -4    1    3    3    0  502  0.33927285880E+03 -0.16517101395E+03 -0.14242031874E+04  0.14733439027E+04  0.00000000000E+00 0. -1.
        -13    1    1    2    0    0 -0.38090218389E+02  0.28961373664E+02  0.41037406961E+02  0.63037336837E+02  0.10566000000E+00 0.  1.
<mgrwt>
<rscale>  1 0.47798249E+03</rscale>
<asrwt>0</asrwt>
<pdfrwt beam="2">  1       21 0.25547459E+00 0.10294096E+04</pdfrwt>
<pdfrwt beam="1">  1       -4 0.32713226E-01 0.10294096E+04</pdfrwt>
<totfact> 0.18294068E+01</totfact>
</mgrwt>
</event>
<event>
 6    2  0.2294477E-005  0.1146525E+04  0.7818608E-02  0.9370041E-01
         -4   -1    0    0    0  501 -0.00000000000E+00  0.00000000000E+00  0.12550305501E+04  0.12550305501E+04  0.00000000000E+00 0. -1.
         21   -1    0    0  501  502  0.00000000000E+00 -0.00000000000E+00 -0.61808947385E+03  0.61808947385E+03  0.00000000000E+00 0. -1.
   -9000010    2    1    2    0  502 -0.34278436574E+03  0.40554203725E+03  0.15674138219E+03  0.11571890058E+04  0.10161461849E+04 0.  0.
         13    1    3    3    0    0  0.11483469823E+03  0.72373533101E+02  0.48445717830E+03  0.50311400794E+03  0.10566000000E+00 0. -1.
         -4    1    3    3    0  502 -0.45761906397E+03  0.33316850415E+03 -0.32771579611E+03  0.65407499791E+03  0.00000000000E+00 0. -1.
        -13    1    1    2    0    0  0.34278436574E+03 -0.40554203725E+03  0.48019969411E+03  0.71593101815E+03  0.10566000000E+00 0.  1.
<mgrwt>
<rscale>  1 0.94582766E+03</rscale>
<asrwt>0</asrwt>
<pdfrwt beam="2">  1       21 0.95090688E-01 0.11465245E+04</pdfrwt>
<pdfrwt beam="1">  1       -4 0.19308162E+00 0.11465245E+04</pdfrwt>
<totfact> 0.49544527E+00</totfact>
</mgrwt>
</event>
<event>
 6    2  0.2294477E-005  0.9704522E+03  0.7818608E-02  0.9949430E-01
         21   -1    0    0  501  502  0.00000000000E+00  0.00000000000E+00  0.12652454500E+04  0.12652454500E+04  0.00000000000E+00 0. -1.
         -4   -1    0    0    0  501 -0.00000000000E+00 -0.00000000000E+00 -0.56414188160E+03  0.56414188160E+03  0.00000000000E+00 0. -1.
   -9000010    2    1    2    0  502 -0.14946139608E+02 -0.12226478067E+03  0.10675934522E+04  0.14427519610E+04  0.96260343770E+03 0.  0.
         13    1    3    3    0    0  0.23686627289E+03  0.33083401813E+03  0.25919169361E+03  0.48242836151E+03  0.10566000000E+00 0. -1.
         -4    1    3    3    0  502 -0.25181241249E+03 -0.45309879880E+03  0.80840175858E+03  0.96032359954E+03  0.00000000000E+00 0. -1.
        -13    1    1    2    0    0  0.14946139608E+02  0.12226478067E+03 -0.36648988379E+03  0.38663537056E+03  0.10566000000E+00 0.  1.
<mgrwt>
<rscale>  1 0.57924358E+03</rscale>
<asrwt>0</asrwt>
<pdfrwt beam="1">  1       21 0.19465314E+00 0.97045218E+03</pdfrwt>
<pdfrwt beam="2">  1       -4 0.86791059E-01 0.97045218E+03</pdfrwt>
<totfact> 0.57405450E+00</totfact>
</mgrwt>
</event>
<event>
 6    2  0.2294477E-005  0.9659672E+03  0.7818608E-02  0.9694305E-01
         21   -1    0    0  501  502  0.00000000000E+00  0.00000000000E+00  0.16615406134E+04  0.16615406134E+04  0.00000000000E+00 0. -1.
         -4   -1    0    0    0  501 -0.00000000000E+00 -0.00000000000E+00 -0.24673529338E+03  0.24673529338E+03  0.00000000000E+00 0. -1.
   -9000010    2    1    2    0  502  0.28653020079E+03  0.25297118520E+02  0.12393930988E+04  0.15713650006E+04  0.92214598171E+03 0.  0.
         13    1    3    3    0    0  0.60627731631E+03  0.59463357924E+02  0.59681651739E+03  0.85281770725E+03  0.10566000000E+00 0. -1.
         -4    1    3    3    0  502 -0.31974711552E+03 -0.34166239404E+02  0.64257658141E+03  0.71854729334E+03  0.00000000000E+00 0. -1.
        -13    1    1    2    0    0 -0.28653020079E+03 -0.25297118520E+02  0.17541222119E+03  0.33691090614E+03  0.10566000000E+00 0.  1.
<mgrwt>
<rscale>  1 0.71356891E+03</rscale>
<asrwt>0</asrwt>
<pdfrwt beam="1">  1       21 0.25562163E+00 0.96596724E+03</pdfrwt>
<pdfrwt beam="2">  1       -4 0.37959277E-01 0.96596724E+03</pdfrwt>
<totfact> 0.13684202E+01</totfact>
</mgrwt>
</event>
<event>
 6    2  0.2294477E-005  0.1011033E+04  0.7818608E-02  0.9842293E-01
         21   -1    0    0  501  502  0.00000000000E+00  0.00000000000E+00  0.67272159167E+03  0.67272159167E+03  0.00000000000E+00 0. -1.
         -4   -1    0    0    0  501 -0.00000000000E+00 -0.00000000000E+00 -0.52402097025E+03  0.52402097025E+03  0.00000000000E+00 0. -1.
   -9000010    2    1    2    0  502  0.15049083393E+03  0.31739798375E+02  0.46541742704E+02  0.10121041218E+04  0.99926658789E+03 0.  0.
         13    1    3    3    0    0  0.19762486602E+03  0.94577991897E+02 -0.45470764104E+03  0.50473719320E+03  0.10566000000E+00 0. -1.
         -4    1    3    3    0  502 -0.47134032083E+02 -0.62838193522E+02  0.50124938374E+03  0.50736692861E+03  0.00000000000E+00 0. -1.
        -13    1    1    2    0    0 -0.15049083393E+03 -0.31739798375E+02  0.10215887872E+03  0.18463844011E+03  0.10566000000E+00 0.  1.
<mgrwt>
<rscale>  1 0.63141424E+03</rscale>
<asrwt>0</asrwt>
<pdfrwt beam="1">  1       21 0.10349563E+00 0.10110334E+04</pdfrwt>
<pdfrwt beam="2">  1       -4 0.80618611E-01 0.10110334E+04</pdfrwt>
<totfact> 0.38706863E+01</totfact>
</mgrwt>
</event>
<event>
 6    2  0.2294477E-005  0.1005324E+04  0.7818608E-02  0.9827604E-01
         21   -1    0    0  501  502  0.00000000000E+00  0.00000000000E+00  0.46441921741E+03  0.46441921741E+03  0.00000000000E+00 0. -1.
         -4   -1    0    0    0  501 -0.00000000000E+00 -0.00000000000E+00 -0.76279552842E+03  0.76279552842E+03  0.00000000000E+00 0. -1.
   -9000010    2    1    2    0  502  0.15677250625E+03  0.48526813727E+02 -0.17165752768E+03  0.10198741285E+04  0.99183892890E+03 0.  0.
         13    1    3    3    0    0  0.47774143191E+03 -0.25184654131E+03  0.19736468618E+02  0.54041937001E+03  0.10566000000E+00 0. -1.
         -4    1    3    3    0  502 -0.32096892566E+03  0.30037335503E+03 -0.19139399630E+03  0.47945475852E+03  0.00000000000E+00 0. -1.
        -13    1    1    2    0    0 -0.15677250625E+03 -0.48526813727E+02 -0.12671878333E+03  0.20734061729E+03  0.10566000000E+00 0.  1.
<mgrwt>
<rscale>  1 0.63901960E+03</rscale>
<asrwt>0</asrwt>
<pdfrwt beam="1">  1       21 0.71449111E-01 0.10053243E+04</pdfrwt>
<pdfrwt beam="2">  1       -4 0.11735316E+00 0.10053243E+04</pdfrwt>
<totfact> 0.38239121E+01</totfact>
</mgrwt>
</event>
<event>
 6    2  0.2294477E-005  0.1069500E+04  0.7818608E-02  0.9565299E-01
         21   -1    0    0  501  502  0.00000000000E+00  0.00000000000E+00  0.27692284839E+03  0.27692284839E+03  0.00000000000E+00 0. -1.
         -4   -1    0    0    0  501 -0.00000000000E+00 -0.00000000000E+00 -0.19419950380E+04  0.19419950380E+04  0.00000000000E+00 0. -1.
   -9000010    2    1    2    0  502  0.21251151111E+03  0.25086087921E+03 -0.94437379002E+03  0.14267698463E+04  0.10177121479E+04 0.  0.
         13    1    3    3    0    0  0.51823207902E+03  0.87948249279E+02 -0.12956023473E+03  0.54137348278E+03  0.10566000000E+00 0. -1.
         -4    1    3    3    0  502 -0.30572056791E+03  0.16291262993E+03 -0.81481355529E+03  0.88539636351E+03  0.00000000000E+00 0. -1.
        -13    1    1    2    0    0 -0.21251151111E+03 -0.25086087921E+03 -0.72069839957E+03  0.79214804006E+03  0.10566000000E+00 0.  1.
<mgrwt>
<rscale>  1 0.79636097E+03</rscale>
<asrwt>0</asrwt>
<pdfrwt beam="1">  1       21 0.42603515E-01 0.10695000E+04</pdfrwt>
<pdfrwt beam="2">  1       -4 0.29876847E+00 0.10695000E+04</pdfrwt>
<totfact> 0.66411388E+00</totfact>
</mgrwt>
</event>
<event>
 6    2  0.2294477E-005  0.1009792E+04  0.7818608E-02  0.1003172E+00
         21   -1    0    0  501  502  0.00000000000E+00  0.00000000000E+00  0.78394137910E+03  0.78394137910E+03  0.00000000000E+00 0. -1.
         -4   -1    0    0    0  501 -0.00000000000E+00 -0.00000000000E+00 -0.38188750756E+03  0.38188750756E+03  0.00000000000E+00 0. -1.
   -9000010    2    1    2    0  502  0.64664528213E+02  0.54102600485E+02  0.36501255681E+03  0.10737383728E+04  0.10062660354E+04 0.  0.
         13    1    3    3    0    0  0.30322391226E+03 -0.29973363248E+03  0.46968817050E+03  0.63434373969E+03  0.10566000000E+00 0. -1.
         -4    1    3    3    0  502 -0.23855938405E+03  0.35383623297E+03 -0.10467561369E+03  0.43939463308E+03  0.00000000000E+00 0. -1.
        -13    1    1    2    0    0 -0.64664528213E+02 -0.54102600485E+02  0.37041314727E+02  0.92090513892E+02  0.10566000000E+00 0.  1.
<mgrwt>
<rscale>  1 0.54280900E+03</rscale>
<asrwt>0</asrwt>
<pdfrwt beam="1">  1       21 0.12060637E+00 0.10097920E+04</pdfrwt>
<pdfrwt beam="2">  1       -4 0.58751925E-01 0.10097920E+04</pdfrwt>
<totfact> 0.53169854E+01</totfact>
</mgrwt>
</event>
<event>
 6    2  0.2294477E-005  0.1017053E+04  0.7818608E-02  0.9727152E-01
         21   -1    0    0  501  502  0.00000000000E+00  0.00000000000E+00  0.99454862377E+03  0.99454862377E+03  0.00000000000E+00 0. -1.
         -4   -1    0    0    0  501 -0.00000000000E+00 -0.00000000000E+00 -0.42079398901E+03  0.42079398901E+03  0.00000000000E+00 0. -1.
   -9000010    2    1    2    0  502  0.14800875788E+03 -0.16383539169E+03  0.61809727306E+03  0.11901429043E+04  0.99279769622E+03 0.  0.
         13    1    3    3    0    0 -0.17772368220E+03 -0.41085063161E+03 -0.17281002874E+01  0.44764600546E+03  0.10566000000E+00 0. -1.
         -4    1    3    3    0  502  0.32573244009E+03  0.24701523993E+03  0.61982537335E+03  0.74249689880E+03  0.00000000000E+00 0. -1.
        -13    1    1    2    0    0 -0.14800875788E+03  0.16383539169E+03 -0.44342638308E+02  0.22519970852E+03  0.10566000000E+00 0.  1.
<mgrwt>
<rscale>  1 0.69422917E+03</rscale>
<asrwt>0</asrwt>
<pdfrwt beam="1">  1       21 0.15300748E+00 0.10170526E+04</pdfrwt>
<pdfrwt beam="2">  1       -4 0.64737537E-01 0.10170526E+04</pdfrwt>
<totfact> 0.22604118E+01</totfact>
</mgrwt>
</event>
<event>
 6    2  0.2294477E-005  0.1042482E+04  0.7818608E-02  0.9701925E-01
         -4   -1    0    0    0  501 -0.00000000000E+00  0.00000000000E+00  0.11283255972E+04  0.11283255972E+04  0.00000000000E+00 0. -1.
         21   -1    0    0  501  502  0.00000000000E+00 -0.00000000000E+00 -0.54185814485E+03  0.54185814485E+03  0.00000000000E+00 0. -1.
   -9000010    2    1    2    0  502  0.34887871061E+02  0.22032200929E+03 -0.26085425140E+00  0.10424823256E+04  0.10183370659E+04 0.  0.
         13    1    3    3    0    0  0.36915518638E+03  0.48425680455E+03 -0.62240094795E+02  0.61208989940E+03  0.10566000000E+00 0. -1.
         -4    1    3    3    0  502 -0.33426731532E+03 -0.26393479525E+03  0.61979240543E+02  0.43039242616E+03  0.00000000000E+00 0. -1.
        -13    1    1    2    0    0 -0.34887871061E+02 -0.22032200929E+03  0.58672830664E+03  0.62770141652E+03  0.10566000000E+00 0.  1.
<mgrwt>
<rscale>  1 0.70902317E+03</rscale>
<asrwt>0</asrwt>
<pdfrwt beam="2">  1       21 0.83362792E-01 0.10424823E+04</pdfrwt>
<pdfrwt beam="1">  1       -4 0.17358855E+00 0.10424823E+04</pdfrwt>
<totfact> 0.93988126E+00</totfact>
</mgrwt>
</event>
<event>
 6    2  0.2294477E-005  0.1044668E+04  0.7818608E-02  0.9734530E-01
         21   -1    0    0  501  502  0.00000000000E+00  0.00000000000E+00  0.17044936083E+04  0.17044936083E+04  0.00000000000E+00 0. -1.
         -4   -1    0    0    0  501 -0.00000000000E+00 -0.00000000000E+00 -0.25575034448E+03  0.25575034448E+03  0.00000000000E+00 0. -1.
   -9000010    2    1    2    0  502 -0.17888416789E+03 -0.86712720925E+02  0.14146176570E+04  0.17585431603E+04  0.10255790022E+04 0.  0.
         13    1    3    3    0    0  0.88660556414E+02  0.15255036810E+03  0.13874144220E+04  0.13985889670E+04  0.10566000000E+00 0. -1.
         -4    1    3    3    0  502 -0.26754472431E+03 -0.23926308902E+03  0.27203234982E+02  0.35995419329E+03  0.00000000000E+00 0. -1.
        -13    1    1    2    0    0  0.17888416789E+03  0.86712720925E+02  0.34125606856E+02  0.20170079251E+03  0.10566000000E+00 0.  1.
<mgrwt>
<rscale>  1 0.68997593E+03</rscale>
<asrwt>0</asrwt>
<pdfrwt beam="1">  1       21 0.26222978E+00 0.10446679E+04</pdfrwt>
<pdfrwt beam="2">  1       -4 0.39346208E-01 0.10446679E+04</pdfrwt>
<totfact> 0.11421515E+01</totfact>
</mgrwt>
</event>
<event>
 6    2  0.2294477E-005  0.1012227E+04  0.7818608E-02  0.9943091E-01
         21   -1    0    0  501  502  0.00000000000E+00  0.00000000000E+00  0.90312557425E+03  0.90312557425E+03  0.00000000000E+00 0. -1.
         -4   -1    0    0    0  501 -0.00000000000E+00 -0.00000000000E+00 -0.37884840543E+03  0.37884840543E+03  0.00000000000E+00 0. -1.
   -9000010    2    1    2    0  502  0.84076975398E+02 -0.72103381003E+02  0.57053313020E+03  0.11619428984E+04  0.10061488017E+04 0.  0.
         13    1    3    3    0    0 -0.31815262557E+03  0.27136401814E+03  0.52241294679E+02  0.42141272825E+03  0.10566000000E+00 0. -1.
         -4    1    3    3    0  502  0.40222960096E+03 -0.34346739914E+03  0.51829183552E+03  0.74053017017E+03  0.00000000000E+00 0. -1.
        -13    1    1    2    0    0 -0.84076975398E+02  0.72103381003E+02 -0.46255961374E+02  0.12003108127E+03  0.10566000000E+00 0.  1.
<mgrwt>
<rscale>  1 0.58217619E+03</rscale>
<asrwt>0</asrwt>
<pdfrwt beam="1">  1       21 0.13894240E+00 0.10122269E+04</pdfrwt>
<pdfrwt beam="2">  1       -4 0.58284370E-01 0.10122269E+04</pdfrwt>
<totfact> 0.37140441E+01</totfact>
</mgrwt>
</event>
<event>
 6    2  0.2294477E-005  0.1089933E+04  0.7818608E-02  0.9528506E-01
         -4   -1    0    0    0  501 -0.00000000000E+00  0.00000000000E+00  0.31270246399E+03  0.31270246399E+03  0.00000000000E+00 0. -1.
         21   -1    0    0  501  502  0.00000000000E+00 -0.00000000000E+00 -0.28649768444E+04  0.28649768444E+04  0.00000000000E+00 0.  1.
   -9000010    2    1    2    0  502 -0.35032630946E+03 -0.42141669759E+02 -0.70741708677E+03  0.12993814384E+04  0.10312365123E+04 0.  0.
         13    1    3    3    0    0  0.61249133317E+02 -0.28910984993E+03  0.13881182809E+03  0.32650374644E+03  0.10566000000E+00 0. -1.
         -4    1    3    3    0  502 -0.41157544278E+03  0.24696818017E+03 -0.84622891486E+03  0.97287769193E+03  0.00000000000E+00 0. -1.
        -13    1    1    2    0    0  0.35032630946E+03  0.42141669759E+02 -0.18448572937E+04  0.18782978700E+04  0.10566000000E+00 0.  1.
<mgrwt>
<rscale>  1 0.82214404E+03</rscale>
<asrwt>0</asrwt>
<pdfrwt beam="2">  1       21 0.44076567E+00 0.10899327E+04</pdfrwt>
<pdfrwt beam="1">  1       -4 0.48108071E-01 0.10899327E+04</pdfrwt>
<totfact> 0.53609899E-01</totfact>
</mgrwt>
</event>
<event>
 6    2  0.2294477E-005  0.1125028E+04  0.7818608E-02  0.9396975E-01
         -4   -1    0    0    0  501 -0.00000000000E+00  0.00000000000E+00  0.98211755060E+03  0.98211755060E+03  0.00000000000E+00 0. -1.
         21   -1    0    0  501  502  0.00000000000E+00 -0.00000000000E+00 -0.68766428036E+03  0.68766428036E+03  0.00000000000E+00 0. -1.
   -9000010    2    1    2    0  502 -0.25833831702E+03 -0.44002596315E+03  0.27987215834E+03  0.11593171855E+04  0.10026596518E+04 0.  0.
         13    1    3    3    0    0 -0.36062988789E+03 -0.37159280628E+03 -0.27821192039E+03  0.58782396474E+03  0.10566000000E+00 0. -1.
         -4    1    3    3    0  502  0.10229157087E+03 -0.68433156873E+02  0.55808407873E+03  0.57149322075E+03  0.00000000000E+00 0. -1.
        -13    1    1    2    0    0  0.25833831702E+03  0.44002596315E+03  0.14581111898E+02  0.51046464547E+03  0.10566000000E+00 0.  1.
<mgrwt>
<rscale>  1 0.92325070E+03</rscale>
<asrwt>0</asrwt>
<pdfrwt beam="2">  1       21 0.10579450E+00 0.11250280E+04</pdfrwt>
<pdfrwt beam="1">  1       -4 0.15109501E+00 0.11250280E+04</pdfrwt>
<totfact> 0.76391112E+00</totfact>
</mgrwt>
</event>
<event>
 6    2  0.2294477E-005  0.1016706E+04  0.7818608E-02  0.9968264E-01
         21   -1    0    0  501  502  0.00000000000E+00  0.00000000000E+00  0.15065648154E+03  0.15065648154E+03  0.00000000000E+00 0. -1.
         -4   -1    0    0    0  501 -0.00000000000E+00 -0.00000000000E+00 -0.20727160379E+04  0.20727160379E+04  0.00000000000E+00 0. -1.
   -9000010    2    1    2    0  502  0.90220854174E+02 -0.45162440016E+02 -0.17523330086E+04  0.20259223721E+04  0.10116872225E+04 0.  0.
         13    1    3    3    0    0 -0.42166330001E+03 -0.12029264963E+03 -0.11563974707E+04  0.12367398197E+04  0.10566000000E+00 0. -1.
         -4    1    3    3    0  502  0.51188415419E+03  0.75130209616E+02 -0.59593553791E+03  0.78918255243E+03  0.00000000000E+00 0. -1.
        -13    1    1    2    0    0 -0.90220854174E+02  0.45162440016E+02 -0.16972654780E+03  0.19745014740E+03  0.10566000000E+00 0.  1.
<mgrwt>
<rscale>  1 0.57063984E+03</rscale>
<asrwt>0</asrwt>
<pdfrwt beam="1">  1       21 0.23177921E-01 0.10167057E+04</pdfrwt>
<pdfrwt beam="2">  1       -4 0.31887938E+00 0.10167057E+04</pdfrwt>
<totfact> 0.17265211E+01</totfact>
</mgrwt>
</event>
<event>
 6    2  0.2294477E-005  0.1007189E+04  0.7818608E-02  0.1001462E+00
         21   -1    0    0  501  502  0.00000000000E+00  0.00000000000E+00  0.15165398678E+04  0.15165398678E+04  0.00000000000E+00 0. -1.
         -4   -1    0    0    0  501 -0.00000000000E+00 -0.00000000000E+00 -0.20509477810E+03  0.20509477810E+03  0.00000000000E+00 0. -1.
   -9000010    2    1    2    0  502 -0.54877642856E+02  0.70893529839E+02  0.12750816849E+04  0.16248888107E+04  0.10031913555E+04 0.  0.
         13    1    3    3    0    0 -0.11462353035E+03  0.41346042036E+03  0.11927000250E+04  0.12675257132E+04  0.10566000000E+00 0. -1.
         -4    1    3    3    0  502  0.59745887494E+02 -0.34256689052E+03  0.82381659878E+02  0.35736309747E+03  0.00000000000E+00 0. -1.
        -13    1    1    2    0    0  0.54877642856E+02 -0.70893529839E+02  0.36363404857E+02  0.96745835234E+02  0.10566000000E+00 0.  1.
<mgrwt>
<rscale>  1 0.55013995E+03</rscale>
<asrwt>0</asrwt>
<pdfrwt beam="1">  1       21 0.23331382E+00 0.10071893E+04</pdfrwt>
<pdfrwt beam="2">  1       -4 0.31553044E-01 0.10071893E+04</pdfrwt>
<totfact> 0.27315426E+01</totfact>
</mgrwt>
</event>
<event>
 6    2  0.2294477E-005  0.9435800E+03  0.7818608E-02  0.9604554E-01
         21   -1    0    0  501  502  0.00000000000E+00  0.00000000000E+00  0.12313069507E+04  0.12313069507E+04  0.00000000000E+00 0.  1.
         -4   -1    0    0    0  501 -0.00000000000E+00 -0.00000000000E+00 -0.48316985043E+03  0.48316985043E+03  0.00000000000E+00 0. -1.
   -9000010    2    1    2    0  502  0.28839448117E+03 -0.30304130353E+03  0.86506168459E+03  0.12801073984E+04  0.84577646277E+03 0.  0.
         13    1    3    3    0    0  0.18050729314E+03  0.28750844992E+03  0.36844342834E+03  0.50099357551E+03  0.10566000000E+00 0. -1.
         -4    1    3    3    0  502  0.10788718803E+03 -0.59054975344E+03  0.49661825625E+03  0.77911382293E+03  0.00000000000E+00 0. -1.
        -13    1    1    2    0    0 -0.28839448117E+03  0.30304130353E+03 -0.11692458432E+03  0.43436940269E+03  0.10566000000E+00 0.  1.
<mgrwt>
<rscale>  1 0.76995525E+03</rscale>
<asrwt>0</asrwt>
<pdfrwt beam="1">  1       21 0.18943184E+00 0.94358001E+03</pdfrwt>
<pdfrwt beam="2">  1       -4 0.74333823E-01 0.94358001E+03</pdfrwt>
<totfact> 0.89496801E+00</totfact>
</mgrwt>
</event>
<event>
 6    2  0.2294477E-005  0.1123604E+04  0.7818608E-02  0.9424797E-01
         -4   -1    0    0    0  501 -0.00000000000E+00  0.00000000000E+00  0.62237451695E+03  0.62237451695E+03  0.00000000000E+00 0. -1.
         21   -1    0    0  501  502  0.00000000000E+00 -0.00000000000E+00 -0.10988081365E+04  0.10988081365E+04  0.00000000000E+00 0.  1.
   -9000010    2    1    2    0  502 -0.29210621164E+03  0.36027067100E+03 -0.55096984190E+03  0.12514203147E+04  0.10234080526E+04 0.  0.
         13    1    3    3    0    0 -0.52468491751E+03  0.52385056006E+03 -0.61107381344E+03  0.96079388454E+03  0.10566000000E+00 0. -1.
         -4    1    3    3    0  502  0.23257870588E+03 -0.16357988906E+03  0.60103971546E+02  0.29062643019E+03  0.00000000000E+00 0. -1.
        -13    1    1    2    0    0  0.29210621164E+03 -0.36027067100E+03  0.74536222351E+02  0.46976233870E+03  0.10566000000E+00 0.  1.
<mgrwt>
<rscale>  1 0.90062748E+03</rscale>
<asrwt>0</asrwt>
<pdfrwt beam="2">  1       21 0.16904740E+00 0.11236036E+04</pdfrwt>
<pdfrwt beam="1">  1       -4 0.95749926E-01 0.11236036E+04</pdfrwt>
<totfact> 0.68339252E+00</totfact>
</mgrwt>
</event>
<event>
 6    2  0.2294477E-005  0.1006997E+04  0.7818608E-02  0.9862622E-01
         21   -1    0    0  501  502  0.00000000000E+00  0.00000000000E+00  0.74565577971E+03  0.74565577971E+03  0.00000000000E+00 0. -1.
         -4   -1    0    0    0  501 -0.00000000000E+00 -0.00000000000E+00 -0.52774897848E+03  0.52774897848E+03  0.00000000000E+00 0. -1.
   -9000010    2    1    2    0  502  0.78902836360E+02  0.12249831781E+03  0.36045194745E+03  0.10695650532E+04  0.99639966938E+03 0.  0.
         13    1    3    3    0    0 -0.24180575504E+03 -0.24683068587E+03  0.45503946435E+03  0.57136357597E+03  0.10566000000E+00 0. -1.
         -4    1    3    3    0  502  0.32070859140E+03  0.36932900369E+03 -0.94587516897E+02  0.49820147723E+03  0.00000000000E+00 0. -1.
        -13    1    1    2    0    0 -0.78902836360E+02 -0.12249831781E+03 -0.14254514623E+03  0.20383970499E+03  0.10566000000E+00 0.  1.
<mgrwt>
<rscale>  1 0.62107474E+03</rscale>
<asrwt>0</asrwt>
<pdfrwt beam="1">  1       21 0.11471627E+00 0.10069974E+04</pdfrwt>
<pdfrwt beam="2">  1       -4 0.81192151E-01 0.10069974E+04</pdfrwt>
<totfact> 0.29361102E+01</totfact>
</mgrwt>
</event>
<event>
 6    2  0.2294477E-005  0.1035854E+04  0.7818608E-02  0.9658789E-01
         21   -1    0    0  501  502  0.00000000000E+00  0.00000000000E+00  0.99823019168E+03  0.99823019168E+03  0.00000000000E+00 0. -1.
         -4   -1    0    0    0  501 -0.00000000000E+00 -0.00000000000E+00 -0.44313771433E+03  0.44313771433E+03  0.00000000000E+00 0. -1.
   -9000010    2    1    2    0  502 -0.25278995329E+03  0.72292561724E+02  0.56172855162E+03  0.11783602567E+04  0.10019306133E+04 0.  0.
         13    1    3    3    0    0 -0.47654909288E+01  0.32756404321E+03 -0.16674030855E+03  0.36759115056E+03  0.10566000000E+00 0. -1.
         -4    1    3    3    0  502 -0.24802446236E+03 -0.25527148149E+03  0.72846886016E+03  0.81076910611E+03  0.00000000000E+00 0. -1.
        -13    1    1    2    0    0  0.25278995329E+03 -0.72292561724E+02 -0.66360742642E+01  0.26300764934E+03  0.10566000000E+00 0.  1.
<mgrwt>
<rscale>  1 0.73524401E+03</rscale>
<asrwt>0</asrwt>
<pdfrwt beam="1">  1       21 0.15357387E+00 0.10358542E+04</pdfrwt>
<pdfrwt beam="2">  1       -4 0.68175034E-01 0.10358542E+04</pdfrwt>
<totfact> 0.19904495E+01</totfact>
</mgrwt>
</event>
<event>
 6    2  0.2294477E-005  0.1015878E+04  0.7818608E-02  0.9810693E-01
         21   -1    0    0  501  502  0.00000000000E+00  0.00000000000E+00  0.19137331506E+04  0.19137331506E+04  0.00000000000E+00 0. -1.
         -4   -1    0    0    0  501 -0.00000000000E+00 -0.00000000000E+00 -0.23201345386E+03  0.23201345386E+03  0.00000000000E+00 0. -1.
   -9000010    2    1    2    0  502 -0.10497439978E+03  0.13128814629E+03  0.16960764051E+04  0.19770387854E+04  0.10018737371E+04 0.  0.
         13    1    3    3    0    0 -0.98319331533E+02 -0.35671640208E+03  0.23923447493E+03  0.44062050296E+03  0.10566000000E+00 0. -1.
         -4    1    3    3    0  502 -0.66550682489E+01  0.48800454837E+03  0.14568419302E+04  0.15364182825E+04  0.00000000000E+00 0. -1.
        -13    1    1    2    0    0  0.10497439978E+03 -0.13128814629E+03 -0.14356708358E+02  0.16870781904E+03  0.10566000000E+00 0.  1.
<mgrwt>
<rscale>  1 0.64791833E+03</rscale>
<asrwt>0</asrwt>
<pdfrwt beam="1">  1       21 0.29442048E+00 0.10158775E+04</pdfrwt>
<pdfrwt beam="2">  1       -4 0.35694379E-01 0.10158775E+04</pdfrwt>
<totfact> 0.87878961E+00</totfact>
</mgrwt>
</event>
<event>
 6    2  0.2294477E-005  0.1045667E+04  0.7818608E-02  0.9820299E-01
         -4   -1    0    0    0  501 -0.00000000000E+00  0.00000000000E+00  0.41963563154E+03  0.41963563154E+03  0.00000000000E+00 0. -1.
         21   -1    0    0  501  502  0.00000000000E+00 -0.00000000000E+00 -0.11648758379E+04  0.11648758379E+04  0.00000000000E+00 0. -1.
   -9000010    2    1    2    0  502  0.70798951696E+02  0.13151760266E+03 -0.89249855044E+03  0.13747630429E+04  0.10349446315E+04 0.  0.
         13    1    3    3    0    0  0.42303126176E+03  0.41396737454E+03 -0.46095058238E+03  0.75019989747E+03  0.10566000000E+00 0. -1.
         -4    1    3    3    0  502 -0.35223231006E+03 -0.28244977188E+03 -0.43154796806E+03  0.62456314542E+03  0.00000000000E+00 0. -1.
        -13    1    1    2    0    0 -0.70798951696E+02 -0.13151760266E+03  0.14725834408E+03  0.20974842654E+03  0.10566000000E+00 0.  1.
<mgrwt>
<rscale>  1 0.64284466E+03</rscale>
<asrwt>0</asrwt>
<pdfrwt beam="2">  1       21 0.17921167E+00 0.10456671E+04</pdfrwt>
<pdfrwt beam="1">  1       -4 0.64559328E-01 0.10456671E+04</pdfrwt>
<totfact> 0.14324614E+01</totfact>
</mgrwt>
</event>
<event>
 6    2  0.2294477E-005  0.1046172E+04  0.7818608E-02  0.9635977E-01
         -4   -1    0    0    0  501 -0.00000000000E+00  0.00000000000E+00  0.33665792792E+03  0.33665792792E+03  0.00000000000E+00 0. -1.
         21   -1    0    0  501  502  0.00000000000E+00 -0.00000000000E+00 -0.13109741202E+04  0.13109741202E+04  0.00000000000E+00 0. -1.
   -9000010    2    1    2    0  502 -0.12211084424E+03 -0.24723545653E+03 -0.70055240014E+03  0.12590666684E+04  0.10091772793E+04 0.  0.
         13    1    3    3    0    0  0.12506550274E+03 -0.51920508552E+03 -0.83048068629E+02  0.54047413784E+03  0.10566000000E+00 0. -1.
         -4    1    3    3    0  502 -0.24717634697E+03  0.27196962898E+03 -0.61750433151E+03  0.71859253060E+03  0.00000000000E+00 0. -1.
        -13    1    1    2    0    0  0.12211084424E+03  0.24723545653E+03 -0.27376379218E+03  0.38856537973E+03  0.10566000000E+00 0.  1.
<mgrwt>
<rscale>  1 0.74960073E+03</rscale>
<asrwt>0</asrwt>
<pdfrwt beam="2">  1       21 0.20168832E+00 0.10461717E+04</pdfrwt>
<pdfrwt beam="1">  1       -4 0.51793528E-01 0.10461717E+04</pdfrwt>
<totfact> 0.16016853E+01</totfact>
</mgrwt>
</event>
<event>
 6    2  0.2294477E-005  0.1008439E+04  0.7818608E-02  0.1008679E+00
         21   -1    0    0  501  502  0.00000000000E+00  0.00000000000E+00  0.91170154339E+03  0.91170154339E+03  0.00000000000E+00 0. -1.
         -4   -1    0    0    0  501 -0.00000000000E+00 -0.00000000000E+00 -0.46846264044E+03  0.46846264044E+03  0.00000000000E+00 0. -1.
   -9000010    2    1    2    0  502  0.27924553835E+02  0.65617358952E+02  0.62397171565E+03  0.11858711596E+04  0.10059146519E+04 0.  0.
         13    1    3    3    0    0 -0.18942876351E+03  0.18171442004E+03  0.82632588320E+03  0.86701664535E+03  0.10566000000E+00 0. -1.
         -4    1    3    3    0  502  0.21735331735E+03 -0.11609706108E+03 -0.20235416755E+03  0.31885451429E+03  0.00000000000E+00 0. -1.
        -13    1    1    2    0    0 -0.27924553835E+02 -0.65617358952E+02 -0.18073281270E+03  0.19429302420E+03  0.10566000000E+00 0.  1.
<mgrwt>
<rscale>  1 0.52002983E+03</rscale>
<asrwt>0</asrwt>
<pdfrwt beam="1">  1       21 0.14026178E+00 0.10084392E+04</pdfrwt>
<pdfrwt beam="2">  1       -4 0.72071176E-01 0.10084392E+04</pdfrwt>
<totfact> 0.22654332E+01</totfact>
</mgrwt>
</event>
<event>
 6    2  0.2294477E-005  0.1033981E+04  0.7818608E-02  0.9603526E-01
         21   -1    0    0  501  502  0.00000000000E+00  0.00000000000E+00  0.80694964128E+03  0.80694964128E+03  0.00000000000E+00 0. -1.
         -4   -1    0    0    0  501 -0.00000000000E+00 -0.00000000000E+00 -0.76139288788E+03  0.76139288788E+03  0.00000000000E+00 0. -1.
   -9000010    2    1    2    0  502  0.27211947556E+03 -0.16655508032E+03  0.38422567926E+03  0.11030616933E+04  0.98352738791E+03 0.  0.
         13    1    3    3    0    0  0.25775654697E+03 -0.10002624424E+03 -0.30431890338E+03  0.41116139551E+03  0.10566000000E+00 0. -1.
         -4    1    3    3    0  502  0.14362928587E+02 -0.66528836079E+02  0.68854458263E+03  0.69190029775E+03  0.00000000000E+00 0. -1.
        -13    1    1    2    0    0 -0.27211947556E+03  0.16655508032E+03 -0.33866892585E+03  0.46528083590E+03  0.10566000000E+00 0.  1.
<mgrwt>
<rscale>  1 0.77063229E+03</rscale>
<asrwt>0</asrwt>
<pdfrwt beam="1">  1       21 0.12414610E+00 0.10339805E+04</pdfrwt>
<pdfrwt beam="2">  1       -4 0.11713737E+00 0.10339805E+04</pdfrwt>
<totfact> 0.99060714E+00</totfact>
</mgrwt>
</event>
<event>
 6    2  0.2294477E-005  0.1024778E+04  0.7818608E-02  0.9645154E-01
         21   -1    0    0  501  502  0.00000000000E+00  0.00000000000E+00  0.36449767115E+03  0.36449767115E+03  0.00000000000E+00 0. -1.
         -4   -1    0    0    0  501 -0.00000000000E+00 -0.00000000000E+00 -0.14569031163E+04  0.14569031163E+04  0.00000000000E+00 0. -1.
   -9000010    2    1    2    0  502 -0.19502244484E+03  0.20697161891E+03 -0.45070660913E+03  0.11195116136E+04  0.98452973572E+03 0.  0.
         13    1    3    3    0    0 -0.26651496925E+03 -0.34676374187E+03 -0.67992896410E+02  0.44260407435E+03  0.10566000000E+00 0. -1.
         -4    1    3    3    0  502  0.71492524407E+02  0.55373536078E+03 -0.38271371272E+03  0.67690753927E+03  0.00000000000E+00 0. -1.
        -13    1    1    2    0    0  0.19502244484E+03 -0.20697161891E+03 -0.64169883597E+03  0.70188917378E+03  0.10566000000E+00 0.  1.
<mgrwt>
<rscale>  1 0.74378332E+03</rscale>
<asrwt>0</asrwt>
<pdfrwt beam="1">  1       21 0.56076565E-01 0.10247779E+04</pdfrwt>
<pdfrwt beam="2">  1       -4 0.22413894E+00 0.10247779E+04</pdfrwt>
<totfact> 0.10717097E+01</totfact>
</mgrwt>
</event>
<event>
 6    2  0.2294477E-005  0.1013488E+04  0.7818608E-02  0.9655536E-01
         -4   -1    0    0    0  501 -0.00000000000E+00  0.00000000000E+00  0.15342253845E+04  0.15342253845E+04  0.00000000000E+00 0. -1.
         21   -1    0    0  501  502  0.00000000000E+00 -0.00000000000E+00 -0.35933091342E+03  0.35933091342E+03  0.00000000000E+00 0. -1.
   -9000010    2    1    2    0  502  0.67327618375E+02  0.27572349568E+03  0.43835897449E+03  0.11042268337E+04  0.97293466141E+03 0.  0.
         13    1    3    3    0    0 -0.20314375060E+03  0.32268428536E+03 -0.18447073994E+03  0.42358233732E+03  0.10566000000E+00 0. -1.
         -4    1    3    3    0  502  0.27047136898E+03 -0.46960789680E+02  0.62282971443E+03  0.68064449633E+03  0.00000000000E+00 0. -1.
        -13    1    1    2    0    0 -0.67327618375E+02 -0.27572349568E+03  0.73653549662E+03  0.78932946430E+03  0.10566000000E+00 0.  1.
<mgrwt>
<rscale>  1 0.73727001E+03</rscale>
<asrwt>0</asrwt>
<pdfrwt beam="2">  1       21 0.55281680E-01 0.10134882E+04</pdfrwt>
<pdfrwt beam="1">  1       -4 0.23603467E+00 0.10134882E+04</pdfrwt>
<totfact> 0.93185887E+00</totfact>
</mgrwt>
</event>
<event>
 6    2  0.2294477E-005  0.1029443E+04  0.7818608E-02  0.9716660E-01
         -4   -1    0    0    0  501 -0.00000000000E+00  0.00000000000E+00  0.31334352814E+03  0.31334352814E+03  0.00000000000E+00 0. -1.
         21   -1    0    0  501  502  0.00000000000E+00 -0.00000000000E+00 -0.13180038729E+04  0.13180038729E+04  0.00000000000E+00 0. -1.
   -9000010    2    1    2    0  502  0.65997967557E+02 -0.21039559806E+03 -0.95740517641E+03  0.14058366441E+04  0.10055495804E+04 0.  0.
         13    1    3    3    0    0  0.47018723178E+03  0.11755584435E+03 -0.61410582271E+03  0.78231795462E+03  0.10566000000E+00 0. -1.
         -4    1    3    3    0  502 -0.40418926423E+03 -0.32795144241E+03 -0.34329935369E+03  0.62351868949E+03  0.00000000000E+00 0. -1.
        -13    1    1    2    0    0 -0.65997967557E+02  0.21039559806E+03 -0.47255168391E+02  0.22551075696E+03  0.10566000000E+00 0.  1.
<mgrwt>
<rscale>  1 0.70033487E+03</rscale>
<asrwt>0</asrwt>
<pdfrwt beam="2">  1       21 0.20276983E+00 0.10294426E+04</pdfrwt>
<pdfrwt beam="1">  1       -4 0.48206696E-01 0.10294426E+04</pdfrwt>
<totfact> 0.18361215E+01</totfact>
</mgrwt>
</event>
<event>
 6    2  0.2294477E-005  0.1064778E+04  0.7818608E-02  0.9626595E-01
         21   -1    0    0  501  502  0.00000000000E+00  0.00000000000E+00  0.25870127599E+03  0.25870127599E+03  0.00000000000E+00 0. -1.
         -4   -1    0    0    0  501 -0.00000000000E+00 -0.00000000000E+00 -0.19037131560E+04  0.19037131560E+04  0.00000000000E+00 0. -1.
   -9000010    2    1    2    0  502  0.19701768864E+03  0.18465814235E+03 -0.98992806583E+03  0.14538599782E+04  0.10299692528E+04 0.  0.
         13    1    3    3    0    0  0.52053688051E+03 -0.20388582227E+03 -0.53139549637E+03  0.77130360898E+03  0.10566000000E+00 0. -1.
         -4    1    3    3    0  502 -0.32351919187E+03  0.38854396462E+03 -0.45853256945E+03  0.68255636925E+03  0.00000000000E+00 0. -1.
        -13    1    1    2    0    0 -0.19701768864E+03 -0.18465814235E+03 -0.65508381416E+03  0.70855445374E+03  0.10566000000E+00 0.  1.
<mgrwt>
<rscale>  1 0.75560703E+03</rscale>
<asrwt>0</asrwt>
<pdfrwt beam="1">  1       21 0.39800197E-01 0.10647776E+04</pdfrwt>
<pdfrwt beam="2">  1       -4 0.29287894E+00 0.10647776E+04</pdfrwt>
<totfact> 0.83405852E+00</totfact>
</mgrwt>
</event>
<event>
 6    2  0.2294477E-005  0.9317237E+03  0.7818608E-02  0.1017394E+00
         21   -1    0    0  501  502  0.00000000000E+00  0.00000000000E+00  0.24491917688E+04  0.24491917688E+04  0.00000000000E+00 0. -1.
         -4   -1    0    0    0  501 -0.00000000000E+00 -0.00000000000E+00 -0.11170401366E+03  0.11170401366E+03  0.00000000000E+00 0. -1.
   -9000010    2    1    2    0  502 -0.52701213980E+02 -0.44838914920E+02  0.23014088637E+04  0.24828596125E+04  0.92915076889E+03 0.  0.
         13    1    3    3    0    0 -0.18710232580E+03  0.31783240970E+03  0.40648768111E+03  0.54886880676E+03  0.10566000000E+00 0. -1.
         -4    1    3    3    0  502  0.13440111182E+03 -0.36267132462E+03  0.18949211826E+04  0.19339908058E+04  0.00000000000E+00 0. -1.
        -13    1    1    2    0    0  0.52701213980E+02  0.44838914920E+02  0.36078891420E+02  0.78036169923E+02  0.10566000000E+00 0.  1.
<mgrwt>
<rscale>  1 0.48638945E+03</rscale>
<asrwt>0</asrwt>
<pdfrwt beam="1">  1       21 0.37679869E+00 0.93172372E+03</pdfrwt>
<pdfrwt beam="2">  1       -4 0.17185235E-01 0.93172372E+03</pdfrwt>
<totfact> 0.10969390E+01</totfact>
</mgrwt>
</event>
<event>
 6    2  0.2294477E-005  0.9820696E+03  0.7818608E-02  0.1044301E+00
         -4   -1    0    0    0  501 -0.00000000000E+00  0.00000000000E+00  0.60338556256E+03  0.60338556256E+03  0.00000000000E+00 0. -1.
         21   -1    0    0  501  502  0.00000000000E+00 -0.00000000000E+00 -0.47157716950E+03  0.47157716950E+03  0.00000000000E+00 0. -1.
   -9000010    2    1    2    0  502 -0.97744778834E-01  0.26624095238E+02  0.43833587794E+02  0.98304739315E+03  0.98170868477E+03 0.  0.
         13    1    3    3    0    0 -0.17755660989E+03 -0.32620691501E+03 -0.28578463481E+03  0.46862583132E+03  0.10566000000E+00 0. -1.
         -4    1    3    3    0  502  0.17745886511E+03  0.35283101025E+03  0.32961822261E+03  0.51442156183E+03  0.00000000000E+00 0. -1.
        -13    1    1    2    0    0  0.97744778834E-01 -0.26624095238E+02  0.87974805266E+02  0.91915338910E+02  0.10566000000E+00 0.  1.
<mgrwt>
<rscale>  1 0.39849880E+03</rscale>
<asrwt>0</asrwt>
<pdfrwt beam="2">  1       21 0.72550334E-01 0.98206965E+03</pdfrwt>
<pdfrwt beam="1">  1       -4 0.92828548E-01 0.98206965E+03</pdfrwt>
<totfact> 0.65419822E+01</totfact>
</mgrwt>
</event>
<event>
 6    2  0.2294477E-005  0.9376686E+03  0.7818608E-02  0.9556985E-01
         21   -1    0    0  501  502  0.00000000000E+00  0.00000000000E+00  0.28986011997E+03  0.28986011997E+03  0.00000000000E+00 0. -1.
         -4   -1    0    0    0  501 -0.00000000000E+00 -0.00000000000E+00 -0.23970176072E+04  0.23970176072E+04  0.00000000000E+00 0. -1.
   -9000010    2    1    2    0  502  0.31392002350E+03  0.39182271012E+03 -0.63757247337E+03  0.11338964197E+04  0.79192904632E+03 0.  0.
         13    1    3    3    0    0 -0.15018856755E+03 -0.13281141486E+03 -0.28838426710E+03  0.35122780986E+03  0.10566000000E+00 0. -1.
         -4    1    3    3    0  502  0.46410859106E+03  0.52463412498E+03 -0.34918820627E+03  0.78266860981E+03  0.00000000000E+00 0. -1.
        -13    1    1    2    0    0 -0.31392002350E+03 -0.39182271012E+03 -0.14695850139E+04  0.15529813075E+04  0.10566000000E+00 0.  1.
<mgrwt>
<rscale>  1 0.80209786E+03</rscale>
<asrwt>0</asrwt>
<pdfrwt beam="1">  1       21 0.44593866E-01 0.93766862E+03</pdfrwt>
<pdfrwt beam="2">  1       -4 0.36877193E+00 0.93766862E+03</pdfrwt>
<totfact> 0.22010772E+00</totfact>
</mgrwt>
</event>
<event>
 6    2  0.2294477E-005  0.1008652E+04  0.7818608E-02  0.9774500E-01
         21   -1    0    0  501  502  0.00000000000E+00  0.00000000000E+00  0.20835580483E+03  0.20835580483E+03  0.00000000000E+00 0. -1.
         -4   -1    0    0    0  501 -0.00000000000E+00 -0.00000000000E+00 -0.20061867958E+04  0.20061867958E+04  0.00000000000E+00 0. -1.
   -9000010    2    1    2    0  502  0.80631639115E+02 -0.17583992190E+03 -0.11090991444E+04  0.14991596913E+04  0.98992814309E+03 0.  0.
         13    1    3    3    0    0 -0.21655542920E+03  0.17346630441E+03 -0.98601031068E+03  0.10243061830E+04  0.10566000000E+00 0. -1.
         -4    1    3    3    0  502  0.29718706831E+03 -0.34930622631E+03 -0.12308883374E+03  0.47485350825E+03  0.00000000000E+00 0. -1.
        -13    1    1    2    0    0 -0.80631639115E+02  0.17583992190E+03 -0.68873184653E+03  0.71538290932E+03  0.10566000000E+00 0.  1.
<mgrwt>
<rscale>  1 0.66749138E+03</rscale>
<asrwt>0</asrwt>
<pdfrwt beam="1">  1       21 0.32054739E-01 0.10086520E+04</pdfrwt>
<pdfrwt beam="2">  1       -4 0.30864412E+00 0.10086520E+04</pdfrwt>
<totfact> 0.10480578E+01</totfact>
</mgrwt>
</event>
<event>
 6    2  0.2294477E-005  0.1158601E+04  0.7818608E-02  0.9343631E-01
         -4   -1    0    0    0  501 -0.00000000000E+00  0.00000000000E+00  0.49480960413E+03  0.49480960413E+03  0.00000000000E+00 0. -1.
         21   -1    0    0  501  502  0.00000000000E+00 -0.00000000000E+00 -0.16072324518E+04  0.16072324518E+04  0.00000000000E+00 0. -1.
   -9000010    2    1    2    0  502  0.95555530262E+02 -0.55790449613E+03 -0.98762536978E+03  0.15224191545E+04  0.10109242923E+04 0.  0.
         13    1    3    3    0    0 -0.15027660063E+03 -0.14875948835E+03  0.16931176649E+03  0.27088545090E+03  0.10566000000E+00 0. -1.
         -4    1    3    3    0  502  0.24583213089E+03 -0.40914500778E+03 -0.11569371363E+04  0.12515337036E+04  0.00000000000E+00 0. -1.
        -13    1    1    2    0    0 -0.95555530262E+02  0.55790449613E+03 -0.12479747785E+03  0.57962290138E+03  0.10566000000E+00 0.  1.
<mgrwt>
<rscale>  1 0.96863464E+03</rscale>
<asrwt>0</asrwt>
<pdfrwt beam="2">  1       21 0.24726654E+00 0.11586010E+04</pdfrwt>
<pdfrwt beam="1">  1       -4 0.76124553E-01 0.11586010E+04</pdfrwt>
<totfact> 0.33837179E+00</totfact>
</mgrwt>
</event>
<event>
 6    2  0.2294477E-005  0.1049221E+04  0.7818608E-02  0.9603298E-01
         -4   -1    0    0    0  501 -0.00000000000E+00  0.00000000000E+00  0.65195430897E+03  0.65195430897E+03  0.00000000000E+00 0. -1.
         21   -1    0    0  501  502  0.00000000000E+00 -0.00000000000E+00 -0.73472281868E+03  0.73472281868E+03  0.00000000000E+00 0. -1.
   -9000010    2    1    2    0  502  0.15039353756E+03  0.26601105567E+03  0.56744813570E+02  0.10507544038E+04  0.10037353961E+04 0.  0.
         13    1    3    3    0    0 -0.25231449970E+03  0.37913350960E+02 -0.35100328026E+03  0.43393933085E+03  0.10566000000E+00 0. -1.
         -4    1    3    3    0  502  0.40270803726E+03  0.22809770471E+03  0.40774809383E+03  0.61681507293E+03  0.00000000000E+00 0. -1.
        -13    1    1    2    0    0 -0.15039353756E+03 -0.26601105567E+03 -0.13951332327E+03  0.33592272387E+03  0.10566000000E+00 0.  1.
<mgrwt>
<rscale>  1 0.77078296E+03</rscale>
<asrwt>0</asrwt>
<pdfrwt beam="2">  1       21 0.11303428E+00 0.10492211E+04</pdfrwt>
<pdfrwt beam="1">  1       -4 0.10030066E+00 0.10492211E+04</pdfrwt>
<totfact> 0.18454457E+01</totfact>
</mgrwt>
</event>
<event>
 6    2  0.2294477E-005  0.1047582E+04  0.7818608E-02  0.9634304E-01
         -4   -1    0    0    0  501 -0.00000000000E+00  0.00000000000E+00  0.83648637404E+03  0.83648637404E+03  0.00000000000E+00 0. -1.
         21   -1    0    0  501  502  0.00000000000E+00 -0.00000000000E+00 -0.54425246429E+03  0.54425246429E+03  0.00000000000E+00 0.  1.
   -9000010    2    1    2    0  502  0.73248013741E+02 -0.26631156759E+03  0.33802491179E+03  0.11007675013E+04  0.10105152786E+04 0.  0.
         13    1    3    3    0    0  0.37821610000E+03 -0.11953413007E+03  0.56711992058E+03  0.69206996903E+03  0.10566000000E+00 0. -1.
         -4    1    3    3    0  502 -0.30496808625E+03 -0.14677743752E+03 -0.22909500879E+03  0.40869753223E+03  0.00000000000E+00 0. -1.
        -13    1    1    2    0    0 -0.73248013741E+02  0.26631156759E+03 -0.45791002037E+02  0.27997133707E+03  0.10566000000E+00 0.  1.
<mgrwt>
<rscale>  1 0.75066733E+03</rscale>
<asrwt>0</asrwt>
<pdfrwt beam="2">  1       21 0.83731148E-01 0.10475821E+04</pdfrwt>
<pdfrwt beam="1">  1       -4 0.12869021E+00 0.10475821E+04</pdfrwt>
<totfact> 0.20808411E+01</totfact>
</mgrwt>
</event>
<event>
 6    2  0.2294477E-005  0.1225956E+04  0.7818608E-02  0.9238307E-01
         -4   -1    0    0    0  501 -0.00000000000E+00  0.00000000000E+00  0.78950709212E+03  0.78950709212E+03  0.00000000000E+00 0. -1.
         21   -1    0    0  501  502  0.00000000000E+00 -0.00000000000E+00 -0.14050203773E+04  0.14050203773E+04  0.00000000000E+00 0. -1.
   -9000010    2    1    2    0  502 -0.69917129594E+03 -0.68934024995E+02 -0.80529013444E+03  0.14667859875E+04  0.10046773271E+04 0.  0.
         13    1    3    3    0    0 -0.56918194787E+03 -0.50929399789E+03 -0.45245997321E+03  0.88773222572E+03  0.10566000000E+00 0. -1.
         -4    1    3    3    0  502 -0.12998934808E+03  0.44035997290E+03 -0.35283016123E+03  0.57905376177E+03  0.00000000000E+00 0. -1.
        -13    1    1    2    0    0  0.69917129594E+03  0.68934024995E+02  0.18977684924E+03  0.72774148194E+03  0.10566000000E+00 0.  1.
<mgrwt>
<rscale>  1 0.10666632E+04</rscale>
<asrwt>0</asrwt>
<pdfrwt beam="2">  1       21 0.21615698E+00 0.12259563E+04</pdfrwt>
<pdfrwt beam="1">  1       -4 0.12146263E+00 0.12259563E+04</pdfrwt>
<totfact> 0.17456094E+00</totfact>
</mgrwt>
</event>
<event>
 6    2  0.2294477E-005  0.1054688E+04  0.7818608E-02  0.9570177E-01
         -4   -1    0    0    0  501 -0.00000000000E+00  0.00000000000E+00  0.78333877423E+03  0.78333877423E+03  0.00000000000E+00 0. -1.
         21   -1    0    0  501  502  0.00000000000E+00 -0.00000000000E+00 -0.80084230529E+03  0.80084230529E+03  0.00000000000E+00 0. -1.
   -9000010    2    1    2    0  502 -0.49007291899E+02 -0.33352131973E+03 -0.34945488634E+03  0.11110744332E+04  0.99936454465E+03 0.  0.
         13    1    3    3    0    0  0.87579074800E+02  0.33068424091E+03  0.12701632892E+02  0.34232076211E+03  0.10566000000E+00 0. -1.
         -4    1    3    3    0  502 -0.13658636670E+03 -0.66420556064E+03 -0.36215651923E+03  0.76875367107E+03  0.00000000000E+00 0. -1.
        -13    1    1    2    0    0  0.49007291899E+02  0.33352131973E+03  0.33195135528E+03  0.47310664634E+03  0.10566000000E+00 0.  1.
<mgrwt>
<rscale>  1 0.79301915E+03</rscale>
<asrwt>0</asrwt>
<pdfrwt beam="2">  1       21 0.12320651E+00 0.10546884E+04</pdfrwt>
<pdfrwt beam="1">  1       -4 0.12051366E+00 0.10546884E+04</pdfrwt>
<totfact> 0.93879059E+00</totfact>
</mgrwt>
</event>
<event>
 6    2  0.2294477E-005  0.1092160E+04  0.7818608E-02  0.9443616E-01
         -4   -1    0    0    0  501 -0.00000000000E+00  0.00000000000E+00  0.63263058673E+03  0.63263058673E+03  0.00000000000E+00 0. -1.
         21   -1    0    0  501  502  0.00000000000E+00 -0.00000000000E+00 -0.98275170935E+03  0.98275170935E+03  0.00000000000E+00 0.  1.
   -9000010    2    1    2    0  502 -0.13465173829E+02  0.47221760655E+03 -0.15031255392E+03  0.11024551530E+04  0.98470438285E+03 0.  0.
         13    1    3    3    0    0 -0.49524060260E+03  0.17086329555E+03 -0.69650903843E+02  0.52849671692E+03  0.10566000000E+00 0. -1.
         -4    1    3    3    0  502  0.48177542877E+03  0.30135431101E+03 -0.80661650076E+02  0.57395843605E+03  0.00000000000E+00 0. -1.
        -13    1    1    2    0    0  0.13465173829E+02 -0.47221760655E+03 -0.19980856870E+03  0.51292714310E+03  0.10566000000E+00 0.  1.
<mgrwt>
<rscale>  1 0.88571587E+03</rscale>
<asrwt>0</asrwt>
<pdfrwt beam="2">  1       21 0.15119257E+00 0.10921600E+04</pdfrwt>
<pdfrwt beam="1">  1       -4 0.97327782E-01 0.10921600E+04</pdfrwt>
<totfact> 0.90831614E+00</totfact>
</mgrwt>
</event>
<event>
 6    2  0.2294477E-005  0.1004238E+04  0.7818608E-02  0.9926696E-01
         -4   -1    0    0    0  501 -0.00000000000E+00  0.00000000000E+00  0.39218909516E+03  0.39218909516E+03  0.00000000000E+00 0. -1.
         21   -1    0    0  501  502  0.00000000000E+00 -0.00000000000E+00 -0.10369075018E+04  0.10369075018E+04  0.00000000000E+00 0. -1.
   -9000010    2    1    2    0  502  0.44515896783E+02  0.11092311050E+03 -0.76279127327E+03  0.12610882207E+04  0.99709947967E+03 0.  0.
         13    1    3    3    0    0  0.43229407063E+03 -0.10784759277E+03 -0.67264425899E+03  0.80682065980E+03  0.10566000000E+00 0. -1.
         -4    1    3    3    0  502 -0.38777817385E+03  0.21877070327E+03 -0.90147014286E+02  0.45426756092E+03  0.00000000000E+00 0. -1.
        -13    1    1    2    0    0 -0.44515896783E+02 -0.11092311050E+03  0.11807286659E+03  0.16800837627E+03  0.10566000000E+00 0.  1.
<mgrwt>
<rscale>  1 0.58984742E+03</rscale>
<asrwt>0</asrwt>
<pdfrwt beam="2">  1       21 0.15952423E+00 0.10042375E+04</pdfrwt>
<pdfrwt beam="1">  1       -4 0.60336784E-01 0.10042375E+04</pdfrwt>
<totfact> 0.23471576E+01</totfact>
</mgrwt>
</event>
<event>
 6    2  0.2294477E-005  0.1097055E+04  0.7818608E-02  0.9439861E-01
         21   -1    0    0  501  502  0.00000000000E+00  0.00000000000E+00  0.68986176656E+03  0.68986176656E+03  0.00000000000E+00 0. -1.
         -4   -1    0    0    0  501 -0.00000000000E+00 -0.00000000000E+00 -0.10533180556E+04  0.10533180556E+04  0.00000000000E+00 0. -1.
   -9000010    2    1    2    0  502  0.46274992014E+03 -0.94783131915E+02  0.73763696079E+02  0.10995318926E+04  0.99015552782E+03 0.  0.
         13    1    3    3    0    0 -0.30224026575E+03 -0.13230434726E+03  0.45980396865E+02  0.33311833724E+03  0.10566000000E+00 0. -1.
         -4    1    3    3    0  502  0.76499018589E+03  0.37521215345E+02  0.27783299213E+02  0.76641355535E+03  0.00000000000E+00 0. -1.
        -13    1    1    2    0    0 -0.46274992014E+03  0.94783131915E+02 -0.43721998510E+03  0.64364792955E+03  0.10566000000E+00 0.  1.
<mgrwt>
<rscale>  1 0.88866666E+03</rscale>
<asrwt>0</asrwt>
<pdfrwt beam="1">  1       21 0.10613258E+00 0.10970548E+04</pdfrwt>
<pdfrwt beam="2">  1       -4 0.16204893E+00 0.10970548E+04</pdfrwt>
<totfact> 0.62765700E+00</totfact>
</mgrwt>
</event>
<event>
 6    2  0.2294477E-005  0.1164652E+04  0.7818608E-02  0.9317121E-01
         -4   -1    0    0    0  501 -0.00000000000E+00  0.00000000000E+00  0.55295256027E+03  0.55295256027E+03  0.00000000000E+00 0. -1.
         21   -1    0    0  501  502  0.00000000000E+00 -0.00000000000E+00 -0.17330898058E+04  0.17330898058E+04  0.00000000000E+00 0.  1.
   -9000010    2    1    2    0  502  0.77486412172E+02 -0.60862455949E+03 -0.11999141667E+04  0.16721864088E+04  0.98994210935E+03 0.  0.
         13    1    3    3    0    0 -0.32146491299E+03 -0.62639216145E+03 -0.49044486025E+03  0.85804603741E+03  0.10566000000E+00 0. -1.
         -4    1    3    3    0  502  0.39895132517E+03  0.17767601962E+02 -0.70946930647E+03  0.81414037140E+03  0.00000000000E+00 0. -1.
        -13    1    1    2    0    0 -0.77486412172E+02  0.60862455949E+03  0.19776921181E+02  0.61385595726E+03  0.10566000000E+00 0.  1.
<mgrwt>
<rscale>  1 0.99221838E+03</rscale>
<asrwt>0</asrwt>
<pdfrwt beam="2">  1       21 0.26662920E+00 0.11646516E+04</pdfrwt>
<pdfrwt beam="1">  1       -4 0.85069626E-01 0.11646516E+04</pdfrwt>
<totfact> 0.19710305E+00</totfact>
</mgrwt>
</event>
<event>
 6    2  0.2294477E-005  0.1335587E+04  0.7818608E-02  0.9093506E-01
         21   -1    0    0  501  502  0.00000000000E+00  0.00000000000E+00  0.22442230433E+04  0.22442230433E+04  0.00000000000E+00 0.  1.
         -4   -1    0    0    0  501 -0.00000000000E+00 -0.00000000000E+00 -0.78054122567E+03  0.78054122567E+03  0.00000000000E+00 0. -1.
   -9000010    2    1    2    0  502 -0.87210853678E+03 -0.34287120942E+03  0.15929860059E+04  0.20787972767E+04  0.95166156617E+03 0.  0.
         13    1    3    3    0    0 -0.67724112755E+03 -0.66847171860E+03  0.12139473874E+04  0.15424585096E+04  0.10566000000E+00 0. -1.
         -4    1    3    3    0  502 -0.19486740924E+03  0.32560050919E+03  0.37903861852E+03  0.53633876710E+03  0.00000000000E+00 0. -1.
        -13    1    1    2    0    0  0.87210853678E+03  0.34287120942E+03 -0.12930418826E+03  0.94596699226E+03  0.10566000000E+00 0.  1.
<mgrwt>
<rscale>  1 0.12223606E+04</rscale>
<asrwt>0</asrwt>
<pdfrwt beam="1">  1       21 0.34526508E+00 0.13355874E+04</pdfrwt>
<pdfrwt beam="2">  1       -4 0.12008327E+00 0.13355874E+04</pdfrwt>
<totfact> 0.26582398E-01</totfact>
</mgrwt>
</event>
<event>
 6    2  0.2294477E-005  0.1015863E+04  0.7818608E-02  0.9824883E-01
         21   -1    0    0  501  502  0.00000000000E+00  0.00000000000E+00  0.32904609465E+03  0.32904609465E+03  0.00000000000E+00 0. -1.
         -4   -1    0    0    0  501 -0.00000000000E+00 -0.00000000000E+00 -0.13454719983E+04  0.13454719983E+04  0.00000000000E+00 0. -1.
   -9000010    2    1    2    0  502 -0.12404734625E+03 -0.10180803518E+03 -0.49710808111E+03  0.11309708254E+04  0.10031081414E+04 0.  0.
         13    1    3    3    0    0 -0.46566990793E+02 -0.48008084314E+03  0.23374556291E+02  0.48290007417E+03  0.10566000000E+00 0. -1.
         -4    1    3    3    0  502 -0.77480355452E+02  0.37827280796E+03 -0.52048263740E+03  0.64807075120E+03  0.00000000000E+00 0. -1.
        -13    1    1    2    0    0  0.12404734625E+03  0.10180803518E+03 -0.51931782252E+03  0.54354726757E+03  0.10566000000E+00 0.  1.
<mgrwt>
<rscale>  1 0.64044111E+03</rscale>
<asrwt>0</asrwt>
<pdfrwt beam="1">  1       21 0.50622477E-01 0.10158635E+04</pdfrwt>
<pdfrwt beam="2">  1       -4 0.20699569E+00 0.10158635E+04</pdfrwt>
<totfact> 0.17290866E+01</totfact>
</mgrwt>
</event>
<event>
 6    2  0.2294477E-005  0.1011057E+04  0.7818608E-02  0.9751760E-01
         21   -1    0    0  501  502  0.00000000000E+00  0.00000000000E+00  0.31604796713E+03  0.31604796713E+03  0.00000000000E+00 0. -1.
         -4   -1    0    0    0  501 -0.00000000000E+00 -0.00000000000E+00 -0.11969852688E+04  0.11969852688E+04  0.00000000000E+00 0. -1.
   -9000010    2    1    2    0  502 -0.15026007123E+03 -0.14249329768E+03 -0.64578449068E+03  0.11996974981E+04  0.98962318575E+03 0.  0.
         13    1    3    3    0    0  0.62558184037E+02 -0.27455522583E+03 -0.83795607172E+03  0.88400480073E+03  0.10566000000E+00 0. -1.
         -4    1    3    3    0  502 -0.21281825526E+03  0.13206192816E+03  0.19217158104E+03  0.31569269741E+03  0.00000000000E+00 0. -1.
        -13    1    1    2    0    0  0.15026007123E+03  0.14249329768E+03 -0.23515281099E+03  0.31333573778E+03  0.10566000000E+00 0.  1.
<mgrwt>
<rscale>  1 0.68016879E+03</rscale>
<asrwt>0</asrwt>
<pdfrwt beam="1">  1       21 0.48622764E-01 0.10110571E+04</pdfrwt>
<pdfrwt beam="2">  1       -4 0.18415158E+00 0.10110571E+04</pdfrwt>
<totfact> 0.26840348E+01</totfact>
</mgrwt>
</event>
<event>
 6    2  0.2294477E-005  0.1090418E+04  0.7818608E-02  0.9521732E-01
         21   -1    0    0  501  502  0.00000000000E+00  0.00000000000E+00  0.52031823399E+03  0.52031823399E+03  0.00000000000E+00 0. -1.
         -4   -1    0    0    0  501 -0.00000000000E+00 -0.00000000000E+00 -0.12822040052E+04  0.12822040052E+04  0.00000000000E+00 0. -1.
   -9000010    2    1    2    0  502 -0.27669855022E+03 -0.23152805428E+03 -0.16183885692E+03  0.11023625159E+04  0.10290014447E+04 0.  0.
         13    1    3    3    0    0 -0.42739766625E+03  0.16126171255E+03  0.24393308936E+03  0.51785854082E+03  0.10566000000E+00 0. -1.
         -4    1    3    3    0  502  0.15069911603E+03 -0.39278976683E+03 -0.40577194628E+03  0.58450397508E+03  0.00000000000E+00 0. -1.
        -13    1    1    2    0    0  0.27669855022E+03  0.23152805428E+03 -0.60004691433E+03  0.70015972333E+03  0.10566000000E+00 0.  1.
<mgrwt>
<rscale>  1 0.82700378E+03</rscale>
<asrwt>0</asrwt>
<pdfrwt beam="1">  1       21 0.80048960E-01 0.10904179E+04</pdfrwt>
<pdfrwt beam="2">  1       -4 0.19726215E+00 0.10904179E+04</pdfrwt>
<totfact> 0.70699979E+00</totfact>
</mgrwt>
</event>
<event>
 6    2  0.2294477E-005  0.1008524E+04  0.7818608E-02  0.9821737E-01
         -4   -1    0    0    0  501 -0.00000000000E+00  0.00000000000E+00  0.17507416075E+03  0.17507416075E+03  0.00000000000E+00 0. -1.
         21   -1    0    0  501  502  0.00000000000E+00 -0.00000000000E+00 -0.19851200832E+04  0.19851200832E+04  0.00000000000E+00 0. -1.
   -9000010    2    1    2    0  502 -0.14144793579E+03 -0.86308218584E+02 -0.16176157136E+04  0.19062532595E+04  0.99481870981E+03 0.  0.
         13    1    3    3    0    0  0.12949744674E+03  0.24902710569E+03 -0.13913269813E+04  0.14193572025E+04  0.10566000000E+00 0. -1.
         -4    1    3    3    0  502 -0.27094538252E+03 -0.33533532428E+03 -0.22628873231E+03  0.48689605707E+03  0.00000000000E+00 0. -1.
        -13    1    1    2    0    0  0.14144793579E+03  0.86308218584E+02 -0.19243020883E+03  0.25394098442E+03  0.10566000000E+00 0.  1.
<mgrwt>
<rscale>  1 0.64208960E+03</rscale>
<asrwt>0</asrwt>
<pdfrwt beam="2">  1       21 0.30540309E+00 0.10085241E+04</pdfrwt>
<pdfrwt beam="1">  1       -4 0.26934487E-01 0.10085241E+04</pdfrwt>
<totfact> 0.13081965E+01</totfact>
</mgrwt>
</event>
<event>
 6    2  0.2294477E-005  0.1007833E+04  0.7818608E-02  0.1008435E+00
         -4   -1    0    0    0  501 -0.00000000000E+00  0.00000000000E+00  0.32622033874E+03  0.32622033874E+03  0.00000000000E+00 0. -1.
         21   -1    0    0  501  502  0.00000000000E+00 -0.00000000000E+00 -0.92591157253E+03  0.92591157253E+03  0.00000000000E+00 0. -1.
   -9000010    2    1    2    0  502 -0.63936665381E+02 -0.33069882109E+02 -0.61200901106E+03  0.11791027864E+04  0.10052595868E+04 0.  0.
         13    1    3    3    0    0 -0.16385967991E+03 -0.43092743791E+03 -0.61532223833E+03  0.76887575042E+03  0.10566000000E+00 0. -1.
         -4    1    3    3    0  502  0.99923014533E+02  0.39785755580E+03  0.33132272671E+01  0.41022703594E+03  0.00000000000E+00 0. -1.
        -13    1    1    2    0    0  0.63936665381E+02  0.33069882109E+02  0.12317777270E+02  0.73029124900E+02  0.10566000000E+00 0.  1.
<mgrwt>
<rscale>  1 0.52101328E+03</rscale>
<asrwt>0</asrwt>
<pdfrwt beam="2">  1       21 0.14244793E+00 0.10078335E+04</pdfrwt>
<pdfrwt beam="1">  1       -4 0.50187745E-01 0.10078335E+04</pdfrwt>
<totfact> 0.47798594E+01</totfact>
</mgrwt>
</event>
<event>
 6    2  0.2294477E-005  0.9177650E+03  0.7818608E-02  0.9798635E-01
         -4   -1    0    0    0  501 -0.00000000000E+00  0.00000000000E+00  0.50287616703E+03  0.50287616703E+03  0.00000000000E+00 0. -1.
         21   -1    0    0  501  502  0.00000000000E+00 -0.00000000000E+00 -0.66312816236E+03  0.66312816236E+03  0.00000000000E+00 0. -1.
   -9000010    2    1    2    0  502 -0.20183908189E+03  0.12454995992E+03 -0.12756544957E+03  0.92658810410E+03  0.88658945586E+03 0.  0.
         13    1    3    3    0    0  0.12123017959E+03 -0.58539823586E+02  0.31873672137E+03  0.34600112153E+03  0.10566000000E+00 0. -1.
         -4    1    3    3    0  502 -0.32306926148E+03  0.18308978351E+03 -0.44630217094E+03  0.58058698257E+03  0.00000000000E+00 0. -1.
        -13    1    1    2    0    0  0.20183908189E+03 -0.12454995992E+03 -0.32686545754E+02  0.23941622529E+03  0.10566000000E+00 0.  1.
<mgrwt>
<rscale>  1 0.65435826E+03</rscale>
<asrwt>0</asrwt>
<pdfrwt beam="2">  1       21 0.10201972E+00 0.91776499E+03</pdfrwt>
<pdfrwt beam="1">  1       -4 0.77365564E-01 0.91776499E+03</pdfrwt>
<totfact> 0.44463697E+01</totfact>
</mgrwt>
</event>
<event>
 6    2  0.2294477E-005  0.1107270E+04  0.7818608E-02  0.9772878E-01
         21   -1    0    0  501  502  0.00000000000E+00  0.00000000000E+00  0.33545279651E+03  0.33545279651E+03  0.00000000000E+00 0. -1.
         -4   -1    0    0    0  501 -0.00000000000E+00 -0.00000000000E+00 -0.14193653926E+04  0.14193653926E+04  0.00000000000E+00 0. -1.
   -9000010    2    1    2    0  502 -0.98472710246E+02  0.10915686609E+03 -0.62186213573E+03  0.12699442517E+04  0.10974669884E+04 0.  0.
         13    1    3    3    0    0  0.37153188608E+03 -0.11445124409E+03 -0.64036027805E+03  0.74913038019E+03  0.10566000000E+00 0. -1.
         -4    1    3    3    0  502 -0.47000459633E+03  0.22360811018E+03  0.18498142324E+02  0.52081387153E+03  0.00000000000E+00 0. -1.
        -13    1    1    2    0    0  0.98472710246E+02 -0.10915686609E+03 -0.46205046039E+03  0.48487393742E+03  0.10566000000E+00 0.  1.
<mgrwt>
<rscale>  1 0.66838572E+03</rscale>
<asrwt>0</asrwt>
<pdfrwt beam="1">  1       21 0.51608123E-01 0.11072696E+04</pdfrwt>
<pdfrwt beam="2">  1       -4 0.21836390E+00 0.11072696E+04</pdfrwt>
<totfact> 0.13868620E+01</totfact>
</mgrwt>
</event>
<event>
 6    2  0.2294477E-005  0.1044722E+04  0.7818608E-02  0.9601986E-01
         -4   -1    0    0    0  501 -0.00000000000E+00  0.00000000000E+00  0.68531740858E+03  0.68531740858E+03  0.00000000000E+00 0. -1.
         21   -1    0    0  501  502  0.00000000000E+00 -0.00000000000E+00 -0.82022315874E+03  0.82022315874E+03  0.00000000000E+00 0. -1.
   -9000010    2    1    2    0  502  0.30428170048E+03 -0.64001651416E+02 -0.37784266180E+03  0.11109497427E+04  0.99737690428E+03 0.  0.
         13    1    3    3    0    0  0.15828747878E+03  0.43845431559E+03 -0.35725949090E+03  0.58730866484E+03  0.10566000000E+00 0. -1.
         -4    1    3    3    0  502  0.14599422170E+03 -0.50245596700E+03 -0.20583170904E+02  0.52364107791E+03  0.00000000000E+00 0. -1.
        -13    1    1    2    0    0 -0.30428170048E+03  0.64001651416E+02  0.24293691164E+03  0.39459082457E+03  0.10566000000E+00 0.  1.
<mgrwt>
<rscale>  1 0.77164878E+03</rscale>
<asrwt>0</asrwt>
<pdfrwt beam="2">  1       21 0.12618818E+00 0.10447221E+04</pdfrwt>
<pdfrwt beam="1">  1       -4 0.10543345E+00 0.10447221E+04</pdfrwt>
<totfact> 0.12288640E+01</totfact>
</mgrwt>
</event>
<event>
 6    2  0.2294477E-005  0.1031905E+04  0.7818608E-02  0.9707965E-01
         21   -1    0    0  501  502  0.00000000000E+00  0.00000000000E+00  0.36082974185E+03  0.36082974185E+03  0.00000000000E+00 0. -1.
         -4   -1    0    0    0  501 -0.00000000000E+00 -0.00000000000E+00 -0.14332947349E+04  0.14332947349E+04  0.00000000000E+00 0. -1.
   -9000010    2    1    2    0  502 -0.80607680816E+02  0.21048220569E+03 -0.43836167588E+03  0.11211553949E+04  0.10069896243E+04 0.  0.
         13    1    3    3    0    0 -0.39923813042E+03 -0.13882081725E+03  0.68290709279E+02  0.42816578124E+03  0.10566000000E+00 0. -1.
         -4    1    3    3    0  502  0.31863044961E+03  0.34930302294E+03 -0.50665238516E+03  0.69298961366E+03  0.00000000000E+00 0. -1.
        -13    1    1    2    0    0  0.80607680816E+02 -0.21048220569E+03 -0.63410331715E+03  0.67296908183E+03  0.10566000000E+00 0.  1.
<mgrwt>
<rscale>  1 0.70544511E+03</rscale>
<asrwt>0</asrwt>
<pdfrwt beam="1">  1       21 0.55512269E-01 0.10319053E+04</pdfrwt>
<pdfrwt beam="2">  1       -4 0.22050688E+00 0.10319053E+04</pdfrwt>
<totfact> 0.11547662E+01</totfact>
</mgrwt>
</event>
<event>
 6    2  0.2294477E-005  0.1043274E+04  0.7818608E-02  0.9641209E-01
         -4   -1    0    0    0  501 -0.00000000000E+00  0.00000000000E+00  0.32710955889E+03  0.32710955889E+03  0.00000000000E+00 0. -1.
         21   -1    0    0  501  502  0.00000000000E+00 -0.00000000000E+00 -0.14898432052E+04  0.14898432052E+04  0.00000000000E+00 0. -1.
   -9000010    2    1    2    0  502 -0.26313352199E+03  0.73301584210E+02 -0.11361900031E+04  0.15425134287E+04  0.10068801229E+04 0.  0.
         13    1    3    3    0    0 -0.57078667063E+02  0.51987328651E+03 -0.40577857914E+03  0.66195352912E+03  0.10566000000E+00 0. -1.
         -4    1    3    3    0  502 -0.20605485492E+03 -0.44657170230E+03 -0.73041142400E+03  0.88055989963E+03  0.00000000000E+00 0. -1.
        -13    1    1    2    0    0  0.26313352199E+03 -0.73301584210E+02 -0.26543643195E+02  0.27443933537E+03  0.10566000000E+00 0.  1.
<mgrwt>
<rscale>  1 0.74627699E+03</rscale>
<asrwt>0</asrwt>
<pdfrwt beam="2">  1       21 0.22920664E+00 0.10432737E+04</pdfrwt>
<pdfrwt beam="1">  1       -4 0.50324548E-01 0.10432737E+04</pdfrwt>
<totfact> 0.11155135E+01</totfact>
</mgrwt>
</event>
<event>
 6    2  0.2294477E-005  0.1019599E+04  0.7818608E-02  0.1018095E+00
         21   -1    0    0  501  502  0.00000000000E+00  0.00000000000E+00  0.22632025888E+03  0.22632025888E+03  0.00000000000E+00 0. -1.
         -4   -1    0    0    0  501 -0.00000000000E+00 -0.00000000000E+00 -0.13060991676E+04  0.13060991676E+04  0.00000000000E+00 0. -1.
   -9000010    2    1    2    0  502 -0.51685658669E+02 -0.46646784441E+00 -0.10731946291E+04  0.14803138720E+04  0.10182881825E+04 0.  0.
         13    1    3    3    0    0  0.91253811534E+02 -0.91799703023E+02  0.17665777432E+03  0.21900325109E+03  0.10566000000E+00 0. -1.
         -4    1    3    3    0  502 -0.14293947020E+03  0.91333235178E+02 -0.12498524035E+04  0.12613106209E+04  0.00000000000E+00 0. -1.
        -13    1    1    2    0    0  0.51685658669E+02  0.46646784441E+00 -0.65842795513E+01  0.52105554460E+02  0.10566000000E+00 0.  1.
<mgrwt>
<rscale>  1 0.48380385E+03</rscale>
<asrwt>0</asrwt>
<pdfrwt beam="1">  1       21 0.34818503E-01 0.10195992E+04</pdfrwt>
<pdfrwt beam="2">  1       -4 0.20093833E+00 0.10195992E+04</pdfrwt>
<totfact> 0.41711483E+01</totfact>
</mgrwt>
</event>
<event>
 6    2  0.2294477E-005  0.9970750E+03  0.7818608E-02  0.1040356E+00
         21   -1    0    0  501  502  0.00000000000E+00  0.00000000000E+00  0.71934958237E+03  0.71934958237E+03  0.00000000000E+00 0. -1.
         -4   -1    0    0    0  501 -0.00000000000E+00 -0.00000000000E+00 -0.36971299608E+03  0.36971299608E+03  0.00000000000E+00 0. -1.
   -9000010    2    1    2    0  502  0.23377885173E+02 -0.16335438682E+02  0.35791011416E+03  0.10593668801E+04  0.99666702804E+03 0.  0.
         13    1    3    3    0    0  0.43439685103E+03  0.16984144964E+03  0.38862379929E+03  0.60710395382E+03  0.10566000000E+00 0. -1.
         -4    1    3    3    0  502 -0.41101896586E+03 -0.18617688832E+03 -0.30713685129E+02  0.45226292629E+03  0.00000000000E+00 0. -1.
        -13    1    1    2    0    0 -0.23377885173E+02  0.16335438682E+02 -0.82735278762E+01  0.29695698335E+02  0.10566000000E+00 0.  1.
<mgrwt>
<rscale>  1 0.41004618E+03</rscale>
<asrwt>0</asrwt>
<pdfrwt beam="1">  1       21 0.11066917E+00 0.99707499E+03</pdfrwt>
<pdfrwt beam="2">  1       -4 0.56878923E-01 0.99707499E+03</pdfrwt>
<totfact> 0.71168070E+01</totfact>
</mgrwt>
</event>
<event>
 6    2  0.2294477E-005  0.1020497E+04  0.7818608E-02  0.9664974E-01
         -4   -1    0    0    0  501 -0.00000000000E+00  0.00000000000E+00  0.14570808065E+04  0.14570808065E+04  0.00000000000E+00 0. -1.
         21   -1    0    0  501  502  0.00000000000E+00 -0.00000000000E+00 -0.29411979202E+03  0.29411979202E+03  0.00000000000E+00 0. -1.
   -9000010    2    1    2    0  502 -0.17138532416E+03 -0.20770345961E+03  0.78681816851E+03  0.12886023839E+04  0.98432698680E+03 0.  0.
         13    1    3    3    0    0  0.18159512641E+03 -0.88439892667E+02  0.88136121497E+03  0.90421015642E+03  0.10566000000E+00 0. -1.
         -4    1    3    3    0  502 -0.35298045057E+03 -0.11926356695E+03 -0.94543046464E+02  0.38439222745E+03  0.00000000000E+00 0. -1.
        -13    1    1    2    0    0  0.17138532416E+03  0.20770345961E+03  0.37614284601E+03  0.46259821469E+03  0.10566000000E+00 0.  1.
<mgrwt>
<rscale>  1 0.73141043E+03</rscale>
<asrwt>0</asrwt>
<pdfrwt beam="2">  1       21 0.45249200E-01 0.10204966E+04</pdfrwt>
<pdfrwt beam="1">  1       -4 0.22416627E+00 0.10204966E+04</pdfrwt>
<totfact> 0.17058241E+01</totfact>
</mgrwt>
</event>
<event>
 6    2  0.2294477E-005  0.8430072E+03  0.7818608E-02  0.1007679E+00
         -4   -1    0    0    0  501 -0.00000000000E+00  0.00000000000E+00  0.18302086252E+04  0.18302086252E+04  0.00000000000E+00 0. -1.
         21   -1    0    0  501  502  0.00000000000E+00 -0.00000000000E+00 -0.15387505036E+03  0.15387505036E+03  0.00000000000E+00 0. -1.
   -9000010    2    1    2    0  502  0.30186658447E+02  0.12224563216E+03  0.10566105447E+04  0.13516978170E+04  0.83355018819E+03 0.  0.
         13    1    3    3    0    0 -0.13888605959E+03  0.43729520210E+03  0.42243508392E+03  0.62367286506E+03  0.10566000000E+00 0. -1.
         -4    1    3    3    0  502  0.16907271804E+03 -0.31504956994E+03  0.63417546083E+03  0.72802495192E+03  0.00000000000E+00 0. -1.
        -13    1    1    2    0    0 -0.30186658447E+02 -0.12224563216E+03  0.61972303011E+03  0.63238585859E+03  0.10566000000E+00 0.  1.
<mgrwt>
<rscale>  1 0.52407696E+03</rscale>
<asrwt>0</asrwt>
<pdfrwt beam="2">  1       21 0.23673086E-01 0.84300720E+03</pdfrwt>
<pdfrwt beam="1">  1       -4 0.28157054E+00 0.84300720E+03</pdfrwt>
<totfact> 0.28794614E+01</totfact>
</mgrwt>
</event>
<event>
 6    2  0.2294477E-005  0.1293699E+04  0.7818608E-02  0.9159709E-01
         -4   -1    0    0    0  501 -0.00000000000E+00  0.00000000000E+00  0.12244740861E+04  0.12244740861E+04  0.00000000000E+00 0. -1.
         21   -1    0    0  501  502  0.00000000000E+00 -0.00000000000E+00 -0.13106466473E+04  0.13106466473E+04  0.00000000000E+00 0.  1.
   -9000010    2    1    2    0  502  0.17782119179E+03  0.78197174670E+03 -0.74885864443E+03  0.14948068168E+04  0.10151640071E+04 0.  0.
         13    1    3    3    0    0 -0.34856509927E+03  0.64503810974E+03 -0.31044559653E+03  0.79620868560E+03  0.10566000000E+00 0. -1.
         -4    1    3    3    0  502  0.52638629106E+03  0.13693363696E+03 -0.43841304790E+03  0.69859813120E+03  0.00000000000E+00 0. -1.
        -13    1    1    2    0    0 -0.17782119179E+03 -0.78197174670E+03  0.66268608328E+03  0.10403139166E+04  0.10566000000E+00 0.  1.
<mgrwt>
<rscale>  1 0.11479154E+04</rscale>
<asrwt>0</asrwt>
<pdfrwt beam="2">  1       21 0.20163795E+00 0.12936994E+04</pdfrwt>
<pdfrwt beam="1">  1       -4 0.18838063E+00 0.12936994E+04</pdfrwt>
<totfact> 0.65682392E-01</totfact>
</mgrwt>
</event>
<event>
 6    2  0.2294477E-005  0.1009847E+04  0.7818608E-02  0.9955980E-01
         21   -1    0    0  501  502  0.00000000000E+00  0.00000000000E+00  0.14023851127E+03  0.14023851127E+03  0.00000000000E+00 0. -1.
         -4   -1    0    0    0  501 -0.00000000000E+00 -0.00000000000E+00 -0.22239236775E+04  0.22239236775E+04  0.00000000000E+00 0. -1.
   -9000010    2    1    2    0  502  0.95220849164E+02  0.48935829901E+02 -0.18800316698E+04  0.21340828909E+04  0.10041558544E+04 0.  0.
         13    1    3    3    0    0 -0.43326616265E+03  0.13269134202E+03 -0.10843256786E+04  0.11751973231E+04  0.10566000000E+00 0. -1.
         -4    1    3    3    0  502  0.52848701181E+03 -0.83755512114E+02 -0.79570599128E+03  0.95888556774E+03  0.00000000000E+00 0. -1.
        -13    1    1    2    0    0 -0.95220849164E+02 -0.48935829901E+02 -0.20365349635E+03  0.23007929786E+03  0.10566000000E+00 0.  1.
<mgrwt>
<rscale>  1 0.57623276E+03</rscale>
<asrwt>0</asrwt>
<pdfrwt beam="1">  1       21 0.21575156E-01 0.10098469E+04</pdfrwt>
<pdfrwt beam="2">  1       -4 0.34214209E+00 0.10098469E+04</pdfrwt>
<totfact> 0.14153499E+01</totfact>
</mgrwt>
</event>
<event>
 6    2  0.2294477E-005  0.1130278E+04  0.7818608E-02  0.9383045E-01
         21   -1    0    0  501  502  0.00000000000E+00  0.00000000000E+00  0.73522260841E+03  0.73522260841E+03  0.00000000000E+00 0. -1.
         -4   -1    0    0    0  501 -0.00000000000E+00 -0.00000000000E+00 -0.94310366032E+03  0.94310366032E+03  0.00000000000E+00 0. -1.
   -9000010    2    1    2    0  502 -0.19252979507E+03  0.49264401565E+03 -0.73896381121E+02  0.11326910872E+04  0.99888066141E+03 0.  0.
         13    1    3    3    0    0  0.11313742992E+02  0.77542636994E+03  0.39111728258E+01  0.77551877115E+03  0.10566000000E+00 0. -1.
         -4    1    3    3    0  502 -0.20384353806E+03 -0.28278235428E+03 -0.77807553947E+02  0.35717231605E+03  0.00000000000E+00 0. -1.
        -13    1    1    2    0    0  0.19252979507E+03 -0.49264401565E+03 -0.13398467079E+03  0.54563518153E+03  0.10566000000E+00 0.  1.
<mgrwt>
<rscale>  1 0.93484219E+03</rscale>
<asrwt>0</asrwt>
<pdfrwt beam="1">  1       21 0.11311117E+00 0.11302780E+04</pdfrwt>
<pdfrwt beam="2">  1       -4 0.14509287E+00 0.11302780E+04</pdfrwt>
<totfact> 0.71825290E+00</totfact>
</mgrwt>
</event>
<event>
 6    2  0.2294477E-005  0.1020730E+04  0.7818608E-02  0.9818867E-01
         21   -1    0    0  501  502  0.00000000000E+00  0.00000000000E+00  0.39021759799E+03  0.39021759799E+03  0.00000000000E+00 0. -1.
         -4   -1    0    0    0  501 -0.00000000000E+00 -0.00000000000E+00 -0.89796751889E+03  0.89796751889E+03  0.00000000000E+00 0. -1.
   -9000010    2    1    2    0  502  0.14972828174E+03  0.60083784951E+02 -0.41324049866E+03  0.11012074133E+04  0.10078995178E+04 0.  0.
         13    1    3    3    0    0 -0.18445253800E+03  0.44976780558E+03 -0.31296571502E+03  0.57815341187E+03  0.10566000000E+00 0. -1.
         -4    1    3    3    0  502  0.33418081975E+03 -0.38968402063E+03 -0.10027478364E+03  0.52305400147E+03  0.00000000000E+00 0. -1.
        -13    1    1    2    0    0 -0.14972828174E+03 -0.60083784951E+02 -0.94509422234E+02  0.18697770354E+03  0.10566000000E+00 0.  1.
<mgrwt>
<rscale>  1 0.64359791E+03</rscale>
<asrwt>0</asrwt>
<pdfrwt beam="1">  1       21 0.60033477E-01 0.10207302E+04</pdfrwt>
<pdfrwt beam="2">  1       -4 0.13814885E+00 0.10207302E+04</pdfrwt>
<totfact> 0.37323887E+01</totfact>
</mgrwt>
</event>
<event>
 6    2  0.2294477E-005  0.9890261E+03  0.7818608E-02  0.1030928E+00
         -4   -1    0    0    0  501 -0.00000000000E+00  0.00000000000E+00  0.10431571462E+04  0.10431571462E+04  0.00000000000E+00 0. -1.
         21   -1    0    0  501  502  0.00000000000E+00 -0.00000000000E+00 -0.26426093456E+03  0.26426093456E+03  0.00000000000E+00 0. -1.
   -9000010    2    1    2    0  502 -0.37112702488E+02 -0.10372590944E+02  0.67716950994E+03  0.11986372169E+04  0.98827510812E+03 0.  0.
         13    1    3    3    0    0 -0.49846635980E+03 -0.78643899950E+02  0.23765615520E+03  0.55779389932E+03  0.10566000000E+00 0. -1.
         -4    1    3    3    0  502  0.46135365731E+03  0.68271309006E+02  0.43951335474E+03  0.64084331762E+03  0.00000000000E+00 0. -1.
        -13    1    1    2    0    0  0.37112702488E+02  0.10372590944E+02  0.10172670165E+03  0.10878086376E+03  0.10566000000E+00 0.  1.
<mgrwt>
<rscale>  1 0.43941002E+03</rscale>
<asrwt>0</asrwt>
<pdfrwt beam="2">  1       21 0.40655529E-01 0.98902610E+03</pdfrwt>
<pdfrwt beam="1">  1       -4 0.16048571E+00 0.98902610E+03</pdfrwt>
<totfact> 0.58096066E+01</totfact>
</mgrwt>
</event>
<event>
 6    2  0.2294477E-005  0.9695141E+03  0.7818608E-02  0.9779279E-01
         21   -1    0    0  501  502  0.00000000000E+00  0.00000000000E+00  0.85850466606E+03  0.85850466606E+03  0.00000000000E+00 0. -1.
         -4   -1    0    0    0  501 -0.00000000000E+00 -0.00000000000E+00 -0.42771343911E+03  0.42771343911E+03  0.00000000000E+00 0. -1.
   -9000010    2    1    2    0  502  0.20495200328E+03  0.63023060098E+02  0.45398954694E+03  0.10705438068E+04  0.94550531665E+03 0.  0.
         13    1    3    3    0    0  0.57068552798E+03  0.97491455172E+02  0.16174319060E+03  0.60112180675E+03  0.10566000000E+00 0. -1.
         -4    1    3    3    0  502 -0.36573352470E+03 -0.34468395074E+02  0.29224635634E+03  0.46942200006E+03  0.00000000000E+00 0. -1.
        -13    1    1    2    0    0 -0.20495200328E+03 -0.63023060098E+02 -0.23198319989E+02  0.21567429835E+03  0.10566000000E+00 0.  1.
<mgrwt>
<rscale>  1 0.66486497E+03</rscale>
<asrwt>0</asrwt>
<pdfrwt beam="1">  1       21 0.13207764E+00 0.96951407E+03</pdfrwt>
<pdfrwt beam="2">  1       -4 0.65802068E-01 0.96951407E+03</pdfrwt>
<totfact> 0.32767486E+01</totfact>
</mgrwt>
</event>
<event>
 6    2  0.2294477E-005  0.1035308E+04  0.7818608E-02  0.9647204E-01
         21   -1    0    0  501  502  0.00000000000E+00  0.00000000000E+00  0.20253134501E+03  0.20253134501E+03  0.00000000000E+00 0. -1.
         -4   -1    0    0    0  501 -0.00000000000E+00 -0.00000000000E+00 -0.22792574981E+04  0.22792574981E+04  0.00000000000E+00 0. -1.
   -9000010    2    1    2    0  502 -0.27387824511E+03  0.45686650626E-01 -0.13236049002E+04  0.16804144437E+04  0.99842549832E+03 0.  0.
         13    1    3    3    0    0 -0.47782525833E+03 -0.15761409124E+03 -0.22357852091E+03  0.55058745484E+03  0.10566000000E+00 0. -1.
         -4    1    3    3    0  502  0.20394701321E+03  0.15765977789E+03 -0.11000263792E+04  0.11298269889E+04  0.00000000000E+00 0. -1.
        -13    1    1    2    0    0  0.27387824511E+03 -0.45686650626E-01 -0.75312125297E+03  0.80137439944E+03  0.10566000000E+00 0.  1.
<mgrwt>
<rscale>  1 0.74249168E+03</rscale>
<asrwt>0</asrwt>
<pdfrwt beam="1">  1       21 0.31158670E-01 0.10353081E+04</pdfrwt>
<pdfrwt beam="2">  1       -4 0.35065498E+00 0.10353081E+04</pdfrwt>
<totfact> 0.59901475E+00</totfact>
</mgrwt>
</event>
<event>
 6    2  0.2294477E-005  0.1005098E+04  0.7818608E-02  0.9654655E-01
         21   -1    0    0  501  502  0.00000000000E+00  0.00000000000E+00  0.79263585220E+03  0.79263585220E+03  0.00000000000E+00 0. -1.
         -4   -1    0    0    0  501 -0.00000000000E+00 -0.00000000000E+00 -0.55441443581E+03  0.55441443581E+03  0.00000000000E+00 0. -1.
   -9000010    2    1    2    0  502  0.22565299040E+03  0.18510486424E+03  0.29960895399E+03  0.10488028676E+04  0.96178939843E+03 0.  0.
         13    1    3    3    0    0  0.48833013221E+03  0.27700036367E+03 -0.91461024878E+02  0.56882391804E+03  0.10566000000E+00 0. -1.
         -4    1    3    3    0  502 -0.26267714181E+03 -0.91895499430E+02  0.39106997887E+03  0.47997894956E+03  0.00000000000E+00 0. -1.
        -13    1    1    2    0    0 -0.22565299040E+03 -0.18510486424E+03 -0.61387537608E+02  0.29824742041E+03  0.10566000000E+00 0.  1.
<mgrwt>
<rscale>  1 0.73782008E+03</rscale>
<asrwt>0</asrwt>
<pdfrwt beam="1">  1       21 0.12194398E+00 0.10050980E+04</pdfrwt>
<pdfrwt beam="2">  1       -4 0.85294528E-01 0.10050980E+04</pdfrwt>
<totfact> 0.22374323E+01</totfact>
</mgrwt>
</event>
<event>
 6    2  0.2294477E-005  0.1054894E+04  0.7818608E-02  0.9689364E-01
         21   -1    0    0  501  502  0.00000000000E+00  0.00000000000E+00  0.18287057693E+04  0.18287057693E+04  0.00000000000E+00 0. -1.
         -4   -1    0    0    0  501 -0.00000000000E+00 -0.00000000000E+00 -0.40958527720E+03  0.40958527720E+03  0.00000000000E+00 0. -1.
   -9000010    2    1    2    0  502 -0.17199590491E+03  0.14437155118E+03  0.16225294203E+04  0.19353043483E+04  0.10307159961E+04 0.  0.
         13    1    3    3    0    0 -0.49814221920E+03 -0.18499095967E+03  0.11814889065E+04  0.12954857672E+04  0.10566000000E+00 0. -1.
         -4    1    3    3    0  502  0.32614631429E+03  0.32936251085E+03  0.44104051386E+03  0.63981858111E+03  0.00000000000E+00 0. -1.
        -13    1    1    2    0    0  0.17199590491E+03 -0.14437155118E+03 -0.20340892817E+03  0.30298669825E+03  0.10566000000E+00 0.  1.
<mgrwt>
<rscale>  1 0.71653620E+03</rscale>
<asrwt>0</asrwt>
<pdfrwt beam="1">  1       21 0.28133935E+00 0.10548939E+04</pdfrwt>
<pdfrwt beam="2">  1       -4 0.63013120E-01 0.10548939E+04</pdfrwt>
<totfact> 0.31988171E+00</totfact>
</mgrwt>
</event>
<event>
 6    2  0.2294477E-005  0.1081266E+04  0.7818608E-02  0.9621229E-01
         21   -1    0    0  501  502  0.00000000000E+00  0.00000000000E+00  0.21052473134E+04  0.21052473134E+04  0.00000000000E+00 0.  1.
         -4   -1    0    0    0  501 -0.00000000000E+00 -0.00000000000E+00 -0.22947159593E+03  0.22947159593E+03  0.00000000000E+00 0. -1.
   -9000010    2    1    2    0  502 -0.21414199571E+03  0.15202792328E+03  0.17131044726E+04  0.20257994557E+04  0.10488885626E+04 0.  0.
         13    1    3    3    0    0 -0.11548519677E+03 -0.24987644347E+03  0.12489235918E+02  0.27555591057E+03  0.10566000000E+00 0. -1.
         -4    1    3    3    0  502 -0.98656798935E+02  0.40190436675E+03  0.17006152367E+04  0.17502435451E+04  0.00000000000E+00 0. -1.
        -13    1    1    2    0    0  0.21414199571E+03 -0.15202792328E+03  0.16267124491E+03  0.30891945369E+03  0.10566000000E+00 0.  1.
<mgrwt>
<rscale>  1 0.75906931E+03</rscale>
<asrwt>0</asrwt>
<pdfrwt beam="1">  1       21 0.32388419E+00 0.10812662E+04</pdfrwt>
<pdfrwt beam="2">  1       -4 0.35303324E-01 0.10812662E+04</pdfrwt>
<totfact> 0.58220120E+00</totfact>
</mgrwt>
</event>
<event>
 6    2  0.2294477E-005  0.1030988E+04  0.7818608E-02  0.9628118E-01
         -4   -1    0    0    0  501 -0.00000000000E+00  0.00000000000E+00  0.25750825664E+04  0.25750825664E+04  0.00000000000E+00 0. -1.
         21   -1    0    0  501  502  0.00000000000E+00 -0.00000000000E+00 -0.19747423605E+03  0.19747423605E+03  0.00000000000E+00 0. -1.
   -9000010    2    1    2    0  502  0.17964828244E+03  0.23514583843E+03  0.13233478805E+04  0.16775535249E+04  0.98760778913E+03 0.  0.
         13    1    3    3    0    0 -0.12945133903E+03 -0.19376827878E+03 -0.20025710712E+02  0.23389064815E+03  0.10566000000E+00 0. -1.
         -4    1    3    3    0  502  0.30909962147E+03  0.42891411721E+03  0.13433735913E+04  0.14436628767E+04  0.00000000000E+00 0. -1.
        -13    1    1    2    0    0 -0.17964828244E+03 -0.23514583843E+03  0.10542604498E+04  0.10950032776E+04  0.10566000000E+00 0.  1.
<mgrwt>
<rscale>  1 0.75462782E+03</rscale>
<asrwt>0</asrwt>
<pdfrwt beam="2">  1       21 0.30380654E-01 0.10309880E+04</pdfrwt>
<pdfrwt beam="1">  1       -4 0.39616652E+00 0.10309880E+04</pdfrwt>
<totfact> 0.31343556E+00</totfact>
</mgrwt>
</event>
<event>
 6    2  0.2294477E-005  0.1000899E+04  0.7818608E-02  0.9716659E-01
         21   -1    0    0  501  502  0.00000000000E+00  0.00000000000E+00  0.23074774805E+03  0.23074774805E+03  0.00000000000E+00 0. -1.
         -4   -1    0    0    0  501 -0.00000000000E+00 -0.00000000000E+00 -0.18954551806E+04  0.18954551806E+04  0.00000000000E+00 0. -1.
   -9000010    2    1    2    0  502 -0.20497384009E+03  0.12467501138E+03 -0.98042779685E+03  0.14010844800E+04  0.97172059856E+03 0.  0.
         13    1    3    3    0    0 -0.73918489868E+02  0.14553671244E+03  0.17427466588E+03  0.23878138148E+03  0.10566000000E+00 0. -1.
         -4    1    3    3    0  502 -0.13105535022E+03 -0.20861701062E+02 -0.11547024627E+04  0.11623030985E+04  0.00000000000E+00 0. -1.
        -13    1    1    2    0    0  0.20497384009E+03 -0.12467501138E+03 -0.68427963570E+03  0.72511844866E+03  0.10566000000E+00 0.  1.
<mgrwt>
<rscale>  1 0.70033540E+03</rscale>
<asrwt>0</asrwt>
<pdfrwt beam="1">  1       21 0.35499652E-01 0.10008991E+04</pdfrwt>
<pdfrwt beam="2">  1       -4 0.29160850E+00 0.10008991E+04</pdfrwt>
<totfact> 0.10854754E+01</totfact>
</mgrwt>
</event>
<event>
 6    2  0.2294477E-005  0.1020100E+04  0.7818608E-02  0.9692651E-01
         -4   -1    0    0    0  501 -0.00000000000E+00  0.00000000000E+00  0.98237995340E+03  0.98237995340E+03  0.00000000000E+00 0. -1.
         21   -1    0    0  501  502  0.00000000000E+00 -0.00000000000E+00 -0.41583293586E+03  0.41583293586E+03  0.00000000000E+00 0. -1.
   -9000010    2    1    2    0  502 -0.11195643368E+03  0.21859738615E+03  0.37535023718E+03  0.10869649491E+04  0.99009390450E+03 0.  0.
         13    1    3    3    0    0 -0.47273784172E+03 -0.15678533416E+03  0.21190540746E+03  0.54126391056E+03  0.10566000000E+00 0. -1.
         -4    1    3    3    0  502  0.36078140803E+03  0.37538272031E+03  0.16344482972E+03  0.54570103853E+03  0.00000000000E+00 0. -1.
        -13    1    1    2    0    0  0.11195643368E+03 -0.21859738615E+03  0.19119678036E+03  0.31124794017E+03  0.10566000000E+00 0.  1.
<mgrwt>
<rscale>  1 0.71456057E+03</rscale>
<asrwt>0</asrwt>
<pdfrwt beam="2">  1       21 0.63974298E-01 0.10201005E+04</pdfrwt>
<pdfrwt beam="1">  1       -4 0.15113538E+00 0.10201005E+04</pdfrwt>
<totfact> 0.25492034E+01</totfact>
</mgrwt>
</event>
<event>
 6    2  0.2294477E-005  0.1011159E+04  0.7818608E-02  0.1003175E+00
         21   -1    0    0  501  502  0.00000000000E+00  0.00000000000E+00  0.76201336403E+03  0.76201336403E+03  0.00000000000E+00 0. -1.
         -4   -1    0    0    0  501 -0.00000000000E+00 -0.00000000000E+00 -0.40015764217E+03  0.40015764217E+03  0.00000000000E+00 0. -1.
   -9000010    2    1    2    0  502  0.66397486524E+02  0.51393045505E+02  0.29071176259E+03  0.10521194481E+04  0.10076666774E+04 0.  0.
         13    1    3    3    0    0  0.36114038061E+03 -0.18268355193E+02 -0.24495647900E+03  0.43676056951E+03  0.10566000000E+00 0. -1.
         -4    1    3    3    0  502 -0.29474289409E+03  0.69661400698E+02  0.53566824160E+03  0.61535887856E+03  0.00000000000E+00 0. -1.
        -13    1    1    2    0    0 -0.66397486524E+02 -0.51393045505E+02  0.71143959269E+02  0.11005155813E+03  0.10566000000E+00 0.  1.
<mgrwt>
<rscale>  1 0.54279682E+03</rscale>
<asrwt>0</asrwt>
<pdfrwt beam="1">  1       21 0.11723283E+00 0.10111587E+04</pdfrwt>
<pdfrwt beam="2">  1       -4 0.61562714E-01 0.10111587E+04</pdfrwt>
<totfact> 0.51677729E+01</totfact>
</mgrwt>
</event>
<event>
 6    2  0.2294477E-005  0.9996183E+03  0.7818608E-02  0.1011855E+00
         21   -1    0    0  501  502  0.00000000000E+00  0.00000000000E+00  0.11980510255E+04  0.11980510255E+04  0.00000000000E+00 0. -1.
         -4   -1    0    0    0  501 -0.00000000000E+00 -0.00000000000E+00 -0.24336731159E+03  0.24336731159E+03  0.00000000000E+00 0. -1.
   -9000010    2    1    2    0  502  0.52940130229E+02  0.40044630207E+02  0.82643258708E+03  0.12970071447E+04  0.99741189212E+03 0.  0.
         13    1    3    3    0    0  0.15051330859E+02 -0.39408008766E+03  0.38043746790E+02  0.39619817753E+03  0.10566000000E+00 0. -1.
         -4    1    3    3    0  502  0.37888799369E+02  0.43412471786E+03  0.78838884029E+03  0.90080896713E+03  0.00000000000E+00 0. -1.
        -13    1    1    2    0    0 -0.52940130229E+02 -0.40044630207E+02  0.12825112680E+03  0.14441119238E+03  0.10566000000E+00 0.  1.
<mgrwt>
<rscale>  1 0.50743945E+03</rscale>
<asrwt>0</asrwt>
<pdfrwt beam="1">  1       21 0.18431554E+00 0.99961828E+03</pdfrwt>
<pdfrwt beam="2">  1       -4 0.37441126E-01 0.99961828E+03</pdfrwt>
<totfact> 0.41724055E+01</totfact>
</mgrwt>
</event>
<event>
 6    2  0.2294477E-005  0.1134957E+04  0.7818608E-02  0.9368048E-01
         21   -1    0    0  501  502  0.00000000000E+00  0.00000000000E+00  0.53241960472E+03  0.53241960472E+03  0.00000000000E+00 0.  1.
         -4   -1    0    0    0  501 -0.00000000000E+00 -0.00000000000E+00 -0.13379270748E+04  0.13379270748E+04  0.00000000000E+00 0. -1.
   -9000010    2    1    2    0  502 -0.25097867884E+03 -0.49090971770E+03 -0.58123646685E+03  0.12751323129E+04  0.99204028995E+03 0.  0.
         13    1    3    3    0    0 -0.43759067699E+03  0.14278927530E+03 -0.33841563913E+03  0.57131386619E+03  0.10566000000E+00 0. -1.
         -4    1    3    3    0  502  0.18661199815E+03 -0.63369899299E+03 -0.24282082772E+03  0.70381844672E+03  0.00000000000E+00 0. -1.
        -13    1    1    2    0    0  0.25097867884E+03  0.49090971770E+03 -0.22427100323E+03  0.59521436661E+03  0.10566000000E+00 0.  1.
<mgrwt>
<rscale>  1 0.94752485E+03</rscale>
<asrwt>0</asrwt>
<pdfrwt beam="1">  1       21 0.81910709E-01 0.11349566E+04</pdfrwt>
<pdfrwt beam="2">  1       -4 0.20583493E+00 0.11349566E+04</pdfrwt>
<totfact> 0.58469494E+00</totfact>
</mgrwt>
</event>
<event>
 6    2  0.2294477E-005  0.1094773E+04  0.7818608E-02  0.9442664E-01
         21   -1    0    0  501  502  0.00000000000E+00  0.00000000000E+00  0.95940760923E+03  0.95940760923E+03  0.00000000000E+00 0. -1.
         -4   -1    0    0    0  501 -0.00000000000E+00 -0.00000000000E+00 -0.63853315359E+03  0.63853315359E+03  0.00000000000E+00 0. -1.
   -9000010    2    1    2    0  502  0.46964230036E+03  0.30298253727E+02  0.22516912060E+03  0.11176893737E+04  0.98845663974E+03 0.  0.
         13    1    3    3    0    0  0.25427346964E+03 -0.45962220500E+03 -0.27257420950E+02  0.52597580444E+03  0.10566000000E+00 0. -1.
         -4    1    3    3    0  502  0.21536883073E+03  0.48992045873E+03  0.25242654155E+03  0.59171356923E+03  0.00000000000E+00 0. -1.
        -13    1    1    2    0    0 -0.46964230036E+03 -0.30298253727E+02  0.95705335048E+02  0.48025138916E+03  0.10566000000E+00 0.  1.
<mgrwt>
<rscale>  1 0.88646257E+03</rscale>
<asrwt>0</asrwt>
<pdfrwt beam="1">  1       21 0.14760117E+00 0.10947732E+04</pdfrwt>
<pdfrwt beam="2">  1       -4 0.98235869E-01 0.10947732E+04</pdfrwt>
<totfact> 0.94962115E+00</totfact>
</mgrwt>
</event>
<event>
 6    2  0.2294477E-005  0.1006925E+04  0.7818608E-02  0.9929160E-01
         -4   -1    0    0    0  501 -0.00000000000E+00  0.00000000000E+00  0.28532537859E+03  0.28532537859E+03  0.00000000000E+00 0. -1.
         21   -1    0    0  501  502  0.00000000000E+00 -0.00000000000E+00 -0.13503080442E+04  0.13503080442E+04  0.00000000000E+00 0. -1.
   -9000010    2    1    2    0  502 -0.96182415443E+02 -0.67730977894E+02 -0.11197252030E+04  0.15058825116E+04  0.10000295325E+04 0.  0.
         13    1    3    3    0    0 -0.41708016129E+03  0.27681314519E+03 -0.77392090760E+03  0.92170220824E+03  0.10566000000E+00 0. -1.
         -4    1    3    3    0  502  0.32089774585E+03 -0.34454412308E+03 -0.34580429544E+03  0.58418030332E+03  0.00000000000E+00 0. -1.
        -13    1    1    2    0    0  0.96182415443E+02  0.67730977894E+02  0.54742537407E+02  0.12975091126E+03  0.10566000000E+00 0.  1.
<mgrwt>
<rscale>  1 0.58868656E+03</rscale>
<asrwt>0</asrwt>
<pdfrwt beam="2">  1       21 0.20773970E+00 0.10069248E+04</pdfrwt>
<pdfrwt beam="1">  1       -4 0.43896211E-01 0.10069248E+04</pdfrwt>
<totfact> 0.20706623E+01</totfact>
</mgrwt>
</event>
<event>
 6    2  0.2294477E-005  0.1180331E+04  0.7818608E-02  0.9311620E-01
         -4   -1    0    0    0  501 -0.00000000000E+00  0.00000000000E+00  0.61769678731E+03  0.61769678731E+03  0.00000000000E+00 0. -1.
         21   -1    0    0  501  502  0.00000000000E+00 -0.00000000000E+00 -0.13166809076E+04  0.13166809076E+04  0.00000000000E+00 0. -1.
   -9000010    2    1    2    0  502  0.11090825959E+03  0.59102214401E+03 -0.60295833506E+03  0.13254205705E+04  0.10156638806E+04 0.  0.
         13    1    3    3    0    0  0.56159137511E+03  0.34008778306E+03 -0.26089681151E+03  0.70647840038E+03  0.10566000000E+00 0. -1.
         -4    1    3    3    0  502 -0.45068311552E+03  0.25093436095E+03 -0.34206152356E+03  0.61894217017E+03  0.00000000000E+00 0. -1.
        -13    1    1    2    0    0 -0.11090825959E+03 -0.59102214401E+03 -0.96025785264E+02  0.60895712440E+03  0.10566000000E+00 0.  1.
<mgrwt>
<rscale>  1 0.99720064E+03</rscale>
<asrwt>0</asrwt>
<pdfrwt beam="2">  1       21 0.20256629E+00 0.11803309E+04</pdfrwt>
<pdfrwt beam="1">  1       -4 0.95030275E-01 0.11803309E+04</pdfrwt>
<totfact> 0.39703574E+00</totfact>
</mgrwt>
</event>
<event>
 6    2  0.2294477E-005  0.1142408E+04  0.7818608E-02  0.9357109E-01
         21   -1    0    0  501  502  0.00000000000E+00  0.00000000000E+00  0.63233246917E+03  0.63233246917E+03  0.00000000000E+00 0.  1.
         -4   -1    0    0    0  501 -0.00000000000E+00 -0.00000000000E+00 -0.11896669746E+04  0.11896669746E+04  0.00000000000E+00 0. -1.
   -9000010    2    1    2    0  502 -0.55870568278E+03 -0.64105322854E+02 -0.21155992928E+03  0.11618315855E+04  0.99440107451E+03 0.  0.
         13    1    3    3    0    0 -0.75144405138E+03 -0.30171555397E+03 -0.26340501537E+03  0.85151785134E+03  0.10566000000E+00 0. -1.
         -4    1    3    3    0  502  0.19273836859E+03  0.23761023111E+03  0.51845086091E+02  0.31031373416E+03  0.00000000000E+00 0. -1.
        -13    1    1    2    0    0  0.55870568278E+03  0.64105322854E+02 -0.34577457611E+03  0.66016785823E+03  0.10566000000E+00 0.  1.
<mgrwt>
<rscale>  1 0.95691111E+03</rscale>
<asrwt>0</asrwt>
<pdfrwt beam="1">  1       21 0.97281918E-01 0.11424076E+04</pdfrwt>
<pdfrwt beam="2">  1       -4 0.18302569E+00 0.11424076E+04</pdfrwt>
<totfact> 0.54906387E+00</totfact>
</mgrwt>
</event>
<event>
 6    2  0.2294477E-005  0.1036175E+04  0.7818608E-02  0.9722886E-01
         21   -1    0    0  501  502  0.00000000000E+00  0.00000000000E+00  0.58460949022E+03  0.58460949022E+03  0.00000000000E+00 0. -1.
         -4   -1    0    0    0  501 -0.00000000000E+00 -0.00000000000E+00 -0.11152539925E+04  0.11152539925E+04  0.00000000000E+00 0. -1.
   -9000010    2    1    2    0  502 -0.15000094201E+03  0.14950626713E+03  0.93868059104E+02  0.10404179907E+04  0.10143007326E+04 0.  0.
         13    1    3    3    0    0  0.22209880215E+03 -0.34063181139E+03 -0.46318062236E+02  0.40927164928E+03  0.10566000000E+00 0. -1.
         -4    1    3    3    0  502 -0.37209974416E+03  0.49013807852E+03  0.14018612134E+03  0.63114634138E+03  0.00000000000E+00 0. -1.
        -13    1    1    2    0    0  0.15000094201E+03 -0.14950626713E+03 -0.62451256138E+03  0.65944549206E+03  0.10566000000E+00 0.  1.
<mgrwt>
<rscale>  1 0.69670356E+03</rscale>
<asrwt>0</asrwt>
<pdfrwt beam="1">  1       21 0.89939921E-01 0.10361749E+04</pdfrwt>
<pdfrwt beam="2">  1       -4 0.17157754E+00 0.10361749E+04</pdfrwt>
<totfact> 0.81041711E+00</totfact>
</mgrwt>
</event>
<event>
 6    2  0.2294477E-005  0.1008821E+04  0.7818608E-02  0.9766311E-01
         21   -1    0    0  501  502  0.00000000000E+00  0.00000000000E+00  0.10597403719E+04  0.10597403719E+04  0.00000000000E+00 0. -1.
         -4   -1    0    0    0  501 -0.00000000000E+00 -0.00000000000E+00 -0.35230920023E+03  0.35230920023E+03  0.00000000000E+00 0. -1.
   -9000010    2    1    2    0  502 -0.13971075312E+02  0.19816000676E+03  0.66683380306E+03  0.12092917443E+04  0.98906856324E+03 0.  0.
         13    1    3    3    0    0 -0.18255536617E+03  0.30689878060E+03  0.85975894633E+03  0.93096658383E+03  0.10566000000E+00 0. -1.
         -4    1    3    3    0  502  0.16858429086E+03 -0.10873877384E+03 -0.19292514327E+03  0.27832516050E+03  0.00000000000E+00 0. -1.
        -13    1    1    2    0    0  0.13971075312E+02 -0.19816000676E+03  0.40597368599E+02  0.20275782778E+03  0.10566000000E+00 0.  1.
<mgrwt>
<rscale>  1 0.67202230E+03</rscale>
<asrwt>0</asrwt>
<pdfrwt beam="1">  1       21 0.16303698E+00 0.10088207E+04</pdfrwt>
<pdfrwt beam="2">  1       -4 0.54201416E-01 0.10088207E+04</pdfrwt>
<totfact> 0.27781308E+01</totfact>
</mgrwt>
</event>
<event>
 6    2  0.2294477E-005  0.1038535E+04  0.7818608E-02  0.9584381E-01
         -4   -1    0    0    0  501 -0.00000000000E+00  0.00000000000E+00  0.24659416023E+04  0.24659416023E+04  0.00000000000E+00 0. -1.
         21   -1    0    0  501  502  0.00000000000E+00 -0.00000000000E+00 -0.19384638662E+03  0.19384638662E+03  0.00000000000E+00 0. -1.
   -9000010    2    1    2    0  502 -0.25982266361E+03 -0.21341238115E+03  0.15866252399E+04  0.18962948588E+04  0.98259955147E+03 0.  0.
         13    1    3    3    0    0 -0.46479606825E+03  0.10378157866E+03  0.31800467704E+03  0.57265433458E+03  0.10566000000E+00 0. -1.
         -4    1    3    3    0  502  0.20497340464E+03 -0.31719395980E+03  0.12686205629E+04  0.13236405242E+04  0.00000000000E+00 0. -1.
        -13    1    1    2    0    0  0.25982266361E+03  0.21341238115E+03  0.68546997575E+03  0.76349313014E+03  0.10566000000E+00 0.  1.
<mgrwt>
<rscale>  1 0.78338616E+03</rscale>
<asrwt>0</asrwt>
<pdfrwt beam="2">  1       21 0.29822523E-01 0.10385348E+04</pdfrwt>
<pdfrwt beam="1">  1       -4 0.37937561E+00 0.10385348E+04</pdfrwt>
<totfact> 0.42284339E+00</totfact>
</mgrwt>
</event>
<event>
 6    2  0.2294477E-005  0.1018269E+04  0.7818608E-02  0.9938524E-01
         -4   -1    0    0    0  501 -0.00000000000E+00  0.00000000000E+00  0.66333185339E+03  0.66333185339E+03  0.00000000000E+00 0. -1.
         21   -1    0    0  501  502  0.00000000000E+00 -0.00000000000E+00 -0.57692989618E+03  0.57692989618E+03  0.00000000000E+00 0. -1.
   -9000010    2    1    2    0  502 -0.11026158447E+03 -0.54622550565E+01 -0.10047326068E+03  0.10232138022E+04  0.10122668401E+04 0.  0.
         13    1    3    3    0    0  0.17373501879E+03  0.27540064684E+03 -0.40592083641E+03  0.52038553941E+03  0.10566000000E+00 0. -1.
         -4    1    3    3    0  502 -0.28399660326E+03 -0.28086290190E+03  0.30544757573E+03  0.50282826277E+03  0.00000000000E+00 0. -1.
        -13    1    1    2    0    0  0.11026158447E+03  0.54622550565E+01  0.18687521788E+03  0.21704794738E+03  0.10566000000E+00 0.  1.
<mgrwt>
<rscale>  1 0.58430020E+03</rscale>
<asrwt>0</asrwt>
<pdfrwt beam="2">  1       21 0.88758445E-01 0.10182689E+04</pdfrwt>
<pdfrwt beam="1">  1       -4 0.10205105E+00 0.10182689E+04</pdfrwt>
<totfact> 0.32332859E+01</totfact>
</mgrwt>
</event>
<event>
 6    2  0.2294477E-005  0.1158181E+04  0.7818608E-02  0.9340216E-01
         21   -1    0    0  501  502  0.00000000000E+00  0.00000000000E+00  0.70079477552E+03  0.70079477552E+03  0.00000000000E+00 0.  1.
         -4   -1    0    0    0  501 -0.00000000000E+00 -0.00000000000E+00 -0.11571959823E+04  0.11571959823E+04  0.00000000000E+00 0. -1.
   -9000010    2    1    2    0  502  0.55967003541E+03 -0.12607148818E+03 -0.54062702458E+03  0.12781471856E+04  0.10061103715E+04 0.  0.
         13    1    3    3    0    0 -0.20928401956E+03 -0.24148628857E+03  0.19019373538E+02  0.32012056502E+03  0.10566000000E+00 0. -1.
         -4    1    3    3    0  502  0.76895405498E+03  0.11541480039E+03 -0.55964639811E+03  0.95802662058E+03  0.00000000000E+00 0. -1.
        -13    1    1    2    0    0 -0.55967003541E+03  0.12607148818E+03  0.84225817825E+02  0.57984357220E+03  0.10566000000E+00 0.  1.
<mgrwt>
<rscale>  1 0.97163321E+03</rscale>
<asrwt>0</asrwt>
<pdfrwt beam="1">  1       21 0.10781458E+00 0.11581807E+04</pdfrwt>
<pdfrwt beam="2">  1       -4 0.17803015E+00 0.11581807E+04</pdfrwt>
<totfact> 0.45920173E+00</totfact>
</mgrwt>
</event>
<event>
 6    2  0.2294477E-005  0.1039682E+04  0.7818608E-02  0.9669316E-01
         21   -1    0    0  501  502  0.00000000000E+00  0.00000000000E+00  0.84397760408E+03  0.84397760408E+03  0.00000000000E+00 0. -1.
         -4   -1    0    0    0  501 -0.00000000000E+00 -0.00000000000E+00 -0.52692894803E+03  0.52692894803E+03  0.00000000000E+00 0. -1.
   -9000010    2    1    2    0  502 -0.15995075376E+03 -0.19336115576E+03  0.38864763390E+03  0.11099483084E+04  0.10089427554E+04 0.  0.
         13    1    3    3    0    0 -0.10882602552E+03 -0.58670238861E+03  0.39079871327E+03  0.71329267632E+03  0.10566000000E+00 0. -1.
         -4    1    3    3    0  502 -0.51124728242E+02  0.39334123285E+03 -0.21510793751E+01  0.39665563206E+03  0.00000000000E+00 0. -1.
        -13    1    1    2    0    0  0.15995075376E+03  0.19336115576E+03 -0.71598977843E+02  0.26095824374E+03  0.10566000000E+00 0.  1.
<mgrwt>
<rscale>  1 0.72873470E+03</rscale>
<asrwt>0</asrwt>
<pdfrwt beam="1">  1       21 0.12984271E+00 0.10396818E+04</pdfrwt>
<pdfrwt beam="2">  1       -4 0.81065992E-01 0.10396818E+04</pdfrwt>
<totfact> 0.21258028E+01</totfact>
</mgrwt>
</event>
<event>
 6    2  0.2294477E-005  0.9941562E+03  0.7818608E-02  0.1060938E+00
         21   -1    0    0  501  502  0.00000000000E+00  0.00000000000E+00  0.11927563227E+04  0.11927563227E+04  0.00000000000E+00 0. -1.
         -4   -1    0    0    0  501 -0.00000000000E+00 -0.00000000000E+00 -0.24491267325E+03  0.24491267325E+03  0.00000000000E+00 0. -1.
   -9000010    2    1    2    0  502 -0.33396678162E+01 -0.15650885158E+02  0.98359372662E+03  0.13985003508E+04  0.99402741841E+03 0.  0.
         13    1    3    3    0    0 -0.34464238563E+03  0.35157827313E+03  0.50920973325E+03  0.70829387948E+03  0.10566000000E+00 0. -1.
         -4    1    3    3    0  502  0.34130271781E+03 -0.36722915829E+03  0.47438399337E+03  0.69020647132E+03  0.00000000000E+00 0. -1.
        -13    1    1    2    0    0  0.33396678162E+01  0.15650885158E+02 -0.35750077125E+02  0.39168645188E+02  0.10566000000E+00 0.  1.
<mgrwt>
<rscale>  1 0.35411580E+03</rscale>
<asrwt>0</asrwt>
<pdfrwt beam="1">  1       21 0.18350097E+00 0.99415623E+03</pdfrwt>
<pdfrwt beam="2">  1       -4 0.37678873E-01 0.99415623E+03</pdfrwt>
<totfact> 0.41776582E+01</totfact>
</mgrwt>
</event>
<event>
 6    2  0.2294477E-005  0.1025836E+04  0.7818608E-02  0.9634984E-01
         21   -1    0    0  501  502  0.00000000000E+00  0.00000000000E+00  0.55937640145E+03  0.55937640145E+03  0.00000000000E+00 0. -1.
         -4   -1    0    0    0  501 -0.00000000000E+00 -0.00000000000E+00 -0.10060519478E+04  0.10060519478E+04  0.00000000000E+00 0. -1.
   -9000010    2    1    2    0  502 -0.25519921644E+03 -0.14489029147E+03  0.61157152465E+01  0.10258546524E+04  0.98296517189E+03 0.  0.
         13    1    3    3    0    0 -0.17399452650E+03 -0.44873639060E+03 -0.31592445415E+03  0.57571409172E+03  0.10566000000E+00 0. -1.
         -4    1    3    3    0  502 -0.81204689942E+02  0.30384609913E+03  0.32204016940E+03  0.45014056064E+03  0.00000000000E+00 0. -1.
        -13    1    1    2    0    0  0.25519921644E+03  0.14489029147E+03 -0.45279126162E+03  0.53957369691E+03  0.10566000000E+00 0.  1.
<mgrwt>
<rscale>  1 0.75023357E+03</rscale>
<asrwt>0</asrwt>
<pdfrwt beam="1">  1       21 0.86057909E-01 0.10258364E+04</pdfrwt>
<pdfrwt beam="2">  1       -4 0.15477722E+00 0.10258364E+04</pdfrwt>
<totfact> 0.12007419E+01</totfact>
</mgrwt>
</event>
<event>
 6    2  0.2294477E-005  0.9294552E+03  0.7818608E-02  0.9816184E-01
         21   -1    0    0  501  502  0.00000000000E+00  0.00000000000E+00  0.86268141626E+03  0.86268141626E+03  0.00000000000E+00 0. -1.
         -4   -1    0    0    0  501 -0.00000000000E+00 -0.00000000000E+00 -0.40685837974E+03  0.40685837974E+03  0.00000000000E+00 0. -1.
   -9000010    2    1    2    0  502  0.13555554786E+03 -0.16761450009E+03  0.49091257311E+03  0.10511337202E+04  0.90411117466E+03 0.  0.
         13    1    3    3    0    0 -0.45099946481E+02  0.35220712642E+03  0.31137345706E+03  0.47226825639E+03  0.10566000000E+00 0. -1.
         -4    1    3    3    0  502  0.18065549435E+03 -0.51982162650E+03  0.17953911606E+03  0.57886546383E+03  0.00000000000E+00 0. -1.
        -13    1    1    2    0    0 -0.13555554786E+03  0.16761450009E+03 -0.35089536587E+02  0.21840607578E+03  0.10566000000E+00 0.  1.
<mgrwt>
<rscale>  1 0.64501209E+03</rscale>
<asrwt>0</asrwt>
<pdfrwt beam="1">  1       21 0.13272022E+00 0.92945519E+03</pdfrwt>
<pdfrwt beam="2">  1       -4 0.62593597E-01 0.92945519E+03</pdfrwt>
<totfact> 0.36257962E+01</totfact>
</mgrwt>
</event>
<event>
 6    2  0.2294477E-005  0.1003309E+04  0.7818608E-02  0.9809978E-01
         -4   -1    0    0    0  501 -0.00000000000E+00  0.00000000000E+00  0.14166729238E+04  0.14166729238E+04  0.00000000000E+00 0. -1.
         21   -1    0    0  501  502  0.00000000000E+00 -0.00000000000E+00 -0.32867812173E+03  0.32867812173E+03  0.00000000000E+00 0. -1.
   -9000010    2    1    2    0  502  0.14111845895E+03  0.10332609133E+03  0.47909225370E+03  0.11118267562E+04  0.98794668258E+03 0.  0.
         13    1    3    3    0    0 -0.32393526169E+03 -0.10385146735E+03  0.49714906016E+03  0.60239221460E+03  0.10566000000E+00 0. -1.
         -4    1    3    3    0  502  0.46505372064E+03  0.20717755868E+03 -0.18056806461E+02  0.50943454159E+03  0.00000000000E+00 0. -1.
        -13    1    1    2    0    0 -0.14111845895E+03 -0.10332609133E+03  0.60890254840E+03  0.63352428937E+03  0.10566000000E+00 0.  1.
<mgrwt>
<rscale>  1 0.64829817E+03</rscale>
<asrwt>0</asrwt>
<pdfrwt beam="2">  1       21 0.50565866E-01 0.10033092E+04</pdfrwt>
<pdfrwt beam="1">  1       -4 0.21794968E+00 0.10033092E+04</pdfrwt>
<totfact> 0.14746156E+01</totfact>
</mgrwt>
</event>
<event>
 6    2  0.2294477E-005  0.1017585E+04  0.7818608E-02  0.9904398E-01
         -4   -1    0    0    0  501 -0.00000000000E+00  0.00000000000E+00  0.12827955735E+04  0.12827955735E+04  0.00000000000E+00 0. -1.
         21   -1    0    0  501  502  0.00000000000E+00 -0.00000000000E+00 -0.26568244145E+03  0.26568244145E+03  0.00000000000E+00 0. -1.
   -9000010    2    1    2    0  502 -0.43735913421E+02  0.11538482136E+03  0.78347333258E+03  0.12842545221E+04  0.10100756049E+04 0.  0.
         13    1    3    3    0    0  0.84042196845E+02 -0.26502619367E+03 -0.11450416768E+03  0.30068786101E+03  0.10566000000E+00 0. -1.
         -4    1    3    3    0  502 -0.12777811027E+03  0.38041101503E+03  0.89797750025E+03  0.98356666108E+03  0.00000000000E+00 0. -1.
        -13    1    1    2    0    0  0.43735913421E+02 -0.11538482136E+03  0.23363979948E+03  0.26422349288E+03  0.10566000000E+00 0.  1.
<mgrwt>
<rscale>  1 0.60048619E+03</rscale>
<asrwt>0</asrwt>
<pdfrwt beam="2">  1       21 0.40874222E-01 0.10175850E+04</pdfrwt>
<pdfrwt beam="1">  1       -4 0.19735316E+00 0.10175850E+04</pdfrwt>
<totfact> 0.31585217E+01</totfact>
</mgrwt>
</event>
<event>
 6    2  0.2294477E-005  0.1084878E+04  0.7818608E-02  0.9501929E-01
         -4   -1    0    0    0  501 -0.00000000000E+00  0.00000000000E+00  0.29933556879E+04  0.29933556879E+04  0.00000000000E+00 0. -1.
         21   -1    0    0  501  502  0.00000000000E+00 -0.00000000000E+00 -0.18553631228E+03  0.18553631228E+03  0.00000000000E+00 0. -1.
   -9000010    2    1    2    0  502 -0.42907596634E+02 -0.39020510615E+03  0.22360748106E+04  0.24853554507E+04  0.10113654487E+04 0.  0.
         13    1    3    3    0    0 -0.32033395701E+03 -0.24696254515E+03  0.25133536171E+03  0.47620774661E+03  0.10566000000E+00 0. -1.
         -4    1    3    3    0  502  0.27742636038E+03 -0.14324256099E+03  0.19847394489E+04  0.20091477041E+04  0.00000000000E+00 0. -1.
        -13    1    1    2    0    0  0.42907596634E+02  0.39020510615E+03  0.57174456496E+03  0.69353654946E+03  0.10566000000E+00 0.  1.
<mgrwt>
<rscale>  1 0.84141756E+03</rscale>
<asrwt>0</asrwt>
<pdfrwt beam="2">  1       21 0.28544050E-01 0.10848784E+04</pdfrwt>
<pdfrwt beam="1">  1       -4 0.46051622E+00 0.10848784E+04</pdfrwt>
<totfact> 0.12075248E+00</totfact>
</mgrwt>
</event>
<event>
 6    2  0.2294477E-005  0.1077479E+04  0.7818608E-02  0.9489574E-01
         21   -1    0    0  501  502  0.00000000000E+00  0.00000000000E+00  0.18120745254E+04  0.18120745254E+04  0.00000000000E+00 0.  1.
         -4   -1    0    0    0  501 -0.00000000000E+00 -0.00000000000E+00 -0.33504523791E+03  0.33504523791E+03  0.00000000000E+00 0. -1.
   -9000010    2    1    2    0  502 -0.23967492773E+03  0.34297132906E+03  0.13110059402E+04  0.16969673818E+04  0.99291908848E+03 0.  0.
         13    1    3    3    0    0  0.38985826025E+03  0.11985375653E+03  0.54394635571E+03  0.67987648517E+03  0.10566000000E+00 0. -1.
         -4    1    3    3    0  502 -0.62953318798E+03  0.22311757252E+03  0.76705958449E+03  0.10170908967E+04  0.00000000000E+00 0. -1.
        -13    1    1    2    0    0  0.23967492773E+03 -0.34297132906E+03  0.16602334731E+03  0.45015238148E+03  0.10566000000E+00 0.  1.
<mgrwt>
<rscale>  1 0.85056839E+03</rscale>
<asrwt>0</asrwt>
<pdfrwt beam="1">  1       21 0.27878069E+00 0.10774793E+04</pdfrwt>
<pdfrwt beam="2">  1       -4 0.51545422E-01 0.10774793E+04</pdfrwt>
<totfact> 0.51038677E+00</totfact>
</mgrwt>
</event>
<event>
 6    2  0.2294477E-005  0.1049596E+04  0.7818608E-02  0.9582368E-01
         -4   -1    0    0    0  501 -0.00000000000E+00  0.00000000000E+00  0.82116746639E+03  0.82116746639E+03  0.00000000000E+00 0. -1.
         21   -1    0    0  501  502  0.00000000000E+00 -0.00000000000E+00 -0.59534303721E+03  0.59534303721E+03  0.00000000000E+00 0.  1.
   -9000010    2    1    2    0  502  0.74240566961E+02  0.31946326173E+03  0.27461085782E+03  0.10849255761E+04  0.99703758455E+03 0.  0.
         13    1    3    3    0    0 -0.41790472847E+03  0.22263644468E+03  0.33455776024E+03  0.57977603838E+03  0.10566000000E+00 0. -1.
         -4    1    3    3    0  502  0.49214529543E+03  0.96826817056E+02 -0.59946902420E+02  0.50514953769E+03  0.00000000000E+00 0. -1.
        -13    1    1    2    0    0 -0.74240566961E+02 -0.31946326173E+03 -0.48786428646E+02  0.33158492753E+03  0.10566000000E+00 0.  1.
<mgrwt>
<rscale>  1 0.78474288E+03</rscale>
<asrwt>0</asrwt>
<pdfrwt beam="2">  1       21 0.91591236E-01 0.10495963E+04</pdfrwt>
<pdfrwt beam="1">  1       -4 0.12633346E+00 0.10495963E+04</pdfrwt>
<totfact> 0.17582672E+01</totfact>
</mgrwt>
</event>
<event>
 6    2  0.2294477E-005  0.9903800E+03  0.7818608E-02  0.1018221E+00
         -4   -1    0    0    0  501 -0.00000000000E+00  0.00000000000E+00  0.20501633632E+03  0.20501633632E+03  0.00000000000E+00 0. -1.
         21   -1    0    0  501  502  0.00000000000E+00 -0.00000000000E+00 -0.13773424383E+04  0.13773424383E+04  0.00000000000E+00 0. -1.
   -9000010    2    1    2    0  502 -0.26118948321E+02  0.49743050109E+02 -0.11591988422E+04  0.15246620970E+04  0.98878510503E+03 0.  0.
         13    1    3    3    0    0  0.31302469805E+03  0.29216543978E+03 -0.18774653287E+03  0.46754024164E+03  0.10566000000E+00 0. -1.
         -4    1    3    3    0  502 -0.33914364637E+03 -0.24242238967E+03 -0.97145230929E+03  0.10571218554E+04  0.00000000000E+00 0. -1.
        -13    1    1    2    0    0  0.26118948321E+02 -0.49743050109E+02 -0.13127259854E+02  0.57696677641E+02  0.10566000000E+00 0.  1.
<mgrwt>
<rscale>  1 0.48334088E+03</rscale>
<asrwt>0</asrwt>
<pdfrwt beam="2">  1       21 0.21189883E+00 0.99038001E+03</pdfrwt>
<pdfrwt beam="1">  1       -4 0.31540975E-01 0.99038001E+03</pdfrwt>
<totfact> 0.37899028E+01</totfact>
</mgrwt>
</event>
<event>
 6    2  0.2294477E-005  0.1353161E+04  0.7818608E-02  0.9091129E-01
         -4   -1    0    0    0  501 -0.00000000000E+00  0.00000000000E+00  0.67380871130E+03  0.67380871130E+03  0.00000000000E+00 0. -1.
         21   -1    0    0  501  502  0.00000000000E+00 -0.00000000000E+00 -0.19001287021E+04  0.19001287021E+04  0.00000000000E+00 0.  1.
   -9000010    2    1    2    0  502 -0.87347823175E+03  0.25264862983E+03 -0.70474373570E+03  0.15256829822E+04  0.10021223866E+04 0.  0.
         13    1    3    3    0    0  0.21363067809E+03  0.80105566107E+02 -0.23920615433E+03  0.33056703371E+03  0.10566000000E+00 0. -1.
         -4    1    3    3    0  502 -0.10871089098E+04  0.17254306372E+03 -0.46553758137E+03  0.11951159485E+04  0.00000000000E+00 0. -1.
        -13    1    1    2    0    0  0.87347823175E+03 -0.25264862983E+03 -0.52157625514E+03  0.10482544312E+04  0.10566000000E+00 0.  1.
<mgrwt>
<rscale>  1 0.12251434E+04</rscale>
<asrwt>0</asrwt>
<pdfrwt beam="2">  1       21 0.29232750E+00 0.13531611E+04</pdfrwt>
<pdfrwt beam="1">  1       -4 0.10366288E+00 0.13531611E+04</pdfrwt>
<totfact> 0.82350659E-01</totfact>
</mgrwt>
</event>
<event>
 6    2  0.2294477E-005  0.1185367E+04  0.7818608E-02  0.9310355E-01
         -4   -1    0    0    0  501 -0.00000000000E+00  0.00000000000E+00  0.11096206258E+04  0.11096206258E+04  0.00000000000E+00 0. -1.
         21   -1    0    0  501  502  0.00000000000E+00 -0.00000000000E+00 -0.75013686074E+03  0.75013686074E+03  0.00000000000E+00 0. -1.
   -9000010    2    1    2    0  502  0.16791435287E+03  0.57232856430E+03  0.42603662531E+03  0.12596037481E+04  0.10243725790E+04 0.  0.
         13    1    3    3    0    0  0.50992025637E+03  0.48353244389E+02  0.17847787890E+02  0.51251854483E+03  0.10566000000E+00 0. -1.
         -4    1    3    3    0  502 -0.34200590350E+03  0.52397531991E+03  0.40818883742E+03  0.74708520324E+03  0.00000000000E+00 0. -1.
        -13    1    1    2    0    0 -0.16791435287E+03 -0.57232856430E+03 -0.66552860261E+02  0.60015373846E+03  0.10566000000E+00 0.  1.
<mgrwt>
<rscale>  1 0.99835162E+03</rscale>
<asrwt>0</asrwt>
<pdfrwt beam="2">  1       21 0.11540567E+00 0.11853668E+04</pdfrwt>
<pdfrwt beam="1">  1       -4 0.17071087E+00 0.11853668E+04</pdfrwt>
<totfact> 0.43400160E+00</totfact>
</mgrwt>
</event>
<event>
 6    2  0.2294477E-005  0.1044604E+04  0.7818608E-02  0.9622003E-01
         -4   -1    0    0    0  501 -0.00000000000E+00  0.00000000000E+00  0.38222920050E+03  0.38222920050E+03  0.00000000000E+00 0. -1.
         21   -1    0    0  501  502  0.00000000000E+00 -0.00000000000E+00 -0.19833302402E+04  0.19833302402E+04  0.00000000000E+00 0. -1.
   -9000010    2    1    2    0  502  0.25876692964E+03 -0.13199035582E+03 -0.17508157408E+04  0.20387624382E+04  0.10034015863E+04 0.  0.
         13    1    3    3    0    0  0.25610862037E+03 -0.45725932047E+03 -0.15934298541E+04  0.16774076496E+04  0.10566000000E+00 0. -1.
         -4    1    3    3    0  502  0.26583092732E+01  0.32526896465E+03 -0.15738588668E+03  0.36135478868E+03  0.00000000000E+00 0. -1.
        -13    1    1    2    0    0 -0.25876692964E+03  0.13199035582E+03  0.14971470114E+03  0.32679700244E+03  0.10566000000E+00 0.  1.
<mgrwt>
<rscale>  1 0.75856833E+03</rscale>
<asrwt>0</asrwt>
<pdfrwt beam="2">  1       21 0.30512773E+00 0.10446035E+04</pdfrwt>
<pdfrwt beam="1">  1       -4 0.58804493E-01 0.10446035E+04</pdfrwt>
<totfact> 0.26491550E+00</totfact>
</mgrwt>
</event>
<event>
 6    2  0.2294477E-005  0.1065006E+04  0.7818608E-02  0.9561193E-01
         21   -1    0    0  501  502  0.00000000000E+00  0.00000000000E+00  0.38405213569E+03  0.38405213569E+03  0.00000000000E+00 0. -1.
         -4   -1    0    0    0  501 -0.00000000000E+00 -0.00000000000E+00 -0.13099577244E+04  0.13099577244E+04  0.00000000000E+00 0. -1.
   -9000010    2    1    2    0  502 -0.33759785350E+03 -0.85906025797E+01 -0.58919059750E+03  0.12171208734E+04  0.10100453214E+04 0.  0.
         13    1    3    3    0    0 -0.21443863792E+03 -0.90721218567E+02 -0.86949362320E+03  0.90012968003E+03  0.10566000000E+00 0. -1.
         -4    1    3    3    0  502 -0.12315921559E+03  0.82130615987E+02  0.28030302570E+03  0.31699119338E+03  0.00000000000E+00 0. -1.
        -13    1    1    2    0    0  0.33759785350E+03  0.85906025797E+01 -0.33671499125E+03  0.47688898670E+03  0.10566000000E+00 0.  1.
<mgrwt>
<rscale>  1 0.79918825E+03</rscale>
<asrwt>0</asrwt>
<pdfrwt beam="1">  1       21 0.59084943E-01 0.10650059E+04</pdfrwt>
<pdfrwt beam="2">  1       -4 0.20153196E+00 0.10650059E+04</pdfrwt>
<totfact> 0.13307162E+01</totfact>
</mgrwt>
</event>
<event>
 6    2  0.2294477E-005  0.1149262E+04  0.7818608E-02  0.9544889E-01
         21   -1    0    0  501  502  0.00000000000E+00  0.00000000000E+00  0.17618581953E+04  0.17618581953E+04  0.00000000000E+00 0. -1.
         -4   -1    0    0    0  501 -0.00000000000E+00 -0.00000000000E+00 -0.32977035556E+03  0.32977035556E+03  0.00000000000E+00 0. -1.
   -9000010    2    1    2    0  502 -0.19884462116E+03  0.20324584075E+03  0.13909773504E+04  0.18043340353E+04  0.11135327865E+04 0.  0.
         13    1    3    3    0    0 -0.58788553971E+03  0.37264713210E+03  0.66045354297E+03  0.95951768428E+03  0.10566000000E+00 0. -1.
         -4    1    3    3    0  502  0.38904091854E+03 -0.16940129135E+03  0.73052380743E+03  0.84481635107E+03  0.00000000000E+00 0. -1.
        -13    1    1    2    0    0  0.19884462116E+03 -0.20324584075E+03  0.41110489343E+02  0.28729451552E+03  0.10566000000E+00 0.  1.
<mgrwt>
<rscale>  1 0.81053731E+03</rscale>
<asrwt>0</asrwt>
<pdfrwt beam="1">  1       21 0.27105510E+00 0.11492621E+04</pdfrwt>
<pdfrwt beam="2">  1       -4 0.50733902E-01 0.11492621E+04</pdfrwt>
<totfact> 0.58389853E+00</totfact>
</mgrwt>
</event>
<event>
 6    2  0.2294477E-005  0.1165846E+04  0.7818608E-02  0.9314839E-01
         -4   -1    0    0    0  501 -0.00000000000E+00  0.00000000000E+00  0.74325847339E+03  0.74325847339E+03  0.00000000000E+00 0. -1.
         21   -1    0    0  501  502  0.00000000000E+00 -0.00000000000E+00 -0.13024790864E+04  0.13024790864E+04  0.00000000000E+00 0.  1.
   -9000010    2    1    2    0  502 -0.56246148360E+03 -0.25303407899E+03 -0.76630643058E+03  0.13951426685E+04  0.98934743857E+03 0.  0.
         13    1    3    3    0    0 -0.22006749414E+03 -0.47345748203E+03 -0.83241433564E+03  0.98260130603E+03  0.10566000000E+00 0. -1.
         -4    1    3    3    0  502 -0.34239398945E+03  0.22042340304E+03  0.66107905065E+02  0.41254136245E+03  0.00000000000E+00 0. -1.
        -13    1    1    2    0    0  0.56246148360E+03  0.25303407899E+03  0.20708581752E+03  0.65059489135E+03  0.10566000000E+00 0.  1.
<mgrwt>
<rscale>  1 0.99428179E+03</rscale>
<asrwt>0</asrwt>
<pdfrwt beam="2">  1       21 0.20038140E+00 0.11658463E+04</pdfrwt>
<pdfrwt beam="1">  1       -4 0.11434746E+00 0.11658463E+04</pdfrwt>
<totfact> 0.26216238E+00</totfact>
</mgrwt>
</event>
<event>
 6    2  0.2294477E-005  0.1031876E+04  0.7818608E-02  0.9646091E-01
         -4   -1    0    0    0  501 -0.00000000000E+00  0.00000000000E+00  0.91672508521E+03  0.91672508521E+03  0.00000000000E+00 0. -1.
         21   -1    0    0  501  502  0.00000000000E+00 -0.00000000000E+00 -0.52259050526E+03  0.52259050526E+03  0.00000000000E+00 0. -1.
   -9000010    2    1    2    0  502  0.11785208079E+02  0.27741541410E+03  0.49426893692E+03  0.11441459719E+04  0.99381588834E+03 0.  0.
         13    1    3    3    0    0 -0.23973797465E+03  0.24120174737E+03  0.72506979398E+03  0.80086128433E+03  0.10566000000E+00 0. -1.
         -4    1    3    3    0  502  0.25152318273E+03  0.36213666729E+02 -0.23080085707E+03  0.34328468758E+03  0.00000000000E+00 0. -1.
        -13    1    1    2    0    0 -0.11785208079E+02 -0.27741541410E+03 -0.10013435697E+03  0.29516961856E+03  0.10566000000E+00 0.  1.
<mgrwt>
<rscale>  1 0.74319238E+03</rscale>
<asrwt>0</asrwt>
<pdfrwt beam="2">  1       21 0.80398539E-01 0.10318761E+04</pdfrwt>
<pdfrwt beam="1">  1       -4 0.14103463E+00 0.10318761E+04</pdfrwt>
<totfact> 0.18085004E+01</totfact>
</mgrwt>
</event>
<event>
 6    2  0.2294477E-005  0.7967289E+03  0.7818608E-02  0.1005394E+00
         -4   -1    0    0    0  501 -0.00000000000E+00  0.00000000000E+00  0.12371818709E+04  0.12371818709E+04  0.00000000000E+00 0. -1.
         21   -1    0    0  501  502  0.00000000000E+00 -0.00000000000E+00 -0.23607220518E+03  0.23607220518E+03  0.00000000000E+00 0. -1.
   -9000010    2    1    2    0  502  0.93832055883E+02 -0.12977332404E+03  0.48469854444E+03  0.93258224614E+03  0.78046870309E+03 0.  0.
         13    1    3    3    0    0  0.22981245055E+03  0.10790044037E+03  0.58756868754E+03  0.64007284054E+03  0.10566000000E+00 0. -1.
         -4    1    3    3    0  502 -0.13598039467E+03 -0.23767376441E+03 -0.10287014311E+03  0.29250940560E+03  0.00000000000E+00 0. -1.
        -13    1    1    2    0    0 -0.93832055883E+02  0.12977332404E+03  0.51641112128E+03  0.54067182994E+03  0.10566000000E+00 0.  1.
<mgrwt>
<rscale>  1 0.53346939E+03</rscale>
<asrwt>0</asrwt>
<pdfrwt beam="2">  1       21 0.36318801E-01 0.79672892E+03</pdfrwt>
<pdfrwt beam="1">  1       -4 0.19033567E+00 0.79672892E+03</pdfrwt>
<totfact> 0.45985618E+01</totfact>
</mgrwt>
</event>
<event>
 6    2  0.2294477E-005  0.9848423E+03  0.7818608E-02  0.1017135E+00
         -4   -1    0    0    0  501 -0.00000000000E+00  0.00000000000E+00  0.55750053478E+03  0.55750053478E+03  0.00000000000E+00 0. -1.
         21   -1    0    0  501  502  0.00000000000E+00 -0.00000000000E+00 -0.57465829097E+03  0.57465829097E+03  0.00000000000E+00 0. -1.
   -9000010    2    1    2    0  502 -0.57707652219E+02  0.12542263182E+02 -0.14106913690E+03  0.99489439873E+03  0.98307013063E+03 0.  0.
         13    1    3    3    0    0  0.19339906876E+03 -0.16055173918E+02 -0.51115086916E+03  0.54675057440E+03  0.10566000000E+00 0. -1.
         -4    1    3    3    0  502 -0.25110672098E+03  0.28597437101E+02  0.37008173225E+03  0.44814382432E+03  0.00000000000E+00 0. -1.
        -13    1    1    2    0    0  0.57707652219E+02 -0.12542263182E+02  0.12391138072E+03  0.13726442702E+03  0.10566000000E+00 0.  1.
<mgrwt>
<rscale>  1 0.48734800E+03</rscale>
<asrwt>0</asrwt>
<pdfrwt beam="2">  1       21 0.88408967E-01 0.98484230E+03</pdfrwt>
<pdfrwt beam="1">  1       -4 0.85769313E-01 0.98484230E+03</pdfrwt>
<totfact> 0.49455188E+01</totfact>
</mgrwt>
</event>
<event>
 6    2  0.2294477E-005  0.1027504E+04  0.7818608E-02  0.9669884E-01
         21   -1    0    0  501  502  0.00000000000E+00  0.00000000000E+00  0.41784999341E+03  0.41784999341E+03  0.00000000000E+00 0. -1.
         -4   -1    0    0    0  501 -0.00000000000E+00 -0.00000000000E+00 -0.11299088144E+04  0.11299088144E+04  0.00000000000E+00 0. -1.
   -9000010    2    1    2    0  502 -0.17518130203E+03  0.19141253510E+03 -0.31733985519E+03  0.10753920855E+04  0.99420134116E+03 0.  0.
         13    1    3    3    0    0  0.17082716978E+02 -0.39707678245E+02 -0.63590195794E+03  0.63736946131E+03  0.10566000000E+00 0. -1.
         -4    1    3    3    0  502 -0.19226401901E+03  0.23112021335E+03  0.31856210276E+03  0.43802262423E+03  0.00000000000E+00 0. -1.
        -13    1    1    2    0    0  0.17518130203E+03 -0.19141253510E+03 -0.39471896577E+03  0.47236672224E+03  0.10566000000E+00 0.  1.
<mgrwt>
<rscale>  1 0.72838562E+03</rscale>
<asrwt>0</asrwt>
<pdfrwt beam="1">  1       21 0.64284615E-01 0.10275036E+04</pdfrwt>
<pdfrwt beam="2">  1       -4 0.17383212E+00 0.10275036E+04</pdfrwt>
<totfact> 0.17107443E+01</totfact>
</mgrwt>
</event>
<event>
 6    2  0.2294477E-005  0.1004709E+04  0.7818608E-02  0.9708366E-01
         21   -1    0    0  501  502  0.00000000000E+00  0.00000000000E+00  0.93425956710E+03  0.93425956710E+03  0.00000000000E+00 0. -1.
         -4   -1    0    0    0  501 -0.00000000000E+00 -0.00000000000E+00 -0.42540938182E+03  0.42540938182E+03  0.00000000000E+00 0. -1.
   -9000010    2    1    2    0  502  0.12983953564E+03  0.20642699947E+03  0.48195413514E+03  0.11143246606E+04  0.97466365981E+03 0.  0.
         13    1    3    3    0    0 -0.94201160955E+01  0.97347347083E+02  0.77006052477E+03  0.77624639615E+03  0.10566000000E+00 0. -1.
         -4    1    3    3    0  502  0.13925965173E+03  0.10907965239E+03 -0.28810638962E+03  0.33807826447E+03  0.00000000000E+00 0. -1.
        -13    1    1    2    0    0 -0.12983953564E+03 -0.20642699947E+03  0.26896050139E+02  0.24534428830E+03  0.10566000000E+00 0.  1.
<mgrwt>
<rscale>  1 0.70520887E+03</rscale>
<asrwt>0</asrwt>
<pdfrwt beam="1">  1       21 0.14373224E+00 0.10047087E+04</pdfrwt>
<pdfrwt beam="2">  1       -4 0.65447597E-01 0.10047087E+04</pdfrwt>
<totfact> 0.26283262E+01</totfact>
</mgrwt>
</event>
<event>
 6    2  0.2294477E-005  0.1001097E+04  0.7818608E-02  0.9871455E-01
         -4   -1    0    0    0  501 -0.00000000000E+00  0.00000000000E+00  0.17066830346E+04  0.17066830346E+04  0.00000000000E+00 0. -1.
         21   -1    0    0  501  502  0.00000000000E+00 -0.00000000000E+00 -0.21654578158E+03  0.21654578158E+03  0.00000000000E+00 0. -1.
   -9000010    2    1    2    0  502  0.54725335565E+02 -0.13332459557E+03  0.10105904659E+04  0.14224939140E+04  0.99066923606E+03 0.  0.
         13    1    3    3    0    0  0.29439681137E+03  0.32033942515E+03  0.69554512143E+03  0.82040834769E+03  0.10566000000E+00 0. -1.
         -4    1    3    3    0  502 -0.23967147581E+03 -0.45366402072E+03  0.31504534449E+03  0.60208556626E+03  0.00000000000E+00 0. -1.
        -13    1    1    2    0    0 -0.54725335565E+02  0.13332459557E+03  0.47954678710E+03  0.50073490224E+03  0.10566000000E+00 0.  1.
<mgrwt>
<rscale>  1 0.61664842E+03</rscale>
<asrwt>0</asrwt>
<pdfrwt beam="2">  1       21 0.33314737E-01 0.10010973E+04</pdfrwt>
<pdfrwt beam="1">  1       -4 0.26256661E+00 0.10010973E+04</pdfrwt>
<totfact> 0.18663465E+01</totfact>
</mgrwt>
</event>
<event>
 6    2  0.2294477E-005  0.9397297E+03  0.7818608E-02  0.1026537E+00
         -4   -1    0    0    0  501 -0.00000000000E+00  0.00000000000E+00  0.22106243547E+03  0.22106243547E+03  0.00000000000E+00 0. -1.
         21   -1    0    0  501  502  0.00000000000E+00 -0.00000000000E+00 -0.17560878544E+04  0.17560878544E+04  0.00000000000E+00 0. -1.
   -9000010    2    1    2    0  502 -0.10890544660E+02  0.50019100486E+02 -0.16229655593E+04  0.18753957134E+04  0.93833435441E+03 0.  0.
         13    1    3    3    0    0 -0.38957271090E+03  0.86904299421E+02 -0.30142664353E+03  0.50017725551E+03  0.10566000000E+00 0. -1.
         -4    1    3    3    0  502  0.37868216624E+03 -0.36885198935E+02 -0.13215389158E+04  0.13752184579E+04  0.00000000000E+00 0. -1.
        -13    1    1    2    0    0  0.10890544660E+02 -0.50019100486E+02  0.87940140402E+02  0.10175457648E+03  0.10566000000E+00 0.  1.
<mgrwt>
<rscale>  1 0.45399467E+03</rscale>
<asrwt>0</asrwt>
<pdfrwt beam="2">  1       21 0.27016735E+00 0.93972968E+03</pdfrwt>
<pdfrwt beam="1">  1       -4 0.34009607E-01 0.93972968E+03</pdfrwt>
<totfact> 0.13880094E+01</totfact>
</mgrwt>
</event>
<event>
 6    2  0.2294477E-005  0.1041476E+04  0.7818608E-02  0.9695591E-01
         -4   -1    0    0    0  501 -0.00000000000E+00  0.00000000000E+00  0.63809502375E+03  0.63809502375E+03  0.00000000000E+00 0. -1.
         21   -1    0    0  501  502  0.00000000000E+00 -0.00000000000E+00 -0.71005131415E+03  0.71005131415E+03  0.00000000000E+00 0. -1.
   -9000010    2    1    2    0  502  0.18272010086E+03  0.13723719842E+03  0.12175940287E+03  0.10485691945E+04  0.10160961173E+04 0.  0.
         13    1    3    3    0    0 -0.23581250104E+03  0.66027191725E+02 -0.34148267022E+03  0.42021131698E+03  0.10566000000E+00 0. -1.
         -4    1    3    3    0  502  0.41853260190E+03  0.71210006694E+02  0.46324207310E+03  0.62835787748E+03  0.00000000000E+00 0. -1.
        -13    1    1    2    0    0 -0.18272010086E+03 -0.13723719842E+03 -0.19371569327E+03  0.29957714344E+03  0.10566000000E+00 0.  1.
<mgrwt>
<rscale>  1 0.71279935E+03</rscale>
<asrwt>0</asrwt>
<pdfrwt beam="2">  1       21 0.10923866E+00 0.10414759E+04</pdfrwt>
<pdfrwt beam="1">  1       -4 0.98168465E-01 0.10414759E+04</pdfrwt>
<totfact> 0.21211849E+01</totfact>
</mgrwt>
</event>
<event>
 6    2  0.2294477E-005  0.9929443E+03  0.7818608E-02  0.1005310E+00
         -4   -1    0    0    0  501 -0.00000000000E+00  0.00000000000E+00  0.63786059233E+03  0.63786059233E+03  0.00000000000E+00 0. -1.
         21   -1    0    0  501  502  0.00000000000E+00 -0.00000000000E+00 -0.72770694066E+03  0.72770694066E+03  0.00000000000E+00 0. -1.
   -9000010    2    1    2    0  502 -0.82589692059E+02 -0.76891061679E+01 -0.38046761841E+03  0.10633409402E+04  0.98947368178E+03 0.  0.
         13    1    3    3    0    0 -0.98506948503E+01  0.27181343854E+03  0.25027645002E+03  0.36961857929E+03  0.10566000000E+00 0. -1.
         -4    1    3    3    0  502 -0.72738997208E+02 -0.27950254470E+03 -0.63074406843E+03  0.69372236094E+03  0.00000000000E+00 0. -1.
        -13    1    1    2    0    0  0.82589692059E+02  0.76891061679E+01  0.29062127007E+03  0.30222659276E+03  0.10566000000E+00 0.  1.
<mgrwt>
<rscale>  1 0.53381862E+03</rscale>
<asrwt>0</asrwt>
<pdfrwt beam="2">  1       21 0.11195491E+00 0.99294428E+03</pdfrwt>
<pdfrwt beam="1">  1       -4 0.98132399E-01 0.99294428E+03</pdfrwt>
<totfact> 0.20044352E+01</totfact>
</mgrwt>
</event>
<event>
 6    2  0.2294477E-005  0.1034740E+04  0.7818608E-02  0.9647940E-01
         -4   -1    0    0    0  501 -0.00000000000E+00  0.00000000000E+00  0.57808898817E+03  0.57808898817E+03  0.00000000000E+00 0. -1.
         21   -1    0    0  501  502  0.00000000000E+00 -0.00000000000E+00 -0.94531514566E+03  0.94531514566E+03  0.00000000000E+00 0. -1.
   -9000010    2    1    2    0  502  0.16559798962E+03  0.21785176770E+03 -0.57135946961E+03  0.11820062616E+04  0.99790033179E+03 0.  0.
         13    1    3    3    0    0  0.31428878908E+03  0.53480643624E+03 -0.55365161476E+03  0.83145985404E+03  0.10566000000E+00 0. -1.
         -4    1    3    3    0  502 -0.14869079946E+03 -0.31695466855E+03 -0.17707854852E+02  0.35054640760E+03  0.00000000000E+00 0. -1.
        -13    1    1    2    0    0 -0.16559798962E+03 -0.21785176770E+03  0.20413331212E+03  0.34139787219E+03  0.10566000000E+00 0.  1.
<mgrwt>
<rscale>  1 0.74202873E+03</rscale>
<asrwt>0</asrwt>
<pdfrwt beam="2">  1       21 0.14543310E+00 0.10347401E+04</pdfrwt>
<pdfrwt beam="1">  1       -4 0.88936768E-01 0.10347401E+04</pdfrwt>
<totfact> 0.12612036E+01</totfact>
</mgrwt>
</event>
<event>
 6    2  0.2294477E-005  0.1051907E+04  0.7818608E-02  0.9559185E-01
         21   -1    0    0  501  502  0.00000000000E+00  0.00000000000E+00  0.79842105396E+03  0.79842105396E+03  0.00000000000E+00 0. -1.
         -4   -1    0    0    0  501 -0.00000000000E+00 -0.00000000000E+00 -0.64332459061E+03  0.64332459061E+03  0.00000000000E+00 0. -1.
   -9000010    2    1    2    0  502 -0.58270280772E+02  0.34807609068E+03  0.23960029583E+03  0.10788499304E+04  0.99093717255E+03 0.  0.
         13    1    3    3    0    0 -0.36482121213E+03  0.27794948315E+03  0.49420568791E+03  0.67423267877E+03  0.10566000000E+00 0. -1.
         -4    1    3    3    0  502  0.30655093136E+03  0.70126607538E+02 -0.25460539208E+03  0.40461725158E+03  0.00000000000E+00 0. -1.
        -13    1    1    2    0    0  0.58270280772E+02 -0.34807609068E+03 -0.84503832471E+02  0.36289571421E+03  0.10566000000E+00 0.  1.
<mgrwt>
<rscale>  1 0.80057514E+03</rscale>
<asrwt>0</asrwt>
<pdfrwt beam="1">  1       21 0.12283401E+00 0.10519073E+04</pdfrwt>
<pdfrwt beam="2">  1       -4 0.98973014E-01 0.10519073E+04</pdfrwt>
<totfact> 0.15369860E+01</totfact>
</mgrwt>
</event>
<event>
 6    2  0.2294477E-005  0.1196810E+04  0.7818608E-02  0.9222138E-01
         21   -1    0    0  501  502  0.00000000000E+00  0.00000000000E+00  0.11435666450E+04  0.11435666450E+04  0.00000000000E+00 0. -1.
         -4   -1    0    0    0  501 -0.00000000000E+00 -0.00000000000E+00 -0.10392482351E+04  0.10392482351E+04  0.00000000000E+00 0. -1.
   -9000010    2    1    2    0  502  0.73398931898E+03 -0.32281923263E+03  0.48975910122E+03  0.12931424037E+04  0.88848225744E+03 0.  0.
         13    1    3    3    0    0  0.84702179868E+02  0.28821591241E+03  0.17476634803E+03  0.34754303188E+03  0.10566000000E+00 0. -1.
         -4    1    3    3    0  502  0.64928713912E+03 -0.61103514504E+03  0.31499275319E+03  0.94559937186E+03  0.00000000000E+00 0. -1.
        -13    1    1    2    0    0 -0.73398931898E+03  0.32281923263E+03 -0.38544069132E+03  0.88967247627E+03  0.10566000000E+00 0.  1.
<mgrwt>
<rscale>  1 0.10827824E+04</rscale>
<asrwt>0</asrwt>
<pdfrwt beam="1">  1       21 0.17593333E+00 0.11968096E+04</pdfrwt>
<pdfrwt beam="2">  1       -4 0.15988434E+00 0.11968096E+04</pdfrwt>
<totfact> 0.16240434E+00</totfact>
</mgrwt>
</event>
<event>
 6    2  0.2294477E-005  0.1072163E+04  0.7818608E-02  0.9528435E-01
         21   -1    0    0  501  502  0.00000000000E+00  0.00000000000E+00  0.11587522731E+04  0.11587522731E+04  0.00000000000E+00 0. -1.
         -4   -1    0    0    0  501 -0.00000000000E+00 -0.00000000000E+00 -0.60879488705E+03  0.60879488705E+03  0.00000000000E+00 0. -1.
   -9000010    2    1    2    0  502  0.36056170297E+03 -0.86450262959E+02  0.78475641480E+03  0.13286747588E+04  0.10060097387E+04 0.  0.
         13    1    3    3    0    0  0.24058010682E+03  0.40825376427E+03  0.64579960982E+03  0.80100378966E+03  0.10566000000E+00 0. -1.
         -4    1    3    3    0  502  0.11998159615E+03 -0.49470402723E+03  0.13895680499E+03  0.52767096910E+03  0.00000000000E+00 0. -1.
        -13    1    1    2    0    0 -0.36056170297E+03  0.86450262959E+02 -0.23479902877E+03  0.43887240138E+03  0.10566000000E+00 0.  1.
<mgrwt>
<rscale>  1 0.82219530E+03</rscale>
<asrwt>0</asrwt>
<pdfrwt beam="1">  1       21 0.17826958E+00 0.10721632E+04</pdfrwt>
<pdfrwt beam="2">  1       -4 0.93660752E-01 0.10721632E+04</pdfrwt>
<totfact> 0.61911662E+00</totfact>
</mgrwt>
</event>
<event>
 6    2  0.2294477E-005  0.1378088E+04  0.7818608E-02  0.9064117E-01
         -4   -1    0    0    0  501 -0.00000000000E+00  0.00000000000E+00  0.70032245534E+03  0.70032245534E+03  0.00000000000E+00 0. -1.
         21   -1    0    0  501  502  0.00000000000E+00 -0.00000000000E+00 -0.19644658379E+04  0.19644658379E+04  0.00000000000E+00 0.  1.
   -9000010    2    1    2    0  502 -0.31939957290E+02 -0.95433572235E+03 -0.88271065783E+03  0.16365530252E+04  0.99365530591E+03 0.  0.
         13    1    3    3    0    0  0.26012567330E+03 -0.26374197505E+03 -0.80073468935E+03  0.88227050796E+03  0.10566000000E+00 0. -1.
         -4    1    3    3    0  502 -0.29206563059E+03 -0.69059374730E+03 -0.81975968477E+02  0.75428251723E+03  0.00000000000E+00 0. -1.
        -13    1    1    2    0    0  0.31939957290E+02  0.95433572235E+03 -0.38143272473E+03  0.10282352681E+04  0.10566000000E+00 0.  1.
<mgrwt>
<rscale>  1 0.12573144E+04</rscale>
<asrwt>0</asrwt>
<pdfrwt beam="2">  1       21 0.30222551E+00 0.13780884E+04</pdfrwt>
<pdfrwt beam="1">  1       -4 0.10774192E+00 0.13780884E+04</pdfrwt>
<totfact> 0.64660690E-01</totfact>
</mgrwt>
</event>
<event>
 6    2  0.2294477E-005  0.1023456E+04  0.7818608E-02  0.9892476E-01
         -4   -1    0    0    0  501 -0.00000000000E+00  0.00000000000E+00  0.52920515300E+03  0.52920515300E+03  0.00000000000E+00 0. -1.
         21   -1    0    0  501  502  0.00000000000E+00 -0.00000000000E+00 -0.64658707712E+03  0.64658707712E+03  0.00000000000E+00 0. -1.
   -9000010    2    1    2    0  502  0.42594903886E+01  0.12595571682E+03 -0.17310982814E+03  0.10379931144E+04  0.10156671241E+04 0.  0.
         13    1    3    3    0    0 -0.10687821219E+03  0.39678127441E+03 -0.46777370519E+03  0.62263197990E+03  0.10566000000E+00 0. -1.
         -4    1    3    3    0  502  0.11113770258E+03 -0.27082555759E+03  0.29466387705E+03  0.41536113446E+03  0.00000000000E+00 0. -1.
        -13    1    1    2    0    0 -0.42594903886E+01 -0.12595571682E+03  0.55727904016E+02  0.13779911577E+03  0.10566000000E+00 0.  1.
<mgrwt>
<rscale>  1 0.60627341E+03</rscale>
<asrwt>0</asrwt>
<pdfrwt beam="2">  1       21 0.99474934E-01 0.10234562E+04</pdfrwt>
<pdfrwt beam="1">  1       -4 0.81416178E-01 0.10234562E+04</pdfrwt>
<totfact> 0.41723964E+01</totfact>
</mgrwt>
</event>
<event>
 6    2  0.2294477E-005  0.1065838E+04  0.7818608E-02  0.9524849E-01
         21   -1    0    0  501  502  0.00000000000E+00  0.00000000000E+00  0.23814959346E+04  0.23814959346E+04  0.00000000000E+00 0. -1.
         -4   -1    0    0    0  501 -0.00000000000E+00 -0.00000000000E+00 -0.22018181427E+03  0.22018181427E+03  0.00000000000E+00 0. -1.
   -9000010    2    1    2    0  502 -0.27372952822E+03  0.26667820321E+03  0.15689457262E+04  0.18967341736E+04  0.99496970562E+03 0.  0.
         13    1    3    3    0    0 -0.48777301697E+03  0.39507340836E+03  0.50999382462E+03  0.80876401156E+03  0.10566000000E+00 0. -1.
         -4    1    3    3    0  502  0.21404348875E+03 -0.12839520515E+03  0.10589519015E+04  0.10879701621E+04  0.00000000000E+00 0. -1.
        -13    1    1    2    0    0  0.27372952822E+03 -0.26667820321E+03  0.59236839418E+03  0.70494357524E+03  0.10566000000E+00 0.  1.
<mgrwt>
<rscale>  1 0.82476310E+03</rscale>
<asrwt>0</asrwt>
<pdfrwt beam="1">  1       21 0.36638397E+00 0.10658376E+04</pdfrwt>
<pdfrwt beam="2">  1       -4 0.33874127E-01 0.10658376E+04</pdfrwt>
<totfact> 0.34163054E+00</totfact>
</mgrwt>
</event>
<event>
 6    2  0.2294477E-005  0.1030928E+04  0.7818608E-02  0.9683820E-01
         21   -1    0    0  501  502  0.00000000000E+00  0.00000000000E+00  0.95475048162E+03  0.95475048162E+03  0.00000000000E+00 0. -1.
         -4   -1    0    0    0  501 -0.00000000000E+00 -0.00000000000E+00 -0.11031361607E+04  0.11031361607E+04  0.00000000000E+00 0. -1.
   -9000010    2    1    2    0  502 -0.11025867518E+03  0.21891307138E+03  0.65267641411E+03  0.12201633010E+04  0.10013651039E+04 0.  0.
         13    1    3    3    0    0 -0.36534245028E+03 -0.35093888631E+02  0.76045532195E+03  0.84439267811E+03  0.10566000000E+00 0. -1.
         -4    1    3    3    0  502  0.25508377511E+03  0.25400696001E+03 -0.10777890784E+03  0.37577062290E+03  0.00000000000E+00 0. -1.
        -13    1    1    2    0    0  0.11025867518E+03 -0.21891307138E+03 -0.80106209317E+03  0.83772334129E+03  0.10566000000E+00 0.  1.
<mgrwt>
<rscale>  1 0.71988369E+03</rscale>
<asrwt>0</asrwt>
<pdfrwt beam="1">  1       21 0.14688469E+00 0.10309277E+04</pdfrwt>
<pdfrwt beam="2">  1       -4 0.16971326E+00 0.10309277E+04</pdfrwt>
<totfact> 0.23639378E+00</totfact>
</mgrwt>
</event>
<event>
 6    2  0.2294477E-005  0.1022845E+04  0.7818608E-02  0.9740202E-01
         21   -1    0    0  501  502  0.00000000000E+00  0.00000000000E+00  0.78509410921E+03  0.78509410921E+03  0.00000000000E+00 0. -1.
         -4   -1    0    0    0  501 -0.00000000000E+00 -0.00000000000E+00 -0.48348119541E+03  0.48348119541E+03  0.00000000000E+00 0. -1.
   -9000010    2    1    2    0  502  0.18269220476E+03  0.99081883286E+02  0.22678851168E+03  0.10476853692E+04  0.10015078344E+04 0.  0.
         13    1    3    3    0    0  0.12129038480E+03  0.49353202819E+03 -0.11624890428E+03  0.52134349445E+03  0.10566000000E+00 0. -1.
         -4    1    3    3    0  502  0.61401819954E+02 -0.39445014491E+03  0.34303741596E+03  0.52634187470E+03  0.00000000000E+00 0. -1.
        -13    1    1    2    0    0 -0.18269220476E+03 -0.99081883286E+02  0.74824402120E+02  0.22088993547E+03  0.10566000000E+00 0.  1.
<mgrwt>
<rscale>  1 0.68672822E+03</rscale>
<asrwt>0</asrwt>
<pdfrwt beam="1">  1       21 0.12078371E+00 0.10228449E+04</pdfrwt>
<pdfrwt beam="2">  1       -4 0.74381722E-01 0.10228449E+04</pdfrwt>
<totfact> 0.31359315E+01</totfact>
</mgrwt>
</event>
<event>
 6    2  0.2294477E-005  0.1031590E+04  0.7818608E-02  0.9684419E-01
         21   -1    0    0  501  502  0.00000000000E+00  0.00000000000E+00  0.69261701705E+03  0.69261701705E+03  0.00000000000E+00 0. -1.
         -4   -1    0    0    0  501 -0.00000000000E+00 -0.00000000000E+00 -0.60404141928E+03  0.60404141928E+03  0.00000000000E+00 0. -1.
   -9000010    2    1    2    0  502 -0.23395404167E+03 -0.69810294626E+02 -0.14380373786E+02  0.10316906758E+04  0.10022828366E+04 0.  0.
         13    1    3    3    0    0 -0.52321712224E+01  0.26749265496E+03 -0.39299521037E+03  0.47542080582E+03  0.10566000000E+00 0. -1.
         -4    1    3    3    0  502 -0.22872187045E+03 -0.33730294959E+03  0.37861483658E+03  0.55626987003E+03  0.00000000000E+00 0. -1.
        -13    1    1    2    0    0  0.23395404167E+03  0.69810294626E+02  0.10295597156E+03  0.26496776048E+03  0.10566000000E+00 0.  1.
<mgrwt>
<rscale>  1 0.71952119E+03</rscale>
<asrwt>0</asrwt>
<pdfrwt beam="1">  1       21 0.10655646E+00 0.10315904E+04</pdfrwt>
<pdfrwt beam="2">  1       -4 0.92929449E-01 0.10315904E+04</pdfrwt>
<totfact> 0.25766937E+01</totfact>
</mgrwt>
</event>
<event>
 6    2  0.2294477E-005  0.1129054E+04  0.7818608E-02  0.9405978E-01
         21   -1    0    0  501  502  0.00000000000E+00  0.00000000000E+00  0.14443912395E+04  0.14443912395E+04  0.00000000000E+00 0. -1.
         -4   -1    0    0    0  501 -0.00000000000E+00 -0.00000000000E+00 -0.47249383266E+03  0.47249383266E+03  0.00000000000E+00 0. -1.
   -9000010    2    1    2    0  502  0.47368765966E+03 -0.12073284227E+03  0.84955011407E+03  0.14129750710E+04  0.10177459097E+04 0.  0.
         13    1    3    3    0    0  0.19236920189E+03  0.13348240345E+03 -0.19311557637E+03  0.30350798815E+03  0.10566000000E+00 0. -1.
         -4    1    3    3    0  502  0.28131845777E+03 -0.25421524573E+03  0.10426656904E+04  0.11094670828E+04  0.00000000000E+00 0. -1.
        -13    1    1    2    0    0 -0.47368765966E+03  0.12073284227E+03  0.12234729280E+03  0.50391000123E+03  0.10566000000E+00 0.  1.
<mgrwt>
<rscale>  1 0.91585328E+03</rscale>
<asrwt>0</asrwt>
<pdfrwt beam="1">  1       21 0.22221403E+00 0.11290541E+04</pdfrwt>
<pdfrwt beam="2">  1       -4 0.72691360E-01 0.11290541E+04</pdfrwt>
<totfact> 0.54889493E+00</totfact>
</mgrwt>
</event>
<event>
 6    2  0.2294477E-005  0.1001456E+04  0.7818608E-02  0.9776287E-01
         -4   -1    0    0    0  501 -0.00000000000E+00  0.00000000000E+00  0.55729607360E+03  0.55729607360E+03  0.00000000000E+00 0. -1.
         21   -1    0    0  501  502  0.00000000000E+00 -0.00000000000E+00 -0.85054449514E+03  0.85054449514E+03  0.00000000000E+00 0. -1.
   -9000010    2    1    2    0  502  0.18238532211E+03 -0.73085123882E+02 -0.50279303957E+03  0.11205866755E+04  0.98199175948E+03 0.  0.
         13    1    3    3    0    0 -0.40746186380E+02  0.35891470319E+03 -0.52106029460E+03  0.63402196937E+03  0.10566000000E+00 0. -1.
         -4    1    3    3    0  502  0.22313150848E+03 -0.43199982707E+03  0.18267255032E+02  0.48656470616E+03  0.00000000000E+00 0. -1.
        -13    1    1    2    0    0 -0.18238532211E+03  0.73085123882E+02  0.20954461803E+03  0.28725389321E+03  0.10566000000E+00 0.  1.
<mgrwt>
<rscale>  1 0.66650816E+03</rscale>
<asrwt>0</asrwt>
<pdfrwt beam="2">  1       21 0.13085300E+00 0.10014558E+04</pdfrwt>
<pdfrwt beam="1">  1       -4 0.85737858E-01 0.10014558E+04</pdfrwt>
<totfact> 0.18361726E+01</totfact>
</mgrwt>
</event>
<event>
 6    2  0.2294477E-005  0.9861224E+03  0.7818608E-02  0.9832865E-01
         -4   -1    0    0    0  501 -0.00000000000E+00  0.00000000000E+00  0.14885707153E+03  0.14885707153E+03  0.00000000000E+00 0. -1.
         21   -1    0    0  501  502  0.00000000000E+00 -0.00000000000E+00 -0.22665170070E+04  0.22665170070E+04  0.00000000000E+00 0. -1.
   -9000010    2    1    2    0  502 -0.79597713387E+02  0.15126053374E+03 -0.18757923131E+04  0.21192060469E+04  0.97119612965E+03 0.  0.
         13    1    3    3    0    0 -0.12783056001E+03 -0.25526348878E+01 -0.19410814693E+04  0.19452877550E+04  0.10566000000E+00 0. -1.
         -4    1    3    3    0  502  0.48232846624E+02  0.15381316863E+03  0.65289156218E+02  0.17391829190E+03  0.00000000000E+00 0. -1.
        -13    1    1    2    0    0  0.79597713387E+02 -0.15126053374E+03 -0.24186762234E+03  0.29616803161E+03  0.10566000000E+00 0.  1.
<mgrwt>
<rscale>  1 0.63628239E+03</rscale>
<asrwt>0</asrwt>
<pdfrwt beam="2">  1       21 0.34869493E+00 0.98612244E+03</pdfrwt>
<pdfrwt beam="1">  1       -4 0.22901087E-01 0.98612244E+03</pdfrwt>
<totfact> 0.96015993E+00</totfact>
</mgrwt>
</event>
<event>
 6    2  0.2294477E-005  0.1012772E+04  0.7818608E-02  0.9759715E-01
         21   -1    0    0  501  502  0.00000000000E+00  0.00000000000E+00  0.23038894525E+03  0.23038894525E+03  0.00000000000E+00 0. -1.
         -4   -1    0    0    0  501 -0.00000000000E+00 -0.00000000000E+00 -0.17477783258E+04  0.17477783258E+04  0.00000000000E+00 0. -1.
   -9000010    2    1    2    0  502 -0.11665085404E+03  0.16328088343E+03 -0.10002066359E+04  0.14234186152E+04  0.99269288852E+03 0.  0.
         13    1    3    3    0    0  0.17222726686E+03  0.19558578532E+03 -0.10887878382E+04  0.11195423166E+04  0.10566000000E+00 0. -1.
         -4    1    3    3    0  502 -0.28887812090E+03 -0.32304901888E+02  0.88581202342E+02  0.30387629856E+03  0.00000000000E+00 0. -1.
        -13    1    1    2    0    0  0.11665085404E+03 -0.16328088343E+03 -0.51718274468E+03  0.55474865588E+03  0.10566000000E+00 0.  1.
<mgrwt>
<rscale>  1 0.67569997E+03</rscale>
<asrwt>0</asrwt>
<pdfrwt beam="1">  1       21 0.35444455E-01 0.10127721E+04</pdfrwt>
<pdfrwt beam="2">  1       -4 0.26888896E+00 0.10127721E+04</pdfrwt>
<totfact> 0.15006461E+01</totfact>
</mgrwt>
</event>
<event>
 6    2  0.2294477E-005  0.9754261E+03  0.7818608E-02  0.9806205E-01
         21   -1    0    0  501  502  0.00000000000E+00  0.00000000000E+00  0.10365541089E+04  0.10365541089E+04  0.00000000000E+00 0. -1.
         -4   -1    0    0    0  501 -0.00000000000E+00 -0.00000000000E+00 -0.33027059943E+03  0.33027059943E+03  0.00000000000E+00 0. -1.
   -9000010    2    1    2    0  502 -0.15315904456E+03 -0.11694789563E+03  0.61915851392E+03  0.11553411883E+04  0.95620159634E+03 0.  0.
         13    1    3    3    0    0 -0.60601368605E+02 -0.33404688786E+03  0.79273745508E+03  0.86237609720E+03  0.10566000000E+00 0. -1.
         -4    1    3    3    0  502 -0.92557675957E+02  0.21709899223E+03 -0.17357894115E+03  0.29296509113E+03  0.00000000000E+00 0. -1.
        -13    1    1    2    0    0  0.15315904456E+03  0.11694789563E+03  0.87124995565E+02  0.21148352002E+03  0.10566000000E+00 0.  1.
<mgrwt>
<rscale>  1 0.65030633E+03</rscale>
<asrwt>0</asrwt>
<pdfrwt beam="1">  1       21 0.15946986E+00 0.97542606E+03</pdfrwt>
<pdfrwt beam="2">  1       -4 0.50810862E-01 0.97542606E+03</pdfrwt>
<totfact> 0.34084981E+01</totfact>
</mgrwt>
</event>
<event>
 6    2  0.2294477E-005  0.1014846E+04  0.7818608E-02  0.9919315E-01
         -4   -1    0    0    0  501 -0.00000000000E+00  0.00000000000E+00  0.44177751075E+03  0.44177751075E+03  0.00000000000E+00 0. -1.
         21   -1    0    0  501  502  0.00000000000E+00 -0.00000000000E+00 -0.11798906637E+04  0.11798906637E+04  0.00000000000E+00 0. -1.
   -9000010    2    1    2    0  502  0.10834118330E+03 -0.48209158386E+02 -0.94274225505E+03  0.13851623278E+04  0.10078937344E+04 0.  0.
         13    1    3    3    0    0  0.50714810113E+03 -0.20465595308E+03 -0.71445101669E+03  0.89973525107E+03  0.10566000000E+00 0. -1.
         -4    1    3    3    0  502 -0.39880691783E+03  0.15644679469E+03 -0.22829123835E+03  0.48542707669E+03  0.00000000000E+00 0. -1.
        -13    1    1    2    0    0 -0.10834118330E+03  0.48209158386E+02  0.20462910207E+03  0.23650584671E+03  0.10566000000E+00 0.  1.
<mgrwt>
<rscale>  1 0.59334280E+03</rscale>
<asrwt>0</asrwt>
<pdfrwt beam="2">  1       21 0.18152164E+00 0.10148457E+04</pdfrwt>
<pdfrwt beam="1">  1       -4 0.67965771E-01 0.10148457E+04</pdfrwt>
<totfact> 0.12343156E+01</totfact>
</mgrwt>
</event>
<event>
 6    2  0.2294477E-005  0.9983661E+03  0.7818608E-02  0.1020995E+00
         21   -1    0    0  501  502  0.00000000000E+00  0.00000000000E+00  0.45787104765E+03  0.45787104765E+03  0.00000000000E+00 0. -1.
         -4   -1    0    0    0  501 -0.00000000000E+00 -0.00000000000E+00 -0.71942697561E+03  0.71942697561E+03  0.00000000000E+00 0. -1.
   -9000010    2    1    2    0  502  0.46987555197E+01 -0.50206335567E+02 -0.94536096911E+02  0.10028320106E+04  0.99709187816E+03 0.  0.
         13    1    3    3    0    0 -0.49099678027E+03 -0.14310834591E+02 -0.11837341517E+03  0.50526717171E+03  0.10566000000E+00 0. -1.
         -4    1    3    3    0  502  0.49569553579E+03 -0.35895500976E+02  0.23837318263E+02  0.49756483892E+03  0.00000000000E+00 0. -1.
        -13    1    1    2    0    0 -0.46987555197E+01  0.50206335567E+02 -0.16701983105E+03  0.17446601262E+03  0.10566000000E+00 0.  1.
<mgrwt>
<rscale>  1 0.47329365E+03</rscale>
<asrwt>0</asrwt>
<pdfrwt beam="1">  1       21 0.70441700E-01 0.99836615E+03</pdfrwt>
<pdfrwt beam="2">  1       -4 0.11068107E+00 0.99836615E+03</pdfrwt>
<totfact> 0.45694066E+01</totfact>
</mgrwt>
</event>
<event>
 6    2  0.2294477E-005  0.1082810E+04  0.7818608E-02  0.9561898E-01
         -4   -1    0    0    0  501 -0.00000000000E+00  0.00000000000E+00  0.49219896093E+03  0.49219896093E+03  0.00000000000E+00 0. -1.
         21   -1    0    0  501  502  0.00000000000E+00 -0.00000000000E+00 -0.10436939275E+04  0.10436939275E+04  0.00000000000E+00 0.  1.
   -9000010    2    1    2    0  502 -0.31870811044E+03  0.34212592589E+02 -0.28669009044E+03  0.11201201203E+04  0.10342787413E+04 0.  0.
         13    1    3    3    0    0 -0.96305102901E+02  0.52954172763E+03 -0.17329156017E+03  0.56543707885E+03  0.10566000000E+00 0. -1.
         -4    1    3    3    0  502 -0.22240300754E+03 -0.49532913504E+03 -0.11339853027E+03  0.55468304143E+03  0.00000000000E+00 0. -1.
        -13    1    1    2    0    0  0.31870811044E+03 -0.34212592589E+02 -0.26480487615E+03  0.41577276816E+03  0.10566000000E+00 0.  1.
<mgrwt>
<rscale>  1 0.79870165E+03</rscale>
<asrwt>0</asrwt>
<pdfrwt beam="2">  1       21 0.16056830E+00 0.10828102E+04</pdfrwt>
<pdfrwt beam="1">  1       -4 0.75722918E-01 0.10828102E+04</pdfrwt>
<totfact> 0.13772840E+01</totfact>
</mgrwt>
</event>
<event>
 6    2  0.2294477E-005  0.1078708E+04  0.7818608E-02  0.9507681E-01
         21   -1    0    0  501  502  0.00000000000E+00  0.00000000000E+00  0.27851463861E+04  0.27851463861E+04  0.00000000000E+00 0. -1.
         -4   -1    0    0    0  501 -0.00000000000E+00 -0.00000000000E+00 -0.19434672654E+03  0.19434672654E+03  0.00000000000E+00 0. -1.
   -9000010    2    1    2    0  502 -0.34441143654E+03 -0.18590899663E+03  0.18435685442E+04  0.21359673314E+04  0.10052015077E+04 0.  0.
         13    1    3    3    0    0 -0.61203585342E+02  0.36763892827E+03  0.32302585040E+03  0.49320378307E+03  0.10566000000E+00 0. -1.
         -4    1    3    3    0  502 -0.28320785120E+03 -0.55354792491E+03  0.15205426938E+04  0.16427635484E+04  0.00000000000E+00 0. -1.
        -13    1    1    2    0    0  0.34441143654E+03  0.18590899663E+03  0.74723111531E+03  0.84352578118E+03  0.10566000000E+00 0.  1.
<mgrwt>
<rscale>  1 0.83719920E+03</rscale>
<asrwt>0</asrwt>
<pdfrwt beam="1">  1       21 0.42848403E+00 0.10787082E+04</pdfrwt>
<pdfrwt beam="2">  1       -4 0.29899498E-01 0.10787082E+04</pdfrwt>
<totfact> 0.17065897E+00</totfact>
</mgrwt>
</event>
<event>
 6    2  0.2294477E-005  0.1147283E+04  0.7818608E-02  0.9774648E-01
         -4   -1    0    0    0  501 -0.00000000000E+00  0.00000000000E+00  0.37606363824E+03  0.37606363824E+03  0.00000000000E+00 0. -1.
         21   -1    0    0  501  502  0.00000000000E+00 -0.00000000000E+00 -0.13740611555E+04  0.13740611555E+04  0.00000000000E+00 0. -1.
   -9000010    2    1    2    0  502  0.77065511292E+02  0.10641396312E+03 -0.10956555855E+04  0.15864173289E+04  0.11397349494E+04 0.  0.
         13    1    3    3    0    0 -0.52402645106E+03  0.73273924452E+02 -0.64588841859E+03  0.83495188475E+03  0.10566000000E+00 0. -1.
         -4    1    3    3    0  502  0.60109196236E+03  0.33140038669E+02 -0.44976716686E+03  0.75146544415E+03  0.00000000000E+00 0. -1.
        -13    1    1    2    0    0 -0.77065511292E+02 -0.10641396312E+03  0.97658068229E+02  0.16370746480E+03  0.10566000000E+00 0.  1.
<mgrwt>
<rscale>  1 0.66740987E+03</rscale>
<asrwt>0</asrwt>
<pdfrwt beam="2">  1       21 0.21139402E+00 0.11472832E+04</pdfrwt>
<pdfrwt beam="1">  1       -4 0.57855944E-01 0.11472832E+04</pdfrwt>
<totfact> 0.10719463E+01</totfact>
</mgrwt>
</event>
<event>
 6    2  0.2294477E-005  0.1000384E+04  0.7818608E-02  0.9900934E-01
         -4   -1    0    0    0  501 -0.00000000000E+00  0.00000000000E+00  0.56701329034E+03  0.56701329034E+03  0.00000000000E+00 0. -1.
         21   -1    0    0  501  502  0.00000000000E+00 -0.00000000000E+00 -0.64734451019E+03  0.64734451019E+03  0.00000000000E+00 0. -1.
   -9000010    2    1    2    0  502  0.58828092650E+02  0.11741234839E+03 -0.21825186096E+03  0.10239148473E+04  0.99172644191E+03 0.  0.
         13    1    3    3    0    0 -0.25659408258E+03 -0.86594955619E+02  0.28681778323E+03  0.39446629956E+03  0.10566000000E+00 0. -1.
         -4    1    3    3    0  502  0.31542217523E+03  0.20400730401E+03 -0.50506964419E+03  0.62944854769E+03  0.00000000000E+00 0. -1.
        -13    1    1    2    0    0 -0.58828092650E+02 -0.11741234839E+03  0.13792064112E+03  0.19044295327E+03  0.10566000000E+00 0.  1.
<mgrwt>
<rscale>  1 0.60216061E+03</rscale>
<asrwt>0</asrwt>
<pdfrwt beam="2">  1       21 0.99591463E-01 0.10003838E+04</pdfrwt>
<pdfrwt beam="1">  1       -4 0.87232814E-01 0.10003838E+04</pdfrwt>
<totfact> 0.35516177E+01</totfact>
</mgrwt>
</event>
<event>
 6    2  0.2294477E-005  0.1015362E+04  0.7818608E-02  0.9846937E-01
         21   -1    0    0  501  502  0.00000000000E+00  0.00000000000E+00  0.88641341901E+03  0.88641341901E+03  0.00000000000E+00 0. -1.
         -4   -1    0    0    0  501 -0.00000000000E+00 -0.00000000000E+00 -0.39191058035E+03  0.39191058035E+03  0.00000000000E+00 0. -1.
   -9000010    2    1    2    0  502  0.14617652202E+03 -0.31659995543E+02  0.49307176666E+03  0.11287513079E+04  0.10042857248E+04 0.  0.
         13    1    3    3    0    0  0.48046114442E+03  0.24258201445E+03  0.10629994177E+03  0.54862431027E+03  0.10566000000E+00 0. -1.
         -4    1    3    3    0  502 -0.33428462240E+03 -0.27424201000E+03  0.38677182489E+03  0.58012699760E+03  0.00000000000E+00 0. -1.
        -13    1    1    2    0    0 -0.14617652202E+03  0.31659995543E+02  0.14310719893E+01  0.14957269149E+03  0.10566000000E+00 0.  1.
<mgrwt>
<rscale>  1 0.62903346E+03</rscale>
<asrwt>0</asrwt>
<pdfrwt beam="1">  1       21 0.13637129E+00 0.10153619E+04</pdfrwt>
<pdfrwt beam="2">  1       -4 0.60293936E-01 0.10153619E+04</pdfrwt>
<totfact> 0.36284219E+01</totfact>
</mgrwt>
</event>
<event>
 6    2  0.2294477E-005  0.1025836E+04  0.7818608E-02  0.9694611E-01
         21   -1    0    0  501  502  0.00000000000E+00  0.00000000000E+00  0.80715471816E+03  0.80715471816E+03  0.00000000000E+00 0. -1.
         -4   -1    0    0    0  501 -0.00000000000E+00 -0.00000000000E+00 -0.63072882385E+03  0.63072882385E+03  0.00000000000E+00 0. -1.
   -9000010    2    1    2    0  502 -0.17760913199E+03 -0.16129449842E+03  0.40841455469E+03  0.11041476154E+04  0.99738587776E+03 0.  0.
         13    1    3    3    0    0 -0.38971012531E+03  0.30218003657E+03  0.31720550622E+03  0.58634981079E+03  0.10566000000E+00 0. -1.
         -4    1    3    3    0  502  0.21210099332E+03 -0.46347453499E+03  0.91209048478E+02  0.51779780463E+03  0.00000000000E+00 0. -1.
        -13    1    1    2    0    0  0.17760913199E+03  0.16129449842E+03 -0.23198866039E+03  0.33373592659E+03  0.10566000000E+00 0.  1.
<mgrwt>
<rscale>  1 0.71338575E+03</rscale>
<asrwt>0</asrwt>
<pdfrwt beam="1">  1       21 0.12417765E+00 0.10258360E+04</pdfrwt>
<pdfrwt beam="2">  1       -4 0.97035203E-01 0.10258360E+04</pdfrwt>
<totfact> 0.15704955E+01</totfact>
</mgrwt>
</event>
<event>
 6    2  0.2294477E-005  0.1204400E+04  0.7818608E-02  0.9264850E-01
         -4   -1    0    0    0  501 -0.00000000000E+00  0.00000000000E+00  0.40108211244E+03  0.40108211244E+03  0.00000000000E+00 0. -1.
         21   -1    0    0  501  502  0.00000000000E+00 -0.00000000000E+00 -0.22290780636E+04  0.22290780636E+04  0.00000000000E+00 0.  1.
   -9000010    2    1    2    0  502  0.94251272141E+02  0.66513669972E+03 -0.13274632330E+04  0.17924113207E+04  0.99964472479E+03 0.  0.
         13    1    3    3    0    0  0.41505442456E+03  0.12549743517E+03 -0.98743631582E+03  0.10784480843E+04  0.10566000000E+00 0. -1.
         -4    1    3    3    0  502 -0.32080315242E+03  0.53963926455E+03 -0.34002691719E+03  0.71396323635E+03  0.00000000000E+00 0. -1.
        -13    1    1    2    0    0 -0.94251272141E+02 -0.66513669972E+03 -0.50053271819E+03  0.83774885542E+03  0.10566000000E+00 0.  1.
<mgrwt>
<rscale>  1 0.10408427E+04</rscale>
<asrwt>0</asrwt>
<pdfrwt beam="2">  1       21 0.34293509E+00 0.12044001E+04</pdfrwt>
<pdfrwt beam="1">  1       -4 0.61704941E-01 0.12044001E+04</pdfrwt>
<totfact> 0.13433735E+00</totfact>
</mgrwt>
</event>
<event>
 6    2  0.2294477E-005  0.1023755E+04  0.7818608E-02  0.9809683E-01
         -4   -1    0    0    0  501 -0.00000000000E+00  0.00000000000E+00  0.40490741291E+03  0.40490741291E+03  0.00000000000E+00 0. -1.
         21   -1    0    0  501  502  0.00000000000E+00 -0.00000000000E+00 -0.97300777002E+03  0.97300777002E+03  0.00000000000E+00 0. -1.
   -9000010    2    1    2    0  502 -0.15445102687E+03 -0.57451837196E+02 -0.62978531570E+03  0.12019581468E+04  0.10104048740E+04 0.  0.
         13    1    3    3    0    0 -0.11664216000E+03  0.46837657804E+03 -0.39994658282E+03  0.62684869994E+03  0.10566000000E+00 0. -1.
         -4    1    3    3    0  502 -0.37808866867E+02 -0.52582841523E+03 -0.22983873287E+03  0.57510944681E+03  0.00000000000E+00 0. -1.
        -13    1    1    2    0    0  0.15445102687E+03  0.57451837196E+02  0.61684958590E+02  0.17595703617E+03  0.10566000000E+00 0.  1.
<mgrwt>
<rscale>  1 0.64845504E+03</rscale>
<asrwt>0</asrwt>
<pdfrwt beam="2">  1       21 0.14969350E+00 0.10237548E+04</pdfrwt>
<pdfrwt beam="1">  1       -4 0.62293450E-01 0.10237548E+04</pdfrwt>
<totfact> 0.26135663E+01</totfact>
</mgrwt>
</event>
<event>
 6    2  0.2294477E-005  0.9192402E+03  0.7818608E-02  0.1004011E+00
         -4   -1    0    0    0  501 -0.00000000000E+00  0.00000000000E+00  0.20036677136E+03  0.20036677136E+03  0.00000000000E+00 0. -1.
         21   -1    0    0  501  502  0.00000000000E+00 -0.00000000000E+00 -0.13356195749E+04  0.13356195749E+04  0.00000000000E+00 0. -1.
   -9000010    2    1    2    0  502 -0.50736390890E+02 -0.96322979206E+02 -0.10629345932E+04  0.14052873318E+04  0.91277063808E+03 0.  0.
         13    1    3    3    0    0  0.15040436662E+03  0.70277059958E+02 -0.11247167673E+04  0.11369028791E+04  0.10566000000E+00 0. -1.
         -4    1    3    3    0  502 -0.20114075751E+03 -0.16660003916E+03  0.61782174145E+02  0.26838445265E+03  0.00000000000E+00 0. -1.
        -13    1    1    2    0    0  0.50736390890E+02  0.96322979206E+02 -0.72318210384E+02  0.13069901454E+03  0.10566000000E+00 0.  1.
<mgrwt>
<rscale>  1 0.53925866E+03</rscale>
<asrwt>0</asrwt>
<pdfrwt beam="2">  1       21 0.20547994E+00 0.91924019E+03</pdfrwt>
<pdfrwt beam="1">  1       -4 0.30825656E-01 0.91924019E+03</pdfrwt>
<totfact> 0.44177754E+01</totfact>
</mgrwt>
</event>
<event>
 6    2  0.2294477E-005  0.1041762E+04  0.7818608E-02  0.9601467E-01
         21   -1    0    0  501  502  0.00000000000E+00  0.00000000000E+00  0.13226176246E+04  0.13226176246E+04  0.00000000000E+00 0. -1.
         -4   -1    0    0    0  501 -0.00000000000E+00 -0.00000000000E+00 -0.36871579155E+03  0.36871579155E+03  0.00000000000E+00 0. -1.
   -9000010    2    1    2    0  502 -0.77458490368E+02 -0.30445688279E+03  0.89126838159E+03  0.13709948895E+04  0.99326423872E+03 0.  0.
         13    1    3    3    0    0  0.86469739510E+02 -0.63564985043E+03  0.71804231257E+03  0.96286682465E+03  0.10566000000E+00 0. -1.
         -4    1    3    3    0  502 -0.16392822988E+03  0.33119296764E+03  0.17322606901E+03  0.40812806489E+03  0.00000000000E+00 0. -1.
        -13    1    1    2    0    0  0.77458490368E+02  0.30445688279E+03  0.62633451428E+02  0.32033852658E+03  0.10566000000E+00 0.  1.
<mgrwt>
<rscale>  1 0.77199159E+03</rscale>
<asrwt>0</asrwt>
<pdfrwt beam="1">  1       21 0.20347963E+00 0.10417618E+04</pdfrwt>
<pdfrwt beam="2">  1       -4 0.56725507E-01 0.10417618E+04</pdfrwt>
<totfact> 0.12822646E+01</totfact>
</mgrwt>
</event>
<event>
 6    2  0.2294477E-005  0.1104478E+04  0.7818608E-02  0.9445559E-01
         21   -1    0    0  501  502  0.00000000000E+00  0.00000000000E+00  0.28671735245E+03  0.28671735245E+03  0.00000000000E+00 0.  1.
         -4   -1    0    0    0  501 -0.00000000000E+00 -0.00000000000E+00 -0.22944003968E+04  0.22944003968E+04  0.00000000000E+00 0. -1.
   -9000010    2    1    2    0  502  0.34907705132E+03  0.28972541734E+03 -0.17195434696E+04  0.20436979591E+04  0.10070134055E+04 0.  0.
         13    1    3    3    0    0  0.55170449119E+03 -0.17989034344E+03 -0.10670738035E+04  0.12146542284E+04  0.10566000000E+00 0. -1.
         -4    1    3    3    0  502 -0.20262743986E+03  0.46961576079E+03 -0.65246966607E+03  0.82904373063E+03  0.00000000000E+00 0. -1.
        -13    1    1    2    0    0 -0.34907705132E+03 -0.28972541734E+03 -0.28813957476E+03  0.53741979023E+03  0.10566000000E+00 0.  1.
<mgrwt>
<rscale>  1 0.88419360E+03</rscale>
<asrwt>0</asrwt>
<pdfrwt beam="1">  1       21 0.44110361E-01 0.11044780E+04</pdfrwt>
<pdfrwt beam="2">  1       -4 0.35298468E+00 0.11044780E+04</pdfrwt>
<totfact> 0.27846842E+00</totfact>
</mgrwt>
</event>
<event>
 6    2  0.2294477E-005  0.1316861E+04  0.7818608E-02  0.9130146E-01
         21   -1    0    0  501  502  0.00000000000E+00  0.00000000000E+00  0.51947475229E+03  0.51947475229E+03  0.00000000000E+00 0.  1.
         -4   -1    0    0    0  501 -0.00000000000E+00 -0.00000000000E+00 -0.26027343893E+04  0.26027343893E+04  0.00000000000E+00 0. -1.
   -9000010    2    1    2    0  502  0.28369288093E+03  0.80156537984E+03 -0.68158545739E+03  0.14827948481E+04  0.10055511508E+04 0.  0.
         13    1    3    3    0    0  0.65446184572E+03  0.54233733283E+03 -0.54709905895E+03  0.10108251489E+04  0.10566000000E+00 0. -1.
         -4    1    3    3    0  502 -0.37076896479E+03  0.25922804701E+03 -0.13448639843E+03  0.47196969921E+03  0.00000000000E+00 0. -1.
        -13    1    1    2    0    0 -0.28369288093E+03 -0.80156537984E+03 -0.14016741796E+04  0.16394142935E+04  0.10566000000E+00 0.  1.
<mgrwt>
<rscale>  1 0.11804465E+04</rscale>
<asrwt>0</asrwt>
<pdfrwt beam="1">  1       21 0.79919194E-01 0.13168606E+04</pdfrwt>
<pdfrwt beam="2">  1       -4 0.40042067E+00 0.13168606E+04</pdfrwt>
<totfact> 0.34244487E-01</totfact>
</mgrwt>
</event>
<event>
 6    2  0.2294477E-005  0.1157383E+04  0.7818608E-02  0.9334047E-01
         21   -1    0    0  501  502  0.00000000000E+00  0.00000000000E+00  0.97042764355E+03  0.97042764355E+03  0.00000000000E+00 0. -1.
         -4   -1    0    0    0  501 -0.00000000000E+00 -0.00000000000E+00 -0.10633433061E+04  0.10633433061E+04  0.00000000000E+00 0. -1.
   -9000010    2    1    2    0  502  0.56739296894E+03  0.15384201714E+03  0.44204042512E+03  0.12389249430E+04  0.99696194986E+03 0.  0.
         13    1    3    3    0    0  0.35684470787E+03  0.19916387578E+03  0.75530238633E+03  0.85877010946E+03  0.10566000000E+00 0. -1.
         -4    1    3    3    0  502  0.21054826107E+03 -0.45321858639E+02 -0.31326196121E+03  0.38015483352E+03  0.00000000000E+00 0. -1.
        -13    1    1    2    0    0 -0.56739296894E+03 -0.15384201714E+03 -0.53495608770E+03  0.79484600670E+03  0.10566000000E+00 0.  1.
<mgrwt>
<rscale>  1 0.97707942E+03</rscale>
<asrwt>0</asrwt>
<pdfrwt beam="1">  1       21 0.14929656E+00 0.11573829E+04</pdfrwt>
<pdfrwt beam="2">  1       -4 0.16359128E+00 0.11573829E+04</pdfrwt>
<totfact> 0.24614107E+00</totfact>
</mgrwt>
</event>
<event>
 6    2  0.2294477E-005  0.9967638E+03  0.7818608E-02  0.1043156E+00
         -4   -1    0    0    0  501 -0.00000000000E+00  0.00000000000E+00  0.35648786977E+03  0.35648786977E+03  0.00000000000E+00 0. -1.
         21   -1    0    0  501  502  0.00000000000E+00 -0.00000000000E+00 -0.75997310196E+03  0.75997310196E+03  0.00000000000E+00 0. -1.
   -9000010    2    1    2    0  502  0.21954026103E+01  0.26228102862E+02 -0.42389462753E+03  0.10831550000E+04  0.99641626119E+03 0.  0.
         13    1    3    3    0    0 -0.12341218106E+03  0.45585420244E+03 -0.42529918652E+03  0.63554152464E+03  0.10566000000E+00 0. -1.
         -4    1    3    3    0  502  0.12560758367E+03 -0.42962609958E+03  0.14045589976E+01  0.44761347534E+03  0.00000000000E+00 0. -1.
        -13    1    1    2    0    0 -0.21954026103E+01 -0.26228102862E+02  0.20409395332E+02  0.33305971750E+02  0.10566000000E+00 0.  1.
<mgrwt>
<rscale>  1 0.40180545E+03</rscale>
<asrwt>0</asrwt>
<pdfrwt beam="2">  1       21 0.11691894E+00 0.99676381E+03</pdfrwt>
<pdfrwt beam="1">  1       -4 0.54844288E-01 0.99676381E+03</pdfrwt>
<totfact> 0.66912135E+01</totfact>
</mgrwt>
</event>
<event>
 6    2  0.2294477E-005  0.1001030E+04  0.7818608E-02  0.9844621E-01
         -4   -1    0    0    0  501 -0.00000000000E+00  0.00000000000E+00  0.13390410682E+03  0.13390410682E+03  0.00000000000E+00 0. -1.
         21   -1    0    0  501  502  0.00000000000E+00 -0.00000000000E+00 -0.25051021708E+04  0.25051021708E+04  0.00000000000E+00 0. -1.
   -9000010    2    1    2    0  502 -0.15257979891E+03 -0.38090928148E+02 -0.20581217017E+04  0.22886516949E+04  0.98860008487E+03 0.  0.
         13    1    3    3    0    0  0.21297723794E+03 -0.32131570586E+03 -0.15684729698E+04  0.16151503196E+04  0.10566000000E+00 0. -1.
         -4    1    3    3    0  502 -0.36555703685E+03  0.28322477772E+03 -0.48964873187E+03  0.67350137530E+03  0.00000000000E+00 0. -1.
        -13    1    1    2    0    0  0.15257979891E+03  0.38090928148E+02 -0.31307636231E+03  0.35035458274E+03  0.10566000000E+00 0.  1.
<mgrwt>
<rscale>  1 0.63021941E+03</rscale>
<asrwt>0</asrwt>
<pdfrwt beam="2">  1       21 0.38540035E+00 0.10010303E+04</pdfrwt>
<pdfrwt beam="1">  1       -4 0.20600631E-01 0.10010303E+04</pdfrwt>
<totfact> 0.68078335E+00</totfact>
</mgrwt>
</event>
<event>
 6    2  0.2294477E-005  0.1316517E+04  0.7818608E-02  0.9148077E-01
         21   -1    0    0  501  502  0.00000000000E+00  0.00000000000E+00  0.81783729637E+03  0.81783729637E+03  0.00000000000E+00 0.  1.
         -4   -1    0    0    0  501 -0.00000000000E+00 -0.00000000000E+00 -0.13632731497E+04  0.13632731497E+04  0.00000000000E+00 0. -1.
   -9000010    2    1    2    0  502  0.54085098506E+03 -0.58280915397E+03 -0.35428015525E+03  0.13633532633E+04  0.10493004308E+04 0.  0.
         13    1    3    3    0    0  0.60306952970E+02  0.30084949780E+03 -0.39426693991E+02  0.30935711446E+03  0.10566000000E+00 0. -1.
         -4    1    3    3    0  502  0.48054403209E+03 -0.88365865176E+03 -0.31485346126E+03  0.10539961488E+04  0.00000000000E+00 0. -1.
        -13    1    1    2    0    0 -0.54085098506E+03  0.58280915397E+03 -0.19115569808E+03  0.81775718282E+03  0.10566000000E+00 0.  1.
<mgrwt>
<rscale>  1 0.11605814E+04</rscale>
<asrwt>0</asrwt>
<pdfrwt beam="1">  1       21 0.12582112E+00 0.13165173E+04</pdfrwt>
<pdfrwt beam="2">  1       -4 0.20973433E+00 0.13165173E+04</pdfrwt>
<totfact> 0.18455339E+00</totfact>
</mgrwt>
</event>
<event>
 6    2  0.2294477E-005  0.1069607E+04  0.7818608E-02  0.9611107E-01
         -4   -1    0    0    0  501 -0.00000000000E+00  0.00000000000E+00  0.15041059543E+04  0.15041059543E+04  0.00000000000E+00 0. -1.
         21   -1    0    0  501  502  0.00000000000E+00 -0.00000000000E+00 -0.81894953059E+03  0.81894953059E+03  0.00000000000E+00 0. -1.
   -9000010    2    1    2    0  502 -0.26177500475E+03 -0.10170561237E+03 -0.44503290013E+03  0.11584962964E+04  0.10320800365E+04 0.  0.
         13    1    3    3    0    0  0.21416106814E+03  0.24171498190E+03 -0.47093243980E+03  0.57102405344E+03  0.10566000000E+00 0. -1.
         -4    1    3    3    0  502 -0.47593607289E+03 -0.34342059427E+03  0.25899539671E+02  0.58747224292E+03  0.00000000000E+00 0. -1.
        -13    1    1    2    0    0  0.26177500475E+03  0.10170561237E+03  0.11301893238E+04  0.11645591885E+04  0.10566000000E+00 0.  1.
<mgrwt>
<rscale>  1 0.76565360E+03</rscale>
<asrwt>0</asrwt>
<pdfrwt beam="2">  1       21 0.12599224E+00 0.10696071E+04</pdfrwt>
<pdfrwt beam="1">  1       -4 0.23140092E+00 0.10696071E+04</pdfrwt>
<totfact> 0.13802316E+00</totfact>
</mgrwt>
</event>
<event>
 6    2  0.2294477E-005  0.1057434E+04  0.7818608E-02  0.9572070E-01
         -4   -1    0    0    0  501 -0.00000000000E+00  0.00000000000E+00  0.76771627132E+03  0.76771627132E+03  0.00000000000E+00 0. -1.
         21   -1    0    0  501  502  0.00000000000E+00 -0.00000000000E+00 -0.70542852266E+03  0.70542852266E+03  0.00000000000E+00 0. -1.
   -9000010    2    1    2    0  502  0.27515940047E+03 -0.18632257791E+03 -0.16543524764E+03  0.10702967173E+04  0.10038612669E+04 0.  0.
         13    1    3    3    0    0  0.57370558826E+03  0.15691725181E+03 -0.29494464068E+02  0.59550907675E+03  0.10566000000E+00 0. -1.
         -4    1    3    3    0  502 -0.29854618779E+03 -0.34323982972E+03 -0.13594078357E+03  0.47478764051E+03  0.00000000000E+00 0. -1.
        -13    1    1    2    0    0 -0.27515940047E+03  0.18632257791E+03  0.22772299630E+03  0.40284807671E+03  0.10566000000E+00 0.  1.
<mgrwt>
<rscale>  1 0.79172652E+03</rscale>
<asrwt>0</asrwt>
<pdfrwt beam="2">  1       21 0.10852747E+00 0.10574338E+04</pdfrwt>
<pdfrwt beam="1">  1       -4 0.11811020E+00 0.10574338E+04</pdfrwt>
<totfact> 0.13680503E+01</totfact>
</mgrwt>
</event>
<event>
 6    2  0.2294477E-005  0.1033165E+04  0.7818608E-02  0.9697422E-01
         -4   -1    0    0    0  501 -0.00000000000E+00  0.00000000000E+00  0.60532090084E+03  0.60532090084E+03  0.00000000000E+00 0. -1.
         21   -1    0    0  501  502  0.00000000000E+00 -0.00000000000E+00 -0.69581889849E+03  0.69581889849E+03  0.00000000000E+00 0. -1.
   -9000010    2    1    2    0  502 -0.19064345715E+03  0.13333458123E+03 -0.18578965695E+03  0.10497366375E+04  0.10066311008E+04 0.  0.
         13    1    3    3    0    0  0.29683772597E+03  0.17343248709E+03 -0.38982037203E+03  0.51976090344E+03  0.10566000000E+00 0. -1.
         -4    1    3    3    0  502 -0.48748118311E+03 -0.40097905857E+02  0.20403071508E+03  0.52997573401E+03  0.00000000000E+00 0. -1.
        -13    1    1    2    0    0  0.19064345715E+03 -0.13333458123E+03  0.95291659293E+02  0.25140316187E+03  0.10566000000E+00 0.  1.
<mgrwt>
<rscale>  1 0.71170487E+03</rscale>
<asrwt>0</asrwt>
<pdfrwt beam="2">  1       21 0.10704906E+00 0.10331647E+04</pdfrwt>
<pdfrwt beam="1">  1       -4 0.93126292E-01 0.10331647E+04</pdfrwt>
<totfact> 0.25337768E+01</totfact>
</mgrwt>
</event>
<event>
 6    2  0.2294477E-005  0.1050155E+04  0.7818608E-02  0.9590535E-01
         -4   -1    0    0    0  501 -0.00000000000E+00  0.00000000000E+00  0.53624388263E+03  0.53624388263E+03  0.00000000000E+00 0. -1.
         21   -1    0    0  501  502  0.00000000000E+00 -0.00000000000E+00 -0.11178557808E+04  0.11178557808E+04  0.00000000000E+00 0. -1.
   -9000010    2    1    2    0  502 -0.17430964569E+03  0.26644128609E+03 -0.75327158056E+03  0.12923789573E+04  0.10007249791E+04 0.  0.
         13    1    3    3    0    0 -0.37293523983E+03  0.51646460246E+03 -0.22596862106E+03  0.67592766446E+03  0.10566000000E+00 0. -1.
         -4    1    3    3    0  502  0.19862559414E+03 -0.25002331637E+03 -0.52730295949E+03  0.61645129286E+03  0.00000000000E+00 0. -1.
        -13    1    1    2    0    0  0.17430964569E+03 -0.26644128609E+03  0.17165968238E+03  0.36172070612E+03  0.10566000000E+00 0.  1.
<mgrwt>
<rscale>  1 0.77925802E+03</rscale>
<asrwt>0</asrwt>
<pdfrwt beam="2">  1       21 0.17197781E+00 0.10501549E+04</pdfrwt>
<pdfrwt beam="1">  1       -4 0.82499059E-01 0.10501549E+04</pdfrwt>
<totfact> 0.93012337E+00</totfact>
</mgrwt>
</event>
<event>
 6    2  0.2294477E-005  0.1525245E+04  0.7818608E-02  0.8939830E-01
         21   -1    0    0  501  502  0.00000000000E+00  0.00000000000E+00  0.17777040509E+04  0.17777040509E+04  0.00000000000E+00 0.  1.
         -4   -1    0    0    0  501 -0.00000000000E+00 -0.00000000000E+00 -0.11304062412E+04  0.11304062412E+04  0.00000000000E+00 0. -1.
   -9000010    2    1    2    0  502  0.98996438871E+03  0.57377099499E+03  0.84995578706E+03  0.17460806399E+04  0.10085286885E+04 0.  0.
         13    1    3    3    0    0  0.11556919672E+04  0.52415697235E+03  0.51584468695E+03  0.13698394822E+04  0.10566000000E+00 0. -1.
         -4    1    3    3    0  502 -0.16572757853E+03  0.49614022641E+02  0.33411110011E+03  0.37624115769E+03  0.00000000000E+00 0. -1.
        -13    1    1    2    0    0 -0.98996438871E+03 -0.57377099499E+03 -0.20265797737E+03  0.11620296522E+04  0.10566000000E+00 0.  1.
<mgrwt>
<rscale>  1 0.14194897E+04</rscale>
<asrwt>0</asrwt>
<pdfrwt beam="1">  1       21 0.27349293E+00 0.15252451E+04</pdfrwt>
<pdfrwt beam="2">  1       -4 0.17390865E+00 0.15252451E+04</pdfrwt>
<totfact> 0.27118593E-01</totfact>
</mgrwt>
</event>
<event>
 6    2  0.2294477E-005  0.9861068E+03  0.7818608E-02  0.9809114E-01
         -4   -1    0    0    0  501 -0.00000000000E+00  0.00000000000E+00  0.14716112270E+04  0.14716112270E+04  0.00000000000E+00 0. -1.
         21   -1    0    0  501  502  0.00000000000E+00 -0.00000000000E+00 -0.45139286203E+03  0.45139286203E+03  0.00000000000E+00 0. -1.
   -9000010    2    1    2    0  502 -0.18019021345E+03  0.40740154610E+02  0.10769685591E+03  0.99197036844E+03  0.96864767891E+03 0.  0.
         13    1    3    3    0    0 -0.35533257906E+03 -0.30567606080E+03  0.30229816282E+03  0.55774840770E+03  0.10566000000E+00 0. -1.
         -4    1    3    3    0  502  0.17514236561E+03  0.34641621541E+03 -0.19460130691E+03  0.43422196073E+03  0.00000000000E+00 0. -1.
        -13    1    1    2    0    0  0.18019021345E+03 -0.40740154610E+02  0.91252150902E+03  0.93103372055E+03  0.10566000000E+00 0.  1.
<mgrwt>
<rscale>  1 0.64875732E+03</rscale>
<asrwt>0</asrwt>
<pdfrwt beam="2">  1       21 0.69445056E-01 0.98610679E+03</pdfrwt>
<pdfrwt beam="1">  1       -4 0.22640173E+00 0.98610679E+03</pdfrwt>
<totfact> 0.64467968E+00</totfact>
</mgrwt>
</event>
<event>
 6    2  0.2294477E-005  0.1019969E+04  0.7818608E-02  0.9800035E-01
         -4   -1    0    0    0  501 -0.00000000000E+00  0.00000000000E+00  0.10367722880E+04  0.10367722880E+04  0.00000000000E+00 0. -1.
         21   -1    0    0  501  502  0.00000000000E+00 -0.00000000000E+00 -0.49118273633E+03  0.49118273633E+03  0.00000000000E+00 0. -1.
   -9000010    2    1    2    0  502  0.11257634373E+03 -0.13002815828E+03  0.70167722871E+02  0.10223794300E+04  0.10053633345E+04 0.  0.
         13    1    3    3    0    0  0.32272158377E+03  0.13301305707E+03 -0.34301994707E+03  0.48939185653E+03  0.10566000000E+00 0. -1.
         -4    1    3    3    0  502 -0.21014524004E+03 -0.26304121536E+03  0.41318766994E+03  0.53298757348E+03  0.00000000000E+00 0. -1.
        -13    1    1    2    0    0 -0.11257634373E+03  0.13002815828E+03  0.47542182876E+03  0.50557559429E+03  0.10566000000E+00 0.  1.
<mgrwt>
<rscale>  1 0.65360643E+03</rscale>
<asrwt>0</asrwt>
<pdfrwt beam="2">  1       21 0.75566575E-01 0.10199687E+04</pdfrwt>
<pdfrwt beam="1">  1       -4 0.15950343E+00 0.10199687E+04</pdfrwt>
<totfact> 0.15034707E+01</totfact>
</mgrwt>
</event>
<event>
 6    2  0.2294477E-005  0.1077793E+04  0.7818608E-02  0.9508642E-01
         -4   -1    0    0    0  501 -0.00000000000E+00  0.00000000000E+00  0.24295214632E+03  0.24295214632E+03  0.00000000000E+00 0. -1.
         21   -1    0    0  501  502  0.00000000000E+00 -0.00000000000E+00 -0.22259372973E+04  0.22259372973E+04  0.00000000000E+00 0. -1.
   -9000010    2    1    2    0  502  0.38765911754E+02  0.38914076703E+03 -0.13981135577E+04  0.17653213060E+04  0.10043428004E+04 0.  0.
         13    1    3    3    0    0 -0.14961864227E+03  0.69462710124E+03 -0.10289301927E+04  0.12504358842E+04  0.10566000000E+00 0. -1.
         -4    1    3    3    0  502  0.18838455402E+03 -0.30548633421E+03 -0.36918336501E+03  0.51488542180E+03  0.00000000000E+00 0. -1.
        -13    1    1    2    0    0 -0.38765911754E+02 -0.38914076703E+03 -0.58487159324E+03  0.70356813759E+03  0.10566000000E+00 0.  1.
<mgrwt>
<rscale>  1 0.83649693E+03</rscale>
<asrwt>0</asrwt>
<pdfrwt beam="2">  1       21 0.34245188E+00 0.10777930E+04</pdfrwt>
<pdfrwt beam="1">  1       -4 0.37377254E-01 0.10777930E+04</pdfrwt>
<totfact> 0.39705814E+00</totfact>
</mgrwt>
</event>
<event>
 6    2  0.2294477E-005  0.1017867E+04  0.7818608E-02  0.9766048E-01
         -4   -1    0    0    0  501 -0.00000000000E+00  0.00000000000E+00  0.77636855893E+03  0.77636855893E+03  0.00000000000E+00 0. -1.
         21   -1    0    0  501  502  0.00000000000E+00 -0.00000000000E+00 -0.52941539869E+03  0.52941539869E+03  0.00000000000E+00 0. -1.
   -9000010    2    1    2    0  502  0.12429039270E+03 -0.14839704901E+03  0.34613904648E+02  0.10184553017E+04  0.99929139561E+03 0.  0.
         13    1    3    3    0    0  0.46110938080E+03  0.20102074923E+03 -0.10413290583E+03  0.51368752751E+03  0.10566000000E+00 0. -1.
         -4    1    3    3    0  502 -0.33681898809E+03 -0.34941779824E+03  0.13874681047E+03  0.50476777421E+03  0.00000000000E+00 0. -1.
        -13    1    1    2    0    0 -0.12429039270E+03  0.14839704901E+03  0.21233925560E+03  0.28732865590E+03  0.10566000000E+00 0.  1.
<mgrwt>
<rscale>  1 0.67216891E+03</rscale>
<asrwt>0</asrwt>
<pdfrwt beam="2">  1       21 0.81448522E-01 0.10178669E+04</pdfrwt>
<pdfrwt beam="1">  1       -4 0.11944132E+00 0.10178669E+04</pdfrwt>
<totfact> 0.26931352E+01</totfact>
</mgrwt>
</event>
<event>
 6    2  0.2294477E-005  0.1003723E+04  0.7818608E-02  0.9821242E-01
         21   -1    0    0  501  502  0.00000000000E+00  0.00000000000E+00  0.41211446880E+03  0.41211446880E+03  0.00000000000E+00 0. -1.
         -4   -1    0    0    0  501 -0.00000000000E+00 -0.00000000000E+00 -0.12024659743E+04  0.12024659743E+04  0.00000000000E+00 0. -1.
   -9000010    2    1    2    0  502 -0.32333742297E+02 -0.16522747443E+03 -0.23034792394E+03  0.10298158651E+04  0.98950238034E+03 0.  0.
         13    1    3    3    0    0  0.42882983830E+03  0.11641997428E+03 -0.20363009401E+03  0.48878816166E+03  0.10566000000E+00 0. -1.
         -4    1    3    3    0  502 -0.46116358059E+03 -0.28164744871E+03 -0.26717829931E+02  0.54102770342E+03  0.00000000000E+00 0. -1.
        -13    1    1    2    0    0  0.32333742297E+02  0.16522747443E+03 -0.56000358159E+03  0.58476457806E+03  0.10566000000E+00 0.  1.
<mgrwt>
<rscale>  1 0.64234926E+03</rscale>
<asrwt>0</asrwt>
<pdfrwt beam="1">  1       21 0.63402226E-01 0.10037233E+04</pdfrwt>
<pdfrwt beam="2">  1       -4 0.18499476E+00 0.10037233E+04</pdfrwt>
<totfact> 0.14780624E+01</totfact>
</mgrwt>
</event>
<event>
 6    2  0.2294477E-005  0.1019017E+04  0.7818608E-02  0.9762122E-01
         21   -1    0    0  501  502  0.00000000000E+00  0.00000000000E+00  0.96056109733E+03  0.96056109733E+03  0.00000000000E+00 0. -1.
         -4   -1    0    0    0  501 -0.00000000000E+00 -0.00000000000E+00 -0.46159801677E+03  0.46159801677E+03  0.00000000000E+00 0. -1.
   -9000010    2    1    2    0  502 -0.13842652499E+03 -0.13796477571E+03  0.61948927535E+03  0.11925447484E+04  0.10000999112E+04 0.  0.
         13    1    3    3    0    0 -0.52665590389E+02  0.43335725026E+03  0.32397374780E+03  0.54362778736E+03  0.10566000000E+00 0. -1.
         -4    1    3    3    0  502 -0.85760934599E+02 -0.57132202597E+03  0.29551552755E+03  0.64891696101E+03  0.00000000000E+00 0. -1.
        -13    1    1    2    0    0  0.13842652499E+03  0.13796477571E+03 -0.12052619479E+03  0.22961436573E+03  0.10566000000E+00 0.  1.
<mgrwt>
<rscale>  1 0.67435509E+03</rscale>
<asrwt>0</asrwt>
<pdfrwt beam="1">  1       21 0.14777863E+00 0.10190172E+04</pdfrwt>
<pdfrwt beam="2">  1       -4 0.71015080E-01 0.10190172E+04</pdfrwt>
<totfact> 0.20262459E+01</totfact>
</mgrwt>
</event>
<event>
 6    2  0.2294477E-005  0.9690103E+03  0.7818608E-02  0.9602192E-01
         -4   -1    0    0    0  501 -0.00000000000E+00  0.00000000000E+00  0.49252169243E+03  0.49252169243E+03  0.00000000000E+00 0. -1.
         21   -1    0    0  501  502  0.00000000000E+00 -0.00000000000E+00 -0.97194841178E+03  0.97194841178E+03  0.00000000000E+00 0. -1.
   -9000010    2    1    2    0  502 -0.27930033001E+03  0.27132478853E+03 -0.46501589265E+03  0.10748119228E+04  0.88733030707E+03 0.  0.
         13    1    3    3    0    0 -0.27517470755E+03  0.16932039428E+03  0.21440582917E+03  0.38776331227E+03  0.10566000000E+00 0. -1.
         -4    1    3    3    0  502 -0.41256224585E+01  0.10200439425E+03 -0.67942172182E+03  0.68704861057E+03  0.00000000000E+00 0. -1.
        -13    1    1    2    0    0  0.27930033001E+03 -0.27132478853E+03 -0.14410826702E+02  0.38965818136E+03  0.10566000000E+00 0.  1.
<mgrwt>
<rscale>  1 0.77151243E+03</rscale>
<asrwt>0</asrwt>
<pdfrwt beam="2">  1       21 0.14953052E+00 0.96901026E+03</pdfrwt>
<pdfrwt beam="1">  1       -4 0.75772568E-01 0.96901026E+03</pdfrwt>
<totfact> 0.17032544E+01</totfact>
</mgrwt>
</event>
<event>
 6    2  0.2294477E-005  0.1059835E+04  0.7818608E-02  0.9567624E-01
         -4   -1    0    0    0  501 -0.00000000000E+00  0.00000000000E+00  0.86634042254E+03  0.86634042254E+03  0.00000000000E+00 0. -1.
         21   -1    0    0  501  502  0.00000000000E+00 -0.00000000000E+00 -0.62490028372E+03  0.62490028372E+03  0.00000000000E+00 0. -1.
   -9000010    2    1    2    0  502  0.16269123514E+03 -0.29301713356E+03 -0.29536470666E+02  0.10602467242E+04  0.10054467835E+04 0.  0.
         13    1    3    3    0    0 -0.29349025029E+02 -0.65199440149E+03 -0.12534205447E+02  0.65277498597E+03  0.10566000000E+00 0. -1.
         -4    1    3    3    0  502  0.19204026016E+03  0.35897726792E+03 -0.17002265219E+02  0.40747173820E+03  0.00000000000E+00 0. -1.
        -13    1    1    2    0    0 -0.16269123514E+03  0.29301713356E+03  0.27097660949E+03  0.43099398210E+03  0.10566000000E+00 0.  1.
<mgrwt>
<rscale>  1 0.79476644E+03</rscale>
<asrwt>0</asrwt>
<pdfrwt beam="2">  1       21 0.96138505E-01 0.10598352E+04</pdfrwt>
<pdfrwt beam="1">  1       -4 0.13328314E+00 0.10598352E+04</pdfrwt>
<totfact> 0.13600068E+01</totfact>
</mgrwt>
</event>
<event>
 6    2  0.2294477E-005  0.1039438E+04  0.7818608E-02  0.9895075E-01
         21   -1    0    0  501  502  0.00000000000E+00  0.00000000000E+00  0.81691644100E+03  0.81691644100E+03  0.00000000000E+00 0. -1.
         -4   -1    0    0    0  501 -0.00000000000E+00 -0.00000000000E+00 -0.68675137462E+03  0.68675137462E+03  0.00000000000E+00 0. -1.
   -9000010    2    1    2    0  502 -0.11096402715E+03 -0.43813122264E+02  0.47202091909E+03  0.11415931822E+04  0.10325689519E+04 0.  0.
         13    1    3    3    0    0 -0.13102524717E+03 -0.50097807899E+03  0.51972115477E+02  0.52043036323E+03  0.10566000000E+00 0. -1.
         -4    1    3    3    0  502  0.20061220021E+02  0.45716495672E+03  0.42004880361E+03  0.62116281893E+03  0.00000000000E+00 0. -1.
        -13    1    1    2    0    0  0.11096402715E+03  0.43813122264E+02 -0.34185585270E+03  0.36207463346E+03  0.10566000000E+00 0.  1.
<mgrwt>
<rscale>  1 0.60500577E+03</rscale>
<asrwt>0</asrwt>
<pdfrwt beam="1">  1       21 0.12567945E+00 0.10394379E+04</pdfrwt>
<pdfrwt beam="2">  1       -4 0.10565406E+00 0.10394379E+04</pdfrwt>
<totfact> 0.12364059E+01</totfact>
</mgrwt>
</event>
<event>
 6    2  0.2294477E-005  0.9938283E+03  0.7818608E-02  0.1007238E+00
         21   -1    0    0  501  502  0.00000000000E+00  0.00000000000E+00  0.13665141410E+04  0.13665141410E+04  0.00000000000E+00 0. -1.
         -4   -1    0    0    0  501 -0.00000000000E+00 -0.00000000000E+00 -0.24520555698E+03  0.24520555698E+03  0.00000000000E+00 0. -1.
   -9000010    2    1    2    0  502  0.39745740213E+02 -0.67007647920E+02  0.11576696235E+04  0.15257436251E+04  0.99076985410E+03 0.  0.
         13    1    3    3    0    0 -0.29882065071E+01 -0.38634402749E+03  0.11393110500E+04  0.12030379531E+04  0.10566000000E+00 0. -1.
         -4    1    3    3    0  502  0.42733946720E+02  0.31933637957E+03  0.18358573516E+02  0.32270567200E+03  0.00000000000E+00 0. -1.
        -13    1    1    2    0    0 -0.39745740213E+02  0.67007647920E+02 -0.36361039462E+02  0.85976072832E+02  0.10566000000E+00 0.  1.
<mgrwt>
<rscale>  1 0.52587189E+03</rscale>
<asrwt>0</asrwt>
<pdfrwt beam="1">  1       21 0.21023294E+00 0.99382828E+03</pdfrwt>
<pdfrwt beam="2">  1       -4 0.37723933E-01 0.99382828E+03</pdfrwt>
<totfact> 0.27198632E+01</totfact>
</mgrwt>
</event>
<event>
 6    2  0.2294477E-005  0.1163429E+04  0.7818608E-02  0.9362745E-01
         21   -1    0    0  501  502  0.00000000000E+00  0.00000000000E+00  0.36961261682E+04  0.36961261682E+04  0.00000000000E+00 0. -1.
         -4   -1    0    0    0  501 -0.00000000000E+00 -0.00000000000E+00 -0.19822722671E+03  0.19822722671E+03  0.00000000000E+00 0. -1.
   -9000010    2    1    2    0  502  0.49788693948E+03  0.15589143512E+03  0.27123057193E+04  0.29512997029E+04  0.10398913777E+04 0.  0.
         13    1    3    3    0    0  0.10854812206E+03 -0.20762584034E+03  0.21993858641E+04  0.22118294181E+04  0.10566000000E+00 0. -1.
         -4    1    3    3    0  502  0.38933881742E+03  0.36351727545E+03  0.51291985524E+03  0.73947028487E+03  0.00000000000E+00 0. -1.
        -13    1    1    2    0    0 -0.49788693948E+03 -0.15589143512E+03  0.78559322218E+03  0.94305369198E+03  0.10566000000E+00 0.  1.
<mgrwt>
<rscale>  1 0.95206087E+03</rscale>
<asrwt>0</asrwt>
<pdfrwt beam="1">  1       21 0.56863475E+00 0.11634293E+04</pdfrwt>
<pdfrwt beam="2">  1       -4 0.30496499E-01 0.11634293E+04</pdfrwt>
<totfact> 0.15846399E-01</totfact>
</mgrwt>
</event>
<event>
 6    2  0.2294477E-005  0.1228120E+04  0.7818608E-02  0.9235553E-01
         21   -1    0    0  501  502  0.00000000000E+00  0.00000000000E+00  0.11733894852E+04  0.11733894852E+04  0.00000000000E+00 0. -1.
         -4   -1    0    0    0  501 -0.00000000000E+00 -0.00000000000E+00 -0.10775411137E+04  0.10775411137E+04  0.00000000000E+00 0. -1.
   -9000010    2    1    2    0  502 -0.70227330411E+03 -0.72668141491E+02  0.61603932149E+03  0.13739658973E+04  0.10048927250E+04 0.  0.
         13    1    3    3    0    0 -0.59200648876E+03 -0.50527023685E+03  0.34203685535E+03  0.85015229022E+03  0.10566000000E+00 0. -1.
         -4    1    3    3    0  502 -0.11026681535E+03  0.43260209536E+03  0.27400246613E+03  0.52381360704E+03  0.00000000000E+00 0. -1.
        -13    1    1    2    0    0  0.70227330411E+03  0.72668141491E+02 -0.52019094995E+03  0.87696470170E+03  0.10566000000E+00 0.  1.
<mgrwt>
<rscale>  1 0.10693878E+04</rscale>
<asrwt>0</asrwt>
<pdfrwt beam="1">  1       21 0.18052146E+00 0.12281196E+04</pdfrwt>
<pdfrwt beam="2">  1       -4 0.16577555E+00 0.12281196E+04</pdfrwt>
<totfact> 0.13530003E+00</totfact>
</mgrwt>
</event>
<event>
 6    2  0.2294477E-005  0.9942428E+03  0.7818608E-02  0.9974785E-01
         21   -1    0    0  501  502  0.00000000000E+00  0.00000000000E+00  0.31118691604E+03  0.31118691604E+03  0.00000000000E+00 0. -1.
         -4   -1    0    0    0  501 -0.00000000000E+00 -0.00000000000E+00 -0.98978936714E+03  0.98978936714E+03  0.00000000000E+00 0. -1.
   -9000010    2    1    2    0  502  0.57009750212E+02  0.88983979069E+02 -0.55612328693E+03  0.11392066415E+04  0.98861033862E+03 0.  0.
         13    1    3    3    0    0 -0.52318425637E+02 -0.44446122213E+03 -0.28850819046E+03  0.53246594517E+03  0.10566000000E+00 0. -1.
         -4    1    3    3    0  502  0.10932817585E+03  0.53344520120E+03 -0.26761509647E+03  0.60674069633E+03  0.00000000000E+00 0. -1.
        -13    1    1    2    0    0 -0.57009750212E+02 -0.88983979069E+02 -0.12247916416E+03  0.16176964168E+03  0.10566000000E+00 0.  1.
<mgrwt>
<rscale>  1 0.56769827E+03</rscale>
<asrwt>0</asrwt>
<pdfrwt beam="1">  1       21 0.47874910E-01 0.99424276E+03</pdfrwt>
<pdfrwt beam="2">  1       -4 0.15227529E+00 0.99424276E+03</pdfrwt>
<totfact> 0.47366595E+01</totfact>
</mgrwt>
</event>
<event>
 6    2  0.2294477E-005  0.1003493E+04  0.7818608E-02  0.9880733E-01
         -4   -1    0    0    0  501 -0.00000000000E+00  0.00000000000E+00  0.51084043946E+03  0.51084043946E+03  0.00000000000E+00 0. -1.
         21   -1    0    0  501  502  0.00000000000E+00 -0.00000000000E+00 -0.12652589169E+04  0.12652589169E+04  0.00000000000E+00 0. -1.
   -9000010    2    1    2    0  502 -0.12377887652E+03 -0.62939268787E+02 -0.10482261732E+04  0.14511293038E+04  0.99383881216E+03 0.  0.
         13    1    3    3    0    0 -0.39750184619E+03 -0.36235825123E+03 -0.34418694139E+03  0.63857331744E+03  0.10566000000E+00 0. -1.
         -4    1    3    3    0  502  0.27372296967E+03  0.29941898244E+03 -0.70403923176E+03  0.81255598640E+03  0.00000000000E+00 0. -1.
        -13    1    1    2    0    0  0.12377887652E+03  0.62939268787E+02  0.29380769570E+03  0.32497005253E+03  0.10566000000E+00 0.  1.
<mgrwt>
<rscale>  1 0.61204221E+03</rscale>
<asrwt>0</asrwt>
<pdfrwt beam="2">  1       21 0.19465522E+00 0.10034930E+04</pdfrwt>
<pdfrwt beam="1">  1       -4 0.78590837E-01 0.10034930E+04</pdfrwt>
<totfact> 0.71864904E+00</totfact>
</mgrwt>
</event>
<event>
 6    2  0.2294477E-005  0.1089934E+04  0.7818608E-02  0.9465865E-01
         -4   -1    0    0    0  501 -0.00000000000E+00  0.00000000000E+00  0.10978601074E+04  0.10978601074E+04  0.00000000000E+00 0. -1.
         21   -1    0    0  501  502  0.00000000000E+00 -0.00000000000E+00 -0.53576886196E+03  0.53576886196E+03  0.00000000000E+00 0. -1.
   -9000010    2    1    2    0  502 -0.38932532545E+03 -0.20366054036E+03  0.34281730373E+03  0.11425761235E+04  0.99744908116E+03 0.  0.
         13    1    3    3    0    0 -0.47386027273E+03 -0.26405744045E+03  0.63341950551E+03  0.83396053327E+03  0.10566000000E+00 0. -1.
         -4    1    3    3    0  502  0.84534947279E+02  0.60396900088E+02 -0.29060220178E+03  0.30861559022E+03  0.00000000000E+00 0. -1.
        -13    1    1    2    0    0  0.38932532545E+03  0.20366054036E+03  0.21927394166E+03  0.49105284583E+03  0.10566000000E+00 0.  1.
<mgrwt>
<rscale>  1 0.86847924E+03</rscale>
<asrwt>0</asrwt>
<pdfrwt beam="2">  1       21 0.82425979E-01 0.10899342E+04</pdfrwt>
<pdfrwt beam="1">  1       -4 0.16890155E+00 0.10899342E+04</pdfrwt>
<totfact> 0.10378659E+01</totfact>
</mgrwt>
</event>
<event>
 6    2  0.2294477E-005  0.1050335E+04  0.7818608E-02  0.9562864E-01
         21   -1    0    0  501  502  0.00000000000E+00  0.00000000000E+00  0.14375752927E+04  0.14375752927E+04  0.00000000000E+00 0.  1.
         -4   -1    0    0    0  501 -0.00000000000E+00 -0.00000000000E+00 -0.34263274569E+03  0.34263274569E+03  0.00000000000E+00 0. -1.
   -9000010    2    1    2    0  502  0.13924503921E+03 -0.32114325499E+03  0.87272877888E+03  0.13655984135E+04  0.99029355961E+03 0.  0.
         13    1    3    3    0    0  0.14989167947E+03 -0.12926971694E+03  0.10712027999E+04  0.10893363231E+04  0.10566000000E+00 0. -1.
         -4    1    3    3    0  502 -0.10646640257E+02 -0.19187353805E+03 -0.19847402098E+03  0.27626209034E+03  0.00000000000E+00 0. -1.
        -13    1    1    2    0    0 -0.13924503921E+03  0.32114325499E+03  0.22221376816E+03  0.41460962494E+03  0.10566000000E+00 0.  1.
<mgrwt>
<rscale>  1 0.79803640E+03</rscale>
<asrwt>0</asrwt>
<pdfrwt beam="1">  1       21 0.22116543E+00 0.10503349E+04</pdfrwt>
<pdfrwt beam="2">  1       -4 0.52712731E-01 0.10503349E+04</pdfrwt>
<totfact> 0.11404133E+01</totfact>
</mgrwt>
</event>
<event>
 6    2  0.2294477E-005  0.1033470E+04  0.7818608E-02  0.9617167E-01
         21   -1    0    0  501  502  0.00000000000E+00  0.00000000000E+00  0.24342472813E+03  0.24342472813E+03  0.00000000000E+00 0. -1.
         -4   -1    0    0    0  501 -0.00000000000E+00 -0.00000000000E+00 -0.21560428297E+04  0.21560428297E+04  0.00000000000E+00 0. -1.
   -9000010    2    1    2    0  502 -0.29037686150E+03 -0.93189240588E+02 -0.10032968644E+04  0.14403700238E+04  0.98745037905E+03 0.  0.
         13    1    3    3    0    0  0.12450144279E+03 -0.38368313442E+03 -0.11773524879E+03  0.42020823037E+03  0.10566000000E+00 0. -1.
         -4    1    3    3    0  502 -0.41487830429E+03  0.29049389383E+03 -0.88556161566E+03  0.10201617935E+04  0.00000000000E+00 0. -1.
        -13    1    1    2    0    0  0.29037686150E+03  0.93189240588E+02 -0.90932123711E+03  0.95909753398E+03  0.10566000000E+00 0.  1.
<mgrwt>
<rscale>  1 0.76170298E+03</rscale>
<asrwt>0</asrwt>
<pdfrwt beam="1">  1       21 0.37449957E-01 0.10334705E+04</pdfrwt>
<pdfrwt beam="2">  1       -4 0.33169891E+00 0.10334705E+04</pdfrwt>
<totfact> 0.54359928E+00</totfact>
</mgrwt>
</event>
<event>
 6    2  0.2294477E-005  0.1027465E+04  0.7818608E-02  0.9938085E-01
         -4   -1    0    0    0  501 -0.00000000000E+00  0.00000000000E+00  0.12619918472E+04  0.12619918472E+04  0.00000000000E+00 0. -1.
         21   -1    0    0  501  502  0.00000000000E+00 -0.00000000000E+00 -0.30331700988E+03  0.30331700988E+03  0.00000000000E+00 0. -1.
   -9000010    2    1    2    0  502 -0.10722284360E+03 -0.91155776321E+01  0.59776953552E+03  0.11887023250E+04  0.10218145468E+04 0.  0.
         13    1    3    3    0    0 -0.10581617508E+03 -0.15486825242E+03 -0.25890964038E+03  0.31971151303E+03  0.10566000000E+00 0. -1.
         -4    1    3    3    0  502 -0.14066685219E+01  0.14575267479E+03  0.85667917590E+03  0.86899081200E+03  0.00000000000E+00 0. -1.
        -13    1    1    2    0    0  0.10722284360E+03  0.91155776321E+01  0.36090530185E+03  0.37660653209E+03  0.10566000000E+00 0.  1.
<mgrwt>
<rscale>  1 0.58450494E+03</rscale>
<asrwt>0</asrwt>
<pdfrwt beam="2">  1       21 0.46664156E-01 0.10274652E+04</pdfrwt>
<pdfrwt beam="1">  1       -4 0.19415259E+00 0.10274652E+04</pdfrwt>
<totfact> 0.25030859E+01</totfact>
</mgrwt>
</event>
<event>
 6    2  0.2294477E-005  0.1082550E+04  0.7818608E-02  0.9464451E-01
         21   -1    0    0  501  502  0.00000000000E+00  0.00000000000E+00  0.46969320179E+03  0.46969320179E+03  0.00000000000E+00 0.  1.
         -4   -1    0    0    0  501 -0.00000000000E+00 -0.00000000000E+00 -0.13040993620E+04  0.13040993620E+04  0.00000000000E+00 0. -1.
   -9000010    2    1    2    0  502 -0.10125716111E+03 -0.43914658337E+03 -0.41878274148E+03  0.11607301104E+04  0.98428282029E+03 0.  0.
         13    1    3    3    0    0 -0.15532023002E+03  0.99676968761E+02  0.24330844794E+03  0.30538317563E+03  0.10566000000E+00 0. -1.
         -4    1    3    3    0  502  0.54063068910E+02 -0.53882355213E+03 -0.66209118942E+03  0.85534693479E+03  0.00000000000E+00 0. -1.
        -13    1    1    2    0    0  0.10125716111E+03  0.43914658337E+03 -0.41562341868E+03  0.61306245333E+03  0.10566000000E+00 0.  1.
<mgrwt>
<rscale>  1 0.86956204E+03</rscale>
<asrwt>0</asrwt>
<pdfrwt beam="1">  1       21 0.72260492E-01 0.10825504E+04</pdfrwt>
<pdfrwt beam="2">  1       -4 0.20063067E+00 0.10825504E+04</pdfrwt>
<totfact> 0.85326568E+00</totfact>
</mgrwt>
</event>
<event>
 6    2  0.2294477E-005  0.1019264E+04  0.7818608E-02  0.9765544E-01
         21   -1    0    0  501  502  0.00000000000E+00  0.00000000000E+00  0.11673915216E+04  0.11673915216E+04  0.00000000000E+00 0. -1.
         -4   -1    0    0    0  501 -0.00000000000E+00 -0.00000000000E+00 -0.40662251050E+03  0.40662251050E+03  0.00000000000E+00 0. -1.
   -9000010    2    1    2    0  502  0.17658784094E+03  0.78125337623E+02  0.88041008533E+03  0.13468558674E+04  0.10008056631E+04 0.  0.
         13    1    3    3    0    0  0.45488710402E+03 -0.11569195687E+03  0.89152581542E+03  0.10075342163E+04  0.10566000000E+00 0. -1.
         -4    1    3    3    0  502 -0.27829926307E+03  0.19381729449E+03 -0.11115730094E+02  0.33932165113E+03  0.00000000000E+00 0. -1.
        -13    1    1    2    0    0 -0.17658784094E+03 -0.78125337623E+02 -0.11964107426E+03  0.22715816464E+03  0.10566000000E+00 0.  1.
<mgrwt>
<rscale>  1 0.67244911E+03</rscale>
<asrwt>0</asrwt>
<pdfrwt beam="1">  1       21 0.17959869E+00 0.10192639E+04</pdfrwt>
<pdfrwt beam="2">  1       -4 0.62557310E-01 0.10192639E+04</pdfrwt>
<totfact> 0.15302238E+01</totfact>
</mgrwt>
</event>
<event>
 6    2  0.2294477E-005  0.1076786E+04  0.7818608E-02  0.9531991E-01
         21   -1    0    0  501  502  0.00000000000E+00  0.00000000000E+00  0.80131924577E+03  0.80131924577E+03  0.00000000000E+00 0. -1.
         -4   -1    0    0    0  501 -0.00000000000E+00 -0.00000000000E+00 -0.65396962382E+03  0.65396962382E+03  0.00000000000E+00 0. -1.
   -9000010    2    1    2    0  502  0.35824993969E+03 -0.48577903661E+02  0.18217141035E+03  0.10920872725E+04  0.10142807087E+04 0.  0.
         13    1    3    3    0    0  0.44863540656E+03 -0.38662478342E+03  0.36661253540E+03  0.69653227740E+03  0.10566000000E+00 0. -1.
         -4    1    3    3    0  502 -0.90385466872E+02  0.33804687976E+03 -0.18444112506E+03  0.39555499510E+03  0.00000000000E+00 0. -1.
        -13    1    1    2    0    0 -0.35824993969E+03  0.48577903661E+02 -0.34821788398E+02  0.36320159708E+03  0.10566000000E+00 0.  1.
<mgrwt>
<rscale>  1 0.81965802E+03</rscale>
<asrwt>0</asrwt>
<pdfrwt beam="1">  1       21 0.12327988E+00 0.10767860E+04</pdfrwt>
<pdfrwt beam="2">  1       -4 0.10061071E+00 0.10767860E+04</pdfrwt>
<totfact> 0.14596595E+01</totfact>
</mgrwt>
</event>
<event>
 6    2  0.2294477E-005  0.1079823E+04  0.7818608E-02  0.9533396E-01
         21   -1    0    0  501  502  0.00000000000E+00  0.00000000000E+00  0.10818572042E+04  0.10818572042E+04  0.00000000000E+00 0. -1.
         -4   -1    0    0    0  501 -0.00000000000E+00 -0.00000000000E+00 -0.51977431848E+03  0.51977431848E+03  0.00000000000E+00 0. -1.
   -9000010    2    1    2    0  502  0.32257728546E+03  0.15234068139E+03  0.61235064980E+03  0.12413668317E+04  0.10191930652E+04 0.  0.
         13    1    3    3    0    0 -0.28908402348E+03 -0.17697543710E+03  0.40058596672E+02  0.34131302392E+03  0.10566000000E+00 0. -1.
         -4    1    3    3    0  502  0.61166130893E+03  0.32931611849E+03  0.57229205313E+03  0.90005380773E+03  0.00000000000E+00 0. -1.
        -13    1    1    2    0    0 -0.32257728546E+03 -0.15234068139E+03 -0.50267764126E+02  0.36026469099E+03  0.10566000000E+00 0.  1.
<mgrwt>
<rscale>  1 0.81865821E+03</rscale>
<asrwt>0</asrwt>
<pdfrwt beam="1">  1       21 0.16643957E+00 0.10798233E+04</pdfrwt>
<pdfrwt beam="2">  1       -4 0.79965280E-01 0.10798233E+04</pdfrwt>
<totfact> 0.10962358E+01</totfact>
</mgrwt>
</event>
<event>
 6    2  0.2294477E-005  0.1093575E+04  0.7818608E-02  0.9558003E-01
         21   -1    0    0  501  502  0.00000000000E+00  0.00000000000E+00  0.60796230002E+03  0.60796230002E+03  0.00000000000E+00 0. -1.
         -4   -1    0    0    0  501 -0.00000000000E+00 -0.00000000000E+00 -0.84840717618E+03  0.84840717618E+03  0.00000000000E+00 0. -1.
   -9000010    2    1    2    0  502  0.39121305925E+02  0.31294632440E+03 -0.65076964310E+02  0.10955096777E+04  0.10471105787E+04 0.  0.
         13    1    3    3    0    0 -0.20499341790E+03 -0.31641949841E+03  0.11980918348E+03  0.39559809399E+03  0.10566000000E+00 0. -1.
         -4    1    3    3    0  502  0.24411472383E+03  0.62936582281E+03 -0.18488614779E+03  0.69991158367E+03  0.00000000000E+00 0. -1.
        -13    1    1    2    0    0 -0.39121305925E+02 -0.31294632440E+03 -0.17536791185E+03  0.36085979854E+03  0.10566000000E+00 0.  1.
<mgrwt>
<rscale>  1 0.80139333E+03</rscale>
<asrwt>0</asrwt>
<pdfrwt beam="1">  1       21 0.93532661E-01 0.10935751E+04</pdfrwt>
<pdfrwt beam="2">  1       -4 0.13052418E+00 0.10935751E+04</pdfrwt>
<totfact> 0.15302125E+01</totfact>
</mgrwt>
</event>
<event>
 6    2  0.2294477E-005  0.1012773E+04  0.7818608E-02  0.9883384E-01
         21   -1    0    0  501  502  0.00000000000E+00  0.00000000000E+00  0.13786705721E+04  0.13786705721E+04  0.00000000000E+00 0. -1.
         -4   -1    0    0    0  501 -0.00000000000E+00 -0.00000000000E+00 -0.31001294990E+03  0.31001294990E+03  0.00000000000E+00 0. -1.
   -9000010    2    1    2    0  502 -0.38845104454E+02  0.12817055658E+03  0.11496861879E+04  0.15321515018E+04  0.10038791063E+04 0.  0.
         13    1    3    3    0    0 -0.27102320894E+03 -0.56997181969E+02 -0.62668671027E+02  0.28395357372E+03  0.10566000000E+00 0. -1.
         -4    1    3    3    0  502  0.23217810448E+03  0.18516773855E+03  0.12123548589E+04  0.12481979280E+04  0.00000000000E+00 0. -1.
        -13    1    1    2    0    0  0.38845104454E+02 -0.12817055658E+03 -0.81028565748E+02  0.15653202019E+03  0.10566000000E+00 0.  1.
<mgrwt>
<rscale>  1 0.61073366E+03</rscale>
<asrwt>0</asrwt>
<pdfrwt beam="1">  1       21 0.21210316E+00 0.10127734E+04</pdfrwt>
<pdfrwt beam="2">  1       -4 0.47694301E-01 0.10127734E+04</pdfrwt>
<totfact> 0.16269737E+01</totfact>
</mgrwt>
</event>
<event>
 6    2  0.2294477E-005  0.1001725E+04  0.7818608E-02  0.9983247E-01
         21   -1    0    0  501  502  0.00000000000E+00  0.00000000000E+00  0.85133327806E+03  0.85133327806E+03  0.00000000000E+00 0. -1.
         -4   -1    0    0    0  501 -0.00000000000E+00 -0.00000000000E+00 -0.50466223909E+03  0.50466223909E+03  0.00000000000E+00 0. -1.
   -9000010    2    1    2    0  502 -0.53101186462E+02 -0.85442209764E+02  0.54004087884E+03  0.11380230112E+04  0.99666048182E+03 0.  0.
         13    1    3    3    0    0  0.38393426106E+03 -0.26466827498E+03  0.69821776708E+02  0.47151872101E+03  0.10566000000E+00 0. -1.
         -4    1    3    3    0  502 -0.43703544753E+03  0.17922606521E+03  0.47021910213E+03  0.66650429020E+03  0.00000000000E+00 0. -1.
        -13    1    1    2    0    0  0.53101186462E+02  0.85442209764E+02 -0.19336983986E+03  0.21797250594E+03  0.10566000000E+00 0.  1.
<mgrwt>
<rscale>  1 0.56390957E+03</rscale>
<asrwt>0</asrwt>
<pdfrwt beam="1">  1       21 0.13097435E+00 0.10017246E+04</pdfrwt>
<pdfrwt beam="2">  1       -4 0.77640344E-01 0.10017246E+04</pdfrwt>
<totfact> 0.23025258E+01</totfact>
</mgrwt>
</event>
<event>
 6    2  0.2294477E-005  0.1027297E+04  0.7818608E-02  0.9724781E-01
         -4   -1    0    0    0  501 -0.00000000000E+00  0.00000000000E+00  0.28320052839E+03  0.28320052839E+03  0.00000000000E+00 0. -1.
         21   -1    0    0  501  502  0.00000000000E+00 -0.00000000000E+00 -0.14284204939E+04  0.14284204939E+04  0.00000000000E+00 0. -1.
   -9000010    2    1    2    0  502  0.13079398472E+03  0.17183790345E+03 -0.10690343450E+04  0.14826240978E+04  0.10043427966E+04 0.  0.
         13    1    3    3    0    0 -0.39332972164E+03  0.20973025657E+03 -0.73608800206E+03  0.86053507098E+03  0.10566000000E+00 0. -1.
         -4    1    3    3    0  502  0.52412370636E+03 -0.37892353116E+02 -0.33294634299E+03  0.62208902683E+03  0.00000000000E+00 0. -1.
        -13    1    1    2    0    0 -0.13079398472E+03 -0.17183790345E+03 -0.76185620502E+02  0.22899692452E+03  0.10566000000E+00 0.  1.
<mgrwt>
<rscale>  1 0.69560311E+03</rscale>
<asrwt>0</asrwt>
<pdfrwt beam="2">  1       21 0.21975700E+00 0.10272973E+04</pdfrwt>
<pdfrwt beam="1">  1       -4 0.43569312E-01 0.10272973E+04</pdfrwt>
<totfact> 0.17429891E+01</totfact>
</mgrwt>
</event>
<event>
 6    2  0.2294477E-005  0.1032062E+04  0.7818608E-02  0.9647831E-01
         21   -1    0    0  501  502  0.00000000000E+00  0.00000000000E+00  0.34365801742E+03  0.34365801742E+03  0.00000000000E+00 0. -1.
         -4   -1    0    0    0  501 -0.00000000000E+00 -0.00000000000E+00 -0.13477869107E+04  0.13477869107E+04  0.00000000000E+00 0. -1.
   -9000010    2    1    2    0  502  0.22218236833E+02 -0.27498732715E+03 -0.57540885826E+03  0.11816287262E+04  0.99450460648E+03 0.  0.
         13    1    3    3    0    0 -0.23554450582E+03  0.30207156671E+03 -0.11581113363E+03  0.40017580571E+03  0.10566000000E+00 0. -1.
         -4    1    3    3    0  502  0.25776274265E+03 -0.57705889386E+03 -0.45959772463E+03  0.78145292050E+03  0.00000000000E+00 0. -1.
        -13    1    1    2    0    0 -0.22218236833E+02  0.27498732715E+03 -0.42872003501E+03  0.50981620190E+03  0.10566000000E+00 0.  1.
<mgrwt>
<rscale>  1 0.74209692E+03</rscale>
<asrwt>0</asrwt>
<pdfrwt beam="1">  1       21 0.52870464E-01 0.10320616E+04</pdfrwt>
<pdfrwt beam="2">  1       -4 0.20735183E+00 0.10320616E+04</pdfrwt>
<totfact> 0.15621488E+01</totfact>
</mgrwt>
</event>
<event>
 6    2  0.2294477E-005  0.1069824E+04  0.7818608E-02  0.9535284E-01
         21   -1    0    0  501  502  0.00000000000E+00  0.00000000000E+00  0.99423439105E+03  0.99423439105E+03  0.00000000000E+00 0. -1.
         -4   -1    0    0    0  501 -0.00000000000E+00 -0.00000000000E+00 -0.99295920545E+03  0.99295920545E+03  0.00000000000E+00 0. -1.
   -9000010    2    1    2    0  502  0.27654592134E+03  0.23735814617E+03  0.64373449253E+03  0.12485661475E+04  0.10058363643E+04 0.  0.
         13    1    3    3    0    0  0.56485483023E+03  0.43620409266E+03  0.49227127382E+03  0.86698674032E+03  0.10566000000E+00 0. -1.
         -4    1    3    3    0  502 -0.28830890889E+03 -0.19884594649E+03  0.15146321871E+03  0.38157940721E+03  0.00000000000E+00 0. -1.
        -13    1    1    2    0    0 -0.27654592134E+03 -0.23735814617E+03 -0.64245930693E+03  0.73862744898E+03  0.10566000000E+00 0.  1.
<mgrwt>
<rscale>  1 0.81731744E+03</rscale>
<asrwt>0</asrwt>
<pdfrwt beam="1">  1       21 0.15295914E+00 0.10698240E+04</pdfrwt>
<pdfrwt beam="2">  1       -4 0.15276295E+00 0.10698240E+04</pdfrwt>
<totfact> 0.28082113E+00</totfact>
</mgrwt>
</event>
<event>
 6    2  0.2294477E-005  0.1152917E+04  0.7818608E-02  0.9348207E-01
         21   -1    0    0  501  502  0.00000000000E+00  0.00000000000E+00  0.13714485471E+04  0.13714485471E+04  0.00000000000E+00 0.  1.
         -4   -1    0    0    0  501 -0.00000000000E+00 -0.00000000000E+00 -0.54833175900E+03  0.54833175900E+03  0.00000000000E+00 0. -1.
   -9000010    2    1    2    0  502  0.39564346091E+03 -0.40336331298E+03  0.42568960105E+03  0.12289951799E+04  0.10049785099E+04 0.  0.
         13    1    3    3    0    0  0.68654785613E+02 -0.53817244064E+03 -0.14139273588E+03  0.56065584129E+03  0.10566000000E+00 0. -1.
         -4    1    3    3    0  502  0.32698867529E+03  0.13480912766E+03  0.56708233693E+03  0.66833933861E+03  0.00000000000E+00 0. -1.
        -13    1    1    2    0    0 -0.39564346091E+03  0.40336331298E+03  0.39742718705E+03  0.69078512620E+03  0.10566000000E+00 0.  1.
<mgrwt>
<rscale>  1 0.96463388E+03</rscale>
<asrwt>0</asrwt>
<pdfrwt beam="1">  1       21 0.21099208E+00 0.11529170E+04</pdfrwt>
<pdfrwt beam="2">  1       -4 0.84358733E-01 0.11529170E+04</pdfrwt>
<totfact> 0.46226362E+00</totfact>
</mgrwt>
</event>
<event>
 6    2  0.2294477E-005  0.1102211E+04  0.7818608E-02  0.9437780E-01
         -4   -1    0    0    0  501 -0.00000000000E+00  0.00000000000E+00  0.43499184914E+03  0.43499184914E+03  0.00000000000E+00 0. -1.
         21   -1    0    0  501  502  0.00000000000E+00 -0.00000000000E+00 -0.15286551697E+04  0.15286551697E+04  0.00000000000E+00 0. -1.
   -9000010    2    1    2    0  502 -0.12875734205E+03 -0.45119492054E+03 -0.99346565305E+03  0.14838607194E+04  0.99735315773E+03 0.  0.
         13    1    3    3    0    0  0.23662005945E+03 -0.64572921777E+03 -0.59723325719E+03  0.91084732523E+03  0.10566000000E+00 0. -1.
         -4    1    3    3    0  502 -0.36537740150E+03  0.19453429723E+03 -0.39623239586E+03  0.57301339413E+03  0.00000000000E+00 0. -1.
        -13    1    1    2    0    0  0.12875734205E+03  0.45119492054E+03 -0.10019766755E+03  0.47978629951E+03  0.10566000000E+00 0.  1.
<mgrwt>
<rscale>  1 0.89030670E+03</rscale>
<asrwt>0</asrwt>
<pdfrwt beam="2">  1       21 0.23517772E+00 0.11022108E+04</pdfrwt>
<pdfrwt beam="1">  1       -4 0.66921823E-01 0.11022108E+04</pdfrwt>
<totfact> 0.54543725E+00</totfact>
</mgrwt>
</event>
<event>
 6    2  0.2294477E-005  0.1093300E+04  0.7818608E-02  0.9442749E-01
         -4   -1    0    0    0  501 -0.00000000000E+00  0.00000000000E+00  0.28043518542E+03  0.28043518542E+03  0.00000000000E+00 0. -1.
         21   -1    0    0  501  502  0.00000000000E+00 -0.00000000000E+00 -0.27180193799E+04  0.27180193799E+04  0.00000000000E+00 0. -1.
   -9000010    2    1    2    0  502 -0.47000267853E+03  0.47352702437E+02 -0.22277455659E+04  0.24815628383E+04  0.98598124623E+03 0.  0.
         13    1    3    3    0    0 -0.76024348964E+03  0.11864130107E+03 -0.18204210185E+04  0.19763548815E+04  0.10566000000E+00 0. -1.
         -4    1    3    3    0  502  0.29024081110E+03 -0.71288598635E+02 -0.40732454737E+03  0.50520795680E+03  0.00000000000E+00 0. -1.
        -13    1    1    2    0    0  0.47000267853E+03 -0.47352702437E+02 -0.20983862864E+03  0.51689172705E+03  0.10566000000E+00 0.  1.
<mgrwt>
<rscale>  1 0.88639585E+03</rscale>
<asrwt>0</asrwt>
<pdfrwt beam="2">  1       21 0.41815680E+00 0.10932995E+04</pdfrwt>
<pdfrwt beam="1">  1       -4 0.43143877E-01 0.10932995E+04</pdfrwt>
<totfact> 0.95509137E-01</totfact>
</mgrwt>
</event>
<event>
 6    2  0.2294477E-005  0.1020376E+04  0.7818608E-02  0.9886177E-01
         -4   -1    0    0    0  501 -0.00000000000E+00  0.00000000000E+00  0.66082545279E+03  0.66082545279E+03  0.00000000000E+00 0. -1.
         21   -1    0    0  501  502  0.00000000000E+00 -0.00000000000E+00 -0.50654944725E+03  0.50654944725E+03  0.00000000000E+00 0. -1.
   -9000010    2    1    2    0  502  0.12888768291E+03  0.15201517622E+02  0.17701575782E+03  0.10356166804E+04  0.10120890323E+04 0.  0.
         13    1    3    3    0    0  0.24290319758E+02  0.50608829662E+03  0.16743108912E+03  0.53361836960E+03  0.10566000000E+00 0. -1.
         -4    1    3    3    0  502  0.10459736315E+03 -0.49088677900E+03  0.95846686992E+01  0.50199831080E+03  0.00000000000E+00 0. -1.
        -13    1    1    2    0    0 -0.12888768291E+03 -0.15201517622E+02 -0.22739752274E+02  0.13175821963E+03  0.10566000000E+00 0.  1.
<mgrwt>
<rscale>  1 0.60935883E+03</rscale>
<asrwt>0</asrwt>
<pdfrwt beam="2">  1       21 0.77930685E-01 0.10203761E+04</pdfrwt>
<pdfrwt beam="1">  1       -4 0.10166545E+00 0.10203761E+04</pdfrwt>
<totfact> 0.44430012E+01</totfact>
</mgrwt>
</event>
<event>
 6    2  0.2294477E-005  0.1037536E+04  0.7818608E-02  0.1014728E+00
         21   -1    0    0  501  502  0.00000000000E+00  0.00000000000E+00  0.10418704545E+04  0.10418704545E+04  0.00000000000E+00 0. -1.
         -4   -1    0    0    0  501 -0.00000000000E+00 -0.00000000000E+00 -0.42172563862E+03  0.42172563862E+03  0.00000000000E+00 0. -1.
   -9000010    2    1    2    0  502  0.54355217198E+02  0.27971607485E+00  0.77788071781E+03  0.12967572674E+04  0.10361112061E+04 0.  0.
         13    1    3    3    0    0  0.42029945820E+03 -0.27938084645E+03  0.16676898585E+03  0.53152346865E+03  0.10566000000E+00 0. -1.
         -4    1    3    3    0  502 -0.36594424100E+03  0.27966056252E+03  0.61111173196E+03  0.76523379871E+03  0.00000000000E+00 0. -1.
        -13    1    1    2    0    0 -0.54355217198E+02 -0.27971607485E+00 -0.15773590190E+03  0.16683882579E+03  0.10566000000E+00 0.  1.
<mgrwt>
<rscale>  1 0.49638007E+03</rscale>
<asrwt>0</asrwt>
<pdfrwt beam="1">  1       21 0.16028776E+00 0.10375360E+04</pdfrwt>
<pdfrwt beam="2">  1       -4 0.64880868E-01 0.10375360E+04</pdfrwt>
<totfact> 0.19670225E+01</totfact>
</mgrwt>
</event>
<event>
 6    2  0.2294477E-005  0.8573453E+03  0.7818608E-02  0.9941871E-01
         21   -1    0    0  501  502  0.00000000000E+00  0.00000000000E+00  0.18771774002E+04  0.18771774002E+04  0.00000000000E+00 0. -1.
         -4   -1    0    0    0  501 -0.00000000000E+00 -0.00000000000E+00 -0.14656803879E+03  0.14656803879E+03  0.00000000000E+00 0. -1.
   -9000010    2    1    2    0  502  0.18077080426E+03  0.28445917048E+02  0.15166623993E+04  0.17422129051E+04  0.83758803678E+03 0.  0.
         13    1    3    3    0    0  0.34059265237E+03  0.23292560124E+03  0.13965614325E+04  0.14562422657E+04  0.10566000000E+00 0. -1.
         -4    1    3    3    0  502 -0.15982184810E+03 -0.20447968420E+03  0.12010096688E+03  0.28597063945E+03  0.00000000000E+00 0. -1.
        -13    1    1    2    0    0 -0.18077080426E+03 -0.28445917048E+02  0.21394696203E+03  0.28153253382E+03  0.10566000000E+00 0.  1.
<mgrwt>
<rscale>  1 0.58274263E+03</rscale>
<asrwt>0</asrwt>
<pdfrwt beam="1">  1       21 0.28879651E+00 0.85734531E+03</pdfrwt>
<pdfrwt beam="2">  1       -4 0.22548930E-01 0.85734531E+03</pdfrwt>
<totfact> 0.23880074E+01</totfact>
</mgrwt>
</event>
