<event>
 6    1  0.1353269E-005  0.1063533E+04  0.7818608E-02  0.9584931E-01
         21   -1    0    0  501  502  0.00000000000E+00  0.00000000000E+00  0.11219808253E+04  0.11219808253E+04  0.00000000000E+00 0.  1.
          4   -1    0    0  502    0 -0.00000000000E+00 -0.00000000000E+00 -0.88777559127E+03  0.88777559127E+03  0.00000000000E+00 0.  1.
    9000010    2    1    2  501    0 -0.30465755867E+03 -0.69509297745E+02  0.82192886098E+03  0.13441237526E+04  0.10165893169E+04 0.  0.
        -13    1    3    3    0    0 -0.46546287788E+03  0.19085842582E+03  0.89752782131E+03  0.10289017594E+04  0.10566000000E+00 0.  1.
          4    1    3    3  501    0  0.16080531921E+03 -0.26036772356E+03 -0.75598960336E+02  0.31522199315E+03  0.00000000000E+00 0.  1.
         13    1    1    2    0    0  0.30465755867E+03  0.69509297745E+02 -0.58772362695E+03  0.66563266398E+03  0.10566000000E+00 0. -1.
<mgrwt>
<rscale>  1 0.78301648E+03</rscale>
<asrwt>0</asrwt>
<pdfrwt beam="1">  1       21 0.17261244E+00 0.10635326E+04</pdfrwt>
<pdfrwt beam="2">  1        4 0.13658086E+00 0.10635326E+04</pdfrwt>
<totfact> 0.26717950E+00</totfact>
</mgrwt>
</event>
<event>
 6    1  0.1353269E-005  0.1026334E+04  0.7818608E-02  0.9680162E-01
          4   -1    0    0  502    0 -0.00000000000E+00  0.00000000000E+00  0.52169068524E+03  0.52169068524E+03  0.00000000000E+00 0.  1.
         21   -1    0    0  501  502  0.00000000000E+00 -0.00000000000E+00 -0.87254364835E+03  0.87254364835E+03  0.00000000000E+00 0.  1.
    9000010    2    1    2  501    0  0.23926302155E+03 -0.77482634574E+02 -0.45418310247E+03  0.11223382486E+04  0.99504296473E+03 0.  0.
        -13    1    3    3    0    0  0.44700581210E+02 -0.14716513498E+03 -0.74770506285E+03  0.76336006648E+03  0.10566000000E+00 0.  1.
          4    1    3    3  501    0  0.19456244034E+03  0.69682500410E+02  0.29352196037E+03  0.35897818217E+03  0.00000000000E+00 0.  1.
         13    1    1    2    0    0 -0.23926302155E+03  0.77482634574E+02  0.10333013937E+03  0.27189608494E+03  0.10566000000E+00 0. -1.
<mgrwt>
<rscale>  1 0.72210328E+03</rscale>
<asrwt>0</asrwt>
<pdfrwt beam="2">  1       21 0.13423748E+00 0.10263337E+04</pdfrwt>
<pdfrwt beam="1">  1        4 0.80260107E-01 0.10263337E+04</pdfrwt>
<totfact> 0.19931876E+01</totfact>
</mgrwt>
</event>
<event>
 6    1  0.1353269E-005  0.1004244E+04  0.7818608E-02  0.9818190E-01
          4   -1    0    0  502    0 -0.00000000000E+00  0.00000000000E+00  0.70471612757E+03  0.70471612757E+03  0.00000000000E+00 0.  1.
         21   -1    0    0  501  502  0.00000000000E+00 -0.00000000000E+00 -0.59737977168E+03  0.59737977168E+03  0.00000000000E+00 0.  1.
    9000010    2    1    2  501    0  0.16421930359E+03 -0.43119582392E+02 -0.12750527339E+03  0.10123065274E+04  0.98978767042E+03 0.  0.
        -13    1    3    3    0    0 -0.98336404380E+02  0.30282534460E+03 -0.39107033502E+03  0.50429084451E+03  0.10566000000E+00 0.  1.
          4    1    3    3  501    0  0.26255570797E+03 -0.34594492700E+03  0.26356506163E+03  0.50801568284E+03  0.00000000000E+00 0.  1.
         13    1    1    2    0    0 -0.16421930359E+03  0.43119582392E+02  0.23484162928E+03  0.28978937190E+03  0.10566000000E+00 0. -1.
<mgrwt>
<rscale>  1 0.64395431E+03</rscale>
<asrwt>0</asrwt>
<pdfrwt beam="2">  1       21 0.91904580E-01 0.10042444E+04</pdfrwt>
<pdfrwt beam="1">  1        4 0.10841787E+00 0.10042444E+04</pdfrwt>
<totfact> 0.25670428E+01</totfact>
</mgrwt>
</event>
<event>
 6    1  0.1353269E-005  0.1012949E+04  0.7818608E-02  0.9902506E-01
          4   -1    0    0  502    0 -0.00000000000E+00  0.00000000000E+00  0.38484961013E+03  0.38484961013E+03  0.00000000000E+00 0.  1.
         21   -1    0    0  501  502  0.00000000000E+00 -0.00000000000E+00 -0.84257867822E+03  0.84257867822E+03  0.00000000000E+00 0.  1.
    9000010    2    1    2  501    0  0.90155809332E+02 -0.87823299165E+02 -0.41160536855E+03  0.10933819954E+04  0.10050991029E+04 0.  0.
        -13    1    3    3    0    0 -0.18209089273E+03  0.28551278817E+03 -0.51834230015E+03  0.61915538979E+03  0.10566000000E+00 0.  1.
          4    1    3    3  501    0  0.27224670206E+03 -0.37333608734E+03  0.10673693160E+03  0.47422660560E+03  0.00000000000E+00 0.  1.
         13    1    1    2    0    0 -0.90155809332E+02  0.87823299165E+02 -0.46123699535E+02  0.13404629296E+03  0.10566000000E+00 0. -1.
<mgrwt>
<rscale>  1 0.60140008E+03</rscale>
<asrwt>0</asrwt>
<pdfrwt beam="2">  1       21 0.12962749E+00 0.10129488E+04</pdfrwt>
<pdfrwt beam="1">  1        4 0.59207633E-01 0.10129488E+04</pdfrwt>
<totfact> 0.43233894E+01</totfact>
</mgrwt>
</event>
<event>
 6    1  0.1353269E-005  0.1005067E+04  0.7818608E-02  0.9688869E-01
         21   -1    0    0  501  502  0.00000000000E+00  0.00000000000E+00  0.73593032435E+03  0.73593032435E+03  0.00000000000E+00 0.  1.
          4   -1    0    0  502    0 -0.00000000000E+00 -0.00000000000E+00 -0.13753845386E+04  0.13753845386E+04  0.00000000000E+00 0.  1.
    9000010    2    1    2  501    0  0.76092902840E+02 -0.24868808837E+03  0.36839212415E+03  0.10704545706E+04  0.97083692528E+03 0.  0.
        -13    1    3    3    0    0  0.35183160031E+03 -0.22055676512E+03  0.58590027031E+03  0.71812944483E+03  0.10566000000E+00 0.  1.
          4    1    3    3  501    0 -0.27573869747E+03 -0.28131323248E+02 -0.21750814616E+03  0.35232512581E+03  0.00000000000E+00 0.  1.
         13    1    1    2    0    0 -0.76092902840E+02  0.24868808837E+03 -0.10078463384E+04  0.10408602923E+04  0.10566000000E+00 0. -1.
<mgrwt>
<rscale>  1 0.71683386E+03</rscale>
<asrwt>0</asrwt>
<pdfrwt beam="1">  1       21 0.11322005E+00 0.10050673E+04</pdfrwt>
<pdfrwt beam="2">  1        4 0.21159762E+00 0.10050673E+04</pdfrwt>
<totfact> 0.24594669E+00</totfact>
</mgrwt>
</event>
<event>
 6    1  0.1353269E-005  0.9647358E+03  0.7818608E-02  0.9815812E-01
         21   -1    0    0  501  502  0.00000000000E+00  0.00000000000E+00  0.14825355910E+04  0.14825355910E+04  0.00000000000E+00 0.  1.
          4   -1    0    0  502    0 -0.00000000000E+00 -0.00000000000E+00 -0.22607657317E+03  0.22607657317E+03  0.00000000000E+00 0.  1.
    9000010    2    1    2  501    0 -0.17536852042E+03 -0.80610084058E+02  0.10563563919E+04  0.14305956616E+04  0.94523172651E+03 0.  0.
        -13    1    3    3    0    0 -0.12066257670E+03  0.40922189705E+03  0.70952669135E+03  0.82791917199E+03  0.10566000000E+00 0.  1.
          4    1    3    3  501    0 -0.54705943720E+02 -0.48983198111E+03  0.34682970053E+03  0.60267648964E+03  0.00000000000E+00 0.  1.
         13    1    1    2    0    0  0.17536852042E+03  0.80610084058E+02  0.20010262593E+03  0.27801650252E+03  0.10566000000E+00 0. -1.
<mgrwt>
<rscale>  1 0.64520861E+03</rscale>
<asrwt>0</asrwt>
<pdfrwt beam="1">  1       21 0.22808239E+00 0.96473578E+03</pdfrwt>
<pdfrwt beam="2">  1        4 0.34781012E-01 0.96473578E+03</pdfrwt>
<totfact> 0.24488504E+01</totfact>
</mgrwt>
</event>
<event>
 6    1  0.1353269E-005  0.1136274E+04  0.7818608E-02  0.9377551E-01
         21   -1    0    0  501  502  0.00000000000E+00  0.00000000000E+00  0.45824232567E+03  0.45824232567E+03  0.00000000000E+00 0.  1.
          4   -1    0    0  502    0 -0.00000000000E+00 -0.00000000000E+00 -0.15337392028E+04  0.15337392028E+04  0.00000000000E+00 0.  1.
    9000010    2    1    2  501    0 -0.40018728496E+03 -0.34897265792E+03 -0.63233228129E+03  0.13003698967E+04  0.10045824880E+04 0.  0.
        -13    1    3    3    0    0  0.31640805660E+02 -0.38091197227E+03 -0.75849376099E+03  0.84935732635E+03  0.10566000000E+00 0.  1.
          4    1    3    3  501    0 -0.43182809062E+03  0.31939314353E+02  0.12616147969E+03  0.45101257035E+03  0.00000000000E+00 0.  1.
         13    1    1    2    0    0  0.40018728496E+03  0.34897265792E+03 -0.44316459579E+03  0.69161163173E+03  0.10566000000E+00 0. -1.
<mgrwt>
<rscale>  1 0.93946413E+03</rscale>
<asrwt>0</asrwt>
<pdfrwt beam="1">  1       21 0.70498817E-01 0.11362736E+04</pdfrwt>
<pdfrwt beam="2">  1        4 0.23595989E+00 0.11362736E+04</pdfrwt>
<totfact> 0.53225700E+00</totfact>
</mgrwt>
</event>
<event>
 6    1  0.1353269E-005  0.9935472E+03  0.7818608E-02  0.9849762E-01
         21   -1    0    0  501  502  0.00000000000E+00  0.00000000000E+00  0.10697842233E+04  0.10697842233E+04  0.00000000000E+00 0.  1.
          4   -1    0    0  502    0 -0.00000000000E+00 -0.00000000000E+00 -0.31063906957E+03  0.31063906957E+03  0.00000000000E+00 0.  1.
    9000010    2    1    2  501    0  0.14318724782E+03 -0.67208409763E+02  0.63246757722E+03  0.11777738965E+04  0.98087540332E+03 0.  0.
        -13    1    3    3    0    0  0.38394546440E+03 -0.47661505039E+02  0.79670474524E+03  0.88567725552E+03  0.10566000000E+00 0.  1.
          4    1    3    3  501    0 -0.24075821658E+03 -0.19546904724E+02 -0.16423716801E+03  0.29209664102E+03  0.00000000000E+00 0.  1.
         13    1    1    2    0    0 -0.14318724782E+03  0.67208409763E+02  0.12667757651E+03  0.20264939634E+03  0.10566000000E+00 0. -1.
<mgrwt>
<rscale>  1 0.62759059E+03</rscale>
<asrwt>0</asrwt>
<pdfrwt beam="1">  1       21 0.16458219E+00 0.99354724E+03</pdfrwt>
<pdfrwt beam="2">  1        4 0.47790626E-01 0.99354724E+03</pdfrwt>
<totfact> 0.35350061E+01</totfact>
</mgrwt>
</event>
<event>
 6    1  0.1353269E-005  0.1087033E+04  0.7818608E-02  0.9478100E-01
         21   -1    0    0  501  502  0.00000000000E+00  0.00000000000E+00  0.74381725199E+03  0.74381725199E+03  0.00000000000E+00 0. -1.
          4   -1    0    0  502    0 -0.00000000000E+00 -0.00000000000E+00 -0.77310252869E+03  0.77310252869E+03  0.00000000000E+00 0.  1.
    9000010    2    1    2  501    0 -0.42295887845E+03 -0.32870278865E+02  0.36339165739E+02  0.10876398642E+04  0.10008322892E+04 0.  0.
        -13    1    3    3    0    0  0.19118680661E+03  0.32215170996E+03 -0.26101714185E+02  0.37552021237E+03  0.10566000000E+00 0.  1.
          4    1    3    3  501    0 -0.61414568506E+03 -0.35502198882E+03  0.62440879924E+02  0.71211965182E+03  0.00000000000E+00 0.  1.
         13    1    1    2    0    0  0.42295887845E+03  0.32870278865E+02 -0.65624442432E+02  0.42927991649E+03  0.10566000000E+00 0. -1.
<mgrwt>
<rscale>  1 0.85917842E+03</rscale>
<asrwt>0</asrwt>
<pdfrwt beam="1">  1       21 0.11443342E+00 0.10870326E+04</pdfrwt>
<pdfrwt beam="2">  1        4 0.11893885E+00 0.10870326E+04</pdfrwt>
<totfact> 0.11711875E+01</totfact>
</mgrwt>
</event>
<event>
 6    1  0.1353269E-005  0.1087141E+04  0.7818608E-02  0.9615963E-01
          4   -1    0    0  502    0 -0.00000000000E+00  0.00000000000E+00  0.12668952071E+04  0.12668952071E+04  0.00000000000E+00 0.  1.
         21   -1    0    0  501  502  0.00000000000E+00 -0.00000000000E+00 -0.38444269389E+03  0.38444269389E+03  0.00000000000E+00 0.  1.
    9000010    2    1    2  501    0  0.22675340168E+03  0.13337179825E+03  0.52433490204E+03  0.12069806389E+04  0.10548317551E+04 0.  0.
        -13    1    3    3    0    0 -0.10643426179E+03  0.50774497838E+03  0.57304922848E+02  0.52193589693E+03  0.10566000000E+00 0.  1.
          4    1    3    3  501    0  0.33318766347E+03 -0.37437318013E+03  0.46702997919E+03  0.68504474201E+03  0.00000000000E+00 0.  1.
         13    1    1    2    0    0 -0.22675340168E+03 -0.13337179825E+03  0.35811761119E+03  0.44435726207E+03  0.10566000000E+00 0. -1.
<mgrwt>
<rscale>  1 0.76248562E+03</rscale>
<asrwt>0</asrwt>
<pdfrwt beam="2">  1       21 0.59145030E-01 0.10871408E+04</pdfrwt>
<pdfrwt beam="1">  1        4 0.19490695E+00 0.10871408E+04</pdfrwt>
<totfact> 0.14664725E+01</totfact>
</mgrwt>
</event>
<event>
 6    1  0.1353269E-005  0.1006448E+04  0.7818608E-02  0.9811419E-01
         21   -1    0    0  501  502  0.00000000000E+00  0.00000000000E+00  0.18822011913E+04  0.18822011913E+04  0.00000000000E+00 0.  1.
          4   -1    0    0  502    0 -0.00000000000E+00 -0.00000000000E+00 -0.29455404144E+03  0.29455404144E+03  0.00000000000E+00 0.  1.
    9000010    2    1    2  501    0 -0.80736416917E+01 -0.17226484422E+03  0.16966764449E+04  0.19727264148E+04  0.99156350698E+03 0.  0.
        -13    1    3    3    0    0 -0.47466319218E+02 -0.53116536773E+02 -0.12653109386E+03  0.14520518867E+03  0.10566000000E+00 0.  1.
          4    1    3    3  501    0  0.39392677526E+02 -0.11914830745E+03  0.18232075388E+04  0.18275212261E+04  0.00000000000E+00 0.  1.
         13    1    1    2    0    0  0.80736416917E+01  0.17226484422E+03 -0.10902929504E+03  0.20402881803E+03  0.10566000000E+00 0. -1.
<mgrwt>
<rscale>  1 0.64753308E+03</rscale>
<asrwt>0</asrwt>
<pdfrwt beam="1">  1       21 0.28956941E+00 0.10064485E+04</pdfrwt>
<pdfrwt beam="2">  1        4 0.45316008E-01 0.10064485E+04</pdfrwt>
<totfact> 0.57972850E+00</totfact>
</mgrwt>
</event>
<event>
 6    1  0.1353269E-005  0.1001271E+04  0.7818608E-02  0.9675550E-01
         21   -1    0    0  501  502  0.00000000000E+00  0.00000000000E+00  0.12158057510E+04  0.12158057510E+04  0.00000000000E+00 0. -1.
          4   -1    0    0  502    0 -0.00000000000E+00 -0.00000000000E+00 -0.38512307887E+03  0.38512307887E+03  0.00000000000E+00 0.  1.
    9000010    2    1    2  501    0  0.94134146253E+02  0.25849263238E+03  0.86568148024E+03  0.13236120323E+04  0.96273813067E+03 0.  0.
        -13    1    3    3    0    0  0.47090488698E+03  0.17638136770E+03  0.78088258016E+03  0.92878383632E+03  0.10566000000E+00 0.  1.
          4    1    3    3  501    0 -0.37677074073E+03  0.82111264678E+02  0.84798900083E+02  0.39482819594E+03  0.00000000000E+00 0.  1.
         13    1    1    2    0    0 -0.94134146253E+02 -0.25849263238E+03 -0.34998808140E+02  0.27731679758E+03  0.10566000000E+00 0. -1.
<mgrwt>
<rscale>  1 0.72491364E+03</rscale>
<asrwt>0</asrwt>
<pdfrwt beam="1">  1       21 0.18704704E+00 0.10012714E+04</pdfrwt>
<pdfrwt beam="2">  1        4 0.59249705E-01 0.10012714E+04</pdfrwt>
<totfact> 0.15265707E+01</totfact>
</mgrwt>
</event>
<event>
 6    1  0.1353269E-005  0.9978867E+03  0.7818608E-02  0.9812814E-01
          4   -1    0    0  502    0 -0.00000000000E+00  0.00000000000E+00  0.39505190871E+03  0.39505190871E+03  0.00000000000E+00 0.  1.
         21   -1    0    0  501  502  0.00000000000E+00 -0.00000000000E+00 -0.15026192180E+04  0.15026192180E+04  0.00000000000E+00 0.  1.
    9000010    2    1    2  501    0 -0.17610522693E+03 -0.26119839586E+01 -0.12986744534E+04  0.16377830257E+04  0.98222096796E+03 0.  0.
        -13    1    3    3    0    0 -0.27226298679E+03 -0.26249973396E+03 -0.78137692935E+02  0.38618487092E+03  0.10566000000E+00 0.  1.
          4    1    3    3  501    0  0.96157759862E+02  0.25988775000E+03 -0.12205367604E+04  0.12515981547E+04  0.00000000000E+00 0.  1.
         13    1    1    2    0    0  0.17610522693E+03  0.26119839586E+01  0.19110714404E+03  0.25988810108E+03  0.10566000000E+00 0. -1.
<mgrwt>
<rscale>  1 0.64679396E+03</rscale>
<asrwt>0</asrwt>
<pdfrwt beam="2">  1       21 0.23117218E+00 0.99788672E+03</pdfrwt>
<pdfrwt beam="1">  1        4 0.60777218E-01 0.99788672E+03</pdfrwt>
<totfact> 0.72692209E+00</totfact>
</mgrwt>
</event>
<event>
 6    1  0.1353269E-005  0.1006218E+04  0.7818608E-02  0.9873089E-01
         21   -1    0    0  501  502  0.00000000000E+00  0.00000000000E+00  0.53256890793E+03  0.53256890793E+03  0.00000000000E+00 0.  1.
          4   -1    0    0  502    0 -0.00000000000E+00 -0.00000000000E+00 -0.62887221692E+03  0.62887221692E+03  0.00000000000E+00 0.  1.
    9000010    2    1    2  501    0  0.12490966278E+03 -0.65801509831E+02 -0.33112551717E+02  0.10067629250E+04  0.99626446461E+03 0.  0.
        -13    1    3    3    0    0 -0.34153828913E+03 -0.32326183173E+03 -0.55387383076E+02  0.47351281732E+03  0.10566000000E+00 0.  1.
          4    1    3    3  501    0  0.46644795191E+03  0.25746032190E+03  0.22274831359E+02  0.53325010765E+03  0.00000000000E+00 0.  1.
         13    1    1    2    0    0 -0.12490966278E+03  0.65801509831E+02 -0.63190757268E+02  0.15467819989E+03  0.10566000000E+00 0. -1.
<mgrwt>
<rscale>  1 0.61583412E+03</rscale>
<asrwt>0</asrwt>
<pdfrwt beam="1">  1       21 0.81933678E-01 0.10062182E+04</pdfrwt>
<pdfrwt beam="2">  1        4 0.96749572E-01 0.10062182E+04</pdfrwt>
<totfact> 0.44546491E+01</totfact>
</mgrwt>
</event>
<event>
 6    1  0.1353269E-005  0.1538420E+04  0.7818608E-02  0.8923678E-01
         21   -1    0    0  501  502  0.00000000000E+00  0.00000000000E+00  0.15750087579E+04  0.15750087579E+04  0.00000000000E+00 0.  1.
          4   -1    0    0  502    0 -0.00000000000E+00 -0.00000000000E+00 -0.18748673393E+04  0.18748673393E+04  0.00000000000E+00 0.  1.
    9000010    2    1    2  501    0 -0.11523809362E+04  0.29226701280E+03  0.88216155741E+03  0.17733995991E+04  0.97638890597E+03 0.  0.
        -13    1    3    3    0    0 -0.12170784461E+04  0.30613769002E+03  0.10221398448E+04  0.16185703886E+04  0.10566000000E+00 0.  1.
          4    1    3    3  501    0  0.64697509878E+02 -0.13870677229E+02 -0.13997828743E+03  0.15482921050E+03  0.00000000000E+00 0.  1.
         13    1    1    2    0    0  0.11523809362E+04 -0.29226701280E+03 -0.11820201389E+04  0.16764764981E+04  0.10566000000E+00 0. -1.
<mgrwt>
<rscale>  1 0.14424125E+04</rscale>
<asrwt>0</asrwt>
<pdfrwt beam="1">  1       21 0.24230904E+00 0.15384203E+04</pdfrwt>
<pdfrwt beam="2">  1        4 0.28844113E+00 0.15384203E+04</pdfrwt>
<totfact> 0.77765467E-02</totfact>
</mgrwt>
</event>
<event>
 6    1  0.1353269E-005  0.9965842E+03  0.7818608E-02  0.1005567E+00
          4   -1    0    0  502    0 -0.00000000000E+00  0.00000000000E+00  0.10112478176E+04  0.10112478176E+04  0.00000000000E+00 0.  1.
         21   -1    0    0  501  502  0.00000000000E+00 -0.00000000000E+00 -0.32775701501E+03  0.32775701501E+03  0.00000000000E+00 0.  1.
    9000010    2    1    2  501    0 -0.35677227256E+02  0.73150928257E+02  0.45326995170E+03  0.10948213479E+04  0.99325536088E+03 0.  0.
        -13    1    3    3    0    0  0.27427272896E+02 -0.45529916797E+03  0.13936953213E+03  0.47694178397E+03  0.10566000000E+00 0.  1.
          4    1    3    3  501    0 -0.63104500152E+02  0.52845009623E+03  0.31390041958E+03  0.61787956395E+03  0.00000000000E+00 0.  1.
         13    1    1    2    0    0  0.35677227256E+02 -0.73150928257E+02  0.23022085088E+03  0.24418348469E+03  0.10566000000E+00 0. -1.
<mgrwt>
<rscale>  1 0.53275190E+03</rscale>
<asrwt>0</asrwt>
<pdfrwt beam="2">  1       21 0.50424157E-01 0.99658423E+03</pdfrwt>
<pdfrwt beam="1">  1        4 0.15557659E+00 0.99658423E+03</pdfrwt>
<totfact> 0.39956538E+01</totfact>
</mgrwt>
</event>
<event>
 6    1  0.1353269E-005  0.1068288E+04  0.7818608E-02  0.9509161E-01
          4   -1    0    0  502    0 -0.00000000000E+00  0.00000000000E+00  0.20963787562E+04  0.20963787562E+04  0.00000000000E+00 0.  1.
         21   -1    0    0  501  502  0.00000000000E+00 -0.00000000000E+00 -0.25850924967E+03  0.25850924967E+03  0.00000000000E+00 0.  1.
    9000010    2    1    2  501    0  0.39701782302E+03 -0.55444416461E+02  0.12658336390E+04  0.16563736681E+04  0.99022305150E+03 0.  0.
        -13    1    3    3    0    0  0.35979495761E+03  0.14155495695E+03  0.13748389671E+04  0.14281710030E+04  0.10566000000E+00 0.  1.
          4    1    3    3  501    0  0.37222865416E+02 -0.19699937341E+03 -0.10900532803E+03  0.22820266513E+03  0.00000000000E+00 0.  1.
         13    1    1    2    0    0 -0.39701782302E+03  0.55444416461E+02  0.57203586749E+03  0.69851433770E+03  0.10566000000E+00 0. -1.
<mgrwt>
<rscale>  1 0.83611742E+03</rscale>
<asrwt>0</asrwt>
<pdfrwt beam="2">  1       21 0.39770655E-01 0.10682878E+04</pdfrwt>
<pdfrwt beam="1">  1        4 0.32251980E+00 0.10682878E+04</pdfrwt>
<totfact> 0.54558279E+00</totfact>
</mgrwt>
</event>
<event>
 6    1  0.1353269E-005  0.1064810E+04  0.7818608E-02  0.9494247E-01
         21   -1    0    0  501  502  0.00000000000E+00  0.00000000000E+00  0.10833510375E+04  0.10833510375E+04  0.00000000000E+00 0. -1.
          4   -1    0    0  502    0 -0.00000000000E+00 -0.00000000000E+00 -0.53087198483E+03  0.53087198483E+03  0.00000000000E+00 0.  1.
    9000010    2    1    2  501    0  0.41984988151E+03 -0.74956993012E+02  0.25702200463E+03  0.10953903401E+04  0.97566757270E+03 0.  0.
        -13    1    3    3    0    0  0.69962555757E+03 -0.23940061474E+03  0.15859317838E+03  0.75626740147E+03  0.10566000000E+00 0.  1.
          4    1    3    3  501    0 -0.27977567605E+03  0.16444362173E+03  0.98428826249E+02  0.33912293859E+03  0.00000000000E+00 0.  1.
         13    1    1    2    0    0 -0.41984988151E+03  0.74956993012E+02  0.29545704809E+03  0.51883268231E+03  0.10566000000E+00 0. -1.
<mgrwt>
<rscale>  1 0.84709262E+03</rscale>
<asrwt>0</asrwt>
<pdfrwt beam="1">  1       21 0.16666939E+00 0.10648097E+04</pdfrwt>
<pdfrwt beam="2">  1        4 0.81672613E-01 0.10648097E+04</pdfrwt>
<totfact> 0.10417341E+01</totfact>
</mgrwt>
</event>
<event>
 6    1  0.1353269E-005  0.1091303E+04  0.7818608E-02  0.9467405E-01
         21   -1    0    0  501  502  0.00000000000E+00  0.00000000000E+00  0.17471332087E+04  0.17471332087E+04  0.00000000000E+00 0.  1.
          4   -1    0    0  502    0 -0.00000000000E+00 -0.00000000000E+00 -0.64844852305E+03  0.64844852305E+03  0.00000000000E+00 0.  1.
    9000010    2    1    2  501    0  0.43241197239E+03 -0.50555900646E+02  0.14648782146E+04  0.18266935839E+04  0.10007023798E+04 0.  0.
        -13    1    3    3    0    0 -0.11736667053E+03 -0.19537448467E+03  0.11588090756E+04  0.11810099955E+04  0.10566000000E+00 0.  1.
          4    1    3    3  501    0  0.54977864292E+03  0.14481858402E+03  0.30606913895E+03  0.64568358839E+03  0.00000000000E+00 0.  1.
         13    1    1    2    0    0 -0.43241197239E+03  0.50555900646E+02 -0.36619352892E+03  0.56888814784E+03  0.10566000000E+00 0. -1.
<mgrwt>
<rscale>  1 0.86730200E+03</rscale>
<asrwt>0</asrwt>
<pdfrwt beam="1">  1       21 0.26878972E+00 0.10913026E+04</pdfrwt>
<pdfrwt beam="2">  1        4 0.99761312E-01 0.10913026E+04</pdfrwt>
<totfact> 0.13253194E+00</totfact>
</mgrwt>
</event>
<event>
 6    1  0.1353269E-005  0.1226661E+04  0.7818608E-02  0.9233877E-01
         21   -1    0    0  501  502  0.00000000000E+00  0.00000000000E+00  0.12114975439E+04  0.12114975439E+04  0.00000000000E+00 0. -1.
          4   -1    0    0  502    0 -0.00000000000E+00 -0.00000000000E+00 -0.77981470090E+03  0.77981470090E+03  0.00000000000E+00 0.  1.
    9000010    2    1    2  501    0 -0.69457049671E+03 -0.16088112567E+03  0.20863508158E+03  0.12442772881E+04  0.99819159532E+03 0.  0.
        -13    1    3    3    0    0 -0.13053753101E+03 -0.43209359857E+03  0.38584742892E+03  0.59382082693E+03  0.10566000000E+00 0.  1.
          4    1    3    3  501    0 -0.56403296570E+03  0.27121247291E+03 -0.17721234733E+03  0.65045646119E+03  0.00000000000E+00 0.  1.
         13    1    1    2    0    0  0.69457049671E+03  0.16088112567E+03  0.22304776143E+03  0.74703495670E+03  0.10566000000E+00 0. -1.
<mgrwt>
<rscale>  1 0.10710498E+04</rscale>
<asrwt>0</asrwt>
<pdfrwt beam="1">  1       21 0.18638424E+00 0.12266611E+04</pdfrwt>
<pdfrwt beam="2">  1        4 0.11997149E+00 0.12266611E+04</pdfrwt>
<totfact> 0.28936082E+00</totfact>
</mgrwt>
</event>
<event>
 6    1  0.1353269E-005  0.1049123E+04  0.7818608E-02  0.9943667E-01
         21   -1    0    0  501  502  0.00000000000E+00  0.00000000000E+00  0.67722900777E+03  0.67722900777E+03  0.00000000000E+00 0.  1.
          4   -1    0    0  502    0 -0.00000000000E+00 -0.00000000000E+00 -0.76916331121E+03  0.76916331121E+03  0.00000000000E+00 0.  1.
    9000010    2    1    2  501    0  0.79563030119E+02 -0.59411917086E+02  0.25988148979E+03  0.10808319065E+04  0.10444133136E+04 0.  0.
        -13    1    3    3    0    0  0.15662769906E+03  0.33050121403E+03  0.49772112630E+03  0.61764845933E+03  0.10566000000E+00 0.  1.
          4    1    3    3  501    0 -0.77064668939E+02 -0.38991313112E+03 -0.23783963651E+03  0.46318344715E+03  0.00000000000E+00 0.  1.
         13    1    1    2    0    0 -0.79563030119E+02  0.59411917086E+02 -0.35181579323E+03  0.36556041249E+03  0.10566000000E+00 0. -1.
<mgrwt>
<rscale>  1 0.58190862E+03</rscale>
<asrwt>0</asrwt>
<pdfrwt beam="1">  1       21 0.10418908E+00 0.10491231E+04</pdfrwt>
<pdfrwt beam="2">  1        4 0.11833282E+00 0.10491231E+04</pdfrwt>
<totfact> 0.15104098E+01</totfact>
</mgrwt>
</event>
<event>
 6    1  0.1353269E-005  0.1021074E+04  0.7818608E-02  0.1071653E+00
         21   -1    0    0  501  502  0.00000000000E+00  0.00000000000E+00  0.96089128263E+03  0.96089128263E+03  0.00000000000E+00 0.  1.
          4   -1    0    0  502    0 -0.00000000000E+00 -0.00000000000E+00 -0.28925550980E+03  0.28925550980E+03  0.00000000000E+00 0.  1.
    9000010    2    1    2  501    0  0.10795506393E+02  0.20206621447E+01  0.68742545628E+03  0.12309126743E+04  0.10210149988E+04 0.  0.
        -13    1    3    3    0    0  0.42118925800E+03  0.21470067104E+03  0.99622234829E+02  0.48313700959E+03  0.10566000000E+00 0.  1.
          4    1    3    3  501    0 -0.41039375161E+03 -0.21268000889E+03  0.58780322145E+03  0.74777566468E+03  0.00000000000E+00 0.  1.
         13    1    1    2    0    0 -0.10795506393E+02 -0.20206621447E+01 -0.15789683451E+02  0.19234118158E+02  0.10566000000E+00 0. -1.
<mgrwt>
<rscale>  1 0.32883504E+03</rscale>
<asrwt>0</asrwt>
<pdfrwt beam="1">  1       21 0.14782943E+00 0.10210741E+04</pdfrwt>
<pdfrwt beam="2">  1        4 0.44500848E-01 0.10210741E+04</pdfrwt>
<totfact> 0.55431030E+01</totfact>
</mgrwt>
</event>
<event>
 6    1  0.1353269E-005  0.9483414E+03  0.7818608E-02  0.9948009E-01
          4   -1    0    0  502    0 -0.00000000000E+00  0.00000000000E+00  0.53312982751E+03  0.53312982751E+03  0.00000000000E+00 0.  1.
         21   -1    0    0  501  502  0.00000000000E+00 -0.00000000000E+00 -0.58819348628E+03  0.58819348628E+03  0.00000000000E+00 0.  1.
    9000010    2    1    2  501    0  0.11667658261E+03 -0.62984696840E+02 -0.14742765970E+03  0.95973242049E+03  0.93902657424E+03 0.  0.
        -13    1    3    3    0    0  0.24499901217E+02  0.36046225607E+03  0.19211260363E+03  0.40919499856E+03  0.10566000000E+00 0.  1.
          4    1    3    3  501    0  0.92176681393E+02 -0.42344695291E+03 -0.33954026333E+03  0.55053742193E+03  0.00000000000E+00 0.  1.
         13    1    1    2    0    0 -0.11667658261E+03  0.62984696840E+02  0.92364000928E+02  0.16159089330E+03  0.10566000000E+00 0. -1.
<mgrwt>
<rscale>  1 0.57989913E+03</rscale>
<asrwt>0</asrwt>
<pdfrwt beam="2">  1       21 0.90491306E-01 0.94834140E+03</pdfrwt>
<pdfrwt beam="1">  1        4 0.82019973E-01 0.94834140E+03</pdfrwt>
<totfact> 0.52021069E+01</totfact>
</mgrwt>
</event>
<event>
 6    1  0.1353269E-005  0.1402204E+04  0.7818608E-02  0.9059161E-01
         21   -1    0    0  501  502  0.00000000000E+00  0.00000000000E+00  0.13088543206E+04  0.13088543206E+04  0.00000000000E+00 0. -1.
          4   -1    0    0  502    0 -0.00000000000E+00 -0.00000000000E+00 -0.10739470948E+04  0.10739470948E+04  0.00000000000E+00 0.  1.
    9000010    2    1    2  501    0 -0.91861477737E+03  0.98868451368E+02  0.36712716423E+03  0.14494685684E+04  0.10547742395E+04 0.  0.
        -13    1    3    3    0    0 -0.91321714458E+03 -0.33003620598E+03  0.29218562638E+03  0.10140324955E+04  0.10566000000E+00 0.  1.
          4    1    3    3  501    0 -0.53976327868E+01  0.42890465735E+03  0.74941537847E+02  0.43543607295E+03  0.00000000000E+00 0.  1.
         13    1    1    2    0    0  0.91861477737E+03 -0.98868451368E+02 -0.13221993842E+03  0.93333284693E+03  0.10566000000E+00 0. -1.
<mgrwt>
<rscale>  1 0.12633307E+04</rscale>
<asrwt>0</asrwt>
<pdfrwt beam="1">  1       21 0.20136220E+00 0.14022043E+04</pdfrwt>
<pdfrwt beam="2">  1        4 0.16522263E+00 0.14022043E+04</pdfrwt>
<totfact> 0.94955698E-01</totfact>
</mgrwt>
</event>
<event>
 6    1  0.1353269E-005  0.1039964E+04  0.7818608E-02  0.9532716E-01
          4   -1    0    0  502    0 -0.00000000000E+00  0.00000000000E+00  0.49573818206E+03  0.49573818206E+03  0.00000000000E+00 0.  1.
         21   -1    0    0  501  502  0.00000000000E+00 -0.00000000000E+00 -0.10585284182E+04  0.10585284182E+04  0.00000000000E+00 0.  1.
    9000010    2    1    2  501    0 -0.14292699195E+03 -0.37391111314E+03 -0.48048297169E+03  0.11455954091E+04  0.95983712662E+03 0.  0.
        -13    1    3    3    0    0  0.80566657242E+01  0.31663930047E+03 -0.24534388085E+03  0.40064820915E+03  0.10566000000E+00 0.  1.
          4    1    3    3  501    0 -0.15098365767E+03 -0.69055041361E+03 -0.23513909084E+03  0.74494719992E+03  0.00000000000E+00 0.  1.
         13    1    1    2    0    0  0.14292699195E+03  0.37391111314E+03 -0.82307264427E+02  0.40867119118E+03  0.10566000000E+00 0. -1.
<mgrwt>
<rscale>  1 0.81914216E+03</rscale>
<asrwt>0</asrwt>
<pdfrwt beam="2">  1       21 0.16285052E+00 0.10399639E+04</pdfrwt>
<pdfrwt beam="1">  1        4 0.76267413E-01 0.10399639E+04</pdfrwt>
<totfact> 0.13072613E+01</totfact>
</mgrwt>
</event>
<event>
 6    1  0.1353269E-005  0.1019908E+04  0.7818608E-02  0.9751321E-01
         21   -1    0    0  501  502  0.00000000000E+00  0.00000000000E+00  0.77905127477E+03  0.77905127477E+03  0.00000000000E+00 0.  1.
          4   -1    0    0  502    0 -0.00000000000E+00 -0.00000000000E+00 -0.50536157610E+03  0.50536157610E+03  0.00000000000E+00 0.  1.
    9000010    2    1    2  501    0  0.31325035807E+02  0.19958714490E+03  0.33461403229E+03  0.10733960936E+04  0.99969812283E+03 0.  0.
        -13    1    3    3    0    0  0.24713567957E+03  0.52229890188E+03  0.36588100556E+03  0.68391600977E+03  0.10566000000E+00 0.  1.
          4    1    3    3  501    0 -0.21581064376E+03 -0.32271175698E+03 -0.31266973270E+02  0.38948008380E+03  0.00000000000E+00 0.  1.
         13    1    1    2    0    0 -0.31325035807E+02 -0.19958714490E+03 -0.60924333615E+02  0.21101675731E+03  0.10566000000E+00 0. -1.
<mgrwt>
<rscale>  1 0.68041675E+03</rscale>
<asrwt>0</asrwt>
<pdfrwt beam="1">  1       21 0.11985404E+00 0.10199081E+04</pdfrwt>
<pdfrwt beam="2">  1        4 0.77747935E-01 0.10199081E+04</pdfrwt>
<totfact> 0.28939514E+01</totfact>
</mgrwt>
</event>
<event>
 6    1  0.1377851E-005  0.8920029E+03  0.7818608E-02  0.1002338E+00
         21   -1    0    0  501  502  0.00000000000E+00  0.00000000000E+00  0.12753132625E+03  0.12753132625E+03  0.00000000000E+00 0.  1.
          4   -1    0    0  502    0 -0.00000000000E+00 -0.00000000000E+00 -0.20445492663E+04  0.20445492663E+04  0.00000000000E+00 0.  1.
    9000010    2    1    2  501    0 -0.79774621295E+02  0.96956529535E+02 -0.16141926839E+04  0.18442579183E+04  0.88312212613E+03 0.  0.
        -13    1    3    3    0    0 -0.19712323625E+03  0.38404041496E+03 -0.39124008122E+03  0.58259198665E+03  0.10566000000E+00 0.  1.
          4    1    3    3  501    0  0.11734861496E+03 -0.28708388542E+03 -0.12229526027E+04  0.12616659317E+04  0.00000000000E+00 0.  1.
         13    1    1    2    0    0  0.79774621295E+02 -0.96956529535E+02 -0.30282525617E+03  0.32782267426E+03  0.10566000000E+00 0. -1.
<mgrwt>
<rscale>  1 0.54636766E+03</rscale>
<asrwt>0</asrwt>
<pdfrwt beam="1">  1       21 0.19620205E-01 0.89200294E+03</pdfrwt>
<pdfrwt beam="2">  1        4 0.31454603E+00 0.89200294E+03</pdfrwt>
<totfact> 0.25798366E+01</totfact>
</mgrwt>
</event>
<event>
 6    1  0.1353269E-005  0.1127820E+04  0.7818608E-02  0.9406844E-01
         21   -1    0    0  501  502  0.00000000000E+00  0.00000000000E+00  0.13126878077E+04  0.13126878077E+04  0.00000000000E+00 0.  1.
          4   -1    0    0  502    0 -0.00000000000E+00 -0.00000000000E+00 -0.58967280960E+03  0.58967280960E+03  0.00000000000E+00 0.  1.
    9000010    2    1    2  501    0  0.27682368607E+03 -0.40300910255E+03  0.83192130591E+03  0.14014531558E+04  0.10163317366E+04 0.  0.
        -13    1    3    3    0    0  0.23486116377E+03  0.91506984253E+02 -0.15561308600E+03  0.29622413492E+03  0.10566000000E+00 0.  1.
          4    1    3    3  501    0  0.41962522295E+02 -0.49451608681E+03  0.98753439190E+03  0.11052290209E+04  0.00000000000E+00 0.  1.
         13    1    1    2    0    0 -0.27682368607E+03  0.40300910255E+03 -0.10890630785E+03  0.50090746147E+03  0.10566000000E+00 0. -1.
<mgrwt>
<rscale>  1 0.91514604E+03</rscale>
<asrwt>0</asrwt>
<pdfrwt beam="1">  1       21 0.20195197E+00 0.11278200E+04</pdfrwt>
<pdfrwt beam="2">  1        4 0.90718894E-01 0.11278200E+04</pdfrwt>
<totfact> 0.45067318E+00</totfact>
</mgrwt>
</event>
<event>
 6    1  0.1353269E-005  0.9100036E+03  0.7818608E-02  0.9896746E-01
          4   -1    0    0  502    0 -0.00000000000E+00  0.00000000000E+00  0.39064597735E+03  0.39064597735E+03  0.00000000000E+00 0.  1.
         21   -1    0    0  501  502  0.00000000000E+00 -0.00000000000E+00 -0.12573711513E+04  0.12573711513E+04  0.00000000000E+00 0. -1.
    9000010    2    1    2  501    0  0.15063780614E+03 -0.92624950676E+02 -0.16561713222E+03  0.92495169077E+03  0.89265640963E+03 0.  0.
        -13    1    3    3    0    0 -0.14708261500E+03  0.31753460737E+03 -0.22289736236E+03  0.41490332347E+03  0.10566000000E+00 0.  1.
          4    1    3    3  501    0  0.29772042114E+03 -0.41015955805E+03  0.57280230139E+02  0.51004836730E+03  0.00000000000E+00 0.  1.
         13    1    1    2    0    0 -0.15063780614E+03  0.92624950676E+02 -0.70110804175E+03  0.72306543791E+03  0.10566000000E+00 0. -1.
<mgrwt>
<rscale>  1 0.60419254E+03</rscale>
<asrwt>0</asrwt>
<pdfrwt beam="2">  1       21 0.19344172E+00 0.91000362E+03</pdfrwt>
<pdfrwt beam="1">  1        4 0.60099381E-01 0.91000362E+03</pdfrwt>
<totfact> 0.13506617E+01</totfact>
</mgrwt>
</event>
<event>
 6    1  0.1353269E-005  0.1030765E+04  0.7818608E-02  0.9645258E-01
          4   -1    0    0  502    0 -0.00000000000E+00  0.00000000000E+00  0.10916882186E+04  0.10916882186E+04  0.00000000000E+00 0.  1.
         21   -1    0    0  501  502  0.00000000000E+00 -0.00000000000E+00 -0.40171287299E+03  0.40171287299E+03  0.00000000000E+00 0.  1.
    9000010    2    1    2  501    0 -0.93836802568E+02 -0.26312180213E+03  0.44836509634E+03  0.11240584973E+04  0.99218839812E+03 0.  0.
        -13    1    3    3    0    0  0.24888290454E+03  0.27975507318E+03  0.76645371509E+02  0.38220429783E+03  0.10566000000E+00 0.  1.
          4    1    3    3  501    0 -0.34271970711E+03 -0.54287687531E+03  0.37171972483E+03  0.74185419943E+03  0.00000000000E+00 0.  1.
         13    1    1    2    0    0  0.93836802568E+02  0.26312180213E+03  0.24161024931E+03  0.36934259436E+03  0.10566000000E+00 0. -1.
<mgrwt>
<rscale>  1 0.74371798E+03</rscale>
<asrwt>0</asrwt>
<pdfrwt beam="2">  1       21 0.61801981E-01 0.10307649E+04</pdfrwt>
<pdfrwt beam="1">  1        4 0.16795203E+00 0.10307649E+04</pdfrwt>
<totfact> 0.20593077E+01</totfact>
</mgrwt>
</event>
<event>
 6    1  0.1353269E-005  0.1097300E+04  0.7818608E-02  0.9439808E-01
         21   -1    0    0  501  502  0.00000000000E+00  0.00000000000E+00  0.68184469589E+03  0.68184469589E+03  0.00000000000E+00 0.  1.
          4   -1    0    0  502    0 -0.00000000000E+00 -0.00000000000E+00 -0.11404509937E+04  0.11404509937E+04  0.00000000000E+00 0.  1.
    9000010    2    1    2  501    0 -0.89760779483E+02 -0.46351796738E+03  0.87037909598E+02  0.11007463040E+04  0.99053567551E+03 0.  0.
        -13    1    3    3    0    0 -0.23649134567E+03 -0.35701007979E+03 -0.39694953275E+03  0.58391206218E+03  0.10566000000E+00 0.  1.
          4    1    3    3  501    0  0.14673056619E+03 -0.10650788759E+03  0.48398744235E+03  0.51683424183E+03  0.00000000000E+00 0.  1.
         13    1    1    2    0    0  0.89760779483E+02  0.46351796738E+03 -0.54564420744E+03  0.72154938563E+03  0.10566000000E+00 0. -1.
<mgrwt>
<rscale>  1 0.88870817E+03</rscale>
<asrwt>0</asrwt>
<pdfrwt beam="1">  1       21 0.10489918E+00 0.10972998E+04</pdfrwt>
<pdfrwt beam="2">  1        4 0.17545400E+00 0.10972998E+04</pdfrwt>
<totfact> 0.51681451E+00</totfact>
</mgrwt>
</event>
<event>
 6    1  0.1353269E-005  0.9902205E+03  0.7818608E-02  0.1011752E+00
          4   -1    0    0  502    0 -0.00000000000E+00  0.00000000000E+00  0.23956956328E+03  0.23956956328E+03  0.00000000000E+00 0.  1.
         21   -1    0    0  501  502  0.00000000000E+00 -0.00000000000E+00 -0.14618282735E+04  0.14618282735E+04  0.00000000000E+00 0.  1.
    9000010    2    1    2  501    0 -0.50563870238E+02  0.46217744039E+02 -0.12754152624E+04  0.16146890423E+04  0.98784807894E+03 0.  0.
        -13    1    3    3    0    0  0.13429681118E+03 -0.44098436165E+03 -0.70246426727E+03  0.84021360300E+03  0.10566000000E+00 0.  1.
          4    1    3    3  501    0 -0.18486068142E+03  0.48720210569E+03 -0.57295099511E+03  0.77447543933E+03  0.00000000000E+00 0.  1.
         13    1    1    2    0    0  0.50563870238E+02 -0.46217744039E+02  0.53156552141E+02  0.86708794462E+02  0.10566000000E+00 0. -1.
<mgrwt>
<rscale>  1 0.50784115E+03</rscale>
<asrwt>0</asrwt>
<pdfrwt beam="2">  1       21 0.22489666E+00 0.99022049E+03</pdfrwt>
<pdfrwt beam="1">  1        4 0.36856856E-01 0.99022049E+03</pdfrwt>
<totfact> 0.22792601E+01</totfact>
</mgrwt>
</event>
<event>
 6    1  0.1353269E-005  0.1150594E+04  0.7818608E-02  0.9360902E-01
          4   -1    0    0  502    0 -0.00000000000E+00  0.00000000000E+00  0.83088760367E+03  0.83088760367E+03  0.00000000000E+00 0.  1.
         21   -1    0    0  501  502  0.00000000000E+00 -0.00000000000E+00 -0.10533648219E+04  0.10533648219E+04  0.00000000000E+00 0. -1.
    9000010    2    1    2  501    0 -0.38817041551E+03 -0.37966203487E+03 -0.52275532986E+03  0.12637796318E+04  0.10144191889E+04 0.  0.
        -13    1    3    3    0    0 -0.13339119477E+03 -0.71094674489E+03 -0.40756532939E+03  0.83026983192E+03  0.10566000000E+00 0.  1.
          4    1    3    3  501    0 -0.25477922074E+03  0.33128471002E+03 -0.11519000047E+03  0.43350979991E+03  0.00000000000E+00 0.  1.
         13    1    1    2    0    0  0.38817041551E+03  0.37966203487E+03  0.30027811168E+03  0.62047279369E+03  0.10566000000E+00 0. -1.
<mgrwt>
<rscale>  1 0.95364343E+03</rscale>
<asrwt>0</asrwt>
<pdfrwt beam="2">  1       21 0.16205613E+00 0.11505937E+04</pdfrwt>
<pdfrwt beam="1">  1        4 0.12782886E+00 0.11505937E+04</pdfrwt>
<totfact> 0.37678583E+00</totfact>
</mgrwt>
</event>
<event>
 6    1  0.1353269E-005  0.1088852E+04  0.7818608E-02  0.9507863E-01
         21   -1    0    0  501  502  0.00000000000E+00  0.00000000000E+00  0.23382126242E+03  0.23382126242E+03  0.00000000000E+00 0.  1.
          4   -1    0    0  502    0 -0.00000000000E+00 -0.00000000000E+00 -0.27563903835E+04  0.27563903835E+04  0.00000000000E+00 0.  1.
    9000010    2    1    2  501    0 -0.93303301257E+02  0.36868259649E+03 -0.12293095948E+04  0.16421936281E+04  0.10202771531E+04 0.  0.
        -13    1    3    3    0    0 -0.36626618089E+03  0.57517186734E+03 -0.10598832164E+04  0.12602880765E+04  0.10566000000E+00 0.  1.
          4    1    3    3  501    0  0.27296287963E+03 -0.20648927084E+03 -0.16942637846E+03  0.38190555160E+03  0.00000000000E+00 0.  1.
         13    1    1    2    0    0  0.93303301257E+02 -0.36868259649E+03 -0.12932595262E+04  0.13480180178E+04  0.10566000000E+00 0. -1.
<mgrwt>
<rscale>  1 0.83706602E+03</rscale>
<asrwt>0</asrwt>
<pdfrwt beam="1">  1       21 0.35972503E-01 0.10888516E+04</pdfrwt>
<pdfrwt beam="2">  1        4 0.42406004E+00 0.10888516E+04</pdfrwt>
<totfact> 0.13997944E+00</totfact>
</mgrwt>
</event>
<event>
 6    1  0.1353269E-005  0.9741555E+03  0.7818608E-02  0.9768268E-01
         21   -1    0    0  501  502  0.00000000000E+00  0.00000000000E+00  0.11158528171E+03  0.11158528171E+03  0.00000000000E+00 0.  1.
          4   -1    0    0  502    0 -0.00000000000E+00 -0.00000000000E+00 -0.33696400904E+04  0.33696400904E+04  0.00000000000E+00 0.  1.
    9000010    2    1    2  501    0 -0.78476581386E+01  0.21905952733E+03 -0.22886610032E+04  0.24873576628E+04  0.94917347890E+03 0.  0.
        -13    1    3    3    0    0 -0.24940889527E+03  0.19095607325E+03 -0.22093396486E+04  0.22315579116E+04  0.10566000000E+00 0.  1.
          4    1    3    3  501    0  0.24156123713E+03  0.28103454078E+02 -0.79321354593E+02  0.25579975119E+03  0.00000000000E+00 0.  1.
         13    1    1    2    0    0  0.78476581386E+01 -0.21905952733E+03 -0.96939380553E+03  0.99386770931E+03  0.10566000000E+00 0. -1.
<mgrwt>
<rscale>  1 0.67093646E+03</rscale>
<asrwt>0</asrwt>
<pdfrwt beam="1">  1       21 0.17166966E-01 0.97415551E+03</pdfrwt>
<pdfrwt beam="2">  1        4 0.51840619E+00 0.97415551E+03</pdfrwt>
<totfact> 0.11603308E+00</totfact>
</mgrwt>
</event>
<event>
 6    1  0.1353269E-005  0.1071796E+04  0.7818608E-02  0.9492443E-01
          4   -1    0    0  502    0 -0.00000000000E+00  0.00000000000E+00  0.90671265762E+03  0.90671265762E+03  0.00000000000E+00 0.  1.
         21   -1    0    0  501  502  0.00000000000E+00 -0.00000000000E+00 -0.69401115530E+03  0.69401115530E+03  0.00000000000E+00 0.  1.
    9000010    2    1    2  501    0 -0.37823774347E+03 -0.18454398378E+03 -0.99944338673E+02  0.10764455418E+04  0.98571084048E+03 0.  0.
        -13    1    3    3    0    0 -0.68292681632E+03 -0.19292948572E+03  0.92973465422E+02  0.71571984697E+03  0.10566000000E+00 0.  1.
          4    1    3    3  501    0  0.30468907285E+03  0.83855019440E+01 -0.19291780409E+03  0.36072569481E+03  0.00000000000E+00 0.  1.
         13    1    1    2    0    0  0.37823774347E+03  0.18454398378E+03  0.31264584100E+03  0.52427827114E+03  0.10566000000E+00 0. -1.
<mgrwt>
<rscale>  1 0.84843302E+03</rscale>
<asrwt>0</asrwt>
<pdfrwt beam="2">  1       21 0.10677095E+00 0.10717958E+04</pdfrwt>
<pdfrwt beam="1">  1        4 0.13949425E+00 0.10717958E+04</pdfrwt>
<totfact> 0.92873886E+00</totfact>
</mgrwt>
</event>
<event>
 6    1  0.1353269E-005  0.1011711E+04  0.7818608E-02  0.1011112E+00
          4   -1    0    0  502    0 -0.00000000000E+00  0.00000000000E+00  0.94202825832E+03  0.94202825832E+03  0.00000000000E+00 0.  1.
         21   -1    0    0  501  502  0.00000000000E+00 -0.00000000000E+00 -0.34115297493E+03  0.34115297493E+03  0.00000000000E+00 0.  1.
    9000010    2    1    2  501    0 -0.65510123919E+02 -0.11607431654E+00  0.42838238754E+03  0.10986672769E+04  0.10095874036E+04 0.  0.
        -13    1    3    3    0    0  0.31266179771E+03 -0.36039025161E+03  0.11948616797E+03  0.49184905073E+03  0.10566000000E+00 0.  1.
          4    1    3    3  501    0 -0.37817192163E+03  0.36027417729E+03  0.30889621957E+03  0.60681822616E+03  0.00000000000E+00 0.  1.
         13    1    1    2    0    0  0.65510123919E+02  0.11607431654E+00  0.17249289585E+03  0.18451395636E+03  0.10566000000E+00 0. -1.
<mgrwt>
<rscale>  1 0.51035179E+03</rscale>
<asrwt>0</asrwt>
<pdfrwt beam="2">  1       21 0.52485073E-01 0.10117106E+04</pdfrwt>
<pdfrwt beam="1">  1        4 0.14492742E+00 0.10117106E+04</pdfrwt>
<totfact> 0.44255481E+01</totfact>
</mgrwt>
</event>
<event>
 6    1  0.1353269E-005  0.1021320E+04  0.7818608E-02  0.9643216E-01
         21   -1    0    0  501  502  0.00000000000E+00  0.00000000000E+00  0.80276118195E+03  0.80276118195E+03  0.00000000000E+00 0.  1.
          4   -1    0    0  502    0 -0.00000000000E+00 -0.00000000000E+00 -0.70290445129E+03  0.70290445129E+03  0.00000000000E+00 0.  1.
    9000010    2    1    2  501    0 -0.24713619615E+03  0.15014704045E+03  0.39260181958E+03  0.10941803583E+04  0.97952745476E+03 0.  0.
        -13    1    3    3    0    0  0.35949004251E+03 -0.24804905744E+02  0.19601203296E+02  0.36087753095E+03  0.10566000000E+00 0.  1.
          4    1    3    3  501    0 -0.60662623866E+03  0.17495194620E+03  0.37300061629E+03  0.73330282739E+03  0.00000000000E+00 0.  1.
         13    1    1    2    0    0  0.24713619615E+03 -0.15014704045E+03 -0.29274508892E+03  0.41148527490E+03  0.10566000000E+00 0. -1.
<mgrwt>
<rscale>  1 0.74500712E+03</rscale>
<asrwt>0</asrwt>
<pdfrwt beam="1">  1       21 0.12350172E+00 0.10213200E+04</pdfrwt>
<pdfrwt beam="2">  1        4 0.10813915E+00 0.10213200E+04</pdfrwt>
<totfact> 0.12253173E+01</totfact>
</mgrwt>
</event>
<event>
 6    1  0.1353269E-005  0.1034855E+04  0.7818608E-02  0.9655064E-01
          4   -1    0    0  502    0 -0.00000000000E+00  0.00000000000E+00  0.47712453872E+03  0.47712453872E+03  0.00000000000E+00 0.  1.
         21   -1    0    0  501  502  0.00000000000E+00 -0.00000000000E+00 -0.96091071581E+03  0.96091071581E+03  0.00000000000E+00 0.  1.
    9000010    2    1    2  501    0 -0.29443318491E+02 -0.26540353704E+03 -0.53679507700E+03  0.11657928972E+04  0.99980907079E+03 0.  0.
        -13    1    3    3    0    0  0.26696983012E+03  0.72640428258E+02  0.17247460492E+03  0.32603224153E+03  0.10566000000E+00 0.  1.
          4    1    3    3  501    0 -0.29641314861E+03 -0.33804396530E+03 -0.70926968192E+03  0.83976065569E+03  0.00000000000E+00 0.  1.
         13    1    1    2    0    0  0.29443318491E+02  0.26540353704E+03  0.53008899910E+02  0.27224235730E+03  0.10566000000E+00 0. -1.
<mgrwt>
<rscale>  1 0.73756490E+03</rscale>
<asrwt>0</asrwt>
<pdfrwt beam="2">  1       21 0.14783242E+00 0.10348546E+04</pdfrwt>
<pdfrwt beam="1">  1        4 0.73403775E-01 0.10348546E+04</pdfrwt>
<totfact> 0.18755932E+01</totfact>
</mgrwt>
</event>
<event>
 6    1  0.1353269E-005  0.1082968E+04  0.7818608E-02  0.9431226E-01
          4   -1    0    0  502    0 -0.00000000000E+00  0.00000000000E+00  0.45672264498E+03  0.45672264498E+03  0.00000000000E+00 0.  1.
         21   -1    0    0  501  502  0.00000000000E+00 -0.00000000000E+00 -0.22189488093E+04  0.22189488093E+04  0.00000000000E+00 0. -1.
    9000010    2    1    2  501    0 -0.12654189396E+03  0.49023669248E+03 -0.29336579593E+03  0.11219997842E+04  0.95732709136E+03 0.  0.
        -13    1    3    3    0    0  0.74285230783E+02 -0.22639584516E+03 -0.29313608268E+03  0.37775937891E+03  0.10566000000E+00 0.  1.
          4    1    3    3  501    0 -0.20082712474E+03  0.71663253764E+03 -0.22971325325E+00  0.74424040525E+03  0.00000000000E+00 0.  1.
         13    1    1    2    0    0  0.12654189396E+03 -0.49023669248E+03 -0.14688603684E+04  0.15536716701E+04  0.10566000000E+00 0. -1.
<mgrwt>
<rscale>  1 0.89549858E+03</rscale>
<asrwt>0</asrwt>
<pdfrwt beam="2">  1       21 0.34137674E+00 0.10829682E+04</pdfrwt>
<pdfrwt beam="1">  1        4 0.70265023E-01 0.10829682E+04</pdfrwt>
<totfact> 0.10532560E+00</totfact>
</mgrwt>
</event>
<event>
 6    1  0.1353269E-005  0.1033861E+04  0.7818608E-02  0.9660900E-01
          4   -1    0    0  502    0 -0.00000000000E+00  0.00000000000E+00  0.81714415670E+03  0.81714415670E+03  0.00000000000E+00 0.  1.
         21   -1    0    0  501  502  0.00000000000E+00 -0.00000000000E+00 -0.94554321997E+03  0.94554321997E+03  0.00000000000E+00 0.  1.
    9000010    2    1    2  501    0 -0.25503249260E+03 -0.62445102414E+02 -0.61988921779E+03  0.12054589260E+04  0.99996380774E+03 0.  0.
        -13    1    3    3    0    0  0.30176843626E+03 -0.30252266690E+03 -0.26820790476E+03  0.50449939985E+03  0.10566000000E+00 0.  1.
          4    1    3    3  501    0 -0.55680092885E+03  0.24007756448E+03 -0.35168131303E+03  0.70095952613E+03  0.00000000000E+00 0.  1.
         13    1    1    2    0    0  0.25503249260E+03  0.62445102414E+02  0.49149015452E+03  0.55722845068E+03  0.10566000000E+00 0. -1.
<mgrwt>
<rscale>  1 0.73393279E+03</rscale>
<asrwt>0</asrwt>
<pdfrwt beam="2">  1       21 0.14546819E+00 0.10338610E+04</pdfrwt>
<pdfrwt beam="1">  1        4 0.12571448E+00 0.10338610E+04</pdfrwt>
<totfact> 0.54100516E+00</totfact>
</mgrwt>
</event>
<event>
 6    1  0.1353269E-005  0.1154937E+04  0.7818608E-02  0.9328321E-01
          4   -1    0    0  502    0 -0.00000000000E+00  0.00000000000E+00  0.14919853066E+04  0.14919853066E+04  0.00000000000E+00 0.  1.
         21   -1    0    0  501  502  0.00000000000E+00 -0.00000000000E+00 -0.68935667487E+03  0.68935667487E+03  0.00000000000E+00 0.  1.
    9000010    2    1    2  501    0 -0.58159978562E+03 -0.16313156715E+03 -0.26827647272E+02  0.11552484435E+04  0.98438256010E+03 0.  0.
        -13    1    3    3    0    0 -0.47475035559E+03  0.36667899221E+03 -0.10550201788E+03  0.60907476586E+03  0.10566000000E+00 0.  1.
          4    1    3    3  501    0 -0.10684943002E+03 -0.52981055936E+03  0.78674370612E+02  0.54617367760E+03  0.00000000000E+00 0.  1.
         13    1    1    2    0    0  0.58159978562E+03  0.16313156715E+03  0.82945627902E+03  0.10260935380E+04  0.10566000000E+00 0. -1.
<mgrwt>
<rscale>  1 0.98216849E+03</rscale>
<asrwt>0</asrwt>
<pdfrwt beam="2">  1       21 0.10605487E+00 0.11549369E+04</pdfrwt>
<pdfrwt beam="1">  1        4 0.22953620E+00 0.11549369E+04</pdfrwt>
<totfact> 0.21837667E+00</totfact>
</mgrwt>
</event>
<event>
 6    1  0.1353269E-005  0.9759656E+03  0.7818608E-02  0.1005783E+00
         21   -1    0    0  501  502  0.00000000000E+00  0.00000000000E+00  0.18035852447E+04  0.18035852447E+04  0.00000000000E+00 0. -1.
          4   -1    0    0  502    0 -0.00000000000E+00 -0.00000000000E+00 -0.15682022365E+03  0.15682022365E+03  0.00000000000E+00 0.  1.
    9000010    2    1    2  501    0  0.62962309641E+02  0.58690650014E+02  0.14816708024E+04  0.17742201922E+04  0.97216257853E+03 0.  0.
        -13    1    3    3    0    0 -0.25991555621E+03  0.54318929242E+02  0.14210833145E+04  0.14456778481E+04  0.10566000000E+00 0.  1.
          4    1    3    3  501    0  0.32287786585E+03  0.43717207720E+01  0.60587487807E+02  0.32854234412E+03  0.00000000000E+00 0.  1.
         13    1    1    2    0    0 -0.62962309641E+02 -0.58690650014E+02  0.16509421868E+03  0.18618527611E+03  0.10566000000E+00 0. -1.
<mgrwt>
<rscale>  1 0.53185696E+03</rscale>
<asrwt>0</asrwt>
<pdfrwt beam="1">  1       21 0.27747464E+00 0.97596564E+03</pdfrwt>
<pdfrwt beam="2">  1        4 0.24126190E-01 0.97596564E+03</pdfrwt>
<totfact> 0.24227709E+01</totfact>
</mgrwt>
</event>
<event>
 6    1  0.1353269E-005  0.1031750E+04  0.7818608E-02  0.9696615E-01
          4   -1    0    0  502    0 -0.00000000000E+00  0.00000000000E+00  0.21626731326E+03  0.21626731326E+03  0.00000000000E+00 0.  1.
         21   -1    0    0  501  502  0.00000000000E+00 -0.00000000000E+00 -0.18750584052E+04  0.18750584052E+04  0.00000000000E+00 0.  1.
    9000010    2    1    2  501    0  0.20246578408E+03 -0.11778681956E+03 -0.12566331733E+04  0.16259257493E+04  0.10048091766E+04 0.  0.
        -13    1    3    3    0    0 -0.30931760036E+03 -0.35241870837E+02 -0.10002804401E+04  0.10476069575E+04  0.10566000000E+00 0.  1.
          4    1    3    3  501    0  0.51178338444E+03 -0.82544948724E+02 -0.25635273317E+03  0.57831879180E+03  0.00000000000E+00 0.  1.
         13    1    1    2    0    0 -0.20246578408E+03  0.11778681956E+03 -0.40215791867E+03  0.46539996916E+03  0.10566000000E+00 0. -1.
<mgrwt>
<rscale>  1 0.71218676E+03</rscale>
<asrwt>0</asrwt>
<pdfrwt beam="2">  1       21 0.28847053E+00 0.10317498E+04</pdfrwt>
<pdfrwt beam="1">  1        4 0.33271894E-01 0.10317498E+04</pdfrwt>
<totfact> 0.10982420E+01</totfact>
</mgrwt>
</event>
<event>
 6    1  0.1353269E-005  0.1042599E+04  0.7818608E-02  0.9503972E-01
          4   -1    0    0  502    0 -0.00000000000E+00  0.00000000000E+00  0.71634793660E+03  0.71634793660E+03  0.00000000000E+00 0.  1.
         21   -1    0    0  501  502  0.00000000000E+00 -0.00000000000E+00 -0.84274402483E+03  0.84274402483E+03  0.00000000000E+00 0.  1.
    9000010    2    1    2  501    0  0.35145657560E+03  0.26327304145E+03 -0.30306942071E+03  0.10857549816E+04  0.94561006099E+03 0.  0.
        -13    1    3    3    0    0  0.23924451387E+03  0.61932389119E+03 -0.14077399727E+03  0.67868796150E+03  0.10566000000E+00 0.  1.
          4    1    3    3  501    0  0.11221206173E+03 -0.35605084974E+03 -0.16229542343E+03  0.40706702012E+03  0.00000000000E+00 0.  1.
         13    1    1    2    0    0 -0.35145657560E+03 -0.26327304145E+03  0.17667333248E+03  0.47333697982E+03  0.10566000000E+00 0. -1.
<mgrwt>
<rscale>  1 0.83991642E+03</rscale>
<asrwt>0</asrwt>
<pdfrwt beam="2">  1       21 0.12965293E+00 0.10425991E+04</pdfrwt>
<pdfrwt beam="1">  1        4 0.11020738E+00 0.10425991E+04</pdfrwt>
<totfact> 0.10262390E+01</totfact>
</mgrwt>
</event>
<event>
 6    1  0.1353269E-005  0.1025270E+04  0.7818608E-02  0.1000791E+00
          4   -1    0    0  502    0 -0.00000000000E+00  0.00000000000E+00  0.79655683434E+03  0.79655683434E+03  0.00000000000E+00 0.  1.
         21   -1    0    0  501  502  0.00000000000E+00 -0.00000000000E+00 -0.41816162359E+03  0.41816162359E+03  0.00000000000E+00 0.  1.
    9000010    2    1    2  501    0 -0.75395812891E+02 -0.43012550651E+02  0.24264929676E+03  0.10535925058E+04  0.10215888992E+04 0.  0.
        -13    1    3    3    0    0  0.98225421057E+02  0.41389294253E+03 -0.12341389610E+03  0.44292956791E+03  0.10566000000E+00 0.  1.
          4    1    3    3  501    0 -0.17362123395E+03 -0.45690549318E+03  0.36606319286E+03  0.61066293791E+03  0.00000000000E+00 0.  1.
         13    1    1    2    0    0  0.75395812891E+02  0.43012550651E+02  0.13574591399E+03  0.16112595211E+03  0.10566000000E+00 0. -1.
<mgrwt>
<rscale>  1 0.55304611E+03</rscale>
<asrwt>0</asrwt>
<pdfrwt beam="2">  1       21 0.64332557E-01 0.10252700E+04</pdfrwt>
<pdfrwt beam="1">  1        4 0.12254721E+00 0.10252700E+04</pdfrwt>
<totfact> 0.43475938E+01</totfact>
</mgrwt>
</event>
<event>
 6    1  0.1353269E-005  0.9800637E+03  0.7818608E-02  0.9999325E-01
          4   -1    0    0  502    0 -0.00000000000E+00  0.00000000000E+00  0.97345847274E+03  0.97345847274E+03  0.00000000000E+00 0.  1.
         21   -1    0    0  501  502  0.00000000000E+00 -0.00000000000E+00 -0.32499092710E+03  0.32499092710E+03  0.00000000000E+00 0.  1.
    9000010    2    1    2  501    0 -0.76368009936E+02 -0.67768059294E+02  0.45681722185E+03  0.10812986675E+04  0.97473086094E+03 0.  0.
        -13    1    3    3    0    0  0.19531198257E+03 -0.12190836477E+03 -0.23930716890E+03  0.33207883430E+03  0.10566000000E+00 0.  1.
          4    1    3    3  501    0 -0.27167999251E+03  0.54140305472E+02  0.69612439075E+03  0.74921983316E+03  0.00000000000E+00 0.  1.
         13    1    1    2    0    0  0.76368009936E+02  0.67768059294E+02  0.19165032379E+03  0.21715073238E+03  0.10566000000E+00 0. -1.
<mgrwt>
<rscale>  1 0.55679858E+03</rscale>
<asrwt>0</asrwt>
<pdfrwt beam="2">  1       21 0.49998605E-01 0.98006369E+03</pdfrwt>
<pdfrwt beam="1">  1        4 0.14976284E+00 0.98006369E+03</pdfrwt>
<totfact> 0.45163707E+01</totfact>
</mgrwt>
</event>
<event>
 6    1  0.1353269E-005  0.1019667E+04  0.7818608E-02  0.9685312E-01
          4   -1    0    0  502    0 -0.00000000000E+00  0.00000000000E+00  0.39549711627E+03  0.39549711627E+03  0.00000000000E+00 0.  1.
         21   -1    0    0  501  502  0.00000000000E+00 -0.00000000000E+00 -0.10563615237E+04  0.10563615237E+04  0.00000000000E+00 0.  1.
    9000010    2    1    2  501    0 -0.19361669643E+03 -0.16138021781E+03 -0.41857487170E+03  0.11022370872E+04  0.98802361988E+03 0.  0.
        -13    1    3    3    0    0  0.14977143215E+02  0.39885120646E+03 -0.28291854376E+03  0.48923359786E+03  0.10566000000E+00 0.  1.
          4    1    3    3  501    0 -0.20859383964E+03 -0.56023142427E+03 -0.13565632794E+03  0.61300348938E+03  0.00000000000E+00 0.  1.
         13    1    1    2    0    0  0.19361669643E+03  0.16138021781E+03 -0.24228953573E+03  0.34962155272E+03  0.10566000000E+00 0. -1.
<mgrwt>
<rscale>  1 0.71898062E+03</rscale>
<asrwt>0</asrwt>
<pdfrwt beam="2">  1       21 0.16251716E+00 0.10196674E+04</pdfrwt>
<pdfrwt beam="1">  1        4 0.60845711E-01 0.10196674E+04</pdfrwt>
<totfact> 0.21811330E+01</totfact>
</mgrwt>
</event>
<event>
 6    1  0.1353269E-005  0.1167956E+04  0.7818608E-02  0.9300188E-01
         21   -1    0    0  501  502  0.00000000000E+00  0.00000000000E+00  0.13265816864E+04  0.13265816864E+04  0.00000000000E+00 0.  1.
          4   -1    0    0  502    0 -0.00000000000E+00 -0.00000000000E+00 -0.73757960139E+03  0.73757960139E+03  0.00000000000E+00 0.  1.
    9000010    2    1    2  501    0  0.18780648529E+03 -0.61924491100E+03  0.76173839483E+03  0.13944050787E+04  0.97230890444E+03 0.  0.
        -13    1    3    3    0    0 -0.40028829543E+03 -0.21872416575E+03  0.31248945415E+03  0.55292011201E+03  0.10566000000E+00 0.  1.
          4    1    3    3  501    0  0.58809478072E+03 -0.40052074525E+03  0.44924894068E+03  0.84148496670E+03  0.00000000000E+00 0.  1.
         13    1    1    2    0    0 -0.18780648529E+03  0.61924491100E+03 -0.17273630981E+03  0.66975620908E+03  0.10566000000E+00 0. -1.
<mgrwt>
<rscale>  1 0.10076558E+04</rscale>
<asrwt>0</asrwt>
<pdfrwt beam="1">  1       21 0.20408949E+00 0.11679555E+04</pdfrwt>
<pdfrwt beam="2">  1        4 0.11347379E+00 0.11679555E+04</pdfrwt>
<totfact> 0.25188632E+00</totfact>
</mgrwt>
</event>
<event>
 6    1  0.1353269E-005  0.1074733E+04  0.7818608E-02  0.9506488E-01
         21   -1    0    0  501  502  0.00000000000E+00  0.00000000000E+00  0.13231762669E+04  0.13231762669E+04  0.00000000000E+00 0.  1.
          4   -1    0    0  502    0 -0.00000000000E+00 -0.00000000000E+00 -0.46335890627E+03  0.46335890627E+03  0.00000000000E+00 0.  1.
    9000010    2    1    2  501    0  0.31568696671E+03 -0.24138097857E+03  0.87938699520E+03  0.13886582833E+04  0.99856261824E+03 0.  0.
        -13    1    3    3    0    0  0.89550239564E+02  0.33377537377E+03  0.63720904719E+03  0.72488663012E+03  0.10566000000E+00 0.  1.
          4    1    3    3  501    0  0.22613672715E+03 -0.57515635234E+03  0.24217794802E+03  0.66377165313E+03  0.00000000000E+00 0.  1.
         13    1    1    2    0    0 -0.31568696671E+03  0.24138097857E+03 -0.19569634576E+02  0.39787688991E+03  0.10566000000E+00 0. -1.
<mgrwt>
<rscale>  1 0.83807142E+03</rscale>
<asrwt>0</asrwt>
<pdfrwt beam="1">  1       21 0.20356558E+00 0.10747327E+04</pdfrwt>
<pdfrwt beam="2">  1        4 0.71285986E-01 0.10747327E+04</pdfrwt>
<totfact> 0.77089264E+00</totfact>
</mgrwt>
</event>
<event>
 6    1  0.1353269E-005  0.1112214E+04  0.7818608E-02  0.9412136E-01
         21   -1    0    0  501  502  0.00000000000E+00  0.00000000000E+00  0.63042582372E+03  0.63042582372E+03  0.00000000000E+00 0.  1.
          4   -1    0    0  502    0 -0.00000000000E+00 -0.00000000000E+00 -0.15545650404E+04  0.15545650404E+04  0.00000000000E+00 0.  1.
    9000010    2    1    2  501    0 -0.46641368678E+03  0.18088370570E+03  0.24548636058E+02  0.11124847824E+04  0.99335749526E+03 0.  0.
        -13    1    3    3    0    0 -0.16279731152E+03  0.45515926461E+03 -0.31820901096E+03  0.57873129051E+03  0.10566000000E+00 0.  1.
          4    1    3    3  501    0 -0.30361637526E+03 -0.27427555891E+03  0.34275764701E+03  0.53375349191E+03  0.00000000000E+00 0.  1.
         13    1    1    2    0    0  0.46641368678E+03 -0.18088370570E+03 -0.94868785276E+03  0.10725060817E+04  0.10566000000E+00 0. -1.
<mgrwt>
<rscale>  1 0.91083626E+03</rscale>
<asrwt>0</asrwt>
<pdfrwt beam="1">  1       21 0.96988589E-01 0.11122139E+04</pdfrwt>
<pdfrwt beam="2">  1        4 0.23916385E+00 0.11122139E+04</pdfrwt>
<totfact> 0.23877484E+00</totfact>
</mgrwt>
</event>
<event>
 6    1  0.1353269E-005  0.1016955E+04  0.7818608E-02  0.9748649E-01
         21   -1    0    0  501  502  0.00000000000E+00  0.00000000000E+00  0.11596992799E+04  0.11596992799E+04  0.00000000000E+00 0.  1.
          4   -1    0    0  502    0 -0.00000000000E+00 -0.00000000000E+00 -0.40366823861E+03  0.40366823861E+03  0.00000000000E+00 0.  1.
    9000010    2    1    2  501    0  0.16436113256E+03  0.12353524395E+03  0.86102392459E+03  0.13325016373E+04  0.99595325000E+03 0.  0.
        -13    1    3    3    0    0  0.36301415368E+03  0.19705413332E+03 -0.32393209831E+02  0.41431743680E+03  0.10566000000E+00 0.  1.
          4    1    3    3  501    0 -0.19865302112E+03 -0.73518889375E+02  0.89341713442E+03  0.91818420045E+03  0.00000000000E+00 0.  1.
         13    1    1    2    0    0 -0.16436113256E+03 -0.12353524395E+03 -0.10499288334E+03  0.23086588121E+03  0.10566000000E+00 0. -1.
<mgrwt>
<rscale>  1 0.68192656E+03</rscale>
<asrwt>0</asrwt>
<pdfrwt beam="1">  1       21 0.17841527E+00 0.10169555E+04</pdfrwt>
<pdfrwt beam="2">  1        4 0.62102806E-01 0.10169555E+04</pdfrwt>
<totfact> 0.15865076E+01</totfact>
</mgrwt>
</event>
<event>
 6    1  0.1353269E-005  0.1125656E+04  0.7818608E-02  0.9407647E-01
          4   -1    0    0  502    0 -0.00000000000E+00  0.00000000000E+00  0.16138150722E+04  0.16138150722E+04  0.00000000000E+00 0.  1.
         21   -1    0    0  501  502  0.00000000000E+00 -0.00000000000E+00 -0.42018753628E+03  0.42018753628E+03  0.00000000000E+00 0.  1.
    9000010    2    1    2  501    0 -0.46347021253E+03  0.16009327694E+03  0.64167846577E+03  0.12957057289E+04  0.10132460645E+04 0.  0.
        -13    1    3    3    0    0  0.30525839914E+03  0.16912656802E+03  0.13095363464E+03  0.37274032764E+03  0.10566000000E+00 0.  1.
          4    1    3    3  501    0 -0.76872861167E+03 -0.90332910841E+01  0.51072483113E+03  0.92296540124E+03  0.00000000000E+00 0.  1.
         13    1    1    2    0    0  0.46347021253E+03 -0.16009327694E+03  0.55194907013E+03  0.73829687959E+03  0.10566000000E+00 0. -1.
<mgrwt>
<rscale>  1 0.91448998E+03</rscale>
<asrwt>0</asrwt>
<pdfrwt beam="2">  1       21 0.64644237E-01 0.11256563E+04</pdfrwt>
<pdfrwt beam="1">  1        4 0.24827924E+00 0.11256563E+04</pdfrwt>
<totfact> 0.54406947E+00</totfact>
</mgrwt>
</event>
<event>
 6    1  0.1353269E-005  0.9709118E+03  0.7818608E-02  0.9795330E-01
         21   -1    0    0  501  502  0.00000000000E+00  0.00000000000E+00  0.40321255559E+03  0.40321255559E+03  0.00000000000E+00 0.  1.
          4   -1    0    0  502    0 -0.00000000000E+00 -0.00000000000E+00 -0.99503735515E+03  0.99503735515E+03  0.00000000000E+00 0.  1.
    9000010    2    1    2  501    0 -0.50504398253E+00  0.20250634571E+03 -0.25269226774E+03  0.10032562900E+04  0.94955817416E+03 0.  0.
        -13    1    3    3    0    0 -0.43010564388E+03  0.73148591916E+02  0.81482540607E+02  0.44382541273E+03  0.10566000000E+00 0.  1.
          4    1    3    3  501    0  0.42960059990E+03  0.12935775379E+03 -0.33417480835E+03  0.55943087726E+03  0.00000000000E+00 0.  1.
         13    1    1    2    0    0  0.50504398253E+00 -0.20250634571E+03 -0.33913253182E+03  0.39499362074E+03  0.10566000000E+00 0. -1.
<mgrwt>
<rscale>  1 0.65613750E+03</rscale>
<asrwt>0</asrwt>
<pdfrwt beam="1">  1       21 0.62032701E-01 0.97091184E+03</pdfrwt>
<pdfrwt beam="2">  1        4 0.15308267E+00 0.97091184E+03</pdfrwt>
<totfact> 0.26516276E+01</totfact>
</mgrwt>
</event>
<event>
 6    1  0.1353269E-005  0.1235003E+04  0.7818608E-02  0.9223620E-01
          4   -1    0    0  502    0 -0.00000000000E+00  0.00000000000E+00  0.11928431246E+04  0.11928431246E+04  0.00000000000E+00 0.  1.
         21   -1    0    0  501  502  0.00000000000E+00 -0.00000000000E+00 -0.85862113733E+03  0.85862113733E+03  0.00000000000E+00 0.  1.
    9000010    2    1    2  501    0  0.67369804696E+03 -0.26981110701E+03 -0.38552211025E+02  0.12356041600E+04  0.99928187975E+03 0.  0.
        -13    1    3    3    0    0  0.15538462450E+03 -0.44543298484E+03  0.33008227785E+03  0.57576839686E+03  0.10566000000E+00 0.  1.
          4    1    3    3  501    0  0.51831342246E+03  0.17562187783E+03 -0.36863448888E+03  0.65983576310E+03  0.00000000000E+00 0.  1.
         13    1    1    2    0    0 -0.67369804696E+03  0.26981110701E+03  0.37277419833E+03  0.81586010201E+03  0.10566000000E+00 0. -1.
<mgrwt>
<rscale>  1 0.10812918E+04</rscale>
<asrwt>0</asrwt>
<pdfrwt beam="2">  1       21 0.13209556E+00 0.12350026E+04</pdfrwt>
<pdfrwt beam="1">  1        4 0.18351433E+00 0.12350026E+04</pdfrwt>
<totfact> 0.24553384E+00</totfact>
</mgrwt>
</event>
<event>
 6    1  0.1353269E-005  0.1112783E+04  0.7818608E-02  0.9429613E-01
          4   -1    0    0  502    0 -0.00000000000E+00  0.00000000000E+00  0.29007884844E+03  0.29007884844E+03  0.00000000000E+00 0.  1.
         21   -1    0    0  501  502  0.00000000000E+00 -0.00000000000E+00 -0.22091081558E+04  0.22091081558E+04  0.00000000000E+00 0. -1.
    9000010    2    1    2  501    0  0.38387949518E+03 -0.27008239848E+03 -0.15157204901E+04  0.18803445509E+04  0.10089494820E+04 0.  0.
        -13    1    3    3    0    0  0.40492914517E+03 -0.43081056319E+03 -0.15941562708E+04  0.17002645620E+04  0.10566000000E+00 0.  1.
          4    1    3    3  501    0 -0.21049649990E+02  0.16072816471E+03  0.78435780727E+02  0.18007998888E+03  0.00000000000E+00 0.  1.
         13    1    1    2    0    0 -0.38387949518E+03  0.27008239848E+03 -0.40330881725E+03  0.61884245331E+03  0.10566000000E+00 0. -1.
<mgrwt>
<rscale>  1 0.89678178E+03</rscale>
<asrwt>0</asrwt>
<pdfrwt beam="2">  1       21 0.33986279E+00 0.11127835E+04</pdfrwt>
<pdfrwt beam="1">  1        4 0.44627516E-01 0.11127835E+04</pdfrwt>
<totfact> 0.28499094E+00</totfact>
</mgrwt>
</event>
<event>
 6    1  0.1353269E-005  0.1010360E+04  0.7818608E-02  0.9848114E-01
          4   -1    0    0  502    0 -0.00000000000E+00  0.00000000000E+00  0.95271197871E+03  0.95271197871E+03  0.00000000000E+00 0.  1.
         21   -1    0    0  501  502  0.00000000000E+00 -0.00000000000E+00 -0.37242749267E+03  0.37242749267E+03  0.00000000000E+00 0.  1.
    9000010    2    1    2  501    0 -0.14804421288E+03  0.30818442090E+02  0.39221814105E+03  0.10838184681E+04  0.99897974769E+03 0.  0.
        -13    1    3    3    0    0  0.19554990300E+03  0.14261501858E+03 -0.24935173994E+03  0.34749835893E+03  0.10566000000E+00 0.  1.
          4    1    3    3  501    0 -0.34359411588E+03 -0.11179657649E+03  0.64156988098E+03  0.73632010917E+03  0.00000000000E+00 0.  1.
         13    1    1    2    0    0  0.14804421288E+03 -0.30818442090E+02  0.18806634499E+03  0.24132100328E+03  0.10566000000E+00 0. -1.
<mgrwt>
<rscale>  1 0.62843154E+03</rscale>
<asrwt>0</asrwt>
<pdfrwt beam="2">  1       21 0.57296538E-01 0.10103600E+04</pdfrwt>
<pdfrwt beam="1">  1        4 0.14657107E+00 0.10103600E+04</pdfrwt>
<totfact> 0.35431636E+01</totfact>
</mgrwt>
</event>
<event>
 6    1  0.1353269E-005  0.1057728E+04  0.7818608E-02  0.9697226E-01
          4   -1    0    0  502    0 -0.00000000000E+00  0.00000000000E+00  0.37696605830E+03  0.37696605830E+03  0.00000000000E+00 0.  1.
         21   -1    0    0  501  502  0.00000000000E+00 -0.00000000000E+00 -0.13006214485E+04  0.13006214485E+04  0.00000000000E+00 0.  1.
    9000010    2    1    2  501    0 -0.13994105095E+03 -0.16578475325E+03 -0.99200396151E+03  0.14501240580E+04  0.10352390264E+04 0.  0.
        -13    1    3    3    0    0 -0.55751778610E+03 -0.95019376188E+02 -0.30366867498E+03  0.64192635014E+03  0.10566000000E+00 0.  1.
          4    1    3    3  501    0  0.41757673516E+03 -0.70765377057E+02 -0.68833528654E+03  0.80819770788E+03  0.00000000000E+00 0.  1.
         13    1    1    2    0    0  0.13994105095E+03  0.16578475325E+03  0.68348571340E+02  0.22746344875E+03  0.10566000000E+00 0. -1.
<mgrwt>
<rscale>  1 0.71182173E+03</rscale>
<asrwt>0</asrwt>
<pdfrwt beam="2">  1       21 0.20009561E+00 0.10577277E+04</pdfrwt>
<pdfrwt beam="1">  1        4 0.57994778E-01 0.10577277E+04</pdfrwt>
<totfact> 0.12869321E+01</totfact>
</mgrwt>
</event>
<event>
 6    1  0.1353269E-005  0.1049974E+04  0.7818608E-02  0.9613022E-01
         21   -1    0    0  501  502  0.00000000000E+00  0.00000000000E+00  0.19419835659E+04  0.19419835659E+04  0.00000000000E+00 0. -1.
          4   -1    0    0  502    0 -0.00000000000E+00 -0.00000000000E+00 -0.23937820244E+03  0.23937820244E+03  0.00000000000E+00 0.  1.
    9000010    2    1    2  501    0  0.77761154301E+02  0.28451717093E+03  0.11663028297E+04  0.15693019375E+04  0.10076951239E+04 0.  0.
        -13    1    3    3    0    0  0.41562550621E+02  0.18123127763E+03  0.13460634940E+04  0.13588447897E+04  0.10566000000E+00 0.  1.
          4    1    3    3  501    0  0.36198603680E+02  0.10328589329E+03 -0.17976066422E+03  0.21045714781E+03  0.00000000000E+00 0.  1.
         13    1    1    2    0    0 -0.77761154301E+02 -0.28451717093E+03  0.53630253372E+03  0.61205983083E+03  0.10566000000E+00 0. -1.
<mgrwt>
<rscale>  1 0.76440236E+03</rscale>
<asrwt>0</asrwt>
<pdfrwt beam="1">  1       21 0.29876669E+00 0.10499744E+04</pdfrwt>
<pdfrwt beam="2">  1        4 0.36827417E-01 0.10499744E+04</pdfrwt>
<totfact> 0.77102940E+00</totfact>
</mgrwt>
</event>
<event>
 6    1  0.1353269E-005  0.1017050E+04  0.7818608E-02  0.9836132E-01
         21   -1    0    0  501  502  0.00000000000E+00  0.00000000000E+00  0.32890331326E+03  0.32890331326E+03  0.00000000000E+00 0.  1.
          4   -1    0    0  502    0 -0.00000000000E+00 -0.00000000000E+00 -0.10711965924E+04  0.10711965924E+04  0.00000000000E+00 0.  1.
    9000010    2    1    2  501    0 -0.14881313756E+03 -0.40214771504E+02 -0.55880875912E+03  0.11604560908E+04  0.10053002196E+04 0.  0.
        -13    1    3    3    0    0  0.38335363924E+03 -0.23476673797E+03 -0.27161281810E+03  0.52521325963E+03  0.10566000000E+00 0.  1.
          4    1    3    3  501    0 -0.53216677680E+03  0.19455196646E+03 -0.28719594102E+03  0.63524283115E+03  0.00000000000E+00 0.  1.
         13    1    1    2    0    0  0.14881313756E+03  0.40214771504E+02 -0.18348452000E+03  0.23964381487E+03  0.10566000000E+00 0. -1.
<mgrwt>
<rscale>  1 0.63459042E+03</rscale>
<asrwt>0</asrwt>
<pdfrwt beam="1">  1       21 0.50600509E-01 0.10170502E+04</pdfrwt>
<pdfrwt beam="2">  1        4 0.16479948E+00 0.10170502E+04</pdfrwt>
<totfact> 0.33775501E+01</totfact>
</mgrwt>
</event>
<event>
 6    1  0.1353269E-005  0.1007085E+04  0.7818608E-02  0.1022707E+00
         21   -1    0    0  501  502  0.00000000000E+00  0.00000000000E+00  0.82192388596E+03  0.82192388596E+03  0.00000000000E+00 0.  1.
          4   -1    0    0  502    0 -0.00000000000E+00 -0.00000000000E+00 -0.34248447145E+03  0.34248447145E+03  0.00000000000E+00 0.  1.
    9000010    2    1    2  501    0 -0.40888537859E+02 -0.22468286231E+02  0.48433471792E+03  0.11174970414E+04  0.10060033907E+04 0.  0.
        -13    1    3    3    0    0 -0.30412178508E+03 -0.42699672455E+03  0.24044488977E+03  0.57674085959E+03  0.10566000000E+00 0.  1.
          4    1    3    3  501    0  0.26323324722E+03  0.40452843832E+03  0.24388982815E+03  0.54075618178E+03  0.00000000000E+00 0.  1.
         13    1    1    2    0    0  0.40888537859E+02  0.22468286231E+02 -0.48953034046E+01  0.46911316054E+02  0.10566000000E+00 0. -1.
<mgrwt>
<rscale>  1 0.46722331E+03</rscale>
<asrwt>0</asrwt>
<pdfrwt beam="1">  1       21 0.12644983E+00 0.10070847E+04</pdfrwt>
<pdfrwt beam="2">  1        4 0.52689919E-01 0.10070847E+04</pdfrwt>
<totfact> 0.59363869E+01</totfact>
</mgrwt>
</event>
<event>
 6    1  0.1353269E-005  0.1019893E+04  0.7818608E-02  0.9763785E-01
         21   -1    0    0  501  502  0.00000000000E+00  0.00000000000E+00  0.70565902553E+03  0.70565902553E+03  0.00000000000E+00 0.  1.
          4   -1    0    0  502    0 -0.00000000000E+00 -0.00000000000E+00 -0.66492718013E+03  0.66492718013E+03  0.00000000000E+00 0.  1.
    9000010    2    1    2  501    0 -0.90433521014E+02 -0.17148074557E+03  0.28478231287E+03  0.10589060657E+04  0.10012977691E+04 0.  0.
        -13    1    3    3    0    0 -0.11668284968E+02  0.61726703402E+02 -0.36171738384E+03  0.36713187238E+03  0.10566000000E+00 0.  1.
          4    1    3    3  501    0 -0.78765236046E+02 -0.23320744898E+03  0.64649969670E+03  0.69177419329E+03  0.00000000000E+00 0.  1.
         13    1    1    2    0    0  0.90433521014E+02  0.17148074557E+03 -0.24405046746E+03  0.31168013998E+03  0.10566000000E+00 0. -1.
<mgrwt>
<rscale>  1 0.67342783E+03</rscale>
<asrwt>0</asrwt>
<pdfrwt beam="1">  1       21 0.10856293E+00 0.10198927E+04</pdfrwt>
<pdfrwt beam="2">  1        4 0.10229649E+00 0.10198927E+04</pdfrwt>
<totfact> 0.19548086E+01</totfact>
</mgrwt>
</event>
<event>
 6    1  0.1353269E-005  0.9913568E+03  0.7818608E-02  0.1009207E+00
         21   -1    0    0  501  502  0.00000000000E+00  0.00000000000E+00  0.81282275139E+03  0.81282275139E+03  0.00000000000E+00 0.  1.
          4   -1    0    0  502    0 -0.00000000000E+00 -0.00000000000E+00 -0.35121103607E+03  0.35121103607E+03  0.00000000000E+00 0.  1.
    9000010    2    1    2  501    0  0.60851596444E+02  0.41835428402E+02  0.45209731758E+03  0.10895780638E+04  0.98860267684E+03 0.  0.
        -13    1    3    3    0    0  0.88125023174E+02  0.26233419716E+03 -0.23774493322E+03  0.36483957453E+03  0.10566000000E+00 0.  1.
          4    1    3    3  501    0 -0.27273426730E+02 -0.22049876875E+03  0.68984225080E+03  0.72473848926E+03  0.00000000000E+00 0.  1.
         13    1    1    2    0    0 -0.60851596444E+02 -0.41835428402E+02  0.95143977355E+01  0.74455723673E+02  0.10566000000E+00 0. -1.
<mgrwt>
<rscale>  1 0.51790875E+03</rscale>
<asrwt>0</asrwt>
<pdfrwt beam="1">  1       21 0.12504965E+00 0.99135683E+03</pdfrwt>
<pdfrwt beam="2">  1        4 0.54032467E-01 0.99135683E+03</pdfrwt>
<totfact> 0.58014497E+01</totfact>
</mgrwt>
</event>
<event>
 6    1  0.1353269E-005  0.1042479E+04  0.7818608E-02  0.9789732E-01
          4   -1    0    0  502    0 -0.00000000000E+00  0.00000000000E+00  0.93119555286E+03  0.93119555286E+03  0.00000000000E+00 0.  1.
         21   -1    0    0  501  502  0.00000000000E+00 -0.00000000000E+00 -0.53091916160E+03  0.53091916160E+03  0.00000000000E+00 0.  1.
    9000010    2    1    2  501    0 -0.12741536376E+03  0.10739478052E+03  0.15267419314E+02  0.10425908970E+04  0.10290745214E+04 0.  0.
        -13    1    3    3    0    0  0.40563373313E+03 -0.15726948722E+03  0.85329790862E+02  0.44334366065E+03  0.10566000000E+00 0.  1.
          4    1    3    3  501    0 -0.53304909689E+03  0.26466426773E+03 -0.70062371548E+02  0.59924723631E+03  0.00000000000E+00 0.  1.
         13    1    1    2    0    0  0.12741536376E+03 -0.10739478052E+03  0.38500897195E+03  0.41952381750E+03  0.10566000000E+00 0. -1.
<mgrwt>
<rscale>  1 0.65916514E+03</rscale>
<asrwt>0</asrwt>
<pdfrwt beam="2">  1       21 0.81679871E-01 0.10424791E+04</pdfrwt>
<pdfrwt beam="1">  1        4 0.14326085E+00 0.10424791E+04</pdfrwt>
<totfact> 0.16697852E+01</totfact>
</mgrwt>
</event>
<event>
 6    1  0.1353269E-005  0.1059835E+04  0.7818608E-02  0.9563523E-01
          4   -1    0    0  502    0 -0.00000000000E+00  0.00000000000E+00  0.14263414824E+04  0.14263414824E+04  0.00000000000E+00 0.  1.
         21   -1    0    0  501  502  0.00000000000E+00 -0.00000000000E+00 -0.36724743416E+03  0.36724743416E+03  0.00000000000E+00 0.  1.
    9000010    2    1    2  501    0 -0.32269396880E+03 -0.10686582181E+03  0.58605220647E+03  0.12110768595E+04  0.10038417553E+04 0.  0.
        -13    1    3    3    0    0 -0.14984617765E+03 -0.28476938422E+03  0.81331722512E+03  0.87466130530E+03  0.10566000000E+00 0.  1.
          4    1    3    3  501    0 -0.17284779115E+03  0.17790356241E+03 -0.22726501865E+03  0.33641555422E+03  0.00000000000E+00 0.  1.
         13    1    1    2    0    0  0.32269396880E+03  0.10686582181E+03  0.47304184173E+03  0.58251205701E+03  0.10566000000E+00 0. -1.
<mgrwt>
<rscale>  1 0.79758266E+03</rscale>
<asrwt>0</asrwt>
<pdfrwt beam="2">  1       21 0.56499606E-01 0.10598349E+04</pdfrwt>
<pdfrwt beam="1">  1        4 0.21943715E+00 0.10598349E+04</pdfrwt>
<totfact> 0.11249105E+01</totfact>
</mgrwt>
</event>
<event>
 6    1  0.1353269E-005  0.1092581E+04  0.7818608E-02  0.9498957E-01
         21   -1    0    0  501  502  0.00000000000E+00  0.00000000000E+00  0.10913499269E+04  0.10913499269E+04  0.00000000000E+00 0.  1.
          4   -1    0    0  502    0 -0.00000000000E+00 -0.00000000000E+00 -0.59389461824E+03  0.59389461824E+03  0.00000000000E+00 0.  1.
    9000010    2    1    2  501    0  0.27526877325E+03  0.27391184793E+03  0.64623262182E+03  0.12693896449E+04  0.10212408487E+04 0.  0.
        -13    1    3    3    0    0 -0.28528504287E+03  0.54130098419E+02 -0.10309360828E+03  0.30813296882E+03  0.10566000000E+00 0.  1.
          4    1    3    3  501    0  0.56055381613E+03  0.21978174951E+03  0.74932623010E+03  0.96125667608E+03  0.00000000000E+00 0.  1.
         13    1    1    2    0    0 -0.27526877325E+03 -0.27391184793E+03 -0.14877731318E+03  0.41585490023E+03  0.10566000000E+00 0. -1.
<mgrwt>
<rscale>  1 0.84360792E+03</rscale>
<asrwt>0</asrwt>
<pdfrwt beam="1">  1       21 0.16789999E+00 0.10925811E+04</pdfrwt>
<pdfrwt beam="2">  1        4 0.91368403E-01 0.10925811E+04</pdfrwt>
<totfact> 0.78205610E+00</totfact>
</mgrwt>
</event>
<event>
 6    1  0.1353269E-005  0.9829526E+03  0.7818608E-02  0.1023676E+00
          4   -1    0    0  502    0 -0.00000000000E+00  0.00000000000E+00  0.50521888595E+03  0.50521888595E+03  0.00000000000E+00 0.  1.
         21   -1    0    0  501  502  0.00000000000E+00 -0.00000000000E+00 -0.55750025215E+03  0.55750025215E+03  0.00000000000E+00 0.  1.
    9000010    2    1    2  501    0 -0.38707214508E+02  0.29612219950E+02 -0.10779809586E+03  0.98884593280E+03  0.98174371265E+03 0.  0.
        -13    1    3    3    0    0 -0.31158350336E+03 -0.23149153098E+02  0.34003208355E+03  0.46178132472E+03  0.10566000000E+00 0.  1.
          4    1    3    3  501    0  0.27287628886E+03  0.52761373049E+02 -0.44783017940E+03  0.52706460808E+03  0.00000000000E+00 0.  1.
         13    1    1    2    0    0  0.38707214508E+02 -0.29612219950E+02  0.55516729659E+02  0.73873205301E+02  0.10566000000E+00 0. -1.
<mgrwt>
<rscale>  1 0.46383195E+03</rscale>
<asrwt>0</asrwt>
<pdfrwt beam="2">  1       21 0.85769269E-01 0.98295262E+03</pdfrwt>
<pdfrwt beam="1">  1        4 0.77725983E-01 0.98295262E+03</pdfrwt>
<totfact> 0.66748342E+01</totfact>
</mgrwt>
</event>
<event>
 6    1  0.1353269E-005  0.1053315E+04  0.7818608E-02  0.9581244E-01
          4   -1    0    0  502    0 -0.00000000000E+00  0.00000000000E+00  0.33810327699E+03  0.33810327699E+03  0.00000000000E+00 0.  1.
         21   -1    0    0  501  502  0.00000000000E+00 -0.00000000000E+00 -0.14724714062E+04  0.14724714062E+04  0.00000000000E+00 0.  1.
    9000010    2    1    2  501    0  0.32094051711E+03  0.55890167361E+02 -0.10174132179E+04  0.14644461106E+04  0.10016717170E+04 0.  0.
        -13    1    3    3    0    0  0.47619243761E+03 -0.34125963785E+03 -0.78279847785E+03  0.97774784385E+03  0.10566000000E+00 0.  1.
          4    1    3    3  501    0 -0.15525192050E+03  0.39714980521E+03 -0.23461474004E+03  0.48669826673E+03  0.00000000000E+00 0.  1.
         13    1    1    2    0    0 -0.32094051711E+03 -0.55890167361E+02 -0.11695491132E+03  0.34612857261E+03  0.10566000000E+00 0. -1.
<mgrwt>
<rscale>  1 0.78550100E+03</rscale>
<asrwt>0</asrwt>
<pdfrwt beam="2">  1       21 0.22653406E+00 0.10533151E+04</pdfrwt>
<pdfrwt beam="1">  1        4 0.52015890E-01 0.10533151E+04</pdfrwt>
<totfact> 0.10811855E+01</totfact>
</mgrwt>
</event>
<event>
 6    1  0.1353269E-005  0.1016615E+04  0.7818608E-02  0.9859424E-01
         21   -1    0    0  501  502  0.00000000000E+00  0.00000000000E+00  0.42985428693E+03  0.42985428693E+03  0.00000000000E+00 0.  1.
          4   -1    0    0  502    0 -0.00000000000E+00 -0.00000000000E+00 -0.80694898132E+03  0.80694898132E+03  0.00000000000E+00 0.  1.
    9000010    2    1    2  501    0  0.10931289868E+03 -0.92333736688E+02 -0.25354592979E+03  0.10477552925E+04  0.10064943048E+04 0.  0.
        -13    1    3    3    0    0 -0.13531744693E+02 -0.20438043216E+03  0.35884839354E+03  0.41319081534E+03  0.10566000000E+00 0.  1.
          4    1    3    3  501    0  0.12284464337E+03  0.11204669548E+03 -0.61239432334E+03  0.63456447712E+03  0.00000000000E+00 0.  1.
         13    1    1    2    0    0 -0.10931289868E+03  0.92333736688E+02 -0.12354876460E+03  0.18904797578E+03  0.10566000000E+00 0. -1.
<mgrwt>
<rscale>  1 0.62268712E+03</rscale>
<asrwt>0</asrwt>
<pdfrwt beam="1">  1       21 0.66131429E-01 0.10166148E+04</pdfrwt>
<pdfrwt beam="2">  1        4 0.12414600E+00 0.10166148E+04</pdfrwt>
<totfact> 0.39550506E+01</totfact>
</mgrwt>
</event>
<event>
 6    1  0.1353269E-005  0.1115387E+04  0.7818608E-02  0.9409579E-01
          4   -1    0    0  502    0 -0.00000000000E+00  0.00000000000E+00  0.74720560077E+03  0.74720560077E+03  0.00000000000E+00 0.  1.
         21   -1    0    0  501  502  0.00000000000E+00 -0.00000000000E+00 -0.13766956905E+04  0.13766956905E+04  0.00000000000E+00 0.  1.
    9000010    2    1    2  501    0  0.50044189235E+03 -0.10281366786E+02 -0.10024653857E+04  0.14996750690E+04  0.99676510216E+03 0.  0.
        -13    1    3    3    0    0  0.70464315317E+02 -0.47317015870E+03 -0.36086382681E+03  0.59923111692E+03  0.10566000000E+00 0.  1.
          4    1    3    3  501    0  0.42997757703E+03  0.46288879192E+03 -0.64160155888E+03  0.90044395205E+03  0.00000000000E+00 0.  1.
         13    1    1    2    0    0 -0.50044189235E+03  0.10281366786E+02  0.37297529591E+03  0.62422622233E+03  0.10566000000E+00 0. -1.
<mgrwt>
<rscale>  1 0.91291543E+03</rscale>
<asrwt>0</asrwt>
<pdfrwt beam="2">  1       21 0.21179934E+00 0.11153871E+04</pdfrwt>
<pdfrwt beam="1">  1        4 0.11495471E+00 0.11153871E+04</pdfrwt>
<totfact> 0.21782058E+00</totfact>
</mgrwt>
</event>
<event>
 6    1  0.1353269E-005  0.1030570E+04  0.7818608E-02  0.9739588E-01
          4   -1    0    0  502    0 -0.00000000000E+00  0.00000000000E+00  0.13336442375E+04  0.13336442375E+04  0.00000000000E+00 0.  1.
         21   -1    0    0  501  502  0.00000000000E+00 -0.00000000000E+00 -0.28861619975E+03  0.28861619975E+03  0.00000000000E+00 0.  1.
    9000010    2    1    2  501    0 -0.14252073133E+02 -0.20310815344E+03  0.93139447908E+03  0.13890895977E+04  0.10102564977E+04 0.  0.
        -13    1    3    3    0    0 -0.27143742955E+03 -0.49822506260E+03  0.28877889340E+03  0.63663156661E+03  0.10566000000E+00 0.  1.
          4    1    3    3  501    0  0.25718535641E+03  0.29511690916E+03  0.64261558567E+03  0.75245803110E+03  0.00000000000E+00 0.  1.
         13    1    1    2    0    0  0.14252073133E+02  0.20310815344E+03  0.11363355864E+03  0.23317083951E+03  0.10566000000E+00 0. -1.
<mgrwt>
<rscale>  1 0.68707893E+03</rscale>
<asrwt>0</asrwt>
<pdfrwt beam="2">  1       21 0.44402493E-01 0.10305699E+04</pdfrwt>
<pdfrwt beam="1">  1        4 0.20517603E+00 0.10305699E+04</pdfrwt>
<totfact> 0.23510887E+01</totfact>
</mgrwt>
</event>
<event>
 6    1  0.1353269E-005  0.1082629E+04  0.7818608E-02  0.9511816E-01
          4   -1    0    0  502    0 -0.00000000000E+00  0.00000000000E+00  0.11875215590E+04  0.11875215590E+04  0.00000000000E+00 0.  1.
         21   -1    0    0  501  502  0.00000000000E+00 -0.00000000000E+00 -0.56365388815E+03  0.56365388815E+03  0.00000000000E+00 0.  1.
    9000010    2    1    2  501    0 -0.37956232764E+03  0.39358076501E+02  0.78466751591E+03  0.13370821967E+04  0.10131480995E+04 0.  0.
        -13    1    3    3    0    0  0.78384252508E+02 -0.42075685620E+03  0.37825445605E+03  0.57118899478E+03  0.10566000000E+00 0.  1.
          4    1    3    3  501    0 -0.45794658015E+03  0.46011493270E+03  0.40641305986E+03  0.76589320194E+03  0.00000000000E+00 0.  1.
         13    1    1    2    0    0  0.37956232764E+03 -0.39358076501E+02 -0.16079984502E+03  0.41409325045E+03  0.10566000000E+00 0. -1.
<mgrwt>
<rscale>  1 0.83418272E+03</rscale>
<asrwt>0</asrwt>
<pdfrwt beam="2">  1       21 0.86715983E-01 0.10826291E+04</pdfrwt>
<pdfrwt beam="1">  1        4 0.18269562E+00 0.10826291E+04</pdfrwt>
<totfact> 0.73486809E+00</totfact>
</mgrwt>
</event>
<event>
 6    1  0.1353269E-005  0.9942647E+03  0.7818608E-02  0.1018867E+00
          4   -1    0    0  502    0 -0.00000000000E+00  0.00000000000E+00  0.49048683066E+03  0.49048683066E+03  0.00000000000E+00 0.  1.
         21   -1    0    0  501  502  0.00000000000E+00 -0.00000000000E+00 -0.11353644913E+04  0.11353644913E+04  0.00000000000E+00 0.  1.
    9000010    2    1    2  501    0 -0.49640867695E+02 -0.22371098785E+02 -0.91444427582E+03  0.13508406803E+04  0.99277264672E+03 0.  0.
        -13    1    3    3    0    0  0.46777745282E+03  0.41870711123E+02 -0.48779456662E+03  0.67713547552E+03  0.10566000000E+00 0.  1.
          4    1    3    3  501    0 -0.51741832052E+03 -0.64241809908E+02 -0.42664970920E+03  0.67370520475E+03  0.00000000000E+00 0.  1.
         13    1    1    2    0    0  0.49640867695E+02  0.22371098785E+02  0.26956661523E+03  0.27501064164E+03  0.10566000000E+00 0. -1.
<mgrwt>
<rscale>  1 0.48097662E+03</rscale>
<asrwt>0</asrwt>
<pdfrwt beam="2">  1       21 0.17467146E+00 0.99426466E+03</pdfrwt>
<pdfrwt beam="1">  1        4 0.75459514E-01 0.99426466E+03</pdfrwt>
<totfact> 0.10975126E+01</totfact>
</mgrwt>
</event>
<event>
 6    1  0.1353269E-005  0.1020051E+04  0.7818608E-02  0.9757020E-01
          4   -1    0    0  502    0 -0.00000000000E+00  0.00000000000E+00  0.40432293037E+03  0.40432293037E+03  0.00000000000E+00 0.  1.
         21   -1    0    0  501  502  0.00000000000E+00 -0.00000000000E+00 -0.98251294263E+03  0.98251294263E+03  0.00000000000E+00 0.  1.
    9000010    2    1    2  501    0  0.66880838096E+02  0.18653825922E+03 -0.60637866869E+03  0.11866754869E+04  0.10006168361E+04 0.  0.
        -13    1    3    3    0    0  0.44327487226E+02 -0.18256389196E+02  0.27621923212E+03  0.28034852813E+03  0.10566000000E+00 0.  1.
          4    1    3    3  501    0  0.22553350870E+02  0.20479464841E+03 -0.88259790081E+03  0.90632695876E+03  0.00000000000E+00 0.  1.
         13    1    1    2    0    0 -0.66880838096E+02 -0.18653825922E+03  0.28188656435E+02  0.20016038612E+03  0.10566000000E+00 0. -1.
<mgrwt>
<rscale>  1 0.67721003E+03</rscale>
<asrwt>0</asrwt>
<pdfrwt beam="2">  1       21 0.15115584E+00 0.10200508E+04</pdfrwt>
<pdfrwt beam="1">  1        4 0.62203528E-01 0.10200508E+04</pdfrwt>
<totfact> 0.25527102E+01</totfact>
</mgrwt>
</event>
<event>
 6    1  0.1353269E-005  0.1035125E+04  0.7818608E-02  0.9673134E-01
         21   -1    0    0  501  502  0.00000000000E+00  0.00000000000E+00  0.80824770541E+03  0.80824770541E+03  0.00000000000E+00 0.  1.
          4   -1    0    0  502    0 -0.00000000000E+00 -0.00000000000E+00 -0.51165244685E+03  0.51165244685E+03  0.00000000000E+00 0.  1.
    9000010    2    1    2  501    0  0.15008760932E+03 -0.20120584531E+03  0.23953364515E+03  0.10624780834E+04  0.10042276773E+04 0.  0.
        -13    1    3    3    0    0  0.48000970619E+03 -0.32576832520E+03 -0.81219497024E+02  0.58577379389E+03  0.10566000000E+00 0.  1.
          4    1    3    3  501    0 -0.32992209687E+03  0.12456247989E+03  0.32075314217E+03  0.47670428949E+03  0.00000000000E+00 0.  1.
         13    1    1    2    0    0 -0.15008760932E+03  0.20120584531E+03  0.57061613420E+02  0.25742206889E+03  0.10566000000E+00 0. -1.
<mgrwt>
<rscale>  1 0.72639157E+03</rscale>
<asrwt>0</asrwt>
<pdfrwt beam="1">  1       21 0.12434580E+00 0.10351248E+04</pdfrwt>
<pdfrwt beam="2">  1        4 0.78715761E-01 0.10351248E+04</pdfrwt>
<totfact> 0.25511752E+01</totfact>
</mgrwt>
</event>
<event>
 6    1  0.1353269E-005  0.9704195E+03  0.7818608E-02  0.9835282E-01
          4   -1    0    0  502    0 -0.00000000000E+00  0.00000000000E+00  0.37842155844E+03  0.37842155844E+03  0.00000000000E+00 0.  1.
         21   -1    0    0  501  502  0.00000000000E+00 -0.00000000000E+00 -0.92896560191E+03  0.92896560191E+03  0.00000000000E+00 0.  1.
    9000010    2    1    2  501    0  0.65116982157E+02 -0.16560806903E+03 -0.57466554573E+03  0.11278095673E+04  0.95396419048E+03 0.  0.
        -13    1    3    3    0    0  0.10473442389E+03 -0.25590191741E+03 -0.81895342607E+03  0.86437249847E+03  0.10566000000E+00 0.  1.
          4    1    3    3  501    0 -0.39617441730E+02  0.90293848373E+02  0.24428788034E+03  0.26343706881E+03  0.00000000000E+00 0.  1.
         13    1    1    2    0    0 -0.65116982157E+02  0.16560806903E+03  0.24121502262E+02  0.17957759306E+03  0.10566000000E+00 0. -1.
<mgrwt>
<rscale>  1 0.63502998E+03</rscale>
<asrwt>0</asrwt>
<pdfrwt beam="2">  1       21 0.14291778E+00 0.97041946E+03</pdfrwt>
<pdfrwt beam="1">  1        4 0.58218702E-01 0.97041946E+03</pdfrwt>
<totfact> 0.34612089E+01</totfact>
</mgrwt>
</event>
<event>
 6    1  0.1353269E-005  0.1061044E+04  0.7818608E-02  0.9591317E-01
          4   -1    0    0  502    0 -0.00000000000E+00  0.00000000000E+00  0.14239903494E+04  0.14239903494E+04  0.00000000000E+00 0.  1.
         21   -1    0    0  501  502  0.00000000000E+00 -0.00000000000E+00 -0.47091679270E+03  0.47091679270E+03  0.00000000000E+00 0.  1.
    9000010    2    1    2  501    0  0.20553865325E+03 -0.22920342058E+03  0.19783478362E+03  0.10793300694E+04  0.10153986661E+04 0.  0.
        -13    1    3    3    0    0 -0.32440472006E+03 -0.13366095917E+03  0.37394594441E+03  0.51277602802E+03  0.10566000000E+00 0.  1.
          4    1    3    3  501    0  0.52994337331E+03 -0.95542461406E+02 -0.17611116079E+03  0.56655404138E+03  0.00000000000E+00 0.  1.
         13    1    1    2    0    0 -0.20553865325E+03  0.22920342058E+03  0.75523877304E+03  0.81557707266E+03  0.10566000000E+00 0. -1.
<mgrwt>
<rscale>  1 0.77873537E+03</rscale>
<asrwt>0</asrwt>
<pdfrwt beam="2">  1       21 0.72448738E-01 0.10610442E+04</pdfrwt>
<pdfrwt beam="1">  1        4 0.21907544E+00 0.10610442E+04</pdfrwt>
<totfact> 0.64503145E+00</totfact>
</mgrwt>
</event>
<event>
 6    1  0.1353269E-005  0.1036087E+04  0.7818608E-02  0.9692574E-01
          4   -1    0    0  502    0 -0.00000000000E+00  0.00000000000E+00  0.30991001281E+03  0.30991001281E+03  0.00000000000E+00 0.  1.
         21   -1    0    0  501  502  0.00000000000E+00 -0.00000000000E+00 -0.13248765496E+04  0.13248765496E+04  0.00000000000E+00 0.  1.
    9000010    2    1    2  501    0 -0.21714137160E+03 -0.88451912849E+02 -0.90556303837E+03  0.13760526203E+04  0.10092087402E+04 0.  0.
        -13    1    3    3    0    0 -0.93174626570E+02  0.37129148006E+03 -0.35794865727E+02  0.38447387139E+03  0.10566000000E+00 0.  1.
          4    1    3    3  501    0 -0.12396674503E+03 -0.45974339291E+03 -0.86976817265E+03  0.99157874894E+03  0.00000000000E+00 0.  1.
         13    1    1    2    0    0  0.21714137160E+03  0.88451912849E+02 -0.10940349840E+03  0.25873394205E+03  0.10566000000E+00 0. -1.
<mgrwt>
<rscale>  1 0.71460653E+03</rscale>
<asrwt>0</asrwt>
<pdfrwt beam="2">  1       21 0.20382716E+00 0.10360871E+04</pdfrwt>
<pdfrwt beam="1">  1        4 0.47678463E-01 0.10360871E+04</pdfrwt>
<totfact> 0.18465338E+01</totfact>
</mgrwt>
</event>
<event>
 6    1  0.1353269E-005  0.1191240E+04  0.7818608E-02  0.9287248E-01
          4   -1    0    0  502    0 -0.00000000000E+00  0.00000000000E+00  0.12251322907E+04  0.12251322907E+04  0.00000000000E+00 0.  1.
         21   -1    0    0  501  502  0.00000000000E+00 -0.00000000000E+00 -0.75981603059E+03  0.75981603059E+03  0.00000000000E+00 0.  1.
    9000010    2    1    2  501    0 -0.61270368662E+03 -0.18303790676E+03  0.59639307711E+03  0.13321927576E+04  0.10050592808E+04 0.  0.
        -13    1    3    3    0    0 -0.58688376085E+03 -0.48245206909E+03  0.68069446788E+03  0.10200674083E+04  0.10566000000E+00 0.  1.
          4    1    3    3  501    0 -0.25819925764E+02  0.29941416233E+03 -0.84301390764E+02  0.31212534927E+03  0.00000000000E+00 0.  1.
         13    1    1    2    0    0  0.61270368662E+03  0.18303790676E+03 -0.13107681695E+03  0.65275556376E+03  0.10566000000E+00 0. -1.
<mgrwt>
<rscale>  1 0.10196540E+04</rscale>
<asrwt>0</asrwt>
<pdfrwt beam="2">  1       21 0.11689477E+00 0.11912400E+04</pdfrwt>
<pdfrwt beam="1">  1        4 0.18848189E+00 0.11912400E+04</pdfrwt>
<totfact> 0.31490673E+00</totfact>
</mgrwt>
</event>
<event>
 6    1  0.1353269E-005  0.1052807E+04  0.7818608E-02  0.9601627E-01
         21   -1    0    0  501  502  0.00000000000E+00  0.00000000000E+00  0.44971261945E+03  0.44971261945E+03  0.00000000000E+00 0.  1.
          4   -1    0    0  502    0 -0.00000000000E+00 -0.00000000000E+00 -0.12025729694E+04  0.12025729694E+04  0.00000000000E+00 0.  1.
    9000010    2    1    2  501    0  0.21110719573E+03 -0.21903036085E+03 -0.27893985118E+03  0.10891326812E+04  0.10078998014E+04 0.  0.
        -13    1    3    3    0    0  0.61653150192E+03 -0.83529714011E+02 -0.20671144061E+03  0.65560501586E+03  0.10566000000E+00 0.  1.
          4    1    3    3  501    0 -0.40542430618E+03 -0.13550064684E+03 -0.72228410575E+02  0.43352766536E+03  0.00000000000E+00 0.  1.
         13    1    1    2    0    0 -0.21110719573E+03  0.21903036085E+03 -0.47392049880E+03  0.56315290767E+03  0.10566000000E+00 0. -1.
<mgrwt>
<rscale>  1 0.77188586E+03</rscale>
<asrwt>0</asrwt>
<pdfrwt beam="1">  1       21 0.69186557E-01 0.10528070E+04</pdfrwt>
<pdfrwt beam="2">  1        4 0.18501123E+00 0.10528070E+04</pdfrwt>
<totfact> 0.12057473E+01</totfact>
</mgrwt>
</event>
<event>
 6    1  0.1353269E-005  0.9921883E+03  0.7818608E-02  0.9717213E-01
         21   -1    0    0  501  502  0.00000000000E+00  0.00000000000E+00  0.10720970953E+04  0.10720970953E+04  0.00000000000E+00 0.  1.
          4   -1    0    0  502    0 -0.00000000000E+00 -0.00000000000E+00 -0.36002470380E+03  0.36002470380E+03  0.00000000000E+00 0.  1.
    9000010    2    1    2  501    0  0.18156312180E+03  0.16573520180E+03  0.61794493068E+03  0.11688855661E+04  0.96125137451E+03 0.  0.
        -13    1    3    3    0    0 -0.39503082446E+03  0.10947507507E+03  0.30064366931E+03  0.50835103167E+03  0.10566000000E+00 0.  1.
          4    1    3    3  501    0  0.57659394626E+03  0.56260126732E+02  0.31730126136E+03  0.66053453444E+03  0.00000000000E+00 0.  1.
         13    1    1    2    0    0 -0.18156312180E+03 -0.16573520180E+03  0.94127460833E+02  0.26323623300E+03  0.10566000000E+00 0. -1.
<mgrwt>
<rscale>  1 0.70001143E+03</rscale>
<asrwt>0</asrwt>
<pdfrwt beam="1">  1       21 0.16493801E+00 0.99218825E+03</pdfrwt>
<pdfrwt beam="2">  1        4 0.55388417E-01 0.99218825E+03</pdfrwt>
<totfact> 0.25694376E+01</totfact>
</mgrwt>
</event>
<event>
 6    1  0.1353269E-005  0.1068714E+04  0.7818608E-02  0.9481603E-01
         21   -1    0    0  501  502  0.00000000000E+00  0.00000000000E+00  0.97836547604E+03  0.97836547604E+03  0.00000000000E+00 0. -1.
          4   -1    0    0  502    0 -0.00000000000E+00 -0.00000000000E+00 -0.58241087522E+03  0.58241087522E+03  0.00000000000E+00 0.  1.
    9000010    2    1    2  501    0  0.35139889397E+03 -0.26639635307E+03  0.27517913433E+03  0.11035729785E+04  0.97349964728E+03 0.  0.
        -13    1    3    3    0    0  0.37889473854E+03 -0.59549098003E+03  0.57727854069E+02  0.70816893923E+03  0.10566000000E+00 0.  1.
          4    1    3    3  501    0 -0.27495844570E+02  0.32909462697E+03  0.21745128026E+03  0.39540403925E+03  0.00000000000E+00 0.  1.
         13    1    1    2    0    0 -0.35139889397E+03  0.26639635307E+03  0.12077546649E+03  0.45720337278E+03  0.10566000000E+00 0. -1.
<mgrwt>
<rscale>  1 0.85653812E+03</rscale>
<asrwt>0</asrwt>
<pdfrwt beam="1">  1       21 0.15051777E+00 0.10687141E+04</pdfrwt>
<pdfrwt beam="2">  1        4 0.89601673E-01 0.10687141E+04</pdfrwt>
<totfact> 0.11222508E+01</totfact>
</mgrwt>
</event>
<event>
 6    1  0.1353269E-005  0.9595024E+03  0.7818608E-02  0.9483086E-01
          4   -1    0    0  502    0 -0.00000000000E+00  0.00000000000E+00  0.66131394067E+03  0.66131394067E+03  0.00000000000E+00 0.  1.
         21   -1    0    0  501  502  0.00000000000E+00 -0.00000000000E+00 -0.98165196266E+03  0.98165196266E+03  0.00000000000E+00 0. -1.
    9000010    2    1    2  501    0  0.54330665854E+03 -0.26879066824E+03 -0.38396187068E+03  0.10334754983E+04  0.74378379848E+03 0.  0.
        -13    1    3    3    0    0 -0.15707145988E+03  0.41368817951E+02 -0.17656535954E+03  0.23991281742E+03  0.10566000000E+00 0.  1.
          4    1    3    3  501    0  0.70037811842E+03 -0.31015948619E+03 -0.20739651114E+03  0.79356268087E+03  0.00000000000E+00 0.  1.
         13    1    1    2    0    0 -0.54330665854E+03  0.26879066824E+03  0.63623848696E+02  0.60949040504E+03  0.10566000000E+00 0. -1.
<mgrwt>
<rscale>  1 0.85542407E+03</rscale>
<asrwt>0</asrwt>
<pdfrwt beam="2">  1       21 0.15102338E+00 0.95950242E+03</pdfrwt>
<pdfrwt beam="1">  1        4 0.10174061E+00 0.95950242E+03</pdfrwt>
<totfact> 0.83203372E+00</totfact>
</mgrwt>
</event>
<event>
 6    1  0.1353269E-005  0.1023307E+04  0.7818608E-02  0.9876541E-01
          4   -1    0    0  502    0 -0.00000000000E+00  0.00000000000E+00  0.48107403917E+03  0.48107403917E+03  0.00000000000E+00 0.  1.
         21   -1    0    0  501  502  0.00000000000E+00 -0.00000000000E+00 -0.71431557482E+03  0.71431557482E+03  0.00000000000E+00 0.  1.
    9000010    2    1    2  501    0  0.53782620731E+02  0.12135201847E+03 -0.13923452341E+03  0.10327359568E+04  0.10146617275E+04 0.  0.
        -13    1    3    3    0    0 -0.25748773676E+03  0.48226260133E+03 -0.76924216085E+02  0.55208196621E+03  0.10566000000E+00 0.  1.
          4    1    3    3  501    0  0.31127035750E+03 -0.36091058287E+03 -0.62310307329E+02  0.48065399060E+03  0.00000000000E+00 0.  1.
         13    1    1    2    0    0 -0.53782620731E+02 -0.12135201847E+03 -0.94007012236E+02  0.16265365717E+03  0.10566000000E+00 0. -1.
<mgrwt>
<rscale>  1 0.61411804E+03</rscale>
<asrwt>0</asrwt>
<pdfrwt beam="2">  1       21 0.10989470E+00 0.10233070E+04</pdfrwt>
<pdfrwt beam="1">  1        4 0.74011391E-01 0.10233070E+04</pdfrwt>
<totfact> 0.40403514E+01</totfact>
</mgrwt>
</event>
<event>
 6    1  0.1353269E-005  0.9948767E+03  0.7818608E-02  0.9795925E-01
          4   -1    0    0  502    0 -0.00000000000E+00  0.00000000000E+00  0.34700825568E+03  0.34700825568E+03  0.00000000000E+00 0.  1.
         21   -1    0    0  501  502  0.00000000000E+00 -0.00000000000E+00 -0.10514268137E+04  0.10514268137E+04  0.00000000000E+00 0.  1.
    9000010    2    1    2  501    0 -0.38483966368E+02  0.18387048868E+03 -0.47657006568E+03  0.11031312954E+04  0.97698017133E+03 0.  0.
        -13    1    3    3    0    0 -0.60862028091E+02 -0.39604133396E+03 -0.10567206733E+03  0.41439054241E+03  0.10566000000E+00 0.  1.
          4    1    3    3  501    0  0.22378061723E+02  0.57991182264E+03 -0.37089799836E+03  0.68874075302E+03  0.00000000000E+00 0.  1.
         13    1    1    2    0    0  0.38483966368E+02 -0.18387048868E+03 -0.22784849229E+03  0.29530377390E+03  0.10566000000E+00 0. -1.
<mgrwt>
<rscale>  1 0.65581675E+03</rscale>
<asrwt>0</asrwt>
<pdfrwt beam="2">  1       21 0.16175797E+00 0.99487669E+03</pdfrwt>
<pdfrwt beam="1">  1        4 0.53385886E-01 0.99487669E+03</pdfrwt>
<totfact> 0.29397869E+01</totfact>
</mgrwt>
</event>
<event>
 6    1  0.1353269E-005  0.1033009E+04  0.7818608E-02  0.9986880E-01
         21   -1    0    0  501  502  0.00000000000E+00  0.00000000000E+00  0.48023069470E+03  0.48023069470E+03  0.00000000000E+00 0.  1.
          4   -1    0    0  502    0 -0.00000000000E+00 -0.00000000000E+00 -0.96835840611E+03  0.96835840611E+03  0.00000000000E+00 0.  1.
    9000010    2    1    2  501    0 -0.73921537445E+02 -0.52530690347E+02 -0.86246238430E+02  0.10366029401E+04  0.10290205900E+04 0.  0.
        -13    1    3    3    0    0  0.45196604252E+03 -0.18778897996E+03 -0.58220621330E+02  0.49287691820E+03  0.10566000000E+00 0.  1.
          4    1    3    3  501    0 -0.52588757997E+03  0.13525828961E+03 -0.28025617100E+02  0.54372602190E+03  0.00000000000E+00 0.  1.
         13    1    1    2    0    0  0.73921537445E+02  0.52530690347E+02 -0.40188147299E+03  0.41198616071E+03  0.10566000000E+00 0. -1.
<mgrwt>
<rscale>  1 0.56229291E+03</rscale>
<asrwt>0</asrwt>
<pdfrwt beam="1">  1       21 0.73881646E-01 0.10330088E+04</pdfrwt>
<pdfrwt beam="2">  1        4 0.14897821E+00 0.10330088E+04</pdfrwt>
<totfact> 0.19043071E+01</totfact>
</mgrwt>
</event>
<event>
 6    1  0.1353269E-005  0.1033347E+04  0.7818608E-02  0.9610203E-01
          4   -1    0    0  502    0 -0.00000000000E+00  0.00000000000E+00  0.86178289539E+03  0.86178289539E+03  0.00000000000E+00 0.  1.
         21   -1    0    0  501  502  0.00000000000E+00 -0.00000000000E+00 -0.53782191443E+03  0.53782191443E+03  0.00000000000E+00 0.  1.
    9000010    2    1    2  501    0 -0.30779431325E+03  0.53538674571E+02  0.15647919237E+03  0.10451278859E+04  0.98498874675E+03 0.  0.
        -13    1    3    3    0    0 -0.49345203653E+03  0.37530444237E+03 -0.46689136446E+02  0.62171394020E+03  0.10566000000E+00 0.  1.
          4    1    3    3  501    0  0.18565772328E+03 -0.32176576780E+03  0.20316832882E+03  0.42341394566E+03  0.00000000000E+00 0.  1.
         13    1    1    2    0    0  0.30779431325E+03 -0.53538674571E+02  0.16748178860E+03  0.35447692396E+03  0.10566000000E+00 0. -1.
<mgrwt>
<rscale>  1 0.76624566E+03</rscale>
<asrwt>0</asrwt>
<pdfrwt beam="2">  1       21 0.82741833E-01 0.10333473E+04</pdfrwt>
<pdfrwt beam="1">  1        4 0.13258198E+00 0.10333473E+04</pdfrwt>
<totfact> 0.19851866E+01</totfact>
</mgrwt>
</event>
<event>
 6    1  0.1353269E-005  0.1060505E+04  0.7818608E-02  0.9585340E-01
          4   -1    0    0  502    0 -0.00000000000E+00  0.00000000000E+00  0.15550423447E+04  0.15550423447E+04  0.00000000000E+00 0.  1.
         21   -1    0    0  501  502  0.00000000000E+00 -0.00000000000E+00 -0.45370524471E+03  0.45370524471E+03  0.00000000000E+00 0.  1.
    9000010    2    1    2  501    0  0.25824657848E+03  0.17989436939E+03  0.23391762214E+03  0.10859963547E+04  0.10127276776E+04 0.  0.
        -13    1    3    3    0    0  0.38529129885E+02 -0.66738023091E+02  0.59306552865E+03  0.59805116003E+03  0.10566000000E+00 0.  1.
          4    1    3    3  501    0  0.21971744860E+03  0.24663239248E+03 -0.35914790651E+03  0.48794519466E+03  0.00000000000E+00 0.  1.
         13    1    1    2    0    0 -0.25824657848E+03 -0.17989436939E+03  0.86741947781E+03  0.92275123467E+03  0.10566000000E+00 0. -1.
<mgrwt>
<rscale>  1 0.78274107E+03</rscale>
<asrwt>0</asrwt>
<pdfrwt beam="2">  1       21 0.69800808E-01 0.10605049E+04</pdfrwt>
<pdfrwt beam="1">  1        4 0.23923728E+00 0.10605049E+04</pdfrwt>
<totfact> 0.52417847E+00</totfact>
</mgrwt>
</event>
<event>
 6    1  0.1353269E-005  0.1053294E+04  0.7818608E-02  0.9616271E-01
          4   -1    0    0  502    0 -0.00000000000E+00  0.00000000000E+00  0.90545514873E+03  0.90545514873E+03  0.00000000000E+00 0.  1.
         21   -1    0    0  501  502  0.00000000000E+00 -0.00000000000E+00 -0.72885048001E+03  0.72885048001E+03  0.00000000000E+00 0.  1.
    9000010    2    1    2  501    0 -0.28287400894E+03 -0.58941070446E+02 -0.28369327156E+03  0.10908298154E+04  0.10128850177E+04 0.  0.
        -13    1    3    3    0    0  0.76706821856E+02 -0.44886070419E+03 -0.32402971592E+03  0.55888740928E+03  0.10566000000E+00 0.  1.
          4    1    3    3  501    0 -0.35958083079E+03  0.38991963375E+03  0.40336444361E+02  0.53194240609E+03  0.00000000000E+00 0.  1.
         13    1    1    2    0    0  0.28287400894E+03  0.58941070446E+02  0.46029794029E+03  0.54347581337E+03  0.10566000000E+00 0. -1.
<mgrwt>
<rscale>  1 0.76228540E+03</rscale>
<asrwt>0</asrwt>
<pdfrwt beam="2">  1       21 0.11213084E+00 0.10532938E+04</pdfrwt>
<pdfrwt beam="1">  1        4 0.13930079E+00 0.10532938E+04</pdfrwt>
<totfact> 0.82496408E+00</totfact>
</mgrwt>
</event>
<event>
 6    1  0.1353269E-005  0.1015655E+04  0.7818608E-02  0.9731809E-01
          4   -1    0    0  502    0 -0.00000000000E+00  0.00000000000E+00  0.12318269121E+04  0.12318269121E+04  0.00000000000E+00 0.  1.
         21   -1    0    0  501  502  0.00000000000E+00 -0.00000000000E+00 -0.31651834244E+03  0.31651834244E+03  0.00000000000E+00 0.  1.
    9000010    2    1    2  501    0  0.19392369849E+03  0.10021849282E+03  0.65464732795E+03  0.12083534293E+04  0.99191972405E+03 0.  0.
        -13    1    3    3    0    0  0.68707116947E+02  0.21324020355E+03 -0.22213462212E+03  0.31549303295E+03  0.10566000000E+00 0.  1.
          4    1    3    3  501    0  0.12521658155E+03 -0.11302171073E+03  0.87678195007E+03  0.89286039634E+03  0.00000000000E+00 0.  1.
         13    1    1    2    0    0 -0.19392369849E+03 -0.10021849282E+03  0.26066124169E+03  0.33999182523E+03  0.10566000000E+00 0. -1.
<mgrwt>
<rscale>  1 0.69154058E+03</rscale>
<asrwt>0</asrwt>
<pdfrwt beam="2">  1       21 0.48695130E-01 0.10156549E+04</pdfrwt>
<pdfrwt beam="1">  1        4 0.18951183E+00 0.10156549E+04</pdfrwt>
<totfact> 0.24578824E+01</totfact>
</mgrwt>
</event>
<event>
 6    1  0.1353269E-005  0.1034794E+04  0.7818608E-02  0.9673759E-01
         21   -1    0    0  501  502  0.00000000000E+00  0.00000000000E+00  0.28588899124E+03  0.28588899124E+03  0.00000000000E+00 0.  1.
          4   -1    0    0  502    0 -0.00000000000E+00 -0.00000000000E+00 -0.16933594445E+04  0.16933594445E+04  0.00000000000E+00 0.  1.
    9000010    2    1    2  501    0 -0.84263005526E+02 -0.23614666216E+03 -0.75699575684E+03  0.12821237396E+04  0.10039587679E+04 0.  0.
        -13    1    3    3    0    0 -0.50406963267E+02  0.15421328091E+03 -0.86146569762E+03  0.87661037942E+03  0.10566000000E+00 0.  1.
          4    1    3    3  501    0 -0.33856042259E+02 -0.39035994306E+03  0.10446994079E+03  0.40551336017E+03  0.00000000000E+00 0.  1.
         13    1    1    2    0    0  0.84263005526E+02  0.23614666216E+03 -0.65047469640E+03  0.69712469614E+03  0.10566000000E+00 0. -1.
<mgrwt>
<rscale>  1 0.72600899E+03</rscale>
<asrwt>0</asrwt>
<pdfrwt beam="1">  1       21 0.43982923E-01 0.10347940E+04</pdfrwt>
<pdfrwt beam="2">  1        4 0.26051683E+00 0.10347940E+04</pdfrwt>
<totfact> 0.10733657E+01</totfact>
</mgrwt>
</event>
<event>
 6    1  0.1353269E-005  0.9980791E+03  0.7818608E-02  0.1006362E+00
         21   -1    0    0  501  502  0.00000000000E+00  0.00000000000E+00  0.18989509739E+03  0.18989509739E+03  0.00000000000E+00 0.  1.
          4   -1    0    0  502    0 -0.00000000000E+00 -0.00000000000E+00 -0.15803778297E+04  0.15803778297E+04  0.00000000000E+00 0.  1.
    9000010    2    1    2  501    0  0.75673706626E+02 -0.22828516874E+02 -0.11803424155E+04  0.15457587517E+04  0.99494434490E+03 0.  0.
        -13    1    3    3    0    0  0.28040849658E+03 -0.22681357330E+03 -0.32530468069E+02  0.36212092525E+03  0.10566000000E+00 0.  1.
          4    1    3    3  501    0 -0.20473478995E+03  0.20398505642E+03 -0.11478119474E+04  0.11836378264E+04  0.00000000000E+00 0.  1.
         13    1    1    2    0    0 -0.75673706626E+02  0.22828516874E+02 -0.21014031683E+03  0.22451417545E+03  0.10566000000E+00 0. -1.
<mgrwt>
<rscale>  1 0.52946641E+03</rscale>
<asrwt>0</asrwt>
<pdfrwt beam="1">  1       21 0.29214632E-01 0.99807911E+03</pdfrwt>
<pdfrwt beam="2">  1        4 0.24313504E+00 0.99807911E+03</pdfrwt>
<totfact> 0.32131987E+01</totfact>
</mgrwt>
</event>
<event>
 6    1  0.1353269E-005  0.1019847E+04  0.7818608E-02  0.9822763E-01
         21   -1    0    0  501  502  0.00000000000E+00  0.00000000000E+00  0.19051002993E+04  0.19051002993E+04  0.00000000000E+00 0.  1.
          4   -1    0    0  502    0 -0.00000000000E+00 -0.00000000000E+00 -0.25136169377E+03  0.25136169377E+03  0.00000000000E+00 0.  1.
    9000010    2    1    2  501    0  0.14478760778E+03 -0.67397607954E+02  0.17067090475E+04  0.19882009821E+04  0.10072643563E+04 0.  0.
        -13    1    3    3    0    0 -0.24260733129E+03 -0.16132966904E+02  0.15470999365E+04  0.15660896573E+04  0.10566000000E+00 0.  1.
          4    1    3    3  501    0  0.38739493908E+03 -0.51264641050E+02  0.15960911093E+03  0.42211132482E+03  0.00000000000E+00 0.  1.
         13    1    1    2    0    0 -0.14478760778E+03  0.67397607954E+02 -0.52970441964E+02  0.16826101097E+03  0.10566000000E+00 0. -1.
<mgrwt>
<rscale>  1 0.64155112E+03</rscale>
<asrwt>0</asrwt>
<pdfrwt beam="1">  1       21 0.29309234E+00 0.10198467E+04</pdfrwt>
<pdfrwt beam="2">  1        4 0.38671031E-01 0.10198467E+04</pdfrwt>
<totfact> 0.76155674E+00</totfact>
</mgrwt>
</event>
<event>
 6    1  0.1353269E-005  0.1300594E+04  0.7818608E-02  0.9145088E-01
         21   -1    0    0  501  502  0.00000000000E+00  0.00000000000E+00  0.20475107033E+04  0.20475107033E+04  0.00000000000E+00 0. -1.
          4   -1    0    0  502    0 -0.00000000000E+00 -0.00000000000E+00 -0.59734971708E+03  0.59734971708E+03  0.00000000000E+00 0.  1.
    9000010    2    1    2  501    0 -0.57856089702E+02 -0.83202326243E+03  0.53407373752E+03  0.14059795162E+04  0.99796473210E+03 0.  0.
        -13    1    3    3    0    0  0.41875863700E+03 -0.31273491353E+03  0.46178005380E+03  0.69742580355E+03  0.10566000000E+00 0.  1.
          4    1    3    3  501    0 -0.47661472670E+03 -0.51928834890E+03  0.72293683723E+02  0.70855371265E+03  0.00000000000E+00 0.  1.
         13    1    1    2    0    0  0.57856089702E+02  0.83202326243E+03  0.91608724870E+03  0.12388809042E+04  0.10566000000E+00 0. -1.
<mgrwt>
<rscale>  1 0.11638633E+04</rscale>
<asrwt>0</asrwt>
<pdfrwt beam="1">  1       21 0.31500164E+00 0.13005936E+04</pdfrwt>
<pdfrwt beam="2">  1        4 0.91899957E-01 0.13005936E+04</pdfrwt>
<totfact> 0.79935230E-01</totfact>
</mgrwt>
</event>
<event>
 6    1  0.1353269E-005  0.1022789E+04  0.7818608E-02  0.9778850E-01
          4   -1    0    0  502    0 -0.00000000000E+00  0.00000000000E+00  0.14364036005E+04  0.14364036005E+04  0.00000000000E+00 0.  1.
         21   -1    0    0  501  502  0.00000000000E+00 -0.00000000000E+00 -0.63428579959E+03  0.63428579959E+03  0.00000000000E+00 0.  1.
    9000010    2    1    2  501    0  0.96071223653E+02 -0.15562491089E+03 -0.20835773124E+03  0.10437962191E+04  0.10063045314E+04 0.  0.
        -13    1    3    3    0    0  0.37179894398E+02  0.25173710431E+03 -0.48511538344E+03  0.54780549527E+03  0.10566000000E+00 0.  1.
          4    1    3    3  501    0  0.58891329255E+02 -0.40736201520E+03  0.27675765220E+03  0.49599072385E+03  0.00000000000E+00 0.  1.
         13    1    1    2    0    0 -0.96071223653E+02  0.15562491089E+03  0.10104755321E+04  0.10268931810E+04  0.10566000000E+00 0. -1.
<mgrwt>
<rscale>  1 0.66510031E+03</rscale>
<asrwt>0</asrwt>
<pdfrwt beam="2">  1       21 0.97582431E-01 0.10227891E+04</pdfrwt>
<pdfrwt beam="1">  1        4 0.22098517E+00 0.10227891E+04</pdfrwt>
<totfact> 0.31008446E+00</totfact>
</mgrwt>
</event>
<event>
 6    1  0.1353269E-005  0.1014145E+04  0.7818608E-02  0.9876852E-01
          4   -1    0    0  502    0 -0.00000000000E+00  0.00000000000E+00  0.56762585233E+03  0.56762585233E+03  0.00000000000E+00 0.  1.
         21   -1    0    0  501  502  0.00000000000E+00 -0.00000000000E+00 -0.64184381381E+03  0.64184381381E+03  0.00000000000E+00 0.  1.
    9000010    2    1    2  501    0 -0.65274460876E+02 -0.11957293304E+03 -0.18866743579E+03  0.10315451459E+04  0.10049535040E+04 0.  0.
        -13    1    3    3    0    0  0.75051056537E+02 -0.51932820414E+03 -0.28490861210E+03  0.59708238386E+03  0.10566000000E+00 0.  1.
          4    1    3    3  501    0 -0.14032551741E+03  0.39975527110E+03  0.96241176312E+02  0.43446276208E+03  0.00000000000E+00 0.  1.
         13    1    1    2    0    0  0.65274460876E+02  0.11957293304E+03  0.11444947431E+03  0.17792452021E+03  0.10566000000E+00 0. -1.
<mgrwt>
<rscale>  1 0.61396377E+03</rscale>
<asrwt>0</asrwt>
<pdfrwt beam="2">  1       21 0.98745202E-01 0.10141450E+04</pdfrwt>
<pdfrwt beam="1">  1        4 0.87327055E-01 0.10141450E+04</pdfrwt>
<totfact> 0.36137033E+01</totfact>
</mgrwt>
</event>
<event>
 6    1  0.1353269E-005  0.1013205E+04  0.7818608E-02  0.9926695E-01
         21   -1    0    0  501  502  0.00000000000E+00  0.00000000000E+00  0.50603488142E+03  0.50603488142E+03  0.00000000000E+00 0.  1.
          4   -1    0    0  502    0 -0.00000000000E+00 -0.00000000000E+00 -0.72420626958E+03  0.72420626958E+03  0.00000000000E+00 0.  1.
    9000010    2    1    2  501    0 -0.10467846415E+03 -0.50853758021E+02 -0.35720967676E+02  0.10138344675E+04  0.10064992074E+04 0.  0.
        -13    1    3    3    0    0 -0.14792679629E+03 -0.10849352323E+03 -0.50591636584E+03  0.53814920053E+03  0.10566000000E+00 0.  1.
          4    1    3    3  501    0  0.43248332135E+02  0.57639765211E+02  0.47019539816E+03  0.47568526698E+03  0.00000000000E+00 0.  1.
         13    1    1    2    0    0  0.10467846415E+03  0.50853758021E+02 -0.18245042048E+03  0.21640668349E+03  0.10566000000E+00 0. -1.
<mgrwt>
<rscale>  1 0.58984804E+03</rscale>
<asrwt>0</asrwt>
<pdfrwt beam="1">  1       21 0.77851521E-01 0.10132050E+04</pdfrwt>
<pdfrwt beam="2">  1        4 0.11141635E+00 0.10132050E+04</pdfrwt>
<totfact> 0.35612481E+01</totfact>
</mgrwt>
</event>
<event>
 6    1  0.1353269E-005  0.1021030E+04  0.7818608E-02  0.9887415E-01
         21   -1    0    0  501  502  0.00000000000E+00  0.00000000000E+00  0.16432330529E+03  0.16432330529E+03  0.00000000000E+00 0.  1.
          4   -1    0    0  502    0 -0.00000000000E+00 -0.00000000000E+00 -0.22611860417E+04  0.22611860417E+04  0.00000000000E+00 0.  1.
    9000010    2    1    2  501    0  0.12081506768E+03  0.45262966977E+02 -0.20464011404E+04  0.22869763163E+04  0.10128464974E+04 0.  0.
        -13    1    3    3    0    0  0.38043363123E+03 -0.29939537788E+03 -0.15758379478E+04  0.16485243671E+04  0.10566000000E+00 0.  1.
          4    1    3    3  501    0 -0.25961856356E+03  0.34465834486E+03 -0.47056319258E+03  0.63845194920E+03  0.00000000000E+00 0.  1.
         13    1    1    2    0    0 -0.12081506768E+03 -0.45262966977E+02 -0.50461596050E+02  0.13853303071E+03  0.10566000000E+00 0. -1.
<mgrwt>
<rscale>  1 0.60875090E+03</rscale>
<asrwt>0</asrwt>
<pdfrwt beam="1">  1       21 0.25280508E-01 0.10210304E+04</pdfrwt>
<pdfrwt beam="2">  1        4 0.34787478E+00 0.10210304E+04</pdfrwt>
<totfact> 0.95104302E+00</totfact>
</mgrwt>
</event>
<event>
 6    1  0.1353269E-005  0.1029107E+04  0.7818608E-02  0.9670432E-01
         21   -1    0    0  501  502  0.00000000000E+00  0.00000000000E+00  0.35139958099E+03  0.35139958099E+03  0.00000000000E+00 0.  1.
          4   -1    0    0  502    0 -0.00000000000E+00 -0.00000000000E+00 -0.13309668433E+04  0.13309668433E+04  0.00000000000E+00 0.  1.
    9000010    2    1    2  501    0 -0.11238273899E+03  0.23199974834E+03 -0.51431504914E+03  0.11504703853E+04  0.99629733235E+03 0.  0.
        -13    1    3    3    0    0 -0.30793081298E+01  0.13482493059E+03  0.29694401151E+03  0.32613341010E+03  0.10566000000E+00 0.  1.
          4    1    3    3  501    0 -0.10930343086E+03  0.97174817747E+02 -0.81125906066E+03  0.82433697521E+03  0.00000000000E+00 0.  1.
         13    1    1    2    0    0  0.11238273899E+03 -0.23199974834E+03 -0.46525221318E+03  0.53189603898E+03  0.10566000000E+00 0. -1.
<mgrwt>
<rscale>  1 0.72804881E+03</rscale>
<asrwt>0</asrwt>
<pdfrwt beam="1">  1       21 0.54061474E-01 0.10291074E+04</pdfrwt>
<pdfrwt beam="2">  1        4 0.20476413E+00 0.10291074E+04</pdfrwt>
<totfact> 0.15474646E+01</totfact>
</mgrwt>
</event>
<event>
 6    1  0.1353269E-005  0.1017217E+04  0.7818608E-02  0.9922927E-01
          4   -1    0    0  502    0 -0.00000000000E+00  0.00000000000E+00  0.59318763852E+03  0.59318763852E+03  0.00000000000E+00 0.  1.
         21   -1    0    0  501  502  0.00000000000E+00 -0.00000000000E+00 -0.69647565419E+03  0.69647565419E+03  0.00000000000E+00 0.  1.
    9000010    2    1    2  501    0 -0.10342635819E+02  0.11594058478E+03 -0.30048832085E+03  0.10606716753E+04  0.10105354930E+04 0.  0.
        -13    1    3    3    0    0 -0.43796051502E+03  0.29491041445E+03 -0.27765185123E+03  0.59655018810E+03  0.10566000000E+00 0.  1.
          4    1    3    3  501    0  0.42761787920E+03 -0.17896982967E+03 -0.22836469625E+02  0.46412148721E+03  0.00000000000E+00 0.  1.
         13    1    1    2    0    0  0.10342635819E+02 -0.11594058478E+03  0.19720030518E+03  0.22899161741E+03  0.10566000000E+00 0. -1.
<mgrwt>
<rscale>  1 0.59162911E+03</rscale>
<asrwt>0</asrwt>
<pdfrwt beam="2">  1       21 0.10715010E+00 0.10172174E+04</pdfrwt>
<pdfrwt beam="1">  1        4 0.91259637E-01 0.10172174E+04</pdfrwt>
<totfact> 0.26557566E+01</totfact>
</mgrwt>
</event>
<event>
 6    1  0.1353269E-005  0.9927177E+03  0.7818608E-02  0.1002380E+00
         21   -1    0    0  501  502  0.00000000000E+00  0.00000000000E+00  0.17179205779E+04  0.17179205779E+04  0.00000000000E+00 0.  1.
          4   -1    0    0  502    0 -0.00000000000E+00 -0.00000000000E+00 -0.33244059067E+03  0.33244059067E+03  0.00000000000E+00 0.  1.
    9000010    2    1    2  501    0 -0.28694985197E+02 -0.86325359667E+02  0.15625849402E+04  0.18512590705E+04  0.98854083412E+03 0.  0.
        -13    1    3    3    0    0 -0.40202828246E+03 -0.12056824400E+02  0.13637142503E+04  0.14217906578E+04  0.10566000000E+00 0.  1.
          4    1    3    3  501    0  0.37333329726E+03 -0.74268535267E+02  0.19887068988E+03  0.42946841266E+03  0.00000000000E+00 0.  1.
         13    1    1    2    0    0  0.28694985197E+02  0.86325359667E+02 -0.17710495303E+03  0.19910209805E+03  0.10566000000E+00 0. -1.
<mgrwt>
<rscale>  1 0.54618967E+03</rscale>
<asrwt>0</asrwt>
<pdfrwt beam="1">  1       21 0.26429547E+00 0.99271771E+03</pdfrwt>
<pdfrwt beam="2">  1        4 0.51144707E-01 0.99271771E+03</pdfrwt>
<totfact> 0.64841618E+00</totfact>
</mgrwt>
</event>
<event>
 6    1  0.1353269E-005  0.9862872E+03  0.7818608E-02  0.9795693E-01
         21   -1    0    0  501  502  0.00000000000E+00  0.00000000000E+00  0.49021307888E+03  0.49021307888E+03  0.00000000000E+00 0. -1.
          4   -1    0    0  502    0 -0.00000000000E+00 -0.00000000000E+00 -0.76248801492E+03  0.76248801492E+03  0.00000000000E+00 0.  1.
    9000010    2    1    2  501    0 -0.13392487346E+03 -0.13890635386E+03 -0.34733949274E+03  0.10456611322E+04  0.96722884223E+03 0.  0.
        -13    1    3    3    0    0  0.32592107470E+03 -0.22731638257E+03  0.87218332410E+02  0.40682223807E+03  0.10566000000E+00 0.  1.
          4    1    3    3  501    0 -0.45984594816E+03  0.88410028710E+02 -0.43455782515E+03  0.63883889410E+03  0.00000000000E+00 0.  1.
         13    1    1    2    0    0  0.13392487346E+03  0.13890635386E+03  0.75064556701E+02  0.20703996163E+03  0.10566000000E+00 0. -1.
<mgrwt>
<rscale>  1 0.65594207E+03</rscale>
<asrwt>0</asrwt>
<pdfrwt beam="1">  1       21 0.75417397E-01 0.98628722E+03</pdfrwt>
<pdfrwt beam="2">  1        4 0.11730585E+00 0.98628722E+03</pdfrwt>
<totfact> 0.33836279E+01</totfact>
</mgrwt>
</event>
<event>
 6    1  0.1353269E-005  0.1069122E+04  0.7818608E-02  0.9543797E-01
          4   -1    0    0  502    0 -0.00000000000E+00  0.00000000000E+00  0.50608519951E+03  0.50608519951E+03  0.00000000000E+00 0.  1.
         21   -1    0    0  501  502  0.00000000000E+00 -0.00000000000E+00 -0.16586550567E+04  0.16586550567E+04  0.00000000000E+00 0.  1.
    9000010    2    1    2  501    0 -0.33432960302E+03  0.11796342737E+03 -0.13783788968E+04  0.17444054050E+04  0.10086278700E+04 0.  0.
        -13    1    3    3    0    0 -0.46647819199E+03  0.13381306380E+03 -0.14872531540E+03  0.50756976885E+03  0.10566000000E+00 0.  1.
          4    1    3    3  501    0  0.13214858897E+03 -0.15849636434E+02 -0.12296535814E+04  0.12368356361E+04  0.00000000000E+00 0.  1.
         13    1    1    2    0    0  0.33432960302E+03 -0.11796342737E+03  0.22580903958E+03  0.42033485125E+03  0.10566000000E+00 0. -1.
<mgrwt>
<rscale>  1 0.81130426E+03</rscale>
<asrwt>0</asrwt>
<pdfrwt beam="2">  1       21 0.25517770E+00 0.10691220E+04</pdfrwt>
<pdfrwt beam="1">  1        4 0.77859262E-01 0.10691220E+04</pdfrwt>
<totfact> 0.29002716E+00</totfact>
</mgrwt>
</event>
<event>
 6    1  0.1353269E-005  0.1034876E+04  0.7818608E-02  0.9648962E-01
         21   -1    0    0  501  502  0.00000000000E+00  0.00000000000E+00  0.11007052210E+04  0.11007052210E+04  0.00000000000E+00 0.  1.
          4   -1    0    0  502    0 -0.00000000000E+00 -0.00000000000E+00 -0.43910802910E+03  0.43910802910E+03  0.00000000000E+00 0.  1.
    9000010    2    1    2  501    0  0.45869735151E+02  0.26870413328E+03  0.72042761054E+03  0.12609459462E+04  0.99833000229E+03 0.  0.
        -13    1    3    3    0    0 -0.31227992088E+03  0.51091428185E+03  0.36520784548E+03  0.70137645665E+03  0.10566000000E+00 0.  1.
          4    1    3    3  501    0  0.35814965603E+03 -0.24221014858E+03  0.35521976507E+03  0.55956948959E+03  0.00000000000E+00 0.  1.
         13    1    1    2    0    0 -0.45869735151E+02 -0.26870413328E+03 -0.58830418638E+02  0.27886730386E+03  0.10566000000E+00 0. -1.
<mgrwt>
<rscale>  1 0.74138578E+03</rscale>
<asrwt>0</asrwt>
<pdfrwt beam="1">  1       21 0.16933926E+00 0.10348762E+04</pdfrwt>
<pdfrwt beam="2">  1        4 0.67555081E-01 0.10348762E+04</pdfrwt>
<totfact> 0.15344417E+01</totfact>
</mgrwt>
</event>
<event>
 6    1  0.1353269E-005  0.1059739E+04  0.7818608E-02  0.9525674E-01
          4   -1    0    0  502    0 -0.00000000000E+00  0.00000000000E+00  0.58262306944E+03  0.58262306944E+03  0.00000000000E+00 0.  1.
         21   -1    0    0  501  502  0.00000000000E+00 -0.00000000000E+00 -0.10048004702E+04  0.10048004702E+04  0.00000000000E+00 0. -1.
    9000010    2    1    2  501    0  0.82420724672E+02 -0.37881685518E+03 -0.67348213332E+02  0.10618770155E+04  0.98628171865E+03 0.  0.
        -13    1    3    3    0    0  0.40297250781E+03 -0.94850891092E+02  0.28890424252E+03  0.50482591663E+03  0.10566000000E+00 0.  1.
          4    1    3    3  501    0 -0.32055178314E+03 -0.28396596409E+03 -0.35625245585E+03  0.55705109885E+03  0.00000000000E+00 0.  1.
         13    1    1    2    0    0 -0.82420724672E+02  0.37881685518E+03 -0.35482918739E+03  0.52554652412E+03  0.10566000000E+00 0. -1.
<mgrwt>
<rscale>  1 0.82417131E+03</rscale>
<asrwt>0</asrwt>
<pdfrwt beam="2">  1       21 0.15458469E+00 0.10597391E+04</pdfrwt>
<pdfrwt beam="1">  1        4 0.89634319E-01 0.10597391E+04</pdfrwt>
<totfact> 0.10415399E+01</totfact>
</mgrwt>
</event>
<event>
 6    1  0.1353269E-005  0.8427640E+03  0.7818608E-02  0.1026967E+00
          4   -1    0    0  502    0 -0.00000000000E+00  0.00000000000E+00  0.38550058327E+03  0.38550058327E+03  0.00000000000E+00 0.  1.
         21   -1    0    0  501  502  0.00000000000E+00 -0.00000000000E+00 -0.58145461357E+03  0.58145461357E+03  0.00000000000E+00 0.  1.
    9000010    2    1    2  501    0  0.27070423663E+02  0.64625408398E+02 -0.24933215955E+03  0.87887292227E+03  0.83984631718E+03 0.  0.
        -13    1    3    3    0    0 -0.21627896247E+03  0.15257012710E+03 -0.46960609333E+03  0.53905855651E+03  0.10566000000E+00 0.  1.
          4    1    3    3  501    0  0.24334938613E+03 -0.87944718698E+02  0.22027393378E+03  0.33981436576E+03  0.00000000000E+00 0.  1.
         13    1    1    2    0    0 -0.27070423663E+02 -0.64625408398E+02  0.53378129244E+02  0.88082274570E+02  0.10566000000E+00 0. -1.
<mgrwt>
<rscale>  1 0.45253950E+03</rscale>
<asrwt>0</asrwt>
<pdfrwt beam="2">  1       21 0.89454556E-01 0.84276396E+03</pdfrwt>
<pdfrwt beam="1">  1        4 0.59307782E-01 0.84276396E+03</pdfrwt>
<totfact> 0.11136608E+02</totfact>
</mgrwt>
</event>
<event>
 6    1  0.1353269E-005  0.9001163E+03  0.7818608E-02  0.9922531E-01
         21   -1    0    0  501  502  0.00000000000E+00  0.00000000000E+00  0.81234313724E+03  0.81234313724E+03  0.00000000000E+00 0.  1.
          4   -1    0    0  502    0 -0.00000000000E+00 -0.00000000000E+00 -0.37819477329E+03  0.37819477329E+03  0.00000000000E+00 0.  1.
    9000010    2    1    2  501    0  0.14396116244E+03  0.87005053358E+02  0.47454162495E+03  0.10175456497E+04  0.88425940756E+03 0.  0.
        -13    1    3    3    0    0 -0.11275263072E+03  0.15160406483E+03 -0.21066748031E+03  0.28298011703E+03  0.10566000000E+00 0.  1.
          4    1    3    3  501    0  0.25671379316E+03 -0.64599011475E+02  0.68520910527E+03  0.73456553269E+03  0.00000000000E+00 0.  1.
         13    1    1    2    0    0 -0.14396116244E+03 -0.87005053358E+02 -0.40393260995E+02  0.17299226081E+03  0.10566000000E+00 0. -1.
<mgrwt>
<rscale>  1 0.59181658E+03</rscale>
<asrwt>0</asrwt>
<pdfrwt beam="1">  1       21 0.12497587E+00 0.90011632E+03</pdfrwt>
<pdfrwt beam="2">  1        4 0.58183812E-01 0.90011632E+03</pdfrwt>
<totfact> 0.49974991E+01</totfact>
</mgrwt>
</event>
<event>
 6    1  0.1353269E-005  0.1006080E+04  0.7818608E-02  0.9828692E-01
          4   -1    0    0  502    0 -0.00000000000E+00  0.00000000000E+00  0.12571618130E+04  0.12571618130E+04  0.00000000000E+00 0.  1.
         21   -1    0    0  501  502  0.00000000000E+00 -0.00000000000E+00 -0.27283036138E+03  0.27283036138E+03  0.00000000000E+00 0.  1.
    9000010    2    1    2  501    0 -0.16240554353E+03 -0.15681720913E+02  0.81415919275E+03  0.12942378832E+04  0.99276131587E+03 0.  0.
        -13    1    3    3    0    0 -0.31371697225E+03  0.15618146011E+03  0.96053687883E+03  0.10224686273E+04  0.10566000000E+00 0.  1.
          4    1    3    3  501    0  0.15131142872E+03 -0.17186318103E+03 -0.14637768608E+03  0.27176925587E+03  0.00000000000E+00 0.  1.
         13    1    1    2    0    0  0.16240554353E+03  0.15681720913E+02  0.17017225883E+03  0.23575429112E+03  0.10566000000E+00 0. -1.
<mgrwt>
<rscale>  1 0.63845215E+03</rscale>
<asrwt>0</asrwt>
<pdfrwt beam="2">  1       21 0.41973903E-01 0.10060798E+04</pdfrwt>
<pdfrwt beam="1">  1        4 0.19340951E+00 0.10060798E+04</pdfrwt>
<totfact> 0.31775535E+01</totfact>
</mgrwt>
</event>
<event>
 6    1  0.1353269E-005  0.1006275E+04  0.7818608E-02  0.9985039E-01
          4   -1    0    0  502    0 -0.00000000000E+00  0.00000000000E+00  0.75876302292E+03  0.75876302292E+03  0.00000000000E+00 0.  1.
         21   -1    0    0  501  502  0.00000000000E+00 -0.00000000000E+00 -0.61466470083E+03  0.61466470083E+03  0.00000000000E+00 0.  1.
    9000010    2    1    2  501    0 -0.79238957535E+02  0.58811855773E+02 -0.19087836585E+03  0.10242185609E+04  0.10014247167E+04 0.  0.
        -13    1    3    3    0    0 -0.34470367942E+03  0.36588154559E+03  0.11535430286E+03  0.51574854180E+03  0.10566000000E+00 0.  1.
          4    1    3    3  501    0  0.26546472189E+03 -0.30706968982E+03 -0.30623266871E+03  0.50847001913E+03  0.00000000000E+00 0.  1.
         13    1    1    2    0    0  0.79238957535E+02 -0.58811855773E+02  0.33497668794E+03  0.34920916282E+03  0.10566000000E+00 0. -1.
<mgrwt>
<rscale>  1 0.56311135E+03</rscale>
<asrwt>0</asrwt>
<pdfrwt beam="2">  1       21 0.94563800E-01 0.10062749E+04</pdfrwt>
<pdfrwt beam="1">  1        4 0.11673277E+00 0.10062749E+04</pdfrwt>
<totfact> 0.19948877E+01</totfact>
</mgrwt>
</event>
<event>
 6    1  0.1353269E-005  0.1084799E+04  0.7818608E-02  0.9496555E-01
          4   -1    0    0  502    0 -0.00000000000E+00  0.00000000000E+00  0.21028050616E+04  0.21028050616E+04  0.00000000000E+00 0.  1.
         21   -1    0    0  501  502  0.00000000000E+00 -0.00000000000E+00 -0.43049031314E+03  0.43049031314E+03  0.00000000000E+00 0. -1.
    9000010    2    1    2  501    0 -0.38283920942E+03 -0.11624279036E+03  0.18099853206E+04  0.21101742997E+04  0.10083206177E+04 0.  0.
        -13    1    3    3    0    0  0.17849000779E+03  0.26982986660E+03  0.25313593024E+03  0.41078540643E+03  0.10566000000E+00 0.  1.
          4    1    3    3  501    0 -0.56132921722E+03 -0.38607265696E+03  0.15568493903E+04  0.16993888933E+04  0.00000000000E+00 0.  1.
         13    1    1    2    0    0  0.38283920942E+03  0.11624279036E+03 -0.13767057205E+03  0.42312107505E+03  0.10566000000E+00 0. -1.
<mgrwt>
<rscale>  1 0.84538305E+03</rscale>
<asrwt>0</asrwt>
<pdfrwt beam="2">  1       21 0.66229280E-01 0.10847989E+04</pdfrwt>
<pdfrwt beam="1">  1        4 0.32350846E+00 0.10847989E+04</pdfrwt>
<totfact> 0.17672748E+00</totfact>
</mgrwt>
</event>
<event>
 6    1  0.1353269E-005  0.1038434E+04  0.7818608E-02  0.9608149E-01
         21   -1    0    0  501  502  0.00000000000E+00  0.00000000000E+00  0.90878448230E+03  0.90878448230E+03  0.00000000000E+00 0.  1.
          4   -1    0    0  502    0 -0.00000000000E+00 -0.00000000000E+00 -0.50021331202E+03  0.50021331202E+03  0.00000000000E+00 0.  1.
    9000010    2    1    2  501    0 -0.30996842588E+03  0.54758353500E+01  0.31688288871E+03  0.10857066532E+04  0.99107707155E+03 0.  0.
        -13    1    3    3    0    0 -0.47825008046E+00  0.27250170210E+03 -0.26135620514E+03  0.37757712258E+03  0.10566000000E+00 0.  1.
          4    1    3    3  501    0 -0.30949017580E+03 -0.26702586675E+03  0.57823909385E+03  0.70812953058E+03  0.00000000000E+00 0.  1.
         13    1    1    2    0    0  0.30996842588E+03 -0.54758353500E+01  0.91688281569E+02  0.32329114116E+03  0.10566000000E+00 0. -1.
<mgrwt>
<rscale>  1 0.76759181E+03</rscale>
<asrwt>0</asrwt>
<pdfrwt beam="1">  1       21 0.13981300E+00 0.10384335E+04</pdfrwt>
<pdfrwt beam="2">  1        4 0.76955894E-01 0.10384335E+04</pdfrwt>
<totfact> 0.19635192E+01</totfact>
</mgrwt>
</event>
<event>
 6    1  0.1353269E-005  0.9967903E+03  0.7818608E-02  0.9797846E-01
          4   -1    0    0  502    0 -0.00000000000E+00  0.00000000000E+00  0.41589505661E+03  0.41589505661E+03  0.00000000000E+00 0.  1.
         21   -1    0    0  501  502  0.00000000000E+00 -0.00000000000E+00 -0.84137582878E+03  0.84137582878E+03  0.00000000000E+00 0.  1.
    9000010    2    1    2  501    0 -0.17553504657E+03  0.60288937556E+02 -0.34281099190E+03  0.10540921161E+04  0.97935872102E+03 0.  0.
        -13    1    3    3    0    0  0.10787743990E+03  0.44302390299E+03  0.18432949596E+02  0.45634143517E+03  0.10566000000E+00 0.  1.
          4    1    3    3  501    0 -0.28341248647E+03 -0.38273496543E+03 -0.36124394150E+03  0.59775068091E+03  0.00000000000E+00 0.  1.
         13    1    1    2    0    0  0.17553504657E+03 -0.60288937556E+02 -0.82669780261E+02  0.20317876931E+03  0.10566000000E+00 0. -1.
<mgrwt>
<rscale>  1 0.65478289E+03</rscale>
<asrwt>0</asrwt>
<pdfrwt beam="2">  1       21 0.12944243E+00 0.99679026E+03</pdfrwt>
<pdfrwt beam="1">  1        4 0.63983855E-01 0.99679026E+03</pdfrwt>
<totfact> 0.36678437E+01</totfact>
</mgrwt>
</event>
<event>
 6    1  0.1353269E-005  0.9264231E+03  0.7818608E-02  0.9988337E-01
          4   -1    0    0  502    0 -0.00000000000E+00  0.00000000000E+00  0.54834422916E+03  0.54834422916E+03  0.00000000000E+00 0.  1.
         21   -1    0    0  501  502  0.00000000000E+00 -0.00000000000E+00 -0.50520598712E+03  0.50520598712E+03  0.00000000000E+00 0.  1.
    9000010    2    1    2  501    0 -0.11002123440E+03  0.59642568501E+02  0.22384706046E+02  0.92669349230E+03  0.91793128589E+03 0.  0.
        -13    1    3    3    0    0 -0.42489205573E+03  0.17940432538E+03 -0.22067050079E+03  0.51128725005E+03  0.10566000000E+00 0.  1.
          4    1    3    3  501    0  0.31487082132E+03 -0.11976175688E+03  0.24305520683E+03  0.41540624225E+03  0.00000000000E+00 0.  1.
         13    1    1    2    0    0  0.11002123440E+03 -0.59642568501E+02  0.20753535990E+02  0.12685672397E+03  0.10566000000E+00 0. -1.
<mgrwt>
<rscale>  1 0.56164598E+03</rscale>
<asrwt>0</asrwt>
<pdfrwt beam="2">  1       21 0.77723998E-01 0.92642310E+03</pdfrwt>
<pdfrwt beam="1">  1        4 0.84360651E-01 0.92642310E+03</pdfrwt>
<totfact> 0.70064141E+01</totfact>
</mgrwt>
</event>
<event>
 6    1  0.1353269E-005  0.1004294E+04  0.7818608E-02  0.1001686E+00
          4   -1    0    0  502    0 -0.00000000000E+00  0.00000000000E+00  0.61864595887E+03  0.61864595887E+03  0.00000000000E+00 0.  1.
         21   -1    0    0  501  502  0.00000000000E+00 -0.00000000000E+00 -0.48494792526E+03  0.48494792526E+03  0.00000000000E+00 0.  1.
    9000010    2    1    2  501    0  0.62054799770E+02  0.64901787090E+02  0.10735651685E+03  0.10100154314E+04  0.10002713181E+04 0.  0.
        -13    1    3    3    0    0 -0.23554352837E+02  0.38387828919E+03  0.40992980346E+03  0.56210301847E+03  0.10566000000E+00 0.  1.
          4    1    3    3  501    0  0.85609152608E+02 -0.31897650210E+03 -0.30257328661E+03  0.44791241295E+03  0.00000000000E+00 0.  1.
         13    1    1    2    0    0 -0.62054799770E+02 -0.64901787090E+02  0.26341516764E+02  0.93578452709E+02  0.10566000000E+00 0. -1.
<mgrwt>
<rscale>  1 0.54917147E+03</rscale>
<asrwt>0</asrwt>
<pdfrwt beam="2">  1       21 0.74607373E-01 0.10042937E+04</pdfrwt>
<pdfrwt beam="1">  1        4 0.95176301E-01 0.10042937E+04</pdfrwt>
<totfact> 0.57693817E+01</totfact>
</mgrwt>
</event>
<event>
 6    1  0.1353269E-005  0.1081125E+04  0.7818608E-02  0.9485665E-01
          4   -1    0    0  502    0 -0.00000000000E+00  0.00000000000E+00  0.45998539563E+03  0.45998539563E+03  0.00000000000E+00 0.  1.
         21   -1    0    0  501  502  0.00000000000E+00 -0.00000000000E+00 -0.16375712105E+04  0.16375712105E+04  0.00000000000E+00 0.  1.
    9000010    2    1    2  501    0 -0.88440225258E+02 -0.41050049493E+03 -0.12697296729E+04  0.16676463462E+04  0.99624222156E+03 0.  0.
        -13    1    3    3    0    0  0.38439922767E+03 -0.34205509381E+03 -0.98544963501E+03  0.11116993513E+04  0.10566000000E+00 0.  1.
          4    1    3    3  501    0 -0.47283945293E+03 -0.68445401115E+02 -0.28428003791E+03  0.55594699490E+03  0.00000000000E+00 0.  1.
         13    1    1    2    0    0  0.88440225258E+02  0.41050049493E+03  0.92143858093E+02  0.42991025985E+03  0.10566000000E+00 0. -1.
<mgrwt>
<rscale>  1 0.85348988E+03</rscale>
<asrwt>0</asrwt>
<pdfrwt beam="2">  1       21 0.25193404E+00 0.10811248E+04</pdfrwt>
<pdfrwt beam="1">  1        4 0.70766983E-01 0.10811248E+04</pdfrwt>
<totfact> 0.37694849E+00</totfact>
</mgrwt>
</event>
<event>
 6    1  0.1353269E-005  0.1260314E+04  0.7818608E-02  0.9223464E-01
          4   -1    0    0  502    0 -0.00000000000E+00  0.00000000000E+00  0.37793278808E+03  0.37793278808E+03  0.00000000000E+00 0.  1.
         21   -1    0    0  501  502  0.00000000000E+00 -0.00000000000E+00 -0.24992698980E+04  0.24992698980E+04  0.00000000000E+00 0. -1.
    9000010    2    1    2  501    0 -0.42357770162E+03  0.53612495214E+03 -0.13946837252E+04  0.18797693869E+04  0.10590289047E+04 0.  0.
        -13    1    3    3    0    0  0.33264452137E+03  0.27860213422E+03 -0.68686362346E+03  0.81243656687E+03  0.10566000000E+00 0.  1.
          4    1    3    3  501    0 -0.75622222300E+03  0.25752281792E+03 -0.70782010173E+03  0.10673328200E+04  0.00000000000E+00 0.  1.
         13    1    1    2    0    0  0.42357770162E+03 -0.53612495214E+03 -0.72665338476E+03  0.99743329921E+03  0.10566000000E+00 0. -1.
<mgrwt>
<rscale>  1 0.10814486E+04</rscale>
<asrwt>0</asrwt>
<pdfrwt beam="2">  1       21 0.38450307E+00 0.12603136E+04</pdfrwt>
<pdfrwt beam="1">  1        4 0.58143505E-01 0.12603136E+04</pdfrwt>
<totfact> 0.81947135E-01</totfact>
</mgrwt>
</event>
<event>
 6    1  0.1353269E-005  0.1029542E+04  0.7818608E-02  0.9681847E-01
         21   -1    0    0  501  502  0.00000000000E+00  0.00000000000E+00  0.78908122568E+03  0.78908122568E+03  0.00000000000E+00 0.  1.
          4   -1    0    0  502    0 -0.00000000000E+00 -0.00000000000E+00 -0.65739911632E+03  0.65739911632E+03  0.00000000000E+00 0.  1.
    9000010    2    1    2  501    0 -0.76285743027E+02 -0.23570563163E+03  0.37836585924E+03  0.10968669226E+04  0.99928957925E+03 0.  0.
        -13    1    3    3    0    0 -0.15732635715E+03 -0.54031573398E+03 -0.50063763269E+02  0.56497704962E+03  0.10566000000E+00 0.  1.
          4    1    3    3  501    0  0.81040614118E+02  0.30461010235E+03  0.42842962251E+03  0.53188987303E+03  0.00000000000E+00 0.  1.
         13    1    1    2    0    0  0.76285743027E+02  0.23570563163E+03 -0.24668374987E+03  0.34961341935E+03  0.10566000000E+00 0. -1.
<mgrwt>
<rscale>  1 0.72107992E+03</rscale>
<asrwt>0</asrwt>
<pdfrwt beam="1">  1       21 0.12139711E+00 0.10295418E+04</pdfrwt>
<pdfrwt beam="2">  1        4 0.10113833E+00 0.10295418E+04</pdfrwt>
<totfact> 0.15078659E+01</totfact>
</mgrwt>
</event>
<event>
 6    1  0.1353269E-005  0.9163977E+03  0.7818608E-02  0.9749232E-01
         21   -1    0    0  501  502  0.00000000000E+00  0.00000000000E+00  0.39903556522E+03  0.39903556522E+03  0.00000000000E+00 0.  1.
          4   -1    0    0  502    0 -0.00000000000E+00 -0.00000000000E+00 -0.10201320509E+04  0.10201320509E+04  0.00000000000E+00 0.  1.
    9000010    2    1    2  501    0  0.28045148802E+03  0.83396002703E-01 -0.24237080906E+03  0.94790739778E+03  0.87242866848E+03 0.  0.
        -13    1    3    3    0    0 -0.25274722095E+03  0.19407473520E+02  0.14178582297E+03  0.29044971765E+03  0.10566000000E+00 0.  1.
          4    1    3    3  501    0  0.53319870897E+03 -0.19324077517E+02 -0.38415663203E+03  0.65745768012E+03  0.00000000000E+00 0.  1.
         13    1    1    2    0    0 -0.28045148802E+03 -0.83396002703E-01 -0.37872567657E+03  0.47126021830E+03  0.10566000000E+00 0. -1.
<mgrwt>
<rscale>  1 0.68159667E+03</rscale>
<asrwt>0</asrwt>
<pdfrwt beam="1">  1       21 0.61390088E-01 0.91639774E+03</pdfrwt>
<pdfrwt beam="2">  1        4 0.15694339E+00 0.91639774E+03</pdfrwt>
<totfact> 0.25504247E+01</totfact>
</mgrwt>
</event>
<event>
 6    1  0.1353269E-005  0.1018418E+04  0.7818608E-02  0.9799444E-01
         21   -1    0    0  501  502  0.00000000000E+00  0.00000000000E+00  0.15770494678E+03  0.15770494678E+03  0.00000000000E+00 0.  1.
          4   -1    0    0  502    0 -0.00000000000E+00 -0.00000000000E+00 -0.25879640998E+04  0.25879640998E+04  0.00000000000E+00 0.  1.
    9000010    2    1    2  501    0 -0.36766099035E+02  0.16916418408E+03 -0.15931457181E+04  0.18908432273E+04  0.10035968134E+04 0.  0.
        -13    1    3    3    0    0  0.79076158886E+02 -0.10877860043E+03 -0.15838844785E+04  0.15895835540E+04  0.10566000000E+00 0.  1.
          4    1    3    3  501    0 -0.11584225792E+03  0.27794278451E+03 -0.92612395920E+01  0.30125967327E+03  0.00000000000E+00 0.  1.
         13    1    1    2    0    0  0.36766099035E+02 -0.16916418408E+03 -0.83711343497E+03  0.85482581932E+03  0.10566000000E+00 0. -1.
<mgrwt>
<rscale>  1 0.65392390E+03</rscale>
<asrwt>0</asrwt>
<pdfrwt beam="1">  1       21 0.24262301E-01 0.10184178E+04</pdfrwt>
<pdfrwt beam="2">  1        4 0.39814829E+00 0.10184178E+04</pdfrwt>
<totfact> 0.47670994E+00</totfact>
</mgrwt>
</event>
<event>
 6    1  0.1353269E-005  0.1115011E+04  0.7818608E-02  0.9427932E-01
         21   -1    0    0  501  502  0.00000000000E+00  0.00000000000E+00  0.83365191140E+03  0.83365191140E+03  0.00000000000E+00 0.  1.
          4   -1    0    0  502    0 -0.00000000000E+00 -0.00000000000E+00 -0.79101861003E+03  0.79101861003E+03  0.00000000000E+00 0.  1.
    9000010    2    1    2  501    0 -0.33343444881E+03  0.33032981630E+03  0.19347062294E+03  0.11316713045E+04  0.10114112617E+04 0.  0.
        -13    1    3    3    0    0  0.72108257951E+02  0.61044503125E+03  0.42353628628E+02  0.61614655567E+03  0.10566000000E+00 0.  1.
          4    1    3    3  501    0 -0.40554270676E+03 -0.28011521495E+03  0.15111699431E+03  0.51552474880E+03  0.00000000000E+00 0.  1.
         13    1    1    2    0    0  0.33343444881E+03 -0.33032981630E+03 -0.15083732157E+03  0.49299921697E+03  0.10566000000E+00 0. -1.
<mgrwt>
<rscale>  1 0.89812174E+03</rscale>
<asrwt>0</asrwt>
<pdfrwt beam="1">  1       21 0.12825414E+00 0.11150108E+04</pdfrwt>
<pdfrwt beam="2">  1        4 0.12169517E+00 0.11150108E+04</pdfrwt>
<totfact> 0.81839642E+00</totfact>
</mgrwt>
</event>
<event>
 6    1  0.1353269E-005  0.1009750E+04  0.7818608E-02  0.9929330E-01
          4   -1    0    0  502    0 -0.00000000000E+00  0.00000000000E+00  0.36671978673E+03  0.36671978673E+03  0.00000000000E+00 0.  1.
         21   -1    0    0  501  502  0.00000000000E+00 -0.00000000000E+00 -0.10150046621E+04  0.10150046621E+04  0.00000000000E+00 0.  1.
    9000010    2    1    2  501    0  0.96102078065E+02  0.66011036147E+02 -0.72419612773E+03  0.12426000596E+04  0.10029964159E+04 0.  0.
        -13    1    3    3    0    0 -0.33618543645E+03  0.10317864117E+03  0.49914717261E+02  0.35518723209E+03  0.10566000000E+00 0.  1.
          4    1    3    3  501    0  0.43228751452E+03 -0.37167605024E+02 -0.77411084500E+03  0.88741282750E+03  0.00000000000E+00 0.  1.
         13    1    1    2    0    0 -0.96102078065E+02 -0.66011036147E+02  0.75911252315E+02  0.13912438928E+03  0.10566000000E+00 0. -1.
<mgrwt>
<rscale>  1 0.58860655E+03</rscale>
<asrwt>0</asrwt>
<pdfrwt beam="2">  1       21 0.15615456E+00 0.10097499E+04</pdfrwt>
<pdfrwt beam="1">  1        4 0.56418430E-01 0.10097499E+04</pdfrwt>
<totfact> 0.28833581E+01</totfact>
</mgrwt>
</event>
<event>
 6    1  0.1353269E-005  0.1021763E+04  0.7818608E-02  0.9788208E-01
          4   -1    0    0  502    0 -0.00000000000E+00  0.00000000000E+00  0.14530928631E+04  0.14530928631E+04  0.00000000000E+00 0.  1.
         21   -1    0    0  501  502  0.00000000000E+00 -0.00000000000E+00 -0.24970521618E+03  0.24970521618E+03  0.00000000000E+00 0.  1.
    9000010    2    1    2  501    0  0.30222524681E+02  0.17528484543E+03  0.96554538099E+03  0.14058012230E+04  0.10061615266E+04 0.  0.
        -13    1    3    3    0    0 -0.17269020832E+03  0.55588473340E+03  0.46468103285E+03  0.74482093038E+03  0.10566000000E+00 0.  1.
          4    1    3    3  501    0  0.20291273301E+03 -0.38059988797E+03  0.50086434814E+03  0.66098029258E+03  0.00000000000E+00 0.  1.
         13    1    1    2    0    0 -0.30222524681E+02 -0.17528484543E+03  0.23784226589E+03  0.29699685628E+03  0.10566000000E+00 0. -1.
<mgrwt>
<rscale>  1 0.65999252E+03</rscale>
<asrwt>0</asrwt>
<pdfrwt beam="2">  1       21 0.38416188E-01 0.10217628E+04</pdfrwt>
<pdfrwt beam="1">  1        4 0.22355274E+00 0.10217628E+04</pdfrwt>
<totfact> 0.24297623E+01</totfact>
</mgrwt>
</event>
<event>
 6    1  0.1353269E-005  0.1121193E+04  0.7818608E-02  0.9399820E-01
          4   -1    0    0  502    0 -0.00000000000E+00  0.00000000000E+00  0.27674772630E+04  0.27674772630E+04  0.00000000000E+00 0.  1.
         21   -1    0    0  501  502  0.00000000000E+00 -0.00000000000E+00 -0.38154239920E+03  0.38154239920E+03  0.00000000000E+00 0. -1.
    9000010    2    1    2  501    0  0.44116474287E+03 -0.25645978378E+03  0.23886757166E+04  0.26387202653E+04  0.99833611997E+03 0.  0.
        -13    1    3    3    0    0  0.34246362516E+03 -0.27553645965E+03  0.26621349764E+03  0.51387869448E+03  0.10566000000E+00 0.  1.
          4    1    3    3  501    0  0.98701117712E+02  0.19076675866E+02  0.21224622190E+04  0.21248415709E+04  0.00000000000E+00 0.  1.
         13    1    1    2    0    0 -0.44116474287E+03  0.25645978378E+03 -0.27408527713E+01  0.51029939691E+03  0.10566000000E+00 0. -1.
<mgrwt>
<rscale>  1 0.92090522E+03</rscale>
<asrwt>0</asrwt>
<pdfrwt beam="2">  1       21 0.58698832E-01 0.11211927E+04</pdfrwt>
<pdfrwt beam="1">  1        4 0.42576572E+00 0.11211927E+04</pdfrwt>
<totfact> 0.47436295E-01</totfact>
</mgrwt>
</event>
<event>
 6    1  0.1353269E-005  0.1081733E+04  0.7818608E-02  0.9579968E-01
         21   -1    0    0  501  502  0.00000000000E+00  0.00000000000E+00  0.60584792877E+03  0.60584792877E+03  0.00000000000E+00 0.  1.
          4   -1    0    0  502    0 -0.00000000000E+00 -0.00000000000E+00 -0.11794555587E+04  0.11794555587E+04  0.00000000000E+00 0.  1.
    9000010    2    1    2  501    0 -0.30257205378E+02  0.30056879333E+03  0.59969861755E+02  0.10833935594E+04  0.10386953943E+04 0.  0.
        -13    1    3    3    0    0  0.38708349374E+03 -0.13435012768E+03  0.21259207152E+03  0.46160479630E+03  0.10566000000E+00 0.  1.
          4    1    3    3  501    0 -0.41734069912E+03  0.43491892101E+03 -0.15262220976E+03  0.62178876309E+03  0.00000000000E+00 0.  1.
         13    1    1    2    0    0  0.30257205378E+02 -0.30056879333E+03 -0.63357749173E+03  0.70190992812E+03  0.10566000000E+00 0. -1.
<mgrwt>
<rscale>  1 0.78636332E+03</rscale>
<asrwt>0</asrwt>
<pdfrwt beam="1">  1       21 0.93207374E-01 0.10817325E+04</pdfrwt>
<pdfrwt beam="2">  1        4 0.18145470E+00 0.10817325E+04</pdfrwt>
<totfact> 0.62959935E+00</totfact>
</mgrwt>
</event>
<event>
 6    1  0.1353269E-005  0.1057150E+04  0.7818608E-02  0.9573712E-01
         21   -1    0    0  501  502  0.00000000000E+00  0.00000000000E+00  0.96418455750E+03  0.96418455750E+03  0.00000000000E+00 0.  1.
          4   -1    0    0  502    0 -0.00000000000E+00 -0.00000000000E+00 -0.64706694937E+03  0.64706694937E+03  0.00000000000E+00 0.  1.
    9000010    2    1    2  501    0  0.33036722695E+03 -0.14862126221E+02  0.56434509152E+03  0.11983534236E+04  0.10040927040E+04 0.  0.
        -13    1    3    3    0    0 -0.23399877734E+03 -0.18934836971E+03 -0.92545324042E+02  0.31491726068E+03  0.10566000000E+00 0.  1.
          4    1    3    3  501    0  0.56436600428E+03  0.17448624349E+03  0.65689041557E+03  0.88343616295E+03  0.00000000000E+00 0.  1.
         13    1    1    2    0    0 -0.33036722695E+03  0.14862126221E+02 -0.24722748340E+03  0.41289808324E+03  0.10566000000E+00 0. -1.
<mgrwt>
<rscale>  1 0.79060831E+03</rscale>
<asrwt>0</asrwt>
<pdfrwt beam="1">  1       21 0.14833609E+00 0.10571497E+04</pdfrwt>
<pdfrwt beam="2">  1        4 0.99548761E-01 0.10571497E+04</pdfrwt>
<totfact> 0.91100542E+00</totfact>
</mgrwt>
</event>
<event>
 6    1  0.1353269E-005  0.1030450E+04  0.7818608E-02  0.9719414E-01
          4   -1    0    0  502    0 -0.00000000000E+00  0.00000000000E+00  0.18845088175E+04  0.18845088175E+04  0.00000000000E+00 0.  1.
         21   -1    0    0  501  502  0.00000000000E+00 -0.00000000000E+00 -0.22641805999E+03  0.22641805999E+03  0.00000000000E+00 0.  1.
    9000010    2    1    2  501    0  0.13694241110E+03  0.16941943810E+03  0.10779887891E+04  0.14912701379E+04  0.10071596819E+04 0.  0.
        -13    1    3    3    0    0  0.13626206997E+03  0.52046073249E+03  0.99409704812E+03  0.11303431683E+04  0.10566000000E+00 0.  1.
          4    1    3    3  501    0  0.68034113868E+00 -0.35104129439E+03  0.83891740969E+02  0.36092696967E+03  0.00000000000E+00 0.  1.
         13    1    1    2    0    0 -0.13694241110E+03 -0.16941943810E+03  0.58010196839E+03  0.61965673954E+03  0.10566000000E+00 0. -1.
<mgrwt>
<rscale>  1 0.69872572E+03</rscale>
<asrwt>0</asrwt>
<pdfrwt beam="2">  1       21 0.34833549E-01 0.10304498E+04</pdfrwt>
<pdfrwt beam="1">  1        4 0.28992442E+00 0.10304498E+04</pdfrwt>
<totfact> 0.11517203E+01</totfact>
</mgrwt>
</event>
<event>
 6    1  0.1353269E-005  0.1129756E+04  0.7818608E-02  0.9383171E-01
          4   -1    0    0  502    0 -0.00000000000E+00  0.00000000000E+00  0.12162625865E+04  0.12162625865E+04  0.00000000000E+00 0.  1.
         21   -1    0    0  501  502  0.00000000000E+00 -0.00000000000E+00 -0.56657462752E+03  0.56657462752E+03  0.00000000000E+00 0.  1.
    9000010    2    1    2  501    0 -0.38709917299E+03 -0.36116812972E+03  0.47201701623E+03  0.12243972775E+04  0.99802827711E+03 0.  0.
        -13    1    3    3    0    0  0.16785429849E+03  0.22500125666E+03  0.27615008872E+03  0.39377596890E+03  0.10566000000E+00 0.  1.
          4    1    3    3  501    0 -0.55495347147E+03 -0.58616938637E+03  0.19586692751E+03  0.83062130861E+03  0.00000000000E+00 0.  1.
         13    1    1    2    0    0  0.38709917299E+03  0.36116812972E+03  0.17767094278E+03  0.55843993654E+03  0.10566000000E+00 0. -1.
<mgrwt>
<rscale>  1 0.93473639E+03</rscale>
<asrwt>0</asrwt>
<pdfrwt beam="2">  1       21 0.87165328E-01 0.11297560E+04</pdfrwt>
<pdfrwt beam="1">  1        4 0.18711732E+00 0.11297560E+04</pdfrwt>
<totfact> 0.67313187E+00</totfact>
</mgrwt>
</event>
<event>
 6    1  0.1353269E-005  0.1008846E+04  0.7818608E-02  0.9933500E-01
         21   -1    0    0  501  502  0.00000000000E+00  0.00000000000E+00  0.56790389965E+03  0.56790389965E+03  0.00000000000E+00 0.  1.
          4   -1    0    0  502    0 -0.00000000000E+00 -0.00000000000E+00 -0.55666038657E+03  0.55666038657E+03  0.00000000000E+00 0.  1.
    9000010    2    1    2  501    0 -0.50171093869E+02 -0.10387320243E+03  0.18064084836E+02  0.10090077537E+04  0.10022292926E+04 0.  0.
        -13    1    3    3    0    0  0.13796481372E+02  0.15354995169E+02  0.50408346612E+03  0.50450596702E+03  0.10566000000E+00 0.  1.
          4    1    3    3  501    0 -0.63967575242E+02 -0.11922819760E+03 -0.48601938129E+03  0.50450178669E+03  0.00000000000E+00 0.  1.
         13    1    1    2    0    0  0.50171093869E+02  0.10387320243E+03 -0.68205717568E+01  0.11555653251E+03  0.10566000000E+00 0. -1.
<mgrwt>
<rscale>  1 0.58664833E+03</rscale>
<asrwt>0</asrwt>
<pdfrwt beam="1">  1       21 0.87369831E-01 0.10088460E+04</pdfrwt>
<pdfrwt beam="2">  1        4 0.85640059E-01 0.10088460E+04</pdfrwt>
<totfact> 0.50958215E+01</totfact>
</mgrwt>
</event>
<event>
 6    1  0.1353269E-005  0.1035640E+04  0.7818608E-02  0.9631037E-01
         21   -1    0    0  501  502  0.00000000000E+00  0.00000000000E+00  0.15404767823E+03  0.15404767823E+03  0.00000000000E+00 0.  1.
          4   -1    0    0  502    0 -0.00000000000E+00 -0.00000000000E+00 -0.30177827379E+04  0.30177827379E+04  0.00000000000E+00 0.  1.
    9000010    2    1    2  501    0  0.55282910922E+02  0.28372490601E+03 -0.18785077740E+04  0.21450739513E+04  0.99448216522E+03 0.  0.
        -13    1    3    3    0    0 -0.72724115773E+02  0.43133374824E+03 -0.18989005183E+04  0.19486304907E+04  0.10566000000E+00 0.  1.
          4    1    3    3  501    0  0.12800702669E+03 -0.14760884222E+03  0.20392744378E+02  0.19644346059E+03  0.00000000000E+00 0.  1.
         13    1    1    2    0    0 -0.55282910922E+02 -0.28372490601E+03 -0.98522728574E+03  0.10267564649E+04  0.10566000000E+00 0. -1.
<mgrwt>
<rscale>  1 0.75275548E+03</rscale>
<asrwt>0</asrwt>
<pdfrwt beam="1">  1       21 0.23699646E-01 0.10356403E+04</pdfrwt>
<pdfrwt beam="2">  1        4 0.46427421E+00 0.10356403E+04</pdfrwt>
<totfact> 0.16495179E+00</totfact>
</mgrwt>
</event>
<event>
 6    1  0.1353269E-005  0.1024153E+04  0.7818608E-02  0.9700788E-01
         21   -1    0    0  501  502  0.00000000000E+00  0.00000000000E+00  0.16722985395E+04  0.16722985395E+04  0.00000000000E+00 0.  1.
          4   -1    0    0  502    0 -0.00000000000E+00 -0.00000000000E+00 -0.32117248085E+03  0.32117248085E+03  0.00000000000E+00 0.  1.
    9000010    2    1    2  501    0 -0.20412020908E+03  0.11876661164E+03  0.14169382858E+04  0.17483142783E+04  0.99655313065E+03 0.  0.
        -13    1    3    3    0    0  0.37548635512E+03  0.11959097564E+03  0.31988864776E+03  0.50756355510E+03  0.10566000000E+00 0.  1.
          4    1    3    3  501    0 -0.57960656420E+03 -0.82436400693E+00  0.10970496380E+04  0.12407507232E+04  0.00000000000E+00 0.  1.
         13    1    1    2    0    0  0.20412020908E+03 -0.11876661164E+03 -0.65812227086E+02  0.24515674209E+03  0.10566000000E+00 0. -1.
<mgrwt>
<rscale>  1 0.70969897E+03</rscale>
<asrwt>0</asrwt>
<pdfrwt beam="1">  1       21 0.25727669E+00 0.10241527E+04</pdfrwt>
<pdfrwt beam="2">  1        4 0.49411152E-01 0.10241527E+04</pdfrwt>
<totfact> 0.76825069E+00</totfact>
</mgrwt>
</event>
<event>
 6    1  0.1353269E-005  0.1058738E+04  0.7818608E-02  0.9573172E-01
         21   -1    0    0  501  502  0.00000000000E+00  0.00000000000E+00  0.11836012506E+04  0.11836012506E+04  0.00000000000E+00 0.  1.
          4   -1    0    0  502    0 -0.00000000000E+00 -0.00000000000E+00 -0.44656902944E+03  0.44656902944E+03  0.00000000000E+00 0.  1.
    9000010    2    1    2  501    0 -0.23171488951E+03  0.23472299823E+03  0.75419104315E+03  0.12998959815E+04  0.10060510709E+04 0.  0.
        -13    1    3    3    0    0 -0.55096913173E+03 -0.12594642619E+03  0.30968770962E+03  0.64446565079E+03  0.10566000000E+00 0.  1.
          4    1    3    3  501    0  0.31925424222E+03  0.36066942442E+03  0.44450333353E+03  0.65543033070E+03  0.00000000000E+00 0.  1.
         13    1    1    2    0    0  0.23171488951E+03 -0.23472299823E+03 -0.17158822019E+02  0.33027429851E+03  0.10566000000E+00 0. -1.
<mgrwt>
<rscale>  1 0.79097588E+03</rscale>
<asrwt>0</asrwt>
<pdfrwt beam="1">  1       21 0.18209250E+00 0.10587377E+04</pdfrwt>
<pdfrwt beam="2">  1        4 0.68702928E-01 0.10587377E+04</pdfrwt>
<totfact> 0.11871912E+01</totfact>
</mgrwt>
</event>
<event>
 6    1  0.1353269E-005  0.8283256E+03  0.7818608E-02  0.1012391E+00
          4   -1    0    0  502    0 -0.00000000000E+00  0.00000000000E+00  0.50865737421E+03  0.50865737421E+03  0.00000000000E+00 0.  1.
         21   -1    0    0  501  502  0.00000000000E+00 -0.00000000000E+00 -0.45102577255E+03  0.45102577255E+03  0.00000000000E+00 0.  1.
    9000010    2    1    2  501    0  0.88923140240E+02 -0.72536250196E+02 -0.62415913495E+01  0.82834911305E+03  0.82033801763E+03 0.  0.
        -13    1    3    3    0    0 -0.11802288951E+03 -0.11982380270E+02  0.37337575286E+03  0.39176835486E+03  0.10566000000E+00 0.  1.
          4    1    3    3  501    0  0.20694602975E+03 -0.60553869926E+02 -0.37961734421E+03  0.43658075818E+03  0.00000000000E+00 0.  1.
         13    1    1    2    0    0 -0.88923140240E+02  0.72536250196E+02  0.63873193014E+02  0.13133403372E+03  0.10566000000E+00 0. -1.
<mgrwt>
<rscale>  1 0.50535232E+03</rscale>
<asrwt>0</asrwt>
<pdfrwt beam="2">  1       21 0.69388581E-01 0.82832560E+03</pdfrwt>
<pdfrwt beam="1">  1        4 0.78254980E-01 0.82832560E+03</pdfrwt>
<totfact> 0.10902503E+02</totfact>
</mgrwt>
</event>
<event>
 6    1  0.1353269E-005  0.1301142E+04  0.7818608E-02  0.9147685E-01
          4   -1    0    0  502    0 -0.00000000000E+00  0.00000000000E+00  0.21277043757E+04  0.21277043757E+04  0.00000000000E+00 0.  1.
         21   -1    0    0  501  502  0.00000000000E+00 -0.00000000000E+00 -0.63048089248E+03  0.63048089248E+03  0.00000000000E+00 0.  1.
    9000010    2    1    2  501    0  0.78784025382E+02  0.82107238538E+03  0.35396221879E+03  0.13484288656E+04  0.10062824497E+04 0.  0.
        -13    1    3    3    0    0 -0.88548684294E+02  0.96183655521E+03  0.49786068330E+03  0.10866626429E+04  0.10566000000E+00 0.  1.
          4    1    3    3  501    0  0.16733270968E+03 -0.14076416983E+03 -0.14389846451E+03  0.26176622265E+03  0.00000000000E+00 0.  1.
         13    1    1    2    0    0 -0.78784025382E+02 -0.82107238538E+03  0.11432612644E+04  0.14097564026E+04  0.10566000000E+00 0. -1.
<mgrwt>
<rscale>  1 0.11610114E+04</rscale>
<asrwt>0</asrwt>
<pdfrwt beam="2">  1       21 0.96997061E-01 0.13011422E+04</pdfrwt>
<pdfrwt beam="1">  1        4 0.32733913E+00 0.13011422E+04</pdfrwt>
<totfact> 0.65666351E-01</totfact>
</mgrwt>
</event>
<event>
 6    1  0.1353269E-005  0.1506857E+04  0.7818608E-02  0.8974125E-01
          4   -1    0    0  502    0 -0.00000000000E+00  0.00000000000E+00  0.14275288112E+04  0.14275288112E+04  0.00000000000E+00 0.  1.
         21   -1    0    0  501  502  0.00000000000E+00 -0.00000000000E+00 -0.11393625168E+04  0.11393625168E+04  0.00000000000E+00 0. -1.
    9000010    2    1    2  501    0 -0.85098363101E+03 -0.59172772954E+03  0.26604877352E+03  0.15301637639E+04  0.10937569878E+04 0.  0.
        -13    1    3    3    0    0 -0.49685831971E+03  0.27620753843E+03  0.73618033276E+02  0.57321760279E+03  0.10566000000E+00 0.  1.
          4    1    3    3  501    0 -0.35412531130E+03 -0.86793526797E+03  0.19243074024E+03  0.95694616112E+03  0.00000000000E+00 0.  1.
         13    1    1    2    0    0  0.85098363101E+03  0.59172772954E+03  0.22117520908E+02  0.10367275640E+04  0.10566000000E+00 0. -1.
<mgrwt>
<rscale>  1 0.13722891E+04</rscale>
<asrwt>0</asrwt>
<pdfrwt beam="2">  1       21 0.17528654E+00 0.15068574E+04</pdfrwt>
<pdfrwt beam="1">  1        4 0.21961982E+00 0.15068574E+04</pdfrwt>
<totfact> 0.61233847E-01</totfact>
</mgrwt>
</event>
<event>
 6    1  0.1353269E-005  0.1162919E+04  0.7818608E-02  0.9455218E-01
         21   -1    0    0  501  502  0.00000000000E+00  0.00000000000E+00  0.63910235581E+03  0.63910235581E+03  0.00000000000E+00 0.  1.
          4   -1    0    0  502    0 -0.00000000000E+00 -0.00000000000E+00 -0.10570467729E+04  0.10570467729E+04  0.00000000000E+00 0.  1.
    9000010    2    1    2  501    0  0.10308301101E+03  0.36115914857E+03 -0.40421218081E+02  0.11636213692E+04  0.11005992814E+04 0.  0.
        -13    1    3    3    0    0 -0.37807378906E+03 -0.22180064978E+02 -0.31244445675E+03  0.49097178633E+03  0.10566000000E+00 0.  1.
          4    1    3    3  501    0  0.48115680006E+03  0.38333921355E+03  0.27202323867E+03  0.67264958282E+03  0.00000000000E+00 0.  1.
         13    1    1    2    0    0 -0.10308301101E+03 -0.36115914857E+03 -0.37752319902E+03  0.53252775957E+03  0.10566000000E+00 0. -1.
<mgrwt>
<rscale>  1 0.87667455E+03</rscale>
<asrwt>0</asrwt>
<pdfrwt beam="1">  1       21 0.98323441E-01 0.11629191E+04</pdfrwt>
<pdfrwt beam="2">  1        4 0.16262258E+00 0.11629191E+04</pdfrwt>
<totfact> 0.74718661E+00</totfact>
</mgrwt>
</event>
<event>
 6    1  0.1353269E-005  0.9981348E+03  0.7818608E-02  0.1003228E+00
         21   -1    0    0  501  502  0.00000000000E+00  0.00000000000E+00  0.26058975124E+03  0.26058975124E+03  0.00000000000E+00 0.  1.
          4   -1    0    0  502    0 -0.00000000000E+00 -0.00000000000E+00 -0.11763103682E+04  0.11763103682E+04  0.00000000000E+00 0.  1.
    9000010    2    1    2  501    0  0.15395532304E+02  0.85778722388E+02 -0.90810668245E+03  0.13494187226E+04  0.99432295082E+03 0.  0.
        -13    1    3    3    0    0  0.46728357800E+03 -0.12328797700E+03 -0.32369658240E+03  0.58166429851E+03  0.10566000000E+00 0.  1.
          4    1    3    3  501    0 -0.45188804570E+03  0.20906669938E+03 -0.58441010005E+03  0.76775442407E+03  0.00000000000E+00 0.  1.
         13    1    1    2    0    0 -0.15395532304E+02 -0.85778722388E+02 -0.76139344794E+01  0.87481396832E+02  0.10566000000E+00 0. -1.
<mgrwt>
<rscale>  1 0.54257290E+03</rscale>
<asrwt>0</asrwt>
<pdfrwt beam="1">  1       21 0.40090731E-01 0.99813483E+03</pdfrwt>
<pdfrwt beam="2">  1        4 0.18097083E+00 0.99813483E+03</pdfrwt>
<totfact> 0.42587055E+01</totfact>
</mgrwt>
</event>
<event>
 6    1  0.1353269E-005  0.1085432E+04  0.7818608E-02  0.9701221E-01
         21   -1    0    0  501  502  0.00000000000E+00  0.00000000000E+00  0.11215355212E+04  0.11215355212E+04  0.00000000000E+00 0.  1.
          4   -1    0    0  502    0 -0.00000000000E+00 -0.00000000000E+00 -0.37178935088E+03  0.37178935088E+03  0.00000000000E+00 0.  1.
    9000010    2    1    2  501    0 -0.11107528149E+03 -0.16401549950E+03  0.69096584895E+03  0.12866997536E+04  0.10672036588E+04 0.  0.
        -13    1    3    3    0    0 -0.21738094590E+03  0.36903091849E+02  0.93062478049E+03  0.95638841850E+03  0.10566000000E+00 0.  1.
          4    1    3    3  501    0  0.10630566442E+03 -0.20091859135E+03 -0.23965893154E+03  0.33031133511E+03  0.00000000000E+00 0.  1.
         13    1    1    2    0    0  0.11107528149E+03  0.16401549950E+03  0.58780321358E+02  0.20662511846E+03  0.10566000000E+00 0. -1.
<mgrwt>
<rscale>  1 0.70944123E+03</rscale>
<asrwt>0</asrwt>
<pdfrwt beam="1">  1       21 0.17254393E+00 0.10854319E+04</pdfrwt>
<pdfrwt beam="2">  1        4 0.57198362E-01 0.10854319E+04</pdfrwt>
<totfact> 0.20805448E+01</totfact>
</mgrwt>
</event>
<event>
 6    1  0.1353269E-005  0.1004205E+04  0.7818608E-02  0.9908758E-01
          4   -1    0    0  502    0 -0.00000000000E+00  0.00000000000E+00  0.49888332088E+03  0.49888332088E+03  0.00000000000E+00 0.  1.
         21   -1    0    0  501  502  0.00000000000E+00 -0.00000000000E+00 -0.10789884352E+04  0.10789884352E+04  0.00000000000E+00 0.  1.
    9000010    2    1    2  501    0  0.12378082919E+03 -0.26607768493E+02 -0.82667281067E+03  0.13006979712E+04  0.99619155252E+03 0.  0.
        -13    1    3    3    0    0  0.49633973220E+03  0.22856235303E+03 -0.52398580247E+03  0.75707001746E+03  0.10566000000E+00 0.  1.
          4    1    3    3  501    0 -0.37255890301E+03 -0.25517012152E+03 -0.30268700820E+03  0.54362795372E+03  0.00000000000E+00 0.  1.
         13    1    1    2    0    0 -0.12378082919E+03  0.26607768493E+02  0.24656769632E+03  0.27717378493E+03  0.10566000000E+00 0. -1.
<mgrwt>
<rscale>  1 0.59838723E+03</rscale>
<asrwt>0</asrwt>
<pdfrwt beam="2">  1       21 0.16599822E+00 0.10042048E+04</pdfrwt>
<pdfrwt beam="1">  1        4 0.76751281E-01 0.10042048E+04</pdfrwt>
<totfact> 0.12243492E+01</totfact>
</mgrwt>
</event>
<event>
 6    1  0.1353269E-005  0.8982846E+03  0.7818608E-02  0.1007453E+00
         21   -1    0    0  501  502  0.00000000000E+00  0.00000000000E+00  0.29645180328E+03  0.29645180328E+03  0.00000000000E+00 0.  1.
          4   -1    0    0  502    0 -0.00000000000E+00 -0.00000000000E+00 -0.88408960984E+03  0.88408960984E+03  0.00000000000E+00 0.  1.
    9000010    2    1    2  501    0  0.52917979442E+02  0.90464967647E+02 -0.44207050723E+03  0.10011700868E+04  0.89214964348E+03 0.  0.
        -13    1    3    3    0    0 -0.15600570473E+03  0.31290980375E+03  0.11324482002E+03  0.36752513604E+03  0.10566000000E+00 0.  1.
          4    1    3    3  501    0  0.20892368418E+03 -0.22244483610E+03 -0.55531532724E+03  0.63364495073E+03  0.00000000000E+00 0.  1.
         13    1    1    2    0    0 -0.52917979442E+02 -0.90464967647E+02 -0.14556729934E+03  0.17937132636E+03  0.10566000000E+00 0. -1.
<mgrwt>
<rscale>  1 0.52499684E+03</rscale>
<asrwt>0</asrwt>
<pdfrwt beam="1">  1       21 0.45607970E-01 0.89828459E+03</pdfrwt>
<pdfrwt beam="2">  1        4 0.13601379E+00 0.89828459E+03</pdfrwt>
<totfact> 0.71422370E+01</totfact>
</mgrwt>
</event>
<event>
 6    1  0.1353269E-005  0.1037176E+04  0.7818608E-02  0.9716031E-01
         21   -1    0    0  501  502  0.00000000000E+00  0.00000000000E+00  0.55211752483E+03  0.55211752483E+03  0.00000000000E+00 0.  1.
          4   -1    0    0  502    0 -0.00000000000E+00 -0.00000000000E+00 -0.86039243522E+03  0.86039243522E+03  0.00000000000E+00 0.  1.
    9000010    2    1    2  501    0  0.13639806988E+03  0.16756576807E+03 -0.13671434426E+01  0.10371766300E+04  0.10144213979E+04 0.  0.
        -13    1    3    3    0    0  0.45076878064E+03 -0.48910764775E+02  0.30608337856E+03  0.54705740311E+03  0.10566000000E+00 0.  1.
          4    1    3    3  501    0 -0.31437071076E+03  0.21647653285E+03 -0.30745052200E+03  0.49011922686E+03  0.00000000000E+00 0.  1.
         13    1    1    2    0    0 -0.13639806988E+03 -0.16756576807E+03 -0.30690776694E+03  0.37533333008E+03  0.10566000000E+00 0. -1.
<mgrwt>
<rscale>  1 0.70070270E+03</rscale>
<asrwt>0</asrwt>
<pdfrwt beam="1">  1       21 0.84941158E-01 0.10371757E+04</pdfrwt>
<pdfrwt beam="2">  1        4 0.13236807E+00 0.10371757E+04</pdfrwt>
<totfact> 0.18721840E+01</totfact>
</mgrwt>
</event>
<event>
 6    1  0.1353269E-005  0.1010077E+04  0.7818608E-02  0.9845181E-01
         21   -1    0    0  501  502  0.00000000000E+00  0.00000000000E+00  0.94963229269E+03  0.94963229269E+03  0.00000000000E+00 0.  1.
          4   -1    0    0  502    0 -0.00000000000E+00 -0.00000000000E+00 -0.40593229447E+03  0.40593229447E+03  0.00000000000E+00 0.  1.
    9000010    2    1    2  501    0 -0.14406783621E+02  0.15211518013E+03  0.61958222539E+03  0.11849635702E+04  0.99845377717E+03 0.  0.
        -13    1    3    3    0    0  0.17108193592E+03 -0.34000972911E+03  0.52836977209E+03  0.65119142494E+03  0.10566000000E+00 0.  1.
          4    1    3    3  501    0 -0.18548871954E+03  0.49212490924E+03  0.91212453298E+02  0.53377214522E+03  0.00000000000E+00 0.  1.
         13    1    1    2    0    0  0.14406783621E+02 -0.15211518013E+03 -0.75882227163E+02  0.17060101701E+03  0.10566000000E+00 0. -1.
<mgrwt>
<rscale>  1 0.62993242E+03</rscale>
<asrwt>0</asrwt>
<pdfrwt beam="1">  1       21 0.14609728E+00 0.10100775E+04</pdfrwt>
<pdfrwt beam="2">  1        4 0.62451122E-01 0.10100775E+04</pdfrwt>
<totfact> 0.27844221E+01</totfact>
</mgrwt>
</event>
<event>
 6    1  0.1353269E-005  0.1087249E+04  0.7818608E-02  0.9476988E-01
          4   -1    0    0  502    0 -0.00000000000E+00  0.00000000000E+00  0.46134033971E+03  0.46134033971E+03  0.00000000000E+00 0.  1.
         21   -1    0    0  501  502  0.00000000000E+00 -0.00000000000E+00 -0.13805608313E+04  0.13805608313E+04  0.00000000000E+00 0. -1.
    9000010    2    1    2  501    0 -0.42194061740E+03 -0.56010833000E+02 -0.90730787219E+03  0.14160925054E+04  0.10004695452E+04 0.  0.
        -13    1    3    3    0    0 -0.98126186632E+02  0.44663429972E+03 -0.22750817539E+03  0.51075525178E+03  0.10566000000E+00 0.  1.
          4    1    3    3  501    0 -0.32381443077E+03 -0.50264513272E+03 -0.67979969679E+03  0.90533725361E+03  0.00000000000E+00 0.  1.
         13    1    1    2    0    0  0.42194061740E+03  0.56010833000E+02 -0.11912619381E+02  0.42580866559E+03  0.10566000000E+00 0. -1.
<mgrwt>
<rscale>  1 0.86001868E+03</rscale>
<asrwt>0</asrwt>
<pdfrwt beam="2">  1       21 0.21239397E+00 0.10872490E+04</pdfrwt>
<pdfrwt beam="1">  1        4 0.70975438E-01 0.10872490E+04</pdfrwt>
<totfact> 0.67722965E+00</totfact>
</mgrwt>
</event>
<event>
 6    1  0.1353269E-005  0.1091004E+04  0.7818608E-02  0.9496495E-01
          4   -1    0    0  502    0 -0.00000000000E+00  0.00000000000E+00  0.18072369226E+04  0.18072369226E+04  0.00000000000E+00 0.  1.
         21   -1    0    0  501  502  0.00000000000E+00 -0.00000000000E+00 -0.40683302531E+03  0.40683302531E+03  0.00000000000E+00 0.  1.
    9000010    2    1    2  501    0  0.16435259479E+03  0.35741553193E+03  0.14531870411E+04  0.18171521865E+04  0.10176108563E+04 0.  0.
        -13    1    3    3    0    0  0.48867651083E+03  0.10966415787E+03  0.27734609121E+03  0.57249613556E+03  0.10566000000E+00 0.  1.
          4    1    3    3  501    0 -0.32432391604E+03  0.24775137406E+03  0.11758409499E+04  0.12446560510E+04  0.00000000000E+00 0.  1.
         13    1    1    2    0    0 -0.16435259479E+03 -0.35741553193E+03 -0.52783143756E+02  0.39691776139E+03  0.10566000000E+00 0. -1.
<mgrwt>
<rscale>  1 0.84542735E+03</rscale>
<asrwt>0</asrwt>
<pdfrwt beam="2">  1       21 0.62589697E-01 0.10910039E+04</pdfrwt>
<pdfrwt beam="1">  1        4 0.27803644E+00 0.10910039E+04</pdfrwt>
<totfact> 0.38479198E+00</totfact>
</mgrwt>
</event>
<event>
 6    1  0.1353269E-005  0.1090026E+04  0.7818608E-02  0.9491848E-01
          4   -1    0    0  502    0 -0.00000000000E+00  0.00000000000E+00  0.15444418869E+04  0.15444418869E+04  0.00000000000E+00 0.  1.
         21   -1    0    0  501  502  0.00000000000E+00 -0.00000000000E+00 -0.46463291389E+03  0.46463291389E+03  0.00000000000E+00 0.  1.
    9000010    2    1    2  501    0 -0.34725628118E+03  0.20038616176E+03  0.29731183942E+03  0.11298459831E+04  0.10136153496E+04 0.  0.
        -13    1    3    3    0    0 -0.51886505516E+03  0.39298389174E+03  0.48425365862E+03  0.81126993146E+03  0.10566000000E+00 0.  1.
          4    1    3    3  501    0  0.17160877398E+03 -0.19259772997E+03 -0.18694181920E+03  0.31857605162E+03  0.00000000000E+00 0.  1.
         13    1    1    2    0    0  0.34725628118E+03 -0.20038616176E+03  0.78249713360E+03  0.87922881772E+03  0.10566000000E+00 0. -1.
<mgrwt>
<rscale>  1 0.84887509E+03</rscale>
<asrwt>0</asrwt>
<pdfrwt beam="2">  1       21 0.71481988E-01 0.10900264E+04</pdfrwt>
<pdfrwt beam="1">  1        4 0.23760644E+00 0.10900264E+04</pdfrwt>
<totfact> 0.50621753E+00</totfact>
</mgrwt>
</event>
<event>
 6    1  0.1353269E-005  0.1043283E+04  0.7818608E-02  0.9688369E-01
          4   -1    0    0  502    0 -0.00000000000E+00  0.00000000000E+00  0.44289819923E+03  0.44289819923E+03  0.00000000000E+00 0.  1.
         21   -1    0    0  501  502  0.00000000000E+00 -0.00000000000E+00 -0.11873102529E+04  0.11873102529E+04  0.00000000000E+00 0.  1.
    9000010    2    1    2  501    0  0.20631370542E+03 -0.10809305869E+03 -0.87636034860E+03  0.13625149369E+04  0.10169513451E+04 0.  0.
        -13    1    3    3    0    0  0.42198036187E+03 -0.24417528677E+03 -0.41179593176E+02  0.48926962560E+03  0.10566000000E+00 0.  1.
          4    1    3    3  501    0 -0.21566665644E+03  0.13608222809E+03 -0.83518075542E+03  0.87324531132E+03  0.00000000000E+00 0.  1.
         13    1    1    2    0    0 -0.20631370542E+03  0.10809305869E+03  0.13194829494E+03  0.26769351521E+03  0.10566000000E+00 0. -1.
<mgrwt>
<rscale>  1 0.71713520E+03</rscale>
<asrwt>0</asrwt>
<pdfrwt beam="2">  1       21 0.18266311E+00 0.10432830E+04</pdfrwt>
<pdfrwt beam="1">  1        4 0.68138185E-01 0.10432830E+04</pdfrwt>
<totfact> 0.12000671E+01</totfact>
</mgrwt>
</event>
<event>
 6    1  0.1353269E-005  0.1003681E+04  0.7818608E-02  0.9699932E-01
         21   -1    0    0  501  502  0.00000000000E+00  0.00000000000E+00  0.24975546390E+03  0.24975546390E+03  0.00000000000E+00 0.  1.
          4   -1    0    0  502    0 -0.00000000000E+00 -0.00000000000E+00 -0.17069483610E+04  0.17069483610E+04  0.00000000000E+00 0.  1.
    9000010    2    1    2  501    0  0.41429468450E+01 -0.25159194724E+03 -0.91156077880E+03  0.13558460284E+04  0.97162736035E+03 0.  0.
        -13    1    3    3    0    0  0.17571606301E+03  0.21439165982E+03 -0.80032803473E+03  0.84697396237E+03  0.10566000000E+00 0.  1.
          4    1    3    3  501    0 -0.17157311616E+03 -0.46598360706E+03 -0.11123274407E+03  0.50887206604E+03  0.00000000000E+00 0.  1.
         13    1    1    2    0    0 -0.41429468450E+01  0.25159194724E+03 -0.54563211832E+03  0.60085779651E+03  0.10566000000E+00 0. -1.
<mgrwt>
<rscale>  1 0.71020817E+03</rscale>
<asrwt>0</asrwt>
<pdfrwt beam="1">  1       21 0.38423917E-01 0.10036809E+04</pdfrwt>
<pdfrwt beam="2">  1        4 0.26260744E+00 0.10036809E+04</pdfrwt>
<totfact> 0.13894665E+01</totfact>
</mgrwt>
</event>
<event>
 6    1  0.1353269E-005  0.1034971E+04  0.7818608E-02  0.9660378E-01
          4   -1    0    0  502    0 -0.00000000000E+00  0.00000000000E+00  0.12096582955E+04  0.12096582955E+04  0.00000000000E+00 0.  1.
         21   -1    0    0  501  502  0.00000000000E+00 -0.00000000000E+00 -0.41069200663E+03  0.41069200663E+03  0.00000000000E+00 0.  1.
    9000010    2    1    2  501    0 -0.42797650184E+02 -0.25866792304E+03  0.33572726719E+03  0.10880617191E+04  0.10012116526E+04 0.  0.
        -13    1    3    3    0    0  0.25872872433E+02 -0.44734193270E+03 -0.21854490797E+03  0.49854397824E+03  0.10566000000E+00 0.  1.
          4    1    3    3  501    0 -0.68670522618E+02  0.18867400966E+03  0.55427217517E+03  0.58951774084E+03  0.00000000000E+00 0.  1.
         13    1    1    2    0    0  0.42797650184E+02  0.25866792304E+03  0.46323902169E+03  0.53228858305E+03  0.10566000000E+00 0. -1.
<mgrwt>
<rscale>  1 0.73425683E+03</rscale>
<asrwt>0</asrwt>
<pdfrwt beam="2">  1       21 0.63183386E-01 0.10349713E+04</pdfrwt>
<pdfrwt beam="1">  1        4 0.18610127E+00 0.10349713E+04</pdfrwt>
<totfact> 0.14589838E+01</totfact>
</mgrwt>
</event>
<event>
 6    1  0.1353269E-005  0.1128069E+04  0.7818608E-02  0.9382113E-01
         21   -1    0    0  501  502  0.00000000000E+00  0.00000000000E+00  0.22234796069E+04  0.22234796069E+04  0.00000000000E+00 0.  1.
          4   -1    0    0  502    0 -0.00000000000E+00 -0.00000000000E+00 -0.35150061911E+03  0.35150061911E+03  0.00000000000E+00 0.  1.
    9000010    2    1    2  501    0  0.50831733087E+03 -0.16304240960E+03  0.16456215500E+04  0.19951465973E+04  0.99376572824E+03 0.  0.
        -13    1    3    3    0    0  0.62706552825E+03 -0.47478739256E+03  0.12590672704E+04  0.14845486342E+04  0.10566000000E+00 0.  1.
          4    1    3    3  501    0 -0.11874819738E+03  0.31174498297E+03  0.38655427960E+03  0.51059796304E+03  0.00000000000E+00 0.  1.
         13    1    1    2    0    0 -0.50831733087E+03  0.16304240960E+03  0.22635743778E+03  0.57983362871E+03  0.10566000000E+00 0. -1.
<mgrwt>
<rscale>  1 0.93562435E+03</rscale>
<asrwt>0</asrwt>
<pdfrwt beam="1">  1       21 0.34207378E+00 0.11280690E+04</pdfrwt>
<pdfrwt beam="2">  1        4 0.54077020E-01 0.11280690E+04</pdfrwt>
<totfact> 0.18356496E+00</totfact>
</mgrwt>
</event>
<event>
 6    1  0.1353269E-005  0.1083896E+04  0.7818608E-02  0.9621072E-01
          4   -1    0    0  502    0 -0.00000000000E+00  0.00000000000E+00  0.13839416624E+04  0.13839416624E+04  0.00000000000E+00 0.  1.
         21   -1    0    0  501  502  0.00000000000E+00 -0.00000000000E+00 -0.33243528684E+03  0.33243528684E+03  0.00000000000E+00 0. -1.
    9000010    2    1    2  501    0 -0.64453024029E+00 -0.26085088970E+03  0.93182229698E+03  0.14293788797E+04  0.10520397267E+04 0.  0.
        -13    1    3    3    0    0  0.15028427505E+03 -0.58436606926E+03  0.23708473425E+03  0.64828870776E+03  0.10566000000E+00 0.  1.
          4    1    3    3  501    0 -0.15092880529E+03  0.32351517956E+03  0.69473756273E+03  0.78109017196E+03  0.00000000000E+00 0.  1.
         13    1    1    2    0    0  0.64453024029E+00  0.26085088970E+03  0.11968407859E+03  0.28699806952E+03  0.10566000000E+00 0. -1.
<mgrwt>
<rscale>  1 0.75917042E+03</rscale>
<asrwt>0</asrwt>
<pdfrwt beam="2">  1       21 0.51143891E-01 0.10838963E+04</pdfrwt>
<pdfrwt beam="1">  1        4 0.21291410E+00 0.10838963E+04</pdfrwt>
<totfact> 0.15370848E+01</totfact>
</mgrwt>
</event>
<event>
 6    1  0.1353269E-005  0.9795853E+03  0.7818608E-02  0.9804331E-01
         21   -1    0    0  501  502  0.00000000000E+00  0.00000000000E+00  0.97154004189E+03  0.97154004189E+03  0.00000000000E+00 0.  1.
          4   -1    0    0  502    0 -0.00000000000E+00 -0.00000000000E+00 -0.59828457640E+03  0.59828457640E+03  0.00000000000E+00 0.  1.
    9000010    2    1    2  501    0 -0.54579555528E+02 -0.18348629417E+03  0.69106392251E+03  0.11988146797E+04  0.96069825814E+03 0.  0.
        -13    1    3    3    0    0  0.30816615728E+03  0.11130745860E+03  0.65207404813E+03  0.72976455535E+03  0.10566000000E+00 0.  1.
          4    1    3    3  501    0 -0.36274571281E+03 -0.29479375277E+03  0.38989874384E+02  0.46905012434E+03  0.00000000000E+00 0.  1.
         13    1    1    2    0    0  0.54579555528E+02  0.18348629417E+03 -0.31780845702E+03  0.37100993861E+03  0.10566000000E+00 0. -1.
<mgrwt>
<rscale>  1 0.65130624E+03</rscale>
<asrwt>0</asrwt>
<pdfrwt beam="1">  1       21 0.14946770E+00 0.97958526E+03</pdfrwt>
<pdfrwt beam="2">  1        4 0.92043781E-01 0.97958526E+03</pdfrwt>
<totfact> 0.10852818E+01</totfact>
</mgrwt>
</event>
<event>
 6    1  0.1353269E-005  0.1062165E+04  0.7818608E-02  0.9568416E-01
         21   -1    0    0  501  502  0.00000000000E+00  0.00000000000E+00  0.37954757341E+03  0.37954757341E+03  0.00000000000E+00 0.  1.
          4   -1    0    0  502    0 -0.00000000000E+00 -0.00000000000E+00 -0.23010431306E+04  0.23010431306E+04  0.00000000000E+00 0.  1.
    9000010    2    1    2  501    0  0.33202682088E+03  0.33541191030E+01 -0.41896462409E+03  0.11418079786E+04  0.10089306438E+04 0.  0.
        -13    1    3    3    0    0 -0.27368390696E+03  0.75386005428E+01 -0.45933239066E+03  0.53473915857E+03  0.10566000000E+00 0.  1.
          4    1    3    3  501    0  0.60571072784E+03 -0.41844814397E+01  0.40367766570E+02  0.60706882006E+03  0.00000000000E+00 0.  1.
         13    1    1    2    0    0 -0.33202682088E+03 -0.33541191030E+01 -0.15025309331E+04  0.15387827254E+04  0.10566000000E+00 0. -1.
<mgrwt>
<rscale>  1 0.79422357E+03</rscale>
<asrwt>0</asrwt>
<pdfrwt beam="1">  1       21 0.58391935E-01 0.10621648E+04</pdfrwt>
<pdfrwt beam="2">  1        4 0.35400663E+00 0.10621648E+04</pdfrwt>
<totfact> 0.15009417E+00</totfact>
</mgrwt>
</event>
<event>
 6    1  0.1353269E-005  0.1205834E+04  0.7818608E-02  0.9255776E-01
          4   -1    0    0  502    0 -0.00000000000E+00  0.00000000000E+00  0.11050910920E+04  0.11050910920E+04  0.00000000000E+00 0.  1.
         21   -1    0    0  501  502  0.00000000000E+00 -0.00000000000E+00 -0.82595745240E+03  0.82595745240E+03  0.00000000000E+00 0. -1.
    9000010    2    1    2  501    0  0.60165187236E+03 -0.34218519720E+03  0.28421735030E+03  0.12388769327E+04  0.98740106719E+03 0.  0.
        -13    1    3    3    0    0  0.48617976264E+03  0.24939063966E+03 -0.51696397706E+02  0.54885242229E+03  0.10566000000E+00 0.  1.
          4    1    3    3  501    0  0.11547210972E+03 -0.59157583686E+03  0.33591374801E+03  0.69002451042E+03  0.00000000000E+00 0.  1.
         13    1    1    2    0    0 -0.60165187236E+03  0.34218519720E+03 -0.50837107389E+01  0.69217161165E+03  0.10566000000E+00 0. -1.
<mgrwt>
<rscale>  1 0.10495819E+04</rscale>
<asrwt>0</asrwt>
<pdfrwt beam="2">  1       21 0.12707038E+00 0.12058344E+04</pdfrwt>
<pdfrwt beam="1">  1        4 0.17001401E+00 0.12058344E+04</pdfrwt>
<totfact> 0.34051271E+00</totfact>
</mgrwt>
</event>
<event>
 6    1  0.1353269E-005  0.1218292E+04  0.7818608E-02  0.9245763E-01
          4   -1    0    0  502    0 -0.00000000000E+00  0.00000000000E+00  0.60654843781E+03  0.60654843781E+03  0.00000000000E+00 0.  1.
         21   -1    0    0  501  502  0.00000000000E+00 -0.00000000000E+00 -0.15482404050E+04  0.15482404050E+04  0.00000000000E+00 0.  1.
    9000010    2    1    2  501    0 -0.50587020581E+03  0.47864465559E+03 -0.75688217372E+03  0.14342612289E+04  0.99961456395E+03 0.  0.
        -13    1    3    3    0    0 -0.31455610171E+03  0.59855507240E+03 -0.34101655168E+02  0.67703519102E+03  0.10566000000E+00 0.  1.
          4    1    3    3  501    0 -0.19131410409E+03 -0.11991041682E+03 -0.72278051856E+03  0.75722603791E+03  0.00000000000E+00 0.  1.
         13    1    1    2    0    0  0.50587020581E+03 -0.47864465559E+03 -0.18480979347E+03  0.72052761389E+03  0.10566000000E+00 0. -1.
<mgrwt>
<rscale>  1 0.10593312E+04</rscale>
<asrwt>0</asrwt>
<pdfrwt beam="2">  1       21 0.23819083E+00 0.12182917E+04</pdfrwt>
<pdfrwt beam="1">  1        4 0.93315146E-01 0.12182917E+04</pdfrwt>
<totfact> 0.23893382E+00</totfact>
</mgrwt>
</event>
<event>
 6    1  0.1353269E-005  0.9945450E+03  0.7818608E-02  0.9968188E-01
         21   -1    0    0  501  502  0.00000000000E+00  0.00000000000E+00  0.21360030412E+03  0.21360030412E+03  0.00000000000E+00 0.  1.
          4   -1    0    0  502    0 -0.00000000000E+00 -0.00000000000E+00 -0.16961700238E+04  0.16961700238E+04  0.00000000000E+00 0.  1.
    9000010    2    1    2  501    0  0.67403936716E+02  0.84147342090E+02 -0.15008026135E+04  0.18004244754E+04  0.98868384293E+03 0.  0.
        -13    1    3    3    0    0 -0.80974504870E+02 -0.21300530727E+03  0.33728696075E+02  0.23036008219E+03  0.10566000000E+00 0.  1.
          4    1    3    3  501    0  0.14837844159E+03  0.29715264936E+03 -0.15345313095E+04  0.15700643932E+04  0.00000000000E+00 0.  1.
         13    1    1    2    0    0 -0.67403936716E+02 -0.84147342090E+02  0.18232893828E+02  0.10934585245E+03  0.10566000000E+00 0. -1.
<mgrwt>
<rscale>  1 0.57067415E+03</rscale>
<asrwt>0</asrwt>
<pdfrwt beam="1">  1       21 0.32861584E-01 0.99454503E+03</pdfrwt>
<pdfrwt beam="2">  1        4 0.26094925E+00 0.99454503E+03</pdfrwt>
<totfact> 0.19652350E+01</totfact>
</mgrwt>
</event>
<event>
 6    1  0.1353269E-005  0.1008936E+04  0.7818608E-02  0.1017084E+00
         21   -1    0    0  501  502  0.00000000000E+00  0.00000000000E+00  0.20978377810E+04  0.20978377810E+04  0.00000000000E+00 0.  1.
          4   -1    0    0  502    0 -0.00000000000E+00 -0.00000000000E+00 -0.40933414853E+03  0.40933414853E+03  0.00000000000E+00 0.  1.
    9000010    2    1    2  501    0  0.23216620806E+02 -0.49869706446E+02  0.19737481515E+04  0.22166715923E+04  0.10074349526E+04 0.  0.
        -13    1    3    3    0    0  0.24666892741E+02  0.17675659797E+03  0.19818755269E+04  0.19898949635E+04  0.10566000000E+00 0.  1.
          4    1    3    3  501    0 -0.14502719350E+01 -0.22662630442E+03 -0.81273754356E+01  0.22677662881E+03  0.00000000000E+00 0.  1.
         13    1    1    2    0    0 -0.23216620806E+02  0.49869706446E+02 -0.28524451903E+03  0.29050033718E+03  0.10566000000E+00 0. -1.
<mgrwt>
<rscale>  1 0.48753568E+03</rscale>
<asrwt>0</asrwt>
<pdfrwt beam="1">  1       21 0.32274427E+00 0.10089357E+04</pdfrwt>
<pdfrwt beam="2">  1        4 0.62974486E-01 0.10089357E+04</pdfrwt>
<totfact> 0.17838878E+00</totfact>
</mgrwt>
</event>
<event>
 6    1  0.1353269E-005  0.1069645E+04  0.7818608E-02  0.9534232E-01
          4   -1    0    0  502    0 -0.00000000000E+00  0.00000000000E+00  0.42577602828E+03  0.42577602828E+03  0.00000000000E+00 0.  1.
         21   -1    0    0  501  502  0.00000000000E+00 -0.00000000000E+00 -0.12211342320E+04  0.12211342320E+04  0.00000000000E+00 0.  1.
    9000010    2    1    2  501    0  0.11626672155E+03 -0.34699632860E+03 -0.52257351597E+03  0.11904719844E+04  0.10050950520E+04 0.  0.
        -13    1    3    3    0    0  0.12331046801E+03 -0.49997354677E+03  0.12095778651E+03  0.52897052495E+03  0.10566000000E+00 0.  1.
          4    1    3    3  501    0 -0.70437464529E+01  0.15297721817E+03 -0.64353130248E+03  0.66150145950E+03  0.00000000000E+00 0.  1.
         13    1    1    2    0    0 -0.11626672155E+03  0.34699632860E+03 -0.27278468770E+03  0.45643827579E+03  0.10566000000E+00 0. -1.
<mgrwt>
<rscale>  1 0.81806399E+03</rscale>
<asrwt>0</asrwt>
<pdfrwt beam="2">  1       21 0.18786680E+00 0.10696450E+04</pdfrwt>
<pdfrwt beam="1">  1        4 0.65504005E-01 0.10696450E+04</pdfrwt>
<totfact> 0.11985842E+01</totfact>
</mgrwt>
</event>
<event>
 6    1  0.1353269E-005  0.1068828E+04  0.7818608E-02  0.9557935E-01
          4   -1    0    0  502    0 -0.00000000000E+00  0.00000000000E+00  0.71514964315E+03  0.71514964315E+03  0.00000000000E+00 0.  1.
         21   -1    0    0  501  502  0.00000000000E+00 -0.00000000000E+00 -0.69681194570E+03  0.69681194570E+03  0.00000000000E+00 0.  1.
    9000010    2    1    2  501    0 -0.26375772665E+03  0.21117117785E+03  0.65372593155E+02  0.10708256961E+04  0.10140180920E+04 0.  0.
        -13    1    3    3    0    0  0.97569513600E+02 -0.34793806840E+03 -0.11833122890E+03  0.38024071366E+03  0.10566000000E+00 0.  1.
          4    1    3    3  501    0 -0.36132724025E+03  0.55910924625E+03  0.18370382206E+03  0.69058498248E+03  0.00000000000E+00 0.  1.
         13    1    1    2    0    0  0.26375772665E+03 -0.21117117785E+03 -0.47034895699E+02  0.34113589271E+03  0.10566000000E+00 0. -1.
<mgrwt>
<rscale>  1 0.80143989E+03</rscale>
<asrwt>0</asrwt>
<pdfrwt beam="2">  1       21 0.10720184E+00 0.10688284E+04</pdfrwt>
<pdfrwt beam="1">  1        4 0.11002302E+00 0.10688284E+04</pdfrwt>
<totfact> 0.16805754E+01</totfact>
</mgrwt>
</event>
<event>
 6    1  0.1353269E-005  0.1038842E+04  0.7818608E-02  0.9662901E-01
         21   -1    0    0  501  502  0.00000000000E+00  0.00000000000E+00  0.25922676408E+03  0.25922676408E+03  0.00000000000E+00 0.  1.
          4   -1    0    0  502    0 -0.00000000000E+00 -0.00000000000E+00 -0.17274265837E+04  0.17274265837E+04  0.00000000000E+00 0.  1.
    9000010    2    1    2  501    0  0.22815163414E+03  0.11843939009E+03 -0.94787888277E+03  0.14062957461E+04  0.10065347942E+04 0.  0.
        -13    1    3    3    0    0 -0.13715000305E+02  0.43304077001E+03 -0.90973684400E+03  0.10076376066E+04  0.10566000000E+00 0.  1.
          4    1    3    3  501    0  0.24186663445E+03 -0.31460137993E+03 -0.38142038772E+02  0.39865813955E+03  0.00000000000E+00 0.  1.
         13    1    1    2    0    0 -0.22815163414E+03 -0.11843939009E+03 -0.52032093688E+03  0.58035760166E+03  0.10566000000E+00 0. -1.
<mgrwt>
<rscale>  1 0.73269268E+03</rscale>
<asrwt>0</asrwt>
<pdfrwt beam="1">  1       21 0.39881040E-01 0.10388423E+04</pdfrwt>
<pdfrwt beam="2">  1        4 0.26575794E+00 0.10388423E+04</pdfrwt>
<totfact> 0.12243876E+01</totfact>
</mgrwt>
</event>
<event>
 6    1  0.1353269E-005  0.1014513E+04  0.7818608E-02  0.9726756E-01
          4   -1    0    0  502    0 -0.00000000000E+00  0.00000000000E+00  0.67259460547E+03  0.67259460547E+03  0.00000000000E+00 0.  1.
         21   -1    0    0  501  502  0.00000000000E+00 -0.00000000000E+00 -0.67220859026E+03  0.67220859026E+03  0.00000000000E+00 0.  1.
    9000010    2    1    2  501    0  0.42198198936E+01  0.22270713103E+03  0.21326940743E+03  0.10366869467E+04  0.98975740065E+03 0.  0.
        -13    1    3    3    0    0 -0.43340423795E+03  0.28863583572E+03  0.27658599929E+03  0.58961827083E+03  0.10566000000E+00 0.  1.
          4    1    3    3  501    0  0.43762405784E+03 -0.65928704688E+02 -0.63316591862E+02  0.44706867583E+03  0.00000000000E+00 0.  1.
         13    1    1    2    0    0 -0.42198198936E+01 -0.22270713103E+03 -0.21288339221E+03  0.30811624906E+03  0.10566000000E+00 0. -1.
<mgrwt>
<rscale>  1 0.69445833E+03</rscale>
<asrwt>0</asrwt>
<pdfrwt beam="2">  1       21 0.10341671E+00 0.10145127E+04</pdfrwt>
<pdfrwt beam="1">  1        4 0.10347609E+00 0.10145127E+04</pdfrwt>
<totfact> 0.21493765E+01</totfact>
</mgrwt>
</event>
<event>
 6    1  0.1353269E-005  0.1032143E+04  0.7818608E-02  0.9722194E-01
         21   -1    0    0  501  502  0.00000000000E+00  0.00000000000E+00  0.54649895524E+03  0.54649895524E+03  0.00000000000E+00 0.  1.
          4   -1    0    0  502    0 -0.00000000000E+00 -0.00000000000E+00 -0.13569509548E+04  0.13569509548E+04  0.00000000000E+00 0.  1.
    9000010    2    1    2  501    0 -0.62231650164E+02  0.20555703549E+03  0.33412124339E+02  0.10326840725E+04  0.10095511628E+04 0.  0.
        -13    1    3    3    0    0 -0.50105194711E+03  0.13217050392E+03  0.20301331361E+03  0.55653976721E+03  0.10566000000E+00 0.  1.
          4    1    3    3  501    0  0.43882029695E+03  0.73386531571E+02 -0.16960118927E+03  0.47614430526E+03  0.00000000000E+00 0.  1.
         13    1    1    2    0    0  0.62231650164E+02 -0.20555703549E+03 -0.84386412388E+03  0.87076583755E+03  0.10566000000E+00 0. -1.
<mgrwt>
<rscale>  1 0.69710601E+03</rscale>
<asrwt>0</asrwt>
<pdfrwt beam="1">  1       21 0.84076763E-01 0.10321434E+04</pdfrwt>
<pdfrwt beam="2">  1        4 0.20876168E+00 0.10321434E+04</pdfrwt>
<totfact> 0.53233979E+00</totfact>
</mgrwt>
</event>
<event>
 6    1  0.1353269E-005  0.1014704E+04  0.7818608E-02  0.9769975E-01
         21   -1    0    0  501  502  0.00000000000E+00  0.00000000000E+00  0.32440623163E+03  0.32440623163E+03  0.00000000000E+00 0.  1.
          4   -1    0    0  502    0 -0.00000000000E+00 -0.00000000000E+00 -0.11238017104E+04  0.11238017104E+04  0.00000000000E+00 0.  1.
    9000010    2    1    2  501    0 -0.18110652107E+03  0.66317400969E+02 -0.66871571011E+03  0.12152384532E+04  0.99620591619E+03 0.  0.
        -13    1    3    3    0    0 -0.30941808792E+03  0.20060958124E+03  0.13321123008E+03  0.39208289965E+03  0.10566000000E+00 0.  1.
          4    1    3    3  501    0  0.12831156685E+03 -0.13429218027E+03 -0.80192694018E+03  0.82315555350E+03  0.00000000000E+00 0.  1.
         13    1    1    2    0    0  0.18110652107E+03 -0.66317400969E+02 -0.13067976867E+03  0.23296948887E+03  0.10566000000E+00 0. -1.
<mgrwt>
<rscale>  1 0.66999074E+03</rscale>
<asrwt>0</asrwt>
<pdfrwt beam="1">  1       21 0.49908651E-01 0.10147038E+04</pdfrwt>
<pdfrwt beam="2">  1        4 0.17289257E+00 0.10147038E+04</pdfrwt>
<totfact> 0.30419361E+01</totfact>
</mgrwt>
</event>
<event>
 6    1  0.1353269E-005  0.9841073E+03  0.7818608E-02  0.9893833E-01
          4   -1    0    0  502    0 -0.00000000000E+00  0.00000000000E+00  0.33067602491E+03  0.33067602491E+03  0.00000000000E+00 0.  1.
         21   -1    0    0  501  502  0.00000000000E+00 -0.00000000000E+00 -0.11068472972E+04  0.11068472972E+04  0.00000000000E+00 0.  1.
    9000010    2    1    2  501    0  0.18848923224E+02 -0.13987475341E+03 -0.82907840192E+03  0.12867937494E+04  0.97393373921E+03 0.  0.
        -13    1    3    3    0    0 -0.17667868261E+03  0.36751980247E+03 -0.52171198627E+03  0.66217034809E+03  0.10566000000E+00 0.  1.
          4    1    3    3  501    0  0.19552760584E+03 -0.50739455588E+03 -0.30736641565E+03  0.62462340130E+03  0.00000000000E+00 0.  1.
         13    1    1    2    0    0 -0.18848923224E+02  0.13987475341E+03  0.52907129663E+02  0.15072957268E+03  0.10566000000E+00 0. -1.
<mgrwt>
<rscale>  1 0.60561086E+03</rscale>
<asrwt>0</asrwt>
<pdfrwt beam="2">  1       21 0.17028420E+00 0.98410729E+03</pdfrwt>
<pdfrwt beam="1">  1        4 0.50873235E-01 0.98410729E+03</pdfrwt>
<totfact> 0.28096129E+01</totfact>
</mgrwt>
</event>
<event>
 6    1  0.1353269E-005  0.1035113E+04  0.7818608E-02  0.9723732E-01
          4   -1    0    0  502    0 -0.00000000000E+00  0.00000000000E+00  0.79360025044E+03  0.79360025044E+03  0.00000000000E+00 0.  1.
         21   -1    0    0  501  502  0.00000000000E+00 -0.00000000000E+00 -0.52793035770E+03  0.52793035770E+03  0.00000000000E+00 0.  1.
    9000010    2    1    2  501    0  0.14753880592E+03 -0.15201089009E+03  0.35121255973E+03  0.10930736778E+04  0.10132052078E+04 0.  0.
        -13    1    3    3    0    0  0.65238602268E+02 -0.43044077816E+03 -0.19302902053E+03  0.47623056670E+03  0.10566000000E+00 0.  1.
          4    1    3    3  501    0  0.82300203657E+02  0.27842988807E+03  0.54424158026E+03  0.61684311115E+03  0.00000000000E+00 0.  1.
         13    1    1    2    0    0 -0.14753880592E+03  0.15201089009E+03 -0.85542666984E+02  0.22845693029E+03  0.10566000000E+00 0. -1.
<mgrwt>
<rscale>  1 0.69621214E+03</rscale>
<asrwt>0</asrwt>
<pdfrwt beam="2">  1       21 0.81220055E-01 0.10351134E+04</pdfrwt>
<pdfrwt beam="1">  1        4 0.12209235E+00 0.10351134E+04</pdfrwt>
<totfact> 0.25606860E+01</totfact>
</mgrwt>
</event>
<event>
 6    1  0.1353269E-005  0.1221344E+04  0.7818608E-02  0.9247006E-01
         21   -1    0    0  501  502  0.00000000000E+00  0.00000000000E+00  0.19491529905E+04  0.19491529905E+04  0.00000000000E+00 0. -1.
          4   -1    0    0  502    0 -0.00000000000E+00 -0.00000000000E+00 -0.53046994338E+03  0.53046994338E+03  0.00000000000E+00 0.  1.
    9000010    2    1    2  501    0 -0.18660889638E+03 -0.66225840223E+03  0.12958376390E+04  0.17806951286E+04  0.10090940901E+04 0.  0.
        -13    1    3    3    0    0 -0.11026917947E+03 -0.43891688336E+03  0.14363844468E+04  0.15059905752E+04  0.10566000000E+00 0.  1.
          4    1    3    3  501    0 -0.76339716911E+02 -0.22334151888E+03 -0.14054680782E+03  0.27470455333E+03  0.00000000000E+00 0.  1.
         13    1    1    2    0    0  0.18660889638E+03  0.66225840223E+03  0.12284540806E+03  0.69892780527E+03  0.10566000000E+00 0. -1.
<mgrwt>
<rscale>  1 0.10581152E+04</rscale>
<asrwt>0</asrwt>
<pdfrwt beam="1">  1       21 0.29986969E+00 0.12213435E+04</pdfrwt>
<pdfrwt beam="2">  1        4 0.81610761E-01 0.12213435E+04</pdfrwt>
<totfact> 0.13304406E+00</totfact>
</mgrwt>
</event>
<event>
 6    1  0.1353269E-005  0.9054213E+03  0.7818608E-02  0.9784725E-01
         21   -1    0    0  501  502  0.00000000000E+00  0.00000000000E+00  0.22227866103E+03  0.22227866103E+03  0.00000000000E+00 0.  1.
          4   -1    0    0  502    0 -0.00000000000E+00 -0.00000000000E+00 -0.15415127732E+04  0.15415127732E+04  0.00000000000E+00 0.  1.
    9000010    2    1    2  501    0  0.13515633758E+03 -0.22043895292E+03 -0.11006393087E+04  0.14251998413E+04  0.86771373862E+03 0.  0.
        -13    1    3    3    0    0 -0.18317576897E+01 -0.34558994245E+03 -0.39367590670E+02  0.34782981761E+03  0.10566000000E+00 0.  1.
          4    1    3    3  501    0  0.13698809527E+03  0.12515098953E+03 -0.10612717180E+04  0.10773700237E+04  0.00000000000E+00 0.  1.
         13    1    1    2    0    0 -0.13515633758E+03  0.22043895292E+03 -0.21859480351E+03  0.33859159298E+03  0.10566000000E+00 0. -1.
<mgrwt>
<rscale>  1 0.66188775E+03</rscale>
<asrwt>0</asrwt>
<pdfrwt beam="1">  1       21 0.34196717E-01 0.90542128E+03</pdfrwt>
<pdfrwt beam="2">  1        4 0.23715581E+00 0.90542128E+03</pdfrwt>
<totfact> 0.25684169E+01</totfact>
</mgrwt>
</event>
<event>
 6    1  0.1353269E-005  0.1005153E+04  0.7818608E-02  0.9952186E-01
         21   -1    0    0  501  502  0.00000000000E+00  0.00000000000E+00  0.41458308976E+03  0.41458308976E+03  0.00000000000E+00 0.  1.
          4   -1    0    0  502    0 -0.00000000000E+00 -0.00000000000E+00 -0.79111281495E+03  0.79111281495E+03  0.00000000000E+00 0.  1.
    9000010    2    1    2  501    0  0.79776854112E+02  0.75566906887E+02 -0.24551983705E+03  0.10347037826E+04  0.99912823175E+03 0.  0.
        -13    1    3    3    0    0  0.40083405538E+03 -0.28893358754E+03 -0.84134513761E+01  0.49418757096E+03  0.10566000000E+00 0.  1.
          4    1    3    3  501    0 -0.32105720126E+03  0.36450049443E+03 -0.23710638567E+03  0.54051621164E+03  0.00000000000E+00 0.  1.
         13    1    1    2    0    0 -0.79776854112E+02 -0.75566906887E+02 -0.13100988814E+03  0.17099212211E+03  0.10566000000E+00 0. -1.
<mgrwt>
<rscale>  1 0.57797445E+03</rscale>
<asrwt>0</asrwt>
<pdfrwt beam="1">  1       21 0.63782014E-01 0.10051527E+04</pdfrwt>
<pdfrwt beam="2">  1        4 0.12170966E+00 0.10051527E+04</pdfrwt>
<totfact> 0.45177271E+01</totfact>
</mgrwt>
</event>
<event>
 6    1  0.1353269E-005  0.1055374E+04  0.7818608E-02  0.9989573E-01
         21   -1    0    0  501  502  0.00000000000E+00  0.00000000000E+00  0.21014493233E+04  0.21014493233E+04  0.00000000000E+00 0.  1.
          4   -1    0    0  502    0 -0.00000000000E+00 -0.00000000000E+00 -0.17341058600E+03  0.17341058600E+03  0.00000000000E+00 0.  1.
    9000010    2    1    2  501    0  0.44283394604E+02 -0.71756639442E+02  0.19189907333E+04  0.21900547686E+04  0.10520001999E+04 0.  0.
        -13    1    3    3    0    0  0.10096739381E+03 -0.25212075605E+03  0.19744389011E+04  0.19930299234E+04  0.10566000000E+00 0.  1.
          4    1    3    3  501    0 -0.56683999209E+02  0.18036411661E+03 -0.55448167758E+02  0.19702484522E+03  0.00000000000E+00 0.  1.
         13    1    1    2    0    0 -0.44283394604E+02  0.71756639442E+02  0.90480039411E+01  0.84805140652E+02  0.10566000000E+00 0. -1.
<mgrwt>
<rscale>  1 0.56109819E+03</rscale>
<asrwt>0</asrwt>
<pdfrwt beam="1">  1       21 0.32329988E+00 0.10553741E+04</pdfrwt>
<pdfrwt beam="2">  1        4 0.26678553E-01 0.10553741E+04</pdfrwt>
<totfact> 0.10226087E+01</totfact>
</mgrwt>
</event>
<event>
 6    1  0.1353269E-005  0.1046997E+04  0.7818608E-02  0.9595682E-01
         21   -1    0    0  501  502  0.00000000000E+00  0.00000000000E+00  0.10032293552E+04  0.10032293552E+04  0.00000000000E+00 0.  1.
          4   -1    0    0  502    0 -0.00000000000E+00 -0.00000000000E+00 -0.50372058642E+03  0.50372058642E+03  0.00000000000E+00 0.  1.
    9000010    2    1    2  501    0 -0.13599144255E+03  0.28486574825E+03  0.18853015197E+03  0.10638360982E+04  0.99827924882E+03 0.  0.
        -13    1    3    3    0    0 -0.50532339310E+03  0.37484713895E+03  0.25324920680E+03  0.67823099392E+03  0.10566000000E+00 0.  1.
          4    1    3    3  501    0  0.36933195056E+03 -0.89981390704E+02 -0.64719054838E+02  0.38560510426E+03  0.00000000000E+00 0.  1.
         13    1    1    2    0    0  0.13599144255E+03 -0.28486574825E+03  0.31097861686E+03  0.44311384347E+03  0.10566000000E+00 0. -1.
<mgrwt>
<rscale>  1 0.77582661E+03</rscale>
<asrwt>0</asrwt>
<pdfrwt beam="1">  1       21 0.15434298E+00 0.10469974E+04</pdfrwt>
<pdfrwt beam="2">  1        4 0.77495475E-01 0.10469974E+04</pdfrwt>
<totfact> 0.14679657E+01</totfact>
</mgrwt>
</event>
<event>
 6    1  0.1353269E-005  0.9979977E+03  0.7818608E-02  0.9790030E-01
          4   -1    0    0  502    0 -0.00000000000E+00  0.00000000000E+00  0.15074043026E+04  0.15074043026E+04  0.00000000000E+00 0.  1.
         21   -1    0    0  501  502  0.00000000000E+00 -0.00000000000E+00 -0.23876355478E+03  0.23876355478E+03  0.00000000000E+00 0.  1.
    9000010    2    1    2  501    0  0.78337253417E+02  0.17281500570E+03  0.11487716468E+04  0.15217344285E+04  0.97979468407E+03 0.  0.
        -13    1    3    3    0    0 -0.37381585902E+03 -0.89573069005E+02  0.18791342024E+03  0.42787041942E+03  0.10566000000E+00 0.  1.
          4    1    3    3  501    0  0.45215311243E+03  0.26238807471E+03  0.96085822652E+03  0.10938640091E+04  0.00000000000E+00 0.  1.
         13    1    1    2    0    0 -0.78337253417E+02 -0.17281500570E+03  0.11986910111E+03  0.22443342895E+03  0.10566000000E+00 0. -1.
<mgrwt>
<rscale>  1 0.65900343E+03</rscale>
<asrwt>0</asrwt>
<pdfrwt beam="2">  1       21 0.36732856E-01 0.99799768E+03</pdfrwt>
<pdfrwt beam="1">  1        4 0.23190835E+00 0.99799768E+03</pdfrwt>
<totfact> 0.23671973E+01</totfact>
</mgrwt>
</event>
<event>
 6    1  0.1353269E-005  0.1194159E+04  0.7818608E-02  0.9293940E-01
         21   -1    0    0  501  502  0.00000000000E+00  0.00000000000E+00  0.90852508238E+03  0.90852508238E+03  0.00000000000E+00 0.  1.
          4   -1    0    0  502    0 -0.00000000000E+00 -0.00000000000E+00 -0.91576132607E+03  0.91576132607E+03  0.00000000000E+00 0.  1.
    9000010    2    1    2  501    0 -0.37928575232E+03  0.48971272041E+03 -0.98361260924E+02  0.11982033386E+04  0.10209505730E+04 0.  0.
        -13    1    3    3    0    0 -0.10072606783E+03 -0.14086843738E+03  0.33979165779E+03  0.38137650591E+03  0.10566000000E+00 0.  1.
          4    1    3    3  501    0 -0.27855968449E+03  0.63058115780E+03 -0.43815291872E+03  0.81682683267E+03  0.00000000000E+00 0.  1.
         13    1    1    2    0    0  0.37928575232E+03 -0.48971272041E+03  0.91125017241E+02  0.62608306987E+03  0.10566000000E+00 0. -1.
<mgrwt>
<rscale>  1 0.10134267E+04</rscale>
<asrwt>0</asrwt>
<pdfrwt beam="1">  1       21 0.13977309E+00 0.11941592E+04</pdfrwt>
<pdfrwt beam="2">  1        4 0.14088636E+00 0.11941592E+04</pdfrwt>
<totfact> 0.44091456E+00</totfact>
</mgrwt>
</event>
<event>
 6    1  0.1353269E-005  0.1068358E+04  0.7818608E-02  0.9526527E-01
          4   -1    0    0  502    0 -0.00000000000E+00  0.00000000000E+00  0.13909671276E+04  0.13909671276E+04  0.00000000000E+00 0.  1.
         21   -1    0    0  501  502  0.00000000000E+00 -0.00000000000E+00 -0.37582541870E+03  0.37582541870E+03  0.00000000000E+00 0.  1.
    9000010    2    1    2  501    0  0.26452839406E+03  0.26896842537E+03  0.73107078740E+03  0.12945472872E+04  0.99953434037E+03 0.  0.
        -13    1    3    3    0    0  0.51706882191E+03  0.10090127439E+03  0.26547404644E+02  0.52749029340E+03  0.10566000000E+00 0.  1.
          4    1    3    3  501    0 -0.25254042786E+03  0.16806715098E+03  0.70452338275E+03  0.76705699383E+03  0.00000000000E+00 0.  1.
         13    1    1    2    0    0 -0.26452839406E+03 -0.26896842537E+03  0.28407092150E+03  0.47224525907E+03  0.10566000000E+00 0. -1.
<mgrwt>
<rscale>  1 0.82356046E+03</rscale>
<asrwt>0</asrwt>
<pdfrwt beam="2">  1       21 0.57819296E-01 0.10683577E+04</pdfrwt>
<pdfrwt beam="1">  1        4 0.21399494E+00 0.10683577E+04</pdfrwt>
<totfact> 0.11574556E+01</totfact>
</mgrwt>
</event>
<event>
 6    1  0.1353269E-005  0.1417661E+04  0.7818608E-02  0.9030346E-01
         21   -1    0    0  501  502  0.00000000000E+00  0.00000000000E+00  0.12910744291E+04  0.12910744291E+04  0.00000000000E+00 0.  1.
          4   -1    0    0  502    0 -0.00000000000E+00 -0.00000000000E+00 -0.11316759777E+04  0.11316759777E+04  0.00000000000E+00 0.  1.
    9000010    2    1    2  501    0  0.99858473230E+03  0.40437268929E+02  0.70804866942E+02  0.14194281880E+04  0.10054632820E+04 0.  0.
        -13    1    3    3    0    0  0.57468865846E+03 -0.32370697538E+03  0.39946314095E+03  0.77111871474E+03  0.10566000000E+00 0.  1.
          4    1    3    3  501    0  0.42389607383E+03  0.36414424431E+03 -0.32865827401E+03  0.64830947329E+03  0.00000000000E+00 0.  1.
         13    1    1    2    0    0 -0.99858473230E+03 -0.40437268929E+02  0.88593584493E+02  0.10033222188E+04  0.10566000000E+00 0. -1.
<mgrwt>
<rscale>  1 0.12990162E+04</rscale>
<asrwt>0</asrwt>
<pdfrwt beam="1">  1       21 0.19862684E+00 0.14176611E+04</pdfrwt>
<pdfrwt beam="2">  1        4 0.17410400E+00 0.14176611E+04</pdfrwt>
<totfact> 0.85352848E-01</totfact>
</mgrwt>
</event>
<event>
 6    1  0.1353269E-005  0.1013299E+04  0.7818608E-02  0.9613920E-01
          4   -1    0    0  502    0 -0.00000000000E+00  0.00000000000E+00  0.30257436329E+03  0.30257436329E+03  0.00000000000E+00 0.  1.
         21   -1    0    0  501  502  0.00000000000E+00 -0.00000000000E+00 -0.17125102200E+04  0.17125102200E+04  0.00000000000E+00 0.  1.
    9000010    2    1    2  501    0 -0.29605486661E+03  0.13919986309E+03 -0.13409374386E+04  0.16807406305E+04  0.95903637411E+03 0.  0.
        -13    1    3    3    0    0 -0.20434023591E+03  0.52415690327E+03 -0.10442221561E+04  0.11861261795E+04  0.10566000000E+00 0.  1.
          4    1    3    3  501    0 -0.91714630695E+02 -0.38495704018E+03 -0.29671528250E+03  0.49461445100E+03  0.00000000000E+00 0.  1.
         13    1    1    2    0    0  0.29605486661E+03 -0.13919986309E+03 -0.68998418165E+02  0.33434395284E+03  0.10566000000E+00 0. -1.
<mgrwt>
<rscale>  1 0.76381656E+03</rscale>
<asrwt>0</asrwt>
<pdfrwt beam="2">  1       21 0.26346311E+00 0.10132995E+04</pdfrwt>
<pdfrwt beam="1">  1        4 0.46549902E-01 0.10132995E+04</pdfrwt>
<totfact> 0.79725627E+00</totfact>
</mgrwt>
</event>
<event>
 6    1  0.1353269E-005  0.1077338E+04  0.7818608E-02  0.9555199E-01
         21   -1    0    0  501  502  0.00000000000E+00  0.00000000000E+00  0.30125880311E+03  0.30125880311E+03  0.00000000000E+00 0.  1.
          4   -1    0    0  502    0 -0.00000000000E+00 -0.00000000000E+00 -0.19382272005E+04  0.19382272005E+04  0.00000000000E+00 0.  1.
    9000010    2    1    2  501    0  0.26598543703E+03 -0.20046859025E+03 -0.80971826466E+03  0.13477020042E+04  0.10245589859E+04 0.  0.
        -13    1    3    3    0    0 -0.13869711125E+03 -0.38519889474E+03 -0.80465591205E+03  0.90282125869E+03  0.10566000000E+00 0.  1.
          4    1    3    3  501    0  0.40468254829E+03  0.18473030449E+03 -0.50623526137E+01  0.44488074548E+03  0.00000000000E+00 0.  1.
         13    1    1    2    0    0 -0.26598543703E+03  0.20046859025E+03 -0.82725013275E+03  0.89178399946E+03  0.10566000000E+00 0. -1.
<mgrwt>
<rscale>  1 0.80333740E+03</rscale>
<asrwt>0</asrwt>
<pdfrwt beam="1">  1       21 0.46347509E-01 0.10773379E+04</pdfrwt>
<pdfrwt beam="2">  1        4 0.29818879E+00 0.10773379E+04</pdfrwt>
<totfact> 0.55918018E+00</totfact>
</mgrwt>
</event>
<event>
 6    1  0.1353269E-005  0.1018945E+04  0.7818608E-02  0.9782215E-01
          4   -1    0    0  502    0 -0.00000000000E+00  0.00000000000E+00  0.23191735957E+04  0.23191735957E+04  0.00000000000E+00 0.  1.
         21   -1    0    0  501  502  0.00000000000E+00 -0.00000000000E+00 -0.15696243977E+03  0.15696243977E+03  0.00000000000E+00 0.  1.
    9000010    2    1    2  501    0 -0.79061432475E+02 -0.16495947449E+03  0.19068046940E+04  0.21619787337E+04  0.10023899268E+04 0.  0.
        -13    1    3    3    0    0  0.24186078948E+03  0.31252891707E+03  0.46870507343E+03  0.61307048740E+03  0.10566000000E+00 0.  1.
          4    1    3    3  501    0 -0.32092222196E+03 -0.47748839156E+03  0.14380996206E+04  0.15489082463E+04  0.00000000000E+00 0.  1.
         13    1    1    2    0    0  0.79061432475E+02  0.16495947449E+03  0.25540646189E+03  0.31415730179E+03  0.10566000000E+00 0. -1.
<mgrwt>
<rscale>  1 0.66325801E+03</rscale>
<asrwt>0</asrwt>
<pdfrwt beam="2">  1       21 0.24148069E-01 0.10189445E+04</pdfrwt>
<pdfrwt beam="1">  1        4 0.35679591E+00 0.10189445E+04</pdfrwt>
<totfact> 0.91138845E+00</totfact>
</mgrwt>
</event>
<event>
 6    1  0.1353269E-005  0.1029842E+04  0.7818608E-02  0.9646869E-01
         21   -1    0    0  501  502  0.00000000000E+00  0.00000000000E+00  0.35112188002E+03  0.35112188002E+03  0.00000000000E+00 0.  1.
          4   -1    0    0  502    0 -0.00000000000E+00 -0.00000000000E+00 -0.13587262348E+04  0.13587262348E+04  0.00000000000E+00 0.  1.
    9000010    2    1    2  501    0  0.92846168150E+02 -0.26265054227E+03 -0.53317627123E+03  0.11596774723E+04  0.99144802444E+03 0.  0.
        -13    1    3    3    0    0  0.25806608933E+03  0.24693834726E+03 -0.51107545272E+03  0.62351806978E+03  0.10566000000E+00 0.  1.
          4    1    3    3  501    0 -0.16521992118E+03 -0.50958888953E+03 -0.22100818510E+02  0.53615940248E+03  0.00000000000E+00 0.  1.
         13    1    1    2    0    0 -0.92846168150E+02  0.26265054227E+03 -0.47442808354E+03  0.55017064254E+03  0.10566000000E+00 0. -1.
<mgrwt>
<rscale>  1 0.74270223E+03</rscale>
<asrwt>0</asrwt>
<pdfrwt beam="1">  1       21 0.54018751E-01 0.10298422E+04</pdfrwt>
<pdfrwt beam="2">  1        4 0.20903480E+00 0.10298422E+04</pdfrwt>
<totfact> 0.14537019E+01</totfact>
</mgrwt>
</event>
<event>
 6    1  0.1353269E-005  0.9955213E+03  0.7818608E-02  0.1011653E+00
         21   -1    0    0  501  502  0.00000000000E+00  0.00000000000E+00  0.47042060294E+03  0.47042060294E+03  0.00000000000E+00 0.  1.
          4   -1    0    0  502    0 -0.00000000000E+00 -0.00000000000E+00 -0.92793044955E+03  0.92793044955E+03  0.00000000000E+00 0.  1.
    9000010    2    1    2  501    0 -0.64775356034E+02 -0.19414394581E+02 -0.62376963389E+02  0.99747354997E+03  0.99322194492E+03 0.  0.
        -13    1    3    3    0    0 -0.34775287564E+02 -0.25333495970E+03 -0.46511051148E+03  0.53076899069E+03  0.10566000000E+00 0.  1.
          4    1    3    3  501    0 -0.30000068470E+02  0.23392056512E+03  0.40273354809E+03  0.46670455928E+03  0.00000000000E+00 0.  1.
         13    1    1    2    0    0  0.64775356034E+02  0.19414394581E+02 -0.39513288322E+03  0.40087750252E+03  0.10566000000E+00 0. -1.
<mgrwt>
<rscale>  1 0.50823013E+03</rscale>
<asrwt>0</asrwt>
<pdfrwt beam="1">  1       21 0.72372401E-01 0.99552127E+03</pdfrwt>
<pdfrwt beam="2">  1        4 0.14275853E+00 0.99552127E+03</pdfrwt>
<totfact> 0.22457147E+01</totfact>
</mgrwt>
</event>
<event>
 6    1  0.1353269E-005  0.1028093E+04  0.7818608E-02  0.9676320E-01
         21   -1    0    0  501  502  0.00000000000E+00  0.00000000000E+00  0.16339258994E+04  0.16339258994E+04  0.00000000000E+00 0.  1.
          4   -1    0    0  502    0 -0.00000000000E+00 -0.00000000000E+00 -0.33182594283E+03  0.33182594283E+03  0.00000000000E+00 0.  1.
    9000010    2    1    2  501    0  0.21264775539E+03  0.13793532413E+03  0.13608691149E+04  0.17055614377E+04  0.99635829313E+03 0.  0.
        -13    1    3    3    0    0 -0.15232918537E+03  0.12559919774E+03  0.13238652433E+04  0.13385060824E+04  0.10566000000E+00 0.  1.
          4    1    3    3  501    0  0.36497694076E+03  0.12336126390E+02  0.37003871630E+02  0.36705535525E+03  0.00000000000E+00 0.  1.
         13    1    1    2    0    0 -0.21264775539E+03 -0.13793532413E+03 -0.58769158297E+02  0.26019040460E+03  0.10566000000E+00 0. -1.
<mgrwt>
<rscale>  1 0.72444329E+03</rscale>
<asrwt>0</asrwt>
<pdfrwt beam="1">  1       21 0.25137321E+00 0.10280929E+04</pdfrwt>
<pdfrwt beam="2">  1        4 0.51050146E-01 0.10280929E+04</pdfrwt>
<totfact> 0.78108953E+00</totfact>
</mgrwt>
</event>
<event>
 6    1  0.1353269E-005  0.9916056E+03  0.7818608E-02  0.9921039E-01
         21   -1    0    0  501  502  0.00000000000E+00  0.00000000000E+00  0.35829476025E+03  0.35829476025E+03  0.00000000000E+00 0.  1.
          4   -1    0    0  502    0 -0.00000000000E+00 -0.00000000000E+00 -0.87858278180E+03  0.87858278180E+03  0.00000000000E+00 0.  1.
    9000010    2    1    2  501    0  0.12584600016E+03 -0.12003487959E+02 -0.42634086903E+03  0.10793739608E+04  0.98351426585E+03 0.  0.
        -13    1    3    3    0    0  0.43379284304E+03 -0.23422613888E+03 -0.48912355032E+03  0.69446380284E+03  0.10566000000E+00 0.  1.
          4    1    3    3  501    0 -0.30794684288E+03  0.22222265092E+03  0.62782681292E+02  0.38491015795E+03  0.00000000000E+00 0.  1.
         13    1    1    2    0    0 -0.12584600016E+03  0.12003487959E+02 -0.93947152516E+02  0.15750358126E+03  0.10566000000E+00 0. -1.
<mgrwt>
<rscale>  1 0.59252376E+03</rscale>
<asrwt>0</asrwt>
<pdfrwt beam="1">  1       21 0.55122271E-01 0.99160557E+03</pdfrwt>
<pdfrwt beam="2">  1        4 0.13516658E+00 0.99160557E+03</pdfrwt>
<totfact> 0.47834950E+01</totfact>
</mgrwt>
</event>
<event>
 6    1  0.1353269E-005  0.1212908E+04  0.7818608E-02  0.9254664E-01
         21   -1    0    0  501  502  0.00000000000E+00  0.00000000000E+00  0.10113109237E+04  0.10113109237E+04  0.00000000000E+00 0. -1.
          4   -1    0    0  502    0 -0.00000000000E+00 -0.00000000000E+00 -0.92069957276E+03  0.92069957276E+03  0.00000000000E+00 0.  1.
    9000010    2    1    2  501    0  0.13874816477E+03  0.66866704670E+03  0.23128248559E+03  0.12347622969E+04  0.10023869857E+04 0.  0.
        -13    1    3    3    0    0 -0.62107275091E+02  0.82664998869E+03  0.40812378785E+03  0.92399813571E+03  0.10566000000E+00 0.  1.
          4    1    3    3  501    0  0.20085543987E+03 -0.15798294199E+03 -0.17684130227E+03  0.31076416117E+03  0.00000000000E+00 0.  1.
         13    1    1    2    0    0 -0.13874816477E+03 -0.66866704670E+03 -0.14067113462E+03  0.69724819960E+03  0.10566000000E+00 0. -1.
<mgrwt>
<rscale>  1 0.10506593E+04</rscale>
<asrwt>0</asrwt>
<pdfrwt beam="1">  1       21 0.15558630E+00 0.12129082E+04</pdfrwt>
<pdfrwt beam="2">  1        4 0.14164609E+00 0.12129082E+04</pdfrwt>
<totfact> 0.32175389E+00</totfact>
</mgrwt>
</event>
<event>
 6    1  0.1353269E-005  0.1151716E+04  0.7818608E-02  0.9352964E-01
          4   -1    0    0  502    0 -0.00000000000E+00  0.00000000000E+00  0.24527514521E+03  0.24527514521E+03  0.00000000000E+00 0.  1.
         21   -1    0    0  501  502  0.00000000000E+00 -0.00000000000E+00 -0.32092048977E+04  0.32092048977E+04  0.00000000000E+00 0.  1.
    9000010    2    1    2  501    0  0.49375760699E+03  0.25804330592E+03 -0.23985478045E+04  0.26607296536E+04  0.10080018835E+04 0.  0.
        -13    1    3    3    0    0  0.75390890916E+03  0.17961805137E+03 -0.21747384848E+04  0.23087071655E+04  0.10566000000E+00 0.  1.
          4    1    3    3  501    0 -0.26015130218E+03  0.78425254551E+02 -0.22380931973E+03  0.35202248816E+03  0.00000000000E+00 0.  1.
         13    1    1    2    0    0 -0.49375760699E+03 -0.25804330592E+03 -0.56538194803E+03  0.79375038930E+03  0.10566000000E+00 0. -1.
<mgrwt>
<rscale>  1 0.96049785E+03</rscale>
<asrwt>0</asrwt>
<pdfrwt beam="2">  1       21 0.49372382E+00 0.11517164E+04</pdfrwt>
<pdfrwt beam="1">  1        4 0.37734639E-01 0.11517164E+04</pdfrwt>
<totfact> 0.37230168E-01</totfact>
</mgrwt>
</event>
<event>
 6    1  0.1353269E-005  0.9992627E+03  0.7818608E-02  0.1015011E+00
          4   -1    0    0  502    0 -0.00000000000E+00  0.00000000000E+00  0.58579990417E+03  0.58579990417E+03  0.00000000000E+00 0.  1.
         21   -1    0    0  501  502  0.00000000000E+00 -0.00000000000E+00 -0.10456659335E+04  0.10456659335E+04  0.00000000000E+00 0.  1.
    9000010    2    1    2  501    0 -0.55622872787E+02 -0.23338111741E+02 -0.80370986561E+03  0.12823710564E+04  0.99744042764E+03 0.  0.
        -13    1    3    3    0    0 -0.35922013804E+03 -0.32251205274E+03 -0.15664117635E+03  0.50753285709E+03  0.10566000000E+00 0.  1.
          4    1    3    3  501    0  0.30359726525E+03  0.29917394100E+03 -0.64706868926E+03  0.77483819928E+03  0.00000000000E+00 0.  1.
         13    1    1    2    0    0  0.55622872787E+02  0.23338111741E+02  0.34384383627E+03  0.34909478131E+03  0.10566000000E+00 0. -1.
<mgrwt>
<rscale>  1 0.49530908E+03</rscale>
<asrwt>0</asrwt>
<pdfrwt beam="2">  1       21 0.16087168E+00 0.99926272E+03</pdfrwt>
<pdfrwt beam="1">  1        4 0.90123063E-01 0.99926272E+03</pdfrwt>
<totfact> 0.92461133E+00</totfact>
</mgrwt>
</event>
<event>
 6    1  0.1353269E-005  0.1016633E+04  0.7818608E-02  0.9821130E-01
         21   -1    0    0  501  502  0.00000000000E+00  0.00000000000E+00  0.31482043325E+03  0.31482043325E+03  0.00000000000E+00 0.  1.
          4   -1    0    0  502    0 -0.00000000000E+00 -0.00000000000E+00 -0.11413556571E+04  0.11413556571E+04  0.00000000000E+00 0.  1.
    9000010    2    1    2  501    0  0.46296108197E+02 -0.15533577385E+03 -0.60966252662E+03  0.11854247095E+04  0.10036288225E+04 0.  0.
        -13    1    3    3    0    0  0.10725982966E+03  0.11480599952E+03  0.24274774896E+03  0.28915665196E+03  0.10566000000E+00 0.  1.
          4    1    3    3  501    0 -0.60963721464E+02 -0.27014177337E+03 -0.85241027558E+03  0.89626805754E+03  0.00000000000E+00 0.  1.
         13    1    1    2    0    0 -0.46296108197E+02  0.15533577385E+03 -0.21687269727E+03  0.27075138090E+03  0.10566000000E+00 0. -1.
<mgrwt>
<rscale>  1 0.64240813E+03</rscale>
<asrwt>0</asrwt>
<pdfrwt beam="1">  1       21 0.48433912E-01 0.10166333E+04</pdfrwt>
<pdfrwt beam="2">  1        4 0.17559318E+00 0.10166333E+04</pdfrwt>
<totfact> 0.31044357E+01</totfact>
</mgrwt>
</event>
<event>
 6    1  0.1353269E-005  0.9990221E+03  0.7818608E-02  0.9880093E-01
          4   -1    0    0  502    0 -0.00000000000E+00  0.00000000000E+00  0.17125060128E+04  0.17125060128E+04  0.00000000000E+00 0.  1.
         21   -1    0    0  501  502  0.00000000000E+00 -0.00000000000E+00 -0.19892320908E+03  0.19892320908E+03  0.00000000000E+00 0.  1.
    9000010    2    1    2  501    0  0.96612785151E+02 -0.10273336326E+03  0.11608003933E+04  0.15315034206E+04  0.98901820011E+03 0.  0.
        -13    1    3    3    0    0  0.10099148167E+03 -0.22545268575E+03 -0.98703575543E+02  0.26602744195E+03  0.10566000000E+00 0.  1.
          4    1    3    3  501    0 -0.43786965168E+01  0.12271932250E+03  0.12595039688E+04  0.12654759787E+04  0.00000000000E+00 0.  1.
         13    1    1    2    0    0 -0.96612785151E+02  0.10273336326E+03  0.35278241039E+03  0.37992580121E+03  0.10566000000E+00 0. -1.
<mgrwt>
<rscale>  1 0.61235846E+03</rscale>
<asrwt>0</asrwt>
<pdfrwt beam="2">  1       21 0.30603572E-01 0.99902211E+03</pdfrwt>
<pdfrwt beam="1">  1        4 0.26346245E+00 0.99902211E+03</pdfrwt>
<totfact> 0.21904493E+01</totfact>
</mgrwt>
</event>
<event>
 6    1  0.1353269E-005  0.1016842E+04  0.7818608E-02  0.9969003E-01
          4   -1    0    0  502    0 -0.00000000000E+00  0.00000000000E+00  0.31086722422E+03  0.31086722422E+03  0.00000000000E+00 0.  1.
         21   -1    0    0  501  502  0.00000000000E+00 -0.00000000000E+00 -0.11923696627E+04  0.11923696627E+04  0.00000000000E+00 0.  1.
    9000010    2    1    2  501    0 -0.36515689444E+02 -0.93756552284E+02 -0.94175862438E+03  0.13859572818E+04  0.10118520612E+04 0.  0.
        -13    1    3    3    0    0 -0.24109361291E+03 -0.23224324518E+03 -0.10603397209E+04  0.11119277810E+04  0.10566000000E+00 0.  1.
          4    1    3    3  501    0  0.20457792347E+03  0.13848669289E+03  0.11858109655E+03  0.27402950086E+03  0.00000000000E+00 0.  1.
         13    1    1    2    0    0  0.36515689444E+02  0.93756552284E+02  0.60256185893E+02  0.11727960511E+03  0.10566000000E+00 0. -1.
<mgrwt>
<rscale>  1 0.57030556E+03</rscale>
<asrwt>0</asrwt>
<pdfrwt beam="2">  1       21 0.18344148E+00 0.10168423E+04</pdfrwt>
<pdfrwt beam="1">  1        4 0.47825728E-01 0.10168423E+04</pdfrwt>
<totfact> 0.25536268E+01</totfact>
</mgrwt>
</event>
<event>
 6    1  0.1353269E-005  0.9862998E+03  0.7818608E-02  0.9942792E-01
         21   -1    0    0  501  502  0.00000000000E+00  0.00000000000E+00  0.31424396033E+03  0.31424396033E+03  0.00000000000E+00 0.  1.
          4   -1    0    0  502    0 -0.00000000000E+00 -0.00000000000E+00 -0.12988970602E+04  0.12988970602E+04  0.00000000000E+00 0.  1.
    9000010    2    1    2  501    0 -0.85332909303E+02 -0.84143146972E+02 -0.48458413473E+03  0.10989127097E+04  0.97899212730E+03 0.  0.
        -13    1    3    3    0    0 -0.18690223163E+03 -0.42951088811E+03 -0.56105562295E+03  0.73088676989E+03  0.10566000000E+00 0.  1.
          4    1    3    3  501    0  0.10156932233E+03  0.34536774114E+03  0.76471488227E+02  0.36802593980E+03  0.00000000000E+00 0.  1.
         13    1    1    2    0    0  0.85332909303E+02  0.84143146972E+02 -0.50006896512E+03  0.51422831080E+03  0.10566000000E+00 0. -1.
<mgrwt>
<rscale>  1 0.58231473E+03</rscale>
<asrwt>0</asrwt>
<pdfrwt beam="1">  1       21 0.48345225E-01 0.98629983E+03</pdfrwt>
<pdfrwt beam="2">  1        4 0.19983031E+00 0.98629983E+03</pdfrwt>
<totfact> 0.21349006E+01</totfact>
</mgrwt>
</event>
<event>
 6    1  0.1353269E-005  0.1035055E+04  0.7818608E-02  0.9611174E-01
         21   -1    0    0  501  502  0.00000000000E+00  0.00000000000E+00  0.44624477453E+03  0.44624477453E+03  0.00000000000E+00 0.  1.
          4   -1    0    0  502    0 -0.00000000000E+00 -0.00000000000E+00 -0.19667393733E+04  0.19667393733E+04  0.00000000000E+00 0.  1.
    9000010    2    1    2  501    0 -0.15687792107E+03  0.26719106805E+03 -0.19691184143E+03  0.10536191948E+04  0.98759170982E+03 0.  0.
        -13    1    3    3    0    0 -0.42223231751E+03  0.50659645154E+03 -0.22071014043E+03  0.69543732421E+03  0.10566000000E+00 0.  1.
          4    1    3    3  501    0  0.26535439644E+03 -0.23940538349E+03  0.23798299000E+02  0.35818187055E+03  0.00000000000E+00 0.  1.
         13    1    1    2    0    0  0.15687792107E+03 -0.26719106805E+03 -0.13235827573E+04  0.13593649531E+04  0.10566000000E+00 0. -1.
<mgrwt>
<rscale>  1 0.76560985E+03</rscale>
<asrwt>0</asrwt>
<pdfrwt beam="1">  1       21 0.68653044E-01 0.10350551E+04</pdfrwt>
<pdfrwt beam="2">  1        4 0.30257528E+00 0.10350551E+04</pdfrwt>
<totfact> 0.22179556E+00</totfact>
</mgrwt>
</event>
<event>
 6    1  0.1353269E-005  0.1032716E+04  0.7818608E-02  0.9691649E-01
          4   -1    0    0  502    0 -0.00000000000E+00  0.00000000000E+00  0.77709044023E+03  0.77709044023E+03  0.00000000000E+00 0.  1.
         21   -1    0    0  501  502  0.00000000000E+00 -0.00000000000E+00 -0.98257429663E+03  0.98257429663E+03  0.00000000000E+00 0.  1.
    9000010    2    1    2  501    0 -0.17673570128E+03  0.15866157145E+03 -0.67482633987E+03  0.12336501170E+04  0.10050338401E+04 0.  0.
        -13    1    3    3    0    0 -0.10393209318E+02  0.20076464883E+03 -0.91592412245E+03  0.93772675778E+03  0.10566000000E+00 0.  1.
          4    1    3    3  501    0 -0.16634249196E+03 -0.42103077376E+02  0.24109778258E+03  0.29592335920E+03  0.00000000000E+00 0.  1.
         13    1    1    2    0    0  0.17673570128E+03 -0.15866157145E+03  0.46934248348E+03  0.52601461988E+03  0.10566000000E+00 0. -1.
<mgrwt>
<rscale>  1 0.71516161E+03</rscale>
<asrwt>0</asrwt>
<pdfrwt beam="2">  1       21 0.15116528E+00 0.10327158E+04</pdfrwt>
<pdfrwt beam="1">  1        4 0.11955238E+00 0.10327158E+04</pdfrwt>
<totfact> 0.55245694E+00</totfact>
</mgrwt>
</event>
<event>
 6    1  0.1353269E-005  0.1190783E+04  0.7818608E-02  0.9266378E-01
          4   -1    0    0  502    0 -0.00000000000E+00  0.00000000000E+00  0.69978370698E+03  0.69978370698E+03  0.00000000000E+00 0.  1.
         21   -1    0    0  501  502  0.00000000000E+00 -0.00000000000E+00 -0.17066310827E+04  0.17066310827E+04  0.00000000000E+00 0. -1.
    9000010    2    1    2  501    0  0.68969362765E+03 -0.45505384043E+02 -0.68648105260E+01  0.11908025234E+04  0.96964709262E+03 0.  0.
        -13    1    3    3    0    0  0.71252544763E+03  0.33134654386E+03  0.11479521556E+03  0.79414167396E+03  0.10566000000E+00 0.  1.
          4    1    3    3  501    0 -0.22831819978E+02 -0.37685192790E+03 -0.12166002608E+03  0.39666084948E+03  0.00000000000E+00 0.  1.
         13    1    1    2    0    0 -0.68969362765E+03  0.45505384043E+02 -0.99998256523E+03  0.12156122663E+04  0.10566000000E+00 0. -1.
<mgrwt>
<rscale>  1 0.10393799E+04</rscale>
<asrwt>0</asrwt>
<pdfrwt beam="2">  1       21 0.26255863E+00 0.11907827E+04</pdfrwt>
<pdfrwt beam="1">  1        4 0.10765903E+00 0.11907827E+04</pdfrwt>
<totfact> 0.11850814E+00</totfact>
</mgrwt>
</event>
<event>
 6    1  0.1353269E-005  0.1034460E+04  0.7818608E-02  0.9801317E-01
         21   -1    0    0  501  502  0.00000000000E+00  0.00000000000E+00  0.65583012192E+03  0.65583012192E+03  0.00000000000E+00 0.  1.
          4   -1    0    0  502    0 -0.00000000000E+00 -0.00000000000E+00 -0.55001780734E+03  0.55001780734E+03  0.00000000000E+00 0.  1.
    9000010    2    1    2  501    0  0.14133498908E+03 -0.83526007191E+02  0.11830242632E+03  0.10412022884E+04  0.10213493860E+04 0.  0.
        -13    1    3    3    0    0  0.16657252298E+03  0.43337346766E+03  0.22003216483E+03  0.51378315719E+03  0.10566000000E+00 0.  1.
          4    1    3    3  501    0 -0.25237533904E+02 -0.51689947485E+03 -0.10172973852E+03  0.52741913116E+03  0.00000000000E+00 0.  1.
         13    1    1    2    0    0 -0.14133498908E+03  0.83526007191E+02 -0.12490111736E+02  0.16464564091E+03  0.10566000000E+00 0. -1.
<mgrwt>
<rscale>  1 0.65291915E+03</rscale>
<asrwt>0</asrwt>
<pdfrwt beam="1">  1       21 0.10089694E+00 0.10344596E+04</pdfrwt>
<pdfrwt beam="2">  1        4 0.84618124E-01 0.10344596E+04</pdfrwt>
<totfact> 0.36802310E+01</totfact>
</mgrwt>
</event>
<event>
 6    1  0.1353269E-005  0.1088819E+04  0.7818608E-02  0.9471360E-01
         21   -1    0    0  501  502  0.00000000000E+00  0.00000000000E+00  0.90873551023E+03  0.90873551023E+03  0.00000000000E+00 0.  1.
          4   -1    0    0  502    0 -0.00000000000E+00 -0.00000000000E+00 -0.67848599078E+03  0.67848599078E+03  0.00000000000E+00 0.  1.
    9000010    2    1    2  501    0 -0.17660568490E+03 -0.39455848231E+03  0.34102238910E+03  0.11409742560E+04  0.99932978491E+03 0.  0.
        -13    1    3    3    0    0  0.11803175932E+03 -0.14638501323E+03 -0.32273850016E+03  0.37352405406E+03  0.10566000000E+00 0.  1.
          4    1    3    3  501    0 -0.29463744422E+03 -0.24817346908E+03  0.66376088927E+03  0.76745020191E+03  0.00000000000E+00 0.  1.
         13    1    1    2    0    0  0.17660568490E+03  0.39455848231E+03 -0.11077286965E+03  0.44624724505E+03  0.10566000000E+00 0. -1.
<mgrwt>
<rscale>  1 0.86428690E+03</rscale>
<asrwt>0</asrwt>
<pdfrwt beam="1">  1       21 0.13980546E+00 0.10888186E+04</pdfrwt>
<pdfrwt beam="2">  1        4 0.10438246E+00 0.10888186E+04</pdfrwt>
<totfact> 0.95248614E+00</totfact>
</mgrwt>
</event>
<event>
 6    1  0.1353269E-005  0.1133436E+04  0.7818608E-02  0.9372536E-01
         21   -1    0    0  501  502  0.00000000000E+00  0.00000000000E+00  0.15344241722E+04  0.15344241722E+04  0.00000000000E+00 0.  1.
          4   -1    0    0  502    0 -0.00000000000E+00 -0.00000000000E+00 -0.48248848766E+03  0.48248848766E+03  0.00000000000E+00 0.  1.
    9000010    2    1    2  501    0  0.49906264076E+03  0.21825521865E+03  0.91128918351E+03  0.14543468332E+04  0.99397076189E+03 0.  0.
        -13    1    3    3    0    0  0.71236631589E+03  0.20399879801E+03  0.28728973660E+03  0.79474315444E+03  0.10566000000E+00 0.  1.
          4    1    3    3  501    0 -0.21330367513E+03  0.14256420644E+02  0.62399944691E+03  0.65960367880E+03  0.00000000000E+00 0.  1.
         13    1    1    2    0    0 -0.49906264076E+03 -0.21825521865E+03  0.14064650104E+03  0.56256582663E+03  0.10566000000E+00 0. -1.
<mgrwt>
<rscale>  1 0.94370702E+03</rscale>
<asrwt>0</asrwt>
<pdfrwt beam="1">  1       21 0.23606526E+00 0.11334358E+04</pdfrwt>
<pdfrwt beam="2">  1        4 0.74228999E-01 0.11334358E+04</pdfrwt>
<totfact> 0.42461705E+00</totfact>
</mgrwt>
</event>
<event>
 6    1  0.1353269E-005  0.1009236E+04  0.7818608E-02  0.1014910E+00
          4   -1    0    0  502    0 -0.00000000000E+00  0.00000000000E+00  0.58157981513E+03  0.58157981513E+03  0.00000000000E+00 0.  1.
         21   -1    0    0  501  502  0.00000000000E+00 -0.00000000000E+00 -0.51522667497E+03  0.51522667497E+03  0.00000000000E+00 0.  1.
    9000010    2    1    2  501    0 -0.57246432660E+02 -0.13118284311E+02  0.13985333825E+01  0.10092373429E+04  0.10075260865E+04 0.  0.
        -13    1    3    3    0    0  0.95966174759E+01 -0.50595063345E+03  0.54957237551E+02  0.50901713889E+03  0.10566000000E+00 0.  1.
          4    1    3    3  501    0 -0.66843050136E+02  0.49283234914E+03 -0.53558704169E+02  0.50022020402E+03  0.00000000000E+00 0.  1.
         13    1    1    2    0    0  0.57246432660E+02  0.13118284311E+02  0.64954606773E+02  0.87569147196E+02  0.10566000000E+00 0. -1.
<mgrwt>
<rscale>  1 0.49569019E+03</rscale>
<asrwt>0</asrwt>
<pdfrwt beam="2">  1       21 0.79265642E-01 0.10092364E+04</pdfrwt>
<pdfrwt beam="1">  1        4 0.89473818E-01 0.10092364E+04</pdfrwt>
<totfact> 0.57948967E+01</totfact>
</mgrwt>
</event>
<event>
 6    1  0.1353269E-005  0.1210687E+04  0.7818608E-02  0.9267342E-01
         21   -1    0    0  501  502  0.00000000000E+00  0.00000000000E+00  0.13142033924E+04  0.13142033924E+04  0.00000000000E+00 0. -1.
          4   -1    0    0  502    0 -0.00000000000E+00 -0.00000000000E+00 -0.81596502194E+03  0.81596502194E+03  0.00000000000E+00 0.  1.
    9000010    2    1    2  501    0  0.23950800830E+03 -0.60999550326E+03  0.75446453387E+03  0.14265275557E+04  0.10179909303E+04 0.  0.
        -13    1    3    3    0    0  0.11089427504E+03 -0.71995814067E+03  0.81940945845E+02  0.73304269611E+03  0.10566000000E+00 0.  1.
          4    1    3    3  501    0  0.12861373326E+03  0.10996263741E+03  0.67252358802E+03  0.69348485957E+03  0.00000000000E+00 0.  1.
         13    1    1    2    0    0 -0.23950800830E+03  0.60999550326E+03 -0.25622616338E+03  0.70364085868E+03  0.10566000000E+00 0. -1.
<mgrwt>
<rscale>  1 0.10384586E+04</rscale>
<asrwt>0</asrwt>
<pdfrwt beam="1">  1       21 0.20218514E+00 0.12106875E+04</pdfrwt>
<pdfrwt beam="2">  1        4 0.12553308E+00 0.12106875E+04</pdfrwt>
<totfact> 0.20009879E+00</totfact>
</mgrwt>
</event>
<event>
 6    1  0.1353269E-005  0.1008691E+04  0.7818608E-02  0.9917320E-01
          4   -1    0    0  502    0 -0.00000000000E+00  0.00000000000E+00  0.48354802137E+03  0.48354802137E+03  0.00000000000E+00 0.  1.
         21   -1    0    0  501  502  0.00000000000E+00 -0.00000000000E+00 -0.70722798870E+03  0.70722798870E+03  0.00000000000E+00 0.  1.
    9000010    2    1    2  501    0 -0.48468803074E+02 -0.11145877658E+03 -0.29360835678E+03  0.10505537773E+04  0.10013416440E+04 0.  0.
        -13    1    3    3    0    0 -0.39011240375E+03 -0.40102729256E+03 -0.13586089898E+03  0.57573324724E+03  0.10566000000E+00 0.  1.
          4    1    3    3  501    0  0.34164360067E+03  0.28956851599E+03 -0.15774745780E+03  0.47482053007E+03  0.00000000000E+00 0.  1.
         13    1    1    2    0    0  0.48468803074E+02  0.11145877658E+03  0.69928389447E+02  0.14022223277E+03  0.10566000000E+00 0. -1.
<mgrwt>
<rscale>  1 0.59429158E+03</rscale>
<asrwt>0</asrwt>
<pdfrwt beam="2">  1       21 0.10880431E+00 0.10086909E+04</pdfrwt>
<pdfrwt beam="1">  1        4 0.74392003E-01 0.10086909E+04</pdfrwt>
<totfact> 0.41010553E+01</totfact>
</mgrwt>
</event>
<event>
 6    1  0.1353269E-005  0.1039467E+04  0.7818608E-02  0.9633850E-01
         21   -1    0    0  501  502  0.00000000000E+00  0.00000000000E+00  0.36549494437E+03  0.36549494437E+03  0.00000000000E+00 0. -1.
          4   -1    0    0  502    0 -0.00000000000E+00 -0.00000000000E+00 -0.13342617542E+04  0.13342617542E+04  0.00000000000E+00 0.  1.
    9000010    2    1    2  501    0 -0.91736700236E+02 -0.26788496697E+03 -0.96231714045E+03  0.14165260733E+04  0.10001569176E+04 0.  0.
        -13    1    3    3    0    0 -0.15778476400E+03 -0.43186542104E+03 -0.11001477440E+04  0.11923627147E+04  0.10566000000E+00 0.  1.
          4    1    3    3  501    0  0.66048063760E+02  0.16398045407E+03  0.13783060356E+03  0.22416335856E+03  0.00000000000E+00 0.  1.
         13    1    1    2    0    0  0.91736700236E+02  0.26788496697E+03 -0.64496693638E+01  0.28323062528E+03  0.10566000000E+00 0. -1.
<mgrwt>
<rscale>  1 0.75095689E+03</rscale>
<asrwt>0</asrwt>
<pdfrwt beam="1">  1       21 0.56229993E-01 0.10394671E+04</pdfrwt>
<pdfrwt beam="2">  1        4 0.20527103E+00 0.10394671E+04</pdfrwt>
<totfact> 0.14070186E+01</totfact>
</mgrwt>
</event>
<event>
 6    1  0.1353269E-005  0.8027265E+03  0.7818608E-02  0.1021172E+00
          4   -1    0    0  502    0 -0.00000000000E+00  0.00000000000E+00  0.24774325975E+03  0.24774325975E+03  0.00000000000E+00 0.  1.
         21   -1    0    0  501  502  0.00000000000E+00 -0.00000000000E+00 -0.99438823461E+03  0.99438823461E+03  0.00000000000E+00 0.  1.
    9000010    2    1    2  501    0 -0.58081092904E+02 -0.77054247962E+02 -0.42903475099E+03  0.91018716778E+03  0.79690594950E+03 0.  0.
        -13    1    3    3    0    0  0.30153164308E+03  0.17532210631E+03 -0.10492637938E+03  0.36423718782E+03  0.10566000000E+00 0.  1.
          4    1    3    3  501    0 -0.35961273598E+03 -0.25237635427E+03 -0.32410837161E+03  0.54594997996E+03  0.00000000000E+00 0.  1.
         13    1    1    2    0    0  0.58081092904E+02  0.77054247962E+02 -0.31761022386E+03  0.33194432658E+03  0.10566000000E+00 0. -1.
<mgrwt>
<rscale>  1 0.47266019E+03</rscale>
<asrwt>0</asrwt>
<pdfrwt beam="2">  1       21 0.15298281E+00 0.80272652E+03</pdfrwt>
<pdfrwt beam="1">  1        4 0.38114348E-01 0.80272652E+03</pdfrwt>
<totfact> 0.70721252E+01</totfact>
</mgrwt>
</event>
<event>
 6    1  0.1353269E-005  0.1021021E+04  0.7818608E-02  0.9673950E-01
          4   -1    0    0  502    0 -0.00000000000E+00  0.00000000000E+00  0.24686814522E+03  0.24686814522E+03  0.00000000000E+00 0.  1.
         21   -1    0    0  501  502  0.00000000000E+00 -0.00000000000E+00 -0.16640311383E+04  0.16640311383E+04  0.00000000000E+00 0.  1.
    9000010    2    1    2  501    0 -0.13508970026E+03 -0.22314011461E+03 -0.11279249100E+04  0.15214131891E+04  0.98713866883E+03 0.  0.
        -13    1    3    3    0    0 -0.53389268391E+02  0.37720043062E+03 -0.25348722351E+03  0.45758754626E+03  0.10566000000E+00 0.  1.
          4    1    3    3  501    0 -0.81700431866E+02 -0.60034054523E+03 -0.87443768650E+03  0.10638256429E+04  0.00000000000E+00 0.  1.
         13    1    1    2    0    0  0.13508970026E+03  0.22314011461E+03 -0.28923808303E+03  0.38948609436E+03  0.10566000000E+00 0. -1.
<mgrwt>
<rscale>  1 0.72589221E+03</rscale>
<asrwt>0</asrwt>
<pdfrwt beam="2">  1       21 0.25600479E+00 0.10210208E+04</pdfrwt>
<pdfrwt beam="1">  1        4 0.37979715E-01 0.10210208E+04</pdfrwt>
<totfact> 0.13480335E+01</totfact>
</mgrwt>
</event>
<event>
 6    1  0.1353269E-005  0.1204843E+04  0.7818608E-02  0.9279741E-01
          4   -1    0    0  502    0 -0.00000000000E+00  0.00000000000E+00  0.13967641133E+04  0.13967641133E+04  0.00000000000E+00 0.  1.
         21   -1    0    0  501  502  0.00000000000E+00 -0.00000000000E+00 -0.61919805766E+03  0.61919805766E+03  0.00000000000E+00 0.  1.
    9000010    2    1    2  501    0 -0.54405115339E+03 -0.32803363548E+03  0.64632602284E+03  0.13672544703E+04  0.10237430026E+04 0.  0.
        -13    1    3    3    0    0 -0.44616910746E+02 -0.45512988859E+03  0.71356828700E+03  0.84753383153E+03  0.10566000000E+00 0.  1.
          4    1    3    3  501    0 -0.49943424265E+03  0.12709625312E+03 -0.67242264165E+02  0.51972063878E+03  0.00000000000E+00 0.  1.
         13    1    1    2    0    0  0.54405115339E+03  0.32803363548E+03  0.13124003281E+03  0.64870770065E+03  0.10566000000E+00 0. -1.
<mgrwt>
<rscale>  1 0.10266953E+04</rscale>
<asrwt>0</asrwt>
<pdfrwt beam="2">  1       21 0.95261240E-01 0.12048433E+04</pdfrwt>
<pdfrwt beam="1">  1        4 0.21488679E+00 0.12048433E+04</pdfrwt>
<totfact> 0.35181742E+00</totfact>
</mgrwt>
</event>
<event>
 6    1  0.1353269E-005  0.1053911E+04  0.7818608E-02  0.9580505E-01
         21   -1    0    0  501  502  0.00000000000E+00  0.00000000000E+00  0.15366631028E+04  0.15366631028E+04  0.00000000000E+00 0.  1.
          4   -1    0    0  502    0 -0.00000000000E+00 -0.00000000000E+00 -0.34270563974E+03  0.34270563974E+03  0.00000000000E+00 0.  1.
    9000010    2    1    2  501    0 -0.32566720926E+03  0.15720337209E+02  0.11335146996E+04  0.15477671759E+04  0.10022082600E+04 0.  0.
        -13    1    3    3    0    0 -0.48806898915E+03  0.35083224385E+03  0.39087683686E+03  0.71699324561E+03  0.10566000000E+00 0.  1.
          4    1    3    3  501    0  0.16240177989E+03 -0.33511190664E+03  0.74263786273E+03  0.83077393029E+03  0.00000000000E+00 0.  1.
         13    1    1    2    0    0  0.32566720926E+03 -0.15720337209E+02  0.60442763484E+02  0.33160156666E+03  0.10566000000E+00 0. -1.
<mgrwt>
<rscale>  1 0.78600029E+03</rscale>
<asrwt>0</asrwt>
<pdfrwt beam="1">  1       21 0.23640970E+00 0.10539106E+04</pdfrwt>
<pdfrwt beam="2">  1        4 0.52723946E-01 0.10539106E+04</pdfrwt>
<totfact> 0.90594528E+00</totfact>
</mgrwt>
</event>
<event>
 6    1  0.1353269E-005  0.9178195E+03  0.7818608E-02  0.9976238E-01
         21   -1    0    0  501  502  0.00000000000E+00  0.00000000000E+00  0.80559620945E+03  0.80559620945E+03  0.00000000000E+00 0.  1.
          4   -1    0    0  502    0 -0.00000000000E+00 -0.00000000000E+00 -0.50454200761E+03  0.50454200761E+03  0.00000000000E+00 0.  1.
    9000010    2    1    2  501    0  0.66557783300E+02  0.11598012103E+03  0.51903160752E+03  0.10544128027E+04  0.90802600289E+03 0.  0.
        -13    1    3    3    0    0 -0.38558817405E+03  0.10658212494E+02  0.40772777156E+02  0.38788434872E+03  0.10566000000E+00 0.  1.
          4    1    3    3  501    0  0.45214595735E+03  0.10532190853E+03  0.47825883036E+03  0.66652845399E+03  0.00000000000E+00 0.  1.
         13    1    1    2    0    0 -0.66557783300E+02 -0.11598012103E+03 -0.21797740568E+03  0.25572541435E+03  0.10566000000E+00 0. -1.
<mgrwt>
<rscale>  1 0.56704555E+03</rscale>
<asrwt>0</asrwt>
<pdfrwt beam="1">  1       21 0.12393788E+00 0.91781945E+03</pdfrwt>
<pdfrwt beam="2">  1        4 0.77621847E-01 0.91781945E+03</pdfrwt>
<totfact> 0.26887508E+01</totfact>
</mgrwt>
</event>
<event>
 6    1  0.1353269E-005  0.1001153E+04  0.7818608E-02  0.9970607E-01
         21   -1    0    0  501  502  0.00000000000E+00  0.00000000000E+00  0.31848556125E+03  0.31848556125E+03  0.00000000000E+00 0.  1.
          4   -1    0    0  502    0 -0.00000000000E+00 -0.00000000000E+00 -0.13745121653E+04  0.13745121653E+04  0.00000000000E+00 0.  1.
    9000010    2    1    2  501    0 -0.93518386333E+01 -0.10446872102E+03 -0.48504830762E+03  0.11124657320E+04  0.99564399942E+03 0.  0.
        -13    1    3    3    0    0 -0.27374549962E+03  0.17492218655E+03 -0.62398325335E+03  0.70348381754E+03  0.10566000000E+00 0.  1.
          4    1    3    3  501    0  0.26439366098E+03 -0.27939090758E+03  0.13893494573E+03  0.40898191446E+03  0.00000000000E+00 0.  1.
         13    1    1    2    0    0  0.93518386333E+01  0.10446872102E+03 -0.57097829642E+03  0.58053199456E+03  0.10566000000E+00 0. -1.
<mgrwt>
<rscale>  1 0.56958086E+03</rscale>
<asrwt>0</asrwt>
<pdfrwt beam="1">  1       21 0.48997779E-01 0.10011534E+04</pdfrwt>
<pdfrwt beam="2">  1        4 0.21146341E+00 0.10011534E+04</pdfrwt>
<totfact> 0.17381993E+01</totfact>
</mgrwt>
</event>
<event>
 6    1  0.1353269E-005  0.1021862E+04  0.7818608E-02  0.9757806E-01
         21   -1    0    0  501  502  0.00000000000E+00  0.00000000000E+00  0.17225944432E+04  0.17225944432E+04  0.00000000000E+00 0.  1.
          4   -1    0    0  502    0 -0.00000000000E+00 -0.00000000000E+00 -0.25714656692E+03  0.25714656692E+03  0.00000000000E+00 0.  1.
    9000010    2    1    2  501    0 -0.23860471731E+01 -0.19658636937E+03  0.14612414836E+04  0.17830951387E+04  0.10027710139E+04 0.  0.
        -13    1    3    3    0    0  0.27251918784E+03  0.32808746913E+03  0.54477540662E+03  0.69187307359E+03  0.10566000000E+00 0.  1.
          4    1    3    3  501    0 -0.27490523501E+03 -0.52467383850E+03  0.91646607699E+03  0.10912220651E+04  0.00000000000E+00 0.  1.
         13    1    1    2    0    0  0.23860471731E+01  0.19658636937E+03  0.42063926330E+01  0.19664587142E+03  0.10566000000E+00 0. -1.
<mgrwt>
<rscale>  1 0.67676906E+03</rscale>
<asrwt>0</asrwt>
<pdfrwt beam="1">  1       21 0.26501452E+00 0.10218618E+04</pdfrwt>
<pdfrwt beam="2">  1        4 0.39561011E-01 0.10218618E+04</pdfrwt>
<totfact> 0.10886933E+01</totfact>
</mgrwt>
</event>
<event>
 6    1  0.1353269E-005  0.9953269E+03  0.7818608E-02  0.1025033E+00
         21   -1    0    0  501  502  0.00000000000E+00  0.00000000000E+00  0.80723750759E+03  0.80723750759E+03  0.00000000000E+00 0.  1.
          4   -1    0    0  502    0 -0.00000000000E+00 -0.00000000000E+00 -0.51434490159E+03  0.51434490159E+03  0.00000000000E+00 0.  1.
    9000010    2    1    2  501    0  0.13730088839E+02  0.42924313720E+02  0.49703237333E+03  0.11125272303E+04  0.99430611279E+03 0.  0.
        -13    1    3    3    0    0 -0.99654144937E+02 -0.45422571105E+03  0.34942029625E+03  0.58167559668E+03  0.10566000000E+00 0.  1.
          4    1    3    3  501    0  0.11338423378E+03  0.49715002477E+03  0.14761207708E+03  0.53085163360E+03  0.00000000000E+00 0.  1.
         13    1    1    2    0    0 -0.13730088839E+02 -0.42924313720E+02 -0.20413976734E+03  0.20905517889E+03  0.10566000000E+00 0. -1.
<mgrwt>
<rscale>  1 0.45913317E+03</rscale>
<asrwt>0</asrwt>
<pdfrwt beam="1">  1       21 0.12419039E+00 0.99532691E+03</pdfrwt>
<pdfrwt beam="2">  1        4 0.79129985E-01 0.99532691E+03</pdfrwt>
<totfact> 0.25388930E+01</totfact>
</mgrwt>
</event>
<event>
 6    1  0.1353269E-005  0.1000913E+04  0.7818608E-02  0.9821944E-01
          4   -1    0    0  502    0 -0.00000000000E+00  0.00000000000E+00  0.24823280373E+03  0.24823280373E+03  0.00000000000E+00 0.  1.
         21   -1    0    0  501  502  0.00000000000E+00 -0.00000000000E+00 -0.14427097075E+04  0.14427097075E+04  0.00000000000E+00 0.  1.
    9000010    2    1    2  501    0  0.64059634863E+02 -0.15681479427E+03 -0.11303728755E+04  0.15098241684E+04  0.98647436116E+03 0.  0.
        -13    1    3    3    0    0 -0.27946294285E+03 -0.21162619993E+03 -0.25493077280E+02  0.35147559385E+03  0.10566000000E+00 0.  1.
          4    1    3    3  501    0  0.34352257771E+03  0.54811405665E+02 -0.11048797982E+04  0.11583485745E+04  0.00000000000E+00 0.  1.
         13    1    1    2    0    0 -0.64059634863E+02  0.15681479427E+03 -0.64104028311E+02  0.18111834289E+03  0.10566000000E+00 0. -1.
<mgrwt>
<rscale>  1 0.64198078E+03</rscale>
<asrwt>0</asrwt>
<pdfrwt beam="2">  1       21 0.22195534E+00 0.10009127E+04</pdfrwt>
<pdfrwt beam="1">  1        4 0.38189663E-01 0.10009127E+04</pdfrwt>
<totfact> 0.22148546E+01</totfact>
</mgrwt>
</event>
<event>
 6    1  0.1353269E-005  0.1196366E+04  0.7818608E-02  0.9278156E-01
         21   -1    0    0  501  502  0.00000000000E+00  0.00000000000E+00  0.62541136052E+03  0.62541136052E+03  0.00000000000E+00 0. -1.
          4   -1    0    0  502    0 -0.00000000000E+00 -0.00000000000E+00 -0.14150593037E+04  0.14150593037E+04  0.00000000000E+00 0.  1.
    9000010    2    1    2  501    0  0.64104585745E+03 -0.12268608464E+03 -0.68752731290E+03  0.13798495164E+04  0.10026461066E+04 0.  0.
        -13    1    3    3    0    0  0.19455121341E+03 -0.23333694544E+03 -0.84158117333E+03  0.89473749625E+03  0.10566000000E+00 0.  1.
          4    1    3    3  501    0  0.44649464405E+03  0.11065086080E+03  0.15405386043E+03  0.48511202013E+03  0.00000000000E+00 0.  1.
         13    1    1    2    0    0 -0.64104585745E+03  0.12268608464E+03 -0.10212063033E+03  0.66062114788E+03  0.10566000000E+00 0. -1.
<mgrwt>
<rscale>  1 0.10281895E+04</rscale>
<asrwt>0</asrwt>
<pdfrwt beam="1">  1       21 0.96217134E-01 0.11963657E+04</pdfrwt>
<pdfrwt beam="2">  1        4 0.21770143E+00 0.11963657E+04</pdfrwt>
<totfact> 0.32955501E+00</totfact>
</mgrwt>
</event>
<event>
 6    1  0.1353269E-005  0.1046426E+04  0.7818608E-02  0.9610400E-01
         21   -1    0    0  501  502  0.00000000000E+00  0.00000000000E+00  0.77129702344E+03  0.77129702344E+03  0.00000000000E+00 0.  1.
          4   -1    0    0  502    0 -0.00000000000E+00 -0.00000000000E+00 -0.58933107859E+03  0.58933107859E+03  0.00000000000E+00 0.  1.
    9000010    2    1    2  501    0 -0.27101349848E+03 -0.13014872917E+03  0.11604236577E+03  0.10528409394E+04  0.10023079392E+04 0.  0.
        -13    1    3    3    0    0 -0.45527853636E+02  0.18464699041E+03 -0.37918255041E+03  0.42420126618E+03  0.10566000000E+00 0.  1.
          4    1    3    3  501    0 -0.22548564484E+03 -0.31479571958E+03  0.49522491618E+03  0.62863967319E+03  0.00000000000E+00 0.  1.
         13    1    1    2    0    0  0.27101349848E+03  0.13014872917E+03  0.65923579080E+02  0.30778716267E+03  0.10566000000E+00 0. -1.
<mgrwt>
<rscale>  1 0.76611652E+03</rscale>
<asrwt>0</asrwt>
<pdfrwt beam="1">  1       21 0.11866108E+00 0.10464264E+04</pdfrwt>
<pdfrwt beam="2">  1        4 0.90666320E-01 0.10464264E+04</pdfrwt>
<totfact> 0.20736831E+01</totfact>
</mgrwt>
</event>
<event>
 6    1  0.1353269E-005  0.9894364E+03  0.7818608E-02  0.9790724E-01
         21   -1    0    0  501  502  0.00000000000E+00  0.00000000000E+00  0.80559290826E+03  0.80559290826E+03  0.00000000000E+00 0.  1.
          4   -1    0    0  502    0 -0.00000000000E+00 -0.00000000000E+00 -0.54152824409E+03  0.54152824409E+03  0.00000000000E+00 0.  1.
    9000010    2    1    2  501    0  0.18522431977E+03 -0.58573425382E+02  0.44200833277E+03  0.10836769360E+04  0.97017804576E+03 0.  0.
        -13    1    3    3    0    0  0.12534877599E+03 -0.43015319460E+03  0.53316142950E+03  0.69642315265E+03  0.10566000000E+00 0.  1.
          4    1    3    3  501    0  0.59875543779E+02  0.37157976922E+03 -0.91153096734E+02  0.38725378330E+03  0.00000000000E+00 0.  1.
         13    1    1    2    0    0 -0.18522431977E+03  0.58573425382E+02 -0.17794366860E+03  0.26344421640E+03  0.10566000000E+00 0. -1.
<mgrwt>
<rscale>  1 0.65862706E+03</rscale>
<asrwt>0</asrwt>
<pdfrwt beam="1">  1       21 0.12393737E+00 0.98943637E+03</pdfrwt>
<pdfrwt beam="2">  1        4 0.83312037E-01 0.98943637E+03</pdfrwt>
<totfact> 0.22682841E+01</totfact>
</mgrwt>
</event>
<event>
 6    1  0.1353269E-005  0.9216631E+03  0.7818608E-02  0.1021088E+00
          4   -1    0    0  502    0 -0.00000000000E+00  0.00000000000E+00  0.25966475950E+03  0.25966475950E+03  0.00000000000E+00 0.  1.
         21   -1    0    0  501  502  0.00000000000E+00 -0.00000000000E+00 -0.14513838271E+04  0.14513838271E+04  0.00000000000E+00 0.  1.
    9000010    2    1    2  501    0  0.33213239670E+02 -0.54603339803E+02 -0.12950597178E+04  0.15895416108E+04  0.91944451487E+03 0.  0.
        -13    1    3    3    0    0  0.12010054078E+03  0.34054777771E+03 -0.18026666783E+03  0.40360006379E+03  0.10566000000E+00 0.  1.
          4    1    3    3  501    0 -0.86887301105E+02 -0.39515111752E+03 -0.11147930499E+04  0.11859415470E+04  0.00000000000E+00 0.  1.
         13    1    1    2    0    0 -0.33213239670E+02  0.54603339803E+02  0.10334065020E+03  0.12150697575E+03  0.10566000000E+00 0. -1.
<mgrwt>
<rscale>  1 0.47295909E+03</rscale>
<asrwt>0</asrwt>
<pdfrwt beam="2">  1       21 0.22328981E+00 0.92166309E+03</pdfrwt>
<pdfrwt beam="1">  1        4 0.39948425E-01 0.92166309E+03</pdfrwt>
<totfact> 0.20025731E+01</totfact>
</mgrwt>
</event>
<event>
 6    1  0.1353269E-005  0.1135392E+04  0.7818608E-02  0.9391806E-01
          4   -1    0    0  502    0 -0.00000000000E+00  0.00000000000E+00  0.61042559790E+03  0.61042559790E+03  0.00000000000E+00 0.  1.
         21   -1    0    0  501  502  0.00000000000E+00 -0.00000000000E+00 -0.14828161835E+04  0.14828161835E+04  0.00000000000E+00 0.  1.
    9000010    2    1    2  501    0  0.10918882263E+03 -0.49375239941E+03 -0.10605711835E+04  0.15536812384E+04  0.10165630941E+04 0.  0.
        -13    1    3    3    0    0 -0.16752026514E+02 -0.14965633899E+03 -0.11634007303E+04  0.11731065257E+04  0.10566000000E+00 0.  1.
          4    1    3    3  501    0  0.12594084915E+03 -0.34409606042E+03  0.10282954674E+03  0.38057471272E+03  0.00000000000E+00 0.  1.
         13    1    1    2    0    0 -0.10918882263E+03  0.49375239941E+03  0.18818059797E+03  0.53956054297E+03  0.10566000000E+00 0. -1.
<mgrwt>
<rscale>  1 0.92753115E+03</rscale>
<asrwt>0</asrwt>
<pdfrwt beam="2">  1       21 0.22812557E+00 0.11353916E+04</pdfrwt>
<pdfrwt beam="1">  1        4 0.93911631E-01 0.11353916E+04</pdfrwt>
<totfact> 0.27696060E+00</totfact>
</mgrwt>
</event>
<event>
 6    1  0.1353269E-005  0.1013175E+04  0.7818608E-02  0.9991913E-01
         21   -1    0    0  501  502  0.00000000000E+00  0.00000000000E+00  0.26577410029E+03  0.26577410029E+03  0.00000000000E+00 0.  1.
          4   -1    0    0  502    0 -0.00000000000E+00 -0.00000000000E+00 -0.12882537979E+04  0.12882537979E+04  0.00000000000E+00 0.  1.
    9000010    2    1    2  501    0  0.90177614309E+02  0.28587067325E+02 -0.73586922503E+03  0.12522087525E+04  0.10087487403E+04 0.  0.
        -13    1    3    3    0    0 -0.43636324478E+03  0.16251056630E+03 -0.28288254736E+03  0.54483494043E+03  0.10566000000E+00 0.  1.
          4    1    3    3  501    0  0.52654085909E+03 -0.13392349898E+03 -0.45298667767E+03  0.70737381208E+03  0.00000000000E+00 0.  1.
         13    1    1    2    0    0 -0.90177614309E+02 -0.28587067325E+02 -0.28661047254E+03  0.30181914564E+03  0.10566000000E+00 0. -1.
<mgrwt>
<rscale>  1 0.56006254E+03</rscale>
<asrwt>0</asrwt>
<pdfrwt beam="1">  1       21 0.40888323E-01 0.10131748E+04</pdfrwt>
<pdfrwt beam="2">  1        4 0.19819289E+00 0.10131748E+04</pdfrwt>
<totfact> 0.31171198E+01</totfact>
</mgrwt>
</event>
<event>
 6    1  0.1353269E-005  0.8077249E+03  0.7818608E-02  0.9801905E-01
         21   -1    0    0  501  502  0.00000000000E+00  0.00000000000E+00  0.32923848124E+03  0.32923848124E+03  0.00000000000E+00 0.  1.
          4   -1    0    0  502    0 -0.00000000000E+00 -0.00000000000E+00 -0.15262058998E+04  0.15262058998E+04  0.00000000000E+00 0.  1.
    9000010    2    1    2  501    0  0.33650109943E+03  0.72385329619E+02 -0.24638887595E+03  0.84446851451E+03  0.73071674947E+03 0.  0.
        -13    1    3    3    0    0 -0.38848065785E+02  0.33431174101E+03 -0.18091929900E+03  0.38210642013E+03  0.10566000000E+00 0.  1.
          4    1    3    3  501    0  0.37534916522E+03 -0.26192641139E+03 -0.65469576946E+02  0.46236209438E+03  0.00000000000E+00 0.  1.
         13    1    1    2    0    0 -0.33650109943E+03 -0.72385329619E+02 -0.95057854265E+03  0.10109758666E+04  0.10566000000E+00 0. -1.
<mgrwt>
<rscale>  1 0.65260422E+03</rscale>
<asrwt>0</asrwt>
<pdfrwt beam="1">  1       21 0.50652074E-01 0.80772495E+03</pdfrwt>
<pdfrwt beam="2">  1        4 0.23480091E+00 0.80772495E+03</pdfrwt>
<totfact> 0.11790590E+01</totfact>
</mgrwt>
</event>
<event>
 6    1  0.1353269E-005  0.1006058E+04  0.7818608E-02  0.9782999E-01
         21   -1    0    0  501  502  0.00000000000E+00  0.00000000000E+00  0.12841905314E+04  0.12841905314E+04  0.00000000000E+00 0.  1.
          4   -1    0    0  502    0 -0.00000000000E+00 -0.00000000000E+00 -0.49524776197E+03  0.49524776197E+03  0.00000000000E+00 0.  1.
    9000010    2    1    2  501    0 -0.10751058842E+02  0.18925111454E+03  0.10517200960E+04  0.14554267131E+04  0.98803855547E+03 0.  0.
        -13    1    3    3    0    0  0.32344864526E+03 -0.27675420738E+03  0.53339291406E+03  0.68243675850E+03  0.10566000000E+00 0.  1.
          4    1    3    3  501    0 -0.33419970411E+03  0.46600532192E+03  0.51832718198E+03  0.77298995457E+03  0.00000000000E+00 0.  1.
         13    1    1    2    0    0  0.10751058842E+02 -0.18925111454E+03 -0.26277732661E+03  0.32401158030E+03  0.10566000000E+00 0. -1.
<mgrwt>
<rscale>  1 0.66282923E+03</rscale>
<asrwt>0</asrwt>
<pdfrwt beam="1">  1       21 0.19756777E+00 0.10060575E+04</pdfrwt>
<pdfrwt beam="2">  1        4 0.76191964E-01 0.10060575E+04</pdfrwt>
<totfact> 0.73596053E+00</totfact>
</mgrwt>
</event>
<event>
 6    1  0.1353269E-005  0.9986640E+03  0.7818608E-02  0.9893007E-01
          4   -1    0    0  502    0 -0.00000000000E+00  0.00000000000E+00  0.46765215287E+03  0.46765215287E+03  0.00000000000E+00 0.  1.
         21   -1    0    0  501  502  0.00000000000E+00 -0.00000000000E+00 -0.70029022337E+03  0.70029022337E+03  0.00000000000E+00 0.  1.
    9000010    2    1    2  501    0  0.16240127406E+02  0.13443915518E+03 -0.25496579511E+03  0.10306974614E+04  0.98944028227E+03 0.  0.
        -13    1    3    3    0    0 -0.34365054288E+03  0.79035364713E+02  0.23240602468E+03  0.42232079746E+03  0.10566000000E+00 0.  1.
          4    1    3    3  501    0  0.35989067029E+03  0.55403790468E+02 -0.48737181979E+03  0.60837666399E+03  0.00000000000E+00 0.  1.
         13    1    1    2    0    0 -0.16240127406E+02 -0.13443915518E+03  0.22327724613E+02  0.13724491479E+03  0.10566000000E+00 0. -1.
<mgrwt>
<rscale>  1 0.60601373E+03</rscale>
<asrwt>0</asrwt>
<pdfrwt beam="2">  1       21 0.10773696E+00 0.99866396E+03</pdfrwt>
<pdfrwt beam="1">  1        4 0.71946486E-01 0.99866396E+03</pdfrwt>
<totfact> 0.45381347E+01</totfact>
</mgrwt>
</event>
<event>
 6    1  0.1353269E-005  0.8857647E+03  0.7818608E-02  0.1026512E+00
          4   -1    0    0  502    0 -0.00000000000E+00  0.00000000000E+00  0.14606581879E+04  0.14606581879E+04  0.00000000000E+00 0.  1.
         21   -1    0    0  501  502  0.00000000000E+00 -0.00000000000E+00 -0.15400207048E+03  0.15400207048E+03  0.00000000000E+00 0.  1.
    9000010    2    1    2  501    0  0.60366135461E+02  0.99221504218E+01  0.11969441258E+04  0.14890447671E+04  0.88364956783E+03 0.  0.
        -13    1    3    3    0    0  0.43097724461E+03  0.13034067264E+03  0.40146158164E+03  0.60324247945E+03  0.10566000000E+00 0.  1.
          4    1    3    3  501    0 -0.37061110915E+03 -0.12041852222E+03  0.79548254416E+03  0.88580228764E+03  0.00000000000E+00 0.  1.
         13    1    1    2    0    0 -0.60366135461E+02 -0.99221504218E+01  0.10971199161E+03  0.12561549127E+03  0.10566000000E+00 0. -1.
<mgrwt>
<rscale>  1 0.45408216E+03</rscale>
<asrwt>0</asrwt>
<pdfrwt beam="2">  1       21 0.23692627E-01 0.88576469E+03</pdfrwt>
<pdfrwt beam="1">  1        4 0.22471663E+00 0.88576469E+03</pdfrwt>
<totfact> 0.64218741E+01</totfact>
</mgrwt>
</event>
<event>
 6    1  0.1353269E-005  0.1010605E+04  0.7818608E-02  0.9624705E-01
          4   -1    0    0  502    0 -0.00000000000E+00  0.00000000000E+00  0.44858116115E+03  0.44858116115E+03  0.00000000000E+00 0.  1.
         21   -1    0    0  501  502  0.00000000000E+00 -0.00000000000E+00 -0.13691996476E+04  0.13691996476E+04  0.00000000000E+00 0. -1.
    9000010    2    1    2  501    0  0.20749009933E+03 -0.24079562165E+03 -0.20004348889E+03  0.10302130269E+04  0.95931580339E+03 0.  0.
        -13    1    3    3    0    0 -0.11457643227E+03  0.32612673528E+03  0.81454116888E+01  0.34576403108E+03  0.10566000000E+00 0.  1.
          4    1    3    3  501    0  0.32206653160E+03 -0.56692235693E+03 -0.20818890058E+03  0.68444899582E+03  0.00000000000E+00 0.  1.
         13    1    1    2    0    0 -0.20749009933E+03  0.24079562165E+03 -0.72057499756E+03  0.78756778184E+03  0.10566000000E+00 0. -1.
<mgrwt>
<rscale>  1 0.75682382E+03</rscale>
<asrwt>0</asrwt>
<pdfrwt beam="2">  1       21 0.21064610E+00 0.10106045E+04</pdfrwt>
<pdfrwt beam="1">  1        4 0.69012487E-01 0.10106045E+04</pdfrwt>
<totfact> 0.74876693E+00</totfact>
</mgrwt>
</event>
<event>
 6    1  0.1353269E-005  0.7885721E+03  0.7818608E-02  0.1022265E+00
          4   -1    0    0  502    0 -0.00000000000E+00  0.00000000000E+00  0.28966377878E+03  0.28966377878E+03  0.00000000000E+00 0.  1.
         21   -1    0    0  501  502  0.00000000000E+00 -0.00000000000E+00 -0.12129233858E+04  0.12129233858E+04  0.00000000000E+00 0.  1.
    9000010    2    1    2  501    0  0.32600196119E+02 -0.92928457500E+02 -0.10679633632E+04  0.13275509991E+04  0.78239851688E+03 0.  0.
        -13    1    3    3    0    0 -0.31267673114E+03  0.16837551587E+03 -0.50319782814E+03  0.61589375540E+03  0.10566000000E+00 0.  1.
          4    1    3    3  501    0  0.34527692726E+03 -0.26130397337E+03 -0.56476553503E+03  0.71165724373E+03  0.00000000000E+00 0.  1.
         13    1    1    2    0    0 -0.32600196119E+02  0.92928457500E+02  0.14470375616E+03  0.17503616544E+03  0.10566000000E+00 0. -1.
<mgrwt>
<rscale>  1 0.46877994E+03</rscale>
<asrwt>0</asrwt>
<pdfrwt beam="2">  1       21 0.18660360E+00 0.78857207E+03</pdfrwt>
<pdfrwt beam="1">  1        4 0.44563658E-01 0.78857207E+03</pdfrwt>
<totfact> 0.28918275E+01</totfact>
</mgrwt>
</event>
<event>
 6    1  0.1353269E-005  0.1043988E+04  0.7818608E-02  0.9583806E-01
         21   -1    0    0  501  502  0.00000000000E+00  0.00000000000E+00  0.86824946576E+03  0.86824946576E+03  0.00000000000E+00 0.  1.
          4   -1    0    0  502    0 -0.00000000000E+00 -0.00000000000E+00 -0.58609491401E+03  0.58609491401E+03  0.00000000000E+00 0.  1.
    9000010    2    1    2  501    0  0.32561515067E+03 -0.62963639453E+02  0.37606819281E+03  0.11096569425E+04  0.98990989400E+03 0.  0.
        -13    1    3    3    0    0  0.85454470757E+02 -0.45245425820E+03  0.45268101333E+03  0.64570692526E+03  0.10566000000E+00 0.  1.
          4    1    3    3  501    0  0.24016067991E+03  0.38949061874E+03 -0.76612820521E+02  0.46395001728E+03  0.00000000000E+00 0.  1.
         13    1    1    2    0    0 -0.32561515067E+03  0.62963639453E+02 -0.93913641058E+02  0.34468743722E+03  0.10566000000E+00 0. -1.
<mgrwt>
<rscale>  1 0.78377365E+03</rscale>
<asrwt>0</asrwt>
<pdfrwt beam="1">  1       21 0.13357684E+00 0.10439881E+04</pdfrwt>
<pdfrwt beam="2">  1        4 0.90168448E-01 0.10439881E+04</pdfrwt>
<totfact> 0.15375725E+01</totfact>
</mgrwt>
</event>
<event>
 6    1  0.1353269E-005  0.1019006E+04  0.7818608E-02  0.9737264E-01
          4   -1    0    0  502    0 -0.00000000000E+00  0.00000000000E+00  0.18948223649E+03  0.18948223649E+03  0.00000000000E+00 0.  1.
         21   -1    0    0  501  502  0.00000000000E+00 -0.00000000000E+00 -0.22876956580E+04  0.22876956580E+04  0.00000000000E+00 0.  1.
    9000010    2    1    2  501    0 -0.37474928141E+02 -0.20891777440E+03 -0.19971498702E+04  0.22420931028E+04  0.99665584383E+03 0.  0.
        -13    1    3    3    0    0  0.29418218902E+03  0.29419445783E+03 -0.78621068158E+03  0.88950592261E+03  0.10566000000E+00 0.  1.
          4    1    3    3  501    0 -0.33165711717E+03 -0.50311223223E+03 -0.12109391886E+04  0.13525871802E+04  0.00000000000E+00 0.  1.
         13    1    1    2    0    0  0.37474928141E+02  0.20891777440E+03 -0.10106355132E+03  0.23508479166E+03  0.10566000000E+00 0. -1.
<mgrwt>
<rscale>  1 0.68840772E+03</rscale>
<asrwt>0</asrwt>
<pdfrwt beam="2">  1       21 0.35195320E+00 0.10190063E+04</pdfrwt>
<pdfrwt beam="1">  1        4 0.29151112E-01 0.10190063E+04</pdfrwt>
<totfact> 0.57250664E+00</totfact>
</mgrwt>
</event>
<event>
 6    1  0.1353269E-005  0.9972178E+03  0.7818608E-02  0.1000178E+00
          4   -1    0    0  502    0 -0.00000000000E+00  0.00000000000E+00  0.14068835928E+04  0.14068835928E+04  0.00000000000E+00 0.  1.
         21   -1    0    0  501  502  0.00000000000E+00 -0.00000000000E+00 -0.23641234096E+03  0.23641234096E+03  0.00000000000E+00 0.  1.
    9000010    2    1    2  501    0  0.62573185803E+02 -0.73035181287E+02  0.85526306161E+03  0.13137420601E+04  0.99256926945E+03 0.  0.
        -13    1    3    3    0    0 -0.22033194673E+03 -0.42408258837E+03  0.67753092308E+03  0.82912023941E+03  0.10566000000E+00 0.  1.
          4    1    3    3  501    0  0.28290513254E+03  0.35104740708E+03  0.17773213853E+03  0.48462182070E+03  0.00000000000E+00 0.  1.
         13    1    1    2    0    0 -0.62573185803E+02  0.73035181287E+02  0.31520819021E+03  0.32955387363E+03  0.10566000000E+00 0. -1.
<mgrwt>
<rscale>  1 0.55572201E+03</rscale>
<asrwt>0</asrwt>
<pdfrwt beam="2">  1       21 0.36371130E-01 0.99721778E+03</pdfrwt>
<pdfrwt beam="1">  1        4 0.21644362E+00 0.99721778E+03</pdfrwt>
<totfact> 0.30285617E+01</totfact>
</mgrwt>
</event>
<event>
 6    1  0.1353269E-005  0.1031919E+04  0.7818608E-02  0.9801914E-01
         21   -1    0    0  501  502  0.00000000000E+00  0.00000000000E+00  0.25281511658E+04  0.25281511658E+04  0.00000000000E+00 0.  1.
          4   -1    0    0  502    0 -0.00000000000E+00 -0.00000000000E+00 -0.14187430611E+03  0.14187430611E+03  0.00000000000E+00 0.  1.
    9000010    2    1    2  501    0  0.15938701061E+03  0.42912774824E+02  0.20900220407E+04  0.23308903155E+04  0.10186323217E+04 0.  0.
        -13    1    3    3    0    0 -0.20732632352E+03 -0.78322606938E+02  0.18765434569E+04  0.18895856668E+04  0.10566000000E+00 0.  1.
          4    1    3    3  501    0  0.36671333413E+03  0.12123538176E+03  0.21347858376E+03  0.44130464867E+03  0.00000000000E+00 0.  1.
         13    1    1    2    0    0 -0.15938701061E+03 -0.42912774824E+02  0.29625481895E+03  0.33913515640E+03  0.10566000000E+00 0. -1.
<mgrwt>
<rscale>  1 0.65259935E+03</rscale>
<asrwt>0</asrwt>
<pdfrwt beam="1">  1       21 0.38894630E+00 0.10319193E+04</pdfrwt>
<pdfrwt beam="2">  1        4 0.21826818E-01 0.10319193E+04</pdfrwt>
<totfact> 0.57570929E+00</totfact>
</mgrwt>
</event>
<event>
 6    1  0.1353269E-005  0.1031100E+04  0.7818608E-02  0.9749407E-01
          4   -1    0    0  502    0 -0.00000000000E+00  0.00000000000E+00  0.12282689642E+04  0.12282689642E+04  0.00000000000E+00 0.  1.
         21   -1    0    0  501  502  0.00000000000E+00 -0.00000000000E+00 -0.31017148709E+03  0.31017148709E+03  0.00000000000E+00 0.  1.
    9000010    2    1    2  501    0  0.11219147122E+02 -0.19644895592E+03  0.70913153728E+03  0.12514128625E+04  0.10121504600E+04 0.  0.
        -13    1    3    3    0    0 -0.16150490294E+03  0.32044821630E+03  0.59463636193E+03  0.69452379880E+03  0.10566000000E+00 0.  1.
          4    1    3    3  501    0  0.17272405006E+03 -0.51689717222E+03  0.11449517535E+03  0.55688906372E+03  0.00000000000E+00 0.  1.
         13    1    1    2    0    0 -0.11219147122E+02  0.19644895592E+03  0.20896593986E+03  0.28702758879E+03  0.10566000000E+00 0. -1.
<mgrwt>
<rscale>  1 0.68149820E+03</rscale>
<asrwt>0</asrwt>
<pdfrwt beam="2">  1       21 0.47718691E-01 0.10310997E+04</pdfrwt>
<pdfrwt beam="1">  1        4 0.18896445E+00 0.10310997E+04</pdfrwt>
<totfact> 0.25856509E+01</totfact>
</mgrwt>
</event>
<event>
 6    1  0.1353269E-005  0.9978489E+03  0.7818608E-02  0.9961537E-01
          4   -1    0    0  502    0 -0.00000000000E+00  0.00000000000E+00  0.41960406404E+03  0.41960406404E+03  0.00000000000E+00 0.  1.
         21   -1    0    0  501  502  0.00000000000E+00 -0.00000000000E+00 -0.76860205201E+03  0.76860205201E+03  0.00000000000E+00 0.  1.
    9000010    2    1    2  501    0  0.10275299494E+03 -0.36446902580E+02 -0.39051536562E+03  0.10715431035E+04  0.99187490002E+03 0.  0.
        -13    1    3    3    0    0 -0.33097971997E+03  0.20886838733E+03 -0.41782351997E+03  0.57249461418E+03  0.10566000000E+00 0.  1.
          4    1    3    3  501    0  0.43373271491E+03 -0.24531528991E+03  0.27308154348E+02  0.49904848937E+03  0.00000000000E+00 0.  1.
         13    1    1    2    0    0 -0.10275299494E+03  0.36446902580E+02  0.41517377648E+02  0.11666301251E+03  0.10566000000E+00 0. -1.
<mgrwt>
<rscale>  1 0.57369442E+03</rscale>
<asrwt>0</asrwt>
<pdfrwt beam="2">  1       21 0.11824647E+00 0.99784887E+03</pdfrwt>
<pdfrwt beam="1">  1        4 0.64554471E-01 0.99784887E+03</pdfrwt>
<totfact> 0.45596619E+01</totfact>
</mgrwt>
</event>
<event>
 6    1  0.1353269E-005  0.1021710E+04  0.7818608E-02  0.9731829E-01
         21   -1    0    0  501  502  0.00000000000E+00  0.00000000000E+00  0.17267843585E+04  0.17267843585E+04  0.00000000000E+00 0.  1.
          4   -1    0    0  502    0 -0.00000000000E+00 -0.00000000000E+00 -0.22896993263E+03  0.22896993263E+03  0.00000000000E+00 0.  1.
    9000010    2    1    2  501    0  0.21112543889E+03 -0.37423019824E+02  0.13593825585E+04  0.17005331587E+04  0.99895828256E+03 0.  0.
        -13    1    3    3    0    0  0.12698210724E+03 -0.43301029225E+03  0.24164080842E+03  0.51187172242E+03  0.10566000000E+00 0.  1.
          4    1    3    3  501    0  0.84143331643E+02  0.39558727242E+03  0.11177417500E+04  0.11886614363E+04  0.00000000000E+00 0.  1.
         13    1    1    2    0    0 -0.21112543889E+03  0.37423019824E+02  0.13843186743E+03  0.25522113244E+03  0.10566000000E+00 0. -1.
<mgrwt>
<rscale>  1 0.69152902E+03</rscale>
<asrwt>0</asrwt>
<pdfrwt beam="1">  1       21 0.26565912E+00 0.10217104E+04</pdfrwt>
<pdfrwt beam="2">  1        4 0.35226145E-01 0.10217104E+04</pdfrwt>
<totfact> 0.13633007E+01</totfact>
</mgrwt>
</event>
<event>
 6    1  0.1353269E-005  0.9913940E+03  0.7818608E-02  0.9900896E-01
          4   -1    0    0  502    0 -0.00000000000E+00  0.00000000000E+00  0.27869391272E+03  0.27869391272E+03  0.00000000000E+00 0.  1.
         21   -1    0    0  501  502  0.00000000000E+00 -0.00000000000E+00 -0.12579587524E+04  0.12579587524E+04  0.00000000000E+00 0.  1.
    9000010    2    1    2  501    0 -0.12184941389E+03 -0.57995091580E+02 -0.99028174139E+03  0.14012566032E+04  0.98216670185E+03 0.  0.
        -13    1    3    3    0    0  0.42309608391E+03  0.47653630947E+02 -0.53221648087E+03  0.68156845469E+03  0.10566000000E+00 0.  1.
          4    1    3    3  501    0 -0.54494549779E+03 -0.10564872253E+03 -0.45806526052E+03  0.71968814846E+03  0.00000000000E+00 0.  1.
         13    1    1    2    0    0  0.12184941389E+03  0.57995091580E+02  0.11016901700E+02  0.13539606198E+03  0.10566000000E+00 0. -1.
<mgrwt>
<rscale>  1 0.60217902E+03</rscale>
<asrwt>0</asrwt>
<pdfrwt beam="2">  1       21 0.19353212E+00 0.99139404E+03</pdfrwt>
<pdfrwt beam="1">  1        4 0.42875986E-01 0.99139404E+03</pdfrwt>
<totfact> 0.27266773E+01</totfact>
</mgrwt>
</event>
<event>
 6    1  0.1353269E-005  0.1025769E+04  0.7818608E-02  0.9681456E-01
         21   -1    0    0  501  502  0.00000000000E+00  0.00000000000E+00  0.92856245777E+03  0.92856245777E+03  0.00000000000E+00 0.  1.
          4   -1    0    0  502    0 -0.00000000000E+00 -0.00000000000E+00 -0.61667624263E+03  0.61667624263E+03  0.00000000000E+00 0.  1.
    9000010    2    1    2  501    0  0.13477694712E+03  0.21152801651E+03  0.57975925447E+03  0.11782715307E+04  0.99463263558E+03 0.  0.
        -13    1    3    3    0    0 -0.42471881773E+03  0.11485560202E+03  0.36344617337E+03  0.57067592866E+03  0.10566000000E+00 0.  1.
          4    1    3    3  501    0  0.55949576485E+03  0.96672414493E+02  0.21631308110E+03  0.60759560208E+03  0.00000000000E+00 0.  1.
         13    1    1    2    0    0 -0.13477694712E+03 -0.21152801651E+03 -0.26787303933E+03  0.36696716966E+03  0.10566000000E+00 0. -1.
<mgrwt>
<rscale>  1 0.72131734E+03</rscale>
<asrwt>0</asrwt>
<pdfrwt beam="1">  1       21 0.14285576E+00 0.10257695E+04</pdfrwt>
<pdfrwt beam="2">  1        4 0.94873268E-01 0.10257695E+04</pdfrwt>
<totfact> 0.11383451E+01</totfact>
</mgrwt>
</event>
<event>
 6    1  0.1353269E-005  0.9872844E+03  0.7818608E-02  0.9875926E-01
         21   -1    0    0  501  502  0.00000000000E+00  0.00000000000E+00  0.16594865434E+04  0.16594865434E+04  0.00000000000E+00 0.  1.
          4   -1    0    0  502    0 -0.00000000000E+00 -0.00000000000E+00 -0.19538984687E+03  0.19538984687E+03  0.00000000000E+00 0.  1.
    9000010    2    1    2  501    0  0.28671972257E+02  0.14529401691E+03  0.12209009484E+04  0.15701368313E+04  0.97611377923E+03 0.  0.
        -13    1    3    3    0    0 -0.30054032240E+03 -0.21877218349E+03  0.92524891338E+03  0.99713154425E+03  0.10566000000E+00 0.  1.
          4    1    3    3  501    0  0.32921229466E+03  0.36406620039E+03  0.29565203498E+03  0.57300528707E+03  0.00000000000E+00 0.  1.
         13    1    1    2    0    0 -0.28671972257E+02 -0.14529401691E+03  0.24319574821E+03  0.28473955899E+03  0.10566000000E+00 0. -1.
<mgrwt>
<rscale>  1 0.61442326E+03</rscale>
<asrwt>0</asrwt>
<pdfrwt beam="1">  1       21 0.25530561E+00 0.98728443E+03</pdfrwt>
<pdfrwt beam="2">  1        4 0.30059978E-01 0.98728443E+03</pdfrwt>
<totfact> 0.21795162E+01</totfact>
</mgrwt>
</event>
<event>
 6    1  0.1353269E-005  0.1048124E+04  0.7818608E-02  0.9640469E-01
         21   -1    0    0  501  502  0.00000000000E+00  0.00000000000E+00  0.15519702958E+04  0.15519702958E+04  0.00000000000E+00 0.  1.
          4   -1    0    0  502    0 -0.00000000000E+00 -0.00000000000E+00 -0.36333121777E+03  0.36333121777E+03  0.00000000000E+00 0.  1.
    9000010    2    1    2  501    0 -0.10321438558E+03  0.24955443978E+03  0.12570792066E+04  0.16367073819E+04  0.10127350564E+04 0.  0.
        -13    1    3    3    0    0  0.23158471627E+03  0.36113608102E+03  0.12061157877E+04  0.12801429820E+04  0.10566000000E+00 0.  1.
          4    1    3    3  501    0 -0.33479910185E+03 -0.11158164123E+03  0.50963418961E+02  0.35656439998E+03  0.00000000000E+00 0.  1.
         13    1    1    2    0    0  0.10321438558E+03 -0.24955443978E+03 -0.68440128610E+02  0.27859413162E+03  0.10566000000E+00 0. -1.
<mgrwt>
<rscale>  1 0.74674634E+03</rscale>
<asrwt>0</asrwt>
<pdfrwt beam="1">  1       21 0.23876466E+00 0.10481235E+04</pdfrwt>
<pdfrwt beam="2">  1        4 0.55897111E-01 0.10481235E+04</pdfrwt>
<totfact> 0.77249303E+00</totfact>
</mgrwt>
</event>
<event>
 6    1  0.1353269E-005  0.1078951E+04  0.7818608E-02  0.9494417E-01
         21   -1    0    0  501  502  0.00000000000E+00  0.00000000000E+00  0.69710906366E+03  0.69710906366E+03  0.00000000000E+00 0.  1.
          4   -1    0    0  502    0 -0.00000000000E+00 -0.00000000000E+00 -0.99289226889E+03  0.99289226889E+03  0.00000000000E+00 0.  1.
    9000010    2    1    2  501    0 -0.22146619929E+03 -0.34467708750E+03  0.14450324462E+03  0.10885848869E+04  0.99814142089E+03 0.  0.
        -13    1    3    3    0    0 -0.17137038118E+03  0.26188624418E+03  0.32754078313E+03  0.45302890439E+03  0.10566000000E+00 0.  1.
          4    1    3    3  501    0 -0.50095818101E+02 -0.60656333168E+03 -0.18303753851E+03  0.63555598246E+03  0.00000000000E+00 0.  1.
         13    1    1    2    0    0  0.22146619929E+03  0.34467708750E+03 -0.44028644984E+03  0.60141644570E+03  0.10566000000E+00 0. -1.
<mgrwt>
<rscale>  1 0.84696684E+03</rscale>
<asrwt>0</asrwt>
<pdfrwt beam="1">  1       21 0.10724755E+00 0.10789513E+04</pdfrwt>
<pdfrwt beam="2">  1        4 0.15275266E+00 0.10789513E+04</pdfrwt>
<totfact> 0.72022300E+00</totfact>
</mgrwt>
</event>
<event>
 6    1  0.1353269E-005  0.1044112E+04  0.7818608E-02  0.9633140E-01
          4   -1    0    0  502    0 -0.00000000000E+00  0.00000000000E+00  0.31907726825E+03  0.31907726825E+03  0.00000000000E+00 0.  1.
         21   -1    0    0  501  502  0.00000000000E+00 -0.00000000000E+00 -0.19344434378E+04  0.19344434378E+04  0.00000000000E+00 0.  1.
    9000010    2    1    2  501    0  0.34578987552E+02  0.27792777566E+03 -0.16686843434E+04  0.19684200331E+04  0.10058481168E+04 0.  0.
        -13    1    3    3    0    0 -0.76561728343E+02 -0.25769689747E+03 -0.68649564419E+02  0.27745659673E+03  0.10566000000E+00 0.  1.
          4    1    3    3  501    0  0.11114071590E+03  0.53562467313E+03 -0.16000347790E+04  0.16909634364E+04  0.00000000000E+00 0.  1.
         13    1    1    2    0    0 -0.34578987552E+02 -0.27792777566E+03  0.53318173882E+02  0.28510067291E+03  0.10566000000E+00 0. -1.
<mgrwt>
<rscale>  1 0.75141045E+03</rscale>
<asrwt>0</asrwt>
<pdfrwt beam="2">  1       21 0.29760668E+00 0.10441121E+04</pdfrwt>
<pdfrwt beam="1">  1        4 0.49088811E-01 0.10441121E+04</pdfrwt>
<totfact> 0.43417109E+00</totfact>
</mgrwt>
</event>
<event>
 6    1  0.1353269E-005  0.1041313E+04  0.7818608E-02  0.9642009E-01
         21   -1    0    0  501  502  0.00000000000E+00  0.00000000000E+00  0.40083133533E+03  0.40083133533E+03  0.00000000000E+00 0.  1.
          4   -1    0    0  502    0 -0.00000000000E+00 -0.00000000000E+00 -0.10800384061E+04  0.10800384061E+04  0.00000000000E+00 0.  1.
    9000010    2    1    2  501    0 -0.27238877299E+03  0.29234802255E+02 -0.51854128733E+03  0.11632790891E+04  0.10046307059E+04 0.  0.
        -13    1    3    3    0    0  0.24207107550E+03 -0.70957313070E+02  0.16536882730E+03  0.30162925269E+03  0.10566000000E+00 0.  1.
          4    1    3    3  501    0 -0.51445984850E+03  0.10019211532E+03 -0.68391011463E+03  0.86164983641E+03  0.00000000000E+00 0.  1.
         13    1    1    2    0    0  0.27238877299E+03 -0.29234802255E+02 -0.16066578344E+03  0.31759065233E+03  0.10566000000E+00 0. -1.
<mgrwt>
<rscale>  1 0.74577033E+03</rscale>
<asrwt>0</asrwt>
<pdfrwt beam="1">  1       21 0.61666359E-01 0.10413132E+04</pdfrwt>
<pdfrwt beam="2">  1        4 0.16615976E+00 0.10413132E+04</pdfrwt>
<totfact> 0.21304312E+01</totfact>
</mgrwt>
</event>
<event>
 6    1  0.1353269E-005  0.1079259E+04  0.7818608E-02  0.9530720E-01
         21   -1    0    0  501  502  0.00000000000E+00  0.00000000000E+00  0.11607876675E+04  0.11607876675E+04  0.00000000000E+00 0.  1.
          4   -1    0    0  502    0 -0.00000000000E+00 -0.00000000000E+00 -0.46553627196E+03  0.46553627196E+03  0.00000000000E+00 0.  1.
    9000010    2    1    2  501    0 -0.35771822697E+03 -0.45800362640E+02  0.65737644003E+03  0.12637021991E+04  0.10172214415E+04 0.  0.
        -13    1    3    3    0    0  0.19249734819E+03 -0.79001028641E+02  0.68090013856E+03  0.71198413004E+03  0.10566000000E+00 0.  1.
          4    1    3    3  501    0 -0.55021557516E+03  0.33200666002E+02 -0.23523698527E+02  0.55171806909E+03  0.00000000000E+00 0.  1.
         13    1    1    2    0    0  0.35771822697E+03  0.45800362640E+02  0.37874955493E+02  0.36262174030E+03  0.10566000000E+00 0. -1.
<mgrwt>
<rscale>  1 0.82056343E+03</rscale>
<asrwt>0</asrwt>
<pdfrwt beam="1">  1       21 0.17858272E+00 0.10792588E+04</pdfrwt>
<pdfrwt beam="2">  1        4 0.71620966E-01 0.10792588E+04</pdfrwt>
<totfact> 0.11441176E+01</totfact>
</mgrwt>
</event>
<event>
 6    1  0.1353269E-005  0.1019174E+04  0.7818608E-02  0.9701015E-01
          4   -1    0    0  502    0 -0.00000000000E+00  0.00000000000E+00  0.50082785758E+03  0.50082785758E+03  0.00000000000E+00 0.  1.
         21   -1    0    0  501  502  0.00000000000E+00 -0.00000000000E+00 -0.79231869776E+03  0.79231869776E+03  0.00000000000E+00 0.  1.
    9000010    2    1    2  501    0 -0.22858532251E+03 -0.71320253892E+02 -0.25836549198E+03  0.10514129662E+04  0.99064558228E+03 0.  0.
        -13    1    3    3    0    0 -0.45651182916E+03  0.32130397987E+03 -0.81380823035E+02  0.56414727436E+03  0.10566000000E+00 0.  1.
          4    1    3    3  501    0  0.22792650665E+03 -0.39262423376E+03 -0.17698466895E+03  0.48726569181E+03  0.00000000000E+00 0.  1.
         13    1    1    2    0    0  0.22858532251E+03  0.71320253892E+02 -0.33125348197E+02  0.24173358918E+03  0.10566000000E+00 0. -1.
<mgrwt>
<rscale>  1 0.70956396E+03</rscale>
<asrwt>0</asrwt>
<pdfrwt beam="2">  1       21 0.12189518E+00 0.10191744E+04</pdfrwt>
<pdfrwt beam="1">  1        4 0.77050440E-01 0.10191744E+04</pdfrwt>
<totfact> 0.28269220E+01</totfact>
</mgrwt>
</event>
<event>
 6    1  0.1353269E-005  0.1170367E+04  0.7818608E-02  0.9319296E-01
         21   -1    0    0  501  502  0.00000000000E+00  0.00000000000E+00  0.50156108764E+03  0.50156108764E+03  0.00000000000E+00 0.  1.
          4   -1    0    0  502    0 -0.00000000000E+00 -0.00000000000E+00 -0.15650939933E+04  0.15650939933E+04  0.00000000000E+00 0.  1.
    9000010    2    1    2  501    0 -0.52321537070E+03  0.29332217579E+03 -0.74689281003E+03  0.13883828758E+04  0.10049706052E+04 0.  0.
        -13    1    3    3    0    0  0.36301968230E+02 -0.30853359768E+03 -0.37337889999E+03  0.48571867157E+03  0.10566000000E+00 0.  1.
          4    1    3    3  501    0 -0.55951733893E+03  0.60185577347E+03 -0.37351391004E+03  0.90266420424E+03  0.00000000000E+00 0.  1.
         13    1    1    2    0    0  0.52321537070E+03 -0.29332217579E+03 -0.31664009565E+03  0.67827220516E+03  0.10566000000E+00 0. -1.
<mgrwt>
<rscale>  1 0.99025715E+03</rscale>
<asrwt>0</asrwt>
<pdfrwt beam="1">  1       21 0.77163245E-01 0.11703667E+04</pdfrwt>
<pdfrwt beam="2">  1        4 0.24078369E+00 0.11703667E+04</pdfrwt>
<totfact> 0.40094675E+00</totfact>
</mgrwt>
</event>
<event>
 6    1  0.1353269E-005  0.8050796E+03  0.7818608E-02  0.1004798E+00
         21   -1    0    0  501  502  0.00000000000E+00  0.00000000000E+00  0.12606745405E+04  0.12606745405E+04  0.00000000000E+00 0.  1.
          4   -1    0    0  502    0 -0.00000000000E+00 -0.00000000000E+00 -0.18400120867E+03  0.18400120867E+03  0.00000000000E+00 0.  1.
    9000010    2    1    2  501    0 -0.13998037418E+03  0.73542066693E+02  0.90551826424E+03  0.12116585630E+04  0.78939863547E+03 0.  0.
        -13    1    3    3    0    0  0.11179914595E+03  0.50123524108E+02  0.94745000962E+03  0.95533917987E+03  0.10566000000E+00 0.  1.
          4    1    3    3  501    0 -0.25177952013E+03  0.23418542585E+02 -0.41931745381E+02  0.25631938312E+03  0.00000000000E+00 0.  1.
         13    1    1    2    0    0  0.13998037418E+03 -0.73542066693E+02  0.17115506758E+03  0.23301718617E+03  0.10566000000E+00 0. -1.
<mgrwt>
<rscale>  1 0.53595463E+03</rscale>
<asrwt>0</asrwt>
<pdfrwt beam="1">  1       21 0.19394992E+00 0.80507959E+03</pdfrwt>
<pdfrwt beam="2">  1        4 0.28307879E-01 0.80507959E+03</pdfrwt>
<totfact> 0.63474987E+01</totfact>
</mgrwt>
</event>
<event>
 6    1  0.1353269E-005  0.1079916E+04  0.7818608E-02  0.9557859E-01
          4   -1    0    0  502    0 -0.00000000000E+00  0.00000000000E+00  0.36388748555E+03  0.36388748555E+03  0.00000000000E+00 0.  1.
         21   -1    0    0  501  502  0.00000000000E+00 -0.00000000000E+00 -0.14148690163E+04  0.14148690163E+04  0.00000000000E+00 0.  1.
    9000010    2    1    2  501    0 -0.23941410297E+03  0.22370663030E+03 -0.94319808861E+03  0.14338202024E+04  0.10290063018E+04 0.  0.
        -13    1    3    3    0    0  0.31193905813E+03  0.38715593392E+03 -0.52282947589E+03  0.72148899172E+03  0.10566000000E+00 0.  1.
          4    1    3    3  501    0 -0.55135316110E+03 -0.16344930362E+03 -0.42036861272E+03  0.71233121065E+03  0.00000000000E+00 0.  1.
         13    1    1    2    0    0  0.23941410297E+03 -0.22370663030E+03 -0.10778344215E+03  0.34493629949E+03  0.10566000000E+00 0. -1.
<mgrwt>
<rscale>  1 0.80149274E+03</rscale>
<asrwt>0</asrwt>
<pdfrwt beam="2">  1       21 0.21767216E+00 0.10799156E+04</pdfrwt>
<pdfrwt beam="1">  1        4 0.55982689E-01 0.10799156E+04</pdfrwt>
<totfact> 0.10533514E+01</totfact>
</mgrwt>
</event>
<event>
 6    1  0.1353269E-005  0.1103446E+04  0.7818608E-02  0.9581903E-01
          4   -1    0    0  502    0 -0.00000000000E+00  0.00000000000E+00  0.40955524773E+03  0.40955524773E+03  0.00000000000E+00 0.  1.
         21   -1    0    0  501  502  0.00000000000E+00 -0.00000000000E+00 -0.11772156813E+04  0.11772156813E+04  0.00000000000E+00 0.  1.
    9000010    2    1    2  501    0 -0.22702270886E+03 -0.16849051529E+03 -0.64907338741E+03  0.12801909839E+04  0.10666134862E+04 0.  0.
        -13    1    3    3    0    0 -0.89280907136E+02 -0.53737999836E+03 -0.28826354998E+02  0.54550830692E+03  0.10566000000E+00 0.  1.
          4    1    3    3  501    0 -0.13774180172E+03  0.36888948306E+03 -0.62024703242E+03  0.73468267699E+03  0.00000000000E+00 0.  1.
         13    1    1    2    0    0  0.22702270886E+03  0.16849051529E+03 -0.11858704621E+03  0.30657994516E+03  0.10566000000E+00 0. -1.
<mgrwt>
<rscale>  1 0.78505645E+03</rscale>
<asrwt>0</asrwt>
<pdfrwt beam="2">  1       21 0.18111010E+00 0.11034458E+04</pdfrwt>
<pdfrwt beam="1">  1        4 0.63008501E-01 0.11034458E+04</pdfrwt>
<totfact> 0.14545249E+01</totfact>
</mgrwt>
</event>
<event>
 6    1  0.1353269E-005  0.9828694E+03  0.7818608E-02  0.1013500E+00
         21   -1    0    0  501  502  0.00000000000E+00  0.00000000000E+00  0.17537561887E+04  0.17537561887E+04  0.00000000000E+00 0.  1.
          4   -1    0    0  502    0 -0.00000000000E+00 -0.00000000000E+00 -0.16852928319E+03  0.16852928319E+03  0.00000000000E+00 0.  1.
    9000010    2    1    2  501    0 -0.48771213718E+02 -0.45046067215E+02  0.13017058278E+04  0.16310948262E+04  0.98062454107E+03 0.  0.
        -13    1    3    3    0    0  0.68291631485E+02 -0.33088982676E+03  0.12773192141E+04  0.13212479745E+04  0.10566000000E+00 0.  1.
          4    1    3    3  501    0 -0.11706284520E+03  0.28584375955E+03  0.24386613766E+02  0.30984685174E+03  0.00000000000E+00 0.  1.
         13    1    1    2    0    0  0.48771213718E+02  0.45046067215E+02  0.28352107767E+03  0.29119064564E+03  0.10566000000E+00 0. -1.
<mgrwt>
<rscale>  1 0.50107131E+03</rscale>
<asrwt>0</asrwt>
<pdfrwt beam="1">  1       21 0.26980863E+00 0.98286941E+03</pdfrwt>
<pdfrwt beam="2">  1        4 0.25927583E-01 0.98286941E+03</pdfrwt>
<totfact> 0.23549086E+01</totfact>
</mgrwt>
</event>
<event>
 6    1  0.1353269E-005  0.1003483E+04  0.7818608E-02  0.1007465E+00
          4   -1    0    0  502    0 -0.00000000000E+00  0.00000000000E+00  0.22515329062E+03  0.22515329062E+03  0.00000000000E+00 0.  1.
         21   -1    0    0  501  502  0.00000000000E+00 -0.00000000000E+00 -0.13146169040E+04  0.13146169040E+04  0.00000000000E+00 0.  1.
    9000010    2    1    2  501    0 -0.64861916336E+02  0.37955787401E+02 -0.10582934183E+04  0.14584111004E+04  0.10006649133E+04 0.  0.
        -13    1    3    3    0    0 -0.43719914815E+03 -0.20935769986E+03 -0.27703677512E+03  0.55832170616E+03  0.10566000000E+00 0.  1.
          4    1    3    3  501    0  0.37233723181E+03  0.24731348726E+03 -0.78125664314E+03  0.90008939424E+03  0.00000000000E+00 0.  1.
         13    1    1    2    0    0  0.64861916336E+02 -0.37955787401E+02 -0.31170195155E+02  0.81359094255E+02  0.10566000000E+00 0. -1.
<mgrwt>
<rscale>  1 0.52494844E+03</rscale>
<asrwt>0</asrwt>
<pdfrwt beam="2">  1       21 0.20224875E+00 0.10034829E+04</pdfrwt>
<pdfrwt beam="1">  1        4 0.34638968E-01 0.10034829E+04</pdfrwt>
<totfact> 0.36523330E+01</totfact>
</mgrwt>
</event>
<event>
 6    1  0.1353269E-005  0.9271706E+03  0.7818608E-02  0.9892229E-01
         21   -1    0    0  501  502  0.00000000000E+00  0.00000000000E+00  0.19769678073E+03  0.19769678073E+03  0.00000000000E+00 0.  1.
          4   -1    0    0  502    0 -0.00000000000E+00 -0.00000000000E+00 -0.17238922634E+04  0.17238922634E+04  0.00000000000E+00 0.  1.
    9000010    2    1    2  501    0 -0.12793402952E+03 -0.11140974917E+03 -0.97753830153E+03  0.13473034343E+04  0.91151860370E+03 0.  0.
        -13    1    3    3    0    0 -0.31471007547E+03 -0.12269560793E+03  0.14187330551E+02  0.33807977656E+03  0.10566000000E+00 0.  1.
          4    1    3    3  501    0  0.18677604594E+03  0.11285858755E+02 -0.99172563208E+03  0.10092236577E+04  0.00000000000E+00 0.  1.
         13    1    1    2    0    0  0.12793402952E+03  0.11140974917E+03 -0.54865718112E+03  0.57428560984E+03  0.10566000000E+00 0. -1.
<mgrwt>
<rscale>  1 0.60639374E+03</rscale>
<asrwt>0</asrwt>
<pdfrwt beam="1">  1       21 0.30414890E-01 0.92717065E+03</pdfrwt>
<pdfrwt beam="2">  1        4 0.26521419E+00 0.92717065E+03</pdfrwt>
<totfact> 0.21814754E+01</totfact>
</mgrwt>
</event>
<event>
 6    1  0.1353269E-005  0.9904969E+03  0.7818608E-02  0.9827214E-01
          4   -1    0    0  502    0 -0.00000000000E+00  0.00000000000E+00  0.30198076848E+03  0.30198076848E+03  0.00000000000E+00 0.  1.
         21   -1    0    0  501  502  0.00000000000E+00 -0.00000000000E+00 -0.11888610688E+04  0.11888610688E+04  0.00000000000E+00 0.  1.
    9000010    2    1    2  501    0 -0.12853345182E+02 -0.17132932631E+03 -0.86978180749E+03  0.13181822990E+04  0.97548205223E+03 0.  0.
        -13    1    3    3    0    0  0.19462412595E+03  0.27630556927E+03 -0.73148260404E+03  0.80578541138E+03  0.10566000000E+00 0.  1.
          4    1    3    3  501    0 -0.20747747114E+03 -0.44763489557E+03 -0.13829920344E+03  0.51239688762E+03  0.00000000000E+00 0.  1.
         13    1    1    2    0    0  0.12853345182E+02  0.17132932631E+03 -0.17098492823E+02  0.17265953827E+03  0.10566000000E+00 0. -1.
<mgrwt>
<rscale>  1 0.63922313E+03</rscale>
<asrwt>0</asrwt>
<pdfrwt beam="2">  1       21 0.18290170E+00 0.99049694E+03</pdfrwt>
<pdfrwt beam="1">  1        4 0.46458581E-01 0.99049694E+03</pdfrwt>
<totfact> 0.27459498E+01</totfact>
</mgrwt>
</event>
<event>
 6    1  0.1353269E-005  0.1142625E+04  0.7818608E-02  0.9355392E-01
          4   -1    0    0  502    0 -0.00000000000E+00  0.00000000000E+00  0.84006971608E+03  0.84006971608E+03  0.00000000000E+00 0.  1.
         21   -1    0    0  501  502  0.00000000000E+00 -0.00000000000E+00 -0.87742516194E+03  0.87742516194E+03  0.00000000000E+00 0.  1.
    9000010    2    1    2  501    0  0.17885824837E+03  0.53651678943E+03  0.57407198758E+02  0.11440661481E+04  0.99285005230E+03 0.  0.
        -13    1    3    3    0    0  0.16258145392E+03  0.61934275177E+03  0.42393468422E+03  0.76794452988E+03  0.10566000000E+00 0.  1.
          4    1    3    3  501    0  0.16276794448E+02 -0.82825962346E+02 -0.36652748546E+03  0.37612161819E+03  0.00000000000E+00 0.  1.
         13    1    1    2    0    0 -0.17885824837E+03 -0.53651678943E+03 -0.94762644615E+02  0.57342872994E+03  0.10566000000E+00 0. -1.
<mgrwt>
<rscale>  1 0.95839496E+03</rscale>
<asrwt>0</asrwt>
<pdfrwt beam="2">  1       21 0.13498849E+00 0.11426249E+04</pdfrwt>
<pdfrwt beam="1">  1        4 0.12924149E+00 0.11426249E+04</pdfrwt>
<totfact> 0.61030593E+00</totfact>
</mgrwt>
</event>
<event>
 6    1  0.1353269E-005  0.1117225E+04  0.7818608E-02  0.9412011E-01
          4   -1    0    0  502    0 -0.00000000000E+00  0.00000000000E+00  0.11449431558E+04  0.11449431558E+04  0.00000000000E+00 0.  1.
         21   -1    0    0  501  502  0.00000000000E+00 -0.00000000000E+00 -0.62330344464E+03  0.62330344464E+03  0.00000000000E+00 0. -1.
    9000010    2    1    2  501    0  0.37522643790E+03  0.32097277552E+03  0.60022730427E+03  0.12682521772E+04  0.10021837985E+04 0.  0.
        -13    1    3    3    0    0 -0.23836751956E+03 -0.19702572550E+03  0.11450885928E+03  0.32977340844E+03  0.10566000000E+00 0.  1.
          4    1    3    3  501    0  0.61359395746E+03  0.51799850103E+03  0.48571844498E+03  0.93847876880E+03  0.00000000000E+00 0.  1.
         13    1    1    2    0    0 -0.37522643790E+03 -0.32097277552E+03 -0.78587593070E+02  0.49999442324E+03  0.10566000000E+00 0. -1.
<mgrwt>
<rscale>  1 0.91093781E+03</rscale>
<asrwt>0</asrwt>
<pdfrwt beam="2">  1       21 0.95892838E-01 0.11172246E+04</pdfrwt>
<pdfrwt beam="1">  1        4 0.17614510E+00 0.11172246E+04</pdfrwt>
<totfact> 0.63743406E+00</totfact>
</mgrwt>
</event>
<event>
 6    1  0.1353269E-005  0.1076966E+04  0.7818608E-02  0.9499975E-01
         21   -1    0    0  501  502  0.00000000000E+00  0.00000000000E+00  0.13992011905E+04  0.13992011905E+04  0.00000000000E+00 0. -1.
          4   -1    0    0  502    0 -0.00000000000E+00 -0.00000000000E+00 -0.45622979185E+03  0.45622979185E+03  0.00000000000E+00 0.  1.
    9000010    2    1    2  501    0  0.17055315004E+02 -0.40366566936E+03  0.97149492831E+03  0.14503995523E+04  0.99830837380E+03 0.  0.
        -13    1    3    3    0    0  0.38605327510E+03 -0.53769975644E+03  0.74730138118E+03  0.99830732982E+03  0.10566000000E+00 0.  1.
          4    1    3    3  501    0 -0.36899796010E+03  0.13403408708E+03  0.22419354713E+03  0.45209222248E+03  0.00000000000E+00 0.  1.
         13    1    1    2    0    0 -0.17055315004E+02  0.40366566936E+03 -0.28523529689E+02  0.40503143001E+03  0.10566000000E+00 0. -1.
<mgrwt>
<rscale>  1 0.84285695E+03</rscale>
<asrwt>0</asrwt>
<pdfrwt beam="1">  1       21 0.21526172E+00 0.10769663E+04</pdfrwt>
<pdfrwt beam="2">  1        4 0.70189200E-01 0.10769663E+04</pdfrwt>
<totfact> 0.66521194E+00</totfact>
</mgrwt>
</event>
<event>
 6    1  0.1353269E-005  0.9237059E+03  0.7818608E-02  0.1004995E+00
          4   -1    0    0  502    0 -0.00000000000E+00  0.00000000000E+00  0.66080890606E+03  0.66080890606E+03  0.00000000000E+00 0.  1.
         21   -1    0    0  501  502  0.00000000000E+00 -0.00000000000E+00 -0.40978821721E+03  0.40978821721E+03  0.00000000000E+00 0.  1.
    9000010    2    1    2  501    0  0.40831779552E+02  0.95704676225E+02  0.17115552783E+03  0.93942900832E+03  0.91782679613E+03 0.  0.
        -13    1    3    3    0    0 -0.39868679165E+03 -0.14179073988E+03  0.10001308279E+03  0.43480846317E+03  0.10566000000E+00 0.  1.
          4    1    3    3  501    0  0.43951857120E+03  0.23749541611E+03  0.71142445041E+02  0.50462054515E+03  0.00000000000E+00 0.  1.
         13    1    1    2    0    0 -0.40831779552E+02 -0.95704676225E+02  0.79865161019E+02  0.13116811496E+03  0.10566000000E+00 0. -1.
<mgrwt>
<rscale>  1 0.53513328E+03</rscale>
<asrwt>0</asrwt>
<pdfrwt beam="2">  1       21 0.63044341E-01 0.92370593E+03</pdfrwt>
<pdfrwt beam="1">  1        4 0.10166291E+00 0.92370593E+03</pdfrwt>
<totfact> 0.72776739E+01</totfact>
</mgrwt>
</event>
<event>
 6    1  0.1353269E-005  0.1009284E+04  0.7818608E-02  0.9896019E-01
          4   -1    0    0  502    0 -0.00000000000E+00  0.00000000000E+00  0.29710334306E+03  0.29710334306E+03  0.00000000000E+00 0.  1.
         21   -1    0    0  501  502  0.00000000000E+00 -0.00000000000E+00 -0.11294584604E+04  0.11294584604E+04  0.00000000000E+00 0.  1.
    9000010    2    1    2  501    0  0.12515084575E+03 -0.34879016604E+02 -0.81131955106E+03  0.12949495464E+04  0.10008874231E+04 0.  0.
        -13    1    3    3    0    0  0.17660681112E+03 -0.22460522522E+03  0.14375899842E+03  0.31985017387E+03  0.10566000000E+00 0.  1.
          4    1    3    3  501    0 -0.51455965367E+02  0.18972620862E+03 -0.95507854948E+03  0.97509937252E+03  0.00000000000E+00 0.  1.
         13    1    1    2    0    0 -0.12515084575E+03  0.34879016604E+02 -0.21035566253E+02  0.13161225704E+03  0.10566000000E+00 0. -1.
<mgrwt>
<rscale>  1 0.60454611E+03</rscale>
<asrwt>0</asrwt>
<pdfrwt beam="2">  1       21 0.17376284E+00 0.10092844E+04</pdfrwt>
<pdfrwt beam="1">  1        4 0.45708206E-01 0.10092844E+04</pdfrwt>
<totfact> 0.33052327E+01</totfact>
</mgrwt>
</event>
<event>
 6    1  0.1353269E-005  0.1064422E+04  0.7818608E-02  0.9553110E-01
          4   -1    0    0  502    0 -0.00000000000E+00  0.00000000000E+00  0.16815891568E+04  0.16815891568E+04  0.00000000000E+00 0.  1.
         21   -1    0    0  501  502  0.00000000000E+00 -0.00000000000E+00 -0.37863685154E+03  0.37863685154E+03  0.00000000000E+00 0.  1.
    9000010    2    1    2  501    0 -0.32159499560E+03  0.13256863150E+03  0.48170068830E+03  0.11683448432E+04  0.10059802862E+04 0.  0.
        -13    1    3    3    0    0 -0.17603298011E+03  0.51610375877E+03  0.52360103074E+03  0.75598197760E+03  0.10566000000E+00 0.  1.
          4    1    3    3  501    0 -0.14556201549E+03 -0.38353512727E+03 -0.41900342439E+02  0.41236286557E+03  0.00000000000E+00 0.  1.
         13    1    1    2    0    0  0.32159499560E+03 -0.13256863150E+03  0.82125161695E+03  0.89188116516E+03  0.10566000000E+00 0. -1.
<mgrwt>
<rscale>  1 0.80478997E+03</rscale>
<asrwt>0</asrwt>
<pdfrwt beam="2">  1       21 0.58251824E-01 0.10644220E+04</pdfrwt>
<pdfrwt beam="1">  1        4 0.25870602E+00 0.10644220E+04</pdfrwt>
<totfact> 0.59654182E+00</totfact>
</mgrwt>
</event>
<event>
 6    1  0.1353269E-005  0.1015796E+04  0.7818608E-02  0.9910934E-01
         21   -1    0    0  501  502  0.00000000000E+00  0.00000000000E+00  0.57791670330E+03  0.57791670330E+03  0.00000000000E+00 0.  1.
          4   -1    0    0  502    0 -0.00000000000E+00 -0.00000000000E+00 -0.62199493527E+03  0.62199493527E+03  0.00000000000E+00 0.  1.
    9000010    2    1    2  501    0 -0.65055005559E+02  0.10258291731E+03  0.89052361559E+02  0.10196918429E+04  0.10085066795E+04 0.  0.
        -13    1    3    3    0    0  0.45744468561E+03 -0.75492851705E+02  0.49436607268E+02  0.46626044262E+03  0.10566000000E+00 0.  1.
          4    1    3    3  501    0 -0.52249969117E+03  0.17807576902E+03  0.39615754291E+02  0.55343140024E+03  0.00000000000E+00 0.  1.
         13    1    1    2    0    0  0.65055005559E+02 -0.10258291731E+03 -0.13313059353E+03  0.18021979572E+03  0.10566000000E+00 0. -1.
<mgrwt>
<rscale>  1 0.59734297E+03</rscale>
<asrwt>0</asrwt>
<pdfrwt beam="1">  1       21 0.88910262E-01 0.10157958E+04</pdfrwt>
<pdfrwt beam="2">  1        4 0.95691528E-01 0.10157958E+04</pdfrwt>
<totfact> 0.37597382E+01</totfact>
</mgrwt>
</event>
<event>
 6    1  0.1353269E-005  0.1022087E+04  0.7818608E-02  0.9624908E-01
          4   -1    0    0  502    0 -0.00000000000E+00  0.00000000000E+00  0.83474076169E+03  0.83474076169E+03  0.00000000000E+00 0.  1.
         21   -1    0    0  501  502  0.00000000000E+00 -0.00000000000E+00 -0.57833302215E+03  0.57833302215E+03  0.00000000000E+00 0.  1.
    9000010    2    1    2  501    0 -0.10512432680E+03  0.28849854617E+03  0.14525115820E+02  0.10221904892E+04  0.97487429032E+03 0.  0.
        -13    1    3    3    0    0  0.19675915402E+03  0.21882442529E+03  0.41942028156E+03  0.51235893429E+03  0.10566000000E+00 0.  1.
          4    1    3    3  501    0 -0.30188348082E+03  0.69674120883E+02 -0.40489516574E+03  0.50983155488E+03  0.00000000000E+00 0.  1.
         13    1    1    2    0    0  0.10512432680E+03 -0.28849854617E+03  0.24188262372E+03  0.39088329467E+03  0.10566000000E+00 0. -1.
<mgrwt>
<rscale>  1 0.75669332E+03</rscale>
<asrwt>0</asrwt>
<pdfrwt beam="2">  1       21 0.88974312E-01 0.10220873E+04</pdfrwt>
<pdfrwt beam="1">  1        4 0.12842165E+00 0.10220873E+04</pdfrwt>
<totfact> 0.18133361E+01</totfact>
</mgrwt>
</event>
<event>
 6    1  0.1353269E-005  0.1006332E+04  0.7818608E-02  0.9780545E-01
         21   -1    0    0  501  502  0.00000000000E+00  0.00000000000E+00  0.16261192833E+04  0.16261192833E+04  0.00000000000E+00 0.  1.
          4   -1    0    0  502    0 -0.00000000000E+00 -0.00000000000E+00 -0.22812391584E+03  0.22812391584E+03  0.00000000000E+00 0.  1.
    9000010    2    1    2  501    0 -0.19015821797E+03  0.17260920707E+02  0.12857843744E+04  0.16327721957E+04  0.98805136419E+03 0.  0.
        -13    1    3    3    0    0 -0.36932790408E+03  0.29573178007E+03  0.22961681558E+03  0.52591280612E+03  0.10566000000E+00 0.  1.
          4    1    3    3  501    0  0.17916968611E+03 -0.27847085937E+03  0.10561675588E+04  0.11068593896E+04  0.00000000000E+00 0.  1.
         13    1    1    2    0    0  0.19015821797E+03 -0.17260920707E+02  0.11221099304E+03  0.22147100345E+03  0.10566000000E+00 0. -1.
<mgrwt>
<rscale>  1 0.66417134E+03</rscale>
<asrwt>0</asrwt>
<pdfrwt beam="1">  1       21 0.25017219E+00 0.10063317E+04</pdfrwt>
<pdfrwt beam="2">  1        4 0.35095988E-01 0.10063317E+04</pdfrwt>
<totfact> 0.17242962E+01</totfact>
</mgrwt>
</event>
<event>
 6    1  0.1353269E-005  0.7535770E+03  0.7818608E-02  0.1029133E+00
          4   -1    0    0  502    0 -0.00000000000E+00  0.00000000000E+00  0.32875096392E+03  0.32875096392E+03  0.00000000000E+00 0.  1.
         21   -1    0    0  501  502  0.00000000000E+00 -0.00000000000E+00 -0.54709347931E+03  0.54709347931E+03  0.00000000000E+00 0.  1.
    9000010    2    1    2  501    0  0.88128257067E+02 -0.25993421185E+02 -0.21604156352E+03  0.78393387158E+03  0.74795461775E+03 0.  0.
        -13    1    3    3    0    0  0.86099020268E+02 -0.36874088115E+03 -0.22611228618E+03  0.44103248843E+03  0.10566000000E+00 0.  1.
          4    1    3    3  501    0  0.20292367991E+01  0.34274745996E+03  0.10070722666E+02  0.34290138315E+03  0.00000000000E+00 0.  1.
         13    1    1    2    0    0 -0.88128257067E+02  0.25993421185E+02 -0.23009518707E+01  0.91910571656E+02  0.10566000000E+00 0. -1.
<mgrwt>
<rscale>  1 0.44530039E+03</rscale>
<asrwt>0</asrwt>
<pdfrwt beam="2">  1       21 0.84168226E-01 0.75357704E+03</pdfrwt>
<pdfrwt beam="1">  1        4 0.50577072E-01 0.75357704E+03</pdfrwt>
<totfact> 0.18221589E+02</totfact>
</mgrwt>
</event>
<event>
 6    1  0.1353269E-005  0.1273409E+04  0.7818608E-02  0.9175485E-01
          4   -1    0    0  502    0 -0.00000000000E+00  0.00000000000E+00  0.12592973656E+04  0.12592973656E+04  0.00000000000E+00 0.  1.
         21   -1    0    0  501  502  0.00000000000E+00 -0.00000000000E+00 -0.10121743269E+04  0.10121743269E+04  0.00000000000E+00 0.  1.
    9000010    2    1    2  501    0  0.28553276541E+03  0.73919713636E+03 -0.30030741178E+03  0.13083406132E+04  0.99680953656E+03 0.  0.
        -13    1    3    3    0    0  0.56631218921E+03  0.61237302392E+03  0.57615284815E+02  0.83607998916E+03  0.10566000000E+00 0.  1.
          4    1    3    3  501    0 -0.28077942380E+03  0.12682411244E+03 -0.35792269659E+03  0.47226062409E+03  0.00000000000E+00 0.  1.
         13    1    1    2    0    0 -0.28553276541E+03 -0.73919713636E+03  0.54743045044E+03  0.96313107922E+03  0.10566000000E+00 0. -1.
<mgrwt>
<rscale>  1 0.11310084E+04</rscale>
<asrwt>0</asrwt>
<pdfrwt beam="2">  1       21 0.15571913E+00 0.12734091E+04</pdfrwt>
<pdfrwt beam="1">  1        4 0.19373806E+00 0.12734091E+04</pdfrwt>
<totfact> 0.13203524E+00</totfact>
</mgrwt>
</event>
<event>
 6    1  0.1353269E-005  0.1063147E+04  0.7818608E-02  0.9520608E-01
         21   -1    0    0  501  502  0.00000000000E+00  0.00000000000E+00  0.11089031282E+04  0.11089031282E+04  0.00000000000E+00 0.  1.
          4   -1    0    0  502    0 -0.00000000000E+00 -0.00000000000E+00 -0.78152338583E+03  0.78152338583E+03  0.00000000000E+00 0.  1.
    9000010    2    1    2  501    0  0.85624241266E+02 -0.38130150293E+03  0.76043261466E+03  0.13071108635E+04  0.98871568264E+03 0.  0.
        -13    1    3    3    0    0 -0.28941054682E+03 -0.37332493219E+03  0.80089153493E+03  0.92981569760E+03  0.10566000000E+00 0.  1.
          4    1    3    3  501    0  0.37503478808E+03 -0.79765707319E+01 -0.40458920269E+02  0.37729516586E+03  0.00000000000E+00 0.  1.
         13    1    1    2    0    0 -0.85624241266E+02  0.38130150293E+03 -0.43305287230E+03  0.58331565056E+03  0.10566000000E+00 0. -1.
<mgrwt>
<rscale>  1 0.82781396E+03</rscale>
<asrwt>0</asrwt>
<pdfrwt beam="1">  1       21 0.17060048E+00 0.10631468E+04</pdfrwt>
<pdfrwt beam="2">  1        4 0.12023437E+00 0.10631468E+04</pdfrwt>
<totfact> 0.38345297E+00</totfact>
</mgrwt>
</event>
<event>
 6    1  0.1353269E-005  0.1136961E+04  0.7818608E-02  0.9350049E-01
          4   -1    0    0  502    0 -0.00000000000E+00  0.00000000000E+00  0.28213850882E+04  0.28213850882E+04  0.00000000000E+00 0.  1.
         21   -1    0    0  501  502  0.00000000000E+00 -0.00000000000E+00 -0.26345622780E+03  0.26345622780E+03  0.00000000000E+00 0. -1.
    9000010    2    1    2  501    0 -0.57765644124E+03  0.93807610733E+02  0.16151584487E+04  0.19752004317E+04  0.97477848701E+03 0.  0.
        -13    1    3    3    0    0 -0.93786660813E+02  0.33051182853E+03  0.13137791558E+04  0.13579579110E+04  0.10566000000E+00 0.  1.
          4    1    3    3  501    0 -0.48386978043E+03 -0.23670421780E+03  0.30137929293E+03  0.61724252069E+03  0.00000000000E+00 0.  1.
         13    1    1    2    0    0  0.57765644124E+03 -0.93807610733E+02  0.94277041165E+03  0.11096408843E+04  0.10566000000E+00 0. -1.
<mgrwt>
<rscale>  1 0.96302955E+03</rscale>
<asrwt>0</asrwt>
<pdfrwt beam="2">  1       21 0.40531729E-01 0.11369608E+04</pdfrwt>
<pdfrwt beam="1">  1        4 0.43405922E+00 0.11369608E+04</pdfrwt>
<totfact> 0.91698788E-01</totfact>
</mgrwt>
</event>
<event>
 6    1  0.1353269E-005  0.9953844E+03  0.7818608E-02  0.1006231E+00
          4   -1    0    0  502    0 -0.00000000000E+00  0.00000000000E+00  0.72495326942E+03  0.72495326942E+03  0.00000000000E+00 0.  1.
         21   -1    0    0  501  502  0.00000000000E+00 -0.00000000000E+00 -0.46351887406E+03  0.46351887406E+03  0.00000000000E+00 0.  1.
    9000010    2    1    2  501    0 -0.72202059884E+02  0.34472564529E+02  0.90194265852E+02  0.99946238640E+03  0.99216357577E+03 0.  0.
        -13    1    3    3    0    0  0.37928441516E+03 -0.13793438713E+03 -0.18428651506E+03  0.44367115472E+03  0.10566000000E+00 0.  1.
          4    1    3    3  501    0 -0.45148647504E+03  0.17240695165E+03  0.27448078091E+03  0.55579123168E+03  0.00000000000E+00 0.  1.
         13    1    1    2    0    0  0.72202059884E+02 -0.34472564529E+02  0.17124012950E+03  0.18900975708E+03  0.10566000000E+00 0. -1.
<mgrwt>
<rscale>  1 0.53000307E+03</rscale>
<asrwt>0</asrwt>
<pdfrwt beam="2">  1       21 0.71310596E-01 0.99538438E+03</pdfrwt>
<pdfrwt beam="1">  1        4 0.11153127E+00 0.99538438E+03</pdfrwt>
<totfact> 0.43606042E+01</totfact>
</mgrwt>
</event>
<event>
 6    1  0.1353269E-005  0.1027274E+04  0.7818608E-02  0.9715149E-01
         21   -1    0    0  501  502  0.00000000000E+00  0.00000000000E+00  0.91569251800E+03  0.91569251800E+03  0.00000000000E+00 0.  1.
          4   -1    0    0  502    0 -0.00000000000E+00 -0.00000000000E+00 -0.65586065921E+03  0.65586065921E+03  0.00000000000E+00 0.  1.
    9000010    2    1    2  501    0 -0.19265965488E+03  0.11235311793E+03  0.58126627178E+03  0.11803229908E+04  0.10027716182E+04 0.  0.
        -13    1    3    3    0    0  0.80991284395E+02  0.52543386924E+03  0.29131570707E+03  0.60622206446E+03  0.10566000000E+00 0.  1.
          4    1    3    3  501    0 -0.27365093928E+03 -0.41308075131E+03  0.28995056471E+03  0.57410092636E+03  0.00000000000E+00 0.  1.
         13    1    1    2    0    0  0.19265965488E+03 -0.11235311793E+03 -0.32143441298E+03  0.39123018639E+03  0.10566000000E+00 0. -1.
<mgrwt>
<rscale>  1 0.70121955E+03</rscale>
<asrwt>0</asrwt>
<pdfrwt beam="1">  1       21 0.14087577E+00 0.10272740E+04</pdfrwt>
<pdfrwt beam="2">  1        4 0.10090164E+00 0.10272740E+04</pdfrwt>
<totfact> 0.10201076E+01</totfact>
</mgrwt>
</event>
<event>
 6    1  0.1353269E-005  0.1096092E+04  0.7818608E-02  0.9695116E-01
          4   -1    0    0  502    0 -0.00000000000E+00  0.00000000000E+00  0.14110722708E+04  0.14110722708E+04  0.00000000000E+00 0.  1.
         21   -1    0    0  501  502  0.00000000000E+00 -0.00000000000E+00 -0.38596534386E+03  0.38596534386E+03  0.00000000000E+00 0.  1.
    9000010    2    1    2  501    0 -0.18306972979E+03 -0.70970379176E+02  0.44216424561E+03  0.11819168935E+04  0.10783631125E+04 0.  0.
        -13    1    3    3    0    0  0.11958331862E+03 -0.51984794043E+03  0.10360421002E+03  0.54339294691E+03  0.10566000000E+00 0.  1.
          4    1    3    3  501    0 -0.30265304841E+03  0.44887756125E+03  0.33856003559E+03  0.63852394662E+03  0.00000000000E+00 0.  1.
         13    1    1    2    0    0  0.18306972979E+03  0.70970379176E+02  0.58294268137E+03  0.61512072117E+03  0.10566000000E+00 0. -1.
<mgrwt>
<rscale>  1 0.71308330E+03</rscale>
<asrwt>0</asrwt>
<pdfrwt beam="2">  1       21 0.59379284E-01 0.10960923E+04</pdfrwt>
<pdfrwt beam="1">  1        4 0.21708804E+00 0.10960923E+04</pdfrwt>
<totfact> 0.10389309E+01</totfact>
</mgrwt>
</event>
<event>
 6    1  0.1353269E-005  0.9982650E+03  0.7818608E-02  0.9578332E-01
         21   -1    0    0  501  502  0.00000000000E+00  0.00000000000E+00  0.38399986426E+03  0.38399986426E+03  0.00000000000E+00 0.  1.
          4   -1    0    0  502    0 -0.00000000000E+00 -0.00000000000E+00 -0.12533395447E+04  0.12533395447E+04  0.00000000000E+00 0.  1.
    9000010    2    1    2  501    0  0.73107693412E+02  0.37956874682E+03 -0.58028939156E+03  0.11546725994E+04  0.92038897504E+03 0.  0.
        -13    1    3    3    0    0  0.12657340047E+03  0.63355198119E+03 -0.61600581275E+03  0.89267693545E+03  0.10566000000E+00 0.  1.
          4    1    3    3  501    0 -0.53465707059E+02 -0.25398323437E+03  0.35716421185E+02  0.26199566392E+03  0.00000000000E+00 0.  1.
         13    1    1    2    0    0 -0.73107693412E+02 -0.37956874682E+03 -0.28905028885E+03  0.48266680956E+03  0.10566000000E+00 0. -1.
<mgrwt>
<rscale>  1 0.78747079E+03</rscale>
<asrwt>0</asrwt>
<pdfrwt beam="1">  1       21 0.59076902E-01 0.99826501E+03</pdfrwt>
<pdfrwt beam="2">  1        4 0.19282147E+00 0.99826501E+03</pdfrwt>
<totfact> 0.15324842E+01</totfact>
</mgrwt>
</event>
<event>
 6    1  0.1353269E-005  0.1209705E+04  0.7818608E-02  0.9251045E-01
          4   -1    0    0  502    0 -0.00000000000E+00  0.00000000000E+00  0.52995241157E+03  0.52995241157E+03  0.00000000000E+00 0.  1.
         21   -1    0    0  501  502  0.00000000000E+00 -0.00000000000E+00 -0.18358847712E+04  0.18358847712E+04  0.00000000000E+00 0.  1.
    9000010    2    1    2  501    0 -0.21145487494E+03  0.66478794095E+03 -0.11086235527E+04  0.16408634266E+04  0.98829673318E+03 0.  0.
        -13    1    3    3    0    0  0.15851011285E+03  0.64001508261E+02 -0.88404664404E+03  0.90042219482E+03  0.10566000000E+00 0.  1.
          4    1    3    3  501    0 -0.36996498779E+03  0.60078643269E+03 -0.22457690862E+03  0.74044123182E+03  0.00000000000E+00 0.  1.
         13    1    1    2    0    0  0.21145487494E+03 -0.66478794095E+03 -0.19730880694E+03  0.72497375610E+03  0.10566000000E+00 0. -1.
<mgrwt>
<rscale>  1 0.10541743E+04</rscale>
<asrwt>0</asrwt>
<pdfrwt beam="2">  1       21 0.28244382E+00 0.12097052E+04</pdfrwt>
<pdfrwt beam="1">  1        4 0.81531139E-01 0.12097052E+04</pdfrwt>
<totfact> 0.17178619E+00</totfact>
</mgrwt>
</event>
<event>
 6    1  0.1353269E-005  0.1037330E+04  0.7818608E-02  0.9672292E-01
          4   -1    0    0  502    0 -0.00000000000E+00  0.00000000000E+00  0.12867143631E+04  0.12867143631E+04  0.00000000000E+00 0.  1.
         21   -1    0    0  501  502  0.00000000000E+00 -0.00000000000E+00 -0.32213500662E+03  0.32213500662E+03  0.00000000000E+00 0.  1.
    9000010    2    1    2  501    0 -0.77932447974E+02 -0.23767925327E+03  0.78737120478E+03  0.13023079629E+04  0.10067212734E+04 0.  0.
        -13    1    3    3    0    0  0.38150126527E+03  0.10977788422E+03  0.10761030537E+03  0.41130814270E+03  0.10566000000E+00 0.  1.
          4    1    3    3  501    0 -0.45943371324E+03 -0.34745713749E+03  0.67976089942E+03  0.89099982022E+03  0.00000000000E+00 0.  1.
         13    1    1    2    0    0  0.77932447974E+02  0.23767925327E+03  0.17720815165E+03  0.30654140676E+03  0.10566000000E+00 0. -1.
<mgrwt>
<rscale>  1 0.72690720E+03</rscale>
<asrwt>0</asrwt>
<pdfrwt beam="2">  1       21 0.49559232E-01 0.10373296E+04</pdfrwt>
<pdfrwt beam="1">  1        4 0.19795605E+00 0.10373296E+04</pdfrwt>
<totfact> 0.20719510E+01</totfact>
</mgrwt>
</event>
<event>
 6    1  0.1353269E-005  0.1014401E+04  0.7818608E-02  0.9694742E-01
         21   -1    0    0  501  502  0.00000000000E+00  0.00000000000E+00  0.80958917329E+03  0.80958917329E+03  0.00000000000E+00 0.  1.
          4   -1    0    0  502    0 -0.00000000000E+00 -0.00000000000E+00 -0.51707559544E+03  0.51707559544E+03  0.00000000000E+00 0.  1.
    9000010    2    1    2  501    0  0.17792529806E+03  0.17278239971E+03  0.34815804438E+03  0.10724847397E+04  0.98361492653E+03 0.  0.
        -13    1    3    3    0    0  0.17654324961E+03  0.57230935023E+03  0.11488257396E+03  0.60983893636E+03  0.10566000000E+00 0.  1.
          4    1    3    3  501    0  0.13820484457E+01 -0.39952695052E+03  0.23327547042E+03  0.46264580334E+03  0.00000000000E+00 0.  1.
         13    1    1    2    0    0 -0.17792529806E+03 -0.17278239971E+03 -0.55644466529E+02  0.25418002903E+03  0.10566000000E+00 0. -1.
<mgrwt>
<rscale>  1 0.71330707E+03</rscale>
<asrwt>0</asrwt>
<pdfrwt beam="1">  1       21 0.12455218E+00 0.10144011E+04</pdfrwt>
<pdfrwt beam="2">  1        4 0.79550092E-01 0.10144011E+04</pdfrwt>
<totfact> 0.24844186E+01</totfact>
</mgrwt>
</event>
<event>
 6    1  0.1353269E-005  0.9900742E+03  0.7818608E-02  0.1009097E+00
         21   -1    0    0  501  502  0.00000000000E+00  0.00000000000E+00  0.72229906479E+03  0.72229906479E+03  0.00000000000E+00 0.  1.
          4   -1    0    0  502    0 -0.00000000000E+00 -0.00000000000E+00 -0.39313646090E+03  0.39313646090E+03  0.00000000000E+00 0.  1.
    9000010    2    1    2  501    0 -0.25717248187E+02 -0.69799624705E+02  0.31991038854E+03  0.10404756757E+04  0.98727585329E+03 0.  0.
        -13    1    3    3    0    0  0.20145368143E+03  0.22637721413E+03  0.53119946557E+03  0.61155793857E+03  0.10566000000E+00 0.  1.
          4    1    3    3  501    0 -0.22717092961E+03 -0.29617683884E+03 -0.21128907703E+03  0.42891773710E+03  0.00000000000E+00 0.  1.
         13    1    1    2    0    0  0.25717248187E+02  0.69799624705E+02  0.92522153433E+01  0.74959850027E+02  0.10566000000E+00 0. -1.
<mgrwt>
<rscale>  1 0.51835177E+03</rscale>
<asrwt>0</asrwt>
<pdfrwt beam="1">  1       21 0.11112293E+00 0.99007423E+03</pdfrwt>
<pdfrwt beam="2">  1        4 0.60482532E-01 0.99007423E+03</pdfrwt>
<totfact> 0.61682609E+01</totfact>
</mgrwt>
</event>
<event>
 6    1  0.1353269E-005  0.9896208E+03  0.7818608E-02  0.1014481E+00
         21   -1    0    0  501  502  0.00000000000E+00  0.00000000000E+00  0.20493609014E+04  0.20493609014E+04  0.00000000000E+00 0.  1.
          4   -1    0    0  502    0 -0.00000000000E+00 -0.00000000000E+00 -0.18195054799E+03  0.18195054799E+03  0.00000000000E+00 0.  1.
    9000010    2    1    2  501    0  0.32930142352E+02 -0.53842688981E+02  0.19127546722E+04  0.21535969216E+04  0.98760611353E+03 0.  0.
        -13    1    3    3    0    0  0.40847937064E+03 -0.31715790830E+03  0.83318073473E+03  0.98062973794E+03  0.10566000000E+00 0.  1.
          4    1    3    3  501    0 -0.37554922829E+03  0.26331521932E+03  0.10795739374E+04  0.11729671837E+04  0.00000000000E+00 0.  1.
         13    1    1    2    0    0 -0.32930142352E+02  0.53842688981E+02 -0.45344318703E+02  0.77714527823E+02  0.10566000000E+00 0. -1.
<mgrwt>
<rscale>  1 0.49731767E+03</rscale>
<asrwt>0</asrwt>
<pdfrwt beam="1">  1       21 0.31528628E+00 0.98962077E+03</pdfrwt>
<pdfrwt beam="2">  1        4 0.27992393E-01 0.98962077E+03</pdfrwt>
<totfact> 0.10573832E+01</totfact>
</mgrwt>
</event>
<event>
 6    1  0.1353269E-005  0.1053171E+04  0.7818608E-02  0.9597706E-01
          4   -1    0    0  502    0 -0.00000000000E+00  0.00000000000E+00  0.65208694540E+03  0.65208694540E+03  0.00000000000E+00 0.  1.
         21   -1    0    0  501  502  0.00000000000E+00 -0.00000000000E+00 -0.78169613110E+03  0.78169613110E+03  0.00000000000E+00 0.  1.
    9000010    2    1    2  501    0  0.28924125385E+03 -0.10584264032E+03 -0.28182136967E+03  0.10902256176E+04  0.10071273234E+04 0.  0.
        -13    1    3    3    0    0 -0.86659245844E+02 -0.45657451159E+03  0.66165692927E+02  0.46941241953E+03  0.10566000000E+00 0.  1.
          4    1    3    3  501    0  0.37590049969E+03  0.35073187127E+03 -0.34798706260E+03  0.62081319810E+03  0.00000000000E+00 0.  1.
         13    1    1    2    0    0 -0.28924125385E+03  0.10584264032E+03  0.15221218397E+03  0.34355745888E+03  0.10566000000E+00 0. -1.
<mgrwt>
<rscale>  1 0.77448195E+03</rscale>
<asrwt>0</asrwt>
<pdfrwt beam="2">  1       21 0.12026094E+00 0.10531707E+04</pdfrwt>
<pdfrwt beam="1">  1        4 0.10032107E+00 0.10531707E+04</pdfrwt>
<totfact> 0.15721984E+01</totfact>
</mgrwt>
</event>
<event>
 6    1  0.1353269E-005  0.1046139E+04  0.7818608E-02  0.9801627E-01
         21   -1    0    0  501  502  0.00000000000E+00  0.00000000000E+00  0.17801170426E+04  0.17801170426E+04  0.00000000000E+00 0.  1.
          4   -1    0    0  502    0 -0.00000000000E+00 -0.00000000000E+00 -0.23783105539E+03  0.23783105539E+03  0.00000000000E+00 0.  1.
    9000010    2    1    2  501    0  0.10304726976E+03  0.12052548156E+03  0.15370594850E+04  0.18592897891E+04  0.10340510277E+04 0.  0.
        -13    1    3    3    0    0 -0.57893842349E+02 -0.64175933661E+02 -0.13994616222E+03  0.16448461000E+03  0.10566000000E+00 0.  1.
          4    1    3    3  501    0  0.16094111211E+03  0.18470141523E+03  0.16770056472E+04  0.16948051791E+04  0.00000000000E+00 0.  1.
         13    1    1    2    0    0 -0.10304726976E+03 -0.12052548156E+03  0.52265022886E+01  0.15865830896E+03  0.10566000000E+00 0. -1.
<mgrwt>
<rscale>  1 0.65275286E+03</rscale>
<asrwt>0</asrwt>
<pdfrwt beam="1">  1       21 0.27386415E+00 0.10461389E+04</pdfrwt>
<pdfrwt beam="2">  1        4 0.36589394E-01 0.10461389E+04</pdfrwt>
<totfact> 0.11178402E+01</totfact>
</mgrwt>
</event>
<event>
 6    1  0.1353269E-005  0.1042799E+04  0.7818608E-02  0.9668030E-01
         21   -1    0    0  501  502  0.00000000000E+00  0.00000000000E+00  0.45684006754E+03  0.45684006754E+03  0.00000000000E+00 0.  1.
          4   -1    0    0  502    0 -0.00000000000E+00 -0.00000000000E+00 -0.92316446253E+03  0.92316446253E+03  0.00000000000E+00 0.  1.
    9000010    2    1    2  501    0 -0.10425261127E+03  0.22698567224E+03 -0.42836848452E+03  0.11273550403E+04  0.10124419618E+04 0.  0.
        -13    1    3    3    0    0 -0.29245392214E+03  0.45667338084E+03  0.70443020300E+02  0.54684742261E+03  0.10566000000E+00 0.  1.
          4    1    3    3  501    0  0.18820131087E+03 -0.22968770860E+03 -0.49881150482E+03  0.58050761773E+03  0.00000000000E+00 0.  1.
         13    1    1    2    0    0  0.10425261127E+03 -0.22698567224E+03 -0.37955910462E+02  0.25264948973E+03  0.10566000000E+00 0. -1.
<mgrwt>
<rscale>  1 0.72952615E+03</rscale>
<asrwt>0</asrwt>
<pdfrwt beam="1">  1       21 0.70283088E-01 0.10427990E+04</pdfrwt>
<pdfrwt beam="2">  1        4 0.14202530E+00 0.10427990E+04</pdfrwt>
<totfact> 0.24244902E+01</totfact>
</mgrwt>
</event>
<event>
 6    1  0.1353269E-005  0.1049638E+04  0.7818608E-02  0.9859181E-01
          4   -1    0    0  502    0 -0.00000000000E+00  0.00000000000E+00  0.66962432518E+03  0.66962432518E+03  0.00000000000E+00 0.  1.
         21   -1    0    0  501  502  0.00000000000E+00 -0.00000000000E+00 -0.56632287818E+03  0.56632287818E+03  0.00000000000E+00 0.  1.
    9000010    2    1    2  501    0  0.33977083359E+02 -0.12559299974E+03 -0.29473207261E+02  0.10500516312E+04  0.10415429489E+04 0.  0.
        -13    1    3    3    0    0 -0.34190747695E+03  0.30561094550E+03 -0.11207961254E+03  0.47208116200E+03  0.10566000000E+00 0.  1.
          4    1    3    3  501    0  0.37588456031E+03 -0.43120394523E+03  0.82606405283E+02  0.57797046919E+03  0.00000000000E+00 0.  1.
         13    1    1    2    0    0 -0.33977083359E+02  0.12559299974E+03  0.13277465426E+03  0.18589557217E+03  0.10566000000E+00 0. -1.
<mgrwt>
<rscale>  1 0.62280991E+03</rscale>
<asrwt>0</asrwt>
<pdfrwt beam="2">  1       21 0.87126597E-01 0.10496379E+04</pdfrwt>
<pdfrwt beam="1">  1        4 0.10301913E+00 0.10496379E+04</pdfrwt>
<totfact> 0.32950594E+01</totfact>
</mgrwt>
</event>
<event>
 6    1  0.1353269E-005  0.1076741E+04  0.7818608E-02  0.9494234E-01
          4   -1    0    0  502    0 -0.00000000000E+00  0.00000000000E+00  0.10008837697E+04  0.10008837697E+04  0.00000000000E+00 0.  1.
         21   -1    0    0  501  502  0.00000000000E+00 -0.00000000000E+00 -0.56041230598E+03  0.56041230598E+03  0.00000000000E+00 0.  1.
    9000010    2    1    2  501    0 -0.40072641358E+03 -0.97797997832E+02  0.24226688019E+03  0.11036595659E+04  0.99459795362E+03 0.  0.
        -13    1    3    3    0    0 -0.88468684287E+02 -0.52953605850E+03  0.58584475354E+02  0.54006230869E+03  0.10566000000E+00 0.  1.
          4    1    3    3  501    0 -0.31225772929E+03  0.43173806067E+03  0.18368240483E+03  0.56359725725E+03  0.00000000000E+00 0.  1.
         13    1    1    2    0    0  0.40072641358E+03  0.97797997832E+02  0.19820458349E+03  0.45763650969E+03  0.10566000000E+00 0. -1.
<mgrwt>
<rscale>  1 0.84710295E+03</rscale>
<asrwt>0</asrwt>
<pdfrwt beam="2">  1       21 0.86217278E-01 0.10767410E+04</pdfrwt>
<pdfrwt beam="1">  1        4 0.15398212E+00 0.10767410E+04</pdfrwt>
<totfact> 0.12058481E+01</totfact>
</mgrwt>
</event>
<event>
 6    1  0.1353269E-005  0.1023777E+04  0.7818608E-02  0.9976608E-01
          4   -1    0    0  502    0 -0.00000000000E+00  0.00000000000E+00  0.27690424459E+03  0.27690424459E+03  0.00000000000E+00 0.  1.
         21   -1    0    0  501  502  0.00000000000E+00 -0.00000000000E+00 -0.12296741479E+04  0.12296741479E+04  0.00000000000E+00 0.  1.
    9000010    2    1    2  501    0  0.91725272375E+02  0.29123381101E+02 -0.96822677584E+03  0.14091072533E+04  0.10192440654E+04 0.  0.
        -13    1    3    3    0    0  0.40579680241E+03  0.22496075754E+02 -0.16367247224E+02  0.40674932848E+03  0.10566000000E+00 0.  1.
          4    1    3    3  501    0 -0.31407153004E+03  0.66273053472E+01 -0.95185952862E+03  0.10023579248E+04  0.00000000000E+00 0.  1.
         13    1    1    2    0    0 -0.91725272375E+02 -0.29123381101E+02  0.15456872489E+02  0.97471139268E+02  0.10566000000E+00 0. -1.
<mgrwt>
<rscale>  1 0.56687922E+03</rscale>
<asrwt>0</asrwt>
<pdfrwt beam="2">  1       21 0.18918064E+00 0.10237774E+04</pdfrwt>
<pdfrwt beam="1">  1        4 0.42600652E-01 0.10237774E+04</pdfrwt>
<totfact> 0.29534537E+01</totfact>
</mgrwt>
</event>
<event>
 6    1  0.1353269E-005  0.1115815E+04  0.7818608E-02  0.9438804E-01
         21   -1    0    0  501  502  0.00000000000E+00  0.00000000000E+00  0.11248867362E+04  0.11248867362E+04  0.00000000000E+00 0.  1.
          4   -1    0    0  502    0 -0.00000000000E+00 -0.00000000000E+00 -0.10779883315E+04  0.10779883315E+04  0.00000000000E+00 0.  1.
    9000010    2    1    2  501    0 -0.33200802586E+03 -0.30467062384E+03  0.76657495850E+03  0.13537650209E+04  0.10207786472E+04 0.  0.
        -13    1    3    3    0    0  0.13186786551E+03 -0.26578914059E+03  0.83233819043E+03  0.88364012789E+03  0.10566000000E+00 0.  1.
          4    1    3    3  501    0 -0.46387589137E+03 -0.38881483242E+02 -0.65763231925E+02  0.47012489299E+03  0.00000000000E+00 0.  1.
         13    1    1    2    0    0  0.33200802586E+03  0.30467062384E+03 -0.71967655382E+03  0.84911004679E+03  0.10566000000E+00 0. -1.
<mgrwt>
<rscale>  1 0.88949885E+03</rscale>
<asrwt>0</asrwt>
<pdfrwt beam="1">  1       21 0.17305950E+00 0.11158148E+04</pdfrwt>
<pdfrwt beam="2">  1        4 0.16584436E+00 0.11158148E+04</pdfrwt>
<totfact> 0.15582330E+00</totfact>
</mgrwt>
</event>
<event>
 6    1  0.1353269E-005  0.9887303E+03  0.7818608E-02  0.1022434E+00
         21   -1    0    0  501  502  0.00000000000E+00  0.00000000000E+00  0.79892423117E+03  0.79892423117E+03  0.00000000000E+00 0.  1.
          4   -1    0    0  502    0 -0.00000000000E+00 -0.00000000000E+00 -0.33802999702E+03  0.33802999702E+03  0.00000000000E+00 0.  1.
    9000010    2    1    2  501    0 -0.47628074133E+02  0.14233258118E+02  0.42829085444E+03  0.10775066831E+04  0.98747991224E+03 0.  0.
        -13    1    3    3    0    0  0.10952577957E+03 -0.24309497680E+02 -0.30583293506E+03  0.32576163586E+03  0.10566000000E+00 0.  1.
          4    1    3    3  501    0 -0.15715385370E+03  0.38542755798E+02  0.73412378951E+03  0.75174504726E+03  0.00000000000E+00 0.  1.
         13    1    1    2    0    0  0.47628074133E+02 -0.14233258118E+02  0.32603379706E+02  0.59447545068E+02  0.10566000000E+00 0. -1.
<mgrwt>
<rscale>  1 0.46818575E+03</rscale>
<asrwt>0</asrwt>
<pdfrwt beam="1">  1       21 0.12291142E+00 0.98873029E+03</pdfrwt>
<pdfrwt beam="2">  1        4 0.52004615E-01 0.98873029E+03</pdfrwt>
<totfact> 0.65871923E+01</totfact>
</mgrwt>
</event>
<event>
 6    1  0.1353269E-005  0.1065575E+04  0.7818608E-02  0.9539656E-01
          4   -1    0    0  502    0 -0.00000000000E+00  0.00000000000E+00  0.45925473921E+03  0.45925473921E+03  0.00000000000E+00 0.  1.
         21   -1    0    0  501  502  0.00000000000E+00 -0.00000000000E+00 -0.12888367357E+04  0.12888367357E+04  0.00000000000E+00 0.  1.
    9000010    2    1    2  501    0 -0.23277565535E+03 -0.27888014175E+03 -0.87919089995E+03  0.13814585608E+04  0.10017447168E+04 0.  0.
        -13    1    3    3    0    0 -0.34670547421E+02  0.11683542152E+03  0.18919421989E+03  0.22504894264E+03  0.10566000000E+00 0.  1.
          4    1    3    3  501    0 -0.19810510793E+03 -0.39571556327E+03 -0.10683851198E+04  0.11564096182E+04  0.00000000000E+00 0.  1.
         13    1    1    2    0    0  0.23277565535E+03  0.27888014175E+03  0.49608903478E+02  0.36663291404E+03  0.10566000000E+00 0. -1.
<mgrwt>
<rscale>  1 0.81422212E+03</rscale>
<asrwt>0</asrwt>
<pdfrwt beam="2">  1       21 0.19828257E+00 0.10655755E+04</pdfrwt>
<pdfrwt beam="1">  1        4 0.70654576E-01 0.10655755E+04</pdfrwt>
<totfact> 0.85612410E+00</totfact>
</mgrwt>
</event>
<event>
 6    1  0.1353269E-005  0.1016660E+04  0.7818608E-02  0.9867437E-01
         21   -1    0    0  501  502  0.00000000000E+00  0.00000000000E+00  0.25382791924E+03  0.25382791924E+03  0.00000000000E+00 0.  1.
          4   -1    0    0  502    0 -0.00000000000E+00 -0.00000000000E+00 -0.13230870820E+04  0.13230870820E+04  0.00000000000E+00 0.  1.
    9000010    2    1    2  501    0 -0.10309999510E+03 -0.93828070831E+02 -0.90141897894E+03  0.13587323843E+04  0.10070571983E+04 0.  0.
        -13    1    3    3    0    0 -0.38544403007E+02  0.33016845209E+03  0.29551682443E+02  0.33372172668E+03  0.10566000000E+00 0.  1.
          4    1    3    3  501    0 -0.64555592097E+02 -0.42399652292E+03 -0.93097066138E+03  0.10250106576E+04  0.00000000000E+00 0.  1.
         13    1    1    2    0    0  0.10309999510E+03  0.93828070831E+02 -0.16784018386E+03  0.21818261697E+03  0.10566000000E+00 0. -1.
<mgrwt>
<rscale>  1 0.61865737E+03</rscale>
<asrwt>0</asrwt>
<pdfrwt beam="1">  1       21 0.39050449E-01 0.10166600E+04</pdfrwt>
<pdfrwt beam="2">  1        4 0.20355186E+00 0.10166600E+04</pdfrwt>
<totfact> 0.31623760E+01</totfact>
</mgrwt>
</event>
<event>
 6    1  0.1353269E-005  0.1041317E+04  0.7818608E-02  0.9661911E-01
          4   -1    0    0  502    0 -0.00000000000E+00  0.00000000000E+00  0.23354683401E+03  0.23354683401E+03  0.00000000000E+00 0.  1.
         21   -1    0    0  501  502  0.00000000000E+00 -0.00000000000E+00 -0.21138007643E+04  0.21138007643E+04  0.00000000000E+00 0.  1.
    9000010    2    1    2  501    0  0.24843701046E+03  0.62135527791E+02 -0.17990660136E+04  0.20786967822E+04  0.10093364252E+04 0.  0.
        -13    1    3    3    0    0  0.51326290266E+03 -0.26104138286E+03 -0.72253003078E+03  0.92392156991E+03  0.10566000000E+00 0.  1.
          4    1    3    3  501    0 -0.26482589220E+03  0.32317691065E+03 -0.10765359828E+04  0.11547752123E+04  0.00000000000E+00 0.  1.
         13    1    1    2    0    0 -0.24843701046E+03 -0.62135527791E+02 -0.81187916697E+02  0.26865081605E+03  0.10566000000E+00 0. -1.
<mgrwt>
<rscale>  1 0.73330598E+03</rscale>
<asrwt>0</asrwt>
<pdfrwt beam="2">  1       21 0.32520010E+00 0.10413173E+04</pdfrwt>
<pdfrwt beam="1">  1        4 0.35930284E-01 0.10413173E+04</pdfrwt>
<totfact> 0.55521356E+00</totfact>
</mgrwt>
</event>
<event>
 6    1  0.1353269E-005  0.1051404E+04  0.7818608E-02  0.9670555E-01
         21   -1    0    0  501  502  0.00000000000E+00  0.00000000000E+00  0.22679310445E+03  0.22679310445E+03  0.00000000000E+00 0.  1.
          4   -1    0    0  502    0 -0.00000000000E+00 -0.00000000000E+00 -0.18970178163E+04  0.18970178163E+04  0.00000000000E+00 0.  1.
    9000010    2    1    2  501    0  0.99112791507E+02 -0.22036895532E+03 -0.12022736297E+04  0.15971572885E+04  0.10232613066E+04 0.  0.
        -13    1    3    3    0    0  0.53195193814E+03 -0.13248437280E+03 -0.39068433909E+03  0.67317103139E+03  0.10566000000E+00 0.  1.
          4    1    3    3  501    0 -0.43283914663E+03 -0.87884582522E+02 -0.81158929061E+03  0.92398625712E+03  0.00000000000E+00 0.  1.
         13    1    1    2    0    0 -0.99112791507E+02  0.22036895532E+03 -0.46795108212E+03  0.52665363222E+03  0.10566000000E+00 0. -1.
<mgrwt>
<rscale>  1 0.72797343E+03</rscale>
<asrwt>0</asrwt>
<pdfrwt beam="1">  1       21 0.34891247E-01 0.10514036E+04</pdfrwt>
<pdfrwt beam="2">  1        4 0.29184889E+00 0.10514036E+04</pdfrwt>
<totfact> 0.11139864E+01</totfact>
</mgrwt>
</event>
<event>
 6    1  0.1353269E-005  0.1046744E+04  0.7818608E-02  0.9596116E-01
         21   -1    0    0  501  502  0.00000000000E+00  0.00000000000E+00  0.40805609898E+03  0.40805609898E+03  0.00000000000E+00 0.  1.
          4   -1    0    0  502    0 -0.00000000000E+00 -0.00000000000E+00 -0.16575287522E+04  0.16575287522E+04  0.00000000000E+00 0.  1.
    9000010    2    1    2  501    0 -0.31207203797E+03 -0.45843884380E+02 -0.33625174408E+03  0.10994259312E+04  0.99808893600E+03 0.  0.
        -13    1    3    3    0    0 -0.24015307217E+03  0.32106894593E+03 -0.54081394401E+03  0.67322990079E+03  0.10566000000E+00 0.  1.
          4    1    3    3  501    0 -0.71918965791E+02 -0.36691283031E+03  0.20456219994E+03  0.42619603040E+03  0.00000000000E+00 0.  1.
         13    1    1    2    0    0  0.31207203797E+03  0.45843884380E+02 -0.91322090911E+03  0.96615891995E+03  0.10566000000E+00 0. -1.
<mgrwt>
<rscale>  1 0.77553786E+03</rscale>
<asrwt>0</asrwt>
<pdfrwt beam="1">  1       21 0.62777861E-01 0.10467436E+04</pdfrwt>
<pdfrwt beam="2">  1        4 0.25500442E+00 0.10467436E+04</pdfrwt>
<totfact> 0.53316618E+00</totfact>
</mgrwt>
</event>
<event>
 6    1  0.1353269E-005  0.1035157E+04  0.7818608E-02  0.9673027E-01
          4   -1    0    0  502    0 -0.00000000000E+00  0.00000000000E+00  0.58768325529E+03  0.58768325529E+03  0.00000000000E+00 0.  1.
         21   -1    0    0  501  502  0.00000000000E+00 -0.00000000000E+00 -0.78982602988E+03  0.78982602988E+03  0.00000000000E+00 0.  1.
    9000010    2    1    2  501    0  0.10969524606E+03  0.22585485252E+03 -0.34188843114E+03  0.10901552855E+04  0.10042446842E+04 0.  0.
        -13    1    3    3    0    0  0.11939828665E+03 -0.29175237329E+03 -0.46143268736E+03  0.55883408477E+03  0.10566000000E+00 0.  1.
          4    1    3    3  501    0 -0.97030405981E+01  0.51760722580E+03  0.11954425621E+03  0.53132120078E+03  0.00000000000E+00 0.  1.
         13    1    1    2    0    0 -0.10969524606E+03 -0.22585485252E+03  0.13974565655E+03  0.28735399963E+03  0.10566000000E+00 0. -1.
<mgrwt>
<rscale>  1 0.72645683E+03</rscale>
<asrwt>0</asrwt>
<pdfrwt beam="2">  1       21 0.12151170E+00 0.10351574E+04</pdfrwt>
<pdfrwt beam="1">  1        4 0.90412809E-01 0.10351574E+04</pdfrwt>
<totfact> 0.19643163E+01</totfact>
</mgrwt>
</event>
<event>
 6    1  0.1353269E-005  0.9215177E+03  0.7818608E-02  0.1053497E+00
         21   -1    0    0  501  502  0.00000000000E+00  0.00000000000E+00  0.14456377436E+04  0.14456377436E+04  0.00000000000E+00 0.  1.
          4   -1    0    0  502    0 -0.00000000000E+00 -0.00000000000E+00 -0.16789002027E+03  0.16789002027E+03  0.00000000000E+00 0.  1.
    9000010    2    1    2  501    0 -0.14442428419E+02  0.20128236367E+02  0.12904371619E+04  0.15856932052E+04  0.92118464077E+03 0.  0.
        -13    1    3    3    0    0  0.22825054686E+03  0.63349432703E+02  0.13166528904E+04  0.13377915786E+04  0.10566000000E+00 0.  1.
          4    1    3    3  501    0 -0.24269297528E+03 -0.43221196336E+02 -0.26215728435E+02  0.24790162662E+03  0.00000000000E+00 0.  1.
         13    1    1    2    0    0  0.14442428419E+02 -0.20128236367E+02 -0.12689438660E+02  0.27834558653E+02  0.10566000000E+00 0. -1.
<mgrwt>
<rscale>  1 0.37314350E+03</rscale>
<asrwt>0</asrwt>
<pdfrwt beam="1">  1       21 0.22240580E+00 0.92151770E+03</pdfrwt>
<pdfrwt beam="2">  1        4 0.25829235E-01 0.92151770E+03</pdfrwt>
<totfact> 0.48004817E+01</totfact>
</mgrwt>
</event>
<event>
 6    1  0.1353269E-005  0.1019436E+04  0.7818608E-02  0.9720430E-01
          4   -1    0    0  502    0 -0.00000000000E+00  0.00000000000E+00  0.19057748108E+04  0.19057748108E+04  0.00000000000E+00 0.  1.
         21   -1    0    0  501  502  0.00000000000E+00 -0.00000000000E+00 -0.20474973287E+03  0.20474973287E+03  0.00000000000E+00 0. -1.
    9000010    2    1    2  501    0 -0.51300698500E+02  0.21827187383E+03  0.13119280181E+04  0.16614467044E+04  0.99447255084E+03 0.  0.
        -13    1    3    3    0    0  0.23769430801E+03 -0.32563946494E+03  0.54051574733E+03  0.67431218991E+03  0.10566000000E+00 0.  1.
          4    1    3    3  501    0 -0.28899500651E+03  0.54391133877E+03  0.77141227072E+03  0.98713451447E+03  0.00000000000E+00 0.  1.
         13    1    1    2    0    0  0.51300698500E+02 -0.21827187383E+03  0.38909705985E+03  0.44907783927E+03  0.10566000000E+00 0. -1.
<mgrwt>
<rscale>  1 0.69813331E+03</rscale>
<asrwt>0</asrwt>
<pdfrwt beam="2">  1       21 0.31499960E-01 0.10194361E+04</pdfrwt>
<pdfrwt beam="1">  1        4 0.29319611E+00 0.10194361E+04</pdfrwt>
<totfact> 0.13520230E+01</totfact>
</mgrwt>
</event>
<event>
 6    1  0.1353269E-005  0.1031955E+04  0.7818608E-02  0.9718069E-01
         21   -1    0    0  501  502  0.00000000000E+00  0.00000000000E+00  0.10064630159E+04  0.10064630159E+04  0.00000000000E+00 0. -1.
          4   -1    0    0  502    0 -0.00000000000E+00 -0.00000000000E+00 -0.40282070913E+03  0.40282070913E+03  0.00000000000E+00 0.  1.
    9000010    2    1    2  501    0  0.11192132184E+03  0.18692371495E+03  0.38727548499E+03  0.11022308465E+04  0.10086940469E+04 0.  0.
        -13    1    3    3    0    0  0.10077175765E+03 -0.11454704661E+03  0.67098148130E+03  0.68810764597E+03  0.10566000000E+00 0.  1.
          4    1    3    3  501    0  0.11149564187E+02  0.30147076156E+03 -0.28370599631E+03  0.41412320051E+03  0.00000000000E+00 0.  1.
         13    1    1    2    0    0 -0.11192132184E+03 -0.18692371495E+03  0.21636682178E+03  0.30705287854E+03  0.10566000000E+00 0. -1.
<mgrwt>
<rscale>  1 0.69951069E+03</rscale>
<asrwt>0</asrwt>
<pdfrwt beam="1">  1       21 0.15484046E+00 0.10319547E+04</pdfrwt>
<pdfrwt beam="2">  1        4 0.61972417E-01 0.10319547E+04</pdfrwt>
<totfact> 0.24025329E+01</totfact>
</mgrwt>
</event>
<event>
 6    1  0.1353269E-005  0.1111000E+04  0.7818608E-02  0.9367403E-01
          4   -1    0    0  502    0 -0.00000000000E+00  0.00000000000E+00  0.15121032944E+04  0.15121032944E+04  0.00000000000E+00 0.  1.
         21   -1    0    0  501  502  0.00000000000E+00 -0.00000000000E+00 -0.62046293247E+03  0.62046293247E+03  0.00000000000E+00 0.  1.
    9000010    2    1    2  501    0 -0.38879415577E+03 -0.44265383401E+03  0.58994985705E+02  0.11125654200E+04  0.94192255153E+03 0.  0.
        -13    1    3    3    0    0 -0.60894150872E+03 -0.62671716955E+02  0.21153858742E+03  0.64767745852E+03  0.10566000000E+00 0.  1.
          4    1    3    3  501    0  0.22014735295E+03 -0.37998211705E+03 -0.15254360171E+03  0.46488796146E+03  0.00000000000E+00 0.  1.
         13    1    1    2    0    0  0.38879415577E+03  0.44265383401E+03  0.83264537620E+03  0.10200008069E+04  0.10566000000E+00 0. -1.
<mgrwt>
<rscale>  1 0.94807554E+03</rscale>
<asrwt>0</asrwt>
<pdfrwt beam="2">  1       21 0.95455836E-01 0.11110002E+04</pdfrwt>
<pdfrwt beam="1">  1        4 0.23263127E+00 0.11110002E+04</pdfrwt>
<totfact> 0.27294035E+00</totfact>
</mgrwt>
</event>
<event>
 6    1  0.1353269E-005  0.1002327E+04  0.7818608E-02  0.1011014E+00
         21   -1    0    0  501  502  0.00000000000E+00  0.00000000000E+00  0.13370939835E+04  0.13370939835E+04  0.00000000000E+00 0.  1.
          4   -1    0    0  502    0 -0.00000000000E+00 -0.00000000000E+00 -0.44490794731E+03  0.44490794731E+03  0.00000000000E+00 0.  1.
    9000010    2    1    2  501    0 -0.59775303367E+02 -0.31508545631E+02  0.11441715577E+04  0.15211138523E+04  0.10000464603E+04 0.  0.
        -13    1    3    3    0    0 -0.63330648463E+01 -0.46895063341E+03  0.26752391667E+03  0.53992949673E+03  0.10566000000E+00 0.  1.
          4    1    3    3  501    0 -0.53442238520E+02  0.43744208778E+03  0.87664764104E+03  0.98118435554E+03  0.00000000000E+00 0.  1.
         13    1    1    2    0    0  0.59775303367E+02  0.31508545631E+02 -0.25198552149E+03  0.26088807858E+03  0.10566000000E+00 0. -1.
<mgrwt>
<rscale>  1 0.51073734E+03</rscale>
<asrwt>0</asrwt>
<pdfrwt beam="1">  1       21 0.20570677E+00 0.10023267E+04</pdfrwt>
<pdfrwt beam="2">  1        4 0.68447377E-01 0.10023267E+04</pdfrwt>
<totfact> 0.82447044E+00</totfact>
</mgrwt>
</event>
<event>
 6    1  0.1353269E-005  0.1071763E+04  0.7818608E-02  0.9546222E-01
          4   -1    0    0  502    0 -0.00000000000E+00  0.00000000000E+00  0.13903056928E+04  0.13903056928E+04  0.00000000000E+00 0.  1.
         21   -1    0    0  501  502  0.00000000000E+00 -0.00000000000E+00 -0.50448519515E+03  0.50448519515E+03  0.00000000000E+00 0.  1.
    9000010    2    1    2  501    0 -0.34887347781E+03  0.82157854983E+01  0.15235278367E+03  0.10825377862E+04  0.10133590110E+04 0.  0.
        -13    1    3    3    0    0  0.12885258784E+03 -0.34371374728E+03  0.29656542046E+03  0.47190379235E+03  0.10566000000E+00 0.  1.
          4    1    3    3  501    0 -0.47772606565E+03  0.35192953278E+03 -0.14421263679E+03  0.61063399386E+03  0.00000000000E+00 0.  1.
         13    1    1    2    0    0  0.34887347781E+03 -0.82157854983E+01  0.73346771399E+03  0.81225310174E+03  0.10566000000E+00 0. -1.
<mgrwt>
<rscale>  1 0.80960143E+03</rscale>
<asrwt>0</asrwt>
<pdfrwt beam="2">  1       21 0.77613108E-01 0.10717634E+04</pdfrwt>
<pdfrwt beam="1">  1        4 0.21389318E+00 0.10717634E+04</pdfrwt>
<totfact> 0.59266721E+00</totfact>
</mgrwt>
</event>
<event>
 6    1  0.1353269E-005  0.1071113E+04  0.7818608E-02  0.9546527E-01
          4   -1    0    0  502    0 -0.00000000000E+00  0.00000000000E+00  0.48401529344E+03  0.48401529344E+03  0.00000000000E+00 0.  1.
         21   -1    0    0  501  502  0.00000000000E+00 -0.00000000000E+00 -0.10420884237E+04  0.10420884237E+04  0.00000000000E+00 0. -1.
    9000010    2    1    2  501    0 -0.21218613239E+03 -0.27738716626E+03 -0.41512780908E+03  0.11487445105E+04  0.10125790131E+04 0.  0.
        -13    1    3    3    0    0  0.19086629933E+03  0.27559989134E+03  0.23311114392E+02  0.33604860295E+03  0.10566000000E+00 0.  1.
          4    1    3    3  501    0 -0.40305243172E+03 -0.55298705760E+03 -0.43843892348E+03  0.81269590759E+03  0.00000000000E+00 0.  1.
         13    1    1    2    0    0  0.21218613239E+03  0.27738716626E+03 -0.14294532114E+03  0.37735920657E+03  0.10566000000E+00 0. -1.
<mgrwt>
<rscale>  1 0.80938772E+03</rscale>
<asrwt>0</asrwt>
<pdfrwt beam="2">  1       21 0.16032130E+00 0.10711129E+04</pdfrwt>
<pdfrwt beam="1">  1        4 0.74463892E-01 0.10711129E+04</pdfrwt>
<totfact> 0.14389201E+01</totfact>
</mgrwt>
</event>
<event>
 6    1  0.1353269E-005  0.1008913E+04  0.7818608E-02  0.9775260E-01
          4   -1    0    0  502    0 -0.00000000000E+00  0.00000000000E+00  0.60778392718E+03  0.60778392718E+03  0.00000000000E+00 0.  1.
         21   -1    0    0  501  502  0.00000000000E+00 -0.00000000000E+00 -0.66599379845E+03  0.66599379845E+03  0.00000000000E+00 0.  1.
    9000010    2    1    2  501    0 -0.15752365301E+03  0.11118711817E+03 -0.20737218145E+03  0.10300038910E+04  0.99031738212E+03 0.  0.
        -13    1    3    3    0    0  0.40509841992E+02 -0.40327882835E+03  0.72535215675E+02  0.41174777397E+03  0.10566000000E+00 0.  1.
          4    1    3    3  501    0 -0.19803349500E+03  0.51446594652E+03 -0.27990739713E+03  0.61825611703E+03  0.00000000000E+00 0.  1.
         13    1    1    2    0    0  0.15752365301E+03 -0.11118711817E+03  0.14916231019E+03  0.24377383463E+03  0.10566000000E+00 0. -1.
<mgrwt>
<rscale>  1 0.66707311E+03</rscale>
<asrwt>0</asrwt>
<pdfrwt beam="2">  1       21 0.10246058E+00 0.10089127E+04</pdfrwt>
<pdfrwt beam="1">  1        4 0.93505220E-01 0.10089127E+04</pdfrwt>
<totfact> 0.28077843E+01</totfact>
</mgrwt>
</event>
<event>
 6    1  0.1353269E-005  0.1029421E+04  0.7818608E-02  0.9893940E-01
         21   -1    0    0  501  502  0.00000000000E+00  0.00000000000E+00  0.66099386982E+03  0.66099386982E+03  0.00000000000E+00 0.  1.
          4   -1    0    0  502    0 -0.00000000000E+00 -0.00000000000E+00 -0.51315322740E+03  0.51315322740E+03  0.00000000000E+00 0.  1.
    9000010    2    1    2  501    0  0.10646089166E+02 -0.12280633746E+03  0.77764982071E+02  0.10323537791E+04  0.10220137949E+04 0.  0.
        -13    1    3    3    0    0 -0.44227947461E+03  0.77368882623E+02  0.24273444126E+03  0.51040875560E+03  0.10566000000E+00 0.  1.
          4    1    3    3  501    0  0.45292556377E+03 -0.20017522009E+03 -0.16496945919E+03  0.52194502347E+03  0.00000000000E+00 0.  1.
         13    1    1    2    0    0 -0.10646089166E+02  0.12280633746E+03  0.70075660350E+02  0.14179331815E+03  0.10566000000E+00 0. -1.
<mgrwt>
<rscale>  1 0.60555892E+03</rscale>
<asrwt>0</asrwt>
<pdfrwt beam="1">  1       21 0.10169136E+00 0.10294207E+04</pdfrwt>
<pdfrwt beam="2">  1        4 0.78946650E-01 0.10294207E+04</pdfrwt>
<totfact> 0.42375327E+01</totfact>
</mgrwt>
</event>
<event>
 6    1  0.1353269E-005  0.1044836E+04  0.7818608E-02  0.9612188E-01
          4   -1    0    0  502    0 -0.00000000000E+00  0.00000000000E+00  0.70794698491E+03  0.70794698491E+03  0.00000000000E+00 0.  1.
         21   -1    0    0  501  502  0.00000000000E+00 -0.00000000000E+00 -0.13032444357E+04  0.13032444357E+04  0.00000000000E+00 0.  1.
    9000010    2    1    2  501    0 -0.17477173447E+03  0.24405510114E+03 -0.10402945039E+04  0.14744135895E+04  0.10007870534E+04 0.  0.
        -13    1    3    3    0    0  0.12867294155E+03  0.28419521099E+03  0.72507487470E+02  0.32028267318E+03  0.10566000000E+00 0.  1.
          4    1    3    3  501    0 -0.30344467603E+03 -0.40140109843E+02 -0.11128019914E+04  0.11541309163E+04  0.00000000000E+00 0.  1.
         13    1    1    2    0    0  0.17477173447E+03 -0.24405510114E+03  0.44499705314E+03  0.53677783116E+03  0.10566000000E+00 0. -1.
<mgrwt>
<rscale>  1 0.76494750E+03</rscale>
<asrwt>0</asrwt>
<pdfrwt beam="2">  1       21 0.20049914E+00 0.10448362E+04</pdfrwt>
<pdfrwt beam="1">  1        4 0.10891492E+00 0.10448362E+04</pdfrwt>
<totfact> 0.30016471E+00</totfact>
</mgrwt>
</event>
<event>
 6    1  0.1353269E-005  0.1076179E+04  0.7818608E-02  0.9725815E-01
          4   -1    0    0  502    0 -0.00000000000E+00  0.00000000000E+00  0.40155057668E+03  0.40155057668E+03  0.00000000000E+00 0.  1.
         21   -1    0    0  501  502  0.00000000000E+00 -0.00000000000E+00 -0.99834541326E+03  0.99834541326E+03  0.00000000000E+00 0.  1.
    9000010    2    1    2  501    0  0.10121836142E+03  0.15747011929E+03 -0.54132446485E+03  0.12046551938E+04  0.10597735440E+04 0.  0.
        -13    1    3    3    0    0 -0.38054487964E+03  0.38177725939E+03 -0.33455029091E+03  0.63442272147E+03  0.10566000000E+00 0.  1.
          4    1    3    3  501    0  0.48176324105E+03 -0.22430714010E+03 -0.20677417394E+03  0.57023247236E+03  0.00000000000E+00 0.  1.
         13    1    1    2    0    0 -0.10121836142E+03 -0.15747011929E+03 -0.55470371731E+02  0.19524079610E+03  0.10566000000E+00 0. -1.
<mgrwt>
<rscale>  1 0.69500368E+03</rscale>
<asrwt>0</asrwt>
<pdfrwt beam="2">  1       21 0.15359160E+00 0.10761793E+04</pdfrwt>
<pdfrwt beam="1">  1        4 0.61777012E-01 0.10761793E+04</pdfrwt>
<totfact> 0.24639038E+01</totfact>
</mgrwt>
</event>
<event>
 6    1  0.1353269E-005  0.1092841E+04  0.7818608E-02  0.9470421E-01
         21   -1    0    0  501  502  0.00000000000E+00  0.00000000000E+00  0.97779304810E+03  0.97779304810E+03  0.00000000000E+00 0.  1.
          4   -1    0    0  502    0 -0.00000000000E+00 -0.00000000000E+00 -0.72332815888E+03  0.72332815888E+03  0.00000000000E+00 0.  1.
    9000010    2    1    2  501    0 -0.38459412003E+03 -0.18993952361E+03  0.50553521459E+03  0.12041041256E+04  0.10051423940E+04 0.  0.
        -13    1    3    3    0    0  0.14886682119E+03 -0.40227806541E+03  0.45873262719E+03  0.62803232940E+03  0.10566000000E+00 0.  1.
          4    1    3    3  501    0 -0.53346094122E+03  0.21233854180E+03  0.46802587404E+02  0.57607179616E+03  0.00000000000E+00 0.  1.
         13    1    1    2    0    0  0.38459412003E+03  0.18993952361E+03 -0.25107032537E+03  0.49701708143E+03  0.10566000000E+00 0. -1.
<mgrwt>
<rscale>  1 0.86500146E+03</rscale>
<asrwt>0</asrwt>
<pdfrwt beam="1">  1       21 0.15042970E+00 0.10928407E+04</pdfrwt>
<pdfrwt beam="2">  1        4 0.11128125E+00 0.10928407E+04</pdfrwt>
<totfact> 0.66446274E+00</totfact>
</mgrwt>
</event>
<event>
 6    1  0.1353269E-005  0.1012664E+04  0.7818608E-02  0.9811083E-01
          4   -1    0    0  502    0 -0.00000000000E+00  0.00000000000E+00  0.80807372895E+03  0.80807372895E+03  0.00000000000E+00 0.  1.
         21   -1    0    0  501  502  0.00000000000E+00 -0.00000000000E+00 -0.55371788723E+03  0.55371788723E+03  0.00000000000E+00 0.  1.
    9000010    2    1    2  501    0  0.12721046662E+03 -0.11199323921E+03 -0.49490757304E+02  0.10138724368E+04  0.99838018545E+03 0.  0.
        -13    1    3    3    0    0 -0.37880378141E+03 -0.11308827344E+03  0.20735307825E+03  0.44640404638E+03  0.10566000000E+00 0.  1.
          4    1    3    3  501    0  0.50601424804E+03  0.10950342301E+01 -0.25684383555E+03  0.56746839046E+03  0.00000000000E+00 0.  1.
         13    1    1    2    0    0 -0.12721046662E+03  0.11199323921E+03  0.30384659903E+03  0.34791917934E+03  0.10566000000E+00 0. -1.
<mgrwt>
<rscale>  1 0.64771129E+03</rscale>
<asrwt>0</asrwt>
<pdfrwt beam="2">  1       21 0.85187367E-01 0.10126638E+04</pdfrwt>
<pdfrwt beam="1">  1        4 0.12431904E+00 0.10126638E+04</pdfrwt>
<totfact> 0.21885846E+01</totfact>
</mgrwt>
</event>
<event>
 6    1  0.1353269E-005  0.1015823E+04  0.7818608E-02  0.9841459E-01
         21   -1    0    0  501  502  0.00000000000E+00  0.00000000000E+00  0.17572597792E+04  0.17572597792E+04  0.00000000000E+00 0.  1.
          4   -1    0    0  502    0 -0.00000000000E+00 -0.00000000000E+00 -0.19410384425E+03  0.19410384425E+03  0.00000000000E+00 0.  1.
    9000010    2    1    2  501    0 -0.13111450479E+03 -0.76992282654E+02  0.13476685219E+04  0.16876333421E+04  0.10043789263E+04 0.  0.
        -13    1    3    3    0    0 -0.52098434121E+03  0.52404681039E+02  0.41370664161E+03  0.66732610533E+03  0.10566000000E+00 0.  1.
          4    1    3    3  501    0  0.38986983643E+03 -0.12939696369E+03  0.93396188032E+03  0.10203072368E+04  0.00000000000E+00 0.  1.
         13    1    1    2    0    0  0.13111450479E+03  0.76992282654E+02  0.21548741308E+03  0.26373028137E+03  0.10566000000E+00 0. -1.
<mgrwt>
<rscale>  1 0.63184310E+03</rscale>
<asrwt>0</asrwt>
<pdfrwt beam="1">  1       21 0.27034765E+00 0.10158227E+04</pdfrwt>
<pdfrwt beam="2">  1        4 0.29862131E-01 0.10158227E+04</pdfrwt>
<totfact> 0.17681441E+01</totfact>
</mgrwt>
</event>
<event>
 6    1  0.1353269E-005  0.1019774E+04  0.7818608E-02  0.9674970E-01
          4   -1    0    0  502    0 -0.00000000000E+00  0.00000000000E+00  0.49926726509E+03  0.49926726509E+03  0.00000000000E+00 0.  1.
         21   -1    0    0  501  502  0.00000000000E+00 -0.00000000000E+00 -0.85140053678E+03  0.85140053678E+03  0.00000000000E+00 0.  1.
    9000010    2    1    2  501    0 -0.10401428067E+02 -0.26069711120E+03 -0.38001194305E+03  0.10882780060E+04  0.98583404689E+03 0.  0.
        -13    1    3    3    0    0 -0.36739964387E+02  0.22590816541E+03  0.21852549726E+03  0.31644545865E+03  0.10566000000E+00 0.  1.
          4    1    3    3  501    0  0.26338536321E+02 -0.48660527661E+03 -0.59853744031E+03  0.77183254736E+03  0.00000000000E+00 0.  1.
         13    1    1    2    0    0  0.10401428067E+02  0.26069711120E+03  0.27878671355E+02  0.26238979586E+03  0.10566000000E+00 0. -1.
<mgrwt>
<rscale>  1 0.72526799E+03</rscale>
<asrwt>0</asrwt>
<pdfrwt beam="2">  1       21 0.13098470E+00 0.10197745E+04</pdfrwt>
<pdfrwt beam="1">  1        4 0.76810349E-01 0.10197745E+04</pdfrwt>
<totfact> 0.23548754E+01</totfact>
</mgrwt>
</event>
<event>
 6    1  0.1353269E-005  0.1092570E+04  0.7818608E-02  0.9446686E-01
          4   -1    0    0  502    0 -0.00000000000E+00  0.00000000000E+00  0.40198825571E+03  0.40198825571E+03  0.00000000000E+00 0.  1.
         21   -1    0    0  501  502  0.00000000000E+00 -0.00000000000E+00 -0.19369154231E+04  0.19369154231E+04  0.00000000000E+00 0.  1.
    9000010    2    1    2  501    0 -0.21134207479E+03  0.41619162217E+03 -0.15199504966E+04  0.18718862801E+04  0.98783996395E+03 0.  0.
        -13    1    3    3    0    0  0.33021254644E+03  0.25505043600E+02 -0.18531554182E+03  0.37951639527E+03  0.10566000000E+00 0.  1.
          4    1    3    3  501    0 -0.54155462124E+03  0.39068657857E+03 -0.13346349548E+04  0.14923698848E+04  0.00000000000E+00 0.  1.
         13    1    1    2    0    0  0.21134207479E+03 -0.41619162217E+03 -0.14976670815E+02  0.46701739879E+03  0.10566000000E+00 0. -1.
<mgrwt>
<rscale>  1 0.88331234E+03</rscale>
<asrwt>0</asrwt>
<pdfrwt beam="2">  1       21 0.29798699E+00 0.10925698E+04</pdfrwt>
<pdfrwt beam="1">  1        4 0.61844346E-01 0.10925698E+04</pdfrwt>
<totfact> 0.26075506E+00</totfact>
</mgrwt>
</event>
<event>
 6    1  0.1353269E-005  0.8349710E+03  0.7818608E-02  0.9901431E-01
         21   -1    0    0  501  502  0.00000000000E+00  0.00000000000E+00  0.21160127056E+03  0.21160127056E+03  0.00000000000E+00 0.  1.
          4   -1    0    0  502    0 -0.00000000000E+00 -0.00000000000E+00 -0.15751788252E+04  0.15751788252E+04  0.00000000000E+00 0.  1.
    9000010    2    1    2  501    0 -0.17473469152E+03 -0.14253634480E+03 -0.71212923779E+03  0.10974081042E+04  0.80394506896E+03 0.  0.
        -13    1    3    3    0    0 -0.74430798540E+02 -0.20878212174E+03 -0.87067479989E+03  0.89844562242E+03  0.10566000000E+00 0.  1.
          4    1    3    3  501    0 -0.10030389298E+03  0.66245776939E+02  0.15854556209E+03  0.19896248181E+03  0.00000000000E+00 0.  1.
         13    1    1    2    0    0  0.17473469152E+03  0.14253634480E+03 -0.65144831685E+03  0.68937199152E+03  0.10566000000E+00 0. -1.
<mgrwt>
<rscale>  1 0.60191983E+03</rscale>
<asrwt>0</asrwt>
<pdfrwt beam="1">  1       21 0.32554041E-01 0.83497096E+03</pdfrwt>
<pdfrwt beam="2">  1        4 0.24233521E+00 0.83497096E+03</pdfrwt>
<totfact> 0.26589035E+01</totfact>
</mgrwt>
</event>
<event>
 6    1  0.1353269E-005  0.9356301E+03  0.7818608E-02  0.1016285E+00
          4   -1    0    0  502    0 -0.00000000000E+00  0.00000000000E+00  0.34356923382E+03  0.34356923382E+03  0.00000000000E+00 0.  1.
         21   -1    0    0  501  502  0.00000000000E+00 -0.00000000000E+00 -0.73813036666E+03  0.73813036666E+03  0.00000000000E+00 0.  1.
    9000010    2    1    2  501    0 -0.33669311122E+02  0.62145588923E+02 -0.35509929729E+03  0.10007493419E+04  0.93295661081E+03 0.  0.
        -13    1    3    3    0    0 -0.48057738432E+03  0.58392044941E+02 -0.13508414285E+03  0.50260520296E+03  0.10566000000E+00 0.  1.
          4    1    3    3  501    0  0.44690807320E+03  0.37535439819E+01 -0.22001515445E+03  0.49814413895E+03  0.00000000000E+00 0.  1.
         13    1    1    2    0    0  0.33669311122E+02 -0.62145588923E+02 -0.39461835543E+02  0.80950258570E+02  0.10566000000E+00 0. -1.
<mgrwt>
<rscale>  1 0.49051561E+03</rscale>
<asrwt>0</asrwt>
<pdfrwt beam="2">  1       21 0.11355852E+00 0.93563013E+03</pdfrwt>
<pdfrwt beam="1">  1        4 0.52856806E-01 0.93563013E+03</pdfrwt>
<totfact> 0.78396903E+01</totfact>
</mgrwt>
</event>
<event>
 6    1  0.1353269E-005  0.1042693E+04  0.7818608E-02  0.9598494E-01
         21   -1    0    0  501  502  0.00000000000E+00  0.00000000000E+00  0.47558486468E+03  0.47558486468E+03  0.00000000000E+00 0.  1.
          4   -1    0    0  502    0 -0.00000000000E+00 -0.00000000000E+00 -0.11290190453E+04  0.11290190453E+04  0.00000000000E+00 0.  1.
    9000010    2    1    2  501    0  0.10689170654E+03 -0.29792579838E+03 -0.21627427173E+03  0.10648869329E+04  0.99349081572E+03 0.  0.
        -13    1    3    3    0    0  0.25839804472E+02  0.36327304066E+03 -0.15541117490E+03  0.39596419284E+03  0.10566000000E+00 0.  1.
          4    1    3    3  501    0  0.81051902070E+02 -0.66119883904E+03 -0.60863096830E+02  0.66892274003E+03  0.00000000000E+00 0.  1.
         13    1    1    2    0    0 -0.10689170654E+03  0.29792579838E+03 -0.43715990889E+03  0.53971697710E+03  0.10566000000E+00 0. -1.
<mgrwt>
<rscale>  1 0.77395937E+03</rscale>
<asrwt>0</asrwt>
<pdfrwt beam="1">  1       21 0.73166902E-01 0.10426934E+04</pdfrwt>
<pdfrwt beam="2">  1        4 0.17369524E+00 0.10426934E+04</pdfrwt>
<totfact> 0.12736983E+01</totfact>
</mgrwt>
</event>
<event>
 6    1  0.1353269E-005  0.1038761E+04  0.7818608E-02  0.9934297E-01
         21   -1    0    0  501  502  0.00000000000E+00  0.00000000000E+00  0.39943393466E+03  0.39943393466E+03  0.00000000000E+00 0.  1.
          4   -1    0    0  502    0 -0.00000000000E+00 -0.00000000000E+00 -0.12532638712E+04  0.12532638712E+04  0.00000000000E+00 0.  1.
    9000010    2    1    2  501    0 -0.70697111910E+02  0.78179253492E+02 -0.28913540025E+03  0.10782502384E+04  0.10333993515E+04 0.  0.
        -13    1    3    3    0    0  0.22472976792E+03 -0.37350673429E+03  0.53170665925E+02  0.43913310059E+03  0.10566000000E+00 0.  1.
          4    1    3    3  501    0 -0.29542687983E+03  0.45168598778E+03 -0.34230606618E+03  0.63911713780E+03  0.00000000000E+00 0.  1.
         13    1    1    2    0    0  0.70697111910E+02 -0.78179253492E+02 -0.56469453630E+03  0.57444756750E+03  0.10566000000E+00 0. -1.
<mgrwt>
<rscale>  1 0.58627503E+03</rscale>
<asrwt>0</asrwt>
<pdfrwt beam="1">  1       21 0.61451375E-01 0.10387609E+04</pdfrwt>
<pdfrwt beam="2">  1        4 0.19280983E+00 0.10387609E+04</pdfrwt>
<totfact> 0.13977083E+01</totfact>
</mgrwt>
</event>
<event>
 6    1  0.1353269E-005  0.1134300E+04  0.7818608E-02  0.9400469E-01
         21   -1    0    0  501  502  0.00000000000E+00  0.00000000000E+00  0.21143002871E+04  0.21143002871E+04  0.00000000000E+00 0.  1.
          4   -1    0    0  502    0 -0.00000000000E+00 -0.00000000000E+00 -0.31828316497E+03  0.31828316497E+03  0.00000000000E+00 0.  1.
    9000010    2    1    2  501    0 -0.46963976953E+03  0.14550183674E+03  0.10971126580E+04  0.15780661856E+04  0.10222056564E+04 0.  0.
        -13    1    3    3    0    0 -0.48064128018E+03  0.18102787987E+03  0.12864105599E+04  0.13851495491E+04  0.10566000000E+00 0.  1.
          4    1    3    3  501    0  0.11001510655E+02 -0.35526043128E+02 -0.18929790189E+03  0.19291663650E+03  0.00000000000E+00 0.  1.
         13    1    1    2    0    0  0.46963976953E+03 -0.14550183674E+03  0.69890446410E+03  0.85451726649E+03  0.10566000000E+00 0. -1.
<mgrwt>
<rscale>  1 0.92037088E+03</rscale>
<asrwt>0</asrwt>
<pdfrwt beam="1">  1       21 0.32527696E+00 0.11343001E+04</pdfrwt>
<pdfrwt beam="2">  1        4 0.48966642E-01 0.11343001E+04</pdfrwt>
<totfact> 0.28879567E+00</totfact>
</mgrwt>
</event>
<event>
 6    1  0.1353269E-005  0.1016651E+04  0.7818608E-02  0.9684657E-01
          4   -1    0    0  502    0 -0.00000000000E+00  0.00000000000E+00  0.55318443005E+03  0.55318443005E+03  0.00000000000E+00 0.  1.
         21   -1    0    0  501  502  0.00000000000E+00 -0.00000000000E+00 -0.76365282558E+03  0.76365282558E+03  0.00000000000E+00 0.  1.
    9000010    2    1    2  501    0 -0.14810333711E+03  0.20741677350E+03 -0.27645517115E+03  0.10535682257E+04  0.98418607396E+03 0.  0.
        -13    1    3    3    0    0  0.24801805900E+03  0.39881412828E+03  0.93371766621E+02  0.47883605176E+03  0.10566000000E+00 0.  1.
          4    1    3    3  501    0 -0.39612139611E+03 -0.19139735478E+03 -0.36982693777E+03  0.57473217395E+03  0.00000000000E+00 0.  1.
         13    1    1    2    0    0  0.14810333711E+03 -0.20741677350E+03  0.65986775615E+02  0.26326902992E+03  0.10566000000E+00 0. -1.
<mgrwt>
<rscale>  1 0.71937690E+03</rscale>
<asrwt>0</asrwt>
<pdfrwt beam="2">  1       21 0.11748505E+00 0.10166507E+04</pdfrwt>
<pdfrwt beam="1">  1        4 0.85105297E-01 0.10166507E+04</pdfrwt>
<totfact> 0.24747392E+01</totfact>
</mgrwt>
</event>
<event>
 6    1  0.1353269E-005  0.1039457E+04  0.7818608E-02  0.9716309E-01
         21   -1    0    0  501  502  0.00000000000E+00  0.00000000000E+00  0.45930764920E+03  0.45930764920E+03  0.00000000000E+00 0.  1.
          4   -1    0    0  502    0 -0.00000000000E+00 -0.00000000000E+00 -0.85581573847E+03  0.85581573847E+03  0.00000000000E+00 0.  1.
    9000010    2    1    2  501    0 -0.69496262340E+02 -0.20286938329E+03 -0.32551120067E+03  0.10892334001E+04  0.10170969181E+04 0.  0.
        -13    1    3    3    0    0 -0.22887233726E+03  0.29734322842E+03 -0.41189701689E+03  0.55718462464E+03  0.10566000000E+00 0.  1.
          4    1    3    3  501    0  0.15937607492E+03 -0.50021261170E+03  0.86385816228E+02  0.53204877541E+03  0.00000000000E+00 0.  1.
         13    1    1    2    0    0  0.69496262340E+02  0.20286938329E+03 -0.70996888601E+02  0.22588998762E+03  0.10566000000E+00 0. -1.
<mgrwt>
<rscale>  1 0.70053999E+03</rscale>
<asrwt>0</asrwt>
<pdfrwt beam="1">  1       21 0.70662715E-01 0.10394575E+04</pdfrwt>
<pdfrwt beam="2">  1        4 0.13166396E+00 0.10394575E+04</pdfrwt>
<totfact> 0.29190366E+01</totfact>
</mgrwt>
</event>
<event>
 6    1  0.1353269E-005  0.1029521E+04  0.7818608E-02  0.9611819E-01
          4   -1    0    0  502    0 -0.00000000000E+00  0.00000000000E+00  0.11404833909E+04  0.11404833909E+04  0.00000000000E+00 0.  1.
         21   -1    0    0  501  502  0.00000000000E+00 -0.00000000000E+00 -0.44844907623E+03  0.44844907623E+03  0.00000000000E+00 0.  1.
    9000010    2    1    2  501    0 -0.30387542167E+03  0.79775913295E+02  0.27281728931E+03  0.10650551974E+04  0.98041258249E+03 0.  0.
        -13    1    3    3    0    0 -0.16428805186E+03 -0.38738305762E+03  0.37872546847E+03  0.56611764586E+03  0.10566000000E+00 0.  1.
          4    1    3    3  501    0 -0.13958736981E+03  0.46715897092E+03 -0.10590817916E+03  0.49893755154E+03  0.00000000000E+00 0.  1.
         13    1    1    2    0    0  0.30387542167E+03 -0.79775913295E+02  0.41921702535E+03  0.52387726974E+03  0.10566000000E+00 0. -1.
<mgrwt>
<rscale>  1 0.76518859E+03</rscale>
<asrwt>0</asrwt>
<pdfrwt beam="2">  1       21 0.68992166E-01 0.10295209E+04</pdfrwt>
<pdfrwt beam="1">  1        4 0.17545898E+00 0.10295209E+04</pdfrwt>
<totfact> 0.14184096E+01</totfact>
</mgrwt>
</event>
<event>
 6    1  0.1353269E-005  0.1191506E+04  0.7818608E-02  0.9370619E-01
          4   -1    0    0  502    0 -0.00000000000E+00  0.00000000000E+00  0.11387623883E+04  0.11387623883E+04  0.00000000000E+00 0.  1.
         21   -1    0    0  501  502  0.00000000000E+00 -0.00000000000E+00 -0.61162835034E+03  0.61162835034E+03  0.00000000000E+00 0.  1.
    9000010    2    1    2  501    0  0.44775487376E+03  0.14971943836E+03  0.31271826064E+03  0.12318596654E+04  0.10939767765E+04 0.  0.
        -13    1    3    3    0    0  0.75367778614E+03  0.23456257157E+03  0.42330927305E+03  0.89567882476E+03  0.10566000000E+00 0.  1.
          4    1    3    3  501    0 -0.30592291239E+03 -0.84843133209E+02 -0.11059101241E+03  0.33618084062E+03  0.00000000000E+00 0.  1.
         13    1    1    2    0    0 -0.44775487376E+03 -0.14971943836E+03  0.21441577732E+03  0.51853107325E+03  0.10566000000E+00 0. -1.
<mgrwt>
<rscale>  1 0.94533536E+03</rscale>
<asrwt>0</asrwt>
<pdfrwt beam="2">  1       21 0.94096670E-01 0.11915056E+04</pdfrwt>
<pdfrwt beam="1">  1        4 0.17519421E+00 0.11915056E+04</pdfrwt>
<totfact> 0.67279918E+00</totfact>
</mgrwt>
</event>
<event>
 6    1  0.1353269E-005  0.1023150E+04  0.7818608E-02  0.9782399E-01
          4   -1    0    0  502    0 -0.00000000000E+00  0.00000000000E+00  0.21195398303E+03  0.21195398303E+03  0.00000000000E+00 0.  1.
         21   -1    0    0  501  502  0.00000000000E+00 -0.00000000000E+00 -0.18670439642E+04  0.18670439642E+04  0.00000000000E+00 0. -1.
    9000010    2    1    2  501    0 -0.11998343767E+03 -0.13494392485E+03 -0.15823610583E+04  0.18843305500E+04  0.10070894769E+04 0.  0.
        -13    1    3    3    0    0 -0.40800379450E+03 -0.14768017509E+03 -0.15312399777E+04  0.15915314671E+04  0.10566000000E+00 0.  1.
          4    1    3    3  501    0  0.28802035683E+03  0.12736250237E+02 -0.51121080578E+02  0.29279908281E+03  0.00000000000E+00 0.  1.
         13    1    1    2    0    0  0.11998343767E+03  0.13494392485E+03 -0.72728922890E+02  0.19466739727E+03  0.10566000000E+00 0. -1.
<mgrwt>
<rscale>  1 0.66315703E+03</rscale>
<asrwt>0</asrwt>
<pdfrwt beam="2">  1       21 0.28723753E+00 0.10231496E+04</pdfrwt>
<pdfrwt beam="1">  1        4 0.32608306E-01 0.10231496E+04</pdfrwt>
<totfact> 0.11650303E+01</totfact>
</mgrwt>
</event>
<event>
 6    1  0.1353269E-005  0.1248137E+04  0.7818608E-02  0.9212621E-01
          4   -1    0    0  502    0 -0.00000000000E+00  0.00000000000E+00  0.75037974331E+03  0.75037974331E+03  0.00000000000E+00 0.  1.
         21   -1    0    0  501  502  0.00000000000E+00 -0.00000000000E+00 -0.13464413513E+04  0.13464413513E+04  0.00000000000E+00 0. -1.
    9000010    2    1    2  501    0 -0.46895831555E+02 -0.73091096356E+03 -0.19962820212E+03  0.12640008787E+04  0.10106516445E+04 0.  0.
        -13    1    3    3    0    0  0.21165013556E+03 -0.89875126475E+03 -0.23761861738E+03  0.95342133093E+03  0.10566000000E+00 0.  1.
          4    1    3    3  501    0 -0.25854596711E+03  0.16784030120E+03  0.37990415254E+02  0.31057954773E+03  0.00000000000E+00 0.  1.
         13    1    1    2    0    0  0.46895831555E+02  0.73091096356E+03 -0.39643340590E+03  0.83282021598E+03  0.10566000000E+00 0. -1.
<mgrwt>
<rscale>  1 0.10924108E+04</rscale>
<asrwt>0</asrwt>
<pdfrwt beam="2">  1       21 0.20714482E+00 0.12481373E+04</pdfrwt>
<pdfrwt beam="1">  1        4 0.11544304E+00 0.12481373E+04</pdfrwt>
<totfact> 0.22757407E+00</totfact>
</mgrwt>
</event>
<event>
 6    1  0.1353269E-005  0.1036160E+04  0.7818608E-02  0.9635725E-01
         21   -1    0    0  501  502  0.00000000000E+00  0.00000000000E+00  0.71313724818E+03  0.71313724818E+03  0.00000000000E+00 0.  1.
          4   -1    0    0  502    0 -0.00000000000E+00 -0.00000000000E+00 -0.16009868849E+04  0.16009868849E+04  0.00000000000E+00 0.  1.
    9000010    2    1    2  501    0  0.20540048840E+03  0.19621760712E+03  0.31120153817E+03  0.10818845293E+04  0.99646225587E+03 0.  0.
        -13    1    3    3    0    0 -0.16526430131E+03  0.35334119636E+03  0.50251542372E+03  0.63614782289E+03  0.10566000000E+00 0.  1.
          4    1    3    3  501    0  0.37066478971E+03 -0.15712358924E+03 -0.19131388555E+03  0.44573670640E+03  0.00000000000E+00 0.  1.
         13    1    1    2    0    0 -0.20540048840E+03 -0.19621760712E+03 -0.11990511749E+04  0.12322396038E+04  0.10566000000E+00 0. -1.
<mgrwt>
<rscale>  1 0.74976143E+03</rscale>
<asrwt>0</asrwt>
<pdfrwt beam="1">  1       21 0.10971342E+00 0.10361601E+04</pdfrwt>
<pdfrwt beam="2">  1        4 0.24630567E+00 0.10361601E+04</pdfrwt>
<totfact> 0.16003558E+00</totfact>
</mgrwt>
</event>
<event>
 6    1  0.1353269E-005  0.1012650E+04  0.7818608E-02  0.9810152E-01
         21   -1    0    0  501  502  0.00000000000E+00  0.00000000000E+00  0.37764403053E+03  0.37764403053E+03  0.00000000000E+00 0.  1.
          4   -1    0    0  502    0 -0.00000000000E+00 -0.00000000000E+00 -0.12446337557E+04  0.12446337557E+04  0.00000000000E+00 0.  1.
    9000010    2    1    2  501    0  0.16675408867E+03 -0.33110293084E+02 -0.33946374780E+03  0.10680333586E+04  0.99827671585E+03 0.  0.
        -13    1    3    3    0    0 -0.36306278498E+03  0.56465222256E+02 -0.38073572794E+03  0.52911493350E+03  0.10566000000E+00 0.  1.
          4    1    3    3  501    0  0.52981687366E+03 -0.89575515340E+02  0.41271980142E+02  0.53891842509E+03  0.00000000000E+00 0.  1.
         13    1    1    2    0    0 -0.16675408867E+03  0.33110293084E+02 -0.52752597733E+03  0.55424442760E+03  0.10566000000E+00 0. -1.
<mgrwt>
<rscale>  1 0.64820557E+03</rscale>
<asrwt>0</asrwt>
<pdfrwt beam="1">  1       21 0.58099082E-01 0.10126498E+04</pdfrwt>
<pdfrwt beam="2">  1        4 0.19148212E+00 0.10126498E+04</pdfrwt>
<totfact> 0.16213160E+01</totfact>
</mgrwt>
</event>
<event>
 6    1  0.1353269E-005  0.1280256E+04  0.7818608E-02  0.9184577E-01
          4   -1    0    0  502    0 -0.00000000000E+00  0.00000000000E+00  0.11012031323E+04  0.11012031323E+04  0.00000000000E+00 0.  1.
         21   -1    0    0  501  502  0.00000000000E+00 -0.00000000000E+00 -0.12265202525E+04  0.12265202525E+04  0.00000000000E+00 0.  1.
    9000010    2    1    2  501    0  0.68950901026E+03 -0.30420246710E+03 -0.62380648244E+03  0.14241452356E+04  0.10349363789E+04 0.  0.
        -13    1    3    3    0    0  0.45119599252E+03  0.34493155642E+03 -0.15499435605E+03  0.58870949020E+03  0.10566000000E+00 0.  1.
          4    1    3    3  501    0  0.23831301773E+03 -0.64913402352E+03 -0.46881212640E+03  0.83543574545E+03  0.00000000000E+00 0.  1.
         13    1    1    2    0    0 -0.68950901026E+03  0.30420246710E+03  0.49848936229E+03  0.90357814919E+03  0.10566000000E+00 0. -1.
<mgrwt>
<rscale>  1 0.11214050E+04</rscale>
<asrwt>0</asrwt>
<pdfrwt beam="2">  1       21 0.18869542E+00 0.12802559E+04</pdfrwt>
<pdfrwt beam="1">  1        4 0.16941587E+00 0.12802559E+04</pdfrwt>
<totfact> 0.11034649E+00</totfact>
</mgrwt>
</event>
<event>
 6    1  0.1353269E-005  0.1010773E+04  0.7818608E-02  0.9795120E-01
          4   -1    0    0  502    0 -0.00000000000E+00  0.00000000000E+00  0.41960639859E+03  0.41960639859E+03  0.00000000000E+00 0.  1.
         21   -1    0    0  501  502  0.00000000000E+00 -0.00000000000E+00 -0.84580827031E+03  0.84580827031E+03  0.00000000000E+00 0.  1.
    9000010    2    1    2  501    0  0.16482684235E+03 -0.71344962622E+02 -0.38112274666E+03  0.10802387246E+04  0.99468746979E+03 0.  0.
        -13    1    3    3    0    0 -0.22432511031E+02  0.31446868883E+03 -0.53801715536E+03  0.62358339012E+03  0.10566000000E+00 0.  1.
          4    1    3    3  501    0  0.18725935338E+03 -0.38581365145E+03  0.15689440869E+03  0.45665533453E+03  0.00000000000E+00 0.  1.
         13    1    1    2    0    0 -0.16482684235E+03  0.71344962622E+02 -0.45079125052E+02  0.18517594426E+03  0.10566000000E+00 0. -1.
<mgrwt>
<rscale>  1 0.65625068E+03</rscale>
<asrwt>0</asrwt>
<pdfrwt beam="2">  1       21 0.13012435E+00 0.10107726E+04</pdfrwt>
<pdfrwt beam="1">  1        4 0.64554832E-01 0.10107726E+04</pdfrwt>
<totfact> 0.35421785E+01</totfact>
</mgrwt>
</event>
<event>
 6    1  0.1353269E-005  0.1059647E+04  0.7818608E-02  0.9564403E-01
         21   -1    0    0  501  502  0.00000000000E+00  0.00000000000E+00  0.39831190211E+03  0.39831190211E+03  0.00000000000E+00 0.  1.
          4   -1    0    0  502    0 -0.00000000000E+00 -0.00000000000E+00 -0.21050855894E+04  0.21050855894E+04  0.00000000000E+00 0.  1.
    9000010    2    1    2  501    0  0.11857374248E+03  0.31766918082E+03 -0.36703076632E+03  0.11214117657E+04  0.10039319320E+04 0.  0.
        -13    1    3    3    0    0 -0.26513038254E+03 -0.48799282041E+02  0.20687550569E+03  0.33981314821E+03  0.10566000000E+00 0.  1.
          4    1    3    3  501    0  0.38370412502E+03  0.36646846286E+03 -0.57390627201E+03  0.78159861751E+03  0.00000000000E+00 0.  1.
         13    1    1    2    0    0 -0.11857374248E+03 -0.31766918082E+03 -0.13397429210E+04  0.13819857258E+04  0.10566000000E+00 0. -1.
<mgrwt>
<rscale>  1 0.79697693E+03</rscale>
<asrwt>0</asrwt>
<pdfrwt beam="1">  1       21 0.61278753E-01 0.10596475E+04</pdfrwt>
<pdfrwt beam="2">  1        4 0.32385933E+00 0.10596475E+04</pdfrwt>
<totfact> 0.21030345E+00</totfact>
</mgrwt>
</event>
<event>
 6    1  0.1353269E-005  0.1014803E+04  0.7818608E-02  0.9739060E-01
          4   -1    0    0  502    0 -0.00000000000E+00  0.00000000000E+00  0.92658315973E+03  0.92658315973E+03  0.00000000000E+00 0.  1.
         21   -1    0    0  501  502  0.00000000000E+00 -0.00000000000E+00 -0.61464676718E+03  0.61464676718E+03  0.00000000000E+00 0.  1.
    9000010    2    1    2  501    0  0.12397288532E+03  0.17396765931E+03 -0.15610865983E+03  0.10267396889E+04  0.99206373401E+03 0.  0.
        -13    1    3    3    0    0  0.47604580914E+03 -0.17042175455E+03  0.13607527889E+02  0.50581455376E+03  0.10566000000E+00 0.  1.
          4    1    3    3  501    0 -0.35207292382E+03  0.34438941385E+03 -0.16971618772E+03  0.52092513515E+03  0.00000000000E+00 0.  1.
         13    1    1    2    0    0 -0.12397288532E+03 -0.17396765931E+03  0.46804505237E+03  0.51449023800E+03  0.10566000000E+00 0. -1.
<mgrwt>
<rscale>  1 0.68738066E+03</rscale>
<asrwt>0</asrwt>
<pdfrwt beam="2">  1       21 0.94561041E-01 0.10148027E+04</pdfrwt>
<pdfrwt beam="1">  1        4 0.14255126E+00 0.10148027E+04</pdfrwt>
<totfact> 0.11933526E+01</totfact>
</mgrwt>
</event>
<event>
 6    1  0.1353269E-005  0.9903251E+03  0.7818608E-02  0.9954161E-01
         21   -1    0    0  501  502  0.00000000000E+00  0.00000000000E+00  0.13185939662E+04  0.13185939662E+04  0.00000000000E+00 0.  1.
          4   -1    0    0  502    0 -0.00000000000E+00 -0.00000000000E+00 -0.28393644837E+03  0.28393644837E+03  0.00000000000E+00 0.  1.
    9000010    2    1    2  501    0 -0.10282704947E+02 -0.11371122604E+03  0.10924903182E+04  0.14745436149E+04  0.98372140359E+03 0.  0.
        -13    1    3    3    0    0  0.84317213945E+02  0.32779017676E+03  0.93820520555E+03  0.99738899705E+03  0.10566000000E+00 0.  1.
          4    1    3    3  501    0 -0.94599918892E+02 -0.44150140281E+03  0.15428511265E+03  0.47715461783E+03  0.00000000000E+00 0.  1.
         13    1    1    2    0    0  0.10282704947E+02  0.11371122604E+03 -0.57832800317E+02  0.12798679973E+03  0.10566000000E+00 0. -1.
<mgrwt>
<rscale>  1 0.57706712E+03</rscale>
<asrwt>0</asrwt>
<pdfrwt beam="1">  1       21 0.20286061E+00 0.99032509E+03</pdfrwt>
<pdfrwt beam="2">  1        4 0.43682531E-01 0.99032509E+03</pdfrwt>
<totfact> 0.22622333E+01</totfact>
</mgrwt>
</event>
<event>
 6    1  0.1353269E-005  0.1016993E+04  0.7818608E-02  0.9850626E-01
         21   -1    0    0  501  502  0.00000000000E+00  0.00000000000E+00  0.10005013128E+04  0.10005013128E+04  0.00000000000E+00 0.  1.
          4   -1    0    0  502    0 -0.00000000000E+00 -0.00000000000E+00 -0.35565229121E+03  0.35565229121E+03  0.00000000000E+00 0.  1.
    9000010    2    1    2  501    0  0.12862557501E+03 -0.71315255592E+02  0.65344811774E+03  0.12088296078E+04  0.10063022279E+04 0.  0.
        -13    1    3    3    0    0  0.34516262636E+03 -0.25457650224E+02  0.84688415774E+03  0.91487601258E+03  0.10566000000E+00 0.  1.
          4    1    3    3  501    0 -0.21653705135E+03 -0.45857605368E+02 -0.19343604000E+03  0.29395359523E+03  0.00000000000E+00 0.  1.
         13    1    1    2    0    0 -0.12862557501E+03  0.71315255592E+02 -0.85990961861E+01  0.14732399617E+03  0.10566000000E+00 0. -1.
<mgrwt>
<rscale>  1 0.62715018E+03</rscale>
<asrwt>0</asrwt>
<pdfrwt beam="1">  1       21 0.15392328E+00 0.10169929E+04</pdfrwt>
<pdfrwt beam="2">  1        4 0.54715738E-01 0.10169929E+04</pdfrwt>
<totfact> 0.32049166E+01</totfact>
</mgrwt>
</event>
<event>
 6    1  0.1353269E-005  0.1094677E+04  0.7818608E-02  0.9461395E-01
          4   -1    0    0  502    0 -0.00000000000E+00  0.00000000000E+00  0.63033187224E+03  0.63033187224E+03  0.00000000000E+00 0.  1.
         21   -1    0    0  501  502  0.00000000000E+00 -0.00000000000E+00 -0.19639273066E+04  0.19639273066E+04  0.00000000000E+00 0.  1.
    9000010    2    1    2  501    0 -0.18283399854E+03 -0.40085236943E+03 -0.16995068611E+04  0.20215445234E+04  0.10021016895E+04 0.  0.
        -13    1    3    3    0    0  0.22387452683E+02 -0.42281574351E+02 -0.15945612618E+04  0.15952788340E+04  0.10566000000E+00 0.  1.
          4    1    3    3  501    0 -0.20522145123E+03 -0.35857079508E+03 -0.10494559934E+03  0.42626568939E+03  0.00000000000E+00 0.  1.
         13    1    1    2    0    0  0.18283399854E+03  0.40085236943E+03  0.36591142678E+03  0.57271465540E+03  0.10566000000E+00 0. -1.
<mgrwt>
<rscale>  1 0.87190841E+03</rscale>
<asrwt>0</asrwt>
<pdfrwt beam="2">  1       21 0.30214266E+00 0.10946774E+04</pdfrwt>
<pdfrwt beam="1">  1        4 0.96974134E-01 0.10946774E+04</pdfrwt>
<totfact> 0.87717685E-01</totfact>
</mgrwt>
</event>
<event>
 6    1  0.1353269E-005  0.1005257E+04  0.7818608E-02  0.9875512E-01
          4   -1    0    0  502    0 -0.00000000000E+00  0.00000000000E+00  0.11705936751E+04  0.11705936751E+04  0.00000000000E+00 0.  1.
         21   -1    0    0  501  502  0.00000000000E+00 -0.00000000000E+00 -0.28427816059E+03  0.28427816059E+03  0.00000000000E+00 0. -1.
    9000010    2    1    2  501    0  0.14035135387E+03  0.60564938460E+01  0.71644228440E+03  0.12344356564E+04  0.99539271613E+03 0.  0.
        -13    1    3    3    0    0 -0.33752789527E+03  0.20365534745E+03  0.57706814364E+03  0.69886209956E+03  0.10566000000E+00 0.  1.
          4    1    3    3  501    0  0.47787924914E+03 -0.19759885360E+03  0.13937414075E+03  0.53557355686E+03  0.00000000000E+00 0.  1.
         13    1    1    2    0    0 -0.14035135387E+03 -0.60564938460E+01  0.16987323008E+03  0.22043617923E+03  0.10566000000E+00 0. -1.
<mgrwt>
<rscale>  1 0.61462899E+03</rscale>
<asrwt>0</asrwt>
<pdfrwt beam="2">  1       21 0.43735102E-01 0.10052571E+04</pdfrwt>
<pdfrwt beam="1">  1        4 0.18009133E+00 0.10052571E+04</pdfrwt>
<totfact> 0.35933108E+01</totfact>
</mgrwt>
</event>
<event>
 6    1  0.1353269E-005  0.9976838E+03  0.7818608E-02  0.9976214E-01
          4   -1    0    0  502    0 -0.00000000000E+00  0.00000000000E+00  0.49512085409E+03  0.49512085409E+03  0.00000000000E+00 0.  1.
         21   -1    0    0  501  502  0.00000000000E+00 -0.00000000000E+00 -0.64411343822E+03  0.64411343822E+03  0.00000000000E+00 0.  1.
    9000010    2    1    2  501    0  0.18556272296E+02  0.10245106588E+03 -0.20860415862E+03  0.10192588485E+04  0.99223603497E+03 0.  0.
        -13    1    3    3    0    0  0.47122093729E+03 -0.12124433217E+03 -0.45704612897E+02  0.48871083744E+03  0.10566000000E+00 0.  1.
          4    1    3    3  501    0 -0.45266466499E+03  0.22369539805E+03 -0.16289954573E+03  0.53054801106E+03  0.00000000000E+00 0.  1.
         13    1    1    2    0    0 -0.18556272296E+02 -0.10245106588E+03  0.59611574493E+02  0.11997544381E+03  0.10566000000E+00 0. -1.
<mgrwt>
<rscale>  1 0.56705630E+03</rscale>
<asrwt>0</asrwt>
<pdfrwt beam="2">  1       21 0.99094375E-01 0.99768377E+03</pdfrwt>
<pdfrwt beam="1">  1        4 0.76172439E-01 0.99768377E+03</pdfrwt>
<totfact> 0.49167630E+01</totfact>
</mgrwt>
</event>
<event>
 6    1  0.1353269E-005  0.1045144E+04  0.7818608E-02  0.9628175E-01
         21   -1    0    0  501  502  0.00000000000E+00  0.00000000000E+00  0.11505337804E+04  0.11505337804E+04  0.00000000000E+00 0.  1.
          4   -1    0    0  502    0 -0.00000000000E+00 -0.00000000000E+00 -0.41998189060E+03  0.41998189060E+03  0.00000000000E+00 0.  1.
    9000010    2    1    2  501    0  0.92179637424E+02 -0.26862347355E+03  0.74915399365E+03  0.12859076853E+04  0.10058186779E+04 0.  0.
        -13    1    3    3    0    0 -0.34818402739E+03 -0.38650641531E+03  0.62552390732E+03  0.81357205937E+03  0.10566000000E+00 0.  1.
          4    1    3    3  501    0  0.44036366481E+03  0.11788294176E+03  0.12363008633E+03  0.47233562590E+03  0.00000000000E+00 0.  1.
         13    1    1    2    0    0 -0.92179637424E+02  0.26862347355E+03 -0.18602103863E+02  0.28460798571E+03  0.10566000000E+00 0. -1.
<mgrwt>
<rscale>  1 0.75459095E+03</rscale>
<asrwt>0</asrwt>
<pdfrwt beam="1">  1       21 0.17700520E+00 0.10451444E+04</pdfrwt>
<pdfrwt beam="2">  1        4 0.64612599E-01 0.10451444E+04</pdfrwt>
<totfact> 0.14840692E+01</totfact>
</mgrwt>
</event>
<event>
 6    1  0.1353269E-005  0.1056681E+04  0.7818608E-02  0.9654396E-01
          4   -1    0    0  502    0 -0.00000000000E+00  0.00000000000E+00  0.45683509329E+03  0.45683509329E+03  0.00000000000E+00 0.  1.
         21   -1    0    0  501  502  0.00000000000E+00 -0.00000000000E+00 -0.10293123337E+04  0.10293123337E+04  0.00000000000E+00 0.  1.
    9000010    2    1    2  501    0 -0.47077119113E+02 -0.24694383338E+03 -0.62729219954E+03  0.12288495395E+04  0.10263421335E+04 0.  0.
        -13    1    3    3    0    0  0.19537392811E+03  0.62090417842E+02  0.21647235238E+03  0.29813836097E+03  0.10566000000E+00 0.  1.
          4    1    3    3  501    0 -0.24245104723E+03 -0.30903425123E+03 -0.84376455192E+03  0.93071117851E+03  0.00000000000E+00 0.  1.
         13    1    1    2    0    0  0.47077119113E+02  0.24694383338E+03  0.54814959162E+02  0.25729788748E+03  0.10566000000E+00 0. -1.
<mgrwt>
<rscale>  1 0.73798166E+03</rscale>
<asrwt>0</asrwt>
<pdfrwt beam="2">  1       21 0.15835574E+00 0.10566815E+04</pdfrwt>
<pdfrwt beam="1">  1        4 0.70282322E-01 0.10566815E+04</pdfrwt>
<totfact> 0.17008424E+01</totfact>
</mgrwt>
</event>
<event>
 6    1  0.1353269E-005  0.1090365E+04  0.7818608E-02  0.9463206E-01
          4   -1    0    0  502    0 -0.00000000000E+00  0.00000000000E+00  0.58096428294E+03  0.58096428294E+03  0.00000000000E+00 0.  1.
         21   -1    0    0  501  502  0.00000000000E+00 -0.00000000000E+00 -0.12176012335E+04  0.12176012335E+04  0.00000000000E+00 0.  1.
    9000010    2    1    2  501    0  0.41859277795E+03 -0.14498145928E+03 -0.77126626709E+03  0.13355702667E+04  0.99632160735E+03 0.  0.
        -13    1    3    3    0    0  0.36233391246E+03  0.38230067521E+03 -0.22048561173E+03  0.57101102137E+03  0.10566000000E+00 0.  1.
          4    1    3    3  501    0  0.56258865489E+02 -0.52728213449E+03 -0.55078065536E+03  0.76455924533E+03  0.00000000000E+00 0.  1.
         13    1    1    2    0    0 -0.41859277795E+03  0.14498145928E+03  0.13462931649E+03  0.46299524977E+03  0.10566000000E+00 0. -1.
<mgrwt>
<rscale>  1 0.87051710E+03</rscale>
<asrwt>0</asrwt>
<pdfrwt beam="2">  1       21 0.18732326E+00 0.10903652E+04</pdfrwt>
<pdfrwt beam="1">  1        4 0.89379122E-01 0.10903652E+04</pdfrwt>
<totfact> 0.59362230E+00</totfact>
</mgrwt>
</event>
<event>
 6    1  0.1353269E-005  0.9443100E+03  0.7818608E-02  0.9874814E-01
         21   -1    0    0  501  502  0.00000000000E+00  0.00000000000E+00  0.20348911036E+04  0.20348911036E+04  0.00000000000E+00 0.  1.
          4   -1    0    0  502    0 -0.00000000000E+00 -0.00000000000E+00 -0.18977295594E+03  0.18977295594E+03  0.00000000000E+00 0.  1.
    9000010    2    1    2  501    0 -0.92568482876E+02 -0.14241880594E+03  0.18234109667E+04  0.20534237221E+04  0.92890763190E+03 0.  0.
        -13    1    3    3    0    0 -0.26499664465E+03  0.18998838961E+03  0.15646150494E+04  0.15982299815E+04  0.10566000000E+00 0.  1.
          4    1    3    3  501    0  0.17242816177E+03 -0.33240719555E+03  0.25879591730E+03  0.45519374056E+03  0.00000000000E+00 0.  1.
         13    1    1    2    0    0  0.92568482876E+02  0.14241880594E+03  0.21707180970E+02  0.17124033747E+03  0.10566000000E+00 0. -1.
<mgrwt>
<rscale>  1 0.61497582E+03</rscale>
<asrwt>0</asrwt>
<pdfrwt beam="1">  1       21 0.31306015E+00 0.94431003E+03</pdfrwt>
<pdfrwt beam="2">  1        4 0.29195841E-01 0.94431003E+03</pdfrwt>
<totfact> 0.10140496E+01</totfact>
</mgrwt>
</event>
<event>
 6    1  0.1353269E-005  0.9984422E+03  0.7818608E-02  0.1000419E+00
          4   -1    0    0  502    0 -0.00000000000E+00  0.00000000000E+00  0.36895213923E+03  0.36895213923E+03  0.00000000000E+00 0.  1.
         21   -1    0    0  501  502  0.00000000000E+00 -0.00000000000E+00 -0.94351285791E+03  0.94351285791E+03  0.00000000000E+00 0.  1.
    9000010    2    1    2  501    0  0.91649167659E+02 -0.25370476662E+02 -0.64974258410E+03  0.11912397726E+04  0.99390318399E+03 0.  0.
        -13    1    3    3    0    0  0.33028067307E+03 -0.33046972087E+03 -0.40078009415E+02  0.46893690132E+03  0.10566000000E+00 0.  1.
          4    1    3    3  501    0 -0.23863150542E+03  0.30509924421E+03 -0.60966457469E+03  0.72230287126E+03  0.00000000000E+00 0.  1.
         13    1    1    2    0    0 -0.91649167659E+02  0.25370476662E+02  0.75181865424E+02  0.12122522457E+03  0.10566000000E+00 0. -1.
<mgrwt>
<rscale>  1 0.55466748E+03</rscale>
<asrwt>0</asrwt>
<pdfrwt beam="2">  1       21 0.14515582E+00 0.99844217E+03</pdfrwt>
<pdfrwt beam="1">  1        4 0.56761868E-01 0.99844217E+03</pdfrwt>
<totfact> 0.34932168E+01</totfact>
</mgrwt>
</event>
<event>
 6    1  0.1353269E-005  0.1239423E+04  0.7818608E-02  0.1007187E+00
          4   -1    0    0  502    0 -0.00000000000E+00  0.00000000000E+00  0.79489072432E+03  0.79489072432E+03  0.00000000000E+00 0.  1.
         21   -1    0    0  501  502  0.00000000000E+00 -0.00000000000E+00 -0.53173274806E+03  0.53173274806E+03  0.00000000000E+00 0.  1.
    9000010    2    1    2  501    0  0.26416216366E+02  0.30342120629E+02  0.20553927150E+03  0.12563498139E+04  0.12387695516E+04 0.  0.
        -13    1    3    3    0    0 -0.58818273704E+03  0.25237021046E+02 -0.49744235832E+02  0.59082174938E+03  0.10566000000E+00 0.  1.
          4    1    3    3  501    0  0.61459895341E+03  0.51050995831E+01  0.25528350734E+03  0.66552806454E+03  0.00000000000E+00 0.  1.
         13    1    1    2    0    0 -0.26416216366E+02 -0.30342120629E+02  0.57618704756E+02  0.70273658459E+02  0.10566000000E+00 0. -1.
<mgrwt>
<rscale>  1 0.52608112E+03</rscale>
<asrwt>0</asrwt>
<pdfrwt beam="2">  1       21 0.81805039E-01 0.12394226E+04</pdfrwt>
<pdfrwt beam="1">  1        4 0.12229088E+00 0.12394226E+04</pdfrwt>
<totfact> 0.24652642E+01</totfact>
</mgrwt>
</event>
<event>
 6    1  0.1353269E-005  0.1026419E+04  0.7818608E-02  0.9674682E-01
         21   -1    0    0  501  502  0.00000000000E+00  0.00000000000E+00  0.16810306179E+04  0.16810306179E+04  0.00000000000E+00 0.  1.
          4   -1    0    0  502    0 -0.00000000000E+00 -0.00000000000E+00 -0.26468688783E+03  0.26468688783E+03  0.00000000000E+00 0.  1.
    9000010    2    1    2  501    0  0.16126875739E+03 -0.19897047080E+03  0.13199354460E+04  0.16720545218E+04  0.99395164972E+03 0.  0.
        -13    1    3    3    0    0  0.68246902946E+02 -0.23891386553E+03  0.14701014658E+04  0.14909513090E+04  0.10566000000E+00 0.  1.
          4    1    3    3  501    0  0.93021854448E+02  0.39943394735E+02 -0.15016601980E+03  0.18110321281E+03  0.00000000000E+00 0.  1.
         13    1    1    2    0    0 -0.16126875739E+03  0.19897047080E+03  0.96408284057E+02  0.27366298390E+03  0.10566000000E+00 0. -1.
<mgrwt>
<rscale>  1 0.72544422E+03</rscale>
<asrwt>0</asrwt>
<pdfrwt beam="1">  1       21 0.25862009E+00 0.10264194E+04</pdfrwt>
<pdfrwt beam="2">  1        4 0.40721061E-01 0.10264194E+04</pdfrwt>
<totfact> 0.11252642E+01</totfact>
</mgrwt>
</event>
<event>
 6    1  0.1353269E-005  0.1028596E+04  0.7818608E-02  0.9758904E-01
         21   -1    0    0  501  502  0.00000000000E+00  0.00000000000E+00  0.10191075867E+04  0.10191075867E+04  0.00000000000E+00 0. -1.
          4   -1    0    0  502    0 -0.00000000000E+00 -0.00000000000E+00 -0.36631974390E+03  0.36631974390E+03  0.00000000000E+00 0.  1.
    9000010    2    1    2  501    0 -0.71667723797E+02  0.17819318101E+03  0.57319198696E+03  0.11775221026E+04  0.10105049114E+04 0.  0.
        -13    1    3    3    0    0 -0.88697488233E+02 -0.41989490992E+03  0.21260578683E+03  0.47893654231E+03  0.10566000000E+00 0.  1.
          4    1    3    3  501    0  0.17029764436E+02  0.59808809093E+03  0.36058620013E+03  0.69858556034E+03  0.00000000000E+00 0.  1.
         13    1    1    2    0    0  0.71667723797E+02 -0.17819318101E+03  0.79595855874E+02  0.20790522800E+03  0.10566000000E+00 0. -1.
<mgrwt>
<rscale>  1 0.67615425E+03</rscale>
<asrwt>0</asrwt>
<pdfrwt beam="1">  1       21 0.15678578E+00 0.10285958E+04</pdfrwt>
<pdfrwt beam="2">  1        4 0.56356884E-01 0.10285958E+04</pdfrwt>
<totfact> 0.28516075E+01</totfact>
</mgrwt>
</event>
<event>
 6    1  0.1353269E-005  0.1016773E+04  0.7818608E-02  0.9692755E-01
         21   -1    0    0  501  502  0.00000000000E+00  0.00000000000E+00  0.28508706069E+03  0.28508706069E+03  0.00000000000E+00 0.  1.
          4   -1    0    0  502    0 -0.00000000000E+00 -0.00000000000E+00 -0.21566083096E+04  0.21566083096E+04  0.00000000000E+00 0.  1.
    9000010    2    1    2  501    0 -0.24720125385E+03  0.19019938584E+02 -0.67658390317E+03  0.12213079362E+04  0.98608167964E+03 0.  0.
        -13    1    3    3    0    0  0.32774985654E+03 -0.11959131490E+03 -0.48928637660E+03  0.60093528816E+03  0.10566000000E+00 0.  1.
          4    1    3    3  501    0 -0.57495111039E+03  0.13861125348E+03 -0.18729752657E+03  0.62037264800E+03  0.00000000000E+00 0.  1.
         13    1    1    2    0    0  0.24720125385E+03 -0.19019938584E+02 -0.11949373457E+04  0.12203874341E+04  0.10566000000E+00 0. -1.
<mgrwt>
<rscale>  1 0.71449814E+03</rscale>
<asrwt>0</asrwt>
<pdfrwt beam="1">  1       21 0.43859549E-01 0.10167730E+04</pdfrwt>
<pdfrwt beam="2">  1        4 0.33178589E+00 0.10167730E+04</pdfrwt>
<totfact> 0.39065846E+00</totfact>
</mgrwt>
</event>
<event>
 6    1  0.1353269E-005  0.8789497E+03  0.7818608E-02  0.9899788E-01
         21   -1    0    0  501  502  0.00000000000E+00  0.00000000000E+00  0.23906812320E+03  0.23906812320E+03  0.00000000000E+00 0.  1.
          4   -1    0    0  502    0 -0.00000000000E+00 -0.00000000000E+00 -0.12121607749E+04  0.12121607749E+04  0.00000000000E+00 0.  1.
    9000010    2    1    2  501    0 -0.18042808642E+03  0.72199730600E+02 -0.83913494800E+03  0.12151954831E+04  0.85719630518E+03 0.  0.
        -13    1    3    3    0    0 -0.12843261637E+03  0.91427457553E+02 -0.10168685971E+04  0.10290168473E+04  0.10566000000E+00 0.  1.
          4    1    3    3  501    0 -0.51995470047E+02 -0.19227726953E+02  0.17773364914E+03  0.18617863579E+03  0.00000000000E+00 0.  1.
         13    1    1    2    0    0  0.18042808642E+03 -0.72199730600E+02 -0.13395770366E+03  0.23603341501E+03  0.10566000000E+00 0. -1.
<mgrwt>
<rscale>  1 0.60271540E+03</rscale>
<asrwt>0</asrwt>
<pdfrwt beam="1">  1       21 0.36779711E-01 0.87894971E+03</pdfrwt>
<pdfrwt beam="2">  1        4 0.18648627E+00 0.87894971E+03</pdfrwt>
<totfact> 0.47184612E+01</totfact>
</mgrwt>
</event>
<event>
 6    1  0.1353269E-005  0.9875187E+03  0.7818608E-02  0.9927565E-01
         21   -1    0    0  501  502  0.00000000000E+00  0.00000000000E+00  0.25846845886E+04  0.25846845886E+04  0.00000000000E+00 0.  1.
          4   -1    0    0  502    0 -0.00000000000E+00 -0.00000000000E+00 -0.12438410220E+03  0.12438410220E+03  0.00000000000E+00 0.  1.
    9000010    2    1    2  501    0  0.13406849739E+02  0.12462823675E+03  0.23170929762E+04  0.25187522618E+04  0.97953108923E+03 0.  0.
        -13    1    3    3    0    0 -0.40424969532E+03  0.32867350684E+03  0.11510025034E+04  0.12634282189E+04  0.10566000000E+00 0.  1.
          4    1    3    3  501    0  0.41765654506E+03 -0.20404527009E+03  0.11660904728E+04  0.12553240429E+04  0.00000000000E+00 0.  1.
         13    1    1    2    0    0 -0.13406849739E+02 -0.12462823675E+03  0.14320751019E+03  0.19031642902E+03  0.10566000000E+00 0. -1.
<mgrwt>
<rscale>  1 0.58943748E+03</rscale>
<asrwt>0</asrwt>
<pdfrwt beam="1">  1       21 0.39764374E+00 0.98751866E+03</pdfrwt>
<pdfrwt beam="2">  1        4 0.19136018E-01 0.98751866E+03</pdfrwt>
<totfact> 0.65179945E+00</totfact>
</mgrwt>
</event>
<event>
 6    1  0.1353269E-005  0.1271958E+04  0.7818608E-02  0.9177477E-01
         21   -1    0    0  501  502  0.00000000000E+00  0.00000000000E+00  0.16232554710E+04  0.16232554710E+04  0.00000000000E+00 0. -1.
          4   -1    0    0  502    0 -0.00000000000E+00 -0.00000000000E+00 -0.74576987475E+03  0.74576987475E+03  0.00000000000E+00 0.  1.
    9000010    2    1    2  501    0  0.26993165141E+03  0.74161897797E+03  0.12418581130E+03  0.12780063807E+04  0.99750508193E+03 0.  0.
        -13    1    3    3    0    0  0.26510112475E+03 -0.19717425800E+03  0.69434815430E+02  0.33760553775E+03  0.10566000000E+00 0.  1.
          4    1    3    3  501    0  0.48305266686E+01  0.93879323597E+03  0.54750995872E+02  0.94040084296E+03  0.00000000000E+00 0.  1.
         13    1    1    2    0    0 -0.26993165141E+03 -0.74161897797E+03  0.75329978496E+03  0.10910189651E+04  0.10566000000E+00 0. -1.
<mgrwt>
<rscale>  1 0.11288954E+04</rscale>
<asrwt>0</asrwt>
<pdfrwt beam="1">  1       21 0.24973161E+00 0.12719584E+04</pdfrwt>
<pdfrwt beam="2">  1        4 0.11473383E+00 0.12719584E+04</pdfrwt>
<totfact> 0.12069869E+00</totfact>
</mgrwt>
</event>
<event>
 6    1  0.1353269E-005  0.1079476E+04  0.7818608E-02  0.9488738E-01
          4   -1    0    0  502    0 -0.00000000000E+00  0.00000000000E+00  0.29703030259E+03  0.29703030259E+03  0.00000000000E+00 0.  1.
         21   -1    0    0  501  502  0.00000000000E+00 -0.00000000000E+00 -0.20653250925E+04  0.20653250925E+04  0.00000000000E+00 0.  1.
    9000010    2    1    2  501    0 -0.41265897171E+03 -0.62214979298E+02 -0.15569700787E+04  0.18945773758E+04  0.99554481386E+03 0.  0.
        -13    1    3    3    0    0 -0.11401077475E+03 -0.52025636374E+03 -0.77912119482E+03  0.94376638431E+03  0.10566000000E+00 0.  1.
          4    1    3    3  501    0 -0.29864819696E+03  0.45804138445E+03 -0.77784888390E+03  0.95081099152E+03  0.00000000000E+00 0.  1.
         13    1    1    2    0    0  0.41265897171E+03  0.62214979298E+02 -0.21132471118E+03  0.46777801925E+03  0.10566000000E+00 0. -1.
<mgrwt>
<rscale>  1 0.85119213E+03</rscale>
<asrwt>0</asrwt>
<pdfrwt beam="2">  1       21 0.31774233E+00 0.10794756E+04</pdfrwt>
<pdfrwt beam="1">  1        4 0.45696969E-01 0.10794756E+04</pdfrwt>
<totfact> 0.37555832E+00</totfact>
</mgrwt>
</event>
<event>
 6    1  0.1353269E-005  0.1000250E+04  0.7818608E-02  0.9881222E-01
          4   -1    0    0  502    0 -0.00000000000E+00  0.00000000000E+00  0.34427759088E+03  0.34427759088E+03  0.00000000000E+00 0.  1.
         21   -1    0    0  501  502  0.00000000000E+00 -0.00000000000E+00 -0.96637476630E+03  0.96637476630E+03  0.00000000000E+00 0.  1.
    9000010    2    1    2  501    0  0.50235597406E+02 -0.13067140313E+03 -0.60657145097E+03  0.11697989223E+04  0.99040494878E+03 0.  0.
        -13    1    3    3    0    0 -0.42898281463E+03 -0.13977544738E+03 -0.50987980059E+03  0.68083834583E+03  0.10566000000E+00 0.  1.
          4    1    3    3  501    0  0.47921841204E+03  0.91040442439E+01 -0.96691650376E+02  0.48896057644E+03  0.00000000000E+00 0.  1.
         13    1    1    2    0    0 -0.50235597406E+02  0.13067140313E+03 -0.15525724441E+02  0.14085343491E+03  0.10566000000E+00 0. -1.
<mgrwt>
<rscale>  1 0.61180040E+03</rscale>
<asrwt>0</asrwt>
<pdfrwt beam="2">  1       21 0.14867304E+00 0.10002503E+04</pdfrwt>
<pdfrwt beam="1">  1        4 0.52965783E-01 0.10002503E+04</pdfrwt>
<totfact> 0.37915552E+01</totfact>
</mgrwt>
</event>
<event>
 6    1  0.1353269E-005  0.1122919E+04  0.7818608E-02  0.9390052E-01
         21   -1    0    0  501  502  0.00000000000E+00  0.00000000000E+00  0.44848862982E+03  0.44848862982E+03  0.00000000000E+00 0. -1.
          4   -1    0    0  502    0 -0.00000000000E+00 -0.00000000000E+00 -0.15659516974E+04  0.15659516974E+04  0.00000000000E+00 0.  1.
    9000010    2    1    2  501    0 -0.36844197001E+03 -0.37542100987E+03 -0.92320193297E+03  0.14537016898E+04  0.99209695798E+03 0.  0.
        -13    1    3    3    0    0  0.42665882376E+02 -0.51068653020E+03 -0.97795813253E+02  0.52171365892E+03  0.10566000000E+00 0.  1.
          4    1    3    3  501    0 -0.41110785239E+03  0.13526552033E+03 -0.82540611972E+03  0.93198803091E+03  0.00000000000E+00 0.  1.
         13    1    1    2    0    0  0.36844197001E+03  0.37542100987E+03 -0.19426113464E+03  0.56073863744E+03  0.10566000000E+00 0. -1.
<mgrwt>
<rscale>  1 0.92898908E+03</rscale>
<asrwt>0</asrwt>
<pdfrwt beam="1">  1       21 0.68998252E-01 0.11229189E+04</pdfrwt>
<pdfrwt beam="2">  1        4 0.24091564E+00 0.11229189E+04</pdfrwt>
<totfact> 0.52144662E+00</totfact>
</mgrwt>
</event>
<event>
 6    1  0.1353269E-005  0.1045263E+04  0.7818608E-02  0.9575888E-01
          4   -1    0    0  502    0 -0.00000000000E+00  0.00000000000E+00  0.88177177646E+03  0.88177177646E+03  0.00000000000E+00 0.  1.
         21   -1    0    0  501  502  0.00000000000E+00 -0.00000000000E+00 -0.54716353796E+03  0.54716353796E+03  0.00000000000E+00 0.  1.
    9000010    2    1    2  501    0 -0.18580409628E+03  0.28421196549E+03  0.20316439366E+03  0.10648239317E+04  0.98857201616E+03 0.  0.
        -13    1    3    3    0    0 -0.23333269715E+03 -0.26024941339E+03 -0.18404457427E+03  0.39502698795E+03  0.10566000000E+00 0.  1.
          4    1    3    3  501    0  0.47528600871E+02  0.54446137888E+03  0.38720896793E+03  0.66979694374E+03  0.00000000000E+00 0.  1.
         13    1    1    2    0    0  0.18580409628E+03 -0.28421196549E+03  0.13144384484E+03  0.36411138273E+03  0.10566000000E+00 0. -1.
<mgrwt>
<rscale>  1 0.78912825E+03</rscale>
<asrwt>0</asrwt>
<pdfrwt beam="2">  1       21 0.84179006E-01 0.10452628E+04</pdfrwt>
<pdfrwt beam="1">  1        4 0.13565720E+00 0.10452628E+04</pdfrwt>
<totfact> 0.17937513E+01</totfact>
</mgrwt>
</event>
<event>
 6    1  0.1353269E-005  0.1007572E+04  0.7818608E-02  0.1025801E+00
          4   -1    0    0  502    0 -0.00000000000E+00  0.00000000000E+00  0.19283959843E+04  0.19283959843E+04  0.00000000000E+00 0.  1.
         21   -1    0    0  501  502  0.00000000000E+00 -0.00000000000E+00 -0.14572115162E+03  0.14572115162E+03  0.00000000000E+00 0.  1.
    9000010    2    1    2  501    0  0.38418660104E+02 -0.18069344039E+02  0.16356130209E+04  0.19210495617E+04  0.10066771924E+04 0.  0.
        -13    1    3    3    0    0  0.10718338221E+03  0.20584202694E+03  0.16684618052E+04  0.16845248659E+04  0.10566000000E+00 0.  1.
          4    1    3    3  501    0 -0.68764722102E+02 -0.22391137098E+03 -0.32848784282E+02  0.23652469573E+03  0.00000000000E+00 0.  1.
         13    1    1    2    0    0 -0.38418660104E+02  0.18069344039E+02  0.14706181178E+03  0.15306757425E+03  0.10566000000E+00 0. -1.
<mgrwt>
<rscale>  1 0.45650094E+03</rscale>
<asrwt>0</asrwt>
<pdfrwt beam="2">  1       21 0.22418640E-01 0.10075721E+04</pdfrwt>
<pdfrwt beam="1">  1        4 0.29667629E+00 0.10075721E+04</pdfrwt>
<totfact> 0.25360985E+01</totfact>
</mgrwt>
</event>
<event>
 6    1  0.1353269E-005  0.1016131E+04  0.7818608E-02  0.9769838E-01
          4   -1    0    0  502    0 -0.00000000000E+00  0.00000000000E+00  0.22390410220E+04  0.22390410220E+04  0.00000000000E+00 0.  1.
         21   -1    0    0  501  502  0.00000000000E+00 -0.00000000000E+00 -0.16375336410E+03  0.16375336410E+03  0.00000000000E+00 0.  1.
    9000010    2    1    2  501    0  0.19017687206E+03  0.27409781742E+02  0.18014590751E+04  0.20682788518E+04  0.99779961443E+03 0.  0.
        -13    1    3    3    0    0  0.57705432136E+03 -0.10797960780E+03  0.12517321153E+04  0.13825644959E+04  0.10566000000E+00 0.  1.
          4    1    3    3  501    0 -0.38687744930E+03  0.13538938955E+03  0.54972695979E+03  0.68571435591E+03  0.00000000000E+00 0.  1.
         13    1    1    2    0    0 -0.19017687206E+03 -0.27409781742E+02  0.27382858280E+03  0.33451553435E+03  0.10566000000E+00 0. -1.
<mgrwt>
<rscale>  1 0.67006660E+03</rscale>
<asrwt>0</asrwt>
<pdfrwt beam="2">  1       21 0.25192827E-01 0.10161312E+04</pdfrwt>
<pdfrwt beam="1">  1        4 0.34446783E+00 0.10161312E+04</pdfrwt>
<totfact> 0.10079348E+01</totfact>
</mgrwt>
</event>
<event>
 6    1  0.1353269E-005  0.1131243E+04  0.7818608E-02  0.9503670E-01
          4   -1    0    0  502    0 -0.00000000000E+00  0.00000000000E+00  0.65879934177E+03  0.65879934177E+03  0.00000000000E+00 0.  1.
         21   -1    0    0  501  502  0.00000000000E+00 -0.00000000000E+00 -0.11352063521E+04  0.11352063521E+04  0.00000000000E+00 0.  1.
    9000010    2    1    2  501    0 -0.17058928322E+03  0.29888344218E+03 -0.74751186309E+03  0.13559076820E+04  0.10776268562E+04 0.  0.
        -13    1    3    3    0    0 -0.17618517376E+03 -0.32657606493E+03 -0.61231791528E+03  0.71597931687E+03  0.10566000000E+00 0.  1.
          4    1    3    3  501    0  0.55958905392E+01  0.62545950712E+03 -0.13519394781E+03  0.63992836518E+03  0.00000000000E+00 0.  1.
         13    1    1    2    0    0  0.17058928322E+03 -0.29888344218E+03  0.27110485280E+03  0.43809801179E+03  0.10566000000E+00 0. -1.
<mgrwt>
<rscale>  1 0.84013812E+03</rscale>
<asrwt>0</asrwt>
<pdfrwt beam="2">  1       21 0.17464713E+00 0.11312434E+04</pdfrwt>
<pdfrwt beam="1">  1        4 0.10135375E+00 0.11312434E+04</pdfrwt>
<totfact> 0.54080139E+00</totfact>
</mgrwt>
</event>
<event>
 6    1  0.1353269E-005  0.1283561E+04  0.7818608E-02  0.9188382E-01
          4   -1    0    0  502    0 -0.00000000000E+00  0.00000000000E+00  0.90238748175E+03  0.90238748175E+03  0.00000000000E+00 0.  1.
         21   -1    0    0  501  502  0.00000000000E+00 -0.00000000000E+00 -0.11373670756E+04  0.11373670756E+04  0.00000000000E+00 0. -1.
    9000010    2    1    2  501    0  0.43926680010E+03 -0.59208608616E+03 -0.77599804702E+02  0.12859046623E+04  0.10507177622E+04 0.  0.
        -13    1    3    3    0    0 -0.11299098137E+03 -0.62294662355E+03  0.20408190195E+03  0.66519086850E+03  0.10566000000E+00 0.  1.
          4    1    3    3  501    0  0.55225778147E+03  0.30860537390E+02 -0.28168170665E+03  0.62071379381E+03  0.00000000000E+00 0.  1.
         13    1    1    2    0    0 -0.43926680010E+03  0.59208608616E+03 -0.15737978917E+03  0.75384989507E+03  0.10566000000E+00 0. -1.
<mgrwt>
<rscale>  1 0.11174151E+04</rscale>
<asrwt>0</asrwt>
<pdfrwt beam="2">  1       21 0.17497955E+00 0.12835611E+04</pdfrwt>
<pdfrwt beam="1">  1        4 0.13882884E+00 0.12835611E+04</pdfrwt>
<totfact> 0.23890829E+00</totfact>
</mgrwt>
</event>
<event>
 6    1  0.1353269E-005  0.7378677E+03  0.7818608E-02  0.1009987E+00
          4   -1    0    0  502    0 -0.00000000000E+00  0.00000000000E+00  0.38291509881E+03  0.38291509881E+03  0.00000000000E+00 0.  1.
         21   -1    0    0  501  502  0.00000000000E+00 -0.00000000000E+00 -0.11542383294E+04  0.11542383294E+04  0.00000000000E+00 0.  1.
    9000010    2    1    2  501    0  0.29858272691E-01  0.17482811248E+03 -0.10040844384E+04  0.12460475010E+04  0.71685699106E+03 0.  0.
        -13    1    3    3    0    0 -0.23465046874E+03  0.31597271414E+03 -0.31358611706E+03  0.50322545895E+03  0.10566000000E+00 0.  1.
          4    1    3    3  501    0  0.23468032701E+03 -0.14114460166E+03 -0.69049832129E+03  0.74282204206E+03  0.00000000000E+00 0.  1.
         13    1    1    2    0    0 -0.29858272691E-01 -0.17482811248E+03  0.23276120780E+03  0.29110592716E+03  0.10566000000E+00 0. -1.
<mgrwt>
<rscale>  1 0.51479786E+03</rscale>
<asrwt>0</asrwt>
<pdfrwt beam="2">  1       21 0.17757512E+00 0.73786775E+03</pdfrwt>
<pdfrwt beam="1">  1        4 0.58910016E-01 0.73786775E+03</pdfrwt>
<totfact> 0.18753810E+01</totfact>
</mgrwt>
</event>
<event>
 6    1  0.1353269E-005  0.9993883E+03  0.7818608E-02  0.9988441E-01
         21   -1    0    0  501  502  0.00000000000E+00  0.00000000000E+00  0.41361056003E+03  0.41361056003E+03  0.00000000000E+00 0.  1.
          4   -1    0    0  502    0 -0.00000000000E+00 -0.00000000000E+00 -0.73569305194E+03  0.73569305194E+03  0.00000000000E+00 0.  1.
    9000010    2    1    2  501    0  0.93392102393E+01  0.99217744188E+02 -0.32088525276E+03  0.10496400471E+04  0.99440711054E+03 0.  0.
        -13    1    3    3    0    0 -0.42118125897E+03  0.71691033580E+02 -0.42841676514E+03  0.60504065402E+03  0.10566000000E+00 0.  1.
          4    1    3    3  501    0  0.43052046921E+03  0.27526710608E+02  0.10753151238E+03  0.44459939311E+03  0.00000000000E+00 0.  1.
         13    1    1    2    0    0 -0.93392102393E+01 -0.99217744188E+02 -0.11972391542E+01  0.99663564833E+02  0.10566000000E+00 0. -1.
<mgrwt>
<rscale>  1 0.56159988E+03</rscale>
<asrwt>0</asrwt>
<pdfrwt beam="1">  1       21 0.63632394E-01 0.99938825E+03</pdfrwt>
<pdfrwt beam="2">  1        4 0.11318355E+00 0.99938825E+03</pdfrwt>
<totfact> 0.54476803E+01</totfact>
</mgrwt>
</event>
<event>
 6    1  0.1353269E-005  0.1040896E+04  0.7818608E-02  0.9766387E-01
          4   -1    0    0  502    0 -0.00000000000E+00  0.00000000000E+00  0.57927981008E+03  0.57927981008E+03  0.00000000000E+00 0.  1.
         21   -1    0    0  501  502  0.00000000000E+00 -0.00000000000E+00 -0.64618571664E+03  0.64618571664E+03  0.00000000000E+00 0.  1.
    9000010    2    1    2  501    0  0.14821089799E+03 -0.10355142137E+03 -0.32401134668E+02  0.10414004361E+04  0.10250734937E+04 0.  0.
        -13    1    3    3    0    0  0.35980750018E+03  0.13092859329E+03 -0.40204708093E+03  0.55519870333E+03  0.10566000000E+00 0.  1.
          4    1    3    3  501    0 -0.21159660219E+03 -0.23448001466E+03  0.36964594626E+03  0.48620173274E+03  0.00000000000E+00 0.  1.
         13    1    1    2    0    0 -0.14821089799E+03  0.10355142137E+03 -0.34504771886E+02  0.18406509065E+03  0.10566000000E+00 0. -1.
<mgrwt>
<rscale>  1 0.67198020E+03</rscale>
<asrwt>0</asrwt>
<pdfrwt beam="2">  1       21 0.99413188E-01 0.10408963E+04</pdfrwt>
<pdfrwt beam="1">  1        4 0.89119970E-01 0.10408963E+04</pdfrwt>
<totfact> 0.33807778E+01</totfact>
</mgrwt>
</event>
<event>
 6    1  0.1353269E-005  0.1018932E+04  0.7818608E-02  0.9750272E-01
         21   -1    0    0  501  502  0.00000000000E+00  0.00000000000E+00  0.38022325879E+03  0.38022325879E+03  0.00000000000E+00 0.  1.
          4   -1    0    0  502    0 -0.00000000000E+00 -0.00000000000E+00 -0.10516851153E+04  0.10516851153E+04  0.00000000000E+00 0.  1.
    9000010    2    1    2  501    0 -0.76318491679E+02  0.18845063970E+03 -0.40437505530E+03  0.10962395994E+04  0.99844074341E+03 0.  0.
        -13    1    3    3    0    0 -0.27355463062E+03  0.48717977231E+03 -0.34174908796E+01  0.55873782482E+03  0.10566000000E+00 0.  1.
          4    1    3    3  501    0  0.19723613894E+03 -0.29872913260E+03 -0.40095756442E+03  0.53750177454E+03  0.00000000000E+00 0.  1.
         13    1    1    2    0    0  0.76318491679E+02 -0.18845063970E+03 -0.26708680117E+03  0.33566877469E+03  0.10566000000E+00 0. -1.
<mgrwt>
<rscale>  1 0.68100884E+03</rscale>
<asrwt>0</asrwt>
<pdfrwt beam="1">  1       21 0.58495886E-01 0.10189318E+04</pdfrwt>
<pdfrwt beam="2">  1        4 0.16179771E+00 0.10189318E+04</pdfrwt>
<totfact> 0.25860687E+01</totfact>
</mgrwt>
</event>
<event>
 6    1  0.1353269E-005  0.8332256E+03  0.7818608E-02  0.9752852E-01
         21   -1    0    0  501  502  0.00000000000E+00  0.00000000000E+00  0.47222926917E+03  0.47222926917E+03  0.00000000000E+00 0.  1.
          4   -1    0    0  502    0 -0.00000000000E+00 -0.00000000000E+00 -0.80961140950E+03  0.80961140950E+03  0.00000000000E+00 0.  1.
    9000010    2    1    2  501    0  0.10401072528E+03 -0.35366608274E+03 -0.37015092038E+03  0.91174375466E+03  0.74723961434E+03 0.  0.
        -13    1    3    3    0    0 -0.15537247229E+03 -0.35588844541E+03 -0.49065118279E+03  0.62572820382E+03  0.10566000000E+00 0.  1.
          4    1    3    3  501    0  0.25938319757E+03  0.22223626730E+01  0.12050026241E+03  0.28601555083E+03  0.00000000000E+00 0.  1.
         13    1    1    2    0    0 -0.10401072528E+03  0.35366608274E+03  0.32768780048E+02  0.37009692401E+03  0.10566000000E+00 0. -1.
<mgrwt>
<rscale>  1 0.67955347E+03</rscale>
<asrwt>0</asrwt>
<pdfrwt beam="1">  1       21 0.72650657E-01 0.83322564E+03</pdfrwt>
<pdfrwt beam="2">  1        4 0.12455560E+00 0.83322564E+03</pdfrwt>
<totfact> 0.32189026E+01</totfact>
</mgrwt>
</event>
<event>
 6    1  0.1353269E-005  0.9772752E+03  0.7818608E-02  0.9909127E-01
         21   -1    0    0  501  502  0.00000000000E+00  0.00000000000E+00  0.12045834811E+04  0.12045834811E+04  0.00000000000E+00 0.  1.
          4   -1    0    0  502    0 -0.00000000000E+00 -0.00000000000E+00 -0.37900717695E+03  0.37900717695E+03  0.00000000000E+00 0.  1.
    9000010    2    1    2  501    0  0.13633863605E+03 -0.15374682424E+02  0.97518226074E+03  0.13805966730E+04  0.96759605585E+03 0.  0.
        -13    1    3    3    0    0  0.20954006226E+03 -0.18094285132E+03 -0.96913141252E+02  0.29332494140E+03  0.10566000000E+00 0.  1.
          4    1    3    3  501    0 -0.73201426211E+02  0.16556816890E+03  0.10720954020E+04  0.10872717316E+04  0.00000000000E+00 0.  1.
         13    1    1    2    0    0 -0.13633863605E+03  0.15374682424E+02 -0.14960595661E+03  0.20299398503E+03  0.10566000000E+00 0. -1.
<mgrwt>
<rscale>  1 0.59820964E+03</rscale>
<asrwt>0</asrwt>
<pdfrwt beam="1">  1       21 0.18532053E+00 0.97727516E+03</pdfrwt>
<pdfrwt beam="2">  1        4 0.58308797E-01 0.97727516E+03</pdfrwt>
<totfact> 0.16307731E+01</totfact>
</mgrwt>
</event>
<event>
 6    1  0.3531246E-005  0.7214919E+03  0.7818608E-02  0.1019160E+00
          4   -1    0    0  502    0 -0.00000000000E+00  0.00000000000E+00  0.29229138018E+03  0.29229138018E+03  0.00000000000E+00 0.  1.
         21   -1    0    0  501  502  0.00000000000E+00 -0.00000000000E+00 -0.87178069127E+03  0.87178069127E+03  0.00000000000E+00 0.  1.
    9000010    2    1    2  501    0  0.13165208728E+03  0.51139244129E+02 -0.67943401079E+03  0.99105054523E+03  0.70753311852E+03 0.  0.
        -13    1    3    3    0    0  0.14896782189E+03 -0.23424878212E+03 -0.64608461799E+03  0.70319929511E+03  0.10566000000E+00 0.  1.
          4    1    3    3  501    0 -0.17315734605E+02  0.28538802625E+03 -0.33349392803E+02  0.28785125011E+03  0.00000000000E+00 0.  1.
         13    1    1    2    0    0 -0.13165208728E+03 -0.51139244129E+02  0.99944699704E+02  0.17302152623E+03  0.10566000000E+00 0. -1.
<mgrwt>
<rscale>  1 0.47990987E+03</rscale>
<asrwt>0</asrwt>
<pdfrwt beam="2">  1       21 0.13412011E+00 0.72149193E+03</pdfrwt>
<pdfrwt beam="1">  1        4 0.44967905E-01 0.72149193E+03</pdfrwt>
<totfact> 0.72872102E+01</totfact>
</mgrwt>
</event>
<event>
 6    1  0.1353269E-005  0.1056893E+04  0.7818608E-02  0.9562387E-01
         21   -1    0    0  501  502  0.00000000000E+00  0.00000000000E+00  0.67419202629E+03  0.67419202629E+03  0.00000000000E+00 0.  1.
          4   -1    0    0  502    0 -0.00000000000E+00 -0.00000000000E+00 -0.80718513712E+03  0.80718513712E+03  0.00000000000E+00 0.  1.
    9000010    2    1    2  501    0  0.28534418693E+03  0.19234961870E+03  0.10631306364E+03  0.10622266688E+04  0.99930142980E+03 0.  0.
        -13    1    3    3    0    0  0.26875084753E+03  0.20827016406E+02  0.53562056393E+03  0.59962503477E+03  0.10566000000E+00 0.  1.
          4    1    3    3  501    0  0.16593339400E+02  0.17152260229E+03 -0.42930750029E+03  0.46260163404E+03  0.00000000000E+00 0.  1.
         13    1    1    2    0    0 -0.28534418693E+03 -0.19234961870E+03 -0.23930617446E+03  0.41915049460E+03  0.10566000000E+00 0. -1.
<mgrwt>
<rscale>  1 0.79836463E+03</rscale>
<asrwt>0</asrwt>
<pdfrwt beam="1">  1       21 0.10372185E+00 0.10568931E+04</pdfrwt>
<pdfrwt beam="2">  1        4 0.12418233E+00 0.10568931E+04</pdfrwt>
<totfact> 0.13508512E+01</totfact>
</mgrwt>
</event>
<event>
 6    1  0.1353269E-005  0.1132299E+04  0.7818608E-02  0.9361901E-01
          4   -1    0    0  502    0 -0.00000000000E+00  0.00000000000E+00  0.50993379292E+03  0.50993379292E+03  0.00000000000E+00 0.  1.
         21   -1    0    0  501  502  0.00000000000E+00 -0.00000000000E+00 -0.14176949283E+04  0.14176949283E+04  0.00000000000E+00 0. -1.
    9000010    2    1    2  501    0  0.31918864056E+03  0.46943611722E+03 -0.62735322870E+03  0.12944776637E+04  0.97971867990E+03 0.  0.
        -13    1    3    3    0    0 -0.11683296183E+03 -0.11900168351E+03  0.15154605655E+03  0.22533876734E+03  0.10566000000E+00 0.  1.
          4    1    3    3  501    0  0.43602160239E+03  0.58843780073E+03 -0.77889928525E+03  0.10691388963E+04  0.00000000000E+00 0.  1.
         13    1    1    2    0    0 -0.31918864056E+03 -0.46943611722E+03 -0.28040790673E+03  0.63315105760E+03  0.10566000000E+00 0. -1.
<mgrwt>
<rscale>  1 0.95278553E+03</rscale>
<asrwt>0</asrwt>
<pdfrwt beam="2">  1       21 0.21810691E+00 0.11322987E+04</pdfrwt>
<pdfrwt beam="1">  1        4 0.78451353E-01 0.11322987E+04</pdfrwt>
<totfact> 0.49109364E+00</totfact>
</mgrwt>
</event>
<event>
 6    1  0.1353269E-005  0.1004697E+04  0.7818608E-02  0.9802254E-01
         21   -1    0    0  501  502  0.00000000000E+00  0.00000000000E+00  0.33394395234E+03  0.33394395234E+03  0.00000000000E+00 0.  1.
          4   -1    0    0  502    0 -0.00000000000E+00 -0.00000000000E+00 -0.11560155543E+04  0.11560155543E+04  0.00000000000E+00 0.  1.
    9000010    2    1    2  501    0  0.17594686967E+03  0.30943581555E+02 -0.50135036402E+03  0.11228397308E+04  0.98868704218E+03 0.  0.
        -13    1    3    3    0    0 -0.21761032445E+03 -0.36620297049E+03 -0.10872564331E+03  0.43963637882E+03  0.10566000000E+00 0.  1.
          4    1    3    3  501    0  0.39355719413E+03  0.39714655204E+03 -0.39262472071E+03  0.68320335199E+03  0.00000000000E+00 0.  1.
         13    1    1    2    0    0 -0.17594686967E+03 -0.30943581555E+02 -0.32072123793E+03  0.36711977584E+03  0.10566000000E+00 0. -1.
<mgrwt>
<rscale>  1 0.65241736E+03</rscale>
<asrwt>0</asrwt>
<pdfrwt beam="1">  1       21 0.51375994E-01 0.10046974E+04</pdfrwt>
<pdfrwt beam="2">  1        4 0.17784854E+00 0.10046974E+04</pdfrwt>
<totfact> 0.26374072E+01</totfact>
</mgrwt>
</event>
<event>
 6    1  0.1353269E-005  0.1031203E+04  0.7818608E-02  0.9716832E-01
          4   -1    0    0  502    0 -0.00000000000E+00  0.00000000000E+00  0.16889579469E+04  0.16889579469E+04  0.00000000000E+00 0.  1.
         21   -1    0    0  501  502  0.00000000000E+00 -0.00000000000E+00 -0.25905139433E+03  0.25905139433E+03  0.00000000000E+00 0.  1.
    9000010    2    1    2  501    0 -0.23539092271E+02  0.21798354649E+03  0.13807334894E+04  0.17233119521E+04  0.10076250295E+04 0.  0.
        -13    1    3    3    0    0 -0.44706795224E+03 -0.71716462558E+02  0.95373136328E+03  0.10557540099E+04  0.10566000000E+00 0.  1.
          4    1    3    3  501    0  0.42352885997E+03  0.28970000905E+03  0.42700212611E+03  0.66755794218E+03  0.00000000000E+00 0.  1.
         13    1    1    2    0    0  0.23539092271E+02 -0.21798354649E+03  0.49173063219E+02  0.22469738920E+03  0.10566000000E+00 0. -1.
<mgrwt>
<rscale>  1 0.70023435E+03</rscale>
<asrwt>0</asrwt>
<pdfrwt beam="2">  1       21 0.39854062E-01 0.10312028E+04</pdfrwt>
<pdfrwt beam="1">  1        4 0.25983968E+00 0.10312028E+04</pdfrwt>
<totfact> 0.13347201E+01</totfact>
</mgrwt>
</event>
<event>
 6    1  0.1353269E-005  0.1003188E+04  0.7818608E-02  0.9927882E-01
          4   -1    0    0  502    0 -0.00000000000E+00  0.00000000000E+00  0.23425001210E+03  0.23425001210E+03  0.00000000000E+00 0.  1.
         21   -1    0    0  501  502  0.00000000000E+00 -0.00000000000E+00 -0.22861713243E+04  0.22861713243E+04  0.00000000000E+00 0.  1.
    9000010    2    1    2  501    0 -0.92260294830E+02  0.75861368325E+02 -0.21456543571E+04  0.23685898374E+04  0.99605134820E+03 0.  0.
        -13    1    3    3    0    0  0.22343696483E+03 -0.18560327331E+03 -0.18255064581E+04  0.18484713933E+04  0.10566000000E+00 0.  1.
          4    1    3    3  501    0 -0.31569725966E+03  0.26146464163E+03 -0.32014789909E+03  0.52011844408E+03  0.00000000000E+00 0.  1.
         13    1    1    2    0    0  0.92260294830E+02 -0.75861368325E+02  0.93733044960E+02  0.15183149900E+03  0.10566000000E+00 0. -1.
<mgrwt>
<rscale>  1 0.58928837E+03</rscale>
<asrwt>0</asrwt>
<pdfrwt beam="2">  1       21 0.35171867E+00 0.10031875E+04</pdfrwt>
<pdfrwt beam="1">  1        4 0.36038463E-01 0.10031875E+04</pdfrwt>
<totfact> 0.37876263E+00</totfact>
</mgrwt>
</event>
<event>
 6    1  0.1353269E-005  0.9995580E+03  0.7818608E-02  0.1000685E+00
         21   -1    0    0  501  502  0.00000000000E+00  0.00000000000E+00  0.22997061047E+03  0.22997061047E+03  0.00000000000E+00 0.  1.
          4   -1    0    0  502    0 -0.00000000000E+00 -0.00000000000E+00 -0.14615602036E+04  0.14615602036E+04  0.00000000000E+00 0.  1.
    9000010    2    1    2  501    0  0.67234417818E+02  0.65675159687E+02 -0.89374614456E+03  0.13408573186E+04  0.99512938069E+03 0.  0.
        -13    1    3    3    0    0 -0.29327415181E+03  0.10880382808E+03 -0.92497676852E+03  0.97643741970E+03  0.10566000000E+00 0.  1.
          4    1    3    3  501    0  0.36050856963E+03 -0.43128668394E+02  0.31230623967E+02  0.36441989886E+03  0.00000000000E+00 0.  1.
         13    1    1    2    0    0 -0.67234417818E+02 -0.65675159687E+02 -0.33784344854E+03  0.35067349547E+03  0.10566000000E+00 0. -1.
<mgrwt>
<rscale>  1 0.55350794E+03</rscale>
<asrwt>0</asrwt>
<pdfrwt beam="1">  1       21 0.35380092E-01 0.99955799E+03</pdfrwt>
<pdfrwt beam="2">  1        4 0.22485543E+00 0.99955799E+03</pdfrwt>
<totfact> 0.28331911E+01</totfact>
</mgrwt>
</event>
<event>
 6    1  0.1353269E-005  0.1194251E+04  0.7818608E-02  0.9434158E-01
         21   -1    0    0  501  502  0.00000000000E+00  0.00000000000E+00  0.74774393731E+03  0.74774393731E+03  0.00000000000E+00 0. -1.
          4   -1    0    0  502    0 -0.00000000000E+00 -0.00000000000E+00 -0.84460524473E+03  0.84460524473E+03  0.00000000000E+00 0.  1.
    9000010    2    1    2  501    0  0.36679518444E+03 -0.71190894949E+02  0.38700125239E+02  0.11948774673E+04  0.11342960862E+04 0.  0.
        -13    1    3    3    0    0  0.40361780070E+03  0.44743495343E+03  0.22406343651E+03  0.64289174931E+03  0.10566000000E+00 0.  1.
          4    1    3    3  501    0 -0.36822616262E+02 -0.51862584838E+03 -0.18536331127E+03  0.55198571797E+03  0.00000000000E+00 0.  1.
         13    1    1    2    0    0 -0.36679518444E+03  0.71190894949E+02 -0.13556143266E+03  0.39747171477E+03  0.10566000000E+00 0. -1.
<mgrwt>
<rscale>  1 0.89317168E+03</rscale>
<asrwt>0</asrwt>
<pdfrwt beam="1">  1       21 0.11503753E+00 0.11942506E+04</pdfrwt>
<pdfrwt beam="2">  1        4 0.12993927E+00 0.11942506E+04</pdfrwt>
<totfact> 0.91237973E+00</totfact>
</mgrwt>
</event>
<event>
 6    1  0.1353269E-005  0.1046868E+04  0.7818608E-02  0.9583510E-01
         21   -1    0    0  501  502  0.00000000000E+00  0.00000000000E+00  0.71608262176E+03  0.71608262176E+03  0.00000000000E+00 0.  1.
          4   -1    0    0  502    0 -0.00000000000E+00 -0.00000000000E+00 -0.10716779725E+04  0.10716779725E+04  0.00000000000E+00 0.  1.
    9000010    2    1    2  501    0 -0.32797930373E+03  0.28919194731E+02  0.26972333912E+03  0.10810568242E+04  0.99374364605E+03 0.  0.
        -13    1    3    3    0    0 -0.57674798825E+03  0.73207666744E+02  0.47874877422E+03  0.75312549047E+03  0.10566000000E+00 0.  1.
          4    1    3    3  501    0  0.24876868452E+03 -0.44288472012E+02 -0.20902543510E+03  0.32793133377E+03  0.00000000000E+00 0.  1.
         13    1    1    2    0    0  0.32797930373E+03 -0.28919194731E+02 -0.62531868984E+03  0.70670377000E+03  0.10566000000E+00 0. -1.
<mgrwt>
<rscale>  1 0.78397294E+03</rscale>
<asrwt>0</asrwt>
<pdfrwt beam="1">  1       21 0.11016656E+00 0.10468683E+04</pdfrwt>
<pdfrwt beam="2">  1        4 0.16487353E+00 0.10468683E+04</pdfrwt>
<totfact> 0.54753476E+00</totfact>
</mgrwt>
</event>
<event>
 6    1  0.1353269E-005  0.1017550E+04  0.7818608E-02  0.9797136E-01
          4   -1    0    0  502    0 -0.00000000000E+00  0.00000000000E+00  0.12474670261E+04  0.12474670261E+04  0.00000000000E+00 0.  1.
         21   -1    0    0  501  502  0.00000000000E+00 -0.00000000000E+00 -0.37828897565E+03  0.37828897565E+03  0.00000000000E+00 0.  1.
    9000010    2    1    2  501    0 -0.13601897508E+03  0.10991406001E+03  0.34702701921E+03  0.10750982380E+04  0.10024101990E+04 0.  0.
        -13    1    3    3    0    0  0.61166426969E+02  0.53005046795E+03  0.79651458042E+02  0.53948048741E+03  0.10566000000E+00 0.  1.
          4    1    3    3  501    0 -0.19718540205E+03 -0.42013640794E+03  0.26737556117E+03  0.53561775061E+03  0.00000000000E+00 0.  1.
         13    1    1    2    0    0  0.13601897508E+03 -0.10991406001E+03  0.52215103123E+03  0.55065776372E+03  0.10566000000E+00 0. -1.
<mgrwt>
<rscale>  1 0.65516489E+03</rscale>
<asrwt>0</asrwt>
<pdfrwt beam="2">  1       21 0.58198305E-01 0.10175502E+04</pdfrwt>
<pdfrwt beam="1">  1        4 0.19191800E+00 0.10175502E+04</pdfrwt>
<totfact> 0.16034698E+01</totfact>
</mgrwt>
</event>
<event>
 6    1  0.1353269E-005  0.1033437E+04  0.7818608E-02  0.9624605E-01
         21   -1    0    0  501  502  0.00000000000E+00  0.00000000000E+00  0.15702953424E+04  0.15702953424E+04  0.00000000000E+00 0.  1.
          4   -1    0    0  502    0 -0.00000000000E+00 -0.00000000000E+00 -0.29709989686E+03  0.29709989686E+03  0.00000000000E+00 0.  1.
    9000010    2    1    2  501    0 -0.28497467197E+03 -0.84907179768E+02  0.11483509093E+04  0.15448956854E+04  0.98973384049E+03 0.  0.
        -13    1    3    3    0    0 -0.43574256886E+03  0.23636929599E+03  0.20399503755E+03  0.53605598300E+03  0.10566000000E+00 0.  1.
          4    1    3    3  501    0  0.15076789689E+03 -0.32127647576E+03  0.94435587173E+03  0.10088397024E+04  0.00000000000E+00 0.  1.
         13    1    1    2    0    0  0.28497467197E+03  0.84907179768E+02  0.12484453621E+03  0.32249955384E+03  0.10566000000E+00 0. -1.
<mgrwt>
<rscale>  1 0.75688836E+03</rscale>
<asrwt>0</asrwt>
<pdfrwt beam="1">  1       21 0.24158389E+00 0.10334374E+04</pdfrwt>
<pdfrwt beam="2">  1        4 0.45707677E-01 0.10334374E+04</pdfrwt>
<totfact> 0.11367966E+01</totfact>
</mgrwt>
</event>
<event>
 6    1  0.1353269E-005  0.1030842E+04  0.7818608E-02  0.9675373E-01
          4   -1    0    0  502    0 -0.00000000000E+00  0.00000000000E+00  0.14828036647E+04  0.14828036647E+04  0.00000000000E+00 0.  1.
         21   -1    0    0  501  502  0.00000000000E+00 -0.00000000000E+00 -0.49123268715E+03  0.49123268715E+03  0.00000000000E+00 0.  1.
    9000010    2    1    2  501    0 -0.24612831696E+03 -0.55227144812E+02  0.86492463399E+02  0.10344639417E+04  0.99950263360E+03 0.  0.
        -13    1    3    3    0    0 -0.48601270865E+03  0.22068929278E+03 -0.19996054652E+03  0.56999679670E+03  0.10566000000E+00 0.  1.
          4    1    3    3  501    0  0.23988439170E+03 -0.27591643760E+03  0.28645300992E+03  0.46446714502E+03  0.00000000000E+00 0.  1.
         13    1    1    2    0    0  0.24612831696E+03  0.55227144812E+02  0.90507851420E+03  0.93957241017E+03  0.10566000000E+00 0. -1.
<mgrwt>
<rscale>  1 0.72502178E+03</rscale>
<asrwt>0</asrwt>
<pdfrwt beam="2">  1       21 0.75574260E-01 0.10308417E+04</pdfrwt>
<pdfrwt beam="1">  1        4 0.22812364E+00 0.10308417E+04</pdfrwt>
<totfact> 0.51429829E+00</totfact>
</mgrwt>
</event>
<event>
 6    1  0.1353269E-005  0.1015366E+04  0.7818608E-02  0.9869657E-01
         21   -1    0    0  501  502  0.00000000000E+00  0.00000000000E+00  0.56666239898E+03  0.56666239898E+03  0.00000000000E+00 0.  1.
          4   -1    0    0  502    0 -0.00000000000E+00 -0.00000000000E+00 -0.66255224692E+03  0.66255224692E+03  0.00000000000E+00 0.  1.
    9000010    2    1    2  501    0  0.13877403934E+03  0.66819252117E+01  0.64017062135E+02  0.10173818978E+04  0.10058155197E+04 0.  0.
        -13    1    3    3    0    0 -0.29836842375E+03  0.33205016418E+03 -0.80492785190E+02  0.45360790056E+03  0.10566000000E+00 0.  1.
          4    1    3    3  501    0  0.43714246309E+03 -0.32536823897E+03  0.14450984733E+03  0.56377399722E+03  0.00000000000E+00 0.  1.
         13    1    1    2    0    0 -0.13877403934E+03 -0.66819252117E+01 -0.15990691007E+03  0.21183274811E+03  0.10566000000E+00 0. -1.
<mgrwt>
<rscale>  1 0.61754656E+03</rscale>
<asrwt>0</asrwt>
<pdfrwt beam="1">  1       21 0.87178831E-01 0.10153658E+04</pdfrwt>
<pdfrwt beam="2">  1        4 0.10193111E+00 0.10153658E+04</pdfrwt>
<totfact> 0.33863765E+01</totfact>
</mgrwt>
</event>
<event>
 6    1  0.1353269E-005  0.1054420E+04  0.7818608E-02  0.9687213E-01
         21   -1    0    0  501  502  0.00000000000E+00  0.00000000000E+00  0.42567651414E+03  0.42567651414E+03  0.00000000000E+00 0.  1.
          4   -1    0    0  502    0 -0.00000000000E+00 -0.00000000000E+00 -0.97507951192E+03  0.97507951192E+03  0.00000000000E+00 0.  1.
    9000010    2    1    2  501    0 -0.47112597532E+01  0.22644169715E+03 -0.50838859996E+03  0.11705816787E+04  0.10298079723E+04 0.  0.
        -13    1    3    3    0    0  0.49026339513E+03  0.13706255749E+03 -0.41986388965E+03  0.65987122855E+03  0.10566000000E+00 0.  1.
          4    1    3    3  501    0 -0.49497465488E+03  0.89379139653E+02 -0.88524710308E+02  0.51071045018E+03  0.00000000000E+00 0.  1.
         13    1    1    2    0    0  0.47112597532E+01 -0.22644169715E+03 -0.41014397824E+02  0.23017434733E+03  0.10566000000E+00 0. -1.
<mgrwt>
<rscale>  1 0.71783235E+03</rscale>
<asrwt>0</asrwt>
<pdfrwt beam="1">  1       21 0.65488695E-01 0.10544205E+04</pdfrwt>
<pdfrwt beam="2">  1        4 0.15001223E+00 0.10544205E+04</pdfrwt>
<totfact> 0.24592023E+01</totfact>
</mgrwt>
</event>
<event>
 6    1  0.1353269E-005  0.1021299E+04  0.7818608E-02  0.9722313E-01
          4   -1    0    0  502    0 -0.00000000000E+00  0.00000000000E+00  0.24127779797E+03  0.24127779797E+03  0.00000000000E+00 0.  1.
         21   -1    0    0  501  502  0.00000000000E+00 -0.00000000000E+00 -0.19605222772E+04  0.19605222772E+04  0.00000000000E+00 0.  1.
    9000010    2    1    2  501    0 -0.12152599037E+03  0.18530190215E+03 -0.16949629448E+04  0.19788763991E+04  0.99696893502E+03 0.  0.
        -13    1    3    3    0    0 -0.22692843718E+03  0.55476646431E+03 -0.75904456649E+03  0.96716648547E+03  0.10566000000E+00 0.  1.
          4    1    3    3  501    0  0.10540244681E+03 -0.36946456216E+03 -0.93591837833E+03  0.10117099137E+04  0.00000000000E+00 0.  1.
         13    1    1    2    0    0  0.12152599037E+03 -0.18530190215E+03 -0.24281534424E+02  0.22292367607E+03  0.10566000000E+00 0. -1.
<mgrwt>
<rscale>  1 0.69703715E+03</rscale>
<asrwt>0</asrwt>
<pdfrwt beam="2">  1       21 0.30161881E+00 0.10212994E+04</pdfrwt>
<pdfrwt beam="1">  1        4 0.37119662E-01 0.10212994E+04</pdfrwt>
<totfact> 0.73202665E+00</totfact>
</mgrwt>
</event>
<event>
 6    1  0.1353269E-005  0.1010141E+04  0.7818608E-02  0.9826232E-01
         21   -1    0    0  501  502  0.00000000000E+00  0.00000000000E+00  0.10235042937E+04  0.10235042937E+04  0.00000000000E+00 0.  1.
          4   -1    0    0  502    0 -0.00000000000E+00 -0.00000000000E+00 -0.46828568973E+03  0.46828568973E+03  0.00000000000E+00 0.  1.
    9000010    2    1    2  501    0  0.91975299111E+02  0.13396705838E+03  0.73515591442E+03  0.12493357089E+04  0.99698488786E+03 0.  0.
        -13    1    3    3    0    0  0.19527599403E+03 -0.18216548983E+03  0.85506528542E+03  0.89579776346E+03  0.10566000000E+00 0.  1.
          4    1    3    3  501    0 -0.10330069491E+03  0.31613254821E+03 -0.11990937100E+03  0.35353794543E+03  0.00000000000E+00 0.  1.
         13    1    1    2    0    0 -0.91975299111E+02 -0.13396705838E+03 -0.17993731046E+03  0.24245427452E+03  0.10566000000E+00 0. -1.
<mgrwt>
<rscale>  1 0.63973593E+03</rscale>
<asrwt>0</asrwt>
<pdfrwt beam="1">  1       21 0.15746220E+00 0.10101413E+04</pdfrwt>
<pdfrwt beam="2">  1        4 0.72043953E-01 0.10101413E+04</pdfrwt>
<totfact> 0.16434379E+01</totfact>
</mgrwt>
</event>
<event>
 6    1  0.1353269E-005  0.1054836E+04  0.7818608E-02  0.9776278E-01
         21   -1    0    0  501  502  0.00000000000E+00  0.00000000000E+00  0.86779987535E+03  0.86779987535E+03  0.00000000000E+00 0.  1.
          4   -1    0    0  502    0 -0.00000000000E+00 -0.00000000000E+00 -0.45169842062E+03  0.45169842062E+03  0.00000000000E+00 0.  1.
    9000010    2    1    2  501    0 -0.16811647524E+03  0.30176768950E+01  0.45194493053E+03  0.11475767396E+04  0.10413481154E+04 0.  0.
        -13    1    3    3    0    0 -0.42317060082E+03 -0.56397892053E+01  0.68288781654E+03  0.80339339415E+03  0.10566000000E+00 0.  1.
          4    1    3    3  501    0  0.25505412559E+03  0.86574661003E+01 -0.23094288600E+03  0.34418334546E+03  0.00000000000E+00 0.  1.
         13    1    1    2    0    0  0.16811647524E+03 -0.30176768950E+01 -0.35843475794E+02  0.17192155636E+03  0.10566000000E+00 0. -1.
<mgrwt>
<rscale>  1 0.66651306E+03</rscale>
<asrwt>0</asrwt>
<pdfrwt beam="1">  1       21 0.13350767E+00 0.10548356E+04</pdfrwt>
<pdfrwt beam="2">  1        4 0.69492065E-01 0.10548356E+04</pdfrwt>
<totfact> 0.27964066E+01</totfact>
</mgrwt>
</event>
<event>
 6    1  0.1353269E-005  0.1035627E+04  0.7818608E-02  0.9685898E-01
          4   -1    0    0  502    0 -0.00000000000E+00  0.00000000000E+00  0.22114515918E+04  0.22114515918E+04  0.00000000000E+00 0.  1.
         21   -1    0    0  501  502  0.00000000000E+00 -0.00000000000E+00 -0.23705369875E+03  0.23705369875E+03  0.00000000000E+00 0.  1.
    9000010    2    1    2  501    0  0.77040705255E+02 -0.22741033412E+03  0.98097051671E+03  0.14264736406E+04  0.10074091335E+04 0.  0.
        -13    1    3    3    0    0  0.49584568776E+03 -0.28166932349E+03  0.75908242678E+03  0.94942440229E+03  0.10566000000E+00 0.  1.
          4    1    3    3  501    0 -0.41880498250E+03  0.54258989362E+02  0.22188808993E+03  0.47704923828E+03  0.00000000000E+00 0.  1.
         13    1    1    2    0    0 -0.77040705255E+02  0.22741033412E+03  0.99342737638E+03  0.10220316500E+04  0.10566000000E+00 0. -1.
<mgrwt>
<rscale>  1 0.71862650E+03</rscale>
<asrwt>0</asrwt>
<pdfrwt beam="2">  1       21 0.36469801E-01 0.10356273E+04</pdfrwt>
<pdfrwt beam="1">  1        4 0.34022331E+00 0.10356273E+04</pdfrwt>
<totfact> 0.50658387E+00</totfact>
</mgrwt>
</event>
<event>
 6    1  0.1353269E-005  0.1039022E+04  0.7818608E-02  0.9635206E-01
         21   -1    0    0  501  502  0.00000000000E+00  0.00000000000E+00  0.50876463807E+03  0.50876463807E+03  0.00000000000E+00 0.  1.
          4   -1    0    0  502    0 -0.00000000000E+00 -0.00000000000E+00 -0.85836990591E+03  0.85836990591E+03  0.00000000000E+00 0.  1.
    9000010    2    1    2  501    0  0.17655732430E+03  0.22016854861E+03 -0.28929979352E+03  0.10785458402E+04  0.99996003934E+03 0.  0.
        -13    1    3    3    0    0 -0.11495833132E+03 -0.20013369002E+03  0.24657336866E+03  0.33773858103E+03  0.10566000000E+00 0.  1.
          4    1    3    3  501    0  0.29151565562E+03  0.42030223863E+03 -0.53587316218E+03  0.74080725915E+03  0.00000000000E+00 0.  1.
         13    1    1    2    0    0 -0.17655732430E+03 -0.22016854861E+03 -0.60305474315E+02  0.28858870380E+03  0.10566000000E+00 0. -1.
<mgrwt>
<rscale>  1 0.75009209E+03</rscale>
<asrwt>0</asrwt>
<pdfrwt beam="1">  1       21 0.78271484E-01 0.10390220E+04</pdfrwt>
<pdfrwt beam="2">  1        4 0.13205691E+00 0.10390220E+04</pdfrwt>
<totfact> 0.22849265E+01</totfact>
</mgrwt>
</event>
<event>
 6    1  0.1353269E-005  0.9788323E+03  0.7818608E-02  0.1020206E+00
          4   -1    0    0  502    0 -0.00000000000E+00  0.00000000000E+00  0.55476712486E+03  0.55476712486E+03  0.00000000000E+00 0.  1.
         21   -1    0    0  501  502  0.00000000000E+00 -0.00000000000E+00 -0.70936856154E+03  0.70936856154E+03  0.00000000000E+00 0.  1.
    9000010    2    1    2  501    0 -0.43892012870E+02 -0.32803609132E+02 -0.36655361151E+03  0.10452148762E+04  0.97729729443E+03 0.  0.
        -13    1    3    3    0    0 -0.25220962926E+03 -0.13672349024E+03  0.25353801485E+03  0.38286361281E+03  0.10566000000E+00 0.  1.
          4    1    3    3  501    0  0.20831761639E+03  0.10391988111E+03 -0.62009162636E+03  0.66235126336E+03  0.00000000000E+00 0.  1.
         13    1    1    2    0    0  0.43892012870E+02  0.32803609132E+02  0.21195217484E+03  0.21892081022E+03  0.10566000000E+00 0. -1.
<mgrwt>
<rscale>  1 0.47612209E+03</rscale>
<asrwt>0</asrwt>
<pdfrwt beam="2">  1       21 0.10913362E+00 0.97883226E+03</pdfrwt>
<pdfrwt beam="1">  1        4 0.85348788E-01 0.97883226E+03</pdfrwt>
<totfact> 0.29770773E+01</totfact>
</mgrwt>
</event>
<event>
 6    1  0.1353269E-005  0.1370904E+04  0.7818608E-02  0.9069746E-01
          4   -1    0    0  502    0 -0.00000000000E+00  0.00000000000E+00  0.28962024445E+04  0.28962024445E+04  0.00000000000E+00 0.  1.
         21   -1    0    0  501  502  0.00000000000E+00 -0.00000000000E+00 -0.46585310363E+03  0.46585310363E+03  0.00000000000E+00 0. -1.
    9000010    2    1    2  501    0 -0.32028876849E+03 -0.89351165394E+03  0.15197347726E+04  0.20466974699E+04  0.98915559096E+03 0.  0.
        -13    1    3    3    0    0 -0.40446683450E+03 -0.66836406646E+03  0.16103293362E+04  0.17898224850E+04  0.10566000000E+00 0.  1.
          4    1    3    3  501    0  0.84178066009E+02 -0.22514758747E+03 -0.90594563530E+02  0.25687498493E+03  0.00000000000E+00 0.  1.
         13    1    1    2    0    0  0.32028876849E+03  0.89351165394E+03  0.91061456819E+03  0.13153580782E+04  0.10566000000E+00 0. -1.
<mgrwt>
<rscale>  1 0.12505260E+04</rscale>
<asrwt>0</asrwt>
<pdfrwt beam="2">  1       21 0.71669710E-01 0.13709036E+04</pdfrwt>
<pdfrwt beam="1">  1        4 0.44556960E+00 0.13709036E+04</pdfrwt>
<totfact> 0.20733384E-01</totfact>
</mgrwt>
</event>
<event>
 6    1  0.1353269E-005  0.1054473E+04  0.7818608E-02  0.9844557E-01
         21   -1    0    0  501  502  0.00000000000E+00  0.00000000000E+00  0.16745691839E+04  0.16745691839E+04  0.00000000000E+00 0.  1.
          4   -1    0    0  502    0 -0.00000000000E+00 -0.00000000000E+00 -0.25340224665E+03  0.25340224665E+03  0.00000000000E+00 0.  1.
    9000010    2    1    2  501    0  0.11367373832E+03  0.72024706335E+02  0.14474913578E+04  0.17908500850E+04  0.10458506198E+04 0.  0.
        -13    1    3    3    0    0  0.62169295113E+02 -0.34199272495E+03  0.73994385974E+02  0.35538602321E+03  0.10566000000E+00 0.  1.
          4    1    3    3  501    0  0.51504443203E+02  0.41401743129E+03  0.13734969718E+04  0.14354640618E+04  0.00000000000E+00 0.  1.
         13    1    1    2    0    0 -0.11367373832E+03 -0.72024706335E+02 -0.26324420599E+02  0.13712134549E+03  0.10566000000E+00 0. -1.
<mgrwt>
<rscale>  1 0.63025195E+03</rscale>
<asrwt>0</asrwt>
<pdfrwt beam="1">  1       21 0.25762602E+00 0.10544728E+04</pdfrwt>
<pdfrwt beam="2">  1        4 0.38984962E-01 0.10544728E+04</pdfrwt>
<totfact> 0.12425591E+01</totfact>
</mgrwt>
</event>
<event>
 6    1  0.1353269E-005  0.9611106E+03  0.7818608E-02  0.9670085E-01
          4   -1    0    0  502    0 -0.00000000000E+00  0.00000000000E+00  0.13220417445E+04  0.13220417445E+04  0.00000000000E+00 0.  1.
         21   -1    0    0  501  502  0.00000000000E+00 -0.00000000000E+00 -0.42927587601E+03  0.42927587601E+03  0.00000000000E+00 0.  1.
    9000010    2    1    2  501    0  0.69624425750E+02  0.30908791093E+03  0.18899456653E+03  0.97951651013E+03  0.90738676985E+03 0.  0.
        -13    1    3    3    0    0 -0.28730433509E+03  0.43902501924E+03 -0.55781654645E+02  0.52763467725E+03  0.10566000000E+00 0.  1.
          4    1    3    3  501    0  0.35692876084E+03 -0.12993710831E+03  0.24477622117E+03  0.45188183288E+03  0.00000000000E+00 0.  1.
         13    1    1    2    0    0 -0.69624425750E+02 -0.30908791093E+03  0.70377130197E+03  0.77180111038E+03  0.10566000000E+00 0. -1.
<mgrwt>
<rscale>  1 0.72826176E+03</rscale>
<asrwt>0</asrwt>
<pdfrwt beam="2">  1       21 0.66042443E-01 0.96111063E+03</pdfrwt>
<pdfrwt beam="1">  1        4 0.20339104E+00 0.96111063E+03</pdfrwt>
<totfact> 0.10193799E+01</totfact>
</mgrwt>
</event>
<event>
 6    1  0.1353269E-005  0.1106978E+04  0.7818608E-02  0.9451614E-01
          4   -1    0    0  502    0 -0.00000000000E+00  0.00000000000E+00  0.19503192281E+04  0.19503192281E+04  0.00000000000E+00 0.  1.
         21   -1    0    0  501  502  0.00000000000E+00 -0.00000000000E+00 -0.73175483856E+03  0.73175483856E+03  0.00000000000E+00 0.  1.
    9000010    2    1    2  501    0  0.26363688860E+03  0.35355807035E+03 -0.26171209783E+03  0.11374944448E+04  0.10153288490E+04 0.  0.
        -13    1    3    3    0    0 -0.27422276626E+03  0.89942529286E+01 -0.39891667795E+03  0.48416273011E+03  0.10566000000E+00 0.  1.
          4    1    3    3  501    0  0.53785965485E+03  0.34456381742E+03  0.13720458012E+03  0.65333171467E+03  0.00000000000E+00 0.  1.
         13    1    1    2    0    0 -0.26363688860E+03 -0.35355807035E+03  0.14802764874E+04  0.15445796219E+04  0.10566000000E+00 0. -1.
<mgrwt>
<rscale>  1 0.87947068E+03</rscale>
<asrwt>0</asrwt>
<pdfrwt beam="2">  1       21 0.11257767E+00 0.11069780E+04</pdfrwt>
<pdfrwt beam="1">  1        4 0.30004911E+00 0.11069780E+04</pdfrwt>
<totfact> 0.68989304E-01</totfact>
</mgrwt>
</event>
<event>
 6    1  0.1353269E-005  0.1016793E+04  0.7818608E-02  0.1013088E+00
          4   -1    0    0  502    0 -0.00000000000E+00  0.00000000000E+00  0.11743454854E+03  0.11743454854E+03  0.00000000000E+00 0.  1.
         21   -1    0    0  501  502  0.00000000000E+00 -0.00000000000E+00 -0.27523332861E+04  0.27523332861E+04  0.00000000000E+00 0.  1.
    9000010    2    1    2  501    0  0.28268882572E+02 -0.53747297991E+02 -0.26152210522E+04  0.28059311349E+04  0.10149780689E+04 0.  0.
        -13    1    3    3    0    0  0.37852919215E+03  0.21840558164E+03 -0.20017538190E+04  0.20489030505E+04  0.10566000000E+00 0.  1.
          4    1    3    3  501    0 -0.35026030958E+03 -0.27215287963E+03 -0.61346723317E+03  0.75702808437E+03  0.00000000000E+00 0.  1.
         13    1    1    2    0    0 -0.28268882572E+02  0.53747297991E+02 -0.19677685349E+02  0.63836699695E+02  0.10566000000E+00 0. -1.
<mgrwt>
<rscale>  1 0.50265737E+03</rscale>
<asrwt>0</asrwt>
<pdfrwt beam="2">  1       21 0.42343584E+00 0.10167932E+04</pdfrwt>
<pdfrwt beam="1">  1        4 0.18066856E-01 0.10167932E+04</pdfrwt>
<totfact> 0.48622023E+00</totfact>
</mgrwt>
</event>
<event>
 6    1  0.1353269E-005  0.1002455E+04  0.7818608E-02  0.9933687E-01
          4   -1    0    0  502    0 -0.00000000000E+00  0.00000000000E+00  0.54056520623E+03  0.54056520623E+03  0.00000000000E+00 0.  1.
         21   -1    0    0  501  502  0.00000000000E+00 -0.00000000000E+00 -0.72615796199E+03  0.72615796199E+03  0.00000000000E+00 0.  1.
    9000010    2    1    2  501    0  0.11598237253E+03  0.18856548381E+02  0.49737213714E+02  0.10036876462E+04  0.99554388177E+03 0.  0.
        -13    1    3    3    0    0  0.27779670076E+03  0.34542540332E+03 -0.26985335344E+03  0.51895140403E+03  0.10566000000E+00 0.  1.
          4    1    3    3  501    0 -0.16181432824E+03 -0.32656885494E+03  0.31959056716E+03  0.48473624215E+03  0.00000000000E+00 0.  1.
         13    1    1    2    0    0 -0.11598237253E+03 -0.18856548381E+02 -0.23532996948E+03  0.26303552204E+03  0.10566000000E+00 0. -1.
<mgrwt>
<rscale>  1 0.58656064E+03</rscale>
<asrwt>0</asrwt>
<pdfrwt beam="2">  1       21 0.11171661E+00 0.10024545E+04</pdfrwt>
<pdfrwt beam="1">  1        4 0.83163878E-01 0.10024545E+04</pdfrwt>
<totfact> 0.29730102E+01</totfact>
</mgrwt>
</event>
<event>
 6    1  0.1353269E-005  0.1093235E+04  0.7818608E-02  0.9455488E-01
         21   -1    0    0  501  502  0.00000000000E+00  0.00000000000E+00  0.12754144973E+04  0.12754144973E+04  0.00000000000E+00 0. -1.
          4   -1    0    0  502    0 -0.00000000000E+00 -0.00000000000E+00 -0.47267437366E+03  0.47267437366E+03  0.00000000000E+00 0.  1.
    9000010    2    1    2  501    0  0.41682951023E+03  0.17389470072E+03  0.64700028715E+03  0.12703430019E+04  0.99557810512E+03 0.  0.
        -13    1    3    3    0    0  0.60145037915E+03  0.20998654674E+02  0.23416714921E+02  0.60227224391E+03  0.10566000000E+00 0.  1.
          4    1    3    3  501    0 -0.18462086893E+03  0.15289604605E+03  0.62358357223E+03  0.66807075800E+03  0.00000000000E+00 0.  1.
         13    1    1    2    0    0 -0.41682951023E+03 -0.17389470072E+03  0.15573983645E+03  0.47774586901E+03  0.10566000000E+00 0. -1.
<mgrwt>
<rscale>  1 0.87646614E+03</rscale>
<asrwt>0</asrwt>
<pdfrwt beam="1">  1       21 0.19621761E+00 0.10932346E+04</pdfrwt>
<pdfrwt beam="2">  1        4 0.72719135E-01 0.10932346E+04</pdfrwt>
<totfact> 0.82644342E+00</totfact>
</mgrwt>
</event>
<event>
 6    1  0.1353269E-005  0.9919571E+03  0.7818608E-02  0.1003259E+00
         21   -1    0    0  501  502  0.00000000000E+00  0.00000000000E+00  0.53433719103E+03  0.53433719103E+03  0.00000000000E+00 0.  1.
          4   -1    0    0  502    0 -0.00000000000E+00 -0.00000000000E+00 -0.58734498680E+03  0.58734498680E+03  0.00000000000E+00 0.  1.
    9000010    2    1    2  501    0  0.88648829260E+02  0.30430889609E+01  0.40516557024E+02  0.99278419085E+03  0.98798329080E+03 0.  0.
        -13    1    3    3    0    0 -0.23184485105E+02  0.32176778815E+03 -0.35030810831E+03  0.47622243936E+03  0.10566000000E+00 0.  1.
          4    1    3    3  501    0  0.11183331436E+03 -0.31872469919E+03  0.39082466533E+03  0.51656175149E+03  0.00000000000E+00 0.  1.
         13    1    1    2    0    0 -0.88648829260E+02 -0.30430889609E+01 -0.93524352791E+02  0.12889798698E+03  0.10566000000E+00 0. -1.
<mgrwt>
<rscale>  1 0.54244027E+03</rscale>
<asrwt>0</asrwt>
<pdfrwt beam="1">  1       21 0.82205721E-01 0.99195708E+03</pdfrwt>
<pdfrwt beam="2">  1        4 0.90360767E-01 0.99195708E+03</pdfrwt>
<totfact> 0.52033782E+01</totfact>
</mgrwt>
</event>
<event>
 6    1  0.1353269E-005  0.9684887E+03  0.7818608E-02  0.9838011E-01
          4   -1    0    0  502    0 -0.00000000000E+00  0.00000000000E+00  0.43379515326E+03  0.43379515326E+03  0.00000000000E+00 0.  1.
         21   -1    0    0  501  502  0.00000000000E+00 -0.00000000000E+00 -0.12308010312E+04  0.12308010312E+04  0.00000000000E+00 0.  1.
    9000010    2    1    2  501    0  0.14985489599E+03 -0.95001534155E+02 -0.10019537938E+04  0.13935142028E+04  0.95209697362E+03 0.  0.
        -13    1    3    3    0    0  0.28729605186E+03 -0.25033991953E+03 -0.10999712653E+04  0.11641073372E+04  0.10566000000E+00 0.  1.
          4    1    3    3  501    0 -0.13744115588E+03  0.15533838538E+03  0.98017471490E+02  0.22940686567E+03  0.00000000000E+00 0.  1.
         13    1    1    2    0    0 -0.14985489599E+03  0.95001534155E+02  0.20494791593E+03  0.27108198160E+03  0.10566000000E+00 0. -1.
<mgrwt>
<rscale>  1 0.63361925E+03</rscale>
<asrwt>0</asrwt>
<pdfrwt beam="2">  1       21 0.18935401E+00 0.96848873E+03</pdfrwt>
<pdfrwt beam="1">  1        4 0.66737715E-01 0.96848873E+03</pdfrwt>
<totfact> 0.11369986E+01</totfact>
</mgrwt>
</event>
<event>
 6    1  0.1353269E-005  0.1048303E+04  0.7818608E-02  0.9900542E-01
          4   -1    0    0  502    0 -0.00000000000E+00  0.00000000000E+00  0.45267207328E+03  0.45267207328E+03  0.00000000000E+00 0.  1.
         21   -1    0    0  501  502  0.00000000000E+00 -0.00000000000E+00 -0.11485734200E+04  0.11485734200E+04  0.00000000000E+00 0.  1.
    9000010    2    1    2  501    0  0.40816529744E+01 -0.11419818695E+03 -0.89056777414E+03  0.13755179696E+04  0.10420560631E+04 0.  0.
        -13    1    3    3    0    0  0.42404922186E+03  0.10023550212E+03 -0.87785934323E+02  0.44448990976E+03  0.10566000000E+00 0.  1.
          4    1    3    3  501    0 -0.41996756889E+03 -0.21443368907E+03 -0.80278183982E+03  0.93102805987E+03  0.00000000000E+00 0.  1.
         13    1    1    2    0    0 -0.40816529744E+01  0.11419818695E+03  0.19466642744E+03  0.22572752364E+03  0.10566000000E+00 0. -1.
<mgrwt>
<rscale>  1 0.60235041E+03</rscale>
<asrwt>0</asrwt>
<pdfrwt beam="2">  1       21 0.17670360E+00 0.10483028E+04</pdfrwt>
<pdfrwt beam="1">  1        4 0.69641857E-01 0.10483028E+04</pdfrwt>
<totfact> 0.12621836E+01</totfact>
</mgrwt>
</event>
<event>
 6    1  0.1353269E-005  0.1044646E+04  0.7818608E-02  0.9628520E-01
         21   -1    0    0  501  502  0.00000000000E+00  0.00000000000E+00  0.18058149589E+04  0.18058149589E+04  0.00000000000E+00 0.  1.
          4   -1    0    0  502    0 -0.00000000000E+00 -0.00000000000E+00 -0.35572405094E+03  0.35572405094E+03  0.00000000000E+00 0.  1.
    9000010    2    1    2  501    0  0.67956892810E+02 -0.27582371592E+03  0.15423787244E+04  0.18628520269E+04  0.10052804003E+04 0.  0.
        -13    1    3    3    0    0  0.28280038643E+03  0.23374714620E+03  0.21588385536E+03  0.42569899823E+03  0.10566000000E+00 0.  1.
          4    1    3    3  501    0 -0.21484349362E+03 -0.50957086213E+03  0.13264948691E+04  0.14371530287E+04  0.00000000000E+00 0.  1.
         13    1    1    2    0    0 -0.67956892810E+02  0.27582371592E+03 -0.92287816428E+02  0.29868698293E+03  0.10566000000E+00 0. -1.
<mgrwt>
<rscale>  1 0.75436927E+03</rscale>
<asrwt>0</asrwt>
<pdfrwt beam="1">  1       21 0.27781768E+00 0.10446461E+04</pdfrwt>
<pdfrwt beam="2">  1        4 0.54726778E-01 0.10446461E+04</pdfrwt>
<totfact> 0.45780149E+00</totfact>
</mgrwt>
</event>
<event>
 6    1  0.1353269E-005  0.1036379E+04  0.7818608E-02  0.9607281E-01
          4   -1    0    0  502    0 -0.00000000000E+00  0.00000000000E+00  0.95677449425E+03  0.95677449425E+03  0.00000000000E+00 0.  1.
         21   -1    0    0  501  502  0.00000000000E+00 -0.00000000000E+00 -0.48121852732E+03  0.48121852732E+03  0.00000000000E+00 0.  1.
    9000010    2    1    2  501    0  0.30334996751E+03 -0.76267219211E+02  0.29823484721E+03  0.10784367921E+04  0.98805060541E+03 0.  0.
        -13    1    3    3    0    0 -0.31232945767E+03 -0.11981481216E+03 -0.93571005701E+02  0.34736266871E+03  0.10566000000E+00 0.  1.
          4    1    3    3  501    0  0.61567942519E+03  0.43547592951E+02  0.39180585291E+03  0.73107412334E+03  0.00000000000E+00 0.  1.
         13    1    1    2    0    0 -0.30334996751E+03  0.76267219211E+02  0.17732111972E+03  0.35955622951E+03  0.10566000000E+00 0. -1.
<mgrwt>
<rscale>  1 0.76816128E+03</rscale>
<asrwt>0</asrwt>
<pdfrwt beam="2">  1       21 0.74033620E-01 0.10363792E+04</pdfrwt>
<pdfrwt beam="1">  1        4 0.14719608E+00 0.10363792E+04</pdfrwt>
<totfact> 0.19566574E+01</totfact>
</mgrwt>
</event>
<event>
 6    1  0.1353269E-005  0.9364695E+03  0.7818608E-02  0.1005426E+00
          4   -1    0    0  502    0 -0.00000000000E+00  0.00000000000E+00  0.85154396542E+03  0.85154396542E+03  0.00000000000E+00 0.  1.
         21   -1    0    0  501  502  0.00000000000E+00 -0.00000000000E+00 -0.34915564476E+03  0.34915564476E+03  0.00000000000E+00 0.  1.
    9000010    2    1    2  501    0  0.35990755555E+02  0.91709590902E+02  0.31330445820E+03  0.98748914665E+03  0.93127286424E+03 0.  0.
        -13    1    3    3    0    0 -0.35561100146E+03  0.17502748959E+03 -0.10340071488E+03  0.40961631495E+03  0.10566000000E+00 0.  1.
          4    1    3    3  501    0  0.39160175702E+03 -0.83317898684E+02  0.41670517308E+03  0.57787283170E+03  0.00000000000E+00 0.  1.
         13    1    1    2    0    0 -0.35990755555E+02 -0.91709590902E+02  0.18908386247E+03  0.21321046353E+03  0.10566000000E+00 0. -1.
<mgrwt>
<rscale>  1 0.53333518E+03</rscale>
<asrwt>0</asrwt>
<pdfrwt beam="2">  1       21 0.53716253E-01 0.93646950E+03</pdfrwt>
<pdfrwt beam="1">  1        4 0.13100676E+00 0.93646950E+03</pdfrwt>
<totfact> 0.55116369E+01</totfact>
</mgrwt>
</event>
<event>
 6    1  0.1353269E-005  0.1058520E+04  0.7818608E-02  0.9529268E-01
         21   -1    0    0  501  502  0.00000000000E+00  0.00000000000E+00  0.19656336029E+04  0.19656336029E+04  0.00000000000E+00 0. -1.
          4   -1    0    0  502    0 -0.00000000000E+00 -0.00000000000E+00 -0.28395492176E+03  0.28395492176E+03  0.00000000000E+00 0.  1.
    9000010    2    1    2  501    0 -0.37337985634E+03  0.90485557693E+02  0.94602936798E+03  0.14196607710E+04  0.98633918417E+03 0.  0.
        -13    1    3    3    0    0  0.75251881127E+02  0.25581899122E+03 -0.87703350327E+02  0.28070997614E+03  0.10566000000E+00 0.  1.
          4    1    3    3  501    0 -0.44863173746E+03 -0.16533343353E+03  0.10337327183E+04  0.11389507948E+04  0.00000000000E+00 0.  1.
         13    1    1    2    0    0  0.37337985634E+03 -0.90485557693E+02  0.73564931318E+03  0.82992775373E+03  0.10566000000E+00 0. -1.
<mgrwt>
<rscale>  1 0.82159973E+03</rscale>
<asrwt>0</asrwt>
<pdfrwt beam="1">  1       21 0.30240516E+00 0.10585203E+04</pdfrwt>
<pdfrwt beam="2">  1        4 0.43685374E-01 0.10585203E+04</pdfrwt>
<totfact> 0.51574170E+00</totfact>
</mgrwt>
</event>
<event>
 6    1  0.1353269E-005  0.1035091E+04  0.7818608E-02  0.9652479E-01
         21   -1    0    0  501  502  0.00000000000E+00  0.00000000000E+00  0.11968976045E+04  0.11968976045E+04  0.00000000000E+00 0.  1.
          4   -1    0    0  502    0 -0.00000000000E+00 -0.00000000000E+00 -0.52455898581E+03  0.52455898581E+03  0.00000000000E+00 0.  1.
    9000010    2    1    2  501    0  0.86592934136E+02 -0.25488656744E+03  0.89788798041E+03  0.13702614533E+04  0.99947392484E+03 0.  0.
        -13    1    3    3    0    0  0.32259483540E+03  0.79554274662E+02 -0.51654417059E+02  0.33625065117E+03  0.10566000000E+00 0.  1.
          4    1    3    3  501    0 -0.23600190126E+03 -0.33444084210E+03  0.94954239747E+03  0.10340108021E+04  0.00000000000E+00 0.  1.
         13    1    1    2    0    0 -0.86592934136E+02  0.25488656744E+03 -0.22554936175E+03  0.35119513701E+03  0.10566000000E+00 0. -1.
<mgrwt>
<rscale>  1 0.73918025E+03</rscale>
<asrwt>0</asrwt>
<pdfrwt beam="1">  1       21 0.18413809E+00 0.10350911E+04</pdfrwt>
<pdfrwt beam="2">  1        4 0.80701383E-01 0.10350911E+04</pdfrwt>
<totfact> 0.79899799E+00</totfact>
</mgrwt>
</event>
<event>
 6    1  0.1353269E-005  0.1028363E+04  0.7818608E-02  0.9685063E-01
         21   -1    0    0  501  502  0.00000000000E+00  0.00000000000E+00  0.35661213290E+03  0.35661213290E+03  0.00000000000E+00 0.  1.
          4   -1    0    0  502    0 -0.00000000000E+00 -0.00000000000E+00 -0.12370809672E+04  0.12370809672E+04  0.00000000000E+00 0.  1.
    9000010    2    1    2  501    0  0.22062910178E+03 -0.10862568193E+03 -0.50705639291E+03  0.11465761111E+04  0.99852584021E+03 0.  0.
        -13    1    3    3    0    0 -0.17576708713E+03 -0.71090068996E+01  0.23835463982E+03  0.29623901226E+03  0.10566000000E+00 0.  1.
          4    1    3    3  501    0  0.39639618892E+03 -0.10151667503E+03 -0.74541103273E+03  0.85033709881E+03  0.00000000000E+00 0.  1.
         13    1    1    2    0    0 -0.22062910178E+03  0.10862568193E+03 -0.37341244138E+03  0.44711698902E+03  0.10566000000E+00 0. -1.
<mgrwt>
<rscale>  1 0.71913166E+03</rscale>
<asrwt>0</asrwt>
<pdfrwt beam="1">  1       21 0.54863407E-01 0.10283631E+04</pdfrwt>
<pdfrwt beam="2">  1        4 0.19032014E+00 0.10283631E+04</pdfrwt>
<totfact> 0.18703094E+01</totfact>
</mgrwt>
</event>
<event>
 6    1  0.1353269E-005  0.1016491E+04  0.7818608E-02  0.9772275E-01
          4   -1    0    0  502    0 -0.00000000000E+00  0.00000000000E+00  0.36023106846E+03  0.36023106846E+03  0.00000000000E+00 0.  1.
         21   -1    0    0  501  502  0.00000000000E+00 -0.00000000000E+00 -0.11208361414E+04  0.11208361414E+04  0.00000000000E+00 0.  1.
    9000010    2    1    2  501    0 -0.15864262888E+03  0.10528138716E+03 -0.79133817452E+03  0.12882040748E+04  0.99849986367E+03 0.  0.
        -13    1    3    3    0    0  0.19495624964E+03  0.40788733617E+03 -0.66823110791E+03  0.80679169742E+03  0.10566000000E+00 0.  1.
          4    1    3    3  501    0 -0.35359887852E+03 -0.30260594901E+03 -0.12310706661E+03  0.48141237740E+03  0.00000000000E+00 0.  1.
         13    1    1    2    0    0  0.15864262888E+03 -0.10528138716E+03  0.30733101542E+02  0.19286313508E+03  0.10566000000E+00 0. -1.
<mgrwt>
<rscale>  1 0.66871890E+03</rscale>
<asrwt>0</asrwt>
<pdfrwt beam="2">  1       21 0.17243633E+00 0.10164908E+04</pdfrwt>
<pdfrwt beam="1">  1        4 0.55420165E-01 0.10164908E+04</pdfrwt>
<totfact> 0.22479314E+01</totfact>
</mgrwt>
</event>
<event>
 6    1  0.1353269E-005  0.1061179E+04  0.7818608E-02  0.9567060E-01
         21   -1    0    0  501  502  0.00000000000E+00  0.00000000000E+00  0.11807919533E+04  0.11807919533E+04  0.00000000000E+00 0.  1.
          4   -1    0    0  502    0 -0.00000000000E+00 -0.00000000000E+00 -0.54798554120E+03  0.54798554120E+03  0.00000000000E+00 0.  1.
    9000010    2    1    2  501    0 -0.32912453876E+03 -0.59899971545E+02  0.82393984944E+03  0.13434945197E+04  0.10070698489E+04 0.  0.
        -13    1    3    3    0    0 -0.16265188219E+03  0.20579307965E+03  0.96476061197E+03  0.99978471482E+03  0.10566000000E+00 0.  1.
          4    1    3    3  501    0 -0.16647265657E+03 -0.26569305119E+03 -0.14082076254E+03  0.34370980492E+03  0.00000000000E+00 0.  1.
         13    1    1    2    0    0  0.32912453876E+03  0.59899971545E+02 -0.19113343734E+03  0.38528297475E+03  0.10566000000E+00 0. -1.
<mgrwt>
<rscale>  1 0.79515270E+03</rscale>
<asrwt>0</asrwt>
<pdfrwt beam="1">  1       21 0.18166030E+00 0.10611789E+04</pdfrwt>
<pdfrwt beam="2">  1        4 0.84305468E-01 0.10611789E+04</pdfrwt>
<totfact> 0.74999849E+00</totfact>
</mgrwt>
</event>
<event>
 6    1  0.1353269E-005  0.1042650E+04  0.7818608E-02  0.9838500E-01
         21   -1    0    0  501  502  0.00000000000E+00  0.00000000000E+00  0.26879669879E+03  0.26879669879E+03  0.00000000000E+00 0.  1.
          4   -1    0    0  502    0 -0.00000000000E+00 -0.00000000000E+00 -0.14746943177E+04  0.14746943177E+04  0.00000000000E+00 0.  1.
    9000010    2    1    2  501    0 -0.38067943116E+02 -0.13677415030E+03 -0.80214991927E+03  0.13155090629E+04  0.10329391391E+04 0.  0.
        -13    1    3    3    0    0 -0.27947541419E+03  0.14912581826E+03 -0.87827614554E+03  0.93365626212E+03  0.10566000000E+00 0.  1.
          4    1    3    3  501    0  0.24140747108E+03 -0.28589996856E+03  0.76126226278E+02  0.38185280075E+03  0.00000000000E+00 0.  1.
         13    1    1    2    0    0  0.38067943116E+02  0.13677415030E+03 -0.40374769964E+03  0.42798195360E+03  0.10566000000E+00 0. -1.
<mgrwt>
<rscale>  1 0.63336707E+03</rscale>
<asrwt>0</asrwt>
<pdfrwt beam="1">  1       21 0.41353339E-01 0.10426503E+04</pdfrwt>
<pdfrwt beam="2">  1        4 0.22687605E+00 0.10426503E+04</pdfrwt>
<totfact> 0.19797453E+01</totfact>
</mgrwt>
</event>
<event>
 6    1  0.1353269E-005  0.1034431E+04  0.7818608E-02  0.9672525E-01
         21   -1    0    0  501  502  0.00000000000E+00  0.00000000000E+00  0.19585305904E+03  0.19585305904E+03  0.00000000000E+00 0.  1.
          4   -1    0    0  502    0 -0.00000000000E+00 -0.00000000000E+00 -0.21910609726E+04  0.21910609726E+04  0.00000000000E+00 0.  1.
    9000010    2    1    2  501    0  0.20702590478E+03  0.14375318896E+03 -0.14013880503E+04  0.17418196620E+04  0.10032559807E+04 0.  0.
        -13    1    3    3    0    0  0.23319414214E+02  0.33253767554E+03 -0.14377651277E+04  0.14759043581E+04  0.10566000000E+00 0.  1.
          4    1    3    3  501    0  0.18370649057E+03 -0.18878448658E+03  0.36377077436E+02  0.26591530383E+03  0.00000000000E+00 0.  1.
         13    1    1    2    0    0 -0.20702590478E+03 -0.14375318896E+03 -0.59381986329E+03  0.64509436968E+03  0.10566000000E+00 0. -1.
<mgrwt>
<rscale>  1 0.72676491E+03</rscale>
<asrwt>0</asrwt>
<pdfrwt beam="1">  1       21 0.30131241E-01 0.10344309E+04</pdfrwt>
<pdfrwt beam="2">  1        4 0.33708629E+00 0.10344309E+04</pdfrwt>
<totfact> 0.78389168E+00</totfact>
</mgrwt>
</event>
<event>
 6    1  0.1353269E-005  0.1019921E+04  0.7818608E-02  0.9738282E-01
         21   -1    0    0  501  502  0.00000000000E+00  0.00000000000E+00  0.19199749117E+03  0.19199749117E+03  0.00000000000E+00 0.  1.
          4   -1    0    0  502    0 -0.00000000000E+00 -0.00000000000E+00 -0.24415337881E+04  0.24415337881E+04  0.00000000000E+00 0.  1.
    9000010    2    1    2  501    0 -0.20880997139E+03  0.30085553774E+02 -0.12565452059E+04  0.16183770729E+04  0.99786359334E+03 0.  0.
        -13    1    3    3    0    0  0.31014508606E+03 -0.16114515120E+03 -0.88655555470E+03  0.95296300920E+03  0.10566000000E+00 0.  1.
          4    1    3    3  501    0 -0.51895505745E+03  0.19123070497E+03 -0.36998965120E+03  0.66541406371E+03  0.00000000000E+00 0.  1.
         13    1    1    2    0    0  0.20880997139E+03 -0.30085553774E+02 -0.99299109106E+03  0.10151542064E+04  0.10566000000E+00 0. -1.
<mgrwt>
<rscale>  1 0.68782521E+03</rscale>
<asrwt>0</asrwt>
<pdfrwt beam="1">  1       21 0.29538077E-01 0.10199208E+04</pdfrwt>
<pdfrwt beam="2">  1        4 0.37562056E+00 0.10199208E+04</pdfrwt>
<totfact> 0.45811543E+00</totfact>
</mgrwt>
</event>
<event>
 6    1  0.1353269E-005  0.9697618E+03  0.7818608E-02  0.9828274E-01
         21   -1    0    0  501  502  0.00000000000E+00  0.00000000000E+00  0.12086826846E+04  0.12086826846E+04  0.00000000000E+00 0.  1.
          4   -1    0    0  502    0 -0.00000000000E+00 -0.00000000000E+00 -0.35202213459E+03  0.35202213459E+03  0.00000000000E+00 0.  1.
    9000010    2    1    2  501    0  0.16378373298E+03 -0.80361556502E+02  0.94846231742E+03  0.13564729249E+04  0.95244681609E+03 0.  0.
        -13    1    3    3    0    0 -0.18266672492E+03 -0.42468479481E+03  0.59526338452E+03  0.75369941983E+03  0.10566000000E+00 0.  1.
          4    1    3    3  501    0  0.34645045790E+03  0.34432323831E+03  0.35319893291E+03  0.60277350508E+03  0.00000000000E+00 0.  1.
         13    1    1    2    0    0 -0.16378373298E+03  0.80361556502E+02 -0.91801767452E+02  0.20423189424E+03  0.10566000000E+00 0. -1.
<mgrwt>
<rscale>  1 0.63867041E+03</rscale>
<asrwt>0</asrwt>
<pdfrwt beam="1">  1       21 0.18595118E+00 0.96976184E+03</pdfrwt>
<pdfrwt beam="2">  1        4 0.54157252E-01 0.96976184E+03</pdfrwt>
<totfact> 0.18938178E+01</totfact>
</mgrwt>
</event>
<event>
 6    1  0.1353269E-005  0.1042489E+04  0.7818608E-02  0.9824362E-01
          4   -1    0    0  502    0 -0.00000000000E+00  0.00000000000E+00  0.48446484731E+03  0.48446484731E+03  0.00000000000E+00 0.  1.
         21   -1    0    0  501  502  0.00000000000E+00 -0.00000000000E+00 -0.84846145154E+03  0.84846145154E+03  0.00000000000E+00 0.  1.
    9000010    2    1    2  501    0  0.18613734282E+02  0.14757556174E+03 -0.47669638668E+03  0.11463083210E+04  0.10318228066E+04 0.  0.
        -13    1    3    3    0    0 -0.47316457725E+03  0.11859557889E+03 -0.43210513860E+03  0.65166286565E+03  0.10566000000E+00 0.  1.
          4    1    3    3  501    0  0.49177831153E+03  0.28979982859E+02 -0.44591248078E+02  0.49464545535E+03  0.00000000000E+00 0.  1.
         13    1    1    2    0    0 -0.18613734282E+02 -0.14757556174E+03  0.11269978245E+03  0.18661797785E+03  0.10566000000E+00 0. -1.
<mgrwt>
<rscale>  1 0.64071382E+03</rscale>
<asrwt>0</asrwt>
<pdfrwt beam="2">  1       21 0.13053253E+00 0.10424890E+04</pdfrwt>
<pdfrwt beam="1">  1        4 0.74533055E-01 0.10424890E+04</pdfrwt>
<totfact> 0.25392603E+01</totfact>
</mgrwt>
</event>
<event>
 6    1  0.1353269E-005  0.1038306E+04  0.7818608E-02  0.9800567E-01
         21   -1    0    0  501  502  0.00000000000E+00  0.00000000000E+00  0.28494438892E+04  0.28494438892E+04  0.00000000000E+00 0.  1.
          4   -1    0    0  502    0 -0.00000000000E+00 -0.00000000000E+00 -0.18924055258E+03  0.18924055258E+03  0.00000000000E+00 0.  1.
    9000010    2    1    2  501    0  0.13510865674E+03 -0.90743706086E+02  0.26805934302E+04  0.28746584183E+04  0.10254711671E+04 0.  0.
        -13    1    3    3    0    0 -0.19813302294E+03  0.60156658877E+02  0.24118884818E+04  0.24207605371E+04  0.10566000000E+00 0.  1.
          4    1    3    3  501    0  0.33324167968E+03 -0.15090036496E+03  0.26870494843E+03  0.45389788117E+03  0.00000000000E+00 0.  1.
         13    1    1    2    0    0 -0.13510865674E+03  0.90743706086E+02 -0.20390093531E+02  0.16402602354E+03  0.10566000000E+00 0. -1.
<mgrwt>
<rscale>  1 0.65332135E+03</rscale>
<asrwt>0</asrwt>
<pdfrwt beam="1">  1       21 0.43837595E+00 0.10383063E+04</pdfrwt>
<pdfrwt beam="2">  1        4 0.29113933E-01 0.10383063E+04</pdfrwt>
<totfact> 0.15537626E+00</totfact>
</mgrwt>
</event>
<event>
 6    1  0.1353269E-005  0.9061067E+03  0.7818608E-02  0.9910442E-01
         21   -1    0    0  501  502  0.00000000000E+00  0.00000000000E+00  0.28687260715E+03  0.28687260715E+03  0.00000000000E+00 0.  1.
          4   -1    0    0  502    0 -0.00000000000E+00 -0.00000000000E+00 -0.10993640877E+04  0.10993640877E+04  0.00000000000E+00 0.  1.
    9000010    2    1    2  501    0 -0.48469771044E+02 -0.16441681754E+03 -0.80912823775E+03  0.12147912774E+04  0.88974554453E+03 0.  0.
        -13    1    3    3    0    0  0.18542673737E+03 -0.41747967081E+03 -0.16762333205E+03  0.48659011815E+03  0.10566000000E+00 0.  1.
          4    1    3    3  501    0 -0.23389650842E+03  0.25306285326E+03 -0.64150490570E+03  0.72820115929E+03  0.00000000000E+00 0.  1.
         13    1    1    2    0    0  0.48469771044E+02  0.16441681754E+03 -0.33632428263E+01  0.17144541744E+03  0.10566000000E+00 0. -1.
<mgrwt>
<rscale>  1 0.59757873E+03</rscale>
<asrwt>0</asrwt>
<pdfrwt beam="1">  1       21 0.44134248E-01 0.90610669E+03</pdfrwt>
<pdfrwt beam="2">  1        4 0.16913293E+00 0.90610669E+03</pdfrwt>
<totfact> 0.42529947E+01</totfact>
</mgrwt>
</event>
<event>
 6    1  0.1353269E-005  0.1146242E+04  0.7818608E-02  0.9366909E-01
          4   -1    0    0  502    0 -0.00000000000E+00  0.00000000000E+00  0.12429426800E+04  0.12429426800E+04  0.00000000000E+00 0.  1.
         21   -1    0    0  501  502  0.00000000000E+00 -0.00000000000E+00 -0.57376028034E+03  0.57376028034E+03  0.00000000000E+00 0. -1.
    9000010    2    1    2  501    0 -0.47337324364E+03 -0.25444147891E+03  0.38774409350E+03  0.12100480128E+04  0.10124465504E+04 0.  0.
        -13    1    3    3    0    0  0.31985901961E+03 -0.40017931533E+02  0.75949956593E+02  0.33117915747E+03  0.10566000000E+00 0.  1.
          4    1    3    3  501    0 -0.79323226325E+03 -0.21442354738E+03  0.31179413691E+03  0.87886885537E+03  0.00000000000E+00 0.  1.
         13    1    1    2    0    0  0.47337324364E+03  0.25444147891E+03  0.28143830614E+03  0.60665494749E+03  0.10566000000E+00 0. -1.
<mgrwt>
<rscale>  1 0.94849742E+03</rscale>
<asrwt>0</asrwt>
<pdfrwt beam="2">  1       21 0.88270813E-01 0.11462420E+04</pdfrwt>
<pdfrwt beam="1">  1        4 0.19122195E+00 0.11462420E+04</pdfrwt>
<totfact> 0.61120530E+00</totfact>
</mgrwt>
</event>
<event>
 6    1  0.1353269E-005  0.1176759E+04  0.7818608E-02  0.9309338E-01
          4   -1    0    0  502    0 -0.00000000000E+00  0.00000000000E+00  0.66333695234E+03  0.66333695234E+03  0.00000000000E+00 0.  1.
         21   -1    0    0  501  502  0.00000000000E+00 -0.00000000000E+00 -0.12069074632E+04  0.12069074632E+04  0.00000000000E+00 0. -1.
    9000010    2    1    2  501    0  0.42051545179E+03 -0.44451151411E+03 -0.38486066519E+03  0.12380952578E+04  0.10051559105E+04 0.  0.
        -13    1    3    3    0    0 -0.72040329754E+02  0.27837768965E+03 -0.18144619835E+03  0.34000982525E+03  0.10566000000E+00 0.  1.
          4    1    3    3  501    0  0.49255578155E+03 -0.72288920376E+03 -0.20341446684E+03  0.89808543256E+03  0.00000000000E+00 0.  1.
         13    1    1    2    0    0 -0.42051545179E+03  0.44451151411E+03 -0.15870984571E+03  0.63214915777E+03  0.10566000000E+00 0. -1.
<mgrwt>
<rscale>  1 0.99927751E+03</rscale>
<asrwt>0</asrwt>
<pdfrwt beam="2">  1       21 0.18567807E+00 0.11767592E+04</pdfrwt>
<pdfrwt beam="1">  1        4 0.10205184E+00 0.11767592E+04</pdfrwt>
<totfact> 0.43951799E+00</totfact>
</mgrwt>
</event>
<event>
 6    1  0.1353269E-005  0.1060919E+04  0.7818608E-02  0.9532782E-01
          4   -1    0    0  502    0 -0.00000000000E+00  0.00000000000E+00  0.52506370977E+03  0.52506370977E+03  0.00000000000E+00 0.  1.
         21   -1    0    0  501  502  0.00000000000E+00 -0.00000000000E+00 -0.11585097748E+04  0.11585097748E+04  0.00000000000E+00 0. -1.
    9000010    2    1    2  501    0 -0.14909207385E+03  0.34621840820E+03 -0.73803256629E+03  0.12923779068E+04  0.99169196445E+03 0.  0.
        -13    1    3    3    0    0 -0.17139808184E+03  0.55758435732E+03 -0.86610784718E+03  0.10442319819E+04  0.10566000000E+00 0.  1.
          4    1    3    3  501    0  0.22306007996E+02 -0.21136594912E+03  0.12807528089E+03  0.24814592484E+03  0.00000000000E+00 0.  1.
         13    1    1    2    0    0  0.14909207385E+03 -0.34621840820E+03  0.10458650126E+03  0.39119557778E+03  0.10566000000E+00 0. -1.
<mgrwt>
<rscale>  1 0.81909484E+03</rscale>
<asrwt>0</asrwt>
<pdfrwt beam="2">  1       21 0.17823227E+00 0.10609187E+04</pdfrwt>
<pdfrwt beam="1">  1        4 0.80779032E-01 0.10609187E+04</pdfrwt>
<totfact> 0.87688901E+00</totfact>
</mgrwt>
</event>
<event>
 6    1  0.1353269E-005  0.1019990E+04  0.7818608E-02  0.9842093E-01
          4   -1    0    0  502    0 -0.00000000000E+00  0.00000000000E+00  0.45859585463E+03  0.45859585463E+03  0.00000000000E+00 0.  1.
         21   -1    0    0  501  502  0.00000000000E+00 -0.00000000000E+00 -0.75956114005E+03  0.75956114005E+03  0.00000000000E+00 0.  1.
    9000010    2    1    2  501    0 -0.11319561429E+03  0.98242561125E+02 -0.20559370143E+03  0.10405039674E+04  0.10089176816E+04 0.  0.
        -13    1    3    3    0    0 -0.42113791276E+03 -0.72886412169E+02  0.22592588409E+03  0.48343777978E+03  0.10566000000E+00 0.  1.
          4    1    3    3  501    0  0.30794229847E+03  0.17112897329E+03 -0.43151958553E+03  0.55706618761E+03  0.00000000000E+00 0.  1.
         13    1    1    2    0    0  0.11319561429E+03 -0.98242561125E+02 -0.95371583985E+02  0.17765302729E+03  0.10566000000E+00 0. -1.
<mgrwt>
<rscale>  1 0.63151689E+03</rscale>
<asrwt>0</asrwt>
<pdfrwt beam="2">  1       21 0.11685556E+00 0.10199901E+04</pdfrwt>
<pdfrwt beam="1">  1        4 0.70553209E-01 0.10199901E+04</pdfrwt>
<totfact> 0.38494996E+01</totfact>
</mgrwt>
</event>
<event>
 6    1  0.1353269E-005  0.1011828E+04  0.7818608E-02  0.9970631E-01
          4   -1    0    0  502    0 -0.00000000000E+00  0.00000000000E+00  0.79506763706E+03  0.79506763706E+03  0.00000000000E+00 0.  1.
         21   -1    0    0  501  502  0.00000000000E+00 -0.00000000000E+00 -0.70096137199E+03  0.70096137199E+03  0.00000000000E+00 0.  1.
    9000010    2    1    2  501    0 -0.91279733576E+02  0.44601462390E+02 -0.32659758344E+03  0.10632322675E+04  0.10067152491E+04 0.  0.
        -13    1    3    3    0    0  0.25707813015E+03 -0.11420545687E+03 -0.55158048615E+03  0.61917129717E+03  0.10566000000E+00 0.  1.
          4    1    3    3  501    0 -0.34835786372E+03  0.15880691926E+03  0.22498290271E+03  0.44406097029E+03  0.00000000000E+00 0.  1.
         13    1    1    2    0    0  0.91279733576E+02 -0.44601462390E+02  0.42070384851E+03  0.43279674158E+03  0.10566000000E+00 0. -1.
<mgrwt>
<rscale>  1 0.56956977E+03</rscale>
<asrwt>0</asrwt>
<pdfrwt beam="2">  1       21 0.10784021E+00 0.10118285E+04</pdfrwt>
<pdfrwt beam="1">  1        4 0.12231810E+00 0.10118285E+04</pdfrwt>
<totfact> 0.12787271E+01</totfact>
</mgrwt>
</event>
<event>
 6    1  0.1353269E-005  0.1224604E+04  0.7818608E-02  0.9668905E-01
          4   -1    0    0  502    0 -0.00000000000E+00  0.00000000000E+00  0.16318589992E+04  0.16318589992E+04  0.00000000000E+00 0.  1.
         21   -1    0    0  501  502  0.00000000000E+00 -0.00000000000E+00 -0.32063444874E+03  0.32063444874E+03  0.00000000000E+00 0. -1.
    9000010    2    1    2  501    0  0.11631498527E+03  0.10058972048E+03  0.13173046375E+04  0.17985959292E+04  0.12149108366E+04 0.  0.
        -13    1    3    3    0    0 -0.42127329605E+03  0.20119561330E+03  0.11263995561E+04  0.12193140842E+04  0.10566000000E+00 0.  1.
          4    1    3    3  501    0  0.53758828132E+03 -0.10060589282E+03  0.19090508142E+03  0.57928184504E+03  0.00000000000E+00 0.  1.
         13    1    1    2    0    0 -0.11631498527E+03 -0.10058972048E+03 -0.60800869869E+01  0.15389751878E+03  0.10566000000E+00 0. -1.
<mgrwt>
<rscale>  1 0.72898738E+03</rscale>
<asrwt>0</asrwt>
<pdfrwt beam="2">  1       21 0.49328378E-01 0.12246043E+04</pdfrwt>
<pdfrwt beam="1">  1        4 0.25105523E+00 0.12246043E+04</pdfrwt>
<totfact> 0.94097447E+00</totfact>
</mgrwt>
</event>
<event>
 6    1  0.1353269E-005  0.1060663E+04  0.7818608E-02  0.9906053E-01
          4   -1    0    0  502    0 -0.00000000000E+00  0.00000000000E+00  0.15776358865E+04  0.15776358865E+04  0.00000000000E+00 0.  1.
         21   -1    0    0  501  502  0.00000000000E+00 -0.00000000000E+00 -0.22046163165E+03  0.22046163165E+03  0.00000000000E+00 0.  1.
    9000010    2    1    2  501    0  0.77700914507E+02  0.75564098823E+02  0.11511054751E+04  0.15652634178E+04  0.10551106042E+04 0.  0.
        -13    1    3    3    0    0 -0.15251436678E+03 -0.45209730527E+03  0.61701792717E+03  0.77997675550E+03  0.10566000000E+00 0.  1.
          4    1    3    3  501    0  0.23021528129E+03  0.52766140409E+03  0.53408754797E+03  0.78528666231E+03  0.00000000000E+00 0.  1.
         13    1    1    2    0    0 -0.77700914507E+02 -0.75564098823E+02  0.20606877973E+03  0.23283410036E+03  0.10566000000E+00 0. -1.
<mgrwt>
<rscale>  1 0.59968839E+03</rscale>
<asrwt>0</asrwt>
<pdfrwt beam="2">  1       21 0.33917175E-01 0.10606629E+04</pdfrwt>
<pdfrwt beam="1">  1        4 0.24271321E+00 0.10606629E+04</pdfrwt>
<totfact> 0.23725423E+01</totfact>
</mgrwt>
</event>
<event>
 6    1  0.1353269E-005  0.1040384E+04  0.7818608E-02  0.9759151E-01
         21   -1    0    0  501  502  0.00000000000E+00  0.00000000000E+00  0.69772061724E+03  0.69772061724E+03  0.00000000000E+00 0.  1.
          4   -1    0    0  502    0 -0.00000000000E+00 -0.00000000000E+00 -0.62491234781E+03  0.62491234781E+03  0.00000000000E+00 0.  1.
    9000010    2    1    2  501    0 -0.88732042800E+02  0.16285428307E+03  0.24579065591E+03  0.10690234027E+04  0.10237202235E+04 0.  0.
        -13    1    3    3    0    0 -0.12435796761E+03 -0.14107486891E+03  0.58363951399E+03  0.61319011424E+03  0.10566000000E+00 0.  1.
          4    1    3    3  501    0  0.35625924811E+02  0.30392915198E+03 -0.33784885808E+03  0.45583328844E+03  0.00000000000E+00 0.  1.
         13    1    1    2    0    0  0.88732042800E+02 -0.16285428307E+03 -0.17298238647E+03  0.25360956238E+03  0.10566000000E+00 0. -1.
<mgrwt>
<rscale>  1 0.67601585E+03</rscale>
<asrwt>0</asrwt>
<pdfrwt beam="1">  1       21 0.10734163E+00 0.10403836E+04</pdfrwt>
<pdfrwt beam="2">  1        4 0.96140362E-01 0.10403836E+04</pdfrwt>
<totfact> 0.23311211E+01</totfact>
</mgrwt>
</event>
<event>
 6    1  0.1353269E-005  0.1030552E+04  0.7818608E-02  0.9699211E-01
         21   -1    0    0  501  502  0.00000000000E+00  0.00000000000E+00  0.21141297115E+04  0.21141297115E+04  0.00000000000E+00 0.  1.
          4   -1    0    0  502    0 -0.00000000000E+00 -0.00000000000E+00 -0.32136372160E+03  0.32136372160E+03  0.00000000000E+00 0.  1.
    9000010    2    1    2  501    0 -0.22602590051E+03 -0.56638435806E+02  0.19132700525E+04  0.21731637543E+04  0.10038639296E+04 0.  0.
        -13    1    3    3    0    0 -0.55868720224E+03 -0.13018935966E+03  0.16367695504E+04  0.17343861253E+04  0.10566000000E+00 0.  1.
          4    1    3    3  501    0  0.33266130173E+03  0.73550923850E+02  0.27650050212E+03  0.43877762903E+03  0.00000000000E+00 0.  1.
         13    1    1    2    0    0  0.22602590051E+03  0.56638435806E+02 -0.12050406261E+03  0.26232967880E+03  0.10566000000E+00 0. -1.
<mgrwt>
<rscale>  1 0.71063762E+03</rscale>
<asrwt>0</asrwt>
<pdfrwt beam="1">  1       21 0.32525072E+00 0.10305525E+04</pdfrwt>
<pdfrwt beam="2">  1        4 0.49440574E-01 0.10305525E+04</pdfrwt>
<totfact> 0.28835457E+00</totfact>
</mgrwt>
</event>
<event>
 6    1  0.1353269E-005  0.1028900E+04  0.7818608E-02  0.9715663E-01
         21   -1    0    0  501  502  0.00000000000E+00  0.00000000000E+00  0.42823496787E+03  0.42823496787E+03  0.00000000000E+00 0.  1.
          4   -1    0    0  502    0 -0.00000000000E+00 -0.00000000000E+00 -0.97152224568E+03  0.97152224568E+03  0.00000000000E+00 0.  1.
    9000010    2    1    2  501    0  0.22109531394E+03 -0.14798696934E+02 -0.30232618566E+03  0.10723974751E+04  0.10047552352E+04 0.  0.
        -13    1    3    3    0    0 -0.18371539922E+03 -0.37785014095E+03 -0.32033917480E+03  0.52833632754E+03  0.10566000000E+00 0.  1.
          4    1    3    3  501    0  0.40481071315E+03  0.36305144401E+03  0.18012989137E+02  0.54406114754E+03  0.00000000000E+00 0.  1.
         13    1    1    2    0    0 -0.22109531394E+03  0.14798696934E+02 -0.24096109216E+03  0.32735973847E+03  0.10566000000E+00 0. -1.
<mgrwt>
<rscale>  1 0.70091837E+03</rscale>
<asrwt>0</asrwt>
<pdfrwt beam="1">  1       21 0.65882303E-01 0.10289000E+04</pdfrwt>
<pdfrwt beam="2">  1        4 0.14946496E+00 0.10289000E+04</pdfrwt>
<totfact> 0.24556168E+01</totfact>
</mgrwt>
</event>
<event>
 6    1  0.1353269E-005  0.1021314E+04  0.7818608E-02  0.9670463E-01
         21   -1    0    0  501  502  0.00000000000E+00  0.00000000000E+00  0.29993871887E+03  0.29993871887E+03  0.00000000000E+00 0.  1.
          4   -1    0    0  502    0 -0.00000000000E+00 -0.00000000000E+00 -0.14471445998E+04  0.14471445998E+04  0.00000000000E+00 0.  1.
    9000010    2    1    2  501    0  0.25983162057E+03  0.45034554217E+02 -0.73715004030E+03  0.12595524112E+04  0.98668207267E+03 0.  0.
        -13    1    3    3    0    0 -0.26257421409E+03 -0.29700506622E+03 -0.30484556145E+03  0.50008804701E+03  0.10566000000E+00 0.  1.
          4    1    3    3  501    0  0.52240583467E+03  0.34203962043E+03 -0.43230447885E+03  0.75946436419E+03  0.00000000000E+00 0.  1.
         13    1    1    2    0    0 -0.25983162057E+03 -0.45034554217E+02 -0.41005584059E+03  0.48753090742E+03  0.10566000000E+00 0. -1.
<mgrwt>
<rscale>  1 0.72802993E+03</rscale>
<asrwt>0</asrwt>
<pdfrwt beam="1">  1       21 0.46144418E-01 0.10213139E+04</pdfrwt>
<pdfrwt beam="2">  1        4 0.22263763E+00 0.10213139E+04</pdfrwt>
<totfact> 0.16727802E+01</totfact>
</mgrwt>
</event>
<event>
 6    1  0.1353269E-005  0.1025401E+04  0.7818608E-02  0.9687338E-01
          4   -1    0    0  502    0 -0.00000000000E+00  0.00000000000E+00  0.38049685113E+03  0.38049685113E+03  0.00000000000E+00 0.  1.
         21   -1    0    0  501  502  0.00000000000E+00 -0.00000000000E+00 -0.10742145703E+04  0.10742145703E+04  0.00000000000E+00 0.  1.
    9000010    2    1    2  501    0  0.55258237548E+02  0.23988379760E+03 -0.61767679833E+03  0.11970683699E+04  0.99541466029E+03 0.  0.
        -13    1    3    3    0    0  0.52568831076E+03  0.13402817953E+03 -0.30486129216E+03  0.62229588750E+03  0.10566000000E+00 0.  1.
          4    1    3    3  501    0 -0.47043007321E+03  0.10585561807E+03 -0.31281550617E+03  0.57477248243E+03  0.00000000000E+00 0.  1.
         13    1    1    2    0    0 -0.55258237548E+02 -0.23988379760E+03 -0.76040920812E+02  0.25764305147E+03  0.10566000000E+00 0. -1.
<mgrwt>
<rscale>  1 0.71775705E+03</rscale>
<asrwt>0</asrwt>
<pdfrwt beam="2">  1       21 0.16526378E+00 0.10254014E+04</pdfrwt>
<pdfrwt beam="1">  1        4 0.58537978E-01 0.10254014E+04</pdfrwt>
<totfact> 0.22590753E+01</totfact>
</mgrwt>
</event>
<event>
 6    1  0.1353269E-005  0.1068142E+04  0.7818608E-02  0.9541330E-01
          4   -1    0    0  502    0 -0.00000000000E+00  0.00000000000E+00  0.13148674999E+04  0.13148674999E+04  0.00000000000E+00 0.  1.
         21   -1    0    0  501  502  0.00000000000E+00 -0.00000000000E+00 -0.50887331610E+03  0.50887331610E+03  0.00000000000E+00 0. -1.
    9000010    2    1    2  501    0  0.14829271301E+03 -0.32645819747E+03  0.15336051994E+03  0.10790956698E+04  0.10061621798E+04 0.  0.
        -13    1    3    3    0    0  0.95436626303E+02  0.77145473652E+02  0.51816308803E+03  0.53249654525E+03  0.10566000000E+00 0.  1.
          4    1    3    3  501    0  0.52856086702E+02 -0.40360367113E+03 -0.36480256809E+03  0.54659912452E+03  0.00000000000E+00 0.  1.
         13    1    1    2    0    0 -0.14829271301E+03  0.32645819747E+03  0.65263366386E+03  0.74464514622E+03  0.10566000000E+00 0. -1.
<mgrwt>
<rscale>  1 0.81304106E+03</rscale>
<asrwt>0</asrwt>
<pdfrwt beam="2">  1       21 0.78288203E-01 0.10681423E+04</pdfrwt>
<pdfrwt beam="1">  1        4 0.20228731E+00 0.10681423E+04</pdfrwt>
<totfact> 0.69162182E+00</totfact>
</mgrwt>
</event>
<event>
 6    1  0.1353269E-005  0.9699916E+03  0.7818608E-02  0.9948717E-01
          4   -1    0    0  502    0 -0.00000000000E+00  0.00000000000E+00  0.63756257886E+03  0.63756257886E+03  0.00000000000E+00 0.  1.
         21   -1    0    0  501  502  0.00000000000E+00 -0.00000000000E+00 -0.55833261151E+03  0.55833261151E+03  0.00000000000E+00 0.  1.
    9000010    2    1    2  501    0 -0.81517892778E+02 -0.92948700966E+02 -0.10325754220E+03  0.97547211953E+03  0.96208061414E+03 0.  0.
        -13    1    3    3    0    0  0.35655028446E+03 -0.13036291741E+03 -0.30952841575E+03  0.48982695609E+03  0.10566000000E+00 0.  1.
          4    1    3    3  501    0 -0.43806817724E+03  0.37414216448E+02  0.20627087355E+03  0.48564516345E+03  0.00000000000E+00 0.  1.
         13    1    1    2    0    0  0.81517892778E+02  0.92948700966E+02  0.18248750954E+03  0.22042307084E+03  0.10566000000E+00 0. -1.
<mgrwt>
<rscale>  1 0.57957265E+03</rscale>
<asrwt>0</asrwt>
<pdfrwt beam="2">  1       21 0.85897325E-01 0.96999162E+03</pdfrwt>
<pdfrwt beam="1">  1        4 0.98086550E-01 0.96999162E+03</pdfrwt>
<totfact> 0.38648842E+01</totfact>
</mgrwt>
</event>
<event>
 6    1  0.1353269E-005  0.1143569E+04  0.7818608E-02  0.9361785E-01
          4   -1    0    0  502    0 -0.00000000000E+00  0.00000000000E+00  0.71357284604E+03  0.71357284604E+03  0.00000000000E+00 0.  1.
         21   -1    0    0  501  502  0.00000000000E+00 -0.00000000000E+00 -0.10065106662E+04  0.10065106662E+04  0.00000000000E+00 0.  1.
    9000010    2    1    2  501    0 -0.22402281002E+03  0.50371287420E+03 -0.18874945943E+03  0.11590415310E+04  0.10019171788E+04 0.  0.
        -13    1    3    3    0    0 -0.28413569371E+03 -0.24816679401E+03  0.15587190874E+02  0.37757492207E+03  0.10566000000E+00 0.  1.
          4    1    3    3  501    0  0.60112883691E+02  0.75187966820E+03 -0.20433665030E+03  0.78146660895E+03  0.00000000000E+00 0.  1.
         13    1    1    2    0    0  0.22402281002E+03 -0.50371287420E+03 -0.10418836076E+03  0.56104198125E+03  0.10566000000E+00 0. -1.
<mgrwt>
<rscale>  1 0.95288520E+03</rscale>
<asrwt>0</asrwt>
<pdfrwt beam="2">  1       21 0.15484780E+00 0.11435694E+04</pdfrwt>
<pdfrwt beam="1">  1        4 0.10978044E+00 0.11435694E+04</pdfrwt>
<totfact> 0.62976339E+00</totfact>
</mgrwt>
</event>
<event>
 6    1  0.1353269E-005  0.1047276E+04  0.7818608E-02  0.9605450E-01
          4   -1    0    0  502    0 -0.00000000000E+00  0.00000000000E+00  0.16244491921E+04  0.16244491921E+04  0.00000000000E+00 0.  1.
         21   -1    0    0  501  502  0.00000000000E+00 -0.00000000000E+00 -0.49514514842E+03  0.49514514842E+03  0.00000000000E+00 0.  1.
    9000010    2    1    2  501    0 -0.11609548326E+03 -0.28207574279E+03  0.10697050995E+03  0.10527247368E+04  0.10018691510E+04 0.  0.
        -13    1    3    3    0    0 -0.36059800967E+03 -0.87475149004E+02  0.45359816709E+03  0.58603253717E+03  0.10566000000E+00 0.  1.
          4    1    3    3  501    0  0.24450252641E+03 -0.19460059379E+03 -0.34662765715E+03  0.46669219966E+03  0.00000000000E+00 0.  1.
         13    1    1    2    0    0  0.11609548326E+03  0.28207574279E+03  0.10223335338E+04  0.10668696037E+04  0.10566000000E+00 0. -1.
<mgrwt>
<rscale>  1 0.76936492E+03</rscale>
<asrwt>0</asrwt>
<pdfrwt beam="2">  1       21 0.76176178E-01 0.10472758E+04</pdfrwt>
<pdfrwt beam="1">  1        4 0.24991526E+00 0.10472758E+04</pdfrwt>
<totfact> 0.36816242E+00</totfact>
</mgrwt>
</event>
<event>
 6    1  0.1353269E-005  0.1035221E+04  0.7818608E-02  0.9714239E-01
         21   -1    0    0  501  502  0.00000000000E+00  0.00000000000E+00  0.53944401957E+03  0.53944401957E+03  0.00000000000E+00 0.  1.
          4   -1    0    0  502    0 -0.00000000000E+00 -0.00000000000E+00 -0.77072818927E+03  0.77072818927E+03  0.00000000000E+00 0.  1.
    9000010    2    1    2  501    0  0.29052050259E+02 -0.21665467580E+03 -0.68237156641E+02  0.10374679555E+04  0.10118795279E+04 0.  0.
        -13    1    3    3    0    0 -0.40125693206E+03 -0.31113298753E+03  0.17146554927E+03  0.53592098970E+03  0.10566000000E+00 0.  1.
          4    1    3    3  501    0  0.43030898232E+03  0.94478311723E+02 -0.23970270591E+03  0.50154696577E+03  0.00000000000E+00 0.  1.
         13    1    1    2    0    0 -0.29052050259E+02  0.21665467580E+03 -0.16304701305E+03  0.27270425336E+03  0.10566000000E+00 0. -1.
<mgrwt>
<rscale>  1 0.70175327E+03</rscale>
<asrwt>0</asrwt>
<pdfrwt beam="1">  1       21 0.82991387E-01 0.10352214E+04</pdfrwt>
<pdfrwt beam="2">  1        4 0.11857357E+00 0.10352214E+04</pdfrwt>
<totfact> 0.26197788E+01</totfact>
</mgrwt>
</event>
<event>
 6    1  0.1353269E-005  0.9964250E+03  0.7818608E-02  0.9707108E-01
         21   -1    0    0  501  502  0.00000000000E+00  0.00000000000E+00  0.38412855268E+03  0.38412855268E+03  0.00000000000E+00 0.  1.
          4   -1    0    0  502    0 -0.00000000000E+00 -0.00000000000E+00 -0.10868197933E+04  0.10868197933E+04  0.00000000000E+00 0.  1.
    9000010    2    1    2  501    0 -0.24512701128E+03  0.54225370703E+02 -0.39020261868E+03  0.10701032481E+04  0.96427964590E+03 0.  0.
        -13    1    3    3    0    0  0.28702419624E+03 -0.16012137699E+03  0.68309215242E+02  0.33569019147E+03  0.10566000000E+00 0.  1.
          4    1    3    3  501    0 -0.53215120752E+03  0.21434674769E+03 -0.45851183393E+03  0.73441305664E+03  0.00000000000E+00 0.  1.
         13    1    1    2    0    0  0.24512701128E+03 -0.54225370703E+02 -0.31248862192E+03  0.40084509787E+03  0.10566000000E+00 0. -1.
<mgrwt>
<rscale>  1 0.70595151E+03</rscale>
<asrwt>0</asrwt>
<pdfrwt beam="1">  1       21 0.59096701E-01 0.99642505E+03</pdfrwt>
<pdfrwt beam="2">  1        4 0.16720304E+00 0.99642505E+03</pdfrwt>
<totfact> 0.23120532E+01</totfact>
</mgrwt>
</event>
<event>
 6    1  0.1353269E-005  0.1009851E+04  0.7818608E-02  0.9958338E-01
         21   -1    0    0  501  502  0.00000000000E+00  0.00000000000E+00  0.24138042635E+03  0.24138042635E+03  0.00000000000E+00 0.  1.
          4   -1    0    0  502    0 -0.00000000000E+00 -0.00000000000E+00 -0.13517649748E+04  0.13517649748E+04  0.00000000000E+00 0.  1.
    9000010    2    1    2  501    0  0.54441128415E+02 -0.91252652903E+02 -0.88016066129E+03  0.13395829187E+04  0.10042453501E+04 0.  0.
        -13    1    3    3    0    0  0.42899516042E+03  0.18503596543E+03 -0.18391368239E+03  0.50209502079E+03  0.10566000000E+00 0.  1.
          4    1    3    3  501    0 -0.37455403201E+03 -0.27628861833E+03 -0.69624697891E+03  0.83748789792E+03  0.00000000000E+00 0.  1.
         13    1    1    2    0    0 -0.54441128415E+02  0.91252652903E+02 -0.23022388720E+03  0.25356248249E+03  0.10566000000E+00 0. -1.
<mgrwt>
<rscale>  1 0.57515395E+03</rscale>
<asrwt>0</asrwt>
<pdfrwt beam="1">  1       21 0.37135449E-01 0.10098513E+04</pdfrwt>
<pdfrwt beam="2">  1        4 0.20796385E+00 0.10098513E+04</pdfrwt>
<totfact> 0.32872888E+01</totfact>
</mgrwt>
</event>
<event>
 6    1  0.1353269E-005  0.1060481E+04  0.7818608E-02  0.9557868E-01
          4   -1    0    0  502    0 -0.00000000000E+00  0.00000000000E+00  0.12432668590E+04  0.12432668590E+04  0.00000000000E+00 0.  1.
         21   -1    0    0  501  502  0.00000000000E+00 -0.00000000000E+00 -0.47109145800E+03  0.47109145800E+03  0.00000000000E+00 0.  1.
    9000010    2    1    2  501    0 -0.28738618734E+03 -0.19267860581E+03  0.25265116885E+03  0.10901617896E+04  0.10024491252E+04 0.  0.
        -13    1    3    3    0    0  0.30931684953E+03  0.85942151039E+02 -0.10876569002E+03  0.33895863054E+03  0.10566000000E+00 0.  1.
          4    1    3    3  501    0 -0.59670303687E+03 -0.27862075685E+03  0.36141685887E+03  0.75120315910E+03  0.00000000000E+00 0.  1.
         13    1    1    2    0    0  0.28738618734E+03  0.19267860581E+03  0.51952423216E+03  0.62419652737E+03  0.10566000000E+00 0. -1.
<mgrwt>
<rscale>  1 0.80148641E+03</rscale>
<asrwt>0</asrwt>
<pdfrwt beam="2">  1       21 0.72475609E-01 0.10604811E+04</pdfrwt>
<pdfrwt beam="1">  1        4 0.19127182E+00 0.10604811E+04</pdfrwt>
<totfact> 0.98138757E+00</totfact>
</mgrwt>
</event>
<event>
 6    1  0.1353269E-005  0.1054878E+04  0.7818608E-02  0.9582804E-01
          4   -1    0    0  502    0 -0.00000000000E+00  0.00000000000E+00  0.12732077927E+04  0.12732077927E+04  0.00000000000E+00 0.  1.
         21   -1    0    0  501  502  0.00000000000E+00 -0.00000000000E+00 -0.54105374600E+03  0.54105374600E+03  0.00000000000E+00 0.  1.
    9000010    2    1    2  501    0  0.23666554185E+03 -0.21921220751E+03  0.45793822766E+02  0.10558718376E+04  0.10043424180E+04 0.  0.
        -13    1    3    3    0    0 -0.26160734902E+03  0.13535253490E+03 -0.24084519184E+03  0.38048013268E+03  0.10566000000E+00 0.  1.
          4    1    3    3  501    0  0.49827289087E+03 -0.35456474241E+03  0.28663901460E+03  0.67539170489E+03  0.00000000000E+00 0.  1.
         13    1    1    2    0    0 -0.23666554185E+03  0.21921220751E+03  0.68636022398E+03  0.75838970117E+03  0.10566000000E+00 0. -1.
<mgrwt>
<rscale>  1 0.78444887E+03</rscale>
<asrwt>0</asrwt>
<pdfrwt beam="2">  1       21 0.83239038E-01 0.10548783E+04</pdfrwt>
<pdfrwt beam="1">  1        4 0.19587812E+00 0.10548783E+04</pdfrwt>
<totfact> 0.66113565E+00</totfact>
</mgrwt>
</event>
<event>
 6    1  0.1353269E-005  0.1055910E+04  0.7818608E-02  0.9577122E-01
         21   -1    0    0  501  502  0.00000000000E+00  0.00000000000E+00  0.13290791048E+04  0.13290791048E+04  0.00000000000E+00 0.  1.
          4   -1    0    0  502    0 -0.00000000000E+00 -0.00000000000E+00 -0.38443828006E+03  0.38443828006E+03  0.00000000000E+00 0.  1.
    9000010    2    1    2  501    0 -0.21203624839E+03 -0.25024039353E+03  0.89009504218E+03  0.13810194469E+04  0.10036761946E+04 0.  0.
        -13    1    3    3    0    0  0.32420908695E+03  0.16330541499E+03  0.42789419254E+03  0.56113602790E+03  0.10566000000E+00 0.  1.
          4    1    3    3  501    0 -0.53624533534E+03 -0.41354580852E+03  0.46220084964E+03  0.81988341905E+03  0.00000000000E+00 0.  1.
         13    1    1    2    0    0  0.21203624839E+03  0.25024039353E+03  0.54545782592E+02  0.33249793796E+03  0.10566000000E+00 0. -1.
<mgrwt>
<rscale>  1 0.78829065E+03</rscale>
<asrwt>0</asrwt>
<pdfrwt beam="1">  1       21 0.20447371E+00 0.10559098E+04</pdfrwt>
<pdfrwt beam="2">  1        4 0.59144352E-01 0.10559098E+04</pdfrwt>
<totfact> 0.11511652E+01</totfact>
</mgrwt>
</event>
<event>
 6    1  0.1353269E-005  0.1001329E+04  0.7818608E-02  0.1007091E+00
         21   -1    0    0  501  502  0.00000000000E+00  0.00000000000E+00  0.35730201145E+03  0.35730201145E+03  0.00000000000E+00 0.  1.
          4   -1    0    0  502    0 -0.00000000000E+00 -0.00000000000E+00 -0.87845339025E+03  0.87845339025E+03  0.00000000000E+00 0.  1.
    9000010    2    1    2  501    0 -0.35203665837E+02  0.67942021151E+02 -0.37214178214E+03  0.10682463351E+04  0.99840137728E+03 0.  0.
        -13    1    3    3    0    0  0.14350736688E+03  0.40670146356E+03 -0.50385105846E+03  0.66322420424E+03  0.10566000000E+00 0.  1.
          4    1    3    3  501    0 -0.17871103272E+03 -0.33875944241E+03  0.13170927632E+03  0.40502213088E+03  0.00000000000E+00 0.  1.
         13    1    1    2    0    0  0.35203665837E+02 -0.67942021151E+02 -0.14900959666E+03  0.16750906659E+03  0.10566000000E+00 0. -1.
<mgrwt>
<rscale>  1 0.52647479E+03</rscale>
<asrwt>0</asrwt>
<pdfrwt beam="1">  1       21 0.54969540E-01 0.10013295E+04</pdfrwt>
<pdfrwt beam="2">  1        4 0.13514668E+00 0.10013295E+04</pdfrwt>
<totfact> 0.48107770E+01</totfact>
</mgrwt>
</event>
<event>
 6    1  0.1353269E-005  0.1025504E+04  0.7818608E-02  0.9759442E-01
         21   -1    0    0  501  502  0.00000000000E+00  0.00000000000E+00  0.17042567879E+03  0.17042567879E+03  0.00000000000E+00 0.  1.
          4   -1    0    0  502    0 -0.00000000000E+00 -0.00000000000E+00 -0.24852416195E+04  0.24852416195E+04  0.00000000000E+00 0.  1.
    9000010    2    1    2  501    0 -0.17572791429E+03  0.80916733325E+02 -0.14922302433E+04  0.18106376785E+04  0.10070898104E+04 0.  0.
        -13    1    3    3    0    0 -0.15627660428E+02 -0.40676364758E+03 -0.10739344468E+04  0.11484929673E+04  0.10566000000E+00 0.  1.
          4    1    3    3  501    0 -0.16010025386E+03  0.48768038091E+03 -0.41829579658E+03  0.66214471126E+03  0.00000000000E+00 0.  1.
         13    1    1    2    0    0  0.17572791429E+03 -0.80916733325E+02 -0.82258569739E+03  0.84502961978E+03  0.10566000000E+00 0. -1.
<mgrwt>
<rscale>  1 0.67585298E+03</rscale>
<asrwt>0</asrwt>
<pdfrwt beam="1">  1       21 0.26219336E-01 0.10255036E+04</pdfrwt>
<pdfrwt beam="2">  1        4 0.38234485E+00 0.10255036E+04</pdfrwt>
<totfact> 0.52362195E+00</totfact>
</mgrwt>
</event>
<event>
 6    1  0.1353269E-005  0.1063252E+04  0.7818608E-02  0.9571221E-01
          4   -1    0    0  502    0 -0.00000000000E+00  0.00000000000E+00  0.21474246810E+04  0.21474246810E+04  0.00000000000E+00 0.  1.
         21   -1    0    0  501  502  0.00000000000E+00 -0.00000000000E+00 -0.23925409436E+03  0.23925409436E+03  0.00000000000E+00 0.  1.
    9000010    2    1    2  501    0  0.16658839785E+03  0.28236112649E+03  0.11815148329E+04  0.15894911590E+04  0.10114471534E+04 0.  0.
        -13    1    3    3    0    0  0.13200945461E+03 -0.33360779985E+03  0.76546371973E+03  0.84537292222E+03  0.10566000000E+00 0.  1.
          4    1    3    3  501    0  0.34578943243E+02  0.61596892635E+03  0.41605111316E+03  0.74411823677E+03  0.00000000000E+00 0.  1.
         13    1    1    2    0    0 -0.16658839785E+03 -0.28236112649E+03  0.72665575373E+03  0.79718761634E+03  0.10566000000E+00 0. -1.
<mgrwt>
<rscale>  1 0.79230586E+03</rscale>
<asrwt>0</asrwt>
<pdfrwt beam="2">  1       21 0.36808324E-01 0.10632520E+04</pdfrwt>
<pdfrwt beam="1">  1        4 0.33037301E+00 0.10632520E+04</pdfrwt>
<totfact> 0.57211630E+00</totfact>
</mgrwt>
</event>
<event>
 6    1  0.1353269E-005  0.1086802E+04  0.7818608E-02  0.9469717E-01
         21   -1    0    0  501  502  0.00000000000E+00  0.00000000000E+00  0.18615113463E+04  0.18615113463E+04  0.00000000000E+00 0.  1.
          4   -1    0    0  502    0 -0.00000000000E+00 -0.00000000000E+00 -0.36329056331E+03  0.36329056331E+03  0.00000000000E+00 0.  1.
    9000010    2    1    2  501    0 -0.41212157002E+03  0.14598152876E+03  0.14075346805E+04  0.17782834044E+04  0.99497899180E+03 0.  0.
        -13    1    3    3    0    0 -0.64078276099E+03 -0.35618015062E+02  0.46764584057E+03  0.79408049538E+03  0.10566000000E+00 0.  1.
          4    1    3    3  501    0  0.22866119097E+03  0.18159954382E+03  0.93988883995E+03  0.98420290898E+03  0.00000000000E+00 0.  1.
         13    1    1    2    0    0  0.41212157002E+03 -0.14598152876E+03  0.90686102503E+02  0.44651850529E+03  0.10566000000E+00 0. -1.
<mgrwt>
<rscale>  1 0.86553751E+03</rscale>
<asrwt>0</asrwt>
<pdfrwt beam="1">  1       21 0.28638635E+00 0.10868017E+04</pdfrwt>
<pdfrwt beam="2">  1        4 0.55890857E-01 0.10868017E+04</pdfrwt>
<totfact> 0.38419713E+00</totfact>
</mgrwt>
</event>
<event>
 6    1  0.1353269E-005  0.1009751E+04  0.7818608E-02  0.9873901E-01
         21   -1    0    0  501  502  0.00000000000E+00  0.00000000000E+00  0.97191849957E+03  0.97191849957E+03  0.00000000000E+00 0.  1.
          4   -1    0    0  502    0 -0.00000000000E+00 -0.00000000000E+00 -0.53114301932E+03  0.53114301932E+03  0.00000000000E+00 0.  1.
    9000010    2    1    2  501    0 -0.77850056893E+01 -0.13912103910E+03  0.68619553640E+03  0.12208447849E+04  0.10000911982E+04 0.  0.
        -13    1    3    3    0    0  0.48802592031E+03 -0.15891457981E+03  0.36370801676E+03  0.62905220387E+03  0.10566000000E+00 0.  1.
          4    1    3    3  501    0 -0.49581092600E+03  0.19793540707E+02  0.32248751964E+03  0.59179258099E+03  0.00000000000E+00 0.  1.
         13    1    1    2    0    0  0.77850056893E+01  0.13912103910E+03 -0.24542005615E+03  0.28221673402E+03  0.10566000000E+00 0. -1.
<mgrwt>
<rscale>  1 0.61543016E+03</rscale>
<asrwt>0</asrwt>
<pdfrwt beam="1">  1       21 0.14952592E+00 0.10097513E+04</pdfrwt>
<pdfrwt beam="2">  1        4 0.81714311E-01 0.10097513E+04</pdfrwt>
<totfact> 0.14263050E+01</totfact>
</mgrwt>
</event>
<event>
 6    1  0.1353269E-005  0.1002132E+04  0.7818608E-02  0.1004056E+00
         21   -1    0    0  501  502  0.00000000000E+00  0.00000000000E+00  0.18887071589E+04  0.18887071589E+04  0.00000000000E+00 0.  1.
          4   -1    0    0  502    0 -0.00000000000E+00 -0.00000000000E+00 -0.19073298781E+03  0.19073298781E+03  0.00000000000E+00 0.  1.
    9000010    2    1    2  501    0 -0.33502687787E+02  0.76930290551E+02  0.17218115806E+04  0.19922109489E+04  0.99861336171E+03 0.  0.
        -13    1    3    3    0    0  0.43805528006E+03 -0.15886664527E+03  0.67629544429E+03  0.82128349460E+03  0.10566000000E+00 0.  1.
          4    1    3    3  501    0 -0.47155796784E+03  0.23579693582E+03  0.10455161363E+04  0.11709274543E+04  0.00000000000E+00 0.  1.
         13    1    1    2    0    0  0.33502687787E+02 -0.76930290551E+02 -0.23837409499E+02  0.87229197800E+02  0.10566000000E+00 0. -1.
<mgrwt>
<rscale>  1 0.53907090E+03</rscale>
<asrwt>0</asrwt>
<pdfrwt beam="1">  1       21 0.29057032E+00 0.10021324E+04</pdfrwt>
<pdfrwt beam="2">  1        4 0.29343538E-01 0.10021324E+04</pdfrwt>
<totfact> 0.13713151E+01</totfact>
</mgrwt>
</event>
<event>
 6    1  0.1353269E-005  0.1001144E+04  0.7818608E-02  0.1008323E+00
         21   -1    0    0  501  502  0.00000000000E+00  0.00000000000E+00  0.24925156892E+03  0.24925156892E+03  0.00000000000E+00 0.  1.
          4   -1    0    0  502    0 -0.00000000000E+00 -0.00000000000E+00 -0.11769540455E+04  0.11769540455E+04  0.00000000000E+00 0.  1.
    9000010    2    1    2  501    0  0.18780895638E+02  0.71258062986E+02 -0.81206959140E+03  0.12890873848E+04  0.99842818015E+03 0.  0.
        -13    1    3    3    0    0 -0.66008898393E+02  0.16250580601E+03 -0.10263519556E+04  0.10412317991E+04  0.10566000000E+00 0.  1.
          4    1    3    3  501    0  0.84789794032E+02 -0.91247743025E+02  0.21428236417E+03  0.24785558572E+03  0.00000000000E+00 0.  1.
         13    1    1    2    0    0 -0.18780895638E+02 -0.71258062986E+02 -0.11563288523E+03  0.13711822961E+03  0.10566000000E+00 0. -1.
<mgrwt>
<rscale>  1 0.52146700E+03</rscale>
<asrwt>0</asrwt>
<pdfrwt beam="1">  1       21 0.38346396E-01 0.10011440E+04</pdfrwt>
<pdfrwt beam="2">  1        4 0.18106985E+00 0.10011440E+04</pdfrwt>
<totfact> 0.46644299E+01</totfact>
</mgrwt>
</event>
<event>
 6    1  0.1353269E-005  0.1014874E+04  0.7818608E-02  0.9754545E-01
         21   -1    0    0  501  502  0.00000000000E+00  0.00000000000E+00  0.46731250609E+03  0.46731250609E+03  0.00000000000E+00 0.  1.
          4   -1    0    0  502    0 -0.00000000000E+00 -0.00000000000E+00 -0.87690280029E+03  0.87690280029E+03  0.00000000000E+00 0.  1.
    9000010    2    1    2  501    0  0.71642671922E+02  0.18979963877E+03 -0.16790328245E+03  0.10286694331E+04  0.99439062499E+03 0.  0.
        -13    1    3    3    0    0 -0.28490141394E+03 -0.29510475722E+03 -0.30597960714E+02  0.41132940542E+03  0.10566000000E+00 0.  1.
          4    1    3    3  501    0  0.35654408587E+03  0.48490439599E+03 -0.13730532174E+03  0.61734002770E+03  0.00000000000E+00 0.  1.
         13    1    1    2    0    0 -0.71642671922E+02 -0.18979963877E+03 -0.24168701175E+03  0.31554587326E+03  0.10566000000E+00 0. -1.
<mgrwt>
<rscale>  1 0.67860026E+03</rscale>
<asrwt>0</asrwt>
<pdfrwt beam="1">  1       21 0.71894232E-01 0.10148740E+04</pdfrwt>
<pdfrwt beam="2">  1        4 0.13490812E+00 0.10148740E+04</pdfrwt>
<totfact> 0.26401053E+01</totfact>
</mgrwt>
</event>
<event>
 6    1  0.1353269E-005  0.1115862E+04  0.7818608E-02  0.9449533E-01
         21   -1    0    0  501  502  0.00000000000E+00  0.00000000000E+00  0.11028798408E+04  0.11028798408E+04  0.00000000000E+00 0.  1.
          4   -1    0    0  502    0 -0.00000000000E+00 -0.00000000000E+00 -0.55414337962E+03  0.55414337962E+03  0.00000000000E+00 0.  1.
    9000010    2    1    2  501    0  0.34082448310E+03 -0.26830385893E+03  0.49219931996E+03  0.12195935135E+04  0.10281049939E+04 0.  0.
        -13    1    3    3    0    0 -0.15683608218E+03  0.11456354996E+03  0.55553818040E+03  0.58851087050E+03  0.10566000000E+00 0.  1.
          4    1    3    3  501    0  0.49766056528E+03 -0.38286740889E+03 -0.63338860435E+02  0.63108264297E+03  0.00000000000E+00 0.  1.
         13    1    1    2    0    0 -0.34082448310E+03  0.26830385893E+03  0.56537141189E+02  0.43742970692E+03  0.10566000000E+00 0. -1.
<mgrwt>
<rscale>  1 0.88109031E+03</rscale>
<asrwt>0</asrwt>
<pdfrwt beam="1">  1       21 0.16967382E+00 0.11158621E+04</pdfrwt>
<pdfrwt beam="2">  1        4 0.85252828E-01 0.11158621E+04</pdfrwt>
<totfact> 0.88986878E+00</totfact>
</mgrwt>
</event>
<event>
 6    1  0.1353269E-005  0.9261568E+03  0.7818608E-02  0.1019116E+00
          4   -1    0    0  502    0 -0.00000000000E+00  0.00000000000E+00  0.52577152746E+03  0.52577152746E+03  0.00000000000E+00 0.  1.
         21   -1    0    0  501  502  0.00000000000E+00 -0.00000000000E+00 -0.47332590167E+03  0.47332590167E+03  0.00000000000E+00 0.  1.
    9000010    2    1    2  501    0  0.16685431826E+02  0.64743278708E+02  0.24078926962E+02  0.92646977228E+03  0.92374041183E+03 0.  0.
        -13    1    3    3    0    0 -0.82868565351E+01 -0.39109424534E+03  0.19738490544E+03  0.43816000820E+03  0.10566000000E+00 0.  1.
          4    1    3    3  501    0  0.24972288362E+02  0.45583752405E+03 -0.17330597848E+03  0.48830976408E+03  0.00000000000E+00 0.  1.
         13    1    1    2    0    0 -0.16685431826E+02 -0.64743278708E+02  0.28366698829E+02  0.72627656851E+02  0.10566000000E+00 0. -1.
<mgrwt>
<rscale>  1 0.48006842E+03</rscale>
<asrwt>0</asrwt>
<pdfrwt beam="2">  1       21 0.72819370E-01 0.92615681E+03</pdfrwt>
<pdfrwt beam="1">  1        4 0.80887927E-01 0.92615681E+03</pdfrwt>
<totfact> 0.89810017E+01</totfact>
</mgrwt>
</event>
<event>
 6    1  0.1353269E-005  0.1012554E+04  0.7818608E-02  0.9742246E-01
         21   -1    0    0  501  502  0.00000000000E+00  0.00000000000E+00  0.56364616364E+03  0.56364616364E+03  0.00000000000E+00 0.  1.
          4   -1    0    0  502    0 -0.00000000000E+00 -0.00000000000E+00 -0.69531106813E+03  0.69531106813E+03  0.00000000000E+00 0.  1.
    9000010    2    1    2  501    0 -0.35902537889E+02 -0.20973063264E+03 -0.20650627943E+03  0.10333975433E+04  0.98994429568E+03 0.  0.
        -13    1    3    3    0    0 -0.50456527655E+03 -0.16491586334E+03 -0.18485825630E+03  0.56209958759E+03  0.10566000000E+00 0.  1.
          4    1    3    3  501    0  0.46866273866E+03 -0.44814769302E+02 -0.21648023131E+02  0.47129795571E+03  0.00000000000E+00 0.  1.
         13    1    1    2    0    0  0.35902537889E+02  0.20973063264E+03  0.74841374951E+02  0.22555968847E+03  0.10566000000E+00 0. -1.
<mgrwt>
<rscale>  1 0.68556264E+03</rscale>
<asrwt>0</asrwt>
<pdfrwt beam="1">  1       21 0.86714795E-01 0.10125540E+04</pdfrwt>
<pdfrwt beam="2">  1        4 0.10697093E+00 0.10125540E+04</pdfrwt>
<totfact> 0.30497447E+01</totfact>
</mgrwt>
</event>
<event>
 6    1  0.1353269E-005  0.1081976E+04  0.7818608E-02  0.9457746E-01
         21   -1    0    0  501  502  0.00000000000E+00  0.00000000000E+00  0.21320752098E+04  0.21320752098E+04  0.00000000000E+00 0.  1.
          4   -1    0    0  502    0 -0.00000000000E+00 -0.00000000000E+00 -0.31801991439E+03  0.31801991439E+03  0.00000000000E+00 0.  1.
    9000010    2    1    2  501    0  0.44983578659E+03 -0.10616434832E+03  0.16216187895E+04  0.19494406288E+04  0.97828838453E+03 0.  0.
        -13    1    3    3    0    0  0.57331449935E+03  0.10409754596E+03  0.40741345215E+03  0.71099335187E+03  0.10566000000E+00 0.  1.
          4    1    3    3  501    0 -0.12347871277E+03 -0.21026189427E+03  0.12142053373E+04  0.12384472770E+04  0.00000000000E+00 0.  1.
         13    1    1    2    0    0 -0.44983578659E+03  0.10616434832E+03  0.19243650598E+03  0.50065449538E+03  0.10566000000E+00 0. -1.
<mgrwt>
<rscale>  1 0.87472017E+03</rscale>
<asrwt>0</asrwt>
<pdfrwt beam="1">  1       21 0.32801156E+00 0.10819756E+04</pdfrwt>
<pdfrwt beam="2">  1        4 0.48926142E-01 0.10819756E+04</pdfrwt>
<totfact> 0.28062654E+00</totfact>
</mgrwt>
</event>
<event>
 6    1  0.1353269E-005  0.1045259E+04  0.7818608E-02  0.9599566E-01
         21   -1    0    0  501  502  0.00000000000E+00  0.00000000000E+00  0.92774793184E+03  0.92774793184E+03  0.00000000000E+00 0.  1.
          4   -1    0    0  502    0 -0.00000000000E+00 -0.00000000000E+00 -0.50350604040E+03  0.50350604040E+03  0.00000000000E+00 0.  1.
    9000010    2    1    2  501    0  0.69664930435E+02 -0.30519378840E+03  0.25723131036E+03  0.10764455784E+04  0.99728164785E+03 0.  0.
        -13    1    3    3    0    0  0.24236261716E+03 -0.24956273292E+03 -0.31920049568E+03  0.47213362882E+03  0.10566000000E+00 0.  1.
          4    1    3    3  501    0 -0.17269768673E+03 -0.55631055484E+02  0.57643180605E+03  0.60431194954E+03  0.00000000000E+00 0.  1.
         13    1    1    2    0    0 -0.69664930435E+02  0.30519378840E+03  0.16701058108E+03  0.35480839388E+03  0.10566000000E+00 0. -1.
<mgrwt>
<rscale>  1 0.77324907E+03</rscale>
<asrwt>0</asrwt>
<pdfrwt beam="1">  1       21 0.14273045E+00 0.10452594E+04</pdfrwt>
<pdfrwt beam="2">  1        4 0.77462468E-01 0.10452594E+04</pdfrwt>
<totfact> 0.18266546E+01</totfact>
</mgrwt>
</event>
<event>
 6    1  0.1353269E-005  0.1136667E+04  0.7818608E-02  0.9337011E-01
          4   -1    0    0  502    0 -0.00000000000E+00  0.00000000000E+00  0.55482570402E+03  0.55482570402E+03  0.00000000000E+00 0.  1.
         21   -1    0    0  501  502  0.00000000000E+00 -0.00000000000E+00 -0.13810694913E+04  0.13810694913E+04  0.00000000000E+00 0. -1.
    9000010    2    1    2  501    0 -0.31115406738E+03 -0.52929416732E+03 -0.54486632303E+03  0.12605120021E+04  0.95657829171E+03 0.  0.
        -13    1    3    3    0    0  0.17656780198E+03 -0.11039181021E+03  0.19154641546E+03  0.28293564798E+03  0.10566000000E+00 0.  1.
          4    1    3    3  501    0 -0.48772186937E+03 -0.41890235711E+03 -0.73641273849E+03  0.97757635408E+03  0.00000000000E+00 0.  1.
         13    1    1    2    0    0  0.31115406738E+03  0.52929416732E+03 -0.28137746428E+03  0.67538319328E+03  0.10566000000E+00 0. -1.
<mgrwt>
<rscale>  1 0.97445791E+03</rscale>
<asrwt>0</asrwt>
<pdfrwt beam="2">  1       21 0.21247223E+00 0.11366667E+04</pdfrwt>
<pdfrwt beam="1">  1        4 0.85357801E-01 0.11366667E+04</pdfrwt>
<totfact> 0.44047018E+00</totfact>
</mgrwt>
</event>
<event>
 6    1  0.1353269E-005  0.1010811E+04  0.7818608E-02  0.9836678E-01
          4   -1    0    0  502    0 -0.00000000000E+00  0.00000000000E+00  0.16422853516E+04  0.16422853516E+04  0.00000000000E+00 0.  1.
         21   -1    0    0  501  502  0.00000000000E+00 -0.00000000000E+00 -0.24396092173E+03  0.24396092173E+03  0.00000000000E+00 0.  1.
    9000010    2    1    2  501    0 -0.76498299515E+02  0.13680885137E+03  0.86511225930E+03  0.13304730447E+04  0.99858432285E+03 0.  0.
        -13    1    3    3    0    0 -0.47806373288E+03 -0.98546751521E+02  0.22107239668E+03  0.53584457697E+03  0.10566000000E+00 0.  1.
          4    1    3    3  501    0  0.40156543337E+03  0.23535560289E+03  0.64403986262E+03  0.79462846773E+03  0.00000000000E+00 0.  1.
         13    1    1    2    0    0  0.76498299515E+02 -0.13680885137E+03  0.53321217059E+03  0.55577322864E+03  0.10566000000E+00 0. -1.
<mgrwt>
<rscale>  1 0.63430806E+03</rscale>
<asrwt>0</asrwt>
<pdfrwt beam="2">  1       21 0.37532450E-01 0.10108112E+04</pdfrwt>
<pdfrwt beam="1">  1        4 0.25265928E+00 0.10108112E+04</pdfrwt>
<totfact> 0.16790088E+01</totfact>
</mgrwt>
</event>
<event>
 6    1  0.1353269E-005  0.1108138E+04  0.7818608E-02  0.9399531E-01
         21   -1    0    0  501  502  0.00000000000E+00  0.00000000000E+00  0.20774293492E+04  0.20774293492E+04  0.00000000000E+00 0.  1.
          4   -1    0    0  502    0 -0.00000000000E+00 -0.00000000000E+00 -0.40059960281E+03  0.40059960281E+03  0.00000000000E+00 0.  1.
    9000010    2    1    2  501    0  0.52904420376E+03 -0.66503913679E+01  0.15957318445E+04  0.19427637111E+04  0.97367279957E+03 0.  0.
        -13    1    3    3    0    0 -0.17299297981E+03  0.15639813708E+03  0.51797255176E+02  0.23889310403E+03  0.10566000000E+00 0.  1.
          4    1    3    3  501    0  0.70203718357E+03 -0.16304852845E+03  0.15439345893E+04  0.17038706071E+04  0.00000000000E+00 0.  1.
         13    1    1    2    0    0 -0.52904420376E+03  0.66503913679E+01  0.81097901933E+02  0.53526524089E+03  0.10566000000E+00 0. -1.
<mgrwt>
<rscale>  1 0.92114304E+03</rscale>
<asrwt>0</asrwt>
<pdfrwt beam="1">  1       21 0.31960451E+00 0.11081384E+04</pdfrwt>
<pdfrwt beam="2">  1        4 0.61630709E-01 0.11081384E+04</pdfrwt>
<totfact> 0.19205644E+00</totfact>
</mgrwt>
</event>
<event>
 6    1  0.1353269E-005  0.1102294E+04  0.7818608E-02  0.9449059E-01
         21   -1    0    0  501  502  0.00000000000E+00  0.00000000000E+00  0.87055356688E+03  0.87055356688E+03  0.00000000000E+00 0. -1.
          4   -1    0    0  502    0 -0.00000000000E+00 -0.00000000000E+00 -0.76965900866E+03  0.76965900866E+03  0.00000000000E+00 0.  1.
    9000010    2    1    2  501    0 -0.28753841196E+03  0.34710146953E+03  0.30750697112E+03  0.11443835033E+04  0.10059300656E+04 0.  0.
        -13    1    3    3    0    0 -0.39934009553E+03 -0.10380790695E+03 -0.19814518521E+03  0.45772275345E+03  0.10566000000E+00 0.  1.
          4    1    3    3  501    0  0.11180168357E+03  0.45090937648E+03  0.50565215632E+03  0.68666074989E+03  0.00000000000E+00 0.  1.
         13    1    1    2    0    0  0.28753841196E+03 -0.34710146953E+03 -0.20661241290E+03  0.49582907219E+03  0.10566000000E+00 0. -1.
<mgrwt>
<rscale>  1 0.88145957E+03</rscale>
<asrwt>0</asrwt>
<pdfrwt beam="1">  1       21 0.13393132E+00 0.11022945E+04</pdfrwt>
<pdfrwt beam="2">  1        4 0.11840908E+00 0.11022945E+04</pdfrwt>
<totfact> 0.78243688E+00</totfact>
</mgrwt>
</event>
<event>
 6    1  0.1353269E-005  0.1283652E+04  0.7818608E-02  0.9167102E-01
          4   -1    0    0  502    0 -0.00000000000E+00  0.00000000000E+00  0.13058763855E+04  0.13058763855E+04  0.00000000000E+00 0.  1.
         21   -1    0    0  501  502  0.00000000000E+00 -0.00000000000E+00 -0.86036900121E+03  0.86036900121E+03  0.00000000000E+00 0. -1.
    9000010    2    1    2  501    0  0.63583924890E+03 -0.48281848719E+03  0.74325537457E+02  0.12858016255E+04  0.10051648087E+04 0.  0.
        -13    1    3    3    0    0  0.84153618018E+02 -0.67190771332E+03  0.16145204008E+03  0.69613833327E+03  0.10566000000E+00 0.  1.
          4    1    3    3  501    0  0.55168563089E+03  0.18908922613E+03 -0.87126502627E+02  0.58966329225E+03  0.00000000000E+00 0.  1.
         13    1    1    2    0    0 -0.63583924890E+03  0.48281848719E+03  0.37118184681E+03  0.88044376117E+03  0.10566000000E+00 0. -1.
<mgrwt>
<rscale>  1 0.11399540E+04</rscale>
<asrwt>0</asrwt>
<pdfrwt beam="2">  1       21 0.13236446E+00 0.12836516E+04</pdfrwt>
<pdfrwt beam="1">  1        4 0.20090406E+00 0.12836516E+04</pdfrwt>
<totfact> 0.18501344E+00</totfact>
</mgrwt>
</event>
<event>
 6    1  0.1353269E-005  0.1042234E+04  0.7818608E-02  0.9625386E-01
         21   -1    0    0  501  502  0.00000000000E+00  0.00000000000E+00  0.18756513803E+03  0.18756513803E+03  0.00000000000E+00 0.  1.
          4   -1    0    0  502    0 -0.00000000000E+00 -0.00000000000E+00 -0.28723053031E+04  0.28723053031E+04  0.00000000000E+00 0.  1.
    9000010    2    1    2  501    0 -0.11734093290E+03 -0.26423615900E+03 -0.14136826189E+04  0.17563456278E+04  0.10013300030E+04 0.  0.
        -13    1    3    3    0    0  0.56790416786E+02  0.37224332807E+03 -0.42662793971E+03  0.56903572545E+03  0.10566000000E+00 0.  1.
          4    1    3    3  501    0 -0.17413134968E+03 -0.63647948708E+03 -0.98705467923E+03  0.11873099023E+04  0.00000000000E+00 0.  1.
         13    1    1    2    0    0  0.11734093290E+03  0.26423615900E+03 -0.12710575461E+04  0.13035248133E+04  0.10566000000E+00 0. -1.
<mgrwt>
<rscale>  1 0.75638507E+03</rscale>
<asrwt>0</asrwt>
<pdfrwt beam="1">  1       21 0.28856177E-01 0.10422339E+04</pdfrwt>
<pdfrwt beam="2">  1        4 0.44189309E+00 0.10422339E+04</pdfrwt>
<totfact> 0.16393773E+00</totfact>
</mgrwt>
</event>
<event>
 6    1  0.1353269E-005  0.9960628E+03  0.7818608E-02  0.9840059E-01
          4   -1    0    0  502    0 -0.00000000000E+00  0.00000000000E+00  0.52563792499E+03  0.52563792499E+03  0.00000000000E+00 0.  1.
         21   -1    0    0  501  502  0.00000000000E+00 -0.00000000000E+00 -0.16732705101E+04  0.16732705101E+04  0.00000000000E+00 0.  1.
    9000010    2    1    2  501    0 -0.12385973482E+03  0.10444057868E+03 -0.15060133739E+04  0.18056071901E+04  0.98279803324E+03 0.  0.
        -13    1    3    3    0    0 -0.40752601937E+03 -0.29568049262E+03 -0.82138697666E+03  0.96342150005E+03  0.10566000000E+00 0.  1.
          4    1    3    3  501    0  0.28366628456E+03  0.40012107130E+03 -0.68462639729E+03  0.84218569007E+03  0.00000000000E+00 0.  1.
         13    1    1    2    0    0  0.12385973482E+03 -0.10444057868E+03  0.35838078879E+03  0.39330124500E+03  0.10566000000E+00 0. -1.
<mgrwt>
<rscale>  1 0.63256374E+03</rscale>
<asrwt>0</asrwt>
<pdfrwt beam="2">  1       21 0.25742623E+00 0.99606277E+03</pdfrwt>
<pdfrwt beam="1">  1        4 0.80867375E-01 0.99606277E+03</pdfrwt>
<totfact> 0.26049187E+00</totfact>
</mgrwt>
</event>
<event>
 6    1  0.1353269E-005  0.1015111E+04  0.7818608E-02  0.1000784E+00
          4   -1    0    0  502    0 -0.00000000000E+00  0.00000000000E+00  0.31071082640E+03  0.31071082640E+03  0.00000000000E+00 0.  1.
         21   -1    0    0  501  502  0.00000000000E+00 -0.00000000000E+00 -0.11400197297E+04  0.11400197297E+04  0.00000000000E+00 0.  1.
    9000010    2    1    2  501    0 -0.54595819748E+02 -0.70861818035E+02 -0.88383961092E+03  0.13459655331E+04  0.10111620334E+04 0.  0.
        -13    1    3    3    0    0  0.40747216351E+03 -0.28363616779E+03 -0.34272049393E+03  0.60327472004E+03  0.10566000000E+00 0.  1.
          4    1    3    3  501    0 -0.46206798325E+03  0.21277434976E+03 -0.54111911699E+03  0.74269081308E+03  0.00000000000E+00 0.  1.
         13    1    1    2    0    0  0.54595819748E+02  0.70861818035E+02  0.54530707663E+02  0.10476502294E+03  0.10566000000E+00 0. -1.
<mgrwt>
<rscale>  1 0.55307725E+03</rscale>
<asrwt>0</asrwt>
<pdfrwt beam="2">  1       21 0.17538765E+00 0.10151112E+04</pdfrwt>
<pdfrwt beam="1">  1        4 0.47801665E-01 0.10151112E+04</pdfrwt>
<totfact> 0.29261457E+01</totfact>
</mgrwt>
</event>
<event>
 6    1  0.1353269E-005  0.1009038E+04  0.7818608E-02  0.9800247E-01
         21   -1    0    0  501  502  0.00000000000E+00  0.00000000000E+00  0.55812965952E+03  0.55812965952E+03  0.00000000000E+00 0.  1.
          4   -1    0    0  502    0 -0.00000000000E+00 -0.00000000000E+00 -0.63100123480E+03  0.63100123480E+03  0.00000000000E+00 0.  1.
    9000010    2    1    2  501    0 -0.14545993030E+03 -0.10175432147E+03 -0.72117862915E+02  0.10116115644E+04  0.99329977234E+03 0.  0.
        -13    1    3    3    0    0  0.26820858918E+03  0.21661541562E+03 -0.28555907402E+03  0.44766291058E+03  0.10566000000E+00 0.  1.
          4    1    3    3  501    0 -0.41366851948E+03 -0.31836973709E+03  0.21344121110E+03  0.56394865378E+03  0.00000000000E+00 0.  1.
         13    1    1    2    0    0  0.14545993030E+03  0.10175432147E+03 -0.75371236288E+00  0.17751932995E+03  0.10566000000E+00 0. -1.
<mgrwt>
<rscale>  1 0.65349311E+03</rscale>
<asrwt>0</asrwt>
<pdfrwt beam="1">  1       21 0.85866102E-01 0.10090376E+04</pdfrwt>
<pdfrwt beam="2">  1        4 0.97077113E-01 0.10090376E+04</pdfrwt>
<totfact> 0.39518328E+01</totfact>
</mgrwt>
</event>
<event>
 6    1  0.1353269E-005  0.1020288E+04  0.7818608E-02  0.9966952E-01
         21   -1    0    0  501  502  0.00000000000E+00  0.00000000000E+00  0.82301904545E+03  0.82301904545E+03  0.00000000000E+00 0.  1.
          4   -1    0    0  502    0 -0.00000000000E+00 -0.00000000000E+00 -0.60980168213E+03  0.60980168213E+03  0.00000000000E+00 0.  1.
    9000010    2    1    2  501    0 -0.96693398375E+02  0.26467421699E+02  0.49479015784E+03  0.11339338134E+04  0.10153513949E+04 0.  0.
        -13    1    3    3    0    0 -0.20856108642E+02  0.14342910644E+03 -0.29672842577E+03  0.33023424363E+03  0.10566000000E+00 0.  1.
          4    1    3    3  501    0 -0.75837289733E+02 -0.11696168474E+03  0.79151858361E+03  0.80369956975E+03  0.00000000000E+00 0.  1.
         13    1    1    2    0    0  0.96693398375E+02 -0.26467421699E+02 -0.28157279453E+03  0.29888691420E+03  0.10566000000E+00 0. -1.
<mgrwt>
<rscale>  1 0.57123367E+03</rscale>
<asrwt>0</asrwt>
<pdfrwt beam="1">  1       21 0.12661831E+00 0.10202885E+04</pdfrwt>
<pdfrwt beam="2">  1        4 0.93815643E-01 0.10202885E+04</pdfrwt>
<totfact> 0.16178936E+01</totfact>
</mgrwt>
</event>
<event>
 6    1  0.1353269E-005  0.1043418E+04  0.7818608E-02  0.9580923E-01
          4   -1    0    0  502    0 -0.00000000000E+00  0.00000000000E+00  0.14212776101E+04  0.14212776101E+04  0.00000000000E+00 0.  1.
         21   -1    0    0  501  502  0.00000000000E+00 -0.00000000000E+00 -0.39912469907E+03  0.39912469907E+03  0.00000000000E+00 0.  1.
    9000010    2    1    2  501    0  0.29769776673E+02  0.33417623892E+03  0.40754293314E+03  0.11201841758E+04  0.98800877882E+03 0.  0.
        -13    1    3    3    0    0 -0.46577645698E+01 -0.27659576843E+03 -0.13015408636E+03  0.30572374988E+03  0.10566000000E+00 0.  1.
          4    1    3    3  501    0  0.34427541243E+02  0.61077200735E+03  0.53769701949E+03  0.81446042588E+03  0.00000000000E+00 0.  1.
         13    1    1    2    0    0 -0.29769776673E+02 -0.33417623892E+03  0.61460997791E+03  0.70021813342E+03  0.10566000000E+00 0. -1.
<mgrwt>
<rscale>  1 0.78571816E+03</rscale>
<asrwt>0</asrwt>
<pdfrwt beam="2">  1       21 0.61403800E-01 0.10434181E+04</pdfrwt>
<pdfrwt beam="1">  1        4 0.21865809E+00 0.10434181E+04</pdfrwt>
<totfact> 0.94731323E+00</totfact>
</mgrwt>
</event>
<event>
 6    1  0.1353269E-005  0.9995767E+03  0.7818608E-02  0.9854488E-01
         21   -1    0    0  501  502  0.00000000000E+00  0.00000000000E+00  0.12996208616E+04  0.12996208616E+04  0.00000000000E+00 0.  1.
          4   -1    0    0  502    0 -0.00000000000E+00 -0.00000000000E+00 -0.37313681123E+03  0.37313681123E+03  0.00000000000E+00 0.  1.
    9000010    2    1    2  501    0  0.12745929541E+03  0.84569532606E+02  0.10691156290E+04  0.14636126126E+04  0.98780350965E+03 0.  0.
        -13    1    3    3    0    0  0.45038071582E+03 -0.54802184301E+02  0.10096523918E+04  0.11069074180E+04  0.10566000000E+00 0.  1.
          4    1    3    3  501    0 -0.32292142041E+03  0.13937171691E+03  0.59463237154E+02  0.35670519453E+03  0.00000000000E+00 0.  1.
         13    1    1    2    0    0 -0.12745929541E+03 -0.84569532606E+02 -0.14263157864E+03  0.20914506024E+03  0.10566000000E+00 0. -1.
<mgrwt>
<rscale>  1 0.62518592E+03</rscale>
<asrwt>0</asrwt>
<pdfrwt beam="1">  1       21 0.19994167E+00 0.99957674E+03</pdfrwt>
<pdfrwt beam="2">  1        4 0.57405664E-01 0.99957674E+03</pdfrwt>
<totfact> 0.13287363E+01</totfact>
</mgrwt>
</event>
<event>
 6    1  0.1353269E-005  0.1017521E+04  0.7818608E-02  0.9809036E-01
          4   -1    0    0  502    0 -0.00000000000E+00  0.00000000000E+00  0.76031126682E+03  0.76031126682E+03  0.00000000000E+00 0.  1.
         21   -1    0    0  501  502  0.00000000000E+00 -0.00000000000E+00 -0.70295085717E+03  0.70295085717E+03  0.00000000000E+00 0.  1.
    9000010    2    1    2  501    0  0.16594026799E+03  0.27440235761E+02 -0.30627207080E+03  0.10626154828E+04  0.10035237635E+04 0.  0.
        -13    1    3    3    0    0  0.21871297519E+03 -0.29472651708E+03  0.23119980449E+03  0.43376542756E+03  0.10566000000E+00 0.  1.
          4    1    3    3  501    0 -0.52772707199E+02  0.32216675284E+03 -0.53747187530E+03  0.62885005525E+03  0.00000000000E+00 0.  1.
         13    1    1    2    0    0 -0.16594026799E+03 -0.27440235761E+02  0.36363248046E+03  0.40064664118E+03  0.10566000000E+00 0. -1.
<mgrwt>
<rscale>  1 0.64879880E+03</rscale>
<asrwt>0</asrwt>
<pdfrwt beam="2">  1       21 0.10814629E+00 0.10175210E+04</pdfrwt>
<pdfrwt beam="1">  1        4 0.11697096E+00 0.10175210E+04</pdfrwt>
<totfact> 0.14198803E+01</totfact>
</mgrwt>
</event>
<event>
 6    1  0.1353269E-005  0.9705726E+03  0.7818608E-02  0.9856851E-01
          4   -1    0    0  502    0 -0.00000000000E+00  0.00000000000E+00  0.29234436663E+03  0.29234436663E+03  0.00000000000E+00 0.  1.
         21   -1    0    0  501  502  0.00000000000E+00 -0.00000000000E+00 -0.12311922750E+04  0.12311922750E+04  0.00000000000E+00 0.  1.
    9000010    2    1    2  501    0 -0.14778294238E+03 -0.75196227082E+02 -0.94897842841E+03  0.13574134668E+04  0.95630381761E+03 0.  0.
        -13    1    3    3    0    0 -0.22209932797E+03 -0.46958019212E+03 -0.74227865817E+03  0.90598636075E+03  0.10566000000E+00 0.  1.
          4    1    3    3  501    0  0.74316385589E+02  0.39438396504E+03 -0.20669977024E+03  0.45142710603E+03  0.00000000000E+00 0.  1.
         13    1    1    2    0    0  0.14778294238E+03  0.75196227082E+02  0.10130520020E+02  0.16612317486E+03  0.10566000000E+00 0. -1.
<mgrwt>
<rscale>  1 0.62398814E+03</rscale>
<asrwt>0</asrwt>
<pdfrwt beam="2">  1       21 0.18941419E+00 0.97057265E+03</pdfrwt>
<pdfrwt beam="1">  1        4 0.44976057E-01 0.97057265E+03</pdfrwt>
<totfact> 0.26465081E+01</totfact>
</mgrwt>
</event>
<event>
 6    1  0.1353269E-005  0.1010983E+04  0.7818608E-02  0.9896783E-01
         21   -1    0    0  501  502  0.00000000000E+00  0.00000000000E+00  0.26561577005E+03  0.26561577005E+03  0.00000000000E+00 0.  1.
          4   -1    0    0  502    0 -0.00000000000E+00 -0.00000000000E+00 -0.12378889615E+04  0.12378889615E+04  0.00000000000E+00 0.  1.
    9000010    2    1    2  501    0  0.11914681634E+03 -0.49313120030E+02 -0.80517624975E+03  0.12924380436E+04  0.10027260622E+04 0.  0.
        -13    1    3    3    0    0  0.43019379263E+01 -0.40551591582E+02  0.23873458536E+03  0.24219238564E+03  0.10566000000E+00 0.  1.
          4    1    3    3  501    0  0.11484487842E+03 -0.87615284478E+01 -0.10439108351E+04  0.10502456580E+04  0.00000000000E+00 0.  1.
         13    1    1    2    0    0 -0.11914681634E+03  0.49313120030E+02 -0.16709694167E+03  0.21106668787E+03  0.10566000000E+00 0. -1.
<mgrwt>
<rscale>  1 0.60417425E+03</rscale>
<asrwt>0</asrwt>
<pdfrwt beam="1">  1       21 0.40863966E-01 0.10109833E+04</pdfrwt>
<pdfrwt beam="2">  1        4 0.19044445E+00 0.10109833E+04</pdfrwt>
<totfact> 0.35188895E+01</totfact>
</mgrwt>
</event>
<event>
 6    1  0.1353269E-005  0.1024087E+04  0.7818608E-02  0.9762499E-01
         21   -1    0    0  501  502  0.00000000000E+00  0.00000000000E+00  0.25782045826E+04  0.25782045826E+04  0.00000000000E+00 0.  1.
          4   -1    0    0  502    0 -0.00000000000E+00 -0.00000000000E+00 -0.14394363851E+03  0.14394363851E+03  0.00000000000E+00 0.  1.
    9000010    2    1    2  501    0  0.69233303977E+02  0.17941547413E+03  0.19898887359E+04  0.22379480215E+04  0.10058682831E+04 0.  0.
        -13    1    3    3    0    0 -0.26204538179E+03 -0.25085068619E+03  0.32609999154E+03  0.48778587980E+03  0.10566000000E+00 0.  1.
          4    1    3    3  501    0  0.33127868577E+03  0.43026616032E+03  0.16637887444E+04  0.17501621417E+04  0.00000000000E+00 0.  1.
         13    1    1    2    0    0 -0.69233303977E+02 -0.17941547413E+03  0.44437220817E+03  0.48420019960E+03  0.10566000000E+00 0. -1.
<mgrwt>
<rscale>  1 0.67414484E+03</rscale>
<asrwt>0</asrwt>
<pdfrwt beam="1">  1       21 0.39664682E+00 0.10240870E+04</pdfrwt>
<pdfrwt beam="2">  1        4 0.22145177E-01 0.10240870E+04</pdfrwt>
<totfact> 0.49981173E+00</totfact>
</mgrwt>
</event>
<event>
 6    1  0.1353269E-005  0.1003404E+04  0.7818608E-02  0.9967712E-01
         21   -1    0    0  501  502  0.00000000000E+00  0.00000000000E+00  0.13496469803E+04  0.13496469803E+04  0.00000000000E+00 0.  1.
          4   -1    0    0  502    0 -0.00000000000E+00 -0.00000000000E+00 -0.25601118328E+03  0.25601118328E+03  0.00000000000E+00 0.  1.
    9000010    2    1    2  501    0  0.49887484430E+02 -0.92554318356E+02  0.11132358614E+04  0.14987037964E+04  0.99787971392E+03 0.  0.
        -13    1    3    3    0    0  0.34444137965E+03 -0.27683836976E+03  0.13726834199E+03  0.46273313677E+03  0.10566000000E+00 0.  1.
          4    1    3    3  501    0 -0.29455389522E+03  0.18428405140E+03  0.97596751940E+03  0.10359706597E+04  0.00000000000E+00 0.  1.
         13    1    1    2    0    0 -0.49887484430E+02  0.92554318356E+02 -0.19600064411E+02  0.10695436708E+03  0.10566000000E+00 0. -1.
<mgrwt>
<rscale>  1 0.57088940E+03</rscale>
<asrwt>0</asrwt>
<pdfrwt beam="1">  1       21 0.20763799E+00 0.10034037E+04</pdfrwt>
<pdfrwt beam="2">  1        4 0.39386336E-01 0.10034037E+04</pdfrwt>
<totfact> 0.25915037E+01</totfact>
</mgrwt>
</event>
<event>
 6    1  0.1353269E-005  0.9845203E+03  0.7818608E-02  0.9663062E-01
          4   -1    0    0  502    0 -0.00000000000E+00  0.00000000000E+00  0.36243813813E+03  0.36243813813E+03  0.00000000000E+00 0.  1.
         21   -1    0    0  501  502  0.00000000000E+00 -0.00000000000E+00 -0.11940870407E+04  0.11940870407E+04  0.00000000000E+00 0.  1.
    9000010    2    1    2  501    0 -0.21991127048E+03 -0.20675245720E+03 -0.76653771727E+03  0.12477420461E+04  0.93710863631E+03 0.  0.
        -13    1    3    3    0    0 -0.48912405875E+03 -0.36365127085E+03 -0.28178855953E+03  0.67148298198E+03  0.10566000000E+00 0.  1.
          4    1    3    3  501    0  0.26921278826E+03  0.15689881366E+03 -0.48474915774E+03  0.57625906415E+03  0.00000000000E+00 0.  1.
         13    1    1    2    0    0  0.21991127048E+03  0.20675245720E+03 -0.65111185339E+02  0.30878313274E+03  0.10566000000E+00 0. -1.
<mgrwt>
<rscale>  1 0.73259305E+03</rscale>
<asrwt>0</asrwt>
<pdfrwt beam="2">  1       21 0.18370570E+00 0.98452026E+03</pdfrwt>
<pdfrwt beam="1">  1        4 0.55759714E-01 0.98452026E+03</pdfrwt>
<totfact> 0.18426280E+01</totfact>
</mgrwt>
</event>
<event>
 6    1  0.1353269E-005  0.9922820E+03  0.7818608E-02  0.1018331E+00
          4   -1    0    0  502    0 -0.00000000000E+00  0.00000000000E+00  0.13984941302E+03  0.13984941302E+03  0.00000000000E+00 0.  1.
         21   -1    0    0  501  502  0.00000000000E+00 -0.00000000000E+00 -0.19989225615E+04  0.19989225615E+04  0.00000000000E+00 0.  1.
    9000010    2    1    2  501    0  0.20100680405E+02 -0.51919438871E+02 -0.18118183787E+04  0.20657467055E+04  0.99071890476E+03 0.  0.
        -13    1    3    3    0    0  0.23196182116E+03  0.27124043903E+03 -0.15696573052E+04  0.16097210098E+04  0.10566000000E+00 0.  1.
          4    1    3    3  501    0 -0.21186114075E+03 -0.32315987790E+03 -0.24216107350E+03  0.45602569573E+03  0.00000000000E+00 0.  1.
         13    1    1    2    0    0 -0.20100680405E+02  0.51919438871E+02 -0.47254769701E+02  0.73025268975E+02  0.10566000000E+00 0. -1.
<mgrwt>
<rscale>  1 0.48293746E+03</rscale>
<asrwt>0</asrwt>
<pdfrwt beam="2">  1       21 0.30752655E+00 0.99228202E+03</pdfrwt>
<pdfrwt beam="1">  1        4 0.21515294E-01 0.99228202E+03</pdfrwt>
<totfact> 0.19514506E+01</totfact>
</mgrwt>
</event>
<event>
 6    1  0.1353269E-005  0.1017669E+04  0.7818608E-02  0.9822799E-01
         21   -1    0    0  501  502  0.00000000000E+00  0.00000000000E+00  0.52165663544E+03  0.52165663544E+03  0.00000000000E+00 0.  1.
          4   -1    0    0  502    0 -0.00000000000E+00 -0.00000000000E+00 -0.90324828366E+03  0.90324828366E+03  0.00000000000E+00 0.  1.
    9000010    2    1    2  501    0 -0.36107279284E+02  0.15660604556E+03 -0.74392930108E+01  0.10176959000E+04  0.10048982102E+04 0.  0.
        -13    1    3    3    0    0  0.35258612825E+01  0.39066849061E+03  0.39174160413E+03  0.55325924920E+03  0.10566000000E+00 0.  1.
          4    1    3    3  501    0 -0.39633140567E+02 -0.23406244505E+03 -0.39918089714E+03  0.46443665085E+03  0.00000000000E+00 0.  1.
         13    1    1    2    0    0  0.36107279284E+02 -0.15660604556E+03 -0.37415235521E+03  0.40720901905E+03  0.10566000000E+00 0. -1.
<mgrwt>
<rscale>  1 0.64153253E+03</rscale>
<asrwt>0</asrwt>
<pdfrwt beam="1">  1       21 0.80254866E-01 0.10176687E+04</pdfrwt>
<pdfrwt beam="2">  1        4 0.13896128E+00 0.10176687E+04</pdfrwt>
<totfact> 0.18910123E+01</totfact>
</mgrwt>
</event>
<event>
 6    1  0.1353269E-005  0.1031586E+04  0.7818608E-02  0.9700633E-01
          4   -1    0    0  502    0 -0.00000000000E+00  0.00000000000E+00  0.35445735128E+03  0.35445735128E+03  0.00000000000E+00 0.  1.
         21   -1    0    0  501  502  0.00000000000E+00 -0.00000000000E+00 -0.11499300851E+04  0.11499300851E+04  0.00000000000E+00 0.  1.
    9000010    2    1    2  501    0 -0.12873438163E+03 -0.19205531598E+03 -0.73108636024E+03  0.12643803497E+04  0.10053420399E+04 0.  0.
        -13    1    3    3    0    0 -0.47486971326E+03  0.15883563487E+03 -0.53816402088E+03  0.73508538824E+03  0.10566000000E+00 0.  1.
          4    1    3    3  501    0  0.34613533162E+03 -0.35089095085E+03 -0.19292233936E+03  0.52929496144E+03  0.00000000000E+00 0.  1.
         13    1    1    2    0    0  0.12873438163E+03  0.19205531598E+03 -0.64386373616E+02  0.24000708673E+03  0.10566000000E+00 0. -1.
<mgrwt>
<rscale>  1 0.70979114E+03</rscale>
<asrwt>0</asrwt>
<pdfrwt beam="2">  1       21 0.17691232E+00 0.10315864E+04</pdfrwt>
<pdfrwt beam="1">  1        4 0.54531901E-01 0.10315864E+04</pdfrwt>
<totfact> 0.21530198E+01</totfact>
</mgrwt>
</event>
<event>
 6    1  0.1353269E-005  0.1022384E+04  0.7818608E-02  0.9707388E-01
         21   -1    0    0  501  502  0.00000000000E+00  0.00000000000E+00  0.90401852950E+03  0.90401852950E+03  0.00000000000E+00 0.  1.
          4   -1    0    0  502    0 -0.00000000000E+00 -0.00000000000E+00 -0.54903469379E+03  0.54903469379E+03  0.00000000000E+00 0.  1.
    9000010    2    1    2  501    0  0.16624203680E+03  0.16210311721E+03  0.53993667740E+03  0.11562007343E+04  0.99566796021E+03 0.  0.
        -13    1    3    3    0    0  0.22383781054E+03  0.91662507064E+02  0.82355699984E+03  0.85834231154E+03  0.10566000000E+00 0.  1.
          4    1    3    3  501    0 -0.57595773747E+02  0.70440610142E+02 -0.28362032244E+03  0.29785842276E+03  0.00000000000E+00 0.  1.
         13    1    1    2    0    0 -0.16624203680E+03 -0.16210311721E+03 -0.18495284169E+03  0.29685248899E+03  0.10566000000E+00 0. -1.
<mgrwt>
<rscale>  1 0.70578592E+03</rscale>
<asrwt>0</asrwt>
<pdfrwt beam="1">  1       21 0.13907977E+00 0.10223837E+04</pdfrwt>
<pdfrwt beam="2">  1        4 0.84466876E-01 0.10223837E+04</pdfrwt>
<totfact> 0.16102494E+01</totfact>
</mgrwt>
</event>
<event>
 6    1  0.1353269E-005  0.1058850E+04  0.7818608E-02  0.9564049E-01
          4   -1    0    0  502    0 -0.00000000000E+00  0.00000000000E+00  0.40002482832E+03  0.40002482832E+03  0.00000000000E+00 0.  1.
         21   -1    0    0  501  502  0.00000000000E+00 -0.00000000000E+00 -0.18958246554E+04  0.18958246554E+04  0.00000000000E+00 0.  1.
    9000010    2    1    2  501    0 -0.30645262813E+03 -0.14786437737E+03 -0.16185438599E+04  0.19341269435E+04  0.10026892439E+04 0.  0.
        -13    1    3    3    0    0 -0.50534173525E+03 -0.11226762664E+03 -0.29615388551E+03  0.59639032893E+03  0.10566000000E+00 0.  1.
          4    1    3    3  501    0  0.19888910712E+03 -0.35596750730E+02 -0.13223899743E+04  0.13377366145E+04  0.00000000000E+00 0.  1.
         13    1    1    2    0    0  0.30645262813E+03  0.14786437737E+03  0.12274403278E+03  0.36172254026E+03  0.10566000000E+00 0. -1.
<mgrwt>
<rscale>  1 0.79722074E+03</rscale>
<asrwt>0</asrwt>
<pdfrwt beam="2">  1       21 0.29166533E+00 0.10588498E+04</pdfrwt>
<pdfrwt beam="1">  1        4 0.61542281E-01 0.10588498E+04</pdfrwt>
<totfact> 0.29025108E+00</totfact>
</mgrwt>
</event>
<event>
 6    1  0.1353269E-005  0.9883085E+03  0.7818608E-02  0.9875878E-01
         21   -1    0    0  501  502  0.00000000000E+00  0.00000000000E+00  0.61520253580E+03  0.61520253580E+03  0.00000000000E+00 0.  1.
          4   -1    0    0  502    0 -0.00000000000E+00 -0.00000000000E+00 -0.53153410292E+03  0.53153410292E+03  0.00000000000E+00 0.  1.
    9000010    2    1    2  501    0  0.14740704112E+03  0.86265828232E+01  0.11744858840E+03  0.99526266810E+03  0.97721561279E+03 0.  0.
        -13    1    3    3    0    0 -0.45717311941E+02  0.42787230381E+03 -0.15722532253E+03  0.45813163413E+03  0.10566000000E+00 0.  1.
          4    1    3    3  501    0  0.19312435307E+03 -0.41924572099E+03  0.27467391093E+03  0.53713103397E+03  0.00000000000E+00 0.  1.
         13    1    1    2    0    0 -0.14740704112E+03 -0.86265828232E+01 -0.33780155516E+02  0.15147397062E+03  0.10566000000E+00 0. -1.
<mgrwt>
<rscale>  1 0.61444721E+03</rscale>
<asrwt>0</asrwt>
<pdfrwt beam="1">  1       21 0.94646544E-01 0.98830846E+03</pdfrwt>
<pdfrwt beam="2">  1        4 0.81774477E-01 0.98830846E+03</pdfrwt>
<totfact> 0.46813218E+01</totfact>
</mgrwt>
</event>
<event>
 6    1  0.1353269E-005  0.1022257E+04  0.7818608E-02  0.9833307E-01
         21   -1    0    0  501  502  0.00000000000E+00  0.00000000000E+00  0.12069328792E+04  0.12069328792E+04  0.00000000000E+00 0.  1.
          4   -1    0    0  502    0 -0.00000000000E+00 -0.00000000000E+00 -0.40503007108E+03  0.40503007108E+03  0.00000000000E+00 0.  1.
    9000010    2    1    2  501    0 -0.11773223482E+03  0.98046372617E+02  0.95242350432E+03  0.13971829199E+04  0.10107104480E+04 0.  0.
        -13    1    3    3    0    0 -0.18426806557E+01 -0.13433577960E+03 -0.18604061569E+03  0.22947901648E+03  0.10566000000E+00 0.  1.
          4    1    3    3  501    0 -0.11588955417E+03  0.23238215222E+03  0.11384641200E+04  0.11677039034E+04  0.00000000000E+00 0.  1.
         13    1    1    2    0    0  0.11773223482E+03 -0.98046372617E+02 -0.15052069623E+03  0.21478003039E+03  0.10566000000E+00 0. -1.
<mgrwt>
<rscale>  1 0.63605321E+03</rscale>
<asrwt>0</asrwt>
<pdfrwt beam="1">  1       21 0.18568198E+00 0.10222571E+04</pdfrwt>
<pdfrwt beam="2">  1        4 0.62312319E-01 0.10222571E+04</pdfrwt>
<totfact> 0.13948232E+01</totfact>
</mgrwt>
</event>
<event>
 6    1  0.1353269E-005  0.1026990E+04  0.7818608E-02  0.9868769E-01
          4   -1    0    0  502    0 -0.00000000000E+00  0.00000000000E+00  0.26639772458E+03  0.26639772458E+03  0.00000000000E+00 0.  1.
         21   -1    0    0  501  502  0.00000000000E+00 -0.00000000000E+00 -0.12672233460E+04  0.12672233460E+04  0.00000000000E+00 0.  1.
    9000010    2    1    2  501    0 -0.86027353077E+02 -0.10359432112E+03 -0.89736256998E+03  0.13638061625E+04  0.10181233608E+04 0.  0.
        -13    1    3    3    0    0 -0.11231032751E+03 -0.36678460211E+03 -0.10069219989E+04  0.10775140263E+04  0.10566000000E+00 0.  1.
          4    1    3    3  501    0  0.26282974436E+02  0.26319028099E+03  0.10955942887E+03  0.28629213612E+03  0.00000000000E+00 0.  1.
         13    1    1    2    0    0  0.86027353077E+02  0.10359432112E+03 -0.10346305143E+03  0.16981490813E+03  0.10566000000E+00 0. -1.
<mgrwt>
<rscale>  1 0.61799043E+03</rscale>
<asrwt>0</asrwt>
<pdfrwt beam="2">  1       21 0.19495744E+00 0.10269896E+04</pdfrwt>
<pdfrwt beam="1">  1        4 0.40984264E-01 0.10269896E+04</pdfrwt>
<totfact> 0.29114788E+01</totfact>
</mgrwt>
</event>
<event>
 6    1  0.1353269E-005  0.1000455E+04  0.7818608E-02  0.9610372E-01
         21   -1    0    0  501  502  0.00000000000E+00  0.00000000000E+00  0.86490797089E+03  0.86490797089E+03  0.00000000000E+00 0.  1.
          4   -1    0    0  502    0 -0.00000000000E+00 -0.00000000000E+00 -0.57652629227E+03  0.57652629227E+03  0.00000000000E+00 0.  1.
    9000010    2    1    2  501    0  0.23924656330E+03 -0.24725506415E+03  0.40331401095E+03  0.10786899497E+04  0.93943378227E+03 0.  0.
        -13    1    3    3    0    0  0.30197265780E+03 -0.15552891814E+03 -0.24634352010E+03  0.41959727298E+03  0.10566000000E+00 0.  1.
          4    1    3    3  501    0 -0.62726094493E+02 -0.91726146010E+02  0.64965753105E+03  0.65909267667E+03  0.00000000000E+00 0.  1.
         13    1    1    2    0    0 -0.23924656330E+03  0.24725506415E+03 -0.11493233233E+03  0.36274431350E+03  0.10566000000E+00 0. -1.
<mgrwt>
<rscale>  1 0.76613472E+03</rscale>
<asrwt>0</asrwt>
<pdfrwt beam="1">  1       21 0.13306276E+00 0.10004548E+04</pdfrwt>
<pdfrwt beam="2">  1        4 0.88696353E-01 0.10004548E+04</pdfrwt>
<totfact> 0.16223651E+01</totfact>
</mgrwt>
</event>
<event>
 6    1  0.1353269E-005  0.1012515E+04  0.7818608E-02  0.9862284E-01
         21   -1    0    0  501  502  0.00000000000E+00  0.00000000000E+00  0.71516302726E+03  0.71516302726E+03  0.00000000000E+00 0.  1.
          4   -1    0    0  502    0 -0.00000000000E+00 -0.00000000000E+00 -0.58323696060E+03  0.58323696060E+03  0.00000000000E+00 0.  1.
    9000010    2    1    2  501    0 -0.70007585098E+02  0.12526307527E+03  0.31995903239E+03  0.10618660424E+04  0.10022942729E+04 0.  0.
        -13    1    3    3    0    0 -0.50327555707E+03 -0.46316533029E+02  0.31558574260E+03  0.59584048173E+03  0.10566000000E+00 0.  1.
          4    1    3    3  501    0  0.43326797197E+03  0.17157960830E+03  0.43732897941E+01  0.46602556065E+03  0.00000000000E+00 0.  1.
         13    1    1    2    0    0  0.70007585098E+02 -0.12526307527E+03 -0.18803296573E+03  0.23653394548E+03  0.10566000000E+00 0. -1.
<mgrwt>
<rscale>  1 0.62124519E+03</rscale>
<asrwt>0</asrwt>
<pdfrwt beam="1">  1       21 0.11002508E+00 0.10125145E+04</pdfrwt>
<pdfrwt beam="2">  1        4 0.89728763E-01 0.10125145E+04</pdfrwt>
<totfact> 0.25859139E+01</totfact>
</mgrwt>
</event>
<event>
 6    1  0.1353269E-005  0.1022302E+04  0.7818608E-02  0.9969814E-01
         21   -1    0    0  501  502  0.00000000000E+00  0.00000000000E+00  0.84310987624E+03  0.84310987624E+03  0.00000000000E+00 0.  1.
          4   -1    0    0  502    0 -0.00000000000E+00 -0.00000000000E+00 -0.39360174013E+03  0.39360174013E+03  0.00000000000E+00 0.  1.
    9000010    2    1    2  501    0 -0.87755191332E+02 -0.45302266095E+02  0.31478606815E+03  0.10696687605E+04  0.10175203780E+04 0.  0.
        -13    1    3    3    0    0 -0.39909863666E+03  0.83338801768E+02 -0.20026214513E+03  0.45423563885E+03  0.10566000000E+00 0.  1.
          4    1    3    3  501    0  0.31134344533E+03 -0.12864106786E+03  0.51504821328E+03  0.61543312170E+03  0.00000000000E+00 0.  1.
         13    1    1    2    0    0  0.87755191332E+02  0.45302266095E+02  0.13472206797E+03  0.16704285582E+03  0.10566000000E+00 0. -1.
<mgrwt>
<rscale>  1 0.56993882E+03</rscale>
<asrwt>0</asrwt>
<pdfrwt beam="1">  1       21 0.12970921E+00 0.10223018E+04</pdfrwt>
<pdfrwt beam="2">  1        4 0.60554114E-01 0.10223018E+04</pdfrwt>
<totfact> 0.41063837E+01</totfact>
</mgrwt>
</event>
<event>
 6    1  0.1353269E-005  0.9977649E+03  0.7818608E-02  0.9745182E-01
         21   -1    0    0  501  502  0.00000000000E+00  0.00000000000E+00  0.16962504363E+04  0.16962504363E+04  0.00000000000E+00 0.  1.
          4   -1    0    0  502    0 -0.00000000000E+00 -0.00000000000E+00 -0.28862578914E+03  0.28862578914E+03  0.00000000000E+00 0.  1.
    9000010    2    1    2  501    0 -0.45290018681E+02 -0.21551772203E+03  0.14504811246E+04  0.17605198947E+04  0.97315760925E+03 0.  0.
        -13    1    3    3    0    0  0.43680418773E+03 -0.26844929820E+03  0.75595040310E+03  0.91341334960E+03  0.10566000000E+00 0.  1.
          4    1    3    3  501    0 -0.48209420641E+03  0.52931576171E+02  0.69453072152E+03  0.84710654509E+03  0.00000000000E+00 0.  1.
         13    1    1    2    0    0  0.45290018681E+02  0.21551772203E+03 -0.42856477499E+02  0.22435633070E+03  0.10566000000E+00 0. -1.
<mgrwt>
<rscale>  1 0.68389253E+03</rscale>
<asrwt>0</asrwt>
<pdfrwt beam="1">  1       21 0.26096160E+00 0.99776491E+03</pdfrwt>
<pdfrwt beam="2">  1        4 0.44403969E-01 0.99776491E+03</pdfrwt>
<totfact> 0.91417694E+00</totfact>
</mgrwt>
</event>
<event>
 6    1  0.1353269E-005  0.1011738E+04  0.7818608E-02  0.9988903E-01
         21   -1    0    0  501  502  0.00000000000E+00  0.00000000000E+00  0.16667841681E+04  0.16667841681E+04  0.00000000000E+00 0.  1.
          4   -1    0    0  502    0 -0.00000000000E+00 -0.00000000000E+00 -0.18557827796E+03  0.18557827796E+03  0.00000000000E+00 0.  1.
    9000010    2    1    2  501    0 -0.46898915848E+02 -0.83662658819E+02  0.13959729672E+04  0.17240518420E+04  0.10071818506E+04 0.  0.
        -13    1    3    3    0    0 -0.29419531927E+03 -0.24187162624E+03  0.13782936038E+04  0.14299461664E+04  0.10566000000E+00 0.  1.
          4    1    3    3  501    0  0.24729640343E+03  0.15820896742E+03  0.17679363363E+02  0.29410567558E+03  0.00000000000E+00 0.  1.
         13    1    1    2    0    0  0.46898915848E+02  0.83662658819E+02  0.85232922997E+02  0.12831060406E+03  0.10566000000E+00 0. -1.
<mgrwt>
<rscale>  1 0.56139489E+03</rscale>
<asrwt>0</asrwt>
<pdfrwt beam="1">  1       21 0.25642832E+00 0.10117382E+04</pdfrwt>
<pdfrwt beam="2">  1        4 0.28550505E-01 0.10117382E+04</pdfrwt>
<totfact> 0.23626832E+01</totfact>
</mgrwt>
</event>
<event>
 6    1  0.1353269E-005  0.1049962E+04  0.7818608E-02  0.9819422E-01
         21   -1    0    0  501  502  0.00000000000E+00  0.00000000000E+00  0.16254836606E+04  0.16254836606E+04  0.00000000000E+00 0.  1.
          4   -1    0    0  502    0 -0.00000000000E+00 -0.00000000000E+00 -0.52687213043E+03  0.52687213043E+03  0.00000000000E+00 0.  1.
    9000010    2    1    2  501    0  0.93121660586E+02 -0.11498277213E+03  0.14389235164E+04  0.17812696276E+04  0.10394844484E+04 0.  0.
        -13    1    3    3    0    0 -0.25502871105E+03  0.31996179929E+03  0.97109542358E+03  0.10537748950E+04  0.10566000000E+00 0.  1.
          4    1    3    3  501    0  0.34815037164E+03 -0.43494457142E+03  0.46782809284E+03  0.72749473258E+03  0.00000000000E+00 0.  1.
         13    1    1    2    0    0 -0.93121660586E+02  0.11498277213E+03 -0.34031198625E+03  0.37108616346E+03  0.10566000000E+00 0. -1.
<mgrwt>
<rscale>  1 0.64330606E+03</rscale>
<asrwt>0</asrwt>
<pdfrwt beam="1">  1       21 0.25007441E+00 0.10499622E+04</pdfrwt>
<pdfrwt beam="2">  1        4 0.81057252E-01 0.10499622E+04</pdfrwt>
<totfact> 0.28578981E+00</totfact>
</mgrwt>
</event>
<event>
 6    1  0.1353269E-005  0.1013866E+04  0.7818608E-02  0.9793015E-01
         21   -1    0    0  501  502  0.00000000000E+00  0.00000000000E+00  0.11780504470E+04  0.11780504470E+04  0.00000000000E+00 0.  1.
          4   -1    0    0  502    0 -0.00000000000E+00 -0.00000000000E+00 -0.69795843482E+03  0.69795843482E+03  0.00000000000E+00 0.  1.
    9000010    2    1    2  501    0 -0.15911507557E+03 -0.82437436550E+02  0.93990209521E+03  0.13825123146E+04  0.99790320838E+03 0.  0.
        -13    1    3    3    0    0 -0.49002326473E+03  0.24148709678E+03  0.57325012904E+03  0.79186775379E+03  0.10566000000E+00 0.  1.
          4    1    3    3  501    0  0.33090818916E+03 -0.32392453333E+03  0.36665196617E+03  0.59064456084E+03  0.00000000000E+00 0.  1.
         13    1    1    2    0    0  0.15911507557E+03  0.82437436550E+02 -0.45981008303E+03  0.49349656720E+03  0.10566000000E+00 0. -1.
<mgrwt>
<rscale>  1 0.65738755E+03</rscale>
<asrwt>0</asrwt>
<pdfrwt beam="1">  1       21 0.18123853E+00 0.10138660E+04</pdfrwt>
<pdfrwt beam="2">  1        4 0.10737822E+00 0.10138660E+04</pdfrwt>
<totfact> 0.42677715E+00</totfact>
</mgrwt>
</event>
<event>
 6    1  0.1353269E-005  0.1221231E+04  0.7818608E-02  0.9246537E-01
          4   -1    0    0  502    0 -0.00000000000E+00  0.00000000000E+00  0.12699802674E+04  0.12699802674E+04  0.00000000000E+00 0.  1.
         21   -1    0    0  501  502  0.00000000000E+00 -0.00000000000E+00 -0.15101487138E+04  0.15101487138E+04  0.00000000000E+00 0.  1.
    9000010    2    1    2  501    0  0.59941898852E+03  0.34060403119E+03 -0.11236253631E+04  0.16594995311E+04  0.10080131483E+04 0.  0.
        -13    1    3    3    0    0  0.32139634582E+03  0.67000273480E+03 -0.47923193776E+03  0.88422991189E+03  0.10566000000E+00 0.  1.
          4    1    3    3  501    0  0.27802264271E+03 -0.32939870361E+03 -0.64439342533E+03  0.77526961916E+03  0.00000000000E+00 0.  1.
         13    1    1    2    0    0 -0.59941898852E+03 -0.34060403119E+03  0.88345691671E+03  0.11206294502E+04  0.10566000000E+00 0. -1.
<mgrwt>
<rscale>  1 0.10585733E+04</rscale>
<asrwt>0</asrwt>
<pdfrwt beam="2">  1       21 0.23233057E+00 0.12212308E+04</pdfrwt>
<pdfrwt beam="1">  1        4 0.19538158E+00 0.12212308E+04</pdfrwt>
<totfact> 0.37069793E-01</totfact>
</mgrwt>
</event>
<event>
 6    1  0.1353269E-005  0.1040006E+04  0.7818608E-02  0.9618302E-01
          4   -1    0    0  502    0 -0.00000000000E+00  0.00000000000E+00  0.11930316759E+04  0.11930316759E+04  0.00000000000E+00 0.  1.
         21   -1    0    0  501  502  0.00000000000E+00 -0.00000000000E+00 -0.38438309805E+03  0.38438309805E+03  0.00000000000E+00 0.  1.
    9000010    2    1    2  501    0  0.20096451834E+02  0.29741609529E+03  0.72512629398E+03  0.12678405758E+04  0.99636909939E+03 0.  0.
        -13    1    3    3    0    0  0.76483198878E+02  0.19761844037E+03  0.97243718862E+03  0.99525716508E+03  0.10566000000E+00 0.  1.
          4    1    3    3  501    0 -0.56386747044E+02  0.99797654921E+02 -0.24731089464E+03  0.27258341068E+03  0.00000000000E+00 0.  1.
         13    1    1    2    0    0 -0.20096451834E+02 -0.29741609529E+03  0.83522283860E+02  0.30957419818E+03  0.10566000000E+00 0. -1.
<mgrwt>
<rscale>  1 0.76096594E+03</rscale>
<asrwt>0</asrwt>
<pdfrwt beam="2">  1       21 0.59135862E-01 0.10400056E+04</pdfrwt>
<pdfrwt beam="1">  1        4 0.18354333E+00 0.10400056E+04</pdfrwt>
<totfact> 0.17610863E+01</totfact>
</mgrwt>
</event>
<event>
 6    1  0.1353269E-005  0.9822196E+03  0.7818608E-02  0.9967703E-01
         21   -1    0    0  501  502  0.00000000000E+00  0.00000000000E+00  0.25809587176E+03  0.25809587176E+03  0.00000000000E+00 0.  1.
          4   -1    0    0  502    0 -0.00000000000E+00 -0.00000000000E+00 -0.11997279055E+04  0.11997279055E+04  0.00000000000E+00 0.  1.
    9000010    2    1    2  501    0 -0.86015733065E+02 -0.71882641378E+02 -0.75003296597E+03  0.12358417185E+04  0.97580196902E+03 0.  0.
        -13    1    3    3    0    0 -0.45977288411E+03  0.15296580220E+03 -0.17739046713E+03  0.51600099864E+03  0.10566000000E+00 0.  1.
          4    1    3    3  501    0  0.37375715104E+03 -0.22484844358E+03 -0.57264249884E+03  0.71984071989E+03  0.00000000000E+00 0.  1.
         13    1    1    2    0    0  0.86015733065E+02  0.71882641378E+02 -0.19159906781E+03  0.22198205877E+03  0.10566000000E+00 0. -1.
<mgrwt>
<rscale>  1 0.57089382E+03</rscale>
<asrwt>0</asrwt>
<pdfrwt beam="1">  1       21 0.39707056E-01 0.98221958E+03</pdfrwt>
<pdfrwt beam="2">  1        4 0.18457353E+00 0.98221958E+03</pdfrwt>
<totfact> 0.41086999E+01</totfact>
</mgrwt>
</event>
<event>
 6    1  0.1353269E-005  0.1176525E+04  0.7818608E-02  0.9597101E-01
          4   -1    0    0  502    0 -0.00000000000E+00  0.00000000000E+00  0.13729922132E+04  0.13729922132E+04  0.00000000000E+00 0.  1.
         21   -1    0    0  501  502  0.00000000000E+00 -0.00000000000E+00 -0.38478699187E+03  0.38478699187E+03  0.00000000000E+00 0.  1.
    9000010    2    1    2  501    0  0.93386497381E+02 -0.20072095674E+03  0.62449752615E+03  0.13319937672E+04  0.11555086739E+04 0.  0.
        -13    1    3    3    0    0  0.60849495579E+03 -0.14553145445E+03  0.18447355989E+03  0.65228522973E+03  0.10566000000E+00 0.  1.
          4    1    3    3  501    0 -0.51510845841E+03 -0.55189502289E+02  0.44002396626E+03  0.67970853752E+03  0.00000000000E+00 0.  1.
         13    1    1    2    0    0 -0.93386497381E+02  0.20072095674E+03  0.36370769521E+03  0.42578543785E+03  0.10566000000E+00 0. -1.
<mgrwt>
<rscale>  1 0.77488331E+03</rscale>
<asrwt>0</asrwt>
<pdfrwt beam="2">  1       21 0.59197999E-01 0.11765246E+04</pdfrwt>
<pdfrwt beam="1">  1        4 0.21122957E+00 0.11765246E+04</pdfrwt>
<totfact> 0.11320735E+01</totfact>
</mgrwt>
</event>
<event>
 6    1  0.1353269E-005  0.1020180E+04  0.7818608E-02  0.9762451E-01
          4   -1    0    0  502    0 -0.00000000000E+00  0.00000000000E+00  0.14193869895E+04  0.14193869895E+04  0.00000000000E+00 0.  1.
         21   -1    0    0  501  502  0.00000000000E+00 -0.00000000000E+00 -0.28707035041E+03  0.28707035041E+03  0.00000000000E+00 0.  1.
    9000010    2    1    2  501    0  0.72583054686E+02  0.18051290743E+03  0.71432013087E+03  0.12453995327E+04  0.10014557090E+04 0.  0.
        -13    1    3    3    0    0 -0.34803358752E+03 -0.18781418091E+03  0.52042894745E+03  0.65364198542E+03  0.10566000000E+00 0.  1.
          4    1    3    3  501    0  0.42061664221E+03  0.36832708834E+03  0.19389118342E+03  0.59175754724E+03  0.00000000000E+00 0.  1.
         13    1    1    2    0    0 -0.72583054686E+02 -0.18051290743E+03  0.41799650818E+03  0.46105780721E+03  0.10566000000E+00 0. -1.
<mgrwt>
<rscale>  1 0.67417149E+03</rscale>
<asrwt>0</asrwt>
<pdfrwt beam="2">  1       21 0.44164670E-01 0.10201798E+04</pdfrwt>
<pdfrwt beam="1">  1        4 0.21836723E+00 0.10201798E+04</pdfrwt>
<totfact> 0.19557180E+01</totfact>
</mgrwt>
</event>
<event>
 6    1  0.1353269E-005  0.1084929E+04  0.7818608E-02  0.9472231E-01
          4   -1    0    0  502    0 -0.00000000000E+00  0.00000000000E+00  0.26844584457E+03  0.26844584457E+03  0.00000000000E+00 0.  1.
         21   -1    0    0  501  502  0.00000000000E+00 -0.00000000000E+00 -0.21721481016E+04  0.21721481016E+04  0.00000000000E+00 0.  1.
    9000010    2    1    2  501    0 -0.43297017936E+03  0.47861506307E+02 -0.12515175574E+04  0.16563116032E+04  0.99363878256E+03 0.  0.
        -13    1    3    3    0    0 -0.51177233755E+03 -0.28219423325E+03 -0.32301431788E+03  0.66774454059E+03  0.10566000000E+00 0.  1.
          4    1    3    3  501    0  0.78802158193E+02  0.33005573956E+03 -0.92850323956E+03  0.98856706258E+03  0.00000000000E+00 0.  1.
         13    1    1    2    0    0  0.43297017936E+03 -0.47861506307E+02 -0.65218469954E+03  0.78428234296E+03  0.10566000000E+00 0. -1.
<mgrwt>
<rscale>  1 0.86362464E+03</rscale>
<asrwt>0</asrwt>
<pdfrwt beam="2">  1       21 0.33417663E+00 0.10849295E+04</pdfrwt>
<pdfrwt beam="1">  1        4 0.41299361E-01 0.10849295E+04</pdfrwt>
<totfact> 0.36490722E+00</totfact>
</mgrwt>
</event>
<event>
 6    1  0.1353269E-005  0.1118161E+04  0.7818608E-02  0.9398283E-01
          4   -1    0    0  502    0 -0.00000000000E+00  0.00000000000E+00  0.17185513689E+04  0.17185513689E+04  0.00000000000E+00 0.  1.
         21   -1    0    0  501  502  0.00000000000E+00 -0.00000000000E+00 -0.52552122927E+03  0.52552122927E+03  0.00000000000E+00 0.  1.
    9000010    2    1    2  501    0 -0.51475318142E+03 -0.51154696785E+02  0.21640465129E+03  0.11389097159E+04  0.99131061076E+03 0.  0.
        -13    1    3    3    0    0 -0.70482454728E+03  0.19113417246E+03  0.34192572413E+03  0.80636414003E+03  0.10566000000E+00 0.  1.
          4    1    3    3  501    0  0.19007136586E+03 -0.24228886925E+03 -0.12552107284E+03  0.33254557584E+03  0.00000000000E+00 0.  1.
         13    1    1    2    0    0  0.51475318142E+03  0.51154696785E+02  0.97662548832E+03  0.11051628823E+04  0.10566000000E+00 0. -1.
<mgrwt>
<rscale>  1 0.92217121E+03</rscale>
<asrwt>0</asrwt>
<pdfrwt beam="2">  1       21 0.80849421E-01 0.11181612E+04</pdfrwt>
<pdfrwt beam="1">  1        4 0.26439252E+00 0.11181612E+04</pdfrwt>
<totfact> 0.25803761E+00</totfact>
</mgrwt>
</event>
<event>
 6    1  0.1353269E-005  0.1072072E+04  0.7818608E-02  0.9482953E-01
         21   -1    0    0  501  502  0.00000000000E+00  0.00000000000E+00  0.27553960407E+03  0.27553960407E+03  0.00000000000E+00 0.  1.
          4   -1    0    0  502    0 -0.00000000000E+00 -0.00000000000E+00 -0.20971635120E+04  0.20971635120E+04  0.00000000000E+00 0.  1.
    9000010    2    1    2  501    0  0.34020374694E+03  0.27070776651E+03 -0.14324070690E+04  0.17891698752E+04  0.97995793115E+03 0.  0.
        -13    1    3    3    0    0  0.56237227881E+03 -0.79130593719E+02 -0.11647541508E+04  0.12958304186E+04  0.10566000000E+00 0.  1.
          4    1    3    3  501    0 -0.22216853187E+03  0.34983836023E+03 -0.26765291824E+03  0.49333945665E+03  0.00000000000E+00 0.  1.
         13    1    1    2    0    0 -0.34020374694E+03 -0.27070776651E+03 -0.38921683887E+03  0.58353324079E+03  0.10566000000E+00 0. -1.
<mgrwt>
<rscale>  1 0.85552347E+03</rscale>
<asrwt>0</asrwt>
<pdfrwt beam="1">  1       21 0.42390710E-01 0.10720722E+04</pdfrwt>
<pdfrwt beam="2">  1        4 0.32264053E+00 0.10720722E+04</pdfrwt>
<totfact> 0.47595697E+00</totfact>
</mgrwt>
</event>
<event>
 6    1  0.1353269E-005  0.1087622E+04  0.7818608E-02  0.9477922E-01
          4   -1    0    0  502    0 -0.00000000000E+00  0.00000000000E+00  0.18802221220E+04  0.18802221220E+04  0.00000000000E+00 0.  1.
         21   -1    0    0  501  502  0.00000000000E+00 -0.00000000000E+00 -0.30383640988E+03  0.30383640988E+03  0.00000000000E+00 0.  1.
    9000010    2    1    2  501    0 -0.29050230051E+03 -0.30858398731E+03  0.11171942701E+04  0.15591805794E+04  0.10016513258E+04 0.  0.
        -13    1    3    3    0    0 -0.12171287137E+03 -0.65088182111E+03  0.90847939291E+03  0.11241868113E+04  0.10566000000E+00 0.  1.
          4    1    3    3  501    0 -0.16878942913E+03  0.34229783380E+03  0.20871487718E+03  0.43499376819E+03  0.00000000000E+00 0.  1.
         13    1    1    2    0    0  0.29050230051E+03  0.30858398731E+03  0.45919144200E+03  0.62487795240E+03  0.10566000000E+00 0. -1.
<mgrwt>
<rscale>  1 0.85931311E+03</rscale>
<asrwt>0</asrwt>
<pdfrwt beam="2">  1       21 0.46744064E-01 0.10876217E+04</pdfrwt>
<pdfrwt beam="1">  1        4 0.28926494E+00 0.10876217E+04</pdfrwt>
<totfact> 0.62272340E+00</totfact>
</mgrwt>
</event>
<event>
 6    1  0.1353269E-005  0.1024958E+04  0.7818608E-02  0.9723751E-01
          4   -1    0    0  502    0 -0.00000000000E+00  0.00000000000E+00  0.79561695357E+03  0.79561695357E+03  0.00000000000E+00 0.  1.
         21   -1    0    0  501  502  0.00000000000E+00 -0.00000000000E+00 -0.48592061402E+03  0.48592061402E+03  0.00000000000E+00 0.  1.
    9000010    2    1    2  501    0  0.13504709235E+03 -0.17136519952E+03  0.24270453622E+03  0.10533015896E+04  0.10014664238E+04 0.  0.
        -13    1    3    3    0    0 -0.26510026396E+03 -0.14587573888E+03  0.49457658167E+03  0.57979641896E+03  0.10566000000E+00 0.  1.
          4    1    3    3  501    0  0.40014735631E+03 -0.25489460643E+02 -0.25187204545E+03  0.47350517067E+03  0.00000000000E+00 0.  1.
         13    1    1    2    0    0 -0.13504709235E+03  0.17136519952E+03  0.66991803334E+02  0.22823597797E+03  0.10566000000E+00 0. -1.
<mgrwt>
<rscale>  1 0.69620107E+03</rscale>
<asrwt>0</asrwt>
<pdfrwt beam="2">  1       21 0.74757018E-01 0.10249579E+04</pdfrwt>
<pdfrwt beam="1">  1        4 0.12240261E+00 0.10249579E+04</pdfrwt>
<totfact> 0.30921994E+01</totfact>
</mgrwt>
</event>
<event>
 6    1  0.1353269E-005  0.9965238E+03  0.7818608E-02  0.1010831E+00
          4   -1    0    0  502    0 -0.00000000000E+00  0.00000000000E+00  0.87558902196E+03  0.87558902196E+03  0.00000000000E+00 0.  1.
         21   -1    0    0  501  502  0.00000000000E+00 -0.00000000000E+00 -0.37606962749E+03  0.37606962749E+03  0.00000000000E+00 0.  1.
    9000010    2    1    2  501    0 -0.68949934747E+02  0.52108205033E+01  0.30031169028E+03  0.10407914715E+04  0.99412198936E+03 0.  0.
        -13    1    3    3    0    0  0.44931589013E+03  0.52817078389E+02  0.25262439590E+03  0.51816359333E+03  0.10566000000E+00 0.  1.
          4    1    3    3  501    0 -0.51826582487E+03 -0.47606257886E+02  0.47687294381E+02  0.52262787820E+03  0.00000000000E+00 0.  1.
         13    1    1    2    0    0  0.68949934747E+02 -0.52108205033E+01  0.19920770419E+03  0.21086717792E+03  0.10566000000E+00 0. -1.
<mgrwt>
<rscale>  1 0.51145630E+03</rscale>
<asrwt>0</asrwt>
<pdfrwt beam="2">  1       21 0.57856866E-01 0.99652385E+03</pdfrwt>
<pdfrwt beam="1">  1        4 0.13470600E+00 0.99652385E+03</pdfrwt>
<totfact> 0.43356484E+01</totfact>
</mgrwt>
</event>
<event>
 6    1  0.1353269E-005  0.1104521E+04  0.7818608E-02  0.9456455E-01
          4   -1    0    0  502    0 -0.00000000000E+00  0.00000000000E+00  0.52272073935E+03  0.52272073935E+03  0.00000000000E+00 0.  1.
         21   -1    0    0  501  502  0.00000000000E+00 -0.00000000000E+00 -0.11526817490E+04  0.11526817490E+04  0.00000000000E+00 0. -1.
    9000010    2    1    2  501    0  0.33259333749E+03  0.28261176295E+03 -0.54133875754E+03  0.12300468423E+04  0.10146328633E+04 0.  0.
        -13    1    3    3    0    0  0.54993560915E+03  0.35312241929E+03 -0.12178082800E+02  0.65366117682E+03  0.10566000000E+00 0.  1.
          4    1    3    3  501    0 -0.21734227166E+03 -0.70510656338E+02 -0.52916067474E+03  0.57638566550E+03  0.00000000000E+00 0.  1.
         13    1    1    2    0    0 -0.33259333749E+03 -0.28261176295E+03 -0.88622252075E+02  0.44535564600E+03  0.10566000000E+00 0. -1.
<mgrwt>
<rscale>  1 0.87571742E+03</rscale>
<asrwt>0</asrwt>
<pdfrwt beam="2">  1       21 0.17733565E+00 0.11045214E+04</pdfrwt>
<pdfrwt beam="1">  1        4 0.80418576E-01 0.11045214E+04</pdfrwt>
<totfact> 0.89484182E+00</totfact>
</mgrwt>
</event>
<event>
 6    1  0.1353269E-005  0.1058018E+04  0.7818608E-02  0.9568402E-01
         21   -1    0    0  501  502  0.00000000000E+00  0.00000000000E+00  0.10825708636E+04  0.10825708636E+04  0.00000000000E+00 0.  1.
          4   -1    0    0  502    0 -0.00000000000E+00 -0.00000000000E+00 -0.50967007047E+03  0.50967007047E+03  0.00000000000E+00 0.  1.
    9000010    2    1    2  501    0  0.18060955711E+03  0.28330593942E+03  0.17654753616E+03  0.10726468782E+04  0.10032548158E+04 0.  0.
        -13    1    3    3    0    0  0.27313068173E+02  0.61385084060E+03  0.30540394337E+03  0.68617085189E+03  0.10566000000E+00 0.  1.
          4    1    3    3  501    0  0.15329648894E+03 -0.33054490118E+03 -0.12885640721E+03  0.38647602629E+03  0.00000000000E+00 0.  1.
         13    1    1    2    0    0 -0.18060955711E+03 -0.28330593942E+03  0.39635325694E+03  0.51959405585E+03  0.10566000000E+00 0. -1.
<mgrwt>
<rscale>  1 0.79423313E+03</rscale>
<asrwt>0</asrwt>
<pdfrwt beam="1">  1       21 0.16654936E+00 0.10580181E+04</pdfrwt>
<pdfrwt beam="2">  1        4 0.78410780E-01 0.10580181E+04</pdfrwt>
<totfact> 0.11474025E+01</totfact>
</mgrwt>
</event>
<event>
 6    1  0.1353269E-005  0.1168619E+04  0.7818608E-02  0.9318705E-01
         21   -1    0    0  501  502  0.00000000000E+00  0.00000000000E+00  0.76548026158E+03  0.76548026158E+03  0.00000000000E+00 0. -1.
          4   -1    0    0  502    0 -0.00000000000E+00 -0.00000000000E+00 -0.11500269427E+04  0.11500269427E+04  0.00000000000E+00 0.  1.
    9000010    2    1    2  501    0 -0.49589647384E+00 -0.60381820628E+03 -0.54687597379E+03  0.12902492715E+04  0.10005364459E+04 0.  0.
        -13    1    3    3    0    0  0.72789564606E+02 -0.84019951121E+03 -0.20448679030E+03  0.86778361239E+03  0.10566000000E+00 0.  1.
          4    1    3    3  501    0 -0.73285461080E+02  0.23638130493E+03 -0.34238918349E+03  0.42246565907E+03  0.00000000000E+00 0.  1.
         13    1    1    2    0    0  0.49589647384E+00  0.60381820628E+03  0.16232929266E+03  0.62525793283E+03  0.10566000000E+00 0. -1.
<mgrwt>
<rscale>  1 0.99078926E+03</rscale>
<asrwt>0</asrwt>
<pdfrwt beam="1">  1       21 0.11776619E+00 0.11686188E+04</pdfrwt>
<pdfrwt beam="2">  1        4 0.17692722E+00 0.11686188E+04</pdfrwt>
<totfact> 0.37268061E+00</totfact>
</mgrwt>
</event>
<event>
 6    1  0.1353269E-005  0.1008695E+04  0.7818608E-02  0.9845645E-01
          4   -1    0    0  502    0 -0.00000000000E+00  0.00000000000E+00  0.85052074374E+03  0.85052074374E+03  0.00000000000E+00 0.  1.
         21   -1    0    0  501  502  0.00000000000E+00 -0.00000000000E+00 -0.57305224638E+03  0.57305224638E+03  0.00000000000E+00 0.  1.
    9000010    2    1    2  501    0  0.59387903979E+02  0.14121376755E+03 -0.10249568635E+03  0.10138889126E+04  0.99699403716E+03 0.  0.
        -13    1    3    3    0    0 -0.34212380276E+03  0.18191480332E+03 -0.36510962256E+03  0.53239716352E+03  0.10566000000E+00 0.  1.
          4    1    3    3  501    0  0.40151170674E+03 -0.40701035767E+02  0.26261393620E+03  0.48149174910E+03  0.00000000000E+00 0.  1.
         13    1    1    2    0    0 -0.59387903979E+02 -0.14121376755E+03  0.37996418371E+03  0.40968407750E+03  0.10566000000E+00 0. -1.
<mgrwt>
<rscale>  1 0.62969462E+03</rscale>
<asrwt>0</asrwt>
<pdfrwt beam="2">  1       21 0.88161884E-01 0.10086949E+04</pdfrwt>
<pdfrwt beam="1">  1        4 0.13084934E+00 0.10086949E+04</pdfrwt>
<totfact> 0.17691654E+01</totfact>
</mgrwt>
</event>
<event>
 6    1  0.1353269E-005  0.9969143E+03  0.7818608E-02  0.1010313E+00
          4   -1    0    0  502    0 -0.00000000000E+00  0.00000000000E+00  0.26538302984E+03  0.26538302984E+03  0.00000000000E+00 0.  1.
         21   -1    0    0  501  502  0.00000000000E+00 -0.00000000000E+00 -0.13554178563E+04  0.13554178563E+04  0.00000000000E+00 0.  1.
    9000010    2    1    2  501    0  0.52825605637E+02  0.46199755530E+02 -0.11546066324E+04  0.15254358437E+04  0.99444108714E+03 0.  0.
        -13    1    3    3    0    0 -0.33561816274E+03 -0.27181519658E+02 -0.10692455612E+04  0.11210104671E+04  0.10566000000E+00 0.  1.
          4    1    3    3  501    0  0.38844376838E+03  0.73381275188E+02 -0.85361071167E+02  0.40442537657E+03  0.00000000000E+00 0.  1.
         13    1    1    2    0    0 -0.52825605637E+02 -0.46199755530E+02  0.64571805936E+02  0.95365042378E+02  0.10566000000E+00 0. -1.
<mgrwt>
<rscale>  1 0.51350401E+03</rscale>
<asrwt>0</asrwt>
<pdfrwt beam="2">  1       21 0.20852582E+00 0.99691426E+03</pdfrwt>
<pdfrwt beam="1">  1        4 0.40828158E-01 0.99691426E+03</pdfrwt>
<totfact> 0.23771890E+01</totfact>
</mgrwt>
</event>
<event>
 6    1  0.1353269E-005  0.1058983E+04  0.7818608E-02  0.9589384E-01
         21   -1    0    0  501  502  0.00000000000E+00  0.00000000000E+00  0.27045702532E+03  0.27045702532E+03  0.00000000000E+00 0.  1.
          4   -1    0    0  502    0 -0.00000000000E+00 -0.00000000000E+00 -0.18767895478E+04  0.18767895478E+04  0.00000000000E+00 0.  1.
    9000010    2    1    2  501    0  0.10113587949E+03 -0.29486382973E+03 -0.95862117055E+03  0.14284259065E+04  0.10120636726E+04 0.  0.
        -13    1    3    3    0    0 -0.31168263531E+03 -0.15846580588E+03 -0.92903180516E+03  0.99265179341E+03  0.10566000000E+00 0.  1.
          4    1    3    3  501    0  0.41281851480E+03 -0.13639802386E+03 -0.29589365386E+02  0.43577411307E+03  0.00000000000E+00 0.  1.
         13    1    1    2    0    0 -0.10113587949E+03  0.29486382973E+03 -0.64771135190E+03  0.71882066661E+03  0.10566000000E+00 0. -1.
<mgrwt>
<rscale>  1 0.78002798E+03</rscale>
<asrwt>0</asrwt>
<pdfrwt beam="1">  1       21 0.41608774E-01 0.10589835E+04</pdfrwt>
<pdfrwt beam="2">  1        4 0.28873685E+00 0.10589835E+04</pdfrwt>
<totfact> 0.80638984E+00</totfact>
</mgrwt>
</event>
<event>
 6    1  0.1353269E-005  0.1206801E+04  0.7818608E-02  0.9264646E-01
          4   -1    0    0  502    0 -0.00000000000E+00  0.00000000000E+00  0.13282423160E+04  0.13282423160E+04  0.00000000000E+00 0.  1.
         21   -1    0    0  501  502  0.00000000000E+00 -0.00000000000E+00 -0.67075688722E+03  0.67075688722E+03  0.00000000000E+00 0. -1.
    9000010    2    1    2  501    0  0.64351179116E+03  0.18025221926E+03  0.31096650417E+03  0.12462219027E+04  0.10048734130E+04 0.  0.
        -13    1    3    3    0    0  0.77745078410E+02 -0.37769334689E+03  0.22632276397E+03  0.44712254043E+03  0.10566000000E+00 0.  1.
          4    1    3    3  501    0  0.56576671275E+03  0.55794556616E+03  0.84643740191E+02  0.79909936228E+03  0.00000000000E+00 0.  1.
         13    1    1    2    0    0 -0.64351179116E+03 -0.18025221926E+03  0.34651892466E+03  0.75277730055E+03  0.10566000000E+00 0. -1.
<mgrwt>
<rscale>  1 0.10410376E+04</rscale>
<asrwt>0</asrwt>
<pdfrwt beam="2">  1       21 0.10319337E+00 0.12068011E+04</pdfrwt>
<pdfrwt beam="1">  1        4 0.20434497E+00 0.12068011E+04</pdfrwt>
<totfact> 0.33782795E+00</totfact>
</mgrwt>
</event>
<event>
 6    1  0.1353269E-005  0.1029690E+04  0.7818608E-02  0.9664006E-01
          4   -1    0    0  502    0 -0.00000000000E+00  0.00000000000E+00  0.40526350464E+03  0.40526350464E+03  0.00000000000E+00 0.  1.
         21   -1    0    0  501  502  0.00000000000E+00 -0.00000000000E+00 -0.10343892139E+04  0.10343892139E+04  0.00000000000E+00 0.  1.
    9000010    2    1    2  501    0 -0.13232215219E+03 -0.22728191911E+03 -0.53451202302E+03  0.11601567731E+04  0.99553724829E+03 0.  0.
        -13    1    3    3    0    0 -0.38241503141E+03 -0.22375299545E+03  0.12037979097E+03  0.45912739458E+03  0.10566000000E+00 0.  1.
          4    1    3    3  501    0  0.25009287922E+03 -0.35289236617E+01 -0.65489181399E+03  0.70102937853E+03  0.00000000000E+00 0.  1.
         13    1    1    2    0    0  0.13232215219E+03  0.22728191911E+03 -0.94613686212E+02  0.27949594540E+03  0.10566000000E+00 0. -1.
<mgrwt>
<rscale>  1 0.73200914E+03</rscale>
<asrwt>0</asrwt>
<pdfrwt beam="2">  1       21 0.15913680E+00 0.10296896E+04</pdfrwt>
<pdfrwt beam="1">  1        4 0.62348233E-01 0.10296896E+04</pdfrwt>
<totfact> 0.21938806E+01</totfact>
</mgrwt>
</event>
<event>
 6    1  0.1353269E-005  0.1039645E+04  0.7818608E-02  0.9730814E-01
          4   -1    0    0  502    0 -0.00000000000E+00  0.00000000000E+00  0.77583851141E+03  0.77583851141E+03  0.00000000000E+00 0.  1.
         21   -1    0    0  501  502  0.00000000000E+00 -0.00000000000E+00 -0.49957627399E+03  0.49957627399E+03  0.00000000000E+00 0.  1.
    9000010    2    1    2  501    0 -0.91773343103E+02  0.18241469694E+03  0.20919427988E+03  0.10604831910E+04  0.10193943710E+04 0.  0.
        -13    1    3    3    0    0 -0.11369156837E+03  0.99878178964E+02 -0.40916556958E+03  0.43625439579E+03  0.10566000000E+00 0.  1.
          4    1    3    3  501    0  0.21918225268E+02  0.82536517976E+02  0.61835984945E+03  0.62422879525E+03  0.00000000000E+00 0.  1.
         13    1    1    2    0    0  0.91773343103E+02 -0.18241469694E+03  0.67067957539E+02  0.21493159437E+03  0.10566000000E+00 0. -1.
<mgrwt>
<rscale>  1 0.69211398E+03</rscale>
<asrwt>0</asrwt>
<pdfrwt beam="2">  1       21 0.76857888E-01 0.10396453E+04</pdfrwt>
<pdfrwt beam="1">  1        4 0.11935977E+00 0.10396453E+04</pdfrwt>
<totfact> 0.30855970E+01</totfact>
</mgrwt>
</event>
<event>
 6    1  0.1353269E-005  0.1025049E+04  0.7818608E-02  0.9798018E-01
          4   -1    0    0  502    0 -0.00000000000E+00  0.00000000000E+00  0.25736865620E+04  0.25736865620E+04  0.00000000000E+00 0.  1.
         21   -1    0    0  501  502  0.00000000000E+00 -0.00000000000E+00 -0.15065735110E+03  0.15065735110E+03  0.00000000000E+00 0.  1.
    9000010    2    1    2  501    0 -0.97912025969E+02 -0.13967196361E+03  0.17322129039E+04  0.20127807020E+04  0.10107569379E+04 0.  0.
        -13    1    3    3    0    0  0.28179958511E+03  0.21416198175E+03  0.22671449630E+03  0.42032824624E+03  0.10566000000E+00 0.  1.
          4    1    3    3  501    0 -0.37971161108E+03 -0.35383394537E+03  0.15054984076E+04  0.15924524558E+04  0.00000000000E+00 0.  1.
         13    1    1    2    0    0  0.97912025969E+02  0.13967196361E+03  0.69081630691E+03  0.71156321104E+03  0.10566000000E+00 0. -1.
<mgrwt>
<rscale>  1 0.65468998E+03</rscale>
<asrwt>0</asrwt>
<pdfrwt beam="2">  1       21 0.23178056E-01 0.10250486E+04</pdfrwt>
<pdfrwt beam="1">  1        4 0.39595175E+00 0.10250486E+04</pdfrwt>
<totfact> 0.53952014E+00</totfact>
</mgrwt>
</event>
<event>
 6    1  0.1353269E-005  0.1053717E+04  0.7818608E-02  0.9585011E-01
         21   -1    0    0  501  502  0.00000000000E+00  0.00000000000E+00  0.28757413280E+03  0.28757413280E+03  0.00000000000E+00 0.  1.
          4   -1    0    0  502    0 -0.00000000000E+00 -0.00000000000E+00 -0.16656353571E+04  0.16656353571E+04  0.00000000000E+00 0.  1.
    9000010    2    1    2  501    0  0.24753784048E+01  0.32120340471E+03 -0.95554375089E+03  0.14224564577E+04  0.10035640286E+04 0.  0.
        -13    1    3    3    0    0 -0.43369794019E+03  0.42287082185E+03 -0.55982910041E+03  0.82481650573E+03  0.10566000000E+00 0.  1.
          4    1    3    3  501    0  0.43617331859E+03 -0.10166741714E+03 -0.39571465048E+03  0.59763995195E+03  0.00000000000E+00 0.  1.
         13    1    1    2    0    0 -0.24753784048E+01 -0.32120340471E+03 -0.42251747336E+03  0.53075303217E+03  0.10566000000E+00 0. -1.
<mgrwt>
<rscale>  1 0.78296276E+03</rscale>
<asrwt>0</asrwt>
<pdfrwt beam="1">  1       21 0.44242175E-01 0.10537165E+04</pdfrwt>
<pdfrwt beam="2">  1        4 0.25625159E+00 0.10537165E+04</pdfrwt>
<totfact> 0.11238263E+01</totfact>
</mgrwt>
</event>
<event>
 6    1  0.1353269E-005  0.1048385E+04  0.7818608E-02  0.9572141E-01
         21   -1    0    0  501  502  0.00000000000E+00  0.00000000000E+00  0.43465417968E+03  0.43465417968E+03  0.00000000000E+00 0.  1.
          4   -1    0    0  502    0 -0.00000000000E+00 -0.00000000000E+00 -0.11112974288E+04  0.11112974288E+04  0.00000000000E+00 0.  1.
    9000010    2    1    2  501    0  0.33831277829E+03 -0.41953378783E+02 -0.48905131861E+03  0.11568418997E+04  0.99141130042E+03 0.  0.
        -13    1    3    3    0    0  0.20423536659E+03 -0.42636018369E+03 -0.57125901852E+03  0.74150655332E+03  0.10566000000E+00 0.  1.
          4    1    3    3  501    0  0.13407741170E+03  0.38440680491E+03  0.82207699914E+02  0.41533534634E+03  0.00000000000E+00 0.  1.
         13    1    1    2    0    0 -0.33831277829E+03  0.41953378783E+02 -0.18759193050E+03  0.38910970882E+03  0.10566000000E+00 0. -1.
<mgrwt>
<rscale>  1 0.79167840E+03</rscale>
<asrwt>0</asrwt>
<pdfrwt beam="1">  1       21 0.66869874E-01 0.10483854E+04</pdfrwt>
<pdfrwt beam="2">  1        4 0.17096884E+00 0.10483854E+04</pdfrwt>
<totfact> 0.16365268E+01</totfact>
</mgrwt>
</event>
<event>
 6    1  0.1353269E-005  0.1021683E+04  0.7818608E-02  0.9681574E-01
          4   -1    0    0  502    0 -0.00000000000E+00  0.00000000000E+00  0.65625950137E+03  0.65625950137E+03  0.00000000000E+00 0.  1.
         21   -1    0    0  501  502  0.00000000000E+00 -0.00000000000E+00 -0.65913713265E+03  0.65913713265E+03  0.00000000000E+00 0.  1.
    9000010    2    1    2  501    0  0.18795074644E+03 -0.17046028203E+03  0.12838516134E+03  0.10297182787E+04  0.98967408418E+03 0.  0.
        -13    1    3    3    0    0 -0.20524293375E+03 -0.84864076488E+02  0.45835316425E+03  0.50932721082E+03  0.10566000000E+00 0.  1.
          4    1    3    3  501    0  0.39319368019E+03 -0.85596205546E+02 -0.32996800291E+03  0.52039106784E+03  0.00000000000E+00 0.  1.
         13    1    1    2    0    0 -0.18795074644E+03  0.17046028203E+03 -0.13126279262E+03  0.28567835537E+03  0.10566000000E+00 0. -1.
<mgrwt>
<rscale>  1 0.72124537E+03</rscale>
<asrwt>0</asrwt>
<pdfrwt beam="2">  1       21 0.10140571E+00 0.10216834E+04</pdfrwt>
<pdfrwt beam="1">  1        4 0.10096300E+00 0.10216834E+04</pdfrwt>
<totfact> 0.23948937E+01</totfact>
</mgrwt>
</event>
<event>
 6    1  0.1353269E-005  0.1309716E+04  0.7818608E-02  0.9154173E-01
          4   -1    0    0  502    0 -0.00000000000E+00  0.00000000000E+00  0.15405135420E+04  0.15405135420E+04  0.00000000000E+00 0.  1.
         21   -1    0    0  501  502  0.00000000000E+00 -0.00000000000E+00 -0.78582178442E+03  0.78582178442E+03  0.00000000000E+00 0.  1.
    9000010    2    1    2  501    0  0.34887452143E+03 -0.70787327373E+03  0.12300243403E+03  0.13154795425E+04  0.10452553872E+04 0.  0.
        -13    1    3    3    0    0  0.28577385591E+03 -0.96696346052E+03  0.21944595880E+03  0.10319116099E+04  0.10566000000E+00 0.  1.
          4    1    3    3  501    0  0.63100665514E+02  0.25909018680E+03 -0.96443524773E+02  0.28356793252E+03  0.00000000000E+00 0.  1.
         13    1    1    2    0    0 -0.34887452143E+03  0.70787327373E+03  0.63168932358E+03  0.10108557840E+04  0.10566000000E+00 0. -1.
<mgrwt>
<rscale>  1 0.11539217E+04</rscale>
<asrwt>0</asrwt>
<pdfrwt beam="2">  1       21 0.12089566E+00 0.13097163E+04</pdfrwt>
<pdfrwt beam="1">  1        4 0.23700208E+00 0.13097163E+04</pdfrwt>
<totfact> 0.13728903E+00</totfact>
</mgrwt>
</event>
<event>
 6    1  0.1353269E-005  0.1098347E+04  0.7818608E-02  0.9498947E-01
          4   -1    0    0  502    0 -0.00000000000E+00  0.00000000000E+00  0.81480881492E+03  0.81480881492E+03  0.00000000000E+00 0.  1.
         21   -1    0    0  501  502  0.00000000000E+00 -0.00000000000E+00 -0.69955901568E+03  0.69955901568E+03  0.00000000000E+00 0.  1.
    9000010    2    1    2  501    0  0.23472270590E+03  0.30170707766E+03  0.21526128740E+03  0.11192422578E+04  0.10296814558E+04 0.  0.
        -13    1    3    3    0    0  0.62015861867E+03  0.24853872257E+03 -0.12825131241E+02  0.66823102598E+03  0.10566000000E+00 0.  1.
          4    1    3    3  501    0 -0.38543591277E+03  0.53168355092E+02  0.22808641864E+03  0.45101123180E+03  0.00000000000E+00 0.  1.
         13    1    1    2    0    0 -0.23472270590E+03 -0.30170707766E+03 -0.10001148816E+03  0.39512557283E+03  0.10566000000E+00 0. -1.
<mgrwt>
<rscale>  1 0.84361464E+03</rscale>
<asrwt>0</asrwt>
<pdfrwt beam="2">  1       21 0.10762446E+00 0.10983469E+04</pdfrwt>
<pdfrwt beam="1">  1        4 0.12535520E+00 0.10983469E+04</pdfrwt>
<totfact> 0.11966752E+01</totfact>
</mgrwt>
</event>
<event>
 6    1  0.1353269E-005  0.1076707E+04  0.7818608E-02  0.1001246E+00
         21   -1    0    0  501  502  0.00000000000E+00  0.00000000000E+00  0.15380029586E+04  0.15380029586E+04  0.00000000000E+00 0.  1.
          4   -1    0    0  502    0 -0.00000000000E+00 -0.00000000000E+00 -0.30692655463E+03  0.30692655463E+03  0.00000000000E+00 0.  1.
    9000010    2    1    2  501    0  0.22756002050E+02 -0.70290256568E+02  0.13364622166E+04  0.17162254478E+04  0.10741694351E+04 0.  0.
        -13    1    3    3    0    0 -0.51217639311E+03 -0.44284798027E+02  0.84635803431E+03  0.99025639831E+03  0.10566000000E+00 0.  1.
          4    1    3    3  501    0  0.53493239516E+03 -0.26005458541E+02  0.49010418228E+03  0.72596904944E+03  0.00000000000E+00 0.  1.
         13    1    1    2    0    0 -0.22756002050E+02  0.70290256568E+02 -0.10538581263E+03  0.12870406546E+03  0.10566000000E+00 0. -1.
<mgrwt>
<rscale>  1 0.55107164E+03</rscale>
<asrwt>0</asrwt>
<pdfrwt beam="1">  1       21 0.23661583E+00 0.10767073E+04</pdfrwt>
<pdfrwt beam="2">  1        4 0.47219471E-01 0.10767073E+04</pdfrwt>
<totfact> 0.11365736E+01</totfact>
</mgrwt>
</event>
<event>
 6    1  0.1353269E-005  0.9770251E+03  0.7818608E-02  0.1008777E+00
         21   -1    0    0  501  502  0.00000000000E+00  0.00000000000E+00  0.29758043037E+04  0.29758043037E+04  0.00000000000E+00 0.  1.
          4   -1    0    0  502    0 -0.00000000000E+00 -0.00000000000E+00 -0.93789233063E+02  0.93789233063E+02  0.00000000000E+00 0.  1.
    9000010    2    1    2  501    0 -0.72239462040E+02 -0.29883110121E+02  0.27066842137E+04  0.28776235894E+04  0.97389247312E+03 0.  0.
        -13    1    3    3    0    0  0.31860525369E+03 -0.25136429299E+03  0.60527746059E+03  0.72873460939E+03  0.10566000000E+00 0.  1.
          4    1    3    3  501    0 -0.39084471573E+03  0.22148118287E+03  0.21014067532E+04  0.21488889800E+04  0.00000000000E+00 0.  1.
         13    1    1    2    0    0  0.72239462040E+02  0.29883110121E+02  0.17533085687E+03  0.19196994734E+03  0.10566000000E+00 0. -1.
<mgrwt>
<rscale>  1 0.51963480E+03</rscale>
<asrwt>0</asrwt>
<pdfrwt beam="1">  1       21 0.45781597E+00 0.97702512E+03</pdfrwt>
<pdfrwt beam="2">  1        4 0.14429115E-01 0.97702512E+03</pdfrwt>
<totfact> 0.43081600E+00</totfact>
</mgrwt>
</event>
<event>
 6    1  0.1353269E-005  0.1005213E+04  0.7818608E-02  0.9824503E-01
         21   -1    0    0  501  502  0.00000000000E+00  0.00000000000E+00  0.35937819158E+03  0.35937819158E+03  0.00000000000E+00 0.  1.
          4   -1    0    0  502    0 -0.00000000000E+00 -0.00000000000E+00 -0.11276359692E+04  0.11276359692E+04  0.00000000000E+00 0.  1.
    9000010    2    1    2  501    0 -0.15982312098E+02 -0.16506490034E+03 -0.83644587209E+03  0.13077058146E+04  0.99143882569E+03 0.  0.
        -13    1    3    3    0    0 -0.15550582352E+03 -0.55811423058E+03 -0.40015119695E+03  0.70412679761E+03  0.10566000000E+00 0.  1.
          4    1    3    3  501    0  0.13952351142E+03  0.39304933024E+03 -0.43629467515E+03  0.60357901704E+03  0.00000000000E+00 0.  1.
         13    1    1    2    0    0  0.15982312098E+02  0.16506490034E+03  0.68188094432E+02  0.17930834618E+03  0.10566000000E+00 0. -1.
<mgrwt>
<rscale>  1 0.64063969E+03</rscale>
<asrwt>0</asrwt>
<pdfrwt beam="1">  1       21 0.55288953E-01 0.10052128E+04</pdfrwt>
<pdfrwt beam="2">  1        4 0.17348245E+00 0.10052128E+04</pdfrwt>
<totfact> 0.24123463E+01</totfact>
</mgrwt>
</event>
<event>
 6    1  0.1353269E-005  0.9985937E+03  0.7818608E-02  0.1017664E+00
         21   -1    0    0  501  502  0.00000000000E+00  0.00000000000E+00  0.22326910837E+03  0.22326910837E+03  0.00000000000E+00 0.  1.
          4   -1    0    0  502    0 -0.00000000000E+00 -0.00000000000E+00 -0.12448786033E+04  0.12448786033E+04  0.00000000000E+00 0.  1.
    9000010    2    1    2  501    0 -0.41161591456E+02 -0.37591854964E+02 -0.96380989230E+03  0.13878468437E+04  0.99703657348E+03 0.  0.
        -13    1    3    3    0    0  0.31666614124E+03 -0.29580902712E+03 -0.14366903032E+03  0.45653173709E+03  0.10566000000E+00 0.  1.
          4    1    3    3  501    0 -0.35782773270E+03  0.25821717215E+03 -0.82014086198E+03  0.93131510660E+03  0.00000000000E+00 0.  1.
         13    1    1    2    0    0  0.41161591456E+02  0.37591854964E+02 -0.57799602644E+02  0.80300867995E+02  0.10566000000E+00 0. -1.
<mgrwt>
<rscale>  1 0.48539117E+03</rscale>
<asrwt>0</asrwt>
<pdfrwt beam="1">  1       21 0.34349094E-01 0.99859369E+03</pdfrwt>
<pdfrwt beam="2">  1        4 0.19151978E+00 0.99859369E+03</pdfrwt>
<totfact> 0.49670057E+01</totfact>
</mgrwt>
</event>
<event>
 6    1  0.1353269E-005  0.1220963E+04  0.7818608E-02  0.9240854E-01
          4   -1    0    0  502    0 -0.00000000000E+00  0.00000000000E+00  0.16714660116E+04  0.16714660116E+04  0.00000000000E+00 0.  1.
         21   -1    0    0  501  502  0.00000000000E+00 -0.00000000000E+00 -0.57770883433E+03  0.57770883433E+03  0.00000000000E+00 0. -1.
    9000010    2    1    2  501    0  0.49838654132E+03  0.49798490285E+03  0.90497541241E+03  0.15197801147E+04  0.99718252683E+03 0.  0.
        -13    1    3    3    0    0  0.79322599594E+03  0.41700354974E+03  0.55084897746E+03  0.10519192214E+04  0.10566000000E+00 0.  1.
          4    1    3    3  501    0 -0.29483945462E+03  0.80981353114E+02  0.35412643495E+03  0.46786089330E+03  0.00000000000E+00 0.  1.
         13    1    1    2    0    0 -0.49838654132E+03 -0.49798490285E+03  0.18878176482E+03  0.72939473122E+03  0.10566000000E+00 0. -1.
<mgrwt>
<rscale>  1 0.10641517E+04</rscale>
<asrwt>0</asrwt>
<pdfrwt beam="2">  1       21 0.88878283E-01 0.12209632E+04</pdfrwt>
<pdfrwt beam="1">  1        4 0.25714862E+00 0.12209632E+04</pdfrwt>
<totfact> 0.22512522E+00</totfact>
</mgrwt>
</event>
<event>
 6    1  0.1353269E-005  0.1006742E+04  0.7818608E-02  0.9911604E-01
          4   -1    0    0  502    0 -0.00000000000E+00  0.00000000000E+00  0.27656260623E+03  0.27656260623E+03  0.00000000000E+00 0.  1.
         21   -1    0    0  501  502  0.00000000000E+00 -0.00000000000E+00 -0.14554033984E+04  0.14554033984E+04  0.00000000000E+00 0.  1.
    9000010    2    1    2  501    0  0.92068188177E+02 -0.83822981583E+02 -0.12367029010E+04  0.15946675038E+04  0.99901328267E+03 0.  0.
        -13    1    3    3    0    0  0.63549552870E+01  0.43025080013E+03 -0.82510053151E+03  0.93056275163E+03  0.10566000000E+00 0.  1.
          4    1    3    3  501    0  0.85713232890E+02 -0.51407378171E+03 -0.41160236949E+03  0.66410475221E+03  0.00000000000E+00 0.  1.
         13    1    1    2    0    0 -0.92068188177E+02  0.83822981583E+02  0.57862108831E+02  0.13729850079E+03  0.10566000000E+00 0. -1.
<mgrwt>
<rscale>  1 0.59702188E+03</rscale>
<asrwt>0</asrwt>
<pdfrwt beam="2">  1       21 0.22390822E+00 0.10067425E+04</pdfrwt>
<pdfrwt beam="1">  1        4 0.42548093E-01 0.10067425E+04</pdfrwt>
<totfact> 0.17233394E+01</totfact>
</mgrwt>
</event>
<event>
 6    1  0.1353269E-005  0.1132410E+04  0.7818608E-02  0.9514474E-01
         21   -1    0    0  501  502  0.00000000000E+00  0.00000000000E+00  0.56489249454E+03  0.56489249454E+03  0.00000000000E+00 0.  1.
          4   -1    0    0  502    0 -0.00000000000E+00 -0.00000000000E+00 -0.98410697459E+03  0.98410697459E+03  0.00000000000E+00 0.  1.
    9000010    2    1    2  501    0  0.12038980338E+03  0.30765780988E+03 -0.19335217529E+03  0.11487984889E+04  0.10831462835E+04 0.  0.
        -13    1    3    3    0    0  0.83166415936E+02 -0.16433354640E+03 -0.53443130132E+03  0.56527780268E+03  0.10566000000E+00 0.  1.
          4    1    3    3  501    0  0.37223387449E+02  0.47199135628E+03  0.34107912603E+03  0.58352068617E+03  0.00000000000E+00 0.  1.
         13    1    1    2    0    0 -0.12038980338E+03 -0.30765780988E+03 -0.22586230476E+03  0.40020098027E+03  0.10566000000E+00 0. -1.
<mgrwt>
<rscale>  1 0.83225101E+03</rscale>
<asrwt>0</asrwt>
<pdfrwt beam="1">  1       21 0.86906538E-01 0.11324102E+04</pdfrwt>
<pdfrwt beam="2">  1        4 0.15140107E+00 0.11324102E+04</pdfrwt>
<totfact> 0.12316080E+01</totfact>
</mgrwt>
</event>
<event>
 6    1  0.1353269E-005  0.8942720E+03  0.7818608E-02  0.9802967E-01
          4   -1    0    0  502    0 -0.00000000000E+00  0.00000000000E+00  0.36395085826E+03  0.36395085826E+03  0.00000000000E+00 0.  1.
         21   -1    0    0  501  502  0.00000000000E+00 -0.00000000000E+00 -0.11475651890E+04  0.11475651890E+04  0.00000000000E+00 0.  1.
    9000010    2    1    2  501    0 -0.16607482991E+03  0.19051828600E+03 -0.86681958587E+03  0.12454311134E+04  0.85781373109E+03 0.  0.
        -13    1    3    3    0    0  0.11668499775E+03  0.45279783172E+03 -0.65691649183E+03  0.80633774159E+03  0.10566000000E+00 0.  1.
          4    1    3    3  501    0 -0.28275982766E+03 -0.26227954572E+03 -0.20990309404E+03  0.43909337177E+03  0.00000000000E+00 0.  1.
         13    1    1    2    0    0  0.16607482991E+03 -0.19051828600E+03  0.83205255104E+02  0.26608493394E+03  0.10566000000E+00 0. -1.
<mgrwt>
<rscale>  1 0.65203546E+03</rscale>
<asrwt>0</asrwt>
<pdfrwt beam="2">  1       21 0.17654849E+00 0.89427203E+03</pdfrwt>
<pdfrwt beam="1">  1        4 0.55992440E-01 0.89427203E+03</pdfrwt>
<totfact> 0.20810551E+01</totfact>
</mgrwt>
</event>
<event>
 6    1  0.1353269E-005  0.1006329E+04  0.7818608E-02  0.1000706E+00
          4   -1    0    0  502    0 -0.00000000000E+00  0.00000000000E+00  0.73260985449E+03  0.73260985449E+03  0.00000000000E+00 0.  1.
         21   -1    0    0  501  502  0.00000000000E+00 -0.00000000000E+00 -0.50525174566E+03  0.50525174566E+03  0.00000000000E+00 0.  1.
    9000010    2    1    2  501    0  0.86373050194E+02  0.31803910179E+02  0.15029157415E+02  0.10064412310E+04  0.10021109137E+04 0.  0.
        -13    1    3    3    0    0 -0.14953018043E+03  0.46418012282E+03  0.12137402668E+03  0.50254763634E+03  0.10566000000E+00 0.  1.
          4    1    3    3  501    0  0.23590323063E+03 -0.43237621264E+03 -0.10634486927E+03  0.50389359461E+03  0.00000000000E+00 0.  1.
         13    1    1    2    0    0 -0.86373050194E+02 -0.31803910179E+02  0.21232895141E+03  0.23142036919E+03  0.10566000000E+00 0. -1.
<mgrwt>
<rscale>  1 0.55341634E+03</rscale>
<asrwt>0</asrwt>
<pdfrwt beam="2">  1       21 0.77731037E-01 0.10063290E+04</pdfrwt>
<pdfrwt beam="1">  1        4 0.11270921E+00 0.10063290E+04</pdfrwt>
<totfact> 0.34758644E+01</totfact>
</mgrwt>
</event>
<event>
 6    1  0.1353269E-005  0.9849540E+03  0.7818608E-02  0.1008994E+00
          4   -1    0    0  502    0 -0.00000000000E+00  0.00000000000E+00  0.52805771423E+03  0.52805771423E+03  0.00000000000E+00 0.  1.
         21   -1    0    0  501  502  0.00000000000E+00 -0.00000000000E+00 -0.56177055756E+03  0.56177055756E+03  0.00000000000E+00 0.  1.
    9000010    2    1    2  501    0  0.97007932896E+00  0.75787174700E+02 -0.98835266519E+02  0.98990040747E+03  0.98203348715E+03 0.  0.
        -13    1    3    3    0    0 -0.86136445622E+02  0.17452177581E+03 -0.51651210287E+03  0.55196204677E+03  0.10566000000E+00 0.  1.
          4    1    3    3  501    0  0.87106524951E+02 -0.98734601111E+02  0.41767683635E+03  0.43793836070E+03  0.00000000000E+00 0.  1.
         13    1    1    2    0    0 -0.97007932896E+00 -0.75787174700E+02  0.65122423190E+02  0.99927864328E+02  0.10566000000E+00 0. -1.
<mgrwt>
<rscale>  1 0.51876408E+03</rscale>
<asrwt>0</asrwt>
<pdfrwt beam="2">  1       21 0.86426240E-01 0.98495401E+03</pdfrwt>
<pdfrwt beam="1">  1        4 0.81239648E-01 0.98495401E+03</pdfrwt>
<totfact> 0.59211379E+01</totfact>
</mgrwt>
</event>
<event>
 6    1  0.1353269E-005  0.1010047E+04  0.7818608E-02  0.9836187E-01
         21   -1    0    0  501  502  0.00000000000E+00  0.00000000000E+00  0.20956348215E+04  0.20956348215E+04  0.00000000000E+00 0.  1.
          4   -1    0    0  502    0 -0.00000000000E+00 -0.00000000000E+00 -0.27182411451E+03  0.27182411451E+03  0.00000000000E+00 0.  1.
    9000010    2    1    2  501    0 -0.85876130316E+02 -0.13185154012E+03  0.19295185179E+04  0.21778970969E+04  0.99771464616E+03 0.  0.
        -13    1    3    3    0    0  0.22388287395E+03  0.19227669794E+03  0.12844082138E+03  0.32185544205E+03  0.10566000000E+00 0.  1.
          4    1    3    3  501    0 -0.30975900426E+03 -0.32412823806E+03  0.18010776965E+04  0.18560416548E+04  0.00000000000E+00 0.  1.
         13    1    1    2    0    0  0.85876130316E+02  0.13185154012E+03 -0.10570781095E+03  0.18956183911E+03  0.10566000000E+00 0. -1.
<mgrwt>
<rscale>  1 0.63456175E+03</rscale>
<asrwt>0</asrwt>
<pdfrwt beam="1">  1       21 0.32240535E+00 0.10100466E+04</pdfrwt>
<pdfrwt beam="2">  1        4 0.41819096E-01 0.10100466E+04</pdfrwt>
<totfact> 0.42721847E+00</totfact>
</mgrwt>
</event>
<event>
 6    1  0.1353269E-005  0.1264971E+04  0.7818608E-02  0.9182349E-01
          4   -1    0    0  502    0 -0.00000000000E+00  0.00000000000E+00  0.69912350752E+03  0.69912350752E+03  0.00000000000E+00 0.  1.
         21   -1    0    0  501  502  0.00000000000E+00 -0.00000000000E+00 -0.15068943800E+04  0.15068943800E+04  0.00000000000E+00 0. -1.
    9000010    2    1    2  501    0  0.62141869755E+03 -0.48427501088E+03 -0.49933507810E+03  0.13599587086E+04  0.98968110267E+03 0.  0.
        -13    1    3    3    0    0 -0.79184981156E+00 -0.68436312781E+02 -0.60084365899E+03  0.60472908781E+03  0.10566000000E+00 0.  1.
          4    1    3    3  501    0  0.62221054736E+03 -0.41583869810E+03  0.10150858088E+03  0.75522962077E+03  0.00000000000E+00 0.  1.
         13    1    1    2    0    0 -0.62141869755E+03  0.48427501088E+03 -0.30843579434E+03  0.84605917892E+03  0.10566000000E+00 0. -1.
<mgrwt>
<rscale>  1 0.11237488E+04</rscale>
<asrwt>0</asrwt>
<pdfrwt beam="2">  1       21 0.23182991E+00 0.12649712E+04</pdfrwt>
<pdfrwt beam="1">  1        4 0.10755746E+00 0.12649712E+04</pdfrwt>
<totfact> 0.18513624E+00</totfact>
</mgrwt>
</event>
<event>
 6    1  0.1353269E-005  0.1131088E+04  0.7818608E-02  0.9681023E-01
          4   -1    0    0  502    0 -0.00000000000E+00  0.00000000000E+00  0.63061924174E+03  0.63061924174E+03  0.00000000000E+00 0.  1.
         21   -1    0    0  501  502  0.00000000000E+00 -0.00000000000E+00 -0.68989775020E+03  0.68989775020E+03  0.00000000000E+00 0.  1.
    9000010    2    1    2  501    0  0.67236771393E+02 -0.17486718700E+03 -0.35276697446E+02  0.11316376267E+04  0.11154640094E+04 0.  0.
        -13    1    3    3    0    0 -0.49909319530E+03 -0.25014157743E+03  0.11765776742E+02  0.55839347330E+03  0.10566000000E+00 0.  1.
          4    1    3    3  501    0  0.56632996669E+03  0.75274390427E+02 -0.47042474188E+02  0.57324415340E+03  0.00000000000E+00 0.  1.
         13    1    1    2    0    0 -0.67236771393E+02  0.17486718700E+03 -0.24001811017E+02  0.18887936524E+03  0.10566000000E+00 0. -1.
<mgrwt>
<rscale>  1 0.72158019E+03</rscale>
<asrwt>0</asrwt>
<pdfrwt beam="2">  1       21 0.10613812E+00 0.11310877E+04</pdfrwt>
<pdfrwt beam="1">  1        4 0.97018345E-01 0.11310877E+04</pdfrwt>
<totfact> 0.23278151E+01</totfact>
</mgrwt>
</event>
<event>
 6    1  0.1353269E-005  0.9896477E+03  0.7818608E-02  0.9756603E-01
         21   -1    0    0  501  502  0.00000000000E+00  0.00000000000E+00  0.85874695978E+03  0.85874695978E+03  0.00000000000E+00 0.  1.
          4   -1    0    0  502    0 -0.00000000000E+00 -0.00000000000E+00 -0.48464404985E+03  0.48464404985E+03  0.00000000000E+00 0.  1.
    9000010    2    1    2  501    0 -0.35362007433E+02  0.21439910476E+03  0.48199687253E+03  0.11007831655E+04  0.96549735611E+03 0.  0.
        -13    1    3    3    0    0 -0.37128867747E+03  0.23039332614E+03  0.60185906658E+03  0.74375447154E+03  0.10566000000E+00 0.  1.
          4    1    3    3  501    0  0.33592667004E+03 -0.15994221382E+02 -0.11986219405E+03  0.35702869398E+03  0.00000000000E+00 0.  1.
         13    1    1    2    0    0  0.35362007433E+02 -0.21439910476E+03 -0.10789396261E+03  0.24260784411E+03  0.10566000000E+00 0. -1.
<mgrwt>
<rscale>  1 0.67744383E+03</rscale>
<asrwt>0</asrwt>
<pdfrwt beam="1">  1       21 0.13211492E+00 0.98964771E+03</pdfrwt>
<pdfrwt beam="2">  1        4 0.74560623E-01 0.98964771E+03</pdfrwt>
<totfact> 0.24700745E+01</totfact>
</mgrwt>
</event>
<event>
 6    1  0.1353269E-005  0.1083608E+04  0.7818608E-02  0.9483784E-01
         21   -1    0    0  501  502  0.00000000000E+00  0.00000000000E+00  0.28727199577E+04  0.28727199577E+04  0.00000000000E+00 0.  1.
          4   -1    0    0  502    0 -0.00000000000E+00 -0.00000000000E+00 -0.48161890990E+03  0.48161890990E+03  0.00000000000E+00 0.  1.
    9000010    2    1    2  501    0 -0.32586783964E+03  0.26465829211E+03  0.26487121739E+04  0.28617971293E+04  0.99898587009E+03 0.  0.
        -13    1    3    3    0    0  0.20141990834E+03  0.41791989249E+03  0.17334008348E+04  0.17944095077E+04  0.10566000000E+00 0.  1.
          4    1    3    3  501    0 -0.52728774798E+03 -0.15326160038E+03  0.91531133918E+03  0.10673876217E+04  0.00000000000E+00 0.  1.
         13    1    1    2    0    0  0.32586783964E+03 -0.26465829211E+03 -0.25761112611E+03  0.49254173828E+03  0.10566000000E+00 0. -1.
<mgrwt>
<rscale>  1 0.85490011E+03</rscale>
<asrwt>0</asrwt>
<pdfrwt beam="1">  1       21 0.44195691E+00 0.10836082E+04</pdfrwt>
<pdfrwt beam="2">  1        4 0.74095219E-01 0.10836082E+04</pdfrwt>
<totfact> 0.20548204E-01</totfact>
</mgrwt>
</event>
<event>
 6    1  0.1353269E-005  0.1018409E+04  0.7818608E-02  0.9718375E-01
          4   -1    0    0  502    0 -0.00000000000E+00  0.00000000000E+00  0.30301153668E+03  0.30301153668E+03  0.00000000000E+00 0.  1.
         21   -1    0    0  501  502  0.00000000000E+00 -0.00000000000E+00 -0.13010686491E+04  0.13010686491E+04  0.00000000000E+00 0.  1.
    9000010    2    1    2  501    0  0.22625877494E+03 -0.92304390455E+01 -0.89288929546E+03  0.13544033644E+04  0.99291436956E+03 0.  0.
        -13    1    3    3    0    0 -0.22010967143E+03  0.97356913282E+02 -0.86141634489E+03  0.89440749461E+03  0.10566000000E+00 0.  1.
          4    1    3    3  501    0  0.44636844637E+03 -0.10658735233E+03 -0.31472950577E+02  0.45999586978E+03  0.00000000000E+00 0.  1.
         13    1    1    2    0    0 -0.22625877494E+03  0.92304390455E+01 -0.10516781694E+03  0.24967682137E+03  0.10566000000E+00 0. -1.
<mgrwt>
<rscale>  1 0.69933194E+03</rscale>
<asrwt>0</asrwt>
<pdfrwt beam="2">  1       21 0.20016441E+00 0.10184091E+04</pdfrwt>
<pdfrwt beam="1">  1        4 0.46617160E-01 0.10184091E+04</pdfrwt>
<totfact> 0.20552204E+01</totfact>
</mgrwt>
</event>
<event>
 6    1  0.1353269E-005  0.1016004E+04  0.7818608E-02  0.9952581E-01
          4   -1    0    0  502    0 -0.00000000000E+00  0.00000000000E+00  0.14884961598E+04  0.14884961598E+04  0.00000000000E+00 0.  1.
         21   -1    0    0  501  502  0.00000000000E+00 -0.00000000000E+00 -0.24201201075E+03  0.24201201075E+03  0.00000000000E+00 0.  1.
    9000010    2    1    2  501    0  0.28299761803E+01  0.10622989595E+03  0.86452630232E+03  0.13340430303E+04  0.10104317294E+04 0.  0.
        -13    1    3    3    0    0  0.24382269741E+03  0.38633407547E+03  0.84912070860E+03  0.96421445466E+03  0.10566000000E+00 0.  1.
          4    1    3    3  501    0 -0.24099272123E+03 -0.28010417952E+03  0.15405593730E+02  0.36982857568E+03  0.00000000000E+00 0.  1.
         13    1    1    2    0    0 -0.28299761803E+01 -0.10622989595E+03  0.38195784669E+03  0.39646514017E+03  0.10566000000E+00 0. -1.
<mgrwt>
<rscale>  1 0.57779259E+03</rscale>
<asrwt>0</asrwt>
<pdfrwt beam="2">  1       21 0.37232618E-01 0.10160045E+04</pdfrwt>
<pdfrwt beam="1">  1        4 0.22899940E+00 0.10160045E+04</pdfrwt>
<totfact> 0.23966407E+01</totfact>
</mgrwt>
</event>
<event>
 6    1  0.1353269E-005  0.1026673E+04  0.7818608E-02  0.1011417E+00
          4   -1    0    0  502    0 -0.00000000000E+00  0.00000000000E+00  0.11783787006E+04  0.11783787006E+04  0.00000000000E+00 0.  1.
         21   -1    0    0  501  502  0.00000000000E+00 -0.00000000000E+00 -0.30001888939E+03  0.30001888939E+03  0.00000000000E+00 0.  1.
    9000010    2    1    2  501    0 -0.12395841835E+02 -0.60850463256E+02  0.59146345631E+03  0.11848571918E+04  0.10247932030E+04 0.  0.
        -13    1    3    3    0    0 -0.48205078571E+03  0.72047412030E+02  0.11084104056E+03  0.49984951437E+03  0.10566000000E+00 0.  1.
          4    1    3    3  501    0  0.46965494387E+03 -0.13289787529E+03  0.48062241575E+03  0.68500767739E+03  0.00000000000E+00 0.  1.
         13    1    1    2    0    0  0.12395841835E+02  0.60850463256E+02  0.28689635494E+03  0.29354039827E+03  0.10566000000E+00 0. -1.
<mgrwt>
<rscale>  1 0.50915210E+03</rscale>
<asrwt>0</asrwt>
<pdfrwt beam="2">  1       21 0.46156753E-01 0.10266730E+04</pdfrwt>
<pdfrwt beam="1">  1        4 0.18128903E+00 0.10266730E+04</pdfrwt>
<totfact> 0.31368027E+01</totfact>
</mgrwt>
</event>
<event>
 6    1  0.1353269E-005  0.1073982E+04  0.7818608E-02  0.9519086E-01
          4   -1    0    0  502    0 -0.00000000000E+00  0.00000000000E+00  0.32514258483E+04  0.32514258483E+04  0.00000000000E+00 0.  1.
         21   -1    0    0  501  502  0.00000000000E+00 -0.00000000000E+00 -0.17840299629E+03  0.17840299629E+03  0.00000000000E+00 0.  1.
    9000010    2    1    2  501    0  0.11133104025E+03 -0.36447984681E+03  0.17524405258E+04  0.20553551814E+04  0.10040901185E+04 0.  0.
        -13    1    3    3    0    0  0.45446982550E+03 -0.36428889898E+03  0.15526190024E+04  0.16582747064E+04  0.10566000000E+00 0.  1.
          4    1    3    3  501    0 -0.34313878525E+03 -0.19094782110E+00  0.19982152338E+03  0.39708047498E+03  0.00000000000E+00 0.  1.
         13    1    1    2    0    0 -0.11133104025E+03  0.36447984681E+03  0.13205823262E+04  0.13744736632E+04  0.10566000000E+00 0. -1.
<mgrwt>
<rscale>  1 0.82891227E+03</rscale>
<asrwt>0</asrwt>
<pdfrwt beam="2">  1       21 0.27446617E-01 0.10739819E+04</pdfrwt>
<pdfrwt beam="1">  1        4 0.50021932E+00 0.10739819E+04</pdfrwt>
<totfact> 0.64129434E-01</totfact>
</mgrwt>
</event>
<event>
 6    1  0.1353269E-005  0.1292306E+04  0.7818608E-02  0.9172165E-01
         21   -1    0    0  501  502  0.00000000000E+00  0.00000000000E+00  0.95143750905E+03  0.95143750905E+03  0.00000000000E+00 0.  1.
          4   -1    0    0  502    0 -0.00000000000E+00 -0.00000000000E+00 -0.11260584217E+04  0.11260584217E+04  0.00000000000E+00 0.  1.
    9000010    2    1    2  501    0 -0.72209695286E+03  0.26061586300E+03 -0.99432796002E+01  0.12923441165E+04  0.10395719356E+04 0.  0.
        -13    1    3    3    0    0 -0.23561838443E+03  0.28063002711E+03  0.47849434267E+03  0.60268240586E+03  0.10566000000E+00 0.  1.
          4    1    3    3  501    0 -0.48647856842E+03 -0.20014164112E+02 -0.48843762227E+03  0.68966171066E+03  0.00000000000E+00 0.  1.
         13    1    1    2    0    0  0.72209695286E+03 -0.26061586300E+03 -0.16467763303E+03  0.78515181421E+03  0.10566000000E+00 0. -1.
<mgrwt>
<rscale>  1 0.11345409E+04</rscale>
<asrwt>0</asrwt>
<pdfrwt beam="1">  1       21 0.14637500E+00 0.12923059E+04</pdfrwt>
<pdfrwt beam="2">  1        4 0.17323976E+00 0.12923059E+04</pdfrwt>
<totfact> 0.21767376E+00</totfact>
</mgrwt>
</event>
<event>
 6    1  0.1353269E-005  0.1144824E+04  0.7818608E-02  0.9627462E-01
         21   -1    0    0  501  502  0.00000000000E+00  0.00000000000E+00  0.56434621414E+03  0.56434621414E+03  0.00000000000E+00 0. -1.
          4   -1    0    0  502    0 -0.00000000000E+00 -0.00000000000E+00 -0.87609600697E+03  0.87609600697E+03  0.00000000000E+00 0.  1.
    9000010    2    1    2  501    0 -0.21135032421E+03 -0.47457399261E+02 -0.39105114172E+03  0.12097695539E+04  0.11241442140E+04 0.  0.
        -13    1    3    3    0    0  0.33581746199E+02 -0.20273108505E+03  0.35452699769E+03  0.40977680484E+03  0.10566000000E+00 0.  1.
          4    1    3    3  501    0 -0.24493207041E+03  0.15527368579E+03 -0.74557813941E+03  0.79999274908E+03  0.00000000000E+00 0.  1.
         13    1    1    2    0    0  0.21135032421E+03  0.47457399261E+02  0.79301348899E+02  0.23067266719E+03  0.10566000000E+00 0. -1.
<mgrwt>
<rscale>  1 0.75504899E+03</rscale>
<asrwt>0</asrwt>
<pdfrwt beam="1">  1       21 0.86822494E-01 0.11448237E+04</pdfrwt>
<pdfrwt beam="2">  1        4 0.13478400E+00 0.11448237E+04</pdfrwt>
<totfact> 0.16785423E+01</totfact>
</mgrwt>
</event>
<event>
 6    1  0.1353269E-005  0.9767462E+03  0.7818608E-02  0.9612830E-01
         21   -1    0    0  501  502  0.00000000000E+00  0.00000000000E+00  0.45630170637E+03  0.45630170637E+03  0.00000000000E+00 0.  1.
          4   -1    0    0  502    0 -0.00000000000E+00 -0.00000000000E+00 -0.13881994834E+04  0.13881994834E+04  0.00000000000E+00 0.  1.
    9000010    2    1    2  501    0  0.78970187290E+02  0.35802396517E+03 -0.15973839414E+03  0.98972193530E+03  0.90532629727E+03 0.  0.
        -13    1    3    3    0    0  0.15807110949E+03  0.28728420423E+03  0.34381533199E+03  0.47510807542E+03  0.10566000000E+00 0.  1.
          4    1    3    3  501    0 -0.79100922203E+02  0.70739760940E+02 -0.50355372613E+03  0.51461385987E+03  0.00000000000E+00 0.  1.
         13    1    1    2    0    0 -0.78970187290E+02 -0.35802396517E+03 -0.77215938285E+03  0.85477925443E+03  0.10566000000E+00 0. -1.
<mgrwt>
<rscale>  1 0.76452776E+03</rscale>
<asrwt>0</asrwt>
<pdfrwt beam="1">  1       21 0.70200264E-01 0.97674621E+03</pdfrwt>
<pdfrwt beam="2">  1        4 0.21356915E+00 0.97674621E+03</pdfrwt>
<totfact> 0.76022805E+00</totfact>
</mgrwt>
</event>
<event>
 6    1  0.1353269E-005  0.1037073E+04  0.7818608E-02  0.9599697E-01
          4   -1    0    0  502    0 -0.00000000000E+00  0.00000000000E+00  0.25787602496E+03  0.25787602496E+03  0.00000000000E+00 0.  1.
         21   -1    0    0  501  502  0.00000000000E+00 -0.00000000000E+00 -0.22535239076E+04  0.22535239076E+04  0.00000000000E+00 0. -1.
    9000010    2    1    2  501    0  0.20688128372E+03 -0.24461957408E+03 -0.91083319175E+03  0.13802670817E+04  0.98634756149E+03 0.  0.
        -13    1    3    3    0    0  0.46269389238E+03 -0.10090090563E+03 -0.97137678093E+03  0.10806662262E+04  0.10566000000E+00 0.  1.
          4    1    3    3  501    0 -0.25581260866E+03 -0.14371866845E+03  0.60543589182E+02  0.29960085548E+03  0.00000000000E+00 0.  1.
         13    1    1    2    0    0 -0.20688128372E+03  0.24461957408E+03 -0.10848146909E+04  0.11311328509E+04  0.10566000000E+00 0. -1.
<mgrwt>
<rscale>  1 0.77316263E+03</rscale>
<asrwt>0</asrwt>
<pdfrwt beam="2">  1       21 0.34669599E+00 0.10370729E+04</pdfrwt>
<pdfrwt beam="1">  1        4 0.39673234E-01 0.10370729E+04</pdfrwt>
<totfact> 0.33326815E+00</totfact>
</mgrwt>
</event>
<event>
 6    1  0.1353269E-005  0.1041739E+04  0.7818608E-02  0.9521685E-01
         21   -1    0    0  501  502  0.00000000000E+00  0.00000000000E+00  0.16148926215E+04  0.16148926215E+04  0.00000000000E+00 0.  1.
          4   -1    0    0  502    0 -0.00000000000E+00 -0.00000000000E+00 -0.34098485372E+03  0.34098485372E+03  0.00000000000E+00 0.  1.
    9000010    2    1    2  501    0  0.30100448713E+03 -0.28399583114E+03  0.10742213602E+04  0.14963864460E+04  0.95601439932E+03 0.  0.
        -13    1    3    3    0    0  0.25829601921E+03 -0.37667080331E+03  0.12289301676E+04  0.13110557180E+04  0.10566000000E+00 0.  1.
          4    1    3    3  501    0  0.42708467919E+02  0.92674972171E+02 -0.15470880735E+03  0.18533072808E+03  0.00000000000E+00 0.  1.
         13    1    1    2    0    0 -0.30100448713E+03  0.28399583114E+03  0.19968640752E+03  0.45949102917E+03  0.10566000000E+00 0. -1.
<mgrwt>
<rscale>  1 0.82703797E+03</rscale>
<asrwt>0</asrwt>
<pdfrwt beam="1">  1       21 0.24844501E+00 0.10417393E+04</pdfrwt>
<pdfrwt beam="2">  1        4 0.52459209E-01 0.10417393E+04</pdfrwt>
<totfact> 0.76792958E+00</totfact>
</mgrwt>
</event>
<event>
 6    1  0.1353269E-005  0.1038248E+04  0.7818608E-02  0.9723293E-01
          4   -1    0    0  502    0 -0.00000000000E+00  0.00000000000E+00  0.85568345241E+03  0.85568345241E+03  0.00000000000E+00 0.  1.
         21   -1    0    0  501  502  0.00000000000E+00 -0.00000000000E+00 -0.55478316736E+03  0.55478316736E+03  0.00000000000E+00 0.  1.
    9000010    2    1    2  501    0 -0.20774236448E+03 -0.32261340471E+02 -0.62398483017E+01  0.10382667316E+04  0.10167404714E+04 0.  0.
        -13    1    3    3    0    0 -0.45594374998E+03  0.20974305857E+03  0.29229011544E+03  0.58078427709E+03  0.10566000000E+00 0.  1.
          4    1    3    3  501    0  0.24820138550E+03 -0.24200439904E+03 -0.29852996374E+03  0.45748245449E+03  0.00000000000E+00 0.  1.
         13    1    1    2    0    0  0.20774236448E+03  0.32261340471E+02  0.30714013335E+03  0.37219988819E+03  0.10566000000E+00 0. -1.
<mgrwt>
<rscale>  1 0.69646737E+03</rscale>
<asrwt>0</asrwt>
<pdfrwt beam="2">  1       21 0.85351256E-01 0.10382480E+04</pdfrwt>
<pdfrwt beam="1">  1        4 0.13164361E+00 0.10382480E+04</pdfrwt>
<totfact> 0.18769600E+01</totfact>
</mgrwt>
</event>
<event>
 6    1  0.1353269E-005  0.9204655E+03  0.7818608E-02  0.9979794E-01
         21   -1    0    0  501  502  0.00000000000E+00  0.00000000000E+00  0.12780463721E+04  0.12780463721E+04  0.00000000000E+00 0.  1.
          4   -1    0    0  502    0 -0.00000000000E+00 -0.00000000000E+00 -0.52551497570E+03  0.52551497570E+03  0.00000000000E+00 0.  1.
    9000010    2    1    2  501    0 -0.12111799710E+03 -0.50141600949E+02  0.10987509405E+04  0.14333563596E+04  0.91108346219E+03 0.  0.
        -13    1    3    3    0    0  0.30367281536E+03  0.65633261264E+02  0.75975803603E+02  0.31983939356E+03  0.10566000000E+00 0.  1.
          4    1    3    3  501    0 -0.42479081246E+03 -0.11577486221E+03  0.10227751369E+04  0.11135169661E+04  0.00000000000E+00 0.  1.
         13    1    1    2    0    0  0.12111799710E+03  0.50141600949E+02 -0.34621954412E+03  0.37020498816E+03  0.10566000000E+00 0. -1.
<mgrwt>
<rscale>  1 0.56545159E+03</rscale>
<asrwt>0</asrwt>
<pdfrwt beam="1">  1       21 0.19662252E+00 0.92046555E+03</pdfrwt>
<pdfrwt beam="2">  1        4 0.80848459E-01 0.92046555E+03</pdfrwt>
<totfact> 0.66049187E+00</totfact>
</mgrwt>
</event>
<event>
 6    1  0.1353269E-005  0.1001246E+04  0.7818608E-02  0.9784993E-01
         21   -1    0    0  501  502  0.00000000000E+00  0.00000000000E+00  0.35422618868E+03  0.35422618868E+03  0.00000000000E+00 0.  1.
          4   -1    0    0  502    0 -0.00000000000E+00 -0.00000000000E+00 -0.10053037780E+04  0.10053037780E+04  0.00000000000E+00 0.  1.
    9000010    2    1    2  501    0 -0.82676498542E+02 -0.17222691718E+03 -0.56869742027E+03  0.11514818524E+04  0.98285104990E+03 0.  0.
        -13    1    3    3    0    0 -0.24944445162E+03 -0.80434811447E+02  0.21872924889E+03  0.34137192155E+03  0.10566000000E+00 0.  1.
          4    1    3    3  501    0  0.16676795307E+03 -0.91792105737E+02 -0.78742666916E+03  0.81010993090E+03  0.00000000000E+00 0.  1.
         13    1    1    2    0    0  0.82676498542E+02  0.17222691718E+03 -0.82380169034E+02  0.20804811421E+03  0.10566000000E+00 0. -1.
<mgrwt>
<rscale>  1 0.66174185E+03</rscale>
<asrwt>0</asrwt>
<pdfrwt beam="1">  1       21 0.54496337E-01 0.10012461E+04</pdfrwt>
<pdfrwt beam="2">  1        4 0.15466212E+00 0.10012461E+04</pdfrwt>
<totfact> 0.34269616E+01</totfact>
</mgrwt>
</event>
<event>
 6    1  0.1353269E-005  0.1032204E+04  0.7818608E-02  0.9715283E-01
          4   -1    0    0  502    0 -0.00000000000E+00  0.00000000000E+00  0.10264222887E+04  0.10264222887E+04  0.00000000000E+00 0.  1.
         21   -1    0    0  501  502  0.00000000000E+00 -0.00000000000E+00 -0.43883328272E+03  0.43883328272E+03  0.00000000000E+00 0.  1.
    9000010    2    1    2  501    0  0.21965879620E+03  0.62472439340E+01  0.24933945119E+03  0.10618924753E+04  0.10085417455E+04 0.  0.
        -13    1    3    3    0    0  0.60218128898E+03  0.53673689209E+02  0.29686534582E+03  0.67352224494E+03  0.10566000000E+00 0.  1.
          4    1    3    3  501    0 -0.38252249278E+03 -0.47426445275E+02 -0.47525894627E+02  0.38837023039E+03  0.00000000000E+00 0.  1.
         13    1    1    2    0    0 -0.21965879620E+03 -0.62472439340E+01  0.33824955477E+03  0.40336309607E+03  0.10566000000E+00 0. -1.
<mgrwt>
<rscale>  1 0.70114084E+03</rscale>
<asrwt>0</asrwt>
<pdfrwt beam="2">  1       21 0.67512813E-01 0.10322042E+04</pdfrwt>
<pdfrwt beam="1">  1        4 0.15791112E+00 0.10322042E+04</pdfrwt>
<totfact> 0.20007616E+01</totfact>
</mgrwt>
</event>
<event>
 6    1  0.1353269E-005  0.1004398E+04  0.7818608E-02  0.1010869E+00
          4   -1    0    0  502    0 -0.00000000000E+00  0.00000000000E+00  0.13723533694E+04  0.13723533694E+04  0.00000000000E+00 0.  1.
         21   -1    0    0  501  502  0.00000000000E+00 -0.00000000000E+00 -0.21026214701E+03  0.21026214701E+03  0.00000000000E+00 0.  1.
    9000010    2    1    2  501    0  0.53201727863E+02  0.41467741530E+02  0.10602423138E+04  0.14604549303E+04  0.10021301524E+04 0.  0.
        -13    1    3    3    0    0  0.29293748070E+03  0.20436436533E+03  0.11102859484E+04  0.11663241659E+04  0.10566000000E+00 0.  1.
          4    1    3    3  501    0 -0.23973575284E+03 -0.16289662380E+03 -0.50043634688E+02  0.29413076447E+03  0.00000000000E+00 0.  1.
         13    1    1    2    0    0 -0.53201727863E+02 -0.41467741530E+02  0.10184890861E+03  0.12216058605E+03  0.10566000000E+00 0. -1.
<mgrwt>
<rscale>  1 0.51130593E+03</rscale>
<asrwt>0</asrwt>
<pdfrwt beam="2">  1       21 0.32348023E-01 0.10043977E+04</pdfrwt>
<pdfrwt beam="1">  1        4 0.21113128E+00 0.10043977E+04</pdfrwt>
<totfact> 0.41649606E+01</totfact>
</mgrwt>
</event>
<event>
 6    1  0.1353269E-005  0.1014791E+04  0.7818608E-02  0.9812483E-01
          4   -1    0    0  502    0 -0.00000000000E+00  0.00000000000E+00  0.71801740399E+03  0.71801740399E+03  0.00000000000E+00 0.  1.
         21   -1    0    0  501  502  0.00000000000E+00 -0.00000000000E+00 -0.53498940442E+03  0.53498940442E+03  0.00000000000E+00 0.  1.
    9000010    2    1    2  501    0 -0.56901472427E+02  0.15769863562E+03  0.13928962541E+02  0.10148868119E+04  0.10008469352E+04 0.  0.
        -13    1    3    3    0    0  0.40884165931E+03 -0.12680446769E+03 -0.13558214284E+03  0.44901381274E+03  0.10566000000E+00 0.  1.
          4    1    3    3  501    0 -0.46574313174E+03  0.28450310332E+03  0.14951110538E+03  0.56587299917E+03  0.00000000000E+00 0.  1.
         13    1    1    2    0    0  0.56901472427E+02 -0.15769863562E+03  0.16909903703E+03  0.23811999650E+03  0.10566000000E+00 0. -1.
<mgrwt>
<rscale>  1 0.64696928E+03</rscale>
<asrwt>0</asrwt>
<pdfrwt beam="2">  1       21 0.82306062E-01 0.10147912E+04</pdfrwt>
<pdfrwt beam="1">  1        4 0.11046422E+00 0.10147912E+04</pdfrwt>
<totfact> 0.31905185E+01</totfact>
</mgrwt>
</event>
<event>
 6    1  0.1353269E-005  0.1253409E+04  0.7818608E-02  0.9199263E-01
         21   -1    0    0  501  502  0.00000000000E+00  0.00000000000E+00  0.49778286471E+03  0.49778286471E+03  0.00000000000E+00 0.  1.
          4   -1    0    0  502    0 -0.00000000000E+00 -0.00000000000E+00 -0.22696609484E+04  0.22696609484E+04  0.00000000000E+00 0.  1.
    9000010    2    1    2  501    0 -0.62199313917E+03  0.43699863412E+03 -0.64902247561E+03  0.14114762622E+04  0.99659008297E+03 0.  0.
        -13    1    3    3    0    0  0.14847724519E+03 -0.20275548221E+03 -0.11221424217E+03  0.27522231961E+03  0.10566000000E+00 0.  1.
          4    1    3    3  501    0 -0.77047038436E+03  0.63975411633E+03 -0.53680823344E+03  0.11362539426E+04  0.00000000000E+00 0.  1.
         13    1    1    2    0    0  0.62199313917E+03 -0.43699863412E+03 -0.11228556081E+04  0.13559675509E+04  0.10566000000E+00 0. -1.
<mgrwt>
<rscale>  1 0.11061040E+04</rscale>
<asrwt>0</asrwt>
<pdfrwt beam="1">  1       21 0.76581980E-01 0.12534094E+04</pdfrwt>
<pdfrwt beam="2">  1        4 0.34917860E+00 0.12534094E+04</pdfrwt>
<totfact> 0.84466300E-01</totfact>
</mgrwt>
</event>
<event>
 6    1  0.1353269E-005  0.1039668E+04  0.7818608E-02  0.9974193E-01
          4   -1    0    0  502    0 -0.00000000000E+00  0.00000000000E+00  0.14036135409E+04  0.14036135409E+04  0.00000000000E+00 0.  1.
         21   -1    0    0  501  502  0.00000000000E+00 -0.00000000000E+00 -0.31415966337E+03  0.31415966337E+03  0.00000000000E+00 0.  1.
    9000010    2    1    2  501    0 -0.91231692577E+02 -0.15847741299E+02  0.56119596225E+03  0.11814609735E+04  0.10355359730E+04 0.  0.
        -13    1    3    3    0    0 -0.81952309667E+02  0.32667222788E+03 -0.16755767299E+03  0.37617351112E+03  0.10566000000E+00 0.  1.
          4    1    3    3  501    0 -0.92793829094E+01 -0.34251996918E+03  0.72875363524E+03  0.80528746241E+03  0.00000000000E+00 0.  1.
         13    1    1    2    0    0  0.91231692577E+02  0.15847741299E+02  0.52825791532E+03  0.53631223079E+03  0.10566000000E+00 0. -1.
<mgrwt>
<rscale>  1 0.56796465E+03</rscale>
<asrwt>0</asrwt>
<pdfrwt beam="2">  1       21 0.48332257E-01 0.10396678E+04</pdfrwt>
<pdfrwt beam="1">  1        4 0.21594054E+00 0.10396678E+04</pdfrwt>
<totfact> 0.16681982E+01</totfact>
</mgrwt>
</event>
<event>
 6    1  0.1353269E-005  0.1092023E+04  0.7818608E-02  0.9691076E-01
         21   -1    0    0  501  502  0.00000000000E+00  0.00000000000E+00  0.96039399262E+03  0.96039399262E+03  0.00000000000E+00 0.  1.
          4   -1    0    0  502    0 -0.00000000000E+00 -0.00000000000E+00 -0.51004817834E+03  0.51004817834E+03  0.00000000000E+00 0.  1.
    9000010    2    1    2  501    0 -0.40688654984E+02 -0.19710480404E+03  0.57454622455E+03  0.12339434955E+04  0.10733160371E+04 0.  0.
        -13    1    3    3    0    0 -0.20345499725E+03 -0.13142621857E+03  0.86296745088E+03  0.89631446450E+03  0.10566000000E+00 0.  1.
          4    1    3    3  501    0  0.16276634226E+03 -0.65678585471E+02 -0.28842122634E+03  0.33762903099E+03  0.00000000000E+00 0.  1.
         13    1    1    2    0    0  0.40688654984E+02  0.19710480404E+03 -0.12420041027E+03  0.23649867547E+03  0.10566000000E+00 0. -1.
<mgrwt>
<rscale>  1 0.71550629E+03</rscale>
<asrwt>0</asrwt>
<pdfrwt beam="1">  1       21 0.14775292E+00 0.10920225E+04</pdfrwt>
<pdfrwt beam="2">  1        4 0.78468950E-01 0.10920225E+04</pdfrwt>
<totfact> 0.16041392E+01</totfact>
</mgrwt>
</event>
<event>
 6    1  0.1353269E-005  0.1027467E+04  0.7818608E-02  0.9760336E-01
         21   -1    0    0  501  502  0.00000000000E+00  0.00000000000E+00  0.97397702868E+03  0.97397702868E+03  0.00000000000E+00 0. -1.
          4   -1    0    0  502    0 -0.00000000000E+00 -0.00000000000E+00 -0.39209360907E+03  0.39209360907E+03  0.00000000000E+00 0.  1.
    9000010    2    1    2  501    0 -0.98264216701E+02  0.16470077202E+03  0.56743059281E+03  0.11737399435E+04  0.10094086272E+04 0.  0.
        -13    1    3    3    0    0  0.19368700782E+03 -0.32562381051E+03  0.14514354241E+02  0.37915194924E+03  0.10566000000E+00 0.  1.
          4    1    3    3  501    0 -0.29195122452E+03  0.49032458253E+03  0.55291623857E+03  0.79458799425E+03  0.00000000000E+00 0.  1.
         13    1    1    2    0    0  0.98264216701E+02 -0.16470077202E+03  0.14452826791E+02  0.19233069426E+03  0.10566000000E+00 0. -1.
<mgrwt>
<rscale>  1 0.67535259E+03</rscale>
<asrwt>0</asrwt>
<pdfrwt beam="1">  1       21 0.14984262E+00 0.10274668E+04</pdfrwt>
<pdfrwt beam="2">  1        4 0.60322094E-01 0.10274668E+04</pdfrwt>
<totfact> 0.27951560E+01</totfact>
</mgrwt>
</event>
<event>
 6    1  0.1353269E-005  0.9331218E+03  0.7818608E-02  0.1004567E+00
         21   -1    0    0  501  502  0.00000000000E+00  0.00000000000E+00  0.86267532828E+03  0.86267532828E+03  0.00000000000E+00 0.  1.
          4   -1    0    0  502    0 -0.00000000000E+00 -0.00000000000E+00 -0.38377037855E+03  0.38377037855E+03  0.00000000000E+00 0.  1.
    9000010    2    1    2  501    0 -0.62408864919E+02  0.81045400929E+02  0.58318395481E+03  0.11003726241E+04  0.92749833600E+03 0.  0.
        -13    1    3    3    0    0  0.15545215478E+03  0.73951815975E+01 -0.21742808870E+03  0.26738557563E+03  0.10566000000E+00 0.  1.
          4    1    3    3  501    0 -0.21786101969E+03  0.73650219331E+02  0.80061204351E+03  0.83298704847E+03  0.00000000000E+00 0.  1.
         13    1    1    2    0    0  0.62408864919E+02 -0.81045400929E+02 -0.10427900509E+03  0.14607308273E+03  0.10566000000E+00 0. -1.
<mgrwt>
<rscale>  1 0.53692301E+03</rscale>
<asrwt>0</asrwt>
<pdfrwt beam="1">  1       21 0.13271928E+00 0.93312185E+03</pdfrwt>
<pdfrwt beam="2">  1        4 0.59041597E-01 0.93312185E+03</pdfrwt>
<totfact> 0.41169166E+01</totfact>
</mgrwt>
</event>
<event>
 6    1  0.1353269E-005  0.1057912E+04  0.7818608E-02  0.9546884E-01
         21   -1    0    0  501  502  0.00000000000E+00  0.00000000000E+00  0.26479666431E+03  0.26479666431E+03  0.00000000000E+00 0.  1.
          4   -1    0    0  502    0 -0.00000000000E+00 -0.00000000000E+00 -0.23581642955E+04  0.23581642955E+04  0.00000000000E+00 0.  1.
    9000010    2    1    2  501    0 -0.29236541549E+03 -0.21351012372E+03 -0.94375565939E+03  0.14176926055E+04  0.99403896798E+03 0.  0.
        -13    1    3    3    0    0 -0.55387880907E+03 -0.41210312362E+03 -0.44780395223E+03  0.82288462766E+03  0.10566000000E+00 0.  1.
          4    1    3    3  501    0  0.26151339358E+03  0.19859299991E+03 -0.49595170716E+03  0.59480797781E+03  0.00000000000E+00 0.  1.
         13    1    1    2    0    0  0.29236541549E+03  0.21351012372E+03 -0.11496119719E+04  0.12052683544E+04  0.10566000000E+00 0. -1.
<mgrwt>
<rscale>  1 0.80913801E+03</rscale>
<asrwt>0</asrwt>
<pdfrwt beam="1">  1       21 0.40737948E-01 0.10579119E+04</pdfrwt>
<pdfrwt beam="2">  1        4 0.36279451E+00 0.10579119E+04</pdfrwt>
<totfact> 0.28610734E+00</totfact>
</mgrwt>
</event>
<event>
 6    1  0.1353269E-005  0.1100070E+04  0.7818608E-02  0.9427998E-01
         21   -1    0    0  501  502  0.00000000000E+00  0.00000000000E+00  0.34349008204E+03  0.34349008204E+03  0.00000000000E+00 0.  1.
          4   -1    0    0  502    0 -0.00000000000E+00 -0.00000000000E+00 -0.24384498116E+04  0.24384498116E+04  0.00000000000E+00 0.  1.
    9000010    2    1    2  501    0 -0.47289578119E+03  0.12299268272E+03 -0.70005545545E+03  0.13039292154E+04  0.98559430711E+03 0.  0.
        -13    1    3    3    0    0 -0.77190452201E+03 -0.39324954403E+01 -0.44558924251E+03  0.89129223032E+03  0.10566000000E+00 0.  1.
          4    1    3    3  501    0  0.29900874082E+03  0.12692517816E+03 -0.25446621294E+03  0.41263698509E+03  0.00000000000E+00 0.  1.
         13    1    1    2    0    0  0.47289578119E+03 -0.12299268272E+03 -0.13949042741E+04  0.14780106782E+04  0.10566000000E+00 0. -1.
<mgrwt>
<rscale>  1 0.89806933E+03</rscale>
<asrwt>0</asrwt>
<pdfrwt beam="1">  1       21 0.52844627E-01 0.11000699E+04</pdfrwt>
<pdfrwt beam="2">  1        4 0.37514613E+00 0.11000699E+04</pdfrwt>
<totfact> 0.13479212E+00</totfact>
</mgrwt>
</event>
<event>
 6    1  0.1353269E-005  0.1031935E+04  0.7818608E-02  0.9899529E-01
         21   -1    0    0  501  502  0.00000000000E+00  0.00000000000E+00  0.30157184127E+03  0.30157184127E+03  0.00000000000E+00 0.  1.
          4   -1    0    0  502    0 -0.00000000000E+00 -0.00000000000E+00 -0.16036686094E+04  0.16036686094E+04  0.00000000000E+00 0.  1.
    9000010    2    1    2  501    0  0.32283990727E+02  0.11576899292E+03 -0.60156721731E+03  0.11944758071E+04  0.10249120065E+04 0.  0.
        -13    1    3    3    0    0  0.31149422413E+03 -0.18360172384E+03 -0.68695141905E+03  0.77629923868E+03  0.10566000000E+00 0.  1.
          4    1    3    3  501    0 -0.27921023341E+03  0.29937071677E+03  0.85384201744E+02  0.41817656845E+03  0.00000000000E+00 0.  1.
         13    1    1    2    0    0 -0.32283990727E+02 -0.11576899292E+03 -0.70052955083E+03  0.71076464356E+03  0.10566000000E+00 0. -1.
<mgrwt>
<rscale>  1 0.60284109E+03</rscale>
<asrwt>0</asrwt>
<pdfrwt beam="1">  1       21 0.46395667E-01 0.10319348E+04</pdfrwt>
<pdfrwt beam="2">  1        4 0.24671825E+00 0.10319348E+04</pdfrwt>
<totfact> 0.11663520E+01</totfact>
</mgrwt>
</event>
<event>
 6    1  0.1353269E-005  0.1024467E+04  0.7818608E-02  0.9735022E-01
          4   -1    0    0  502    0 -0.00000000000E+00  0.00000000000E+00  0.41491645179E+03  0.41491645179E+03  0.00000000000E+00 0.  1.
         21   -1    0    0  501  502  0.00000000000E+00 -0.00000000000E+00 -0.92607121002E+03  0.92607121002E+03  0.00000000000E+00 0.  1.
    9000010    2    1    2  501    0 -0.20962061428E+03 -0.18560949701E+02 -0.37810333475E+03  0.10920137611E+04  0.10026198741E+04 0.  0.
        -13    1    3    3    0    0  0.12105511915E+03 -0.43767039818E+03 -0.30831094796E+02  0.45514864262E+03  0.10566000000E+00 0.  1.
          4    1    3    3  501    0 -0.33067573343E+03  0.41910944848E+03 -0.34727223996E+03  0.63686511847E+03  0.00000000000E+00 0.  1.
         13    1    1    2    0    0  0.20962061428E+03  0.18560949701E+02 -0.13305142348E+03  0.24897390072E+03  0.10566000000E+00 0. -1.
<mgrwt>
<rscale>  1 0.68969313E+03</rscale>
<asrwt>0</asrwt>
<pdfrwt beam="2">  1       21 0.14247250E+00 0.10244667E+04</pdfrwt>
<pdfrwt beam="1">  1        4 0.63833300E-01 0.10244667E+04</pdfrwt>
<totfact> 0.28395553E+01</totfact>
</mgrwt>
</event>
<event>
 6    1  0.1353269E-005  0.1001215E+04  0.7818608E-02  0.9942466E-01
         21   -1    0    0  501  502  0.00000000000E+00  0.00000000000E+00  0.13603808165E+04  0.13603808165E+04  0.00000000000E+00 0.  1.
          4   -1    0    0  502    0 -0.00000000000E+00 -0.00000000000E+00 -0.34741578377E+03  0.34741578377E+03  0.00000000000E+00 0.  1.
    9000010    2    1    2  501    0  0.10770431154E+03  0.39396059664E+02  0.11528410858E+04  0.15269165581E+04  0.99462522481E+03 0.  0.
        -13    1    3    3    0    0  0.48433196316E+03  0.27467442975E+03  0.62150795030E+03  0.83444330925E+03  0.10566000000E+00 0.  1.
          4    1    3    3  501    0 -0.37662765163E+03 -0.23527837008E+03  0.53133313554E+03  0.69247324881E+03  0.00000000000E+00 0.  1.
         13    1    1    2    0    0 -0.10770431154E+03 -0.39396059664E+02 -0.13987605315E+03  0.18088004216E+03  0.10566000000E+00 0. -1.
<mgrwt>
<rscale>  1 0.58246611E+03</rscale>
<asrwt>0</asrwt>
<pdfrwt beam="1">  1       21 0.20928935E+00 0.10012151E+04</pdfrwt>
<pdfrwt beam="2">  1        4 0.53448583E-01 0.10012151E+04</pdfrwt>
<totfact> 0.13376748E+01</totfact>
</mgrwt>
</event>
<event>
 6    1  0.1353269E-005  0.1151139E+04  0.7818608E-02  0.9354551E-01
         21   -1    0    0  501  502  0.00000000000E+00  0.00000000000E+00  0.97109903388E+03  0.97109903388E+03  0.00000000000E+00 0.  1.
          4   -1    0    0  502    0 -0.00000000000E+00 -0.00000000000E+00 -0.75099108872E+03  0.75099108872E+03  0.00000000000E+00 0.  1.
    9000010    2    1    2  501    0  0.40565498495E+03 -0.37843573881E+03  0.18802421785E+03  0.11663933060E+04  0.10086380236E+04 0.  0.
        -13    1    3    3    0    0 -0.32486299082E+03 -0.33920739188E+02 -0.34967933124E+02  0.32849558120E+03  0.10566000000E+00 0.  1.
          4    1    3    3  501    0  0.73051797577E+03 -0.34451499962E+03  0.22299215098E+03  0.83789772484E+03  0.00000000000E+00 0.  1.
         13    1    1    2    0    0 -0.40565498495E+03  0.37843573881E+03  0.32083727301E+02  0.55569681656E+03  0.10566000000E+00 0. -1.
<mgrwt>
<rscale>  1 0.95912220E+03</rscale>
<asrwt>0</asrwt>
<pdfrwt beam="1">  1       21 0.14939985E+00 0.11511387E+04</pdfrwt>
<pdfrwt beam="2">  1        4 0.11553709E+00 0.11511387E+04</pdfrwt>
<totfact> 0.61307603E+00</totfact>
</mgrwt>
</event>
<event>
 6    1  0.1353269E-005  0.1040288E+04  0.7818608E-02  0.9619183E-01
         21   -1    0    0  501  502  0.00000000000E+00  0.00000000000E+00  0.79165000878E+03  0.79165000878E+03  0.00000000000E+00 0.  1.
          4   -1    0    0  502    0 -0.00000000000E+00 -0.00000000000E+00 -0.58431612031E+03  0.58431612031E+03  0.00000000000E+00 0.  1.
    9000010    2    1    2  501    0  0.25047216575E+03 -0.15952194413E+03  0.26488817249E+03  0.10734829672E+04  0.99700370129E+03 0.  0.
        -13    1    3    3    0    0  0.28689526015E+03  0.22357713643E+03  0.50316301188E+03  0.62086121954E+03  0.10566000000E+00 0.  1.
          4    1    3    3  501    0 -0.36423094402E+02 -0.38309908056E+03 -0.23827483939E+03  0.45262174762E+03  0.00000000000E+00 0.  1.
         13    1    1    2    0    0 -0.25047216575E+03  0.15952194413E+03 -0.57554284028E+02  0.30248316193E+03  0.10566000000E+00 0. -1.
<mgrwt>
<rscale>  1 0.76039416E+03</rscale>
<asrwt>0</asrwt>
<pdfrwt beam="1">  1       21 0.12179231E+00 0.10402884E+04</pdfrwt>
<pdfrwt beam="2">  1        4 0.89894788E-01 0.10402884E+04</pdfrwt>
<totfact> 0.19780823E+01</totfact>
</mgrwt>
</event>
<event>
 6    1  0.1353269E-005  0.1067896E+04  0.7818608E-02  0.9485758E-01
         21   -1    0    0  501  502  0.00000000000E+00  0.00000000000E+00  0.95248716863E+03  0.95248716863E+03  0.00000000000E+00 0.  1.
          4   -1    0    0  502    0 -0.00000000000E+00 -0.00000000000E+00 -0.60275467267E+03  0.60275467267E+03  0.00000000000E+00 0.  1.
    9000010    2    1    2  501    0 -0.18749559786E+03  0.39315800090E+03  0.33577674948E+03  0.11194407549E+04  0.97502500754E+03 0.  0.
        -13    1    3    3    0    0  0.20347846075E+03 -0.13272865647E+03  0.39259452340E+03  0.46168263039E+03  0.10566000000E+00 0.  1.
          4    1    3    3  501    0 -0.39097405862E+03  0.52588665737E+03 -0.56817773919E+02  0.65775812450E+03  0.00000000000E+00 0.  1.
         13    1    1    2    0    0  0.18749559786E+03 -0.39315800090E+03  0.13955746487E+02  0.43580108641E+03  0.10566000000E+00 0. -1.
<mgrwt>
<rscale>  1 0.85342047E+03</rscale>
<asrwt>0</asrwt>
<pdfrwt beam="1">  1       21 0.14653649E+00 0.10678959E+04</pdfrwt>
<pdfrwt beam="2">  1        4 0.92731488E-01 0.10678959E+04</pdfrwt>
<totfact> 0.11150632E+01</totfact>
</mgrwt>
</event>
<event>
 6    1  0.1353269E-005  0.1005328E+04  0.7818608E-02  0.9864121E-01
         21   -1    0    0  501  502  0.00000000000E+00  0.00000000000E+00  0.22776295697E+03  0.22776295697E+03  0.00000000000E+00 0.  1.
          4   -1    0    0  502    0 -0.00000000000E+00 -0.00000000000E+00 -0.14555710478E+04  0.14555710478E+04  0.00000000000E+00 0.  1.
    9000010    2    1    2  501    0 -0.12541510920E+03  0.74213017443E+02 -0.10553149919E+04  0.14575234605E+04  0.99471020108E+03 0.  0.
        -13    1    3    3    0    0 -0.83785752121E+02  0.34015489857E+03  0.18180923968E+02  0.35079333579E+03  0.10566000000E+00 0.  1.
          4    1    3    3  501    0 -0.41629357080E+02 -0.26594188112E+03 -0.10734959159E+04  0.11067301247E+04  0.00000000000E+00 0.  1.
         13    1    1    2    0    0  0.12541510920E+03 -0.74213017443E+02 -0.17249309897E+03  0.22581054433E+03  0.10566000000E+00 0. -1.
<mgrwt>
<rscale>  1 0.62032084E+03</rscale>
<asrwt>0</asrwt>
<pdfrwt beam="1">  1       21 0.35040455E-01 0.10053283E+04</pdfrwt>
<pdfrwt beam="2">  1        4 0.22393401E+00 0.10053283E+04</pdfrwt>
<totfact> 0.29274306E+01</totfact>
</mgrwt>
</event>
<event>
 6    1  0.1353269E-005  0.9954130E+03  0.7818608E-02  0.9977354E-01
          4   -1    0    0  502    0 -0.00000000000E+00  0.00000000000E+00  0.15689529969E+03  0.15689529969E+03  0.00000000000E+00 0.  1.
         21   -1    0    0  501  502  0.00000000000E+00 -0.00000000000E+00 -0.20716311431E+04  0.20716311431E+04  0.00000000000E+00 0.  1.
    9000010    2    1    2  501    0 -0.49897013712E+02 -0.91765964664E+02 -0.14955986020E+04  0.17965695670E+04  0.98991733313E+03 0.  0.
        -13    1    3    3    0    0  0.17224420283E+03  0.19064569000E+03  0.15213284309E+01  0.25693612071E+03  0.10566000000E+00 0.  1.
          4    1    3    3  501    0 -0.22214121654E+03 -0.28241165466E+03 -0.14971199304E+04  0.15396334462E+04  0.00000000000E+00 0.  1.
         13    1    1    2    0    0  0.49897013712E+02  0.91765964664E+02 -0.41913724140E+03  0.43195687579E+03  0.10566000000E+00 0. -1.
<mgrwt>
<rscale>  1 0.56654471E+03</rscale>
<asrwt>0</asrwt>
<pdfrwt beam="2">  1       21 0.31871250E+00 0.99541300E+03</pdfrwt>
<pdfrwt beam="1">  1        4 0.24137737E-01 0.99541300E+03</pdfrwt>
<totfact> 0.13368560E+01</totfact>
</mgrwt>
</event>
<event>
 6    1  0.1353269E-005  0.1097721E+04  0.7818608E-02  0.9771027E-01
         21   -1    0    0  501  502  0.00000000000E+00  0.00000000000E+00  0.12922342780E+04  0.12922342780E+04  0.00000000000E+00 0.  1.
          4   -1    0    0  502    0 -0.00000000000E+00 -0.00000000000E+00 -0.36469559696E+03  0.36469559696E+03  0.00000000000E+00 0.  1.
    9000010    2    1    2  501    0 -0.13437131411E+03  0.70636171802E+02  0.10034098208E+04  0.14872196517E+04  0.10871733556E+04 0.  0.
        -13    1    3    3    0    0 -0.84398843768E+02  0.24325426697E+03 -0.16451493401E+03  0.30555028703E+03  0.10566000000E+00 0.  1.
          4    1    3    3  501    0 -0.49972470346E+02 -0.17261809516E+03  0.11679247548E+04  0.11816693647E+04  0.00000000000E+00 0.  1.
         13    1    1    2    0    0  0.13437131411E+03 -0.70636171802E+02 -0.75871139829E+02  0.16971022316E+03  0.10566000000E+00 0. -1.
<mgrwt>
<rscale>  1 0.66940866E+03</rscale>
<asrwt>0</asrwt>
<pdfrwt beam="1">  1       21 0.19880527E+00 0.10977208E+04</pdfrwt>
<pdfrwt beam="2">  1        4 0.56107015E-01 0.10977208E+04</pdfrwt>
<totfact> 0.14043136E+01</totfact>
</mgrwt>
</event>
<event>
 6    1  0.1353269E-005  0.1171966E+04  0.7818608E-02  0.9322155E-01
          4   -1    0    0  502    0 -0.00000000000E+00  0.00000000000E+00  0.10256054896E+04  0.10256054896E+04  0.00000000000E+00 0.  1.
         21   -1    0    0  501  502  0.00000000000E+00 -0.00000000000E+00 -0.82249005146E+03  0.82249005146E+03  0.00000000000E+00 0. -1.
    9000010    2    1    2  501    0  0.54150586811E+03 -0.23723794521E+03  0.37826991699E+03  0.12315004142E+04  0.10119262287E+04 0.  0.
        -13    1    3    3    0    0  0.44112827425E+03  0.31773929309E+03  0.38721325981E+03  0.66744777507E+03  0.10566000000E+00 0.  1.
          4    1    3    3  501    0  0.10037759387E+03 -0.55497723830E+03 -0.89433428268E+01  0.56405263918E+03  0.00000000000E+00 0.  1.
         13    1    1    2    0    0 -0.54150586811E+03  0.23723794521E+03 -0.17515447880E+03  0.61659512685E+03  0.10566000000E+00 0. -1.
<mgrwt>
<rscale>  1 0.98768608E+03</rscale>
<asrwt>0</asrwt>
<pdfrwt beam="2">  1       21 0.12653693E+00 0.11719664E+04</pdfrwt>
<pdfrwt beam="1">  1        4 0.15778546E+00 0.11719664E+04</pdfrwt>
<totfact> 0.42567795E+00</totfact>
</mgrwt>
</event>
<event>
 6    1  0.1353269E-005  0.1029248E+04  0.7818608E-02  0.9944225E-01
         21   -1    0    0  501  502  0.00000000000E+00  0.00000000000E+00  0.85901129269E+03  0.85901129269E+03  0.00000000000E+00 0.  1.
          4   -1    0    0  502    0 -0.00000000000E+00 -0.00000000000E+00 -0.54055822583E+03  0.54055822583E+03  0.00000000000E+00 0.  1.
    9000010    2    1    2  501    0 -0.37209652019E+01  0.10490916797E+03  0.53421326526E+03  0.11596273307E+04  0.10238808301E+04 0.  0.
        -13    1    3    3    0    0  0.24793625874E+03  0.36489978459E+01  0.76455438036E+03  0.80375936403E+03  0.10566000000E+00 0.  1.
          4    1    3    3  501    0 -0.25165722394E+03  0.10126017013E+03 -0.23034111510E+03  0.35586796670E+03  0.00000000000E+00 0.  1.
         13    1    1    2    0    0  0.37209652019E+01 -0.10490916797E+03 -0.21576019840E+03  0.23994218779E+03  0.10566000000E+00 0. -1.
<mgrwt>
<rscale>  1 0.58165000E+03</rscale>
<asrwt>0</asrwt>
<pdfrwt beam="1">  1       21 0.13215558E+00 0.10292481E+04</pdfrwt>
<pdfrwt beam="2">  1        4 0.83162804E-01 0.10292481E+04</pdfrwt>
<totfact> 0.19140181E+01</totfact>
</mgrwt>
</event>
<event>
 6    1  0.1353269E-005  0.1024118E+04  0.7818608E-02  0.9825085E-01
         21   -1    0    0  501  502  0.00000000000E+00  0.00000000000E+00  0.14398789574E+04  0.14398789574E+04  0.00000000000E+00 0.  1.
          4   -1    0    0  502    0 -0.00000000000E+00 -0.00000000000E+00 -0.41895669647E+03  0.41895669647E+03  0.00000000000E+00 0.  1.
    9000010    2    1    2  501    0  0.10456603140E+03  0.11647173369E+03  0.12281643646E+04  0.15991261616E+04  0.10120854976E+04 0.  0.
        -13    1    3    3    0    0 -0.11238824356E+03  0.53263677733E+03  0.54509779116E+03  0.77036657959E+03  0.10566000000E+00 0.  1.
          4    1    3    3  501    0  0.21695427495E+03 -0.41616504364E+03  0.68306657346E+03  0.82875958200E+03  0.00000000000E+00 0.  1.
         13    1    1    2    0    0 -0.10456603140E+03 -0.11647173369E+03 -0.20724210370E+03  0.25970949228E+03  0.10566000000E+00 0. -1.
<mgrwt>
<rscale>  1 0.64033542E+03</rscale>
<asrwt>0</asrwt>
<pdfrwt beam="1">  1       21 0.22151984E+00 0.10241176E+04</pdfrwt>
<pdfrwt beam="2">  1        4 0.64454877E-01 0.10241176E+04</pdfrwt>
<totfact> 0.73610890E+00</totfact>
</mgrwt>
</event>
<event>
 6    1  0.1353269E-005  0.9876510E+03  0.7818608E-02  0.1000785E+00
         21   -1    0    0  501  502  0.00000000000E+00  0.00000000000E+00  0.47893199453E+03  0.47893199453E+03  0.00000000000E+00 0.  1.
          4   -1    0    0  502    0 -0.00000000000E+00 -0.00000000000E+00 -0.61615021209E+03  0.61615021209E+03  0.00000000000E+00 0.  1.
    9000010    2    1    2  501    0 -0.91095197023E+02  0.33682416084E+02 -0.10733649408E+03  0.99346641732E+03  0.98286395768E+03 0.  0.
        -13    1    3    3    0    0  0.24563210444E+02 -0.36354993580E+03 -0.35710451195E+03  0.51019168039E+03  0.10566000000E+00 0.  1.
          4    1    3    3  501    0 -0.11565840747E+03  0.39723235188E+03  0.24976801787E+03  0.48327473692E+03  0.00000000000E+00 0.  1.
         13    1    1    2    0    0  0.91095197023E+02 -0.33682416084E+02 -0.29881723485E+02  0.10161578931E+03  0.10566000000E+00 0. -1.
<mgrwt>
<rscale>  1 0.55307368E+03</rscale>
<asrwt>0</asrwt>
<pdfrwt beam="1">  1       21 0.73681846E-01 0.98765095E+03</pdfrwt>
<pdfrwt beam="2">  1        4 0.94792340E-01 0.98765095E+03</pdfrwt>
<totfact> 0.60037897E+01</totfact>
</mgrwt>
</event>
<event>
 6    1  0.1353269E-005  0.1026413E+04  0.7818608E-02  0.9723641E-01
          4   -1    0    0  502    0 -0.00000000000E+00  0.00000000000E+00  0.10514209857E+04  0.10514209857E+04  0.00000000000E+00 0.  1.
         21   -1    0    0  501  502  0.00000000000E+00 -0.00000000000E+00 -0.40998866763E+03  0.40998866763E+03  0.00000000000E+00 0.  1.
    9000010    2    1    2  501    0 -0.82524025155E+02  0.20105934467E+03  0.32329810849E+03  0.10761247441E+04  0.10031389351E+04 0.  0.
        -13    1    3    3    0    0  0.35278075648E+03  0.40366415153E+03  0.24582359452E+03  0.58976966704E+03  0.10566000000E+00 0.  1.
          4    1    3    3  501    0 -0.43530478164E+03 -0.20260480686E+03  0.77474513977E+02  0.48635507707E+03  0.00000000000E+00 0.  1.
         13    1    1    2    0    0  0.82524025155E+02 -0.20105934467E+03  0.31813420961E+03  0.38528490925E+03  0.10566000000E+00 0. -1.
<mgrwt>
<rscale>  1 0.69626500E+03</rscale>
<asrwt>0</asrwt>
<pdfrwt beam="2">  1       21 0.63075180E-01 0.10264126E+04</pdfrwt>
<pdfrwt beam="1">  1        4 0.16175707E+00 0.10264126E+04</pdfrwt>
<totfact> 0.21851328E+01</totfact>
</mgrwt>
</event>
<event>
 6    1  0.1353269E-005  0.1078493E+04  0.7818608E-02  0.9463190E-01
          4   -1    0    0  502    0 -0.00000000000E+00  0.00000000000E+00  0.20116415954E+04  0.20116415954E+04  0.00000000000E+00 0.  1.
         21   -1    0    0  501  502  0.00000000000E+00 -0.00000000000E+00 -0.30967360957E+03  0.30967360957E+03  0.00000000000E+00 0.  1.
    9000010    2    1    2  501    0  0.29656700620E+02  0.45684393106E+03  0.93139417039E+03  0.14250061548E+04  0.97650475845E+03 0.  0.
        -13    1    3    3    0    0 -0.31321955086E+03  0.47459726212E+03  0.17600770656E+03  0.59525437603E+03  0.10566000000E+00 0.  1.
          4    1    3    3  501    0  0.34287625148E+03 -0.17753331057E+02  0.75538646383E+03  0.82975177875E+03  0.00000000000E+00 0.  1.
         13    1    1    2    0    0 -0.29656700620E+02 -0.45684393106E+03  0.77057381542E+03  0.89630905017E+03  0.10566000000E+00 0. -1.
<mgrwt>
<rscale>  1 0.87052911E+03</rscale>
<asrwt>0</asrwt>
<pdfrwt beam="2">  1       21 0.47642095E-01 0.10784931E+04</pdfrwt>
<pdfrwt beam="1">  1        4 0.30948331E+00 0.10784931E+04</pdfrwt>
<totfact> 0.44829663E+00</totfact>
</mgrwt>
</event>
<event>
 6    1  0.1353269E-005  0.1157933E+04  0.7818608E-02  0.9348339E-01
         21   -1    0    0  501  502  0.00000000000E+00  0.00000000000E+00  0.10617363847E+04  0.10617363847E+04  0.00000000000E+00 0.  1.
          4   -1    0    0  502    0 -0.00000000000E+00 -0.00000000000E+00 -0.69581718992E+03  0.69581718992E+03  0.00000000000E+00 0.  1.
    9000010    2    1    2  501    0 -0.81186198628E+02 -0.55148992923E+03  0.19293879777E+03  0.11738973661E+04  0.10149272415E+04 0.  0.
        -13    1    3    3    0    0 -0.54511959328E+03 -0.30889801064E+03  0.17293283825E+03  0.64998394570E+03  0.10566000000E+00 0.  1.
          4    1    3    3  501    0  0.46393339465E+03 -0.24259191859E+03  0.20005959516E+02  0.52391342038E+03  0.00000000000E+00 0.  1.
         13    1    1    2    0    0  0.81186198628E+02  0.55148992923E+03  0.17298039706E+03  0.58365620859E+03  0.10566000000E+00 0. -1.
<mgrwt>
<rscale>  1 0.96451955E+03</rscale>
<asrwt>0</asrwt>
<pdfrwt beam="1">  1       21 0.16334406E+00 0.11579334E+04</pdfrwt>
<pdfrwt beam="2">  1        4 0.10704880E+00 0.11579334E+04</pdfrwt>
<totfact> 0.57395626E+00</totfact>
</mgrwt>
</event>
<event>
 6    1  0.1353269E-005  0.1003370E+04  0.7818608E-02  0.9614171E-01
          4   -1    0    0  502    0 -0.00000000000E+00  0.00000000000E+00  0.56891134533E+03  0.56891134533E+03  0.00000000000E+00 0.  1.
         21   -1    0    0  501  502  0.00000000000E+00 -0.00000000000E+00 -0.91705786953E+03  0.91705786953E+03  0.00000000000E+00 0.  1.
    9000010    2    1    2  501    0 -0.32917856795E+03 -0.70614769930E+02 -0.49480822785E+03  0.11187436142E+04  0.94520215644E+03 0.  0.
        -13    1    3    3    0    0  0.16421052067E+03  0.29162583404E+03 -0.48599639109E+01  0.33471533068E+03  0.10566000000E+00 0.  1.
          4    1    3    3  501    0 -0.49338908863E+03 -0.36224060397E+03 -0.48994826393E+03  0.78402828347E+03  0.00000000000E+00 0.  1.
         13    1    1    2    0    0  0.32917856795E+03  0.70614769930E+02  0.14666170365E+03  0.36722560070E+03  0.10566000000E+00 0. -1.
<mgrwt>
<rscale>  1 0.76365332E+03</rscale>
<asrwt>0</asrwt>
<pdfrwt beam="2">  1       21 0.14108583E+00 0.10033704E+04</pdfrwt>
<pdfrwt beam="1">  1        4 0.87524822E-01 0.10033704E+04</pdfrwt>
<totfact> 0.14283408E+01</totfact>
</mgrwt>
</event>
<event>
 6    1  0.1353269E-005  0.9698116E+03  0.7818608E-02  0.9802918E-01
          4   -1    0    0  502    0 -0.00000000000E+00  0.00000000000E+00  0.79299365480E+03  0.79299365480E+03  0.00000000000E+00 0.  1.
         21   -1    0    0  501  502  0.00000000000E+00 -0.00000000000E+00 -0.43177534450E+03  0.43177534450E+03  0.00000000000E+00 0.  1.
    9000010    2    1    2  501    0  0.35564757694E+02 -0.19497828115E+03  0.32820919737E+03  0.10238436529E+04  0.94934354494E+03 0.  0.
        -13    1    3    3    0    0  0.42461955811E+03 -0.19598337220E+03  0.41497216023E+03  0.62523048249E+03  0.10566000000E+00 0.  1.
          4    1    3    3  501    0 -0.38905480042E+03  0.10050910556E+01 -0.86762962854E+02  0.39861317045E+03  0.00000000000E+00 0.  1.
         13    1    1    2    0    0 -0.35564757694E+02  0.19497828115E+03  0.33009112922E+02  0.20092534636E+03  0.10566000000E+00 0. -1.
<mgrwt>
<rscale>  1 0.65206208E+03</rscale>
<asrwt>0</asrwt>
<pdfrwt beam="2">  1       21 0.66426976E-01 0.96981160E+03</pdfrwt>
<pdfrwt beam="1">  1        4 0.12199902E+00 0.96981160E+03</pdfrwt>
<totfact> 0.41086240E+01</totfact>
</mgrwt>
</event>
<event>
 6    1  0.1353269E-005  0.8437523E+03  0.7818608E-02  0.9750959E-01
         21   -1    0    0  501  502  0.00000000000E+00  0.00000000000E+00  0.17207345867E+04  0.17207345867E+04  0.00000000000E+00 0.  1.
          4   -1    0    0  502    0 -0.00000000000E+00 -0.00000000000E+00 -0.21186118127E+03  0.21186118127E+03  0.00000000000E+00 0.  1.
    9000010    2    1    2  501    0  0.11521146295E+03 -0.33816571790E+03  0.96462829251E+03  0.12815715840E+04  0.76438749882E+03 0.  0.
        -13    1    3    3    0    0  0.17615301687E+03  0.20803338590E+02 -0.65425872395E+02  0.18905877444E+03  0.10566000000E+00 0.  1.
          4    1    3    3  501    0 -0.60941553923E+02 -0.35896905649E+03  0.10300541649E+04  0.10925128096E+04  0.00000000000E+00 0.  1.
         13    1    1    2    0    0 -0.11521146295E+03  0.33816571790E+03  0.54424511287E+03  0.65102418388E+03  0.10566000000E+00 0. -1.
<mgrwt>
<rscale>  1 0.68062090E+03</rscale>
<asrwt>0</asrwt>
<pdfrwt beam="1">  1       21 0.26472839E+00 0.84375232E+03</pdfrwt>
<pdfrwt beam="2">  1        4 0.32594029E-01 0.84375232E+03</pdfrwt>
<totfact> 0.16597442E+01</totfact>
</mgrwt>
</event>
<event>
 6    1  0.1353269E-005  0.1098501E+04  0.7818608E-02  0.9712281E-01
          4   -1    0    0  502    0 -0.00000000000E+00  0.00000000000E+00  0.33365355130E+03  0.33365355130E+03  0.00000000000E+00 0.  1.
         21   -1    0    0  501  502  0.00000000000E+00 -0.00000000000E+00 -0.12607180192E+04  0.12607180192E+04  0.00000000000E+00 0.  1.
    9000010    2    1    2  501    0  0.36903758317E+02  0.18041789066E+03 -0.87089474725E+03  0.14018422186E+04  0.10829549587E+04 0.  0.
        -13    1    3    3    0    0  0.15363798058E+02 -0.18311134278E+03  0.19947899724E+03  0.27121521279E+03  0.10566000000E+00 0.  1.
          4    1    3    3  501    0  0.21539960259E+02  0.36352923344E+03 -0.10703737445E+04  0.11306270058E+04  0.00000000000E+00 0.  1.
         13    1    1    2    0    0 -0.36903758317E+02 -0.18041789066E+03 -0.56169720652E+02  0.19252935187E+03  0.10566000000E+00 0. -1.
<mgrwt>
<rscale>  1 0.70290280E+03</rscale>
<asrwt>0</asrwt>
<pdfrwt beam="2">  1       21 0.19395662E+00 0.10985008E+04</pdfrwt>
<pdfrwt beam="1">  1        4 0.51331315E-01 0.10985008E+04</pdfrwt>
<totfact> 0.18358806E+01</totfact>
</mgrwt>
</event>
<event>
 6    1  0.1353269E-005  0.1007911E+04  0.7818608E-02  0.9740358E-01
          4   -1    0    0  502    0 -0.00000000000E+00  0.00000000000E+00  0.79912295358E+03  0.79912295358E+03  0.00000000000E+00 0.  1.
         21   -1    0    0  501  502  0.00000000000E+00 -0.00000000000E+00 -0.53132613682E+03  0.53132613682E+03  0.00000000000E+00 0.  1.
    9000010    2    1    2  501    0 -0.21260073745E+03 -0.43937341916E+02  0.29855266809E+02  0.10083532104E+04  0.98425367477E+03 0.  0.
        -13    1    3    3    0    0 -0.55402769047E+03 -0.25109887772E+03  0.64529261934E+01  0.60830829324E+03  0.10566000000E+00 0.  1.
          4    1    3    3  501    0  0.34142695302E+03  0.20716153581E+03  0.23402340615E+02  0.40004491712E+03  0.00000000000E+00 0.  1.
         13    1    1    2    0    0  0.21260073745E+03  0.43937341916E+02  0.23794154995E+03  0.32209588004E+03  0.10566000000E+00 0. -1.
<mgrwt>
<rscale>  1 0.68663885E+03</rscale>
<asrwt>0</asrwt>
<pdfrwt beam="2">  1       21 0.81742483E-01 0.10079111E+04</pdfrwt>
<pdfrwt beam="1">  1        4 0.12294199E+00 0.10079111E+04</pdfrwt>
<totfact> 0.24844098E+01</totfact>
</mgrwt>
</event>
<event>
 6    1  0.1353269E-005  0.1427584E+04  0.7818608E-02  0.9038866E-01
          4   -1    0    0  502    0 -0.00000000000E+00  0.00000000000E+00  0.60454804347E+03  0.60454804347E+03  0.00000000000E+00 0.  1.
         21   -1    0    0  501  502  0.00000000000E+00 -0.00000000000E+00 -0.24783405333E+04  0.24783405333E+04  0.00000000000E+00 0. -1.
    9000010    2    1    2  501    0 -0.94245926551E+03 -0.91764573687E+02 -0.74754035401E+03  0.16114627075E+04  0.10683376211E+04 0.  0.
        -13    1    3    3    0    0 -0.16055456339E+03 -0.48818794420E+03 -0.45756623482E+03  0.68809309480E+03  0.10566000000E+00 0.  1.
          4    1    3    3  501    0 -0.78190470212E+03  0.39642337052E+03 -0.28997411919E+03  0.92336961272E+03  0.00000000000E+00 0.  1.
         13    1    1    2    0    0  0.94245926551E+03  0.91764573687E+02 -0.11262521359E+04  0.14714258693E+04  0.10566000000E+00 0. -1.
<mgrwt>
<rscale>  1 0.12883360E+04</rscale>
<asrwt>0</asrwt>
<pdfrwt beam="2">  1       21 0.38128315E+00 0.14275838E+04</pdfrwt>
<pdfrwt beam="1">  1        4 0.93007393E-01 0.14275838E+04</pdfrwt>
<totfact> 0.28738913E-01</totfact>
</mgrwt>
</event>
<event>
 6    1  0.1353269E-005  0.1132199E+04  0.7818608E-02  0.9378356E-01
          4   -1    0    0  502    0 -0.00000000000E+00  0.00000000000E+00  0.57242425244E+03  0.57242425244E+03  0.00000000000E+00 0.  1.
         21   -1    0    0  501  502  0.00000000000E+00 -0.00000000000E+00 -0.12902939048E+04  0.12902939048E+04  0.00000000000E+00 0. -1.
    9000010    2    1    2  501    0  0.46700290413E+03  0.26138566457E+03 -0.69197584689E+03  0.13269153219E+04  0.99772717745E+03 0.  0.
        -13    1    3    3    0    0 -0.12412679877E+03  0.48384168635E+03 -0.33452330273E+03  0.60117891751E+03  0.10566000000E+00 0.  1.
          4    1    3    3  501    0  0.59112970291E+03 -0.22245602178E+03 -0.35745254415E+03  0.72573640436E+03  0.00000000000E+00 0.  1.
         13    1    1    2    0    0 -0.46700290413E+03 -0.26138566457E+03 -0.25893805512E+02  0.53580283542E+03  0.10566000000E+00 0. -1.
<mgrwt>
<rscale>  1 0.93878530E+03</rscale>
<asrwt>0</asrwt>
<pdfrwt beam="2">  1       21 0.19850675E+00 0.11321986E+04</pdfrwt>
<pdfrwt beam="1">  1        4 0.88065270E-01 0.11321986E+04</pdfrwt>
<totfact> 0.51022337E+00</totfact>
</mgrwt>
</event>
<event>
 6    1  0.1353269E-005  0.1133853E+04  0.7818608E-02  0.9379627E-01
          4   -1    0    0  502    0 -0.00000000000E+00  0.00000000000E+00  0.21837159344E+04  0.21837159344E+04  0.00000000000E+00 0.  1.
         21   -1    0    0  501  502  0.00000000000E+00 -0.00000000000E+00 -0.32117017281E+03  0.32117017281E+03  0.00000000000E+00 0.  1.
    9000010    2    1    2  501    0  0.29460062334E+03 -0.44107278533E+03  0.13962785617E+04  0.17986709543E+04  0.10021420313E+04 0.  0.
        -13    1    3    3    0    0  0.26200491167E+02 -0.57931034885E+03  0.13793451631E+04  0.14962887543E+04  0.10566000000E+00 0.  1.
          4    1    3    3  501    0  0.26840013217E+03  0.13823756351E+03  0.16933398543E+02  0.30238220004E+03  0.00000000000E+00 0.  1.
         13    1    1    2    0    0 -0.29460062334E+03  0.44107278533E+03  0.46626719988E+03  0.70621515283E+03  0.10566000000E+00 0. -1.
<mgrwt>
<rscale>  1 0.93771451E+03</rscale>
<asrwt>0</asrwt>
<pdfrwt beam="2">  1       21 0.49410797E-01 0.11338533E+04</pdfrwt>
<pdfrwt beam="1">  1        4 0.33595629E+00 0.11338533E+04</pdfrwt>
<totfact> 0.27996390E+00</totfact>
</mgrwt>
</event>
<event>
 6    1  0.1353269E-005  0.1135440E+04  0.7818608E-02  0.9383087E-01
         21   -1    0    0  501  502  0.00000000000E+00  0.00000000000E+00  0.58321801366E+03  0.58321801366E+03  0.00000000000E+00 0.  1.
          4   -1    0    0  502    0 -0.00000000000E+00 -0.00000000000E+00 -0.16604217561E+04  0.16604217561E+04  0.00000000000E+00 0.  1.
    9000010    2    1    2  501    0  0.52152490747E+03 -0.12315620071E+02 -0.10495821211E+03  0.11402806777E+04  0.10085057729E+04 0.  0.
        -13    1    3    3    0    0  0.66725354729E+03  0.32838956796E+03 -0.17295327358E+03  0.76353117207E+03  0.10566000000E+00 0.  1.
          4    1    3    3  501    0 -0.14572863982E+03 -0.34070518803E+03  0.67995061463E+02  0.37674950564E+03  0.00000000000E+00 0.  1.
         13    1    1    2    0    0 -0.52152490747E+03  0.12315620071E+02 -0.97224553035E+03  0.11033590921E+04  0.10566000000E+00 0. -1.
<mgrwt>
<rscale>  1 0.93480741E+03</rscale>
<asrwt>0</asrwt>
<pdfrwt beam="1">  1       21 0.89725848E-01 0.11354399E+04</pdfrwt>
<pdfrwt beam="2">  1        4 0.25544950E+00 0.11354399E+04</pdfrwt>
<totfact> 0.22792590E+00</totfact>
</mgrwt>
</event>
<event>
 6    1  0.1353269E-005  0.1003075E+04  0.7818608E-02  0.9771238E-01
          4   -1    0    0  502    0 -0.00000000000E+00  0.00000000000E+00  0.51778849669E+03  0.51778849669E+03  0.00000000000E+00 0.  1.
         21   -1    0    0  501  502  0.00000000000E+00 -0.00000000000E+00 -0.10582480702E+04  0.10582480702E+04  0.00000000000E+00 0.  1.
    9000010    2    1    2  501    0 -0.19871162540E+03 -0.65924467473E+01 -0.77570872671E+03  0.12680236684E+04  0.98317354755E+03 0.  0.
        -13    1    3    3    0    0  0.37813712009E+03  0.11606772069E+03 -0.19750040011E+03  0.44211516213E+03  0.10566000000E+00 0.  1.
          4    1    3    3  501    0 -0.57684874549E+03 -0.12266016744E+03 -0.57820832660E+03  0.82590850631E+03  0.00000000000E+00 0.  1.
         13    1    1    2    0    0  0.19871162540E+03  0.65924467473E+01  0.23524915315E+03  0.30801289851E+03  0.10566000000E+00 0. -1.
<mgrwt>
<rscale>  1 0.66929209E+03</rscale>
<asrwt>0</asrwt>
<pdfrwt beam="2">  1       21 0.16280739E+00 0.10030753E+04</pdfrwt>
<pdfrwt beam="1">  1        4 0.79659769E-01 0.10030753E+04</pdfrwt>
<totfact> 0.11895415E+01</totfact>
</mgrwt>
</event>
<event>
 6    1  0.1353269E-005  0.1032823E+04  0.7818608E-02  0.9652268E-01
          4   -1    0    0  502    0 -0.00000000000E+00  0.00000000000E+00  0.39991740494E+03  0.39991740494E+03  0.00000000000E+00 0.  1.
         21   -1    0    0  501  502  0.00000000000E+00 -0.00000000000E+00 -0.10820578447E+04  0.10820578447E+04  0.00000000000E+00 0.  1.
    9000010    2    1    2  501    0 -0.26762658220E+03  0.43666566006E+02 -0.61703745437E+03  0.12031040135E+04  0.99659083412E+03 0.  0.
        -13    1    3    3    0    0 -0.50804474814E+03  0.36747760371E+03 -0.33432397740E+03  0.71057848854E+03  0.10566000000E+00 0.  1.
          4    1    3    3  501    0  0.24041816594E+03 -0.32381103771E+03 -0.28271347697E+03  0.49252552494E+03  0.00000000000E+00 0.  1.
         13    1    1    2    0    0  0.26762658220E+03 -0.43666566006E+02 -0.65102985376E+02  0.27887123615E+03  0.10566000000E+00 0. -1.
<mgrwt>
<rscale>  1 0.73931270E+03</rscale>
<asrwt>0</asrwt>
<pdfrwt beam="2">  1       21 0.16647044E+00 0.10328233E+04</pdfrwt>
<pdfrwt beam="1">  1        4 0.61525755E-01 0.10328233E+04</pdfrwt>
<totfact> 0.19828922E+01</totfact>
</mgrwt>
</event>
<event>
 6    1  0.1353269E-005  0.1102891E+04  0.7818608E-02  0.9475684E-01
          4   -1    0    0  502    0 -0.00000000000E+00  0.00000000000E+00  0.40229824479E+04  0.40229824479E+04  0.00000000000E+00 0.  1.
         21   -1    0    0  501  502  0.00000000000E+00 -0.00000000000E+00 -0.19779412776E+03  0.19779412776E+03  0.00000000000E+00 0.  1.
    9000010    2    1    2  501    0  0.35263384960E+03  0.20850077013E+03  0.15114734724E+04  0.18710745497E+04  0.10239847214E+04 0.  0.
        -13    1    3    3    0    0 -0.92851438557E+02 -0.14207156219E+03  0.12235432558E+04  0.12352586079E+04  0.10566000000E+00 0.  1.
          4    1    3    3  501    0  0.44548528815E+03  0.35057233232E+03  0.28793021651E+03  0.63581594171E+03  0.00000000000E+00 0.  1.
         13    1    1    2    0    0 -0.35263384960E+03 -0.20850077013E+03  0.23137148478E+04  0.23497020260E+04  0.10566000000E+00 0. -1.
<mgrwt>
<rscale>  1 0.86100537E+03</rscale>
<asrwt>0</asrwt>
<pdfrwt beam="2">  1       21 0.30429869E-01 0.11028907E+04</pdfrwt>
<pdfrwt beam="1">  1        4 0.61892031E+00 0.11028907E+04</pdfrwt>
<totfact> 0.49183890E-02</totfact>
</mgrwt>
</event>
<event>
 6    1  0.1353269E-005  0.1008733E+04  0.7818608E-02  0.9880217E-01
          4   -1    0    0  502    0 -0.00000000000E+00  0.00000000000E+00  0.23163807157E+03  0.23163807157E+03  0.00000000000E+00 0.  1.
         21   -1    0    0  501  502  0.00000000000E+00 -0.00000000000E+00 -0.14166063207E+04  0.14166063207E+04  0.00000000000E+00 0.  1.
    9000010    2    1    2  501    0 -0.12205267296E+03  0.62086403565E+02 -0.10430796097E+04  0.14510541957E+04  0.99939563239E+03 0.  0.
        -13    1    3    3    0    0 -0.28681921211E+03 -0.84720888013E+02  0.77502294867E+02  0.30894903492E+03  0.10566000000E+00 0.  1.
          4    1    3    3  501    0  0.16476653916E+03  0.14680729158E+03 -0.11205819046E+04  0.11421051608E+04  0.00000000000E+00 0.  1.
         13    1    1    2    0    0  0.12205267296E+03 -0.62086403565E+02 -0.14188863942E+03  0.19719019662E+03  0.10566000000E+00 0. -1.
<mgrwt>
<rscale>  1 0.61229700E+03</rscale>
<asrwt>0</asrwt>
<pdfrwt beam="2">  1       21 0.21793943E+00 0.10087335E+04</pdfrwt>
<pdfrwt beam="1">  1        4 0.35636628E-01 0.10087335E+04</pdfrwt>
<totfact> 0.27038190E+01</totfact>
</mgrwt>
</event>
<event>
 6    1  0.1353269E-005  0.9983225E+03  0.7818608E-02  0.9777988E-01
         21   -1    0    0  501  502  0.00000000000E+00  0.00000000000E+00  0.55975310755E+03  0.55975310755E+03  0.00000000000E+00 0.  1.
          4   -1    0    0  502    0 -0.00000000000E+00 -0.00000000000E+00 -0.65526495037E+03  0.65526495037E+03  0.00000000000E+00 0.  1.
    9000010    2    1    2  501    0  0.18869579850E+03  0.57385376487E+02 -0.57872583723E+01  0.99833926794E+03  0.97864631801E+03 0.  0.
        -13    1    3    3    0    0  0.56654151384E+03 -0.37204169400E+02  0.13601139965E+03  0.58382578662E+03  0.10566000000E+00 0.  1.
          4    1    3    3  501    0 -0.37784571533E+03  0.94589545887E+02 -0.14179865802E+03  0.41451348133E+03  0.00000000000E+00 0.  1.
         13    1    1    2    0    0 -0.18869579850E+03 -0.57385376487E+02 -0.89724584448E+02  0.21667878997E+03  0.10566000000E+00 0. -1.
<mgrwt>
<rscale>  1 0.66557304E+03</rscale>
<asrwt>0</asrwt>
<pdfrwt beam="1">  1       21 0.86115863E-01 0.99832249E+03</pdfrwt>
<pdfrwt beam="2">  1        4 0.10080999E+00 0.99832249E+03</pdfrwt>
<totfact> 0.35874889E+01</totfact>
</mgrwt>
</event>
<event>
 6    1  0.1353269E-005  0.1013134E+04  0.7818608E-02  0.1004895E+00
         21   -1    0    0  501  502  0.00000000000E+00  0.00000000000E+00  0.14537524694E+03  0.14537524694E+03  0.00000000000E+00 0.  1.
          4   -1    0    0  502    0 -0.00000000000E+00 -0.00000000000E+00 -0.21636653841E+04  0.21636653841E+04  0.00000000000E+00 0.  1.
    9000010    2    1    2  501    0  0.78610534602E+02 -0.88169050410E+01 -0.16818900798E+04  0.19634652214E+04  0.10100416236E+04 0.  0.
        -13    1    3    3    0    0 -0.13156105386E+03 -0.44116337039E+02 -0.17376455656E+04  0.17431771811E+04  0.10566000000E+00 0.  1.
          4    1    3    3  501    0  0.21017158847E+03  0.35299431998E+02  0.55755485802E+02  0.22028804029E+03  0.00000000000E+00 0.  1.
         13    1    1    2    0    0 -0.78610534602E+02  0.88169050410E+01 -0.33640005742E+03  0.34557540966E+03  0.10566000000E+00 0. -1.
<mgrwt>
<rscale>  1 0.53554905E+03</rscale>
<asrwt>0</asrwt>
<pdfrwt beam="1">  1       21 0.22365422E-01 0.10131345E+04</pdfrwt>
<pdfrwt beam="2">  1        4 0.33287161E+00 0.10131345E+04</pdfrwt>
<totfact> 0.15113983E+01</totfact>
</mgrwt>
</event>
<event>
 6    1  0.1353269E-005  0.1024028E+04  0.7818608E-02  0.9737210E-01
          4   -1    0    0  502    0 -0.00000000000E+00  0.00000000000E+00  0.10054883938E+04  0.10054883938E+04  0.00000000000E+00 0.  1.
         21   -1    0    0  501  502  0.00000000000E+00 -0.00000000000E+00 -0.42716012374E+03  0.42716012374E+03  0.00000000000E+00 0.  1.
    9000010    2    1    2  501    0  0.16493331242E+03 -0.12866357465E+03  0.26820037092E+03  0.10585674595E+04  0.10024351921E+04 0.  0.
        -13    1    3    3    0    0 -0.18514931057E+03 -0.39805132238E+03 -0.13623280865E+03  0.45965695009E+03  0.10566000000E+00 0.  1.
          4    1    3    3  501    0  0.35008262299E+03  0.26938774774E+03  0.40443317957E+03  0.59891050941E+03  0.00000000000E+00 0.  1.
         13    1    1    2    0    0 -0.16493331242E+03  0.12866357465E+03  0.31012789913E+03  0.37408105802E+03  0.10566000000E+00 0. -1.
<mgrwt>
<rscale>  1 0.68843868E+03</rscale>
<asrwt>0</asrwt>
<pdfrwt beam="2">  1       21 0.65716942E-01 0.10240281E+04</pdfrwt>
<pdfrwt beam="1">  1        4 0.15469052E+00 0.10240281E+04</pdfrwt>
<totfact> 0.22521036E+01</totfact>
</mgrwt>
</event>
<event>
 6    1  0.1353269E-005  0.1072656E+04  0.7818608E-02  0.1052940E+00
         21   -1    0    0  501  502  0.00000000000E+00  0.00000000000E+00  0.18506964086E+03  0.18506964086E+03  0.00000000000E+00 0.  1.
          4   -1    0    0  502    0 -0.00000000000E+00 -0.00000000000E+00 -0.16334522000E+04  0.16334522000E+04  0.00000000000E+00 0.  1.
    9000010    2    1    2  501    0  0.88563164553E+01  0.13274812877E+02 -0.13775804420E+04  0.17459435662E+04  0.10725373686E+04 0.  0.
        -13    1    3    3    0    0  0.46069746912E+03  0.19920140331E+03 -0.36168920171E+03  0.61866181952E+03  0.10566000000E+00 0.  1.
          4    1    3    3  501    0 -0.45184115267E+03 -0.18592659043E+03 -0.10158912403E+04  0.11272817467E+04  0.00000000000E+00 0.  1.
         13    1    1    2    0    0 -0.88563164553E+01 -0.13274812877E+02 -0.70802117173E+02  0.72578274699E+02  0.10566000000E+00 0. -1.
<mgrwt>
<rscale>  1 0.37462071E+03</rscale>
<asrwt>0</asrwt>
<pdfrwt beam="1">  1       21 0.28472254E-01 0.10726561E+04</pdfrwt>
<pdfrwt beam="2">  1        4 0.25130033E+00 0.10726561E+04</pdfrwt>
<totfact> 0.29893719E+01</totfact>
</mgrwt>
</event>
<event>
 6    1  0.1353269E-005  0.1012892E+04  0.7818608E-02  0.9772378E-01
          4   -1    0    0  502    0 -0.00000000000E+00  0.00000000000E+00  0.68875108551E+03  0.68875108551E+03  0.00000000000E+00 0.  1.
         21   -1    0    0  501  502  0.00000000000E+00 -0.00000000000E+00 -0.55577187398E+03  0.55577187398E+03  0.00000000000E+00 0.  1.
    9000010    2    1    2  501    0  0.70778486478E+02  0.17887631856E+03  0.39707906143E+01  0.10128993093E+04  0.99445608860E+03 0.  0.
        -13    1    3    3    0    0 -0.13866891430E+03  0.96222935236E+02 -0.46390842769E+03  0.49365875005E+03  0.10566000000E+00 0.  1.
          4    1    3    3  501    0  0.20944740078E+03  0.82653383322E+02  0.46787921830E+03  0.51924055926E+03  0.00000000000E+00 0.  1.
         13    1    1    2    0    0 -0.70778486478E+02 -0.17887631856E+03  0.12900842092E+03  0.23162365018E+03  0.10566000000E+00 0. -1.
<mgrwt>
<rscale>  1 0.66866212E+03</rscale>
<asrwt>0</asrwt>
<pdfrwt beam="2">  1       21 0.85503365E-01 0.10128915E+04</pdfrwt>
<pdfrwt beam="1">  1        4 0.10596171E+00 0.10128915E+04</pdfrwt>
<totfact> 0.32280632E+01</totfact>
</mgrwt>
</event>
<event>
 6    1  0.1353269E-005  0.1035457E+04  0.7818608E-02  0.9642762E-01
          4   -1    0    0  502    0 -0.00000000000E+00  0.00000000000E+00  0.34170909449E+03  0.34170909449E+03  0.00000000000E+00 0.  1.
         21   -1    0    0  501  502  0.00000000000E+00 -0.00000000000E+00 -0.13411479440E+04  0.13411479440E+04  0.00000000000E+00 0.  1.
    9000010    2    1    2  501    0  0.20331434310E+03  0.18947479900E+03 -0.94035933774E+03  0.13987306204E+04  0.99746390555E+03 0.  0.
        -13    1    3    3    0    0 -0.24584362600E+03 -0.24235207562E+03 -0.11349375572E+03  0.36339298391E+03  0.10566000000E+00 0.  1.
          4    1    3    3  501    0  0.44915796911E+03  0.43182687462E+03 -0.82686558203E+03  0.10353376365E+04  0.00000000000E+00 0.  1.
         13    1    1    2    0    0 -0.20331434310E+03 -0.18947479900E+03 -0.59079511790E+02  0.28412641807E+03  0.10566000000E+00 0. -1.
<mgrwt>
<rscale>  1 0.74529396E+03</rscale>
<asrwt>0</asrwt>
<pdfrwt beam="2">  1       21 0.20633045E+00 0.10354572E+04</pdfrwt>
<pdfrwt beam="1">  1        4 0.52570631E-01 0.10354572E+04</pdfrwt>
<totfact> 0.14445474E+01</totfact>
</mgrwt>
</event>
<event>
 6    1  0.1353269E-005  0.1019438E+04  0.7818608E-02  0.1003686E+00
          4   -1    0    0  502    0 -0.00000000000E+00  0.00000000000E+00  0.23657324033E+04  0.23657324033E+04  0.00000000000E+00 0.  1.
         21   -1    0    0  501  502  0.00000000000E+00 -0.00000000000E+00 -0.14455430368E+03  0.14455430368E+03  0.00000000000E+00 0. -1.
    9000010    2    1    2  501    0  0.80400190203E+02  0.61534478763E+01  0.22032726966E+04  0.24276872510E+04  0.10162444378E+04 0.  0.
        -13    1    3    3    0    0 -0.38389496480E+03 -0.20560849411E+03  0.14783800431E+04  0.15411871269E+04  0.10566000000E+00 0.  1.
          4    1    3    3  501    0  0.46429515500E+03  0.21176194199E+03  0.72489265347E+03  0.88650012414E+03  0.00000000000E+00 0.  1.
         13    1    1    2    0    0 -0.80400190203E+02 -0.61534478763E+01  0.17905402970E+02  0.82599455960E+02  0.10566000000E+00 0. -1.
<mgrwt>
<rscale>  1 0.54063262E+03</rscale>
<asrwt>0</asrwt>
<pdfrwt beam="2">  1       21 0.22239125E-01 0.10194385E+04</pdfrwt>
<pdfrwt beam="1">  1        4 0.36395880E+00 0.10194385E+04</pdfrwt>
<totfact> 0.96129283E+00</totfact>
</mgrwt>
</event>
<event>
 6    1  0.1353269E-005  0.1109603E+04  0.7818608E-02  0.9436910E-01
         21   -1    0    0  501  502  0.00000000000E+00  0.00000000000E+00  0.11798159603E+04  0.11798159603E+04  0.00000000000E+00 0. -1.
          4   -1    0    0  502    0 -0.00000000000E+00 -0.00000000000E+00 -0.52293735832E+03  0.52293735832E+03  0.00000000000E+00 0.  1.
    9000010    2    1    2  501    0  0.41125098399E+03  0.20900294030E+03  0.45900068793E+03  0.12007918849E+04  0.10091629791E+04 0.  0.
        -13    1    3    3    0    0  0.85858884056E+01  0.63385608114E+02  0.70438069679E+03  0.70727903261E+03  0.10566000000E+00 0.  1.
          4    1    3    3  501    0  0.40266509558E+03  0.14561733218E+03 -0.24538000886E+03  0.49351285230E+03  0.00000000000E+00 0.  1.
         13    1    1    2    0    0 -0.41125098399E+03 -0.20900294030E+03  0.19787791403E+03  0.50196143369E+03  0.10566000000E+00 0. -1.
<mgrwt>
<rscale>  1 0.89099398E+03</rscale>
<asrwt>0</asrwt>
<pdfrwt beam="1">  1       21 0.18151015E+00 0.11096033E+04</pdfrwt>
<pdfrwt beam="2">  1        4 0.80451901E-01 0.11096033E+04</pdfrwt>
<totfact> 0.83294924E+00</totfact>
</mgrwt>
</event>
<event>
 6    1  0.1353269E-005  0.9884374E+03  0.7818608E-02  0.9936094E-01
          4   -1    0    0  502    0 -0.00000000000E+00  0.00000000000E+00  0.51994695616E+03  0.51994695616E+03  0.00000000000E+00 0.  1.
         21   -1    0    0  501  502  0.00000000000E+00 -0.00000000000E+00 -0.70131581221E+03  0.70131581221E+03  0.00000000000E+00 0.  1.
    9000010    2    1    2  501    0  0.12151635421E+03  0.54160666029E+01  0.16984716787E+02  0.98858335557E+03  0.98092457008E+03 0.  0.
        -13    1    3    3    0    0  0.26401106070E+03  0.44891905998E+03  0.38797189597E+02  0.52224074494E+03  0.10566000000E+00 0.  1.
          4    1    3    3  501    0 -0.14249470650E+03 -0.44350299338E+03 -0.21812472809E+02  0.46634261063E+03  0.00000000000E+00 0.  1.
         13    1    1    2    0    0 -0.12151635421E+03 -0.54160666029E+01 -0.19835357284E+03  0.23267941280E+03  0.10566000000E+00 0. -1.
<mgrwt>
<rscale>  1 0.58543462E+03</rscale>
<asrwt>0</asrwt>
<pdfrwt beam="2">  1       21 0.10789474E+00 0.98843744E+03</pdfrwt>
<pdfrwt beam="1">  1        4 0.79991840E-01 0.98843744E+03</pdfrwt>
<totfact> 0.35562771E+01</totfact>
</mgrwt>
</event>
<event>
 6    1  0.1353269E-005  0.9953382E+03  0.7818608E-02  0.1013169E+00
         21   -1    0    0  501  502  0.00000000000E+00  0.00000000000E+00  0.36215158784E+03  0.36215158784E+03  0.00000000000E+00 0.  1.
          4   -1    0    0  502    0 -0.00000000000E+00 -0.00000000000E+00 -0.82911959705E+03  0.82911959705E+03  0.00000000000E+00 0.  1.
    9000010    2    1    2  501    0  0.64277672412E+02 -0.62319953762E+01 -0.34531023996E+03  0.10535356378E+04  0.99324101881E+03 0.  0.
        -13    1    3    3    0    0  0.42654150367E+03 -0.97491473982E+02  0.12297185628E+03  0.45449348780E+03  0.10566000000E+00 0.  1.
          4    1    3    3  501    0 -0.36226383125E+03  0.91259478606E+02 -0.46828209625E+03  0.59904215005E+03  0.00000000000E+00 0.  1.
         13    1    1    2    0    0 -0.64277672412E+02  0.62319953762E+01 -0.12165776925E+03  0.13773554705E+03  0.10566000000E+00 0. -1.
<mgrwt>
<rscale>  1 0.50234388E+03</rscale>
<asrwt>0</asrwt>
<pdfrwt beam="1">  1       21 0.55715629E-01 0.99533822E+03</pdfrwt>
<pdfrwt beam="2">  1        4 0.12755686E+00 0.99533822E+03</pdfrwt>
<totfact> 0.54218633E+01</totfact>
</mgrwt>
</event>
<event>
 6    1  0.1353269E-005  0.1035648E+04  0.7818608E-02  0.9662520E-01
          4   -1    0    0  502    0 -0.00000000000E+00  0.00000000000E+00  0.38088308112E+03  0.38088308112E+03  0.00000000000E+00 0.  1.
         21   -1    0    0  501  502  0.00000000000E+00 -0.00000000000E+00 -0.11091152515E+04  0.11091152515E+04  0.00000000000E+00 0.  1.
    9000010    2    1    2  501    0 -0.11453407693E+03  0.23317130057E+03 -0.53109928618E+03  0.11638874690E+04  0.10025371208E+04 0.  0.
        -13    1    3    3    0    0 -0.54879002446E+03  0.13423571620E+02 -0.28314281200E+03  0.61767349496E+03  0.10566000000E+00 0.  1.
          4    1    3    3  501    0  0.43425594753E+03  0.21974772895E+03 -0.24795647418E+03  0.54621397404E+03  0.00000000000E+00 0.  1.
         13    1    1    2    0    0  0.11453407693E+03 -0.23317130057E+03 -0.19713288420E+03  0.32611086364E+03  0.10566000000E+00 0. -1.
<mgrwt>
<rscale>  1 0.73292875E+03</rscale>
<asrwt>0</asrwt>
<pdfrwt beam="2">  1       21 0.17063312E+00 0.10356484E+04</pdfrwt>
<pdfrwt beam="1">  1        4 0.58597397E-01 0.10356484E+04</pdfrwt>
<totfact> 0.20511442E+01</totfact>
</mgrwt>
</event>
<event>
 6    1  0.1353269E-005  0.1008957E+04  0.7818608E-02  0.9891177E-01
         21   -1    0    0  501  502  0.00000000000E+00  0.00000000000E+00  0.38486935539E+03  0.38486935539E+03  0.00000000000E+00 0.  1.
          4   -1    0    0  502    0 -0.00000000000E+00 -0.00000000000E+00 -0.11148241015E+04  0.11148241015E+04  0.00000000000E+00 0.  1.
    9000010    2    1    2  501    0 -0.13115885627E+03  0.15664301766E+02 -0.30404875363E+03  0.10537742472E+04  0.10002732145E+04 0.  0.
        -13    1    3    3    0    0 -0.41834509570E+03  0.31713065531E+03 -0.35584754872E+03  0.63420182965E+03  0.10566000000E+00 0.  1.
          4    1    3    3  501    0  0.28718623943E+03 -0.30146635355E+03  0.51798795091E+02  0.41957241760E+03  0.00000000000E+00 0.  1.
         13    1    1    2    0    0  0.13115885627E+03 -0.15664301766E+02 -0.42590599252E+03  0.44591920967E+03  0.10566000000E+00 0. -1.
<mgrwt>
<rscale>  1 0.60690796E+03</rscale>
<asrwt>0</asrwt>
<pdfrwt beam="1">  1       21 0.59210671E-01 0.10089571E+04</pdfrwt>
<pdfrwt beam="2">  1        4 0.17151140E+00 0.10089571E+04</pdfrwt>
<totfact> 0.21406543E+01</totfact>
</mgrwt>
</event>
<event>
 6    1  0.1353269E-005  0.1012845E+04  0.7818608E-02  0.9938668E-01
         21   -1    0    0  501  502  0.00000000000E+00  0.00000000000E+00  0.29371984129E+03  0.29371984129E+03  0.00000000000E+00 0.  1.
          4   -1    0    0  502    0 -0.00000000000E+00 -0.00000000000E+00 -0.12645439214E+04  0.12645439214E+04  0.00000000000E+00 0.  1.
    9000010    2    1    2  501    0 -0.81550722968E+02  0.76956180626E+02 -0.61442119114E+03  0.11846385433E+04  0.10066192448E+04 0.  0.
        -13    1    3    3    0    0 -0.50683572511E+03  0.20790567426E+03 -0.22115841297E+03  0.59077768783E+03  0.10566000000E+00 0.  1.
          4    1    3    3  501    0  0.42528500214E+03 -0.13094949364E+03 -0.39326277816E+03  0.59386085544E+03  0.00000000000E+00 0.  1.
         13    1    1    2    0    0  0.81550722968E+02 -0.76956180626E+02 -0.35640288893E+03  0.37362521937E+03  0.10566000000E+00 0. -1.
<mgrwt>
<rscale>  1 0.58423315E+03</rscale>
<asrwt>0</asrwt>
<pdfrwt beam="1">  1       21 0.45187668E-01 0.10128450E+04</pdfrwt>
<pdfrwt beam="2">  1        4 0.19454522E+00 0.10128450E+04</pdfrwt>
<totfact> 0.26685160E+01</totfact>
</mgrwt>
</event>
<event>
 6    1  0.1353269E-005  0.1003921E+04  0.7818608E-02  0.9835412E-01
         21   -1    0    0  501  502  0.00000000000E+00  0.00000000000E+00  0.56422730283E+03  0.56422730283E+03  0.00000000000E+00 0.  1.
          4   -1    0    0  502    0 -0.00000000000E+00 -0.00000000000E+00 -0.65136411341E+03  0.65136411341E+03  0.00000000000E+00 0.  1.
    9000010    2    1    2  501    0 -0.10531284521E+03  0.12132257405E+03  0.48851727615E+02  0.10051089799E+04  0.99098315210E+03 0.  0.
        -13    1    3    3    0    0  0.26344830146E+03  0.22264130279E+03 -0.32238510821E+03  0.47212956528E+03  0.10566000000E+00 0.  1.
          4    1    3    3  501    0 -0.36876114667E+03 -0.10131872874E+03  0.37123683583E+03  0.53297941458E+03  0.00000000000E+00 0.  1.
         13    1    1    2    0    0  0.10531284521E+03 -0.12132257405E+03 -0.13598853820E+03  0.21048243639E+03  0.10566000000E+00 0. -1.
<mgrwt>
<rscale>  1 0.63496258E+03</rscale>
<asrwt>0</asrwt>
<pdfrwt beam="1">  1       21 0.86804200E-01 0.10039211E+04</pdfrwt>
<pdfrwt beam="2">  1        4 0.10020986E+00 0.10039211E+04</pdfrwt>
<totfact> 0.35692932E+01</totfact>
</mgrwt>
</event>
<event>
 6    1  0.1353269E-005  0.1057608E+04  0.7818608E-02  0.9613220E-01
         21   -1    0    0  501  502  0.00000000000E+00  0.00000000000E+00  0.20820313638E+03  0.20820313638E+03  0.00000000000E+00 0.  1.
          4   -1    0    0  502    0 -0.00000000000E+00 -0.00000000000E+00 -0.22336381311E+04  0.22336381311E+04  0.00000000000E+00 0.  1.
    9000010    2    1    2  501    0  0.25275919071E+03  0.13891446342E+03 -0.17390366971E+04  0.20353828653E+04  0.10175216646E+04 0.  0.
        -13    1    3    3    0    0 -0.58304711234E+02 -0.38376112833E+03 -0.36533672611E+03  0.53305063322E+03  0.10566000000E+00 0.  1.
          4    1    3    3  501    0  0.31106390194E+03  0.52267559175E+03 -0.13736999710E+04  0.15023322321E+04  0.00000000000E+00 0.  1.
         13    1    1    2    0    0 -0.25275919071E+03 -0.13891446342E+03 -0.28639829762E+03  0.40645840215E+03  0.10566000000E+00 0. -1.
<mgrwt>
<rscale>  1 0.76427364E+03</rscale>
<asrwt>0</asrwt>
<pdfrwt beam="1">  1       21 0.32031253E-01 0.10576080E+04</pdfrwt>
<pdfrwt beam="2">  1        4 0.34363663E+00 0.10576080E+04</pdfrwt>
<totfact> 0.62669098E+00</totfact>
</mgrwt>
</event>
<event>
 6    1  0.1353269E-005  0.1045866E+04  0.7818608E-02  0.9632128E-01
         21   -1    0    0  501  502  0.00000000000E+00  0.00000000000E+00  0.12460518484E+04  0.12460518484E+04  0.00000000000E+00 0.  1.
          4   -1    0    0  502    0 -0.00000000000E+00 -0.00000000000E+00 -0.54893141735E+03  0.54893141735E+03  0.00000000000E+00 0.  1.
    9000010    2    1    2  501    0  0.16502448941E+03  0.22573646952E+03  0.95375286217E+03  0.14154437400E+04  0.10077928474E+04 0.  0.
        -13    1    3    3    0    0  0.26755658255E+03  0.24707760553E+03  0.11427443236E+04  0.11993741986E+04  0.10566000000E+00 0.  1.
          4    1    3    3  501    0 -0.10253209313E+03 -0.21341136012E+02 -0.18899146144E+03  0.21606954136E+03  0.00000000000E+00 0.  1.
         13    1    1    2    0    0 -0.16502448941E+03 -0.22573646952E+03 -0.25663243110E+03  0.37953952579E+03  0.10566000000E+00 0. -1.
<mgrwt>
<rscale>  1 0.75205756E+03</rscale>
<asrwt>0</asrwt>
<pdfrwt beam="1">  1       21 0.19170028E+00 0.10458664E+04</pdfrwt>
<pdfrwt beam="2">  1        4 0.84450988E-01 0.10458664E+04</pdfrwt>
<totfact> 0.63482535E+00</totfact>
</mgrwt>
</event>
<event>
 6    1  0.1353269E-005  0.1019335E+04  0.7818608E-02  0.9668222E-01
         21   -1    0    0  501  502  0.00000000000E+00  0.00000000000E+00  0.50375832895E+03  0.50375832895E+03  0.00000000000E+00 0. -1.
          4   -1    0    0  502    0 -0.00000000000E+00 -0.00000000000E+00 -0.92134152374E+03  0.92134152374E+03  0.00000000000E+00 0.  1.
    9000010    2    1    2  501    0 -0.30516720336E+02  0.26550972459E+03 -0.51322201546E+03  0.11412451729E+04  0.98367526317E+03 0.  0.
        -13    1    3    3    0    0 -0.23829302636E+02  0.28139196471E+03 -0.80286884022E+03  0.85108616440E+03  0.10566000000E+00 0.  1.
          4    1    3    3  501    0 -0.66874176996E+01 -0.15882240125E+02  0.28964682476E+03  0.29015900847E+03  0.00000000000E+00 0.  1.
         13    1    1    2    0    0  0.30516720336E+02 -0.26550972459E+03  0.95638820675E+02  0.28385467982E+03  0.10566000000E+00 0. -1.
<mgrwt>
<rscale>  1 0.72940764E+03</rscale>
<asrwt>0</asrwt>
<pdfrwt beam="1">  1       21 0.77501282E-01 0.10193349E+04</pdfrwt>
<pdfrwt beam="2">  1        4 0.14174485E+00 0.10193349E+04</pdfrwt>
<totfact> 0.19475961E+01</totfact>
</mgrwt>
</event>
<event>
 6    1  0.1353269E-005  0.9817295E+03  0.7818608E-02  0.1005740E+00
         21   -1    0    0  501  502  0.00000000000E+00  0.00000000000E+00  0.41272509921E+03  0.41272509921E+03  0.00000000000E+00 0.  1.
          4   -1    0    0  502    0 -0.00000000000E+00 -0.00000000000E+00 -0.69569987785E+03  0.69569987785E+03  0.00000000000E+00 0.  1.
    9000010    2    1    2  501    0  0.10241758037E+02 -0.84057417972E+02 -0.22925065515E+03  0.10081412010E+04  0.97807069030E+03 0.  0.
        -13    1    3    3    0    0 -0.43767862912E+03 -0.24855162182E+03 -0.92457110966E+02  0.51175073975E+03  0.10566000000E+00 0.  1.
          4    1    3    3  501    0  0.44792038716E+03  0.16449420385E+03 -0.13679354419E+03  0.49639046129E+03  0.00000000000E+00 0.  1.
         13    1    1    2    0    0 -0.10241758037E+02  0.84057417972E+02 -0.53724123483E+02  0.10028377602E+03  0.10566000000E+00 0. -1.
<mgrwt>
<rscale>  1 0.53203227E+03</rscale>
<asrwt>0</asrwt>
<pdfrwt beam="1">  1       21 0.63496169E-01 0.98172950E+03</pdfrwt>
<pdfrwt beam="2">  1        4 0.10703075E+00 0.98172950E+03</pdfrwt>
<totfact> 0.62897349E+01</totfact>
</mgrwt>
</event>
<event>
 6    1  0.1353269E-005  0.7519956E+03  0.7818608E-02  0.1004265E+00
         21   -1    0    0  501  502  0.00000000000E+00  0.00000000000E+00  0.33445318072E+04  0.33445318072E+04  0.00000000000E+00 0.  1.
          4   -1    0    0  502    0 -0.00000000000E+00 -0.00000000000E+00 -0.86320602371E+02  0.86320602371E+02  0.00000000000E+00 0.  1.
    9000010    2    1    2  501    0  0.19564533349E+03 -0.25416453177E+02  0.30605458379E+04  0.31515770955E+04  0.72565437379E+03 0.  0.
        -13    1    3    3    0    0  0.16767130798E+03 -0.35475413039E+03  0.20838537056E+04  0.21204741069E+04  0.10566000000E+00 0.  1.
          4    1    3    3  501    0  0.27974025505E+02  0.32933767721E+03  0.97669213233E+03  0.10311029886E+04  0.00000000000E+00 0.  1.
         13    1    1    2    0    0 -0.19564533349E+03  0.25416453177E+02  0.19766536685E+03  0.27927531403E+03  0.10566000000E+00 0. -1.
<mgrwt>
<rscale>  1 0.53819220E+03</rscale>
<asrwt>0</asrwt>
<pdfrwt beam="1">  1       21 0.51454326E+00 0.75199559E+03</pdfrwt>
<pdfrwt beam="2">  1        4 0.13280095E-01 0.75199559E+03</pdfrwt>
<totfact> 0.20953049E+00</totfact>
</mgrwt>
</event>
<event>
 6    1  0.1353269E-005  0.1059830E+04  0.7818608E-02  0.9558915E-01
          4   -1    0    0  502    0 -0.00000000000E+00  0.00000000000E+00  0.10777599363E+04  0.10777599363E+04  0.00000000000E+00 0.  1.
         21   -1    0    0  501  502  0.00000000000E+00 -0.00000000000E+00 -0.48301322594E+03  0.48301322594E+03  0.00000000000E+00 0.  1.
    9000010    2    1    2  501    0  0.32432968558E+03 -0.11875119667E+03  0.28658009599E+03  0.10978927619E+04  0.10019724415E+04 0.  0.
        -13    1    3    3    0    0  0.64067440743E+03 -0.29247207034E+02  0.39319192708E+03  0.75227587901E+03  0.10566000000E+00 0.  1.
          4    1    3    3  501    0 -0.31634472185E+03 -0.89503989640E+02 -0.10661183110E+03  0.34561688288E+03  0.00000000000E+00 0.  1.
         13    1    1    2    0    0 -0.32432968558E+03  0.11875119667E+03  0.30816661442E+03  0.46288040039E+03  0.10566000000E+00 0. -1.
<mgrwt>
<rscale>  1 0.80076208E+03</rscale>
<asrwt>0</asrwt>
<pdfrwt beam="2">  1       21 0.74309727E-01 0.10598303E+04</pdfrwt>
<pdfrwt beam="1">  1        4 0.16580922E+00 0.10598303E+04</pdfrwt>
<totfact> 0.13981787E+01</totfact>
</mgrwt>
</event>
<event>
 6    1  0.1353269E-005  0.8943586E+03  0.7818608E-02  0.9910588E-01
          4   -1    0    0  502    0 -0.00000000000E+00  0.00000000000E+00  0.11312062940E+03  0.11312062940E+03  0.00000000000E+00 0.  1.
         21   -1    0    0  501  502  0.00000000000E+00 -0.00000000000E+00 -0.30981262466E+04  0.30981262466E+04  0.00000000000E+00 0.  1.
    9000010    2    1    2  501    0  0.66506443226E+02  0.16529511533E+03 -0.28518916104E+04  0.29888397446E+04  0.87643121764E+03 0.  0.
        -13    1    3    3    0    0 -0.57084904204E+01 -0.27725268561E+03 -0.34732612831E+03  0.44445144742E+03  0.10566000000E+00 0.  1.
          4    1    3    3  501    0  0.72214933646E+02  0.44254780094E+03 -0.25045654820E+04  0.25443882971E+04  0.00000000000E+00 0.  1.
         13    1    1    2    0    0 -0.66506443226E+02 -0.16529511533E+03 -0.13311400687E+03  0.22240713148E+03  0.10566000000E+00 0. -1.
<mgrwt>
<rscale>  1 0.59750864E+03</rscale>
<asrwt>0</asrwt>
<pdfrwt beam="2">  1       21 0.47663477E+00 0.89435858E+03</pdfrwt>
<pdfrwt beam="1">  1        4 0.17403175E-01 0.89435858E+03</pdfrwt>
<totfact> 0.23090367E+00</totfact>
</mgrwt>
</event>
<event>
 6    1  0.1353269E-005  0.9689337E+03  0.7818608E-02  0.9972655E-01
         21   -1    0    0  501  502  0.00000000000E+00  0.00000000000E+00  0.25702610569E+03  0.25702610569E+03  0.00000000000E+00 0.  1.
          4   -1    0    0  502    0 -0.00000000000E+00 -0.00000000000E+00 -0.14566294607E+04  0.14566294607E+04  0.00000000000E+00 0.  1.
    9000010    2    1    2  501    0  0.95224062347E+02 -0.64393497535E+02 -0.68561905383E+03  0.11869734824E+04  0.96209064872E+03 0.  0.
        -13    1    3    3    0    0  0.14874184481E+03 -0.38398362063E+03  0.18152263333E+02  0.41218572650E+03  0.10566000000E+00 0.  1.
          4    1    3    3  501    0 -0.53517782459E+02  0.31959012309E+03 -0.70377131717E+03  0.77478775589E+03  0.00000000000E+00 0.  1.
         13    1    1    2    0    0 -0.95224062347E+02  0.64393497535E+02 -0.51398430116E+03  0.52668208397E+03  0.10566000000E+00 0. -1.
<mgrwt>
<rscale>  1 0.56865712E+03</rscale>
<asrwt>0</asrwt>
<pdfrwt beam="1">  1       21 0.39542478E-01 0.96893372E+03</pdfrwt>
<pdfrwt beam="2">  1        4 0.22409684E+00 0.96893372E+03</pdfrwt>
<totfact> 0.22820045E+01</totfact>
</mgrwt>
</event>
<event>
 6    1  0.1353269E-005  0.1102712E+04  0.7818608E-02  0.9351519E-01
         21   -1    0    0  501  502  0.00000000000E+00  0.00000000000E+00  0.35531082118E+03  0.35531082118E+03  0.00000000000E+00 0.  1.
          4   -1    0    0  502    0 -0.00000000000E+00 -0.00000000000E+00 -0.24213700753E+04  0.24213700753E+04  0.00000000000E+00 0.  1.
    9000010    2    1    2  501    0  0.45537518396E+03 -0.44694682619E+03 -0.81130492615E+03  0.13690103177E+04  0.89935840640E+03 0.  0.
        -13    1    3    3    0    0 -0.17206674387E+03 -0.87619549206E+02 -0.57777155405E+03  0.60918316587E+03  0.10566000000E+00 0.  1.
          4    1    3    3  501    0  0.62744192782E+03 -0.35932727699E+03 -0.23353337211E+03  0.75982715184E+03  0.00000000000E+00 0.  1.
         13    1    1    2    0    0 -0.45537518396E+03  0.44694682619E+03 -0.12547543279E+04  0.14076705787E+04  0.10566000000E+00 0. -1.
<mgrwt>
<rscale>  1 0.96175162E+03</rscale>
<asrwt>0</asrwt>
<pdfrwt beam="1">  1       21 0.54663204E-01 0.11027119E+04</pdfrwt>
<pdfrwt beam="2">  1        4 0.37251847E+00 0.11027119E+04</pdfrwt>
<totfact> 0.13027366E+00</totfact>
</mgrwt>
</event>
<event>
 6    1  0.1580905E-005  0.7750235E+03  0.7818608E-02  0.1020053E+00
         21   -1    0    0  501  502  0.00000000000E+00  0.00000000000E+00  0.29169041899E+03  0.29169041899E+03  0.00000000000E+00 0.  1.
          4   -1    0    0  502    0 -0.00000000000E+00 -0.00000000000E+00 -0.95354168280E+03  0.95354168280E+03  0.00000000000E+00 0.  1.
    9000010    2    1    2  501    0  0.64298686033E+02  0.90360650970E+02 -0.24341720720E+03  0.81235054852E+03  0.76704765735E+03 0.  0.
        -13    1    3    3    0    0 -0.20182770442E+03  0.27490128872E+03  0.84631195799E+02  0.35137955444E+03  0.10566000000E+00 0.  1.
          4    1    3    3  501    0  0.26612639045E+03 -0.18454063775E+03 -0.32804840300E+03  0.46097099408E+03  0.00000000000E+00 0.  1.
         13    1    1    2    0    0 -0.64298686033E+02 -0.90360650970E+02 -0.41843405661E+03  0.43288155327E+03  0.10566000000E+00 0. -1.
<mgrwt>
<rscale>  1 0.47667411E+03</rscale>
<asrwt>0</asrwt>
<pdfrwt beam="1">  1       21 0.44875449E-01 0.77502353E+03</pdfrwt>
<pdfrwt beam="2">  1        4 0.14669872E+00 0.77502353E+03</pdfrwt>
<totfact> 0.61261755E+01</totfact>
</mgrwt>
</event>
<event>
 6    1  0.1353269E-005  0.1034896E+04  0.7818608E-02  0.9848713E-01
          4   -1    0    0  502    0 -0.00000000000E+00  0.00000000000E+00  0.19993669893E+03  0.19993669893E+03  0.00000000000E+00 0.  1.
         21   -1    0    0  501  502  0.00000000000E+00 -0.00000000000E+00 -0.18368643060E+04  0.18368643060E+04  0.00000000000E+00 0.  1.
    9000010    2    1    2  501    0  0.62007742651E+02 -0.12601144568E+03 -0.12363561570E+04  0.16123232759E+04  0.10253223662E+04 0.  0.
        -13    1    3    3    0    0 -0.26181165045E+02  0.22947717835E+03  0.81186228057E+02  0.24481920590E+03  0.10566000000E+00 0.  1.
          4    1    3    3  501    0  0.88188907696E+02 -0.35548862403E+03 -0.13175423850E+04  0.13675040700E+04  0.00000000000E+00 0.  1.
         13    1    1    2    0    0 -0.62007742651E+02  0.12601144568E+03 -0.40057145009E+03  0.42447772896E+03  0.10566000000E+00 0. -1.
<mgrwt>
<rscale>  1 0.62812571E+03</rscale>
<asrwt>0</asrwt>
<pdfrwt beam="2">  1       21 0.28259452E+00 0.10348960E+04</pdfrwt>
<pdfrwt beam="1">  1        4 0.30759491E-01 0.10348960E+04</pdfrwt>
<totfact> 0.13947156E+01</totfact>
</mgrwt>
</event>
<event>
 6    1  0.1353269E-005  0.1237837E+04  0.7818608E-02  0.9227884E-01
          4   -1    0    0  502    0 -0.00000000000E+00  0.00000000000E+00  0.64849283714E+03  0.64849283714E+03  0.00000000000E+00 0.  1.
         21   -1    0    0  501  502  0.00000000000E+00 -0.00000000000E+00 -0.15912455747E+04  0.15912455747E+04  0.00000000000E+00 0. -1.
    9000010    2    1    2  501    0  0.58298727119E+03 -0.40423623226E+03 -0.89731775432E+03  0.15288618834E+04  0.10143758753E+04 0.  0.
        -13    1    3    3    0    0  0.44904328830E+03 -0.10194603344E+03 -0.10634306069E+04  0.11588431884E+04  0.10566000000E+00 0.  1.
          4    1    3    3  501    0  0.13394398290E+03 -0.30229019882E+03  0.16611285256E+03  0.37001869499E+03  0.00000000000E+00 0.  1.
         13    1    1    2    0    0 -0.58298727119E+03  0.40423623226E+03 -0.45434983257E+02  0.71087652846E+03  0.10566000000E+00 0. -1.
<mgrwt>
<rscale>  1 0.10770201E+04</rscale>
<asrwt>0</asrwt>
<pdfrwt beam="2">  1       21 0.24480701E+00 0.12378366E+04</pdfrwt>
<pdfrwt beam="1">  1        4 0.99768129E-01 0.12378366E+04</pdfrwt>
<totfact> 0.18396937E+00</totfact>
</mgrwt>
</event>
<event>
 6    1  0.1353269E-005  0.1167194E+04  0.7818608E-02  0.9308306E-01
         21   -1    0    0  501  502  0.00000000000E+00  0.00000000000E+00  0.78778412749E+03  0.78778412749E+03  0.00000000000E+00 0.  1.
          4   -1    0    0  502    0 -0.00000000000E+00 -0.00000000000E+00 -0.10713163794E+04  0.10713163794E+04  0.00000000000E+00 0.  1.
    9000010    2    1    2  501    0 -0.58277260565E+03  0.23782869115E+03  0.37652146513E+01  0.11672000504E+04  0.98293203454E+03 0.  0.
        -13    1    3    3    0    0 -0.22566116158E+03  0.18882420614E+03 -0.48054538651E+03  0.56347264382E+03  0.10566000000E+00 0.  1.
          4    1    3    3  501    0 -0.35711144407E+03  0.49004485005E+02  0.48431060116E+03  0.60372740656E+03  0.00000000000E+00 0.  1.
         13    1    1    2    0    0  0.58277260565E+03 -0.23782869115E+03 -0.28729746652E+03  0.69190045647E+03  0.10566000000E+00 0. -1.
<mgrwt>
<rscale>  1 0.10002181E+04</rscale>
<asrwt>0</asrwt>
<pdfrwt beam="1">  1       21 0.12119756E+00 0.11671940E+04</pdfrwt>
<pdfrwt beam="2">  1        4 0.16481790E+00 0.11671940E+04</pdfrwt>
<totfact> 0.42281953E+00</totfact>
</mgrwt>
</event>
<event>
 6    1  0.1353269E-005  0.1010675E+04  0.7818608E-02  0.9814903E-01
         21   -1    0    0  501  502  0.00000000000E+00  0.00000000000E+00  0.43614750681E+03  0.43614750681E+03  0.00000000000E+00 0.  1.
          4   -1    0    0  502    0 -0.00000000000E+00 -0.00000000000E+00 -0.87430716348E+03  0.87430716348E+03  0.00000000000E+00 0.  1.
    9000010    2    1    2  501    0  0.37857959480E+02  0.16405610923E+03 -0.21907265399E+03  0.10341454993E+04  0.99655228358E+03 0.  0.
        -13    1    3    3    0    0 -0.11293190611E+03 -0.34688831488E+03  0.14103550460E+03  0.39112164750E+03  0.10566000000E+00 0.  1.
          4    1    3    3  501    0  0.15078986559E+03  0.51094442412E+03 -0.36010815859E+03  0.64302385180E+03  0.00000000000E+00 0.  1.
         13    1    1    2    0    0 -0.37857959480E+02 -0.16405610923E+03 -0.21908700268E+03  0.27630917100E+03  0.10566000000E+00 0. -1.
<mgrwt>
<rscale>  1 0.64568884E+03</rscale>
<asrwt>0</asrwt>
<pdfrwt beam="1">  1       21 0.67099617E-01 0.10106751E+04</pdfrwt>
<pdfrwt beam="2">  1        4 0.13450879E+00 0.10106751E+04</pdfrwt>
<totfact> 0.31169048E+01</totfact>
</mgrwt>
</event>
<event>
 6    1  0.1353269E-005  0.9954609E+03  0.7818608E-02  0.1032008E+00
         21   -1    0    0  501  502  0.00000000000E+00  0.00000000000E+00  0.20333487773E+03  0.20333487773E+03  0.00000000000E+00 0.  1.
          4   -1    0    0  502    0 -0.00000000000E+00 -0.00000000000E+00 -0.13098044935E+04  0.13098044935E+04  0.00000000000E+00 0.  1.
    9000010    2    1    2  501    0 -0.90388215918E+01  0.35470148477E+02 -0.10637402039E+04  0.14568753016E+04  0.99478771165E+03 0.  0.
        -13    1    3    3    0    0  0.17738689127E+03  0.45615292689E+02  0.14512113413E+03  0.23368144739E+03  0.10566000000E+00 0.  1.
          4    1    3    3  501    0 -0.18642571286E+03 -0.10145144211E+02 -0.12088613380E+04  0.12231938542E+04  0.00000000000E+00 0.  1.
         13    1    1    2    0    0  0.90388215918E+01 -0.35470148477E+02 -0.42729411825E+02  0.56264069598E+02  0.10566000000E+00 0. -1.
<mgrwt>
<rscale>  1 0.43591307E+03</rscale>
<asrwt>0</asrwt>
<pdfrwt beam="1">  1       21 0.31282290E-01 0.99546091E+03</pdfrwt>
<pdfrwt beam="2">  1        4 0.20150838E+00 0.99546091E+03</pdfrwt>
<totfact> 0.51564689E+01</totfact>
</mgrwt>
</event>
<event>
 6    1  0.1353269E-005  0.8643149E+03  0.7818608E-02  0.9728509E-01
          4   -1    0    0  502    0 -0.00000000000E+00  0.00000000000E+00  0.45946735138E+03  0.45946735138E+03  0.00000000000E+00 0.  1.
         21   -1    0    0  501  502  0.00000000000E+00 -0.00000000000E+00 -0.11434423236E+04  0.11434423236E+04  0.00000000000E+00 0.  1.
    9000010    2    1    2  501    0 -0.12009034023E+03  0.33738656157E+03 -0.84635585271E+03  0.12096935216E+04  0.78663130179E+03 0.  0.
        -13    1    3    3    0    0 -0.39504370346E+03  0.20552383196E+03 -0.77916701818E+03  0.89744126634E+03  0.10566000000E+00 0.  1.
          4    1    3    3  501    0  0.27495336323E+03  0.13186272961E+03 -0.67188834535E+02  0.31225225523E+03  0.00000000000E+00 0.  1.
         13    1    1    2    0    0  0.12009034023E+03 -0.33738656157E+03  0.16238088053E+03  0.39321615337E+03  0.10566000000E+00 0. -1.
<mgrwt>
<rscale>  1 0.69344456E+03</rscale>
<asrwt>0</asrwt>
<pdfrwt beam="2">  1       21 0.17591420E+00 0.86431487E+03</pdfrwt>
<pdfrwt beam="1">  1        4 0.70687285E-01 0.86431487E+03</pdfrwt>
<totfact> 0.12670956E+01</totfact>
</mgrwt>
</event>
<event>
 6    1  0.1353269E-005  0.1021667E+04  0.7818608E-02  0.9799706E-01
          4   -1    0    0  502    0 -0.00000000000E+00  0.00000000000E+00  0.77178514303E+03  0.77178514303E+03  0.00000000000E+00 0.  1.
         21   -1    0    0  501  502  0.00000000000E+00 -0.00000000000E+00 -0.48841222188E+03  0.48841222188E+03  0.00000000000E+00 0.  1.
    9000010    2    1    2  501    0 -0.65396656225E+02 -0.15834644747E+03  0.12935428122E+03  0.10298235976E+04  0.10072009690E+04 0.  0.
        -13    1    3    3    0    0 -0.29149377294E+03 -0.48363012875E+03 -0.97927111572E+02  0.57311120338E+03  0.10566000000E+00 0.  1.
          4    1    3    3  501    0  0.22609711672E+03  0.32528368128E+03  0.22728139279E+03  0.45671239418E+03  0.00000000000E+00 0.  1.
         13    1    1    2    0    0  0.65396656225E+02  0.15834644747E+03  0.15401863993E+03  0.23037376735E+03  0.10566000000E+00 0. -1.
<mgrwt>
<rscale>  1 0.65378319E+03</rscale>
<asrwt>0</asrwt>
<pdfrwt beam="2">  1       21 0.75140342E-01 0.10216673E+04</pdfrwt>
<pdfrwt beam="1">  1        4 0.11873618E+00 0.10216673E+04</pdfrwt>
<totfact> 0.33007314E+01</totfact>
</mgrwt>
</event>
<event>
 6    1  0.1353269E-005  0.1107309E+04  0.7818608E-02  0.9406138E-01
          4   -1    0    0  502    0 -0.00000000000E+00  0.00000000000E+00  0.15608116414E+04  0.15608116414E+04  0.00000000000E+00 0.  1.
         21   -1    0    0  501  502  0.00000000000E+00 -0.00000000000E+00 -0.55881379668E+03  0.55881379668E+03  0.00000000000E+00 0. -1.
    9000010    2    1    2  501    0  0.48505358664E+03 -0.18151324403E+03  0.14289754805E+03  0.11164916631E+04  0.97872870848E+03 0.  0.
        -13    1    3    3    0    0  0.19188240137E+03  0.71415779513E+02  0.53049187203E+03  0.56863055403E+03  0.10566000000E+00 0.  1.
          4    1    3    3  501    0  0.29317118527E+03 -0.25292902354E+03 -0.38759432398E+03  0.54786110904E+03  0.00000000000E+00 0.  1.
         13    1    1    2    0    0 -0.48505358664E+03  0.18151324403E+03  0.85910029664E+03  0.10031337750E+04  0.10566000000E+00 0. -1.
<mgrwt>
<rscale>  1 0.91572260E+03</rscale>
<asrwt>0</asrwt>
<pdfrwt beam="2">  1       21 0.85971354E-01 0.11073093E+04</pdfrwt>
<pdfrwt beam="1">  1        4 0.24012487E+00 0.11073093E+04</pdfrwt>
<totfact> 0.31580082E+00</totfact>
</mgrwt>
</event>
<event>
 6    1  0.1353269E-005  0.1074829E+04  0.7818608E-02  0.9499036E-01
         21   -1    0    0  501  502  0.00000000000E+00  0.00000000000E+00  0.64017787596E+03  0.64017787596E+03  0.00000000000E+00 0.  1.
          4   -1    0    0  502    0 -0.00000000000E+00 -0.00000000000E+00 -0.86386919485E+03  0.86386919485E+03  0.00000000000E+00 0.  1.
    9000010    2    1    2  501    0  0.40438332511E+03 -0.52498955871E+02 -0.21531689631E+03  0.10961841574E+04  0.99447288910E+03 0.  0.
        -13    1    3    3    0    0  0.20487516495E+03  0.20428872864E+03 -0.55503484945E+03  0.62591645859E+03  0.10566000000E+00 0.  1.
          4    1    3    3  501    0  0.19950816016E+03 -0.25678768452E+03  0.33971795313E+03  0.47026769884E+03  0.00000000000E+00 0.  1.
         13    1    1    2    0    0 -0.40438332511E+03  0.52498955871E+02 -0.83744225759E+01  0.40786291338E+03  0.10566000000E+00 0. -1.
<mgrwt>
<rscale>  1 0.84354914E+03</rscale>
<asrwt>0</asrwt>
<pdfrwt beam="1">  1       21 0.98488904E-01 0.10748294E+04</pdfrwt>
<pdfrwt beam="2">  1        4 0.13290295E+00 0.10748294E+04</pdfrwt>
<totfact> 0.12890577E+01</totfact>
</mgrwt>
</event>
<event>
 6    1  0.1353269E-005  0.1040661E+04  0.7818608E-02  0.9558494E-01
          4   -1    0    0  502    0 -0.00000000000E+00  0.00000000000E+00  0.16423450238E+04  0.16423450238E+04  0.00000000000E+00 0.  1.
         21   -1    0    0  501  502  0.00000000000E+00 -0.00000000000E+00 -0.31450889585E+03  0.31450889585E+03  0.00000000000E+00 0.  1.
    9000010    2    1    2  501    0  0.28227788789E+03 -0.23195823945E+03  0.78951523831E+03  0.13062581756E+04  0.97441812321E+03 0.  0.
        -13    1    3    3    0    0  0.20052369020E+03 -0.18096661586E+03  0.10206805275E+04  0.10558159957E+04  0.10566000000E+00 0.  1.
          4    1    3    3  501    0  0.81754197689E+02 -0.50991623586E+02 -0.23116528920E+03  0.25044217985E+03  0.00000000000E+00 0.  1.
         13    1    1    2    0    0 -0.28227788789E+03  0.23195823945E+03  0.53832088962E+03  0.65059574407E+03  0.10566000000E+00 0. -1.
<mgrwt>
<rscale>  1 0.80105312E+03</rscale>
<asrwt>0</asrwt>
<pdfrwt beam="2">  1       21 0.48385985E-01 0.10406614E+04</pdfrwt>
<pdfrwt beam="1">  1        4 0.25266846E+00 0.10406614E+04</pdfrwt>
<totfact> 0.97797941E+00</totfact>
</mgrwt>
</event>
<event>
 6    1  0.1353269E-005  0.1104501E+04  0.7818608E-02  0.9444433E-01
          4   -1    0    0  502    0 -0.00000000000E+00  0.00000000000E+00  0.52608835087E+03  0.52608835087E+03  0.00000000000E+00 0.  1.
         21   -1    0    0  501  502  0.00000000000E+00 -0.00000000000E+00 -0.12735196734E+04  0.12735196734E+04  0.00000000000E+00 0.  1.
    9000010    2    1    2  501    0 -0.30491966964E+03 -0.33829208866E+03 -0.76546135487E+03  0.13438200961E+04  0.10062324894E+04 0.  0.
        -13    1    3    3    0    0  0.11883128874E+03  0.26453883310E+03 -0.12470011509E+02  0.29027087651E+03  0.10566000000E+00 0.  1.
          4    1    3    3  501    0 -0.42375095838E+03 -0.60283092176E+03 -0.75299134336E+03  0.10535492196E+04  0.00000000000E+00 0.  1.
         13    1    1    2    0    0  0.30491966964E+03  0.33829208866E+03  0.18030032369E+02  0.45578792811E+03  0.10566000000E+00 0. -1.
<mgrwt>
<rscale>  1 0.88507511E+03</rscale>
<asrwt>0</asrwt>
<pdfrwt beam="2">  1       21 0.19592610E+00 0.11045005E+04</pdfrwt>
<pdfrwt beam="1">  1        4 0.80936671E-01 0.11045005E+04</pdfrwt>
<totfact> 0.64940039E+00</totfact>
</mgrwt>
</event>
<event>
 6    1  0.1353269E-005  0.1033590E+04  0.7818608E-02  0.9625959E-01
         21   -1    0    0  501  502  0.00000000000E+00  0.00000000000E+00  0.20502188931E+04  0.20502188931E+04  0.00000000000E+00 0.  1.
          4   -1    0    0  502    0 -0.00000000000E+00 -0.00000000000E+00 -0.24060500125E+03  0.24060500125E+03  0.00000000000E+00 0.  1.
    9000010    2    1    2  501    0 -0.13453687964E+03  0.26349621474E+03  0.16692985395E+04  0.19633810193E+04  0.99034185299E+03 0.  0.
        -13    1    3    3    0    0 -0.56033353377E+03  0.23238743485E+03  0.98890455929E+03  0.11601335387E+04  0.10566000000E+00 0.  1.
          4    1    3    3  501    0  0.42579665413E+03  0.31108779886E+02  0.68039398018E+03  0.80324748062E+03  0.00000000000E+00 0.  1.
         13    1    1    2    0    0  0.13453687964E+03 -0.26349621474E+03  0.14031535238E+03  0.32744287508E+03  0.10566000000E+00 0. -1.
<mgrwt>
<rscale>  1 0.75601599E+03</rscale>
<asrwt>0</asrwt>
<pdfrwt beam="1">  1       21 0.31541828E+00 0.10335896E+04</pdfrwt>
<pdfrwt beam="2">  1        4 0.37016155E-01 0.10335896E+04</pdfrwt>
<totfact> 0.60271022E+00</totfact>
</mgrwt>
</event>
<event>
 6    1  0.1353269E-005  0.1205741E+04  0.7818608E-02  0.9264179E-01
         21   -1    0    0  501  502  0.00000000000E+00  0.00000000000E+00  0.13778841539E+04  0.13778841539E+04  0.00000000000E+00 0.  1.
          4   -1    0    0  502    0 -0.00000000000E+00 -0.00000000000E+00 -0.63956013782E+03  0.63956013782E+03  0.00000000000E+00 0.  1.
    9000010    2    1    2  501    0 -0.39448082096E+03  0.54303804225E+03  0.49762380710E+03  0.13043930768E+04  0.10016518416E+04 0.  0.
        -13    1    3    3    0    0 -0.31418390425E+03 -0.16596511115E+03  0.47147737172E+03  0.59037857940E+03  0.10566000000E+00 0.  1.
          4    1    3    3  501    0 -0.80296916715E+02  0.70900315340E+03  0.26146435379E+02  0.71401449736E+03  0.00000000000E+00 0.  1.
         13    1    1    2    0    0  0.39448082096E+03 -0.54303804225E+03  0.24070020903E+03  0.71305121501E+03  0.10566000000E+00 0. -1.
<mgrwt>
<rscale>  1 0.10414851E+04</rscale>
<asrwt>0</asrwt>
<pdfrwt beam="1">  1       21 0.21198218E+00 0.12057412E+04</pdfrwt>
<pdfrwt beam="2">  1        4 0.98393868E-01 0.12057412E+04</pdfrwt>
<totfact> 0.31411580E+00</totfact>
</mgrwt>
</event>
<event>
 6    1  0.1353269E-005  0.1045918E+04  0.7818608E-02  0.9498235E-01
          4   -1    0    0  502    0 -0.00000000000E+00  0.00000000000E+00  0.16671037277E+04  0.16671037277E+04  0.00000000000E+00 0.  1.
         21   -1    0    0  501  502  0.00000000000E+00 -0.00000000000E+00 -0.38353957851E+03  0.38353957851E+03  0.00000000000E+00 0.  1.
    9000010    2    1    2  501    0  0.89648474306E+02  0.43463009560E+03  0.52135534800E+03  0.11686555304E+04  0.94710304657E+03 0.  0.
        -13    1    3    3    0    0  0.46876744678E+03  0.44483428884E+03  0.21480825768E+03  0.68100151426E+03  0.10566000000E+00 0.  1.
          4    1    3    3  501    0 -0.37911897247E+03 -0.10204193242E+02  0.30654709031E+03  0.48765401611E+03  0.00000000000E+00 0.  1.
         13    1    1    2    0    0 -0.89648474306E+02 -0.43463009560E+03  0.76220880122E+03  0.88198777586E+03  0.10566000000E+00 0. -1.
<mgrwt>
<rscale>  1 0.84414102E+03</rscale>
<asrwt>0</asrwt>
<pdfrwt beam="2">  1       21 0.59006090E-01 0.10459179E+04</pdfrwt>
<pdfrwt beam="1">  1        4 0.25647749E+00 0.10459179E+04</pdfrwt>
<totfact> 0.59978397E+00</totfact>
</mgrwt>
</event>
<event>
 6    1  0.1353269E-005  0.1077082E+04  0.7818608E-02  0.9502360E-01
         21   -1    0    0  501  502  0.00000000000E+00  0.00000000000E+00  0.10116432413E+04  0.10116432413E+04  0.00000000000E+00 0. -1.
          4   -1    0    0  502    0 -0.00000000000E+00 -0.00000000000E+00 -0.55939968195E+03  0.55939968195E+03  0.00000000000E+00 0.  1.
    9000010    2    1    2  501    0  0.36311945049E+03 -0.16904353624E+03  0.19384450835E+03  0.10943863035E+04  0.99983710439E+03 0.  0.
        -13    1    3    3    0    0  0.30389296907E+03  0.29346802397E+03  0.40253172635E+03  0.58352910778E+03  0.10566000000E+00 0.  1.
          4    1    3    3  501    0  0.59226481423E+02 -0.46251156020E+03 -0.20868721800E+03  0.51085719568E+03  0.00000000000E+00 0.  1.
         13    1    1    2    0    0 -0.36311945049E+03  0.16904353624E+03  0.25839905100E+03  0.47665661979E+03  0.10566000000E+00 0. -1.
<mgrwt>
<rscale>  1 0.84110038E+03</rscale>
<asrwt>0</asrwt>
<pdfrwt beam="1">  1       21 0.15563742E+00 0.10770820E+04</pdfrwt>
<pdfrwt beam="2">  1        4 0.86061490E-01 0.10770820E+04</pdfrwt>
<totfact> 0.11217437E+01</totfact>
</mgrwt>
</event>
<event>
 6    1  0.1353269E-005  0.9646675E+03  0.7818608E-02  0.9689555E-01
          4   -1    0    0  502    0 -0.00000000000E+00  0.00000000000E+00  0.50002069210E+03  0.50002069210E+03  0.00000000000E+00 0.  1.
         21   -1    0    0  501  502  0.00000000000E+00 -0.00000000000E+00 -0.86942876021E+03  0.86942876021E+03  0.00000000000E+00 0.  1.
    9000010    2    1    2  501    0  0.16365073744E+03 -0.24358496232E+03 -0.45096635509E+03  0.10648727574E+04  0.91894947540E+03 0.  0.
        -13    1    3    3    0    0  0.83327321136E+02 -0.10694169905E+03  0.28310058991E+03  0.31388839516E+03  0.10566000000E+00 0.  1.
          4    1    3    3  501    0  0.80323416304E+02 -0.13664326326E+03 -0.73406694501E+03  0.75098436226E+03  0.00000000000E+00 0.  1.
         13    1    1    2    0    0 -0.16365073744E+03  0.24358496232E+03  0.81558286988E+02  0.30457669489E+03  0.10566000000E+00 0. -1.
<mgrwt>
<rscale>  1 0.71642084E+03</rscale>
<asrwt>0</asrwt>
<pdfrwt beam="2">  1       21 0.13375827E+00 0.96466747E+03</pdfrwt>
<pdfrwt beam="1">  1        4 0.76926261E-01 0.96466747E+03</pdfrwt>
<totfact> 0.22320621E+01</totfact>
</mgrwt>
</event>
<event>
 6    1  0.1353269E-005  0.9691073E+03  0.7818608E-02  0.9864443E-01
         21   -1    0    0  501  502  0.00000000000E+00  0.00000000000E+00  0.15383244379E+04  0.15383244379E+04  0.00000000000E+00 0.  1.
          4   -1    0    0  502    0 -0.00000000000E+00 -0.00000000000E+00 -0.81748699260E+03  0.81748699260E+03  0.00000000000E+00 0.  1.
    9000010    2    1    2  501    0  0.16231843590E+03  0.80175767345E+01  0.13747564830E+04  0.16820001252E+04  0.95538341907E+03 0.  0.
        -13    1    3    3    0    0 -0.23890743988E+03  0.35426755909E+03  0.48512914426E+03  0.64647704215E+03  0.10566000000E+00 0.  1.
          4    1    3    3  501    0  0.40122587578E+03 -0.34624998236E+03  0.88962733877E+03  0.10355230831E+04  0.00000000000E+00 0.  1.
         13    1    1    2    0    0 -0.16231843590E+03 -0.80175767345E+01 -0.65391903768E+03  0.67381130532E+03  0.10566000000E+00 0. -1.
<mgrwt>
<rscale>  1 0.62015919E+03</rscale>
<asrwt>0</asrwt>
<pdfrwt beam="1">  1       21 0.23666530E+00 0.96910734E+03</pdfrwt>
<pdfrwt beam="2">  1        4 0.12576723E+00 0.96910734E+03</pdfrwt>
<totfact> 0.12211558E+00</totfact>
</mgrwt>
</event>
<event>
 6    1  0.1353269E-005  0.9733162E+03  0.7818608E-02  0.1037409E+00
         21   -1    0    0  501  502  0.00000000000E+00  0.00000000000E+00  0.29862892689E+03  0.29862892689E+03  0.00000000000E+00 0.  1.
          4   -1    0    0  502    0 -0.00000000000E+00 -0.00000000000E+00 -0.92052529895E+03  0.92052529895E+03  0.00000000000E+00 0.  1.
    9000010    2    1    2  501    0 -0.18182326007E+02 -0.28029485247E+02 -0.50290786790E+03  0.10955640793E+04  0.97274255553E+03 0.  0.
        -13    1    3    3    0    0 -0.11538200062E+03 -0.31537538557E+03 -0.66985312803E+03  0.74931826629E+03  0.10566000000E+00 0.  1.
          4    1    3    3  501    0  0.97199674610E+02  0.28734590033E+03  0.16694526014E+03  0.34624581306E+03  0.00000000000E+00 0.  1.
         13    1    1    2    0    0  0.18182326007E+02  0.28029485247E+02 -0.11898850417E+03  0.12359014650E+03  0.10566000000E+00 0. -1.
<mgrwt>
<rscale>  1 0.41894897E+03</rscale>
<asrwt>0</asrwt>
<pdfrwt beam="1">  1       21 0.45942912E-01 0.97331615E+03</pdfrwt>
<pdfrwt beam="2">  1        4 0.14161928E+00 0.97331615E+03</pdfrwt>
<totfact> 0.62882588E+01</totfact>
</mgrwt>
</event>
<event>
 6    1  0.1353269E-005  0.1016120E+04  0.7818608E-02  0.9771365E-01
         21   -1    0    0  501  502  0.00000000000E+00  0.00000000000E+00  0.65145223446E+03  0.65145223446E+03  0.00000000000E+00 0.  1.
          4   -1    0    0  502    0 -0.00000000000E+00 -0.00000000000E+00 -0.56176308498E+03  0.56176308498E+03  0.00000000000E+00 0.  1.
    9000010    2    1    2  501    0  0.17915561966E+03  0.66732900935E+02  0.46309511797E+02  0.10171749658E+04  0.99797310788E+03 0.  0.
        -13    1    3    3    0    0  0.28241172245E+03 -0.51743393029E+02  0.47809326092E+03  0.55767995930E+03  0.10566000000E+00 0.  1.
          4    1    3    3  501    0 -0.10325610278E+03  0.11847629396E+03 -0.43178374913E+03  0.45949500651E+03  0.00000000000E+00 0.  1.
         13    1    1    2    0    0 -0.17915561966E+03 -0.66732900935E+02  0.43379637686E+02  0.19604035364E+03  0.10566000000E+00 0. -1.
<mgrwt>
<rscale>  1 0.66922144E+03</rscale>
<asrwt>0</asrwt>
<pdfrwt beam="1">  1       21 0.10022342E+00 0.10161202E+04</pdfrwt>
<pdfrwt beam="2">  1        4 0.86425090E-01 0.10161202E+04</pdfrwt>
<totfact> 0.35681748E+01</totfact>
</mgrwt>
</event>
<event>
 6    1  0.1353269E-005  0.9387237E+03  0.7818608E-02  0.1058262E+00
          4   -1    0    0  502    0 -0.00000000000E+00  0.00000000000E+00  0.25925343732E+03  0.25925343732E+03  0.00000000000E+00 0.  1.
         21   -1    0    0  501  502  0.00000000000E+00 -0.00000000000E+00 -0.95745657521E+03  0.95745657521E+03  0.00000000000E+00 0.  1.
    9000010    2    1    2  501    0  0.20437841621E+02 -0.14406598357E+01 -0.72275902630E+03  0.11847290230E+04  0.93850011561E+03 0.  0.
        -13    1    3    3    0    0  0.13874261309E+03  0.16817173713E+03 -0.89153354119E+03  0.91780352586E+03  0.10566000000E+00 0.  1.
          4    1    3    3  501    0 -0.11830477147E+03 -0.16961239697E+03  0.16877451488E+03  0.26692549716E+03  0.00000000000E+00 0.  1.
         13    1    1    2    0    0 -0.20437841621E+02  0.14406598357E+01  0.24555888404E+02  0.31980989513E+02  0.10566000000E+00 0. -1.
<mgrwt>
<rscale>  1 0.36081337E+03</rscale>
<asrwt>0</asrwt>
<pdfrwt beam="2">  1       21 0.14730101E+00 0.93872373E+03</pdfrwt>
<pdfrwt beam="1">  1        4 0.39885144E-01 0.93872373E+03</pdfrwt>
<totfact> 0.70646292E+01</totfact>
</mgrwt>
</event>
<event>
 6    1  0.1353269E-005  0.1013809E+04  0.7818608E-02  0.9773720E-01
         21   -1    0    0  501  502  0.00000000000E+00  0.00000000000E+00  0.24113435914E+03  0.24113435914E+03  0.00000000000E+00 0.  1.
          4   -1    0    0  502    0 -0.00000000000E+00 -0.00000000000E+00 -0.15132868196E+04  0.15132868196E+04  0.00000000000E+00 0.  1.
    9000010    2    1    2  501    0 -0.37590998521E+02  0.18726434780E+03 -0.11158029994E+04  0.15075888789E+04  0.99565399365E+03 0.  0.
        -13    1    3    3    0    0 -0.33317842959E+03  0.48848215332E+03 -0.62776244718E+03  0.86238528589E+03  0.10566000000E+00 0.  1.
          4    1    3    3  501    0  0.29558743107E+03 -0.30121780552E+03 -0.48804055225E+03  0.64520359299E+03  0.00000000000E+00 0.  1.
         13    1    1    2    0    0  0.37590998521E+02 -0.18726434780E+03 -0.15634946104E+03  0.24683229987E+03  0.10566000000E+00 0. -1.
<mgrwt>
<rscale>  1 0.66792150E+03</rscale>
<asrwt>0</asrwt>
<pdfrwt beam="1">  1       21 0.37097595E-01 0.10138086E+04</pdfrwt>
<pdfrwt beam="2">  1        4 0.23281335E+00 0.10138086E+04</pdfrwt>
<totfact> 0.22853623E+01</totfact>
</mgrwt>
</event>
<event>
 6    1  0.1353269E-005  0.1282191E+04  0.7818608E-02  0.9167969E-01
         21   -1    0    0  501  502  0.00000000000E+00  0.00000000000E+00  0.10892559455E+04  0.10892559455E+04  0.00000000000E+00 0.  1.
          4   -1    0    0  502    0 -0.00000000000E+00 -0.00000000000E+00 -0.10225079138E+04  0.10225079138E+04  0.00000000000E+00 0.  1.
    9000010    2    1    2  501    0  0.71036221693E+03 -0.36467172939E+03  0.21363814745E+03  0.12998669036E+04  0.10032012557E+04 0.  0.
        -13    1    3    3    0    0 -0.11807942525E+03  0.25791301684E+02 -0.24678920172E+03  0.27479603920E+03  0.10566000000E+00 0.  1.
          4    1    3    3  501    0  0.82844164218E+03 -0.39046303107E+03  0.46042734917E+03  0.10250708644E+04  0.00000000000E+00 0.  1.
         13    1    1    2    0    0 -0.71036221693E+03  0.36467172939E+03 -0.14689011578E+03  0.81189695573E+03  0.10566000000E+00 0. -1.
<mgrwt>
<rscale>  1 0.11390243E+04</rscale>
<asrwt>0</asrwt>
<pdfrwt beam="1">  1       21 0.16757784E+00 0.12821906E+04</pdfrwt>
<pdfrwt beam="2">  1        4 0.15730891E+00 0.12821906E+04</pdfrwt>
<totfact> 0.19403842E+00</totfact>
</mgrwt>
</event>
<event>
 6    1  0.1353269E-005  0.1007185E+04  0.7818608E-02  0.1050301E+00
         21   -1    0    0  501  502  0.00000000000E+00  0.00000000000E+00  0.29955199169E+03  0.29955199169E+03  0.00000000000E+00 0.  1.
          4   -1    0    0  502    0 -0.00000000000E+00 -0.00000000000E+00 -0.89196831373E+03  0.89196831373E+03  0.00000000000E+00 0.  1.
    9000010    2    1    2  501    0 -0.14474513482E+02  0.14908716424E+02 -0.55829722686E+03  0.11515715234E+04  0.10069704060E+04 0.  0.
        -13    1    3    3    0    0 -0.49025200845E+03 -0.13471059141E+03 -0.28477145906E+03  0.58274245623E+03  0.10566000000E+00 0.  1.
          4    1    3    3  501    0  0.47577749497E+03  0.14961930784E+03 -0.27352576780E+03  0.56882906716E+03  0.00000000000E+00 0.  1.
         13    1    1    2    0    0  0.14474513482E+02 -0.14908716424E+02 -0.34119095180E+02  0.39948782033E+02  0.10566000000E+00 0. -1.
<mgrwt>
<rscale>  1 0.38171678E+03</rscale>
<asrwt>0</asrwt>
<pdfrwt beam="1">  1       21 0.46084922E-01 0.10071848E+04</pdfrwt>
<pdfrwt beam="2">  1        4 0.13722589E+00 0.10071848E+04</pdfrwt>
<totfact> 0.67692900E+01</totfact>
</mgrwt>
</event>
<event>
 6    1  0.1353269E-005  0.1071988E+04  0.7818608E-02  0.9749698E-01
          4   -1    0    0  502    0 -0.00000000000E+00  0.00000000000E+00  0.40408223618E+03  0.40408223618E+03  0.00000000000E+00 0.  1.
         21   -1    0    0  501  502  0.00000000000E+00 -0.00000000000E+00 -0.10679745061E+04  0.10679745061E+04  0.00000000000E+00 0.  1.
    9000010    2    1    2  501    0 -0.17095153640E+03 -0.37102200274E+02 -0.71649319641E+03  0.12893879992E+04  0.10576189819E+04 0.  0.
        -13    1    3    3    0    0 -0.46391414447E+03  0.16134350069E+03 -0.99167579200E+00  0.49117110383E+03  0.10566000000E+00 0.  1.
          4    1    3    3  501    0  0.29296260808E+03 -0.19844570096E+03 -0.71550152062E+03  0.79821689532E+03  0.00000000000E+00 0.  1.
         13    1    1    2    0    0  0.17095153640E+03  0.37102200274E+02  0.52600926541E+02  0.18266874308E+03  0.10566000000E+00 0. -1.
<mgrwt>
<rscale>  1 0.68133313E+03</rscale>
<asrwt>0</asrwt>
<pdfrwt beam="2">  1       21 0.16430377E+00 0.10719883E+04</pdfrwt>
<pdfrwt beam="1">  1        4 0.62166497E-01 0.10719883E+04</pdfrwt>
<totfact> 0.20050153E+01</totfact>
</mgrwt>
</event>
<event>
 6    1  0.1353269E-005  0.1003761E+04  0.7818608E-02  0.9853386E-01
         21   -1    0    0  501  502  0.00000000000E+00  0.00000000000E+00  0.37553676961E+03  0.37553676961E+03  0.00000000000E+00 0.  1.
          4   -1    0    0  502    0 -0.00000000000E+00 -0.00000000000E+00 -0.10134748420E+04  0.10134748420E+04  0.00000000000E+00 0.  1.
    9000010    2    1    2  501    0 -0.12641141789E+03  0.83683415830E+02 -0.34897366968E+03  0.10626939782E+04  0.99224649588E+03 0.  0.
        -13    1    3    3    0    0  0.30765993010E+03 -0.34911034803E+02  0.18789628747E+03  0.36218564155E+03  0.10566000000E+00 0.  1.
          4    1    3    3  501    0 -0.43407134799E+03  0.11859445063E+03 -0.53686995715E+03  0.70050833667E+03  0.00000000000E+00 0.  1.
         13    1    1    2    0    0  0.12641141789E+03 -0.83683415830E+02 -0.28896440269E+03  0.32631763336E+03  0.10566000000E+00 0. -1.
<mgrwt>
<rscale>  1 0.62574587E+03</rscale>
<asrwt>0</asrwt>
<pdfrwt beam="1">  1       21 0.57774889E-01 0.10037609E+04</pdfrwt>
<pdfrwt beam="2">  1        4 0.15591920E+00 0.10037609E+04</pdfrwt>
<totfact> 0.29469031E+01</totfact>
</mgrwt>
</event>
<event>
 6    1  0.1353269E-005  0.1079876E+04  0.7818608E-02  0.9497095E-01
         21   -1    0    0  501  502  0.00000000000E+00  0.00000000000E+00  0.63918312459E+03  0.63918312459E+03  0.00000000000E+00 0.  1.
          4   -1    0    0  502    0 -0.00000000000E+00 -0.00000000000E+00 -0.90357127927E+03  0.90357127927E+03  0.00000000000E+00 0.  1.
    9000010    2    1    2  501    0 -0.81637602244E+02 -0.39651160251E+03 -0.41611659899E+02  0.10806770004E+04  0.10011219206E+04 0.  0.
        -13    1    3    3    0    0 -0.22446667633E+03 -0.64793656917E+03 -0.24387852772E+03  0.72779381277E+03  0.10566000000E+00 0.  1.
          4    1    3    3  501    0  0.14282907409E+03  0.25142496666E+03  0.20226686783E+03  0.35288318759E+03  0.00000000000E+00 0.  1.
         13    1    1    2    0    0  0.81637602244E+02  0.39651160251E+03 -0.22277649478E+03  0.46207740349E+03  0.10566000000E+00 0. -1.
<mgrwt>
<rscale>  1 0.84498320E+03</rscale>
<asrwt>0</asrwt>
<pdfrwt beam="1">  1       21 0.98335866E-01 0.10798756E+04</pdfrwt>
<pdfrwt beam="2">  1        4 0.13901096E+00 0.10798756E+04</pdfrwt>
<totfact> 0.11505028E+01</totfact>
</mgrwt>
</event>
<event>
 6    1  0.1353269E-005  0.1179426E+04  0.7818608E-02  0.9302230E-01
         21   -1    0    0  501  502  0.00000000000E+00  0.00000000000E+00  0.74798456389E+03  0.74798456389E+03  0.00000000000E+00 0.  1.
          4   -1    0    0  502    0 -0.00000000000E+00 -0.00000000000E+00 -0.15671263849E+04  0.15671263849E+04  0.00000000000E+00 0.  1.
    9000010    2    1    2  501    0 -0.48205196480E+03  0.39581089116E+03  0.12234903508E+03  0.11857547598E+04  0.10010018510E+04 0.  0.
        -13    1    3    3    0    0  0.25708591405E+03  0.22862917463E+03  0.23915254241E+03  0.41899691693E+03  0.10566000000E+00 0.  1.
          4    1    3    3  501    0 -0.73913787885E+03  0.16718171653E+03 -0.11680350733E+03  0.76675784288E+03  0.00000000000E+00 0.  1.
         13    1    1    2    0    0  0.48205196480E+03 -0.39581089116E+03 -0.94149085611E+03  0.11293561890E+04  0.10566000000E+00 0. -1.
<mgrwt>
<rscale>  1 0.10057784E+04</rscale>
<asrwt>0</asrwt>
<pdfrwt beam="1">  1       21 0.11507455E+00 0.11794257E+04</pdfrwt>
<pdfrwt beam="2">  1        4 0.24109637E+00 0.11794257E+04</pdfrwt>
<totfact> 0.14957078E+00</totfact>
</mgrwt>
</event>
<event>
 6    1  0.1353269E-005  0.1025239E+04  0.7818608E-02  0.9737087E-01
         21   -1    0    0  501  502  0.00000000000E+00  0.00000000000E+00  0.80479428174E+03  0.80479428174E+03  0.00000000000E+00 0.  1.
          4   -1    0    0  502    0 -0.00000000000E+00 -0.00000000000E+00 -0.62513676536E+03  0.62513676536E+03  0.00000000000E+00 0.  1.
    9000010    2    1    2  501    0  0.15593011841E+03  0.13845445202E+03  0.42334150664E+03  0.11092041611E+04  0.10038087481E+04 0.  0.
        -13    1    3    3    0    0  0.29034163201E+03 -0.35435435769E+03  0.20342430421E+02  0.45856199115E+03  0.10566000000E+00 0.  1.
          4    1    3    3  501    0 -0.13441151360E+03  0.49280880971E+03  0.40299907622E+03  0.65064216997E+03  0.00000000000E+00 0.  1.
         13    1    1    2    0    0 -0.15593011841E+03 -0.13845445202E+03 -0.24368399027E+03  0.32072688598E+03  0.10566000000E+00 0. -1.
<mgrwt>
<rscale>  1 0.68850954E+03</rscale>
<asrwt>0</asrwt>
<pdfrwt beam="1">  1       21 0.12381450E+00 0.10252394E+04</pdfrwt>
<pdfrwt beam="2">  1        4 0.96174887E-01 0.10252394E+04</pdfrwt>
<totfact> 0.16167716E+01</totfact>
</mgrwt>
</event>
<event>
 6    1  0.1353269E-005  0.1094802E+04  0.7818608E-02  0.9463271E-01
          4   -1    0    0  502    0 -0.00000000000E+00  0.00000000000E+00  0.50352607628E+03  0.50352607628E+03  0.00000000000E+00 0.  1.
         21   -1    0    0  501  502  0.00000000000E+00 -0.00000000000E+00 -0.12861886578E+04  0.12861886578E+04  0.00000000000E+00 0.  1.
    9000010    2    1    2  501    0 -0.39211265288E+03 -0.19410428220E+03 -0.79339042950E+03  0.13520574448E+04  0.10035746886E+04 0.  0.
        -13    1    3    3    0    0 -0.21055762817E+02 -0.56149735233E+03 -0.31654806656E+03  0.64492271741E+03  0.10566000000E+00 0.  1.
          4    1    3    3  501    0 -0.37105689006E+03  0.36739307013E+03 -0.47684236293E+03  0.70713472742E+03  0.00000000000E+00 0.  1.
         13    1    1    2    0    0  0.39211265288E+03  0.19410428220E+03  0.10727848008E+02  0.43765728921E+03  0.10566000000E+00 0. -1.
<mgrwt>
<rscale>  1 0.87046746E+03</rscale>
<asrwt>0</asrwt>
<pdfrwt beam="2">  1       21 0.19787518E+00 0.10948018E+04</pdfrwt>
<pdfrwt beam="1">  1        4 0.77465550E-01 0.10948018E+04</pdfrwt>
<totfact> 0.69694621E+00</totfact>
</mgrwt>
</event>
<event>
 6    1  0.1353269E-005  0.1164863E+04  0.7818608E-02  0.9334409E-01
          4   -1    0    0  502    0 -0.00000000000E+00  0.00000000000E+00  0.43578528103E+03  0.43578528103E+03  0.00000000000E+00 0.  1.
         21   -1    0    0  501  502  0.00000000000E+00 -0.00000000000E+00 -0.17406454920E+04  0.17406454920E+04  0.00000000000E+00 0. -1.
    9000010    2    1    2  501    0 -0.44991187570E+03  0.35945274255E+03 -0.91024857575E+03  0.14783295455E+04  0.10125605194E+04 0.  0.
        -13    1    3    3    0    0 -0.55839732989E+03  0.30830394867E+03 -0.83931358328E+02  0.64335323647E+03  0.10566000000E+00 0.  1.
          4    1    3    3  501    0  0.10848545419E+03  0.51148793881E+02 -0.82631721742E+03  0.83497630906E+03  0.00000000000E+00 0.  1.
         13    1    1    2    0    0  0.44991187570E+03 -0.35945274255E+03 -0.39461163521E+03  0.69810122750E+03  0.10566000000E+00 0. -1.
<mgrwt>
<rscale>  1 0.97675888E+03</rscale>
<asrwt>0</asrwt>
<pdfrwt beam="2">  1       21 0.26779161E+00 0.11648630E+04</pdfrwt>
<pdfrwt beam="1">  1        4 0.67043890E-01 0.11648630E+04</pdfrwt>
<totfact> 0.33336963E+00</totfact>
</mgrwt>
</event>
<event>
 6    1  0.1353269E-005  0.1006807E+04  0.7818608E-02  0.9888713E-01
         21   -1    0    0  501  502  0.00000000000E+00  0.00000000000E+00  0.82183687246E+03  0.82183687246E+03  0.00000000000E+00 0.  1.
          4   -1    0    0  502    0 -0.00000000000E+00 -0.00000000000E+00 -0.39617658667E+03  0.39617658667E+03  0.00000000000E+00 0.  1.
    9000010    2    1    2  501    0 -0.12442806324E+03  0.49733203941E+02  0.36504909259E+03  0.10709438756E+04  0.99784979340E+03 0.  0.
        -13    1    3    3    0    0 -0.49619081382E+03 -0.22417285408E+03  0.21524257730E+03  0.58548114442E+03  0.10566000000E+00 0.  1.
          4    1    3    3  501    0  0.37176275058E+03  0.27390605803E+03  0.14980651529E+03  0.48546273118E+03  0.00000000000E+00 0.  1.
         13    1    1    2    0    0  0.12442806324E+03 -0.49733203941E+02  0.60611193206E+02  0.14706958353E+03  0.10566000000E+00 0. -1.
<mgrwt>
<rscale>  1 0.60811413E+03</rscale>
<asrwt>0</asrwt>
<pdfrwt beam="1">  1       21 0.12643644E+00 0.10068068E+04</pdfrwt>
<pdfrwt beam="2">  1        4 0.60950244E-01 0.10068068E+04</pdfrwt>
<totfact> 0.43377497E+01</totfact>
</mgrwt>
</event>
<event>
 6    1  0.1353269E-005  0.1005144E+04  0.7818608E-02  0.9966398E-01
          4   -1    0    0  502    0 -0.00000000000E+00  0.00000000000E+00  0.65132101565E+03  0.65132101565E+03  0.00000000000E+00 0.  1.
         21   -1    0    0  501  502  0.00000000000E+00 -0.00000000000E+00 -0.48634942666E+03  0.48634942666E+03  0.00000000000E+00 0.  1.
    9000010    2    1    2  501    0  0.11403176786E+02  0.10441432752E+03  0.91108985331E+02  0.10092645249E+04  0.99964076040E+03 0.  0.
        -13    1    3    3    0    0 -0.42350283838E+03  0.28908963348E+03 -0.52463367710E+02  0.51544144810E+03  0.10566000000E+00 0.  1.
          4    1    3    3  501    0  0.43490601517E+03 -0.18467530596E+03  0.14357235304E+03  0.49382307684E+03  0.00000000000E+00 0.  1.
         13    1    1    2    0    0 -0.11403176786E+02 -0.10441432752E+03  0.73862603668E+02  0.12840591737E+03  0.10566000000E+00 0. -1.
<mgrwt>
<rscale>  1 0.57148505E+03</rscale>
<asrwt>0</asrwt>
<pdfrwt beam="2">  1       21 0.74822988E-01 0.10051438E+04</pdfrwt>
<pdfrwt beam="1">  1        4 0.10020323E+00 0.10051438E+04</pdfrwt>
<totfact> 0.50658454E+01</totfact>
</mgrwt>
</event>
<event>
 6    1  0.1353269E-005  0.1031393E+04  0.7818608E-02  0.9752871E-01
          4   -1    0    0  502    0 -0.00000000000E+00  0.00000000000E+00  0.27552928138E+04  0.27552928138E+04  0.00000000000E+00 0.  1.
         21   -1    0    0  501  502  0.00000000000E+00 -0.00000000000E+00 -0.13966895484E+03  0.13966895484E+03  0.00000000000E+00 0.  1.
    9000010    2    1    2  501    0  0.18795825662E+03 -0.49449567454E+02  0.20141747365E+04  0.22628900765E+04  0.10129156249E+04 0.  0.
        -13    1    3    3    0    0 -0.73424941465E+02 -0.48902541614E+03  0.12408337924E+04  0.13357415885E+04  0.10566000000E+00 0.  1.
          4    1    3    3  501    0  0.26138319809E+03  0.43957584869E+03  0.77334094406E+03  0.92714848797E+03  0.00000000000E+00 0.  1.
         13    1    1    2    0    0 -0.18795825662E+03  0.49449567454E+02  0.60144912241E+03  0.63207169211E+03  0.10566000000E+00 0. -1.
<mgrwt>
<rscale>  1 0.67954257E+03</rscale>
<asrwt>0</asrwt>
<pdfrwt beam="2">  1       21 0.21487534E-01 0.10313931E+04</pdfrwt>
<pdfrwt beam="1">  1        4 0.42389116E+00 0.10313931E+04</pdfrwt>
<totfact> 0.39771949E+00</totfact>
</mgrwt>
</event>
<event>
 6    1  0.1353269E-005  0.1000113E+04  0.7818608E-02  0.1015134E+00
          4   -1    0    0  502    0 -0.00000000000E+00  0.00000000000E+00  0.47600212755E+03  0.47600212755E+03  0.00000000000E+00 0.  1.
         21   -1    0    0  501  502  0.00000000000E+00 -0.00000000000E+00 -0.81601902550E+03  0.81601902550E+03  0.00000000000E+00 0.  1.
    9000010    2    1    2  501    0  0.59868346115E+02 -0.29253109918E+01 -0.50219682698E+03  0.11191191089E+04  0.99831515598E+03 0.  0.
        -13    1    3    3    0    0 -0.29042380578E+03  0.62895607237E+02 -0.66417302628E+03  0.72761780103E+03  0.10566000000E+00 0.  1.
          4    1    3    3  501    0  0.35029215190E+03 -0.65820918229E+02  0.16197619930E+03  0.39150130791E+03  0.00000000000E+00 0.  1.
         13    1    1    2    0    0 -0.59868346115E+02  0.29253109918E+01  0.16217992904E+03  0.17290204411E+03  0.10566000000E+00 0. -1.
<mgrwt>
<rscale>  1 0.49484106E+03</rscale>
<asrwt>0</asrwt>
<pdfrwt beam="2">  1       21 0.12554139E+00 0.10001130E+04</pdfrwt>
<pdfrwt beam="1">  1        4 0.73231096E-01 0.10001130E+04</pdfrwt>
<totfact> 0.29419677E+01</totfact>
</mgrwt>
</event>
<event>
 6    1  0.1353269E-005  0.1283868E+04  0.7818608E-02  0.9170161E-01
         21   -1    0    0  501  502  0.00000000000E+00  0.00000000000E+00  0.10570533563E+04  0.10570533563E+04  0.00000000000E+00 0. -1.
          4   -1    0    0  502    0 -0.00000000000E+00 -0.00000000000E+00 -0.10208207101E+04  0.10208207101E+04  0.00000000000E+00 0.  1.
    9000010    2    1    2  501    0 -0.59750066259E+03  0.51504007025E+03  0.91307799744E+02  0.12871107646E+04  0.10129381473E+04 0.  0.
        -13    1    3    3    0    0 -0.19386691382E+03  0.31006551174E+03  0.53840388519E+03  0.65084848974E+03  0.10566000000E+00 0.  1.
          4    1    3    3  501    0 -0.40363374877E+03  0.20497455851E+03 -0.44709608545E+03  0.63626227486E+03  0.00000000000E+00 0.  1.
         13    1    1    2    0    0  0.59750066259E+03 -0.51504007025E+03 -0.55075153582E+02  0.79076330179E+03  0.10566000000E+00 0. -1.
<mgrwt>
<rscale>  1 0.11366792E+04</rscale>
<asrwt>0</asrwt>
<pdfrwt beam="1">  1       21 0.16262359E+00 0.12838680E+04</pdfrwt>
<pdfrwt beam="2">  1        4 0.15704934E+00 0.12838680E+04</pdfrwt>
<totfact> 0.21271276E+00</totfact>
</mgrwt>
</event>
<event>
 6    1  0.1353269E-005  0.9150193E+03  0.7818608E-02  0.9878959E-01
          4   -1    0    0  502    0 -0.00000000000E+00  0.00000000000E+00  0.12850731688E+04  0.12850731688E+04  0.00000000000E+00 0.  1.
         21   -1    0    0  501  502  0.00000000000E+00 -0.00000000000E+00 -0.27608535952E+03  0.27608535952E+03  0.00000000000E+00 0.  1.
    9000010    2    1    2  501    0 -0.16432250073E+03 -0.83264420347E+02  0.55245900945E+03  0.10688645062E+04  0.89628428951E+03 0.  0.
        -13    1    3    3    0    0  0.25822522395E+03  0.26128743497E+03  0.18438849822E+03  0.41103591011E+03  0.10566000000E+00 0.  1.
          4    1    3    3  501    0 -0.42254772469E+03 -0.34455185532E+03  0.36807051123E+03  0.65782859613E+03  0.00000000000E+00 0.  1.
         13    1    1    2    0    0  0.16432250073E+03  0.83264420347E+02  0.45652879980E+03  0.49229402206E+03  0.10566000000E+00 0. -1.
<mgrwt>
<rscale>  1 0.61291953E+03</rscale>
<asrwt>0</asrwt>
<pdfrwt beam="2">  1       21 0.42474671E-01 0.91501933E+03</pdfrwt>
<pdfrwt beam="1">  1        4 0.19770356E+00 0.91501933E+03</pdfrwt>
<totfact> 0.29267517E+01</totfact>
</mgrwt>
</event>
<event>
 6    1  0.1353269E-005  0.1107936E+04  0.7818608E-02  0.9455449E-01
          4   -1    0    0  502    0 -0.00000000000E+00  0.00000000000E+00  0.17038533960E+04  0.17038533960E+04  0.00000000000E+00 0.  1.
         21   -1    0    0  501  502  0.00000000000E+00 -0.00000000000E+00 -0.36626094187E+03  0.36626094187E+03  0.00000000000E+00 0.  1.
    9000010    2    1    2  501    0  0.40840404426E+03 -0.14674164318E+03  0.11514125851E+04  0.15978962442E+04  0.10194088938E+04 0.  0.
        -13    1    3    3    0    0 -0.30143493827E+03 -0.23393191830E+03  0.51217575112E+03  0.63867924313E+03  0.10566000000E+00 0.  1.
          4    1    3    3  501    0  0.70983898253E+03  0.87190275121E+02  0.63923683398E+03  0.95921700105E+03  0.00000000000E+00 0.  1.
         13    1    1    2    0    0 -0.40840404426E+03  0.14674164318E+03  0.18617986903E+03  0.47221809369E+03  0.10566000000E+00 0. -1.
<mgrwt>
<rscale>  1 0.87649619E+03</rscale>
<asrwt>0</asrwt>
<pdfrwt beam="2">  1       21 0.56347838E-01 0.11079357E+04</pdfrwt>
<pdfrwt beam="1">  1        4 0.26213129E+00 0.11079357E+04</pdfrwt>
<totfact> 0.60833597E+00</totfact>
</mgrwt>
</event>
<event>
 6    1  0.1353269E-005  0.9866061E+03  0.7818608E-02  0.9877921E-01
          4   -1    0    0  502    0 -0.00000000000E+00  0.00000000000E+00  0.27840407528E+03  0.27840407528E+03  0.00000000000E+00 0.  1.
         21   -1    0    0  501  502  0.00000000000E+00 -0.00000000000E+00 -0.11954896015E+04  0.11954896015E+04  0.00000000000E+00 0.  1.
    9000010    2    1    2  501    0 -0.28394937735E+02  0.14468789626E+03 -0.87955468523E+03  0.13217442929E+04  0.97552584371E+03 0.  0.
        -13    1    3    3    0    0 -0.45556632930E+03  0.27912406665E+03 -0.41530578236E+03  0.67670512707E+03  0.10566000000E+00 0.  1.
          4    1    3    3  501    0  0.42717139156E+03 -0.13443617038E+03 -0.46424890286E+03  0.64503916585E+03  0.00000000000E+00 0.  1.
         13    1    1    2    0    0  0.28394937735E+02 -0.14468789626E+03 -0.37530840980E+02  0.15214938384E+03  0.10566000000E+00 0. -1.
<mgrwt>
<rscale>  1 0.61343345E+03</rscale>
<asrwt>0</asrwt>
<pdfrwt beam="2">  1       21 0.18392148E+00 0.98660607E+03</pdfrwt>
<pdfrwt beam="1">  1        4 0.42831396E-01 0.98660607E+03</pdfrwt>
<totfact> 0.31970057E+01</totfact>
</mgrwt>
</event>
<event>
 6    1  0.1353269E-005  0.1019166E+04  0.7818608E-02  0.9778623E-01
         21   -1    0    0  501  502  0.00000000000E+00  0.00000000000E+00  0.58997066424E+03  0.58997066424E+03  0.00000000000E+00 0.  1.
          4   -1    0    0  502    0 -0.00000000000E+00 -0.00000000000E+00 -0.61792651699E+03  0.61792651699E+03  0.00000000000E+00 0.  1.
    9000010    2    1    2  501    0  0.18445889816E+03  0.13955310004E+02 -0.56456642541E+02  0.10207284286E+04  0.10022371659E+04 0.  0.
        -13    1    3    3    0    0  0.28445098700E+03  0.36890419794E+03 -0.32201147001E+03  0.56629856900E+03  0.10566000000E+00 0.  1.
          4    1    3    3  501    0 -0.99992088839E+02 -0.35494888794E+03  0.26555482747E+03  0.45442985957E+03  0.00000000000E+00 0.  1.
         13    1    1    2    0    0 -0.18445889816E+03 -0.13955310004E+02  0.28500789793E+02  0.18716875266E+03  0.10566000000E+00 0. -1.
<mgrwt>
<rscale>  1 0.66522488E+03</rscale>
<asrwt>0</asrwt>
<pdfrwt beam="1">  1       21 0.90764718E-01 0.10191659E+04</pdfrwt>
<pdfrwt beam="2">  1        4 0.95065618E-01 0.10191659E+04</pdfrwt>
<totfact> 0.36322772E+01</totfact>
</mgrwt>
</event>
<event>
 6    1  0.1353269E-005  0.1152100E+04  0.7818608E-02  0.9460351E-01
          4   -1    0    0  502    0 -0.00000000000E+00  0.00000000000E+00  0.93565533392E+03  0.93565533392E+03  0.00000000000E+00 0.  1.
         21   -1    0    0  501  502  0.00000000000E+00 -0.00000000000E+00 -0.66283672924E+03  0.66283672924E+03  0.00000000000E+00 0.  1.
    9000010    2    1    2  501    0  0.10456989182E+03 -0.36462769863E+03  0.38730086463E+02  0.11527503595E+04  0.10878626525E+04 0.  0.
        -13    1    3    3    0    0 -0.12645314642E+03 -0.45614423008E+03 -0.41884837637E+03  0.63205374015E+03  0.10566000000E+00 0.  1.
          4    1    3    3  501    0  0.23102303824E+03  0.91516531455E+02  0.45757846284E+03  0.52069661933E+03  0.00000000000E+00 0.  1.
         13    1    1    2    0    0 -0.10456989182E+03  0.36462769863E+03  0.23408851822E+03  0.44574170369E+03  0.10566000000E+00 0. -1.
<mgrwt>
<rscale>  1 0.87271143E+03</rscale>
<asrwt>0</asrwt>
<pdfrwt beam="2">  1       21 0.10197488E+00 0.11520995E+04</pdfrwt>
<pdfrwt beam="1">  1        4 0.14394697E+00 0.11520995E+04</pdfrwt>
<totfact> 0.95141634E+00</totfact>
</mgrwt>
</event>
<event>
 6    1  0.1353269E-005  0.1433396E+04  0.7818608E-02  0.9013689E-01
          4   -1    0    0  502    0 -0.00000000000E+00  0.00000000000E+00  0.19218066705E+04  0.19218066705E+04  0.00000000000E+00 0.  1.
         21   -1    0    0  501  502  0.00000000000E+00 -0.00000000000E+00 -0.82917468433E+03  0.82917468433E+03  0.00000000000E+00 0. -1.
    9000010    2    1    2  501    0  0.44744535658E+03 -0.92941493874E+03  0.92497602208E+03  0.17059320694E+04  0.99529096672E+03 0.  0.
        -13    1    3    3    0    0 -0.26816633528E+03 -0.27618993376E+03  0.28679616118E+02  0.38602667580E+03  0.10566000000E+00 0.  1.
          4    1    3    3  501    0  0.71561169186E+03 -0.65322500498E+03  0.89629640596E+03  0.13199053936E+04  0.00000000000E+00 0.  1.
         13    1    1    2    0    0 -0.44744535658E+03  0.92941493874E+03  0.16765596404E+03  0.10450492854E+04  0.10566000000E+00 0. -1.
<mgrwt>
<rscale>  1 0.13202110E+04</rscale>
<asrwt>0</asrwt>
<pdfrwt beam="2">  1       21 0.12756534E+00 0.14333958E+04</pdfrwt>
<pdfrwt beam="1">  1        4 0.29566256E+00 0.14333958E+04</pdfrwt>
<totfact> 0.50545517E-01</totfact>
</mgrwt>
</event>
<event>
 6    1  0.1353269E-005  0.1138952E+04  0.7818608E-02  0.9344282E-01
         21   -1    0    0  501  502  0.00000000000E+00  0.00000000000E+00  0.76183162601E+03  0.76183162601E+03  0.00000000000E+00 0. -1.
          4   -1    0    0  502    0 -0.00000000000E+00 -0.00000000000E+00 -0.10178685011E+04  0.10178685011E+04  0.00000000000E+00 0.  1.
    9000010    2    1    2  501    0 -0.46629353047E+03 -0.36866843869E+03 -0.31675466659E+03  0.11821779638E+04  0.97152722305E+03 0.  0.
        -13    1    3    3    0    0 -0.14653745550E+03  0.17620985696E+03 -0.47804531620E+03  0.53014193860E+03  0.10566000000E+00 0.  1.
          4    1    3    3  501    0 -0.31975607497E+03 -0.54487829565E+03  0.16129064961E+03  0.65203602523E+03  0.00000000000E+00 0.  1.
         13    1    1    2    0    0  0.46629353047E+03  0.36866843869E+03  0.60717791491E+02  0.59752216328E+03  0.10566000000E+00 0. -1.
<mgrwt>
<rscale>  1 0.96806407E+03</rscale>
<asrwt>0</asrwt>
<pdfrwt beam="1">  1       21 0.11720487E+00 0.11389518E+04</pdfrwt>
<pdfrwt beam="2">  1        4 0.15659515E+00 0.11389518E+04</pdfrwt>
<totfact> 0.53323259E+00</totfact>
</mgrwt>
</event>
<event>
 6    1  0.1353269E-005  0.1133179E+04  0.7818608E-02  0.9370419E-01
         21   -1    0    0  501  502  0.00000000000E+00  0.00000000000E+00  0.86844375956E+03  0.86844375956E+03  0.00000000000E+00 0. -1.
          4   -1    0    0  502    0 -0.00000000000E+00 -0.00000000000E+00 -0.90597617484E+03  0.90597617484E+03  0.00000000000E+00 0.  1.
    9000010    2    1    2  501    0  0.37414311481E+03 -0.40209623438E+03  0.24110397245E+03  0.11585443790E+04  0.99117581711E+03 0.  0.
        -13    1    3    3    0    0  0.60115743957E+03 -0.74497191940E+02 -0.12367018860E+03  0.61825110228E+03  0.10566000000E+00 0.  1.
          4    1    3    3  501    0 -0.22701432476E+03 -0.32759904244E+03  0.36477416105E+03  0.54029327668E+03  0.00000000000E+00 0.  1.
         13    1    1    2    0    0 -0.37414311481E+03  0.40209623438E+03 -0.27863638773E+03  0.61587555544E+03  0.10566000000E+00 0. -1.
<mgrwt>
<rscale>  1 0.94550607E+03</rscale>
<asrwt>0</asrwt>
<pdfrwt beam="1">  1       21 0.13360673E+00 0.11331787E+04</pdfrwt>
<pdfrwt beam="2">  1        4 0.13938095E+00 0.11331787E+04</pdfrwt>
<totfact> 0.51616732E+00</totfact>
</mgrwt>
</event>
<event>
 6    1  0.1353269E-005  0.1380794E+04  0.7818608E-02  0.9070409E-01
         21   -1    0    0  501  502  0.00000000000E+00  0.00000000000E+00  0.70932861801E+03  0.70932861801E+03  0.00000000000E+00 0. -1.
          4   -1    0    0  502    0 -0.00000000000E+00 -0.00000000000E+00 -0.18957668048E+04  0.18957668048E+04  0.00000000000E+00 0.  1.
    9000010    2    1    2  501    0 -0.42779472462E+03 -0.82189853506E+03 -0.83793736706E+03  0.16151568586E+04  0.10237514925E+04 0.  0.
        -13    1    3    3    0    0  0.13192733261E+03 -0.63405460627E+03 -0.77236009838E+02  0.65222348716E+03  0.10566000000E+00 0.  1.
          4    1    3    3  501    0 -0.55972205723E+03 -0.18784392879E+03 -0.76070135723E+03  0.96293337143E+03  0.00000000000E+00 0.  1.
         13    1    1    2    0    0  0.42779472462E+03  0.82189853506E+03 -0.34850081970E+03  0.98993856417E+03  0.10566000000E+00 0. -1.
<mgrwt>
<rscale>  1 0.12497292E+04</rscale>
<asrwt>0</asrwt>
<pdfrwt beam="1">  1       21 0.10912748E+00 0.13807942E+04</pdfrwt>
<pdfrwt beam="2">  1        4 0.29165643E+00 0.13807942E+04</pdfrwt>
<totfact> 0.80947285E-01</totfact>
</mgrwt>
</event>
<event>
 6    1  0.1353269E-005  0.1004083E+04  0.7818608E-02  0.9867615E-01
          4   -1    0    0  502    0 -0.00000000000E+00  0.00000000000E+00  0.46864673719E+03  0.46864673719E+03  0.00000000000E+00 0.  1.
         21   -1    0    0  501  502  0.00000000000E+00 -0.00000000000E+00 -0.79330069359E+03  0.79330069359E+03  0.00000000000E+00 0.  1.
    9000010    2    1    2  501    0 -0.10164056458E+03  0.10288481215E+03 -0.42035919541E+03  0.10885242695E+04  0.99361317582E+03 0.  0.
        -13    1    3    3    0    0  0.10501298725E+03  0.43889713822E+03 -0.51307153813E+03  0.68330142678E+03  0.10566000000E+00 0.  1.
          4    1    3    3  501    0 -0.20665355183E+03 -0.33601232607E+03  0.92712342728E+02  0.40522284271E+03  0.00000000000E+00 0.  1.
         13    1    1    2    0    0  0.10164056458E+03 -0.10288481215E+03  0.95705239001E+02  0.17342316130E+03  0.10566000000E+00 0. -1.
<mgrwt>
<rscale>  1 0.61856792E+03</rscale>
<asrwt>0</asrwt>
<pdfrwt beam="2">  1       21 0.12204626E+00 0.10040833E+04</pdfrwt>
<pdfrwt beam="1">  1        4 0.72099498E-01 0.10040833E+04</pdfrwt>
<totfact> 0.32802581E+01</totfact>
</mgrwt>
</event>
<event>
 6    1  0.1353269E-005  0.9906102E+03  0.7818608E-02  0.9801499E-01
         21   -1    0    0  501  502  0.00000000000E+00  0.00000000000E+00  0.97274998807E+03  0.97274998807E+03  0.00000000000E+00 0.  1.
          4   -1    0    0  502    0 -0.00000000000E+00 -0.00000000000E+00 -0.35771510136E+03  0.35771510136E+03  0.00000000000E+00 0.  1.
    9000010    2    1    2  501    0  0.16366868758E+03  0.90121095991E+02  0.54716846194E+03  0.11316810005E+04  0.97283056588E+03 0.  0.
        -13    1    3    3    0    0 -0.29688125468E+03 -0.11764822919E+03  0.53884535413E+03  0.62636563766E+03  0.10566000000E+00 0.  1.
          4    1    3    3  501    0  0.46054994226E+03  0.20776932518E+03  0.83231078020E+01  0.50531536284E+03  0.00000000000E+00 0.  1.
         13    1    1    2    0    0 -0.16366868758E+03 -0.90121095991E+02  0.67866424769E+02  0.19878408893E+03  0.10566000000E+00 0. -1.
<mgrwt>
<rscale>  1 0.65282185E+03</rscale>
<asrwt>0</asrwt>
<pdfrwt beam="1">  1       21 0.14965384E+00 0.99061020E+03</pdfrwt>
<pdfrwt beam="2">  1        4 0.55033093E-01 0.99061020E+03</pdfrwt>
<totfact> 0.34336081E+01</totfact>
</mgrwt>
</event>
<event>
 6    1  0.1353269E-005  0.1028778E+04  0.7818608E-02  0.9689802E-01
         21   -1    0    0  501  502  0.00000000000E+00  0.00000000000E+00  0.98460340163E+03  0.98460340163E+03  0.00000000000E+00 0.  1.
          4   -1    0    0  502    0 -0.00000000000E+00 -0.00000000000E+00 -0.45320164515E+03  0.45320164515E+03  0.00000000000E+00 0.  1.
    9000010    2    1    2  501    0 -0.23105434994E+03  0.71077798889E+02  0.59419161528E+03  0.11880436734E+04  0.99997296363E+03 0.  0.
        -13    1    3    3    0    0 -0.22065315359E+03  0.12361944992E+03 -0.24205352656E+03  0.35008499464E+03  0.10566000000E+00 0.  1.
          4    1    3    3  501    0 -0.10401196352E+02 -0.52541651028E+02  0.83624514184E+03  0.83795867871E+03  0.00000000000E+00 0.  1.
         13    1    1    2    0    0  0.23105434994E+03 -0.71077798889E+02 -0.62789858805E+02  0.24976137342E+03  0.10566000000E+00 0. -1.
<mgrwt>
<rscale>  1 0.71627257E+03</rscale>
<asrwt>0</asrwt>
<pdfrwt beam="1">  1       21 0.15147745E+00 0.10287780E+04</pdfrwt>
<pdfrwt beam="2">  1        4 0.69723330E-01 0.10287780E+04</pdfrwt>
<totfact> 0.19688766E+01</totfact>
</mgrwt>
</event>
<event>
 6    1  0.1353269E-005  0.1132999E+04  0.7818608E-02  0.9380969E-01
          4   -1    0    0  502    0 -0.00000000000E+00  0.00000000000E+00  0.43183187422E+03  0.43183187422E+03  0.00000000000E+00 0.  1.
         21   -1    0    0  501  502  0.00000000000E+00 -0.00000000000E+00 -0.18365659521E+04  0.18365659521E+04  0.00000000000E+00 0. -1.
    9000010    2    1    2  501    0  0.24305712069E+03  0.46991942323E+03 -0.13081622107E+04  0.17305993837E+04  0.10018906273E+04 0.  0.
        -13    1    3    3    0    0 -0.14675634988E+03  0.66576074967E+03 -0.65687792805E+03  0.94671190209E+03  0.10566000000E+00 0.  1.
          4    1    3    3  501    0  0.38981347057E+03 -0.19584132644E+03 -0.65128428262E+03  0.78388748158E+03  0.00000000000E+00 0.  1.
         13    1    1    2    0    0 -0.24305712069E+03 -0.46991942323E+03 -0.96571867237E+02  0.53779844268E+03  0.10566000000E+00 0. -1.
<mgrwt>
<rscale>  1 0.93658586E+03</rscale>
<asrwt>0</asrwt>
<pdfrwt beam="2">  1       21 0.28254860E+00 0.11329986E+04</pdfrwt>
<pdfrwt beam="1">  1        4 0.66435674E-01 0.11329986E+04</pdfrwt>
<totfact> 0.27615910E+00</totfact>
</mgrwt>
</event>
<event>
 6    1  0.1353269E-005  0.1027339E+04  0.7818608E-02  0.9802687E-01
         21   -1    0    0  501  502  0.00000000000E+00  0.00000000000E+00  0.10896714532E+04  0.10896714532E+04  0.00000000000E+00 0.  1.
          4   -1    0    0  502    0 -0.00000000000E+00 -0.00000000000E+00 -0.35259038057E+03  0.35259038057E+03  0.00000000000E+00 0.  1.
    9000010    2    1    2  501    0  0.15312221776E+03 -0.66292730494E+02  0.75430272404E+03  0.12745187680E+04  0.10136983529E+04 0.  0.
        -13    1    3    3    0    0  0.27516997861E+03  0.10544657706E+03 -0.16064558950E+03  0.33562555673E+03  0.10566000000E+00 0.  1.
          4    1    3    3  501    0 -0.12204776085E+03 -0.17173930756E+03  0.91494831354E+03  0.93889321125E+03  0.00000000000E+00 0.  1.
         13    1    1    2    0    0 -0.15312221776E+03  0.66292730494E+02 -0.17221651379E+02  0.16774306581E+03  0.10566000000E+00 0. -1.
<mgrwt>
<rscale>  1 0.65218565E+03</rscale>
<asrwt>0</asrwt>
<pdfrwt beam="1">  1       21 0.16764176E+00 0.10273390E+04</pdfrwt>
<pdfrwt beam="2">  1        4 0.54244674E-01 0.10273390E+04</pdfrwt>
<totfact> 0.25532406E+01</totfact>
</mgrwt>
</event>
<event>
 6    1  0.1353269E-005  0.9733839E+03  0.7818608E-02  0.9719293E-01
          4   -1    0    0  502    0 -0.00000000000E+00  0.00000000000E+00  0.54831799245E+03  0.54831799245E+03  0.00000000000E+00 0.  1.
         21   -1    0    0  501  502  0.00000000000E+00 -0.00000000000E+00 -0.85311026037E+03  0.85311026037E+03  0.00000000000E+00 0.  1.
    9000010    2    1    2  501    0  0.25479319996E+03  0.43932260402E+02 -0.48376939813E+03  0.10869724649E+04  0.93841711976E+03 0.  0.
        -13    1    3    3    0    0 -0.26437769062E+03  0.28028685677E+03 -0.29784078255E+03  0.48699633293E+03  0.10566000000E+00 0.  1.
          4    1    3    3  501    0  0.51917089059E+03 -0.23635459636E+03 -0.18592861558E+03  0.59997613198E+03  0.00000000000E+00 0.  1.
         13    1    1    2    0    0 -0.25479319996E+03 -0.43932260402E+02  0.17897713020E+03  0.31445578791E+03  0.10566000000E+00 0. -1.
<mgrwt>
<rscale>  1 0.69879616E+03</rscale>
<asrwt>0</asrwt>
<pdfrwt beam="2">  1       21 0.13124773E+00 0.97338395E+03</pdfrwt>
<pdfrwt beam="1">  1        4 0.84356615E-01 0.97338395E+03</pdfrwt>
<totfact> 0.18973366E+01</totfact>
</mgrwt>
</event>
<event>
 6    1  0.1353269E-005  0.1032181E+04  0.7818608E-02  0.9681018E-01
          4   -1    0    0  502    0 -0.00000000000E+00  0.00000000000E+00  0.23258128149E+04  0.23258128149E+04  0.00000000000E+00 0.  1.
         21   -1    0    0  501  502  0.00000000000E+00 -0.00000000000E+00 -0.23810037445E+03  0.23810037445E+03  0.00000000000E+00 0. -1.
    9000010    2    1    2  501    0 -0.87794104379E+02  0.23037195764E+03  0.20744124529E+04  0.23170206126E+04  0.10023065653E+04 0.  0.
        -13    1    3    3    0    0 -0.22339237036E+03 -0.30730940984E+03  0.39338440671E+03  0.54689535298E+03  0.10566000000E+00 0.  1.
          4    1    3    3  501    0  0.13559826598E+03  0.53768136747E+03  0.16810280462E+04  0.17701252596E+04  0.00000000000E+00 0.  1.
         13    1    1    2    0    0  0.87794104379E+02 -0.23037195764E+03  0.13299987579E+02  0.24689257677E+03  0.10566000000E+00 0. -1.
<mgrwt>
<rscale>  1 0.72158280E+03</rscale>
<asrwt>0</asrwt>
<pdfrwt beam="2">  1       21 0.36630828E-01 0.10321809E+04</pdfrwt>
<pdfrwt beam="1">  1        4 0.35781734E+00 0.10321809E+04</pdfrwt>
<totfact> 0.38643048E+00</totfact>
</mgrwt>
</event>
<event>
 6    1  0.1353269E-005  0.1020457E+04  0.7818608E-02  0.9690921E-01
         21   -1    0    0  501  502  0.00000000000E+00  0.00000000000E+00  0.29486724703E+03  0.29486724703E+03  0.00000000000E+00 0.  1.
          4   -1    0    0  502    0 -0.00000000000E+00 -0.00000000000E+00 -0.15699175473E+04  0.15699175473E+04  0.00000000000E+00 0.  1.
    9000010    2    1    2  501    0 -0.14777992846E+03  0.19762949845E+03 -0.69562855491E+03  0.12350023747E+04  0.99016940632E+03 0.  0.
        -13    1    3    3    0    0 -0.39053248378E+02  0.30182156865E+03 -0.91760941607E+03  0.96676184613E+03  0.10566000000E+00 0.  1.
          4    1    3    3  501    0 -0.10872668008E+03 -0.10419207020E+03  0.22198086115E+03  0.26824052858E+03  0.00000000000E+00 0.  1.
         13    1    1    2    0    0  0.14777992846E+03 -0.19762949845E+03 -0.57942174532E+03  0.62978241959E+03  0.10566000000E+00 0. -1.
<mgrwt>
<rscale>  1 0.71559915E+03</rscale>
<asrwt>0</asrwt>
<pdfrwt beam="1">  1       21 0.45364192E-01 0.10204567E+04</pdfrwt>
<pdfrwt beam="2">  1        4 0.24152577E+00 0.10204567E+04</pdfrwt>
<totfact> 0.13198604E+01</totfact>
</mgrwt>
</event>
<event>
 6    1  0.1353269E-005  0.1003291E+04  0.7818608E-02  0.9774483E-01
         21   -1    0    0  501  502  0.00000000000E+00  0.00000000000E+00  0.62156643091E+03  0.62156643091E+03  0.00000000000E+00 0.  1.
          4   -1    0    0  502    0 -0.00000000000E+00 -0.00000000000E+00 -0.58770586043E+03  0.58770586043E+03  0.00000000000E+00 0.  1.
    9000010    2    1    2  501    0  0.14214365042E+03 -0.13578184636E+03  0.82785994451E+02  0.10067007350E+04  0.98384517168E+03 0.  0.
        -13    1    3    3    0    0 -0.26587541332E+03 -0.29978075595E+03 -0.23465499311E+03  0.46435031388E+03  0.10566000000E+00 0.  1.
          4    1    3    3  501    0  0.40801906374E+03  0.16399890959E+03  0.31744098756E+03  0.54235042113E+03  0.00000000000E+00 0.  1.
         13    1    1    2    0    0 -0.14214365042E+03  0.13578184636E+03 -0.48925423979E+02  0.20257155633E+03  0.10566000000E+00 0. -1.
<mgrwt>
<rscale>  1 0.66750111E+03</rscale>
<asrwt>0</asrwt>
<pdfrwt beam="1">  1       21 0.95625604E-01 0.10032910E+04</pdfrwt>
<pdfrwt beam="2">  1        4 0.90416287E-01 0.10032910E+04</pdfrwt>
<totfact> 0.36074713E+01</totfact>
</mgrwt>
</event>
<event>
 6    1  0.1353269E-005  0.1057554E+04  0.7818608E-02  0.9748718E-01
         21   -1    0    0  501  502  0.00000000000E+00  0.00000000000E+00  0.22048578749E+03  0.22048578749E+03  0.00000000000E+00 0.  1.
          4   -1    0    0  502    0 -0.00000000000E+00 -0.00000000000E+00 -0.17717129333E+04  0.17717129333E+04  0.00000000000E+00 0.  1.
    9000010    2    1    2  501    0  0.16100282710E+03 -0.86537792476E+02 -0.12258079300E+04  0.16189583465E+04  0.10416382992E+04 0.  0.
        -13    1    3    3    0    0 -0.29161559911E+02 -0.49939277922E+03 -0.98456777384E+03  0.11043628285E+04  0.10566000000E+00 0.  1.
          4    1    3    3  501    0  0.19016438701E+03  0.41285498675E+03 -0.24124015621E+03  0.51459551799E+03  0.00000000000E+00 0.  1.
         13    1    1    2    0    0 -0.16100282710E+03  0.86537792476E+02 -0.32541921580E+03  0.37324037434E+03  0.10566000000E+00 0. -1.
<mgrwt>
<rscale>  1 0.68188748E+03</rscale>
<asrwt>0</asrwt>
<pdfrwt beam="1">  1       21 0.33920891E-01 0.10575543E+04</pdfrwt>
<pdfrwt beam="2">  1        4 0.27257122E+00 0.10575543E+04</pdfrwt>
<totfact> 0.15509723E+01</totfact>
</mgrwt>
</event>
<event>
 6    1  0.1353269E-005  0.1095177E+04  0.7818608E-02  0.9461936E-01
          4   -1    0    0  502    0 -0.00000000000E+00  0.00000000000E+00  0.14515764112E+04  0.14515764112E+04  0.00000000000E+00 0.  1.
         21   -1    0    0  501  502  0.00000000000E+00 -0.00000000000E+00 -0.67972830901E+03  0.67972830901E+03  0.00000000000E+00 0.  1.
    9000010    2    1    2  501    0  0.27292758340E+03 -0.34402523731E+03 -0.15461343928E+03  0.11060370339E+04  0.10032795099E+04 0.  0.
        -13    1    3    3    0    0  0.29849401893E+03 -0.68436107197E+03 -0.46682778462E+02  0.74808291595E+03  0.10566000000E+00 0.  1.
          4    1    3    3  501    0 -0.25566435533E+02  0.34033583466E+03 -0.10793066082E+03  0.35795411790E+03  0.00000000000E+00 0.  1.
         13    1    1    2    0    0 -0.27292758340E+03  0.34402523731E+03  0.92646154149E+03  0.10252676864E+04  0.10566000000E+00 0. -1.
<mgrwt>
<rscale>  1 0.87149253E+03</rscale>
<asrwt>0</asrwt>
<pdfrwt beam="2">  1       21 0.10457359E+00 0.10951770E+04</pdfrwt>
<pdfrwt beam="1">  1        4 0.22331945E+00 0.10951770E+04</pdfrwt>
<totfact> 0.24972316E+00</totfact>
</mgrwt>
</event>
<event>
 6    1  0.1353269E-005  0.1009500E+04  0.7818608E-02  0.9883995E-01
         21   -1    0    0  501  502  0.00000000000E+00  0.00000000000E+00  0.19961471221E+04  0.19961471221E+04  0.00000000000E+00 0.  1.
          4   -1    0    0  502    0 -0.00000000000E+00 -0.00000000000E+00 -0.19857556741E+03  0.19857556741E+03  0.00000000000E+00 0.  1.
    9000010    2    1    2  501    0 -0.53673465940E+02 -0.12383664263E+03  0.17953900556E+04  0.20597370417E+04  0.10004373415E+04 0.  0.
        -13    1    3    3    0    0  0.64783325019E+02  0.39765275008E+03  0.11670317444E+04  0.12346204650E+04  0.10566000000E+00 0.  1.
          4    1    3    3  501    0 -0.11845679096E+03 -0.52148939271E+03  0.62835831114E+03  0.82511657674E+03  0.00000000000E+00 0.  1.
         13    1    1    2    0    0  0.53673465940E+02  0.12383664263E+03  0.21814991099E+01  0.13498564778E+03  0.10566000000E+00 0. -1.
<mgrwt>
<rscale>  1 0.61043246E+03</rscale>
<asrwt>0</asrwt>
<pdfrwt beam="1">  1       21 0.30709954E+00 0.10095005E+04</pdfrwt>
<pdfrwt beam="2">  1        4 0.30550089E-01 0.10095005E+04</pdfrwt>
<totfact> 0.99901046E+00</totfact>
</mgrwt>
</event>
<event>
 6    1  0.1353269E-005  0.1046918E+04  0.7818608E-02  0.9518363E-01
          4   -1    0    0  502    0 -0.00000000000E+00  0.00000000000E+00  0.12976667624E+04  0.12976667624E+04  0.00000000000E+00 0.  1.
         21   -1    0    0  501  502  0.00000000000E+00 -0.00000000000E+00 -0.42229771172E+03  0.42229771172E+03  0.00000000000E+00 0. -1.
    9000010    2    1    2  501    0 -0.10890822062E+03 -0.39782962642E+03  0.75345471529E+03  0.12898568963E+04  0.96224081849E+03 0.  0.
        -13    1    3    3    0    0  0.69142630704E+02 -0.41268624684E+03 -0.89729193994E+02  0.42795090972E+03  0.10566000000E+00 0.  1.
          4    1    3    3  501    0 -0.17805085132E+03  0.14856620419E+02  0.84318390928E+03  0.86190598658E+03  0.00000000000E+00 0.  1.
         13    1    1    2    0    0  0.10890822062E+03  0.39782962642E+03  0.12191433542E+03  0.43010757785E+03  0.10566000000E+00 0. -1.
<mgrwt>
<rscale>  1 0.82943414E+03</rscale>
<asrwt>0</asrwt>
<pdfrwt beam="2">  1       21 0.64968879E-01 0.10469178E+04</pdfrwt>
<pdfrwt beam="1">  1        4 0.19964104E+00 0.10469178E+04</pdfrwt>
<totfact> 0.11089482E+01</totfact>
</mgrwt>
</event>
<event>
 6    1  0.1353269E-005  0.1061161E+04  0.7818608E-02  0.9632928E-01
          4   -1    0    0  502    0 -0.00000000000E+00  0.00000000000E+00  0.10280477843E+04  0.10280477843E+04  0.00000000000E+00 0.  1.
         21   -1    0    0  501  502  0.00000000000E+00 -0.00000000000E+00 -0.46165336217E+03  0.46165336217E+03  0.00000000000E+00 0.  1.
    9000010    2    1    2  501    0  0.31282276368E+02 -0.26514110285E+03  0.27856524229E+03  0.10971148080E+04  0.10270267389E+04 0.  0.
        -13    1    3    3    0    0  0.17486849117E+03 -0.34658077972E+01  0.61965587786E+03  0.64386677128E+03  0.10566000000E+00 0.  1.
          4    1    3    3  501    0 -0.14358621480E+03 -0.26167529505E+03 -0.34109063556E+03  0.45324803672E+03  0.00000000000E+00 0.  1.
         13    1    1    2    0    0 -0.31282276368E+02  0.26514110285E+03  0.28782917989E+03  0.39258633852E+03  0.10566000000E+00 0. -1.
<mgrwt>
<rscale>  1 0.75154614E+03</rscale>
<asrwt>0</asrwt>
<pdfrwt beam="2">  1       21 0.71023594E-01 0.10611608E+04</pdfrwt>
<pdfrwt beam="1">  1        4 0.15816120E+00 0.10611608E+04</pdfrwt>
<totfact> 0.17689232E+01</totfact>
</mgrwt>
</event>
<event>
 6    1  0.1353269E-005  0.1026704E+04  0.7818608E-02  0.9728242E-01
         21   -1    0    0  501  502  0.00000000000E+00  0.00000000000E+00  0.13560575757E+04  0.13560575757E+04  0.00000000000E+00 0.  1.
          4   -1    0    0  502    0 -0.00000000000E+00 -0.00000000000E+00 -0.37792319222E+03  0.37792319222E+03  0.00000000000E+00 0.  1.
    9000010    2    1    2  501    0  0.17539337063E+03 -0.12233828893E+03  0.10859798013E+04  0.14944810044E+04  0.10041871600E+04 0.  0.
        -13    1    3    3    0    0  0.88536266194E+02 -0.31920025389E+02 -0.19017139661E+03  0.21218560202E+03  0.10566000000E+00 0.  1.
          4    1    3    3  501    0  0.86857104437E+02 -0.90418263543E+02  0.12761511979E+04  0.12822954024E+04  0.00000000000E+00 0.  1.
         13    1    1    2    0    0 -0.17539337063E+03  0.12233828893E+03 -0.10784541787E+03  0.23949976350E+03  0.10566000000E+00 0. -1.
<mgrwt>
<rscale>  1 0.69359913E+03</rscale>
<asrwt>0</asrwt>
<pdfrwt beam="1">  1       21 0.20862424E+00 0.10267041E+04</pdfrwt>
<pdfrwt beam="2">  1        4 0.58142030E-01 0.10267041E+04</pdfrwt>
<totfact> 0.11239473E+01</totfact>
</mgrwt>
</event>
<event>
 6    1  0.1353269E-005  0.1051346E+04  0.7818608E-02  0.9579431E-01
          4   -1    0    0  502    0 -0.00000000000E+00  0.00000000000E+00  0.22490416540E+04  0.22490416540E+04  0.00000000000E+00 0.  1.
         21   -1    0    0  501  502  0.00000000000E+00 -0.00000000000E+00 -0.28844731740E+03  0.28844731740E+03  0.00000000000E+00 0.  1.
    9000010    2    1    2  501    0  0.14832267755E+03  0.29440070342E+03  0.77285194857E+03  0.13048481550E+04  0.99832719198E+03 0.  0.
        -13    1    3    3    0    0  0.53388561172E+03  0.98749487830E+02  0.66639026131E+03  0.85957041555E+03  0.10566000000E+00 0.  1.
          4    1    3    3  501    0 -0.38556293416E+03  0.19565121559E+03  0.10646168726E+03  0.44527773941E+03  0.00000000000E+00 0.  1.
         13    1    1    2    0    0 -0.14832267755E+03 -0.29440070342E+03  0.11877423881E+04  0.12326408165E+04  0.10566000000E+00 0. -1.
<mgrwt>
<rscale>  1 0.78672633E+03</rscale>
<asrwt>0</asrwt>
<pdfrwt beam="2">  1       21 0.44376512E-01 0.10513461E+04</pdfrwt>
<pdfrwt beam="1">  1        4 0.34600640E+00 0.10513461E+04</pdfrwt>
<totfact> 0.30744910E+00</totfact>
</mgrwt>
</event>
<event>
 6    1  0.1353269E-005  0.1110169E+04  0.7818608E-02  0.9577472E-01
          4   -1    0    0  502    0 -0.00000000000E+00  0.00000000000E+00  0.89508926369E+03  0.89508926369E+03  0.00000000000E+00 0.  1.
         21   -1    0    0  501  502  0.00000000000E+00 -0.00000000000E+00 -0.59583910054E+03  0.59583910054E+03  0.00000000000E+00 0.  1.
    9000010    2    1    2  501    0  0.21211844608E+03  0.18563109352E+03  0.44606653683E+02  0.11110646174E+04  0.10737884766E+04 0.  0.
        -13    1    3    3    0    0  0.39374279009E+03  0.26150706843E+03  0.45489075057E+03  0.65600681224E+03  0.10566000000E+00 0.  1.
          4    1    3    3  501    0 -0.18162434401E+03 -0.75875974901E+02 -0.41028409689E+03  0.45505780519E+03  0.00000000000E+00 0.  1.
         13    1    1    2    0    0 -0.21211844608E+03 -0.18563109352E+03  0.25464350946E+03  0.37986374679E+03  0.10566000000E+00 0. -1.
<mgrwt>
<rscale>  1 0.78805343E+03</rscale>
<asrwt>0</asrwt>
<pdfrwt beam="2">  1       21 0.91667554E-01 0.11101688E+04</pdfrwt>
<pdfrwt beam="1">  1        4 0.13770604E+00 0.11101688E+04</pdfrwt>
<totfact> 0.13965239E+01</totfact>
</mgrwt>
</event>
<event>
 6    1  0.1353269E-005  0.9146726E+03  0.7818608E-02  0.1017680E+00
          4   -1    0    0  502    0 -0.00000000000E+00  0.00000000000E+00  0.47312528915E+03  0.47312528915E+03  0.00000000000E+00 0.  1.
         21   -1    0    0  501  502  0.00000000000E+00 -0.00000000000E+00 -0.53624154276E+03  0.53624154276E+03  0.00000000000E+00 0.  1.
    9000010    2    1    2  501    0 -0.19644859975E+02  0.69790575123E+02 -0.11261418142E+03  0.92157901431E+03  0.91179453873E+03 0.  0.
        -13    1    3    3    0    0  0.36269485545E+03  0.12128472360E+03 -0.30622554589E+03  0.48993023837E+03  0.10566000000E+00 0.  1.
          4    1    3    3  501    0 -0.38233971542E+03 -0.51494148477E+02  0.19361136447E+03  0.43164877594E+03  0.00000000000E+00 0.  1.
         13    1    1    2    0    0  0.19644859975E+02 -0.69790575123E+02  0.49497927815E+02  0.87787817614E+02  0.10566000000E+00 0. -1.
<mgrwt>
<rscale>  1 0.48533090E+03</rscale>
<asrwt>0</asrwt>
<pdfrwt beam="2">  1       21 0.82498699E-01 0.91467258E+03</pdfrwt>
<pdfrwt beam="1">  1        4 0.72788506E-01 0.91467258E+03</pdfrwt>
<totfact> 0.85412221E+01</totfact>
</mgrwt>
</event>
<event>
 6    1  0.1353269E-005  0.1003007E+04  0.7818608E-02  0.9977156E-01
         21   -1    0    0  501  502  0.00000000000E+00  0.00000000000E+00  0.47662529903E+03  0.47662529903E+03  0.00000000000E+00 0.  1.
          4   -1    0    0  502    0 -0.00000000000E+00 -0.00000000000E+00 -0.66336045267E+03  0.66336045267E+03  0.00000000000E+00 0.  1.
    9000010    2    1    2  501    0 -0.28758701129E+02  0.98032504585E+02 -0.10373679000E+03  0.10083568249E+04  0.99778992269E+03 0.  0.
        -13    1    3    3    0    0  0.26335541728E+03  0.29608540609E+03  0.28136882958E+03  0.48599493097E+03  0.10566000000E+00 0.  1.
          4    1    3    3  501    0 -0.29211411840E+03 -0.19805290150E+03 -0.38510561958E+03  0.52236189390E+03  0.00000000000E+00 0.  1.
         13    1    1    2    0    0  0.28758701129E+02 -0.98032504585E+02 -0.82998363642E+02  0.13162892682E+03  0.10566000000E+00 0. -1.
<mgrwt>
<rscale>  1 0.56663332E+03</rscale>
<asrwt>0</asrwt>
<pdfrwt beam="1">  1       21 0.73326970E-01 0.10030066E+04</pdfrwt>
<pdfrwt beam="2">  1        4 0.10205545E+00 0.10030066E+04</pdfrwt>
<totfact> 0.50787932E+01</totfact>
</mgrwt>
</event>
<event>
 6    1  0.1353269E-005  0.1028367E+04  0.7818608E-02  0.9733178E-01
          4   -1    0    0  502    0 -0.00000000000E+00  0.00000000000E+00  0.14389306493E+04  0.14389306493E+04  0.00000000000E+00 0.  1.
         21   -1    0    0  501  502  0.00000000000E+00 -0.00000000000E+00 -0.34044410352E+03  0.34044410352E+03  0.00000000000E+00 0.  1.
    9000010    2    1    2  501    0 -0.16139354224E+03 -0.13331941817E+03  0.49634654578E+03  0.11418839423E+04  0.10068351908E+04 0.  0.
        -13    1    3    3    0    0 -0.42665831956E+03 -0.31655397672E+03 -0.21700664765E+02  0.53170919857E+03  0.10566000000E+00 0.  1.
          4    1    3    3  501    0  0.26526477732E+03  0.18323455855E+03  0.51804721054E+03  0.61017474373E+03  0.00000000000E+00 0.  1.
         13    1    1    2    0    0  0.16139354224E+03  0.13331941817E+03  0.60213999995E+03  0.63749081048E+03  0.10566000000E+00 0. -1.
<mgrwt>
<rscale>  1 0.69075275E+03</rscale>
<asrwt>0</asrwt>
<pdfrwt beam="2">  1       21 0.52376017E-01 0.10283672E+04</pdfrwt>
<pdfrwt beam="1">  1        4 0.22137394E+00 0.10283672E+04</pdfrwt>
<totfact> 0.12954664E+01</totfact>
</mgrwt>
</event>
<event>
 6    1  0.1353269E-005  0.9750673E+03  0.7818608E-02  0.1021201E+00
          4   -1    0    0  502    0 -0.00000000000E+00  0.00000000000E+00  0.35362041584E+03  0.35362041584E+03  0.00000000000E+00 0.  1.
         21   -1    0    0  501  502  0.00000000000E+00 -0.00000000000E+00 -0.76416793501E+03  0.76416793501E+03  0.00000000000E+00 0.  1.
    9000010    2    1    2  501    0 -0.45381323462E+02  0.28878900581E+02 -0.42252893744E+03  0.10626791777E+04  0.97358249590E+03 0.  0.
        -13    1    3    3    0    0  0.11405241337E+03  0.46925609537E+03 -0.33101075658E+03  0.58547191921E+03  0.10566000000E+00 0.  1.
          4    1    3    3  501    0 -0.15943373683E+03 -0.44037719479E+03 -0.91518180860E+02  0.47720725850E+03  0.00000000000E+00 0.  1.
         13    1    1    2    0    0  0.45381323462E+02 -0.28878900581E+02  0.11981418268E+02  0.55109173154E+02  0.10566000000E+00 0. -1.
<mgrwt>
<rscale>  1 0.47255599E+03</rscale>
<asrwt>0</asrwt>
<pdfrwt beam="2">  1       21 0.11756430E+00 0.97506735E+03</pdfrwt>
<pdfrwt beam="1">  1        4 0.54403141E-01 0.97506735E+03</pdfrwt>
<totfact> 0.67248069E+01</totfact>
</mgrwt>
</event>
<event>
 6    1  0.1353269E-005  0.1018928E+04  0.7818608E-02  0.9738062E-01
          4   -1    0    0  502    0 -0.00000000000E+00  0.00000000000E+00  0.32870516595E+03  0.32870516595E+03  0.00000000000E+00 0.  1.
         21   -1    0    0  501  502  0.00000000000E+00 -0.00000000000E+00 -0.11626234657E+04  0.11626234657E+04  0.00000000000E+00 0.  1.
    9000010    2    1    2  501    0 -0.13918381163E+03  0.15956535795E+03 -0.74216643587E+03  0.12605654358E+04  0.99668498661E+03 0.  0.
        -13    1    3    3    0    0  0.25901152833E+03  0.38923441357E+03 -0.63500722404E+03  0.78855854968E+03  0.10566000000E+00 0.  1.
          4    1    3    3  501    0 -0.39819533996E+03 -0.22966905561E+03 -0.10715921183E+03  0.47200688613E+03  0.00000000000E+00 0.  1.
         13    1    1    2    0    0  0.13918381163E+03 -0.15956535795E+03 -0.91751863919E+02  0.23076319588E+03  0.10566000000E+00 0. -1.
<mgrwt>
<rscale>  1 0.68795121E+03</rscale>
<asrwt>0</asrwt>
<pdfrwt beam="2">  1       21 0.17886515E+00 0.10189280E+04</pdfrwt>
<pdfrwt beam="1">  1        4 0.50570026E-01 0.10189280E+04</pdfrwt>
<totfact> 0.24498171E+01</totfact>
</mgrwt>
</event>
<event>
 6    1  0.1353269E-005  0.1139542E+04  0.7818608E-02  0.9385579E-01
          4   -1    0    0  502    0 -0.00000000000E+00  0.00000000000E+00  0.54132534829E+03  0.54132534829E+03  0.00000000000E+00 0.  1.
         21   -1    0    0  501  502  0.00000000000E+00 -0.00000000000E+00 -0.14088378470E+04  0.14088378470E+04  0.00000000000E+00 0. -1.
    9000010    2    1    2  501    0 -0.46109112414E+03 -0.22134043902E+03 -0.87805711180E+03  0.14385893348E+04  0.10183115280E+04 0.  0.
        -13    1    3    3    0    0 -0.66694358437E+03 -0.20703716939E+03 -0.98400950753E+03  0.12066287152E+04  0.10566000000E+00 0.  1.
          4    1    3    3  501    0  0.20585246023E+03 -0.14303269636E+02  0.10595239573E+03  0.23196061964E+03  0.00000000000E+00 0.  1.
         13    1    1    2    0    0  0.46109112414E+03  0.22134043902E+03  0.10544613070E+02  0.51157386049E+03  0.10566000000E+00 0. -1.
<mgrwt>
<rscale>  1 0.93272077E+03</rscale>
<asrwt>0</asrwt>
<pdfrwt beam="2">  1       21 0.21674428E+00 0.11395416E+04</pdfrwt>
<pdfrwt beam="1">  1        4 0.83280823E-01 0.11395416E+04</pdfrwt>
<totfact> 0.43649631E+00</totfact>
</mgrwt>
</event>
<event>
 6    1  0.1353269E-005  0.1062035E+04  0.7818608E-02  0.9542983E-01
         21   -1    0    0  501  502  0.00000000000E+00  0.00000000000E+00  0.84770905598E+03  0.84770905598E+03  0.00000000000E+00 0. -1.
          4   -1    0    0  502    0 -0.00000000000E+00 -0.00000000000E+00 -0.59863242787E+03  0.59863242787E+03  0.00000000000E+00 0.  1.
    9000010    2    1    2  501    0  0.24063339969E+03  0.27137582977E+03  0.18514486291E+03  0.10780527984E+04  0.99818332082E+03 0.  0.
        -13    1    3    3    0    0  0.55347148414E+03  0.19186704414E+03  0.38260249735E+03  0.69966301069E+03  0.10566000000E+00 0.  1.
          4    1    3    3  501    0 -0.31283808446E+03  0.79508785628E+02 -0.19745763445E+03  0.37838978776E+03  0.00000000000E+00 0.  1.
         13    1    1    2    0    0 -0.24063339969E+03 -0.27137582977E+03  0.63931765204E+02  0.36828868540E+03  0.10566000000E+00 0. -1.
<mgrwt>
<rscale>  1 0.81187724E+03</rscale>
<asrwt>0</asrwt>
<pdfrwt beam="1">  1       21 0.13041678E+00 0.10620354E+04</pdfrwt>
<pdfrwt beam="2">  1        4 0.92097297E-01 0.10620354E+04</pdfrwt>
<totfact> 0.15562107E+01</totfact>
</mgrwt>
</event>
<event>
 6    1  0.1353269E-005  0.1008222E+04  0.7818608E-02  0.9847660E-01
         21   -1    0    0  501  502  0.00000000000E+00  0.00000000000E+00  0.98683204662E+03  0.98683204662E+03  0.00000000000E+00 0.  1.
          4   -1    0    0  502    0 -0.00000000000E+00 -0.00000000000E+00 -0.34158954511E+03  0.34158954511E+03  0.00000000000E+00 0.  1.
    9000010    2    1    2  501    0  0.64609723778E+02 -0.13803434202E+03  0.57425245457E+03  0.11602921954E+04  0.99663644381E+03 0.  0.
        -13    1    3    3    0    0 -0.14364109012E+03 -0.19956562384E+03  0.80602007112E+03  0.84269067113E+03  0.10566000000E+00 0.  1.
          4    1    3    3  501    0  0.20825081390E+03  0.61531281822E+02 -0.23176761656E+03  0.31760152427E+03  0.00000000000E+00 0.  1.
         13    1    1    2    0    0 -0.64609723778E+02  0.13803434202E+03  0.70990046946E+02  0.16812939634E+03  0.10566000000E+00 0. -1.
<mgrwt>
<rscale>  1 0.62866382E+03</rscale>
<asrwt>0</asrwt>
<pdfrwt beam="1">  1       21 0.15182031E+00 0.10082222E+04</pdfrwt>
<pdfrwt beam="2">  1        4 0.52552238E-01 0.10082222E+04</pdfrwt>
<totfact> 0.36338930E+01</totfact>
</mgrwt>
</event>
<event>
 6    1  0.1353269E-005  0.1096793E+04  0.7818608E-02  0.9457321E-01
          4   -1    0    0  502    0 -0.00000000000E+00  0.00000000000E+00  0.80818642165E+03  0.80818642165E+03  0.00000000000E+00 0.  1.
         21   -1    0    0  501  502  0.00000000000E+00 -0.00000000000E+00 -0.76536688332E+03  0.76536688332E+03  0.00000000000E+00 0.  1.
    9000010    2    1    2  501    0  0.11305194123E+03  0.42975863102E+03 -0.11311008780E+03  0.11026103341E+04  0.10027374704E+04 0.  0.
        -13    1    3    3    0    0  0.37717297019E+03 -0.18281853306E+03 -0.11822742267E+03  0.43549948348E+03  0.10566000000E+00 0.  1.
          4    1    3    3  501    0 -0.26412102897E+03  0.61257716408E+03  0.51173348642E+01  0.66711085062E+03  0.00000000000E+00 0.  1.
         13    1    1    2    0    0 -0.11305194123E+03 -0.42975863102E+03  0.15592962613E+03  0.47094297088E+03  0.10566000000E+00 0. -1.
<mgrwt>
<rscale>  1 0.87504852E+03</rscale>
<asrwt>0</asrwt>
<pdfrwt beam="2">  1       21 0.11774875E+00 0.10967934E+04</pdfrwt>
<pdfrwt beam="1">  1        4 0.12433637E+00 0.10967934E+04</pdfrwt>
<totfact> 0.97165925E+00</totfact>
</mgrwt>
</event>
<event>
 6    1  0.1353269E-005  0.1111430E+04  0.7818608E-02  0.9415746E-01
          4   -1    0    0  502    0 -0.00000000000E+00  0.00000000000E+00  0.96512984808E+03  0.96512984808E+03  0.00000000000E+00 0.  1.
         21   -1    0    0  501  502  0.00000000000E+00 -0.00000000000E+00 -0.74298133200E+03  0.74298133200E+03  0.00000000000E+00 0.  1.
    9000010    2    1    2  501    0  0.47120566627E+03 -0.15133427610E+03 -0.10261649046E+03  0.11161574963E+04  0.99515856499E+03 0.  0.
        -13    1    3    3    0    0 -0.26340798977E+03 -0.13060483235E+03 -0.22617100187E+03  0.37093762893E+03  0.10566000000E+00 0.  1.
          4    1    3    3  501    0  0.73461365604E+03 -0.20729443752E+02  0.12355451141E+03  0.74521986740E+03  0.00000000000E+00 0.  1.
         13    1    1    2    0    0 -0.47120566627E+03  0.15133427610E+03  0.32476500655E+03  0.59195368374E+03  0.10566000000E+00 0. -1.
<mgrwt>
<rscale>  1 0.90791137E+03</rscale>
<asrwt>0</asrwt>
<pdfrwt beam="2">  1       21 0.11430482E+00 0.11114303E+04</pdfrwt>
<pdfrwt beam="1">  1        4 0.14848152E+00 0.11114303E+04</pdfrwt>
<totfact> 0.65872538E+00</totfact>
</mgrwt>
</event>
<event>
 6    1  0.1353269E-005  0.1022602E+04  0.7818608E-02  0.9732963E-01
          4   -1    0    0  502    0 -0.00000000000E+00  0.00000000000E+00  0.65853371302E+03  0.65853371302E+03  0.00000000000E+00 0.  1.
         21   -1    0    0  501  502  0.00000000000E+00 -0.00000000000E+00 -0.59121772347E+03  0.59121772347E+03  0.00000000000E+00 0.  1.
    9000010    2    1    2  501    0 -0.20698055116E+03 -0.50490607830E+02 -0.11286604522E+02  0.10226641647E+04  0.10001621650E+04 0.  0.
        -13    1    3    3    0    0 -0.36755744120E+03  0.22614931583E+02  0.41887022248E+03  0.55772948833E+03  0.10566000000E+00 0.  1.
          4    1    3    3  501    0  0.16057689004E+03 -0.73105539414E+02 -0.43015682700E+03  0.46493467640E+03  0.00000000000E+00 0.  1.
         13    1    1    2    0    0  0.20698055116E+03  0.50490607830E+02  0.78602594063E+02  0.22708727176E+03  0.10566000000E+00 0. -1.
<mgrwt>
<rscale>  1 0.69087627E+03</rscale>
<asrwt>0</asrwt>
<pdfrwt beam="2">  1       21 0.90956573E-01 0.10226019E+04</pdfrwt>
<pdfrwt beam="1">  1        4 0.10131288E+00 0.10226019E+04</pdfrwt>
<totfact> 0.31008414E+01</totfact>
</mgrwt>
</event>
<event>
 6    1  0.1353269E-005  0.1167526E+04  0.7818608E-02  0.9329163E-01
         21   -1    0    0  501  502  0.00000000000E+00  0.00000000000E+00  0.96046686746E+03  0.96046686746E+03  0.00000000000E+00 0. -1.
          4   -1    0    0  502    0 -0.00000000000E+00 -0.00000000000E+00 -0.89867613655E+03  0.89867613655E+03  0.00000000000E+00 0.  1.
    9000010    2    1    2  501    0  0.55959913860E+03 -0.16326828838E+03 -0.25593283246E+03  0.11952484312E+04  0.10115875976E+04 0.  0.
        -13    1    3    3    0    0 -0.27680011648E+03  0.94083821602E+02 -0.58152794398E+02  0.29808023858E+03  0.10566000000E+00 0.  1.
          4    1    3    3  501    0  0.83639925508E+03 -0.25735210998E+03 -0.19778003806E+03  0.89716819263E+03  0.00000000000E+00 0.  1.
         13    1    1    2    0    0 -0.55959913860E+03  0.16326828838E+03  0.31772356338E+03  0.66389457280E+03  0.10566000000E+00 0. -1.
<mgrwt>
<rscale>  1 0.98141832E+03</rscale>
<asrwt>0</asrwt>
<pdfrwt beam="1">  1       21 0.14776413E+00 0.11675261E+04</pdfrwt>
<pdfrwt beam="2">  1        4 0.13825787E+00 0.11675261E+04</pdfrwt>
<totfact> 0.39863802E+00</totfact>
</mgrwt>
</event>
<event>
 6    1  0.1353269E-005  0.1150905E+04  0.7818608E-02  0.9350883E-01
         21   -1    0    0  501  502  0.00000000000E+00  0.00000000000E+00  0.40082748152E+03  0.40082748152E+03  0.00000000000E+00 0.  1.
          4   -1    0    0  502    0 -0.00000000000E+00 -0.00000000000E+00 -0.19967095009E+04  0.19967095009E+04  0.00000000000E+00 0.  1.
    9000010    2    1    2  501    0  0.51160399488E+03 -0.23383797660E+03 -0.72317507576E+03  0.13592517290E+04  0.10040738148E+04 0.  0.
        -13    1    3    3    0    0  0.39040419822E+03  0.31430384867E+03 -0.83388850079E+02  0.50809060094E+03  0.10566000000E+00 0.  1.
          4    1    3    3  501    0  0.12119979666E+03 -0.54814182527E+03 -0.63978622568E+03  0.85116112804E+03  0.00000000000E+00 0.  1.
         13    1    1    2    0    0 -0.51160399488E+03  0.23383797660E+03 -0.87270694359E+03  0.10382852534E+04  0.10566000000E+00 0. -1.
<mgrwt>
<rscale>  1 0.96230445E+03</rscale>
<asrwt>0</asrwt>
<pdfrwt beam="1">  1       21 0.61665765E-01 0.11509053E+04</pdfrwt>
<pdfrwt beam="2">  1        4 0.30718608E+00 0.11509053E+04</pdfrwt>
<totfact> 0.26041242E+00</totfact>
</mgrwt>
</event>
<event>
 6    1  0.1353269E-005  0.7336961E+03  0.7818608E-02  0.1010559E+00
          4   -1    0    0  502    0 -0.00000000000E+00  0.00000000000E+00  0.29624126949E+03  0.29624126949E+03  0.00000000000E+00 0.  1.
         21   -1    0    0  501  502  0.00000000000E+00 -0.00000000000E+00 -0.71255165647E+03  0.71255165647E+03  0.00000000000E+00 0.  1.
    9000010    2    1    2  501    0  0.26094460229E+02 -0.17275452581E+03 -0.39361154155E+03  0.83261036215E+03  0.71259029075E+03 0.  0.
        -13    1    3    3    0    0  0.10027504089E+03  0.10380034777E+03 -0.50511909563E+03  0.52533313998E+03  0.10566000000E+00 0.  1.
          4    1    3    3  501    0 -0.74180580661E+02 -0.27655487358E+03  0.11150755408E+03  0.30727722217E+03  0.00000000000E+00 0.  1.
         13    1    1    2    0    0 -0.26094460229E+02  0.17275452581E+03 -0.22698845430E+02  0.17618256381E+03  0.10566000000E+00 0. -1.
<mgrwt>
<rscale>  1 0.51252992E+03</rscale>
<asrwt>0</asrwt>
<pdfrwt beam="2">  1       21 0.10962333E+00 0.73369610E+03</pdfrwt>
<pdfrwt beam="1">  1        4 0.45575580E-01 0.73369610E+03</pdfrwt>
<totfact> 0.11912830E+02</totfact>
</mgrwt>
</event>
<event>
 6    1  0.1353269E-005  0.1004125E+04  0.7818608E-02  0.1002897E+00
          4   -1    0    0  502    0 -0.00000000000E+00  0.00000000000E+00  0.90879675114E+03  0.90879675114E+03  0.00000000000E+00 0.  1.
         21   -1    0    0  501  502  0.00000000000E+00 -0.00000000000E+00 -0.43918268504E+03  0.43918268504E+03  0.00000000000E+00 0.  1.
    9000010    2    1    2  501    0  0.16278155520E+02  0.84945723134E+02  0.14804245376E+03  0.10149793352E+04  0.10003927871E+04 0.  0.
        -13    1    3    3    0    0 -0.14187680006E+02  0.38049355068E+03 -0.29490927735E+03  0.48160993076E+03  0.10566000000E+00 0.  1.
          4    1    3    3  501    0  0.30465835526E+02 -0.29554782755E+03  0.44295173110E+03  0.53336940444E+03  0.00000000000E+00 0.  1.
         13    1    1    2    0    0 -0.16278155520E+02 -0.84945723134E+02  0.32157161234E+03  0.33300010098E+03  0.10566000000E+00 0. -1.
<mgrwt>
<rscale>  1 0.54398134E+03</rscale>
<asrwt>0</asrwt>
<pdfrwt beam="2">  1       21 0.67566567E-01 0.10041247E+04</pdfrwt>
<pdfrwt beam="1">  1        4 0.13981488E+00 0.10041247E+04</pdfrwt>
<totfact> 0.27749635E+01</totfact>
</mgrwt>
</event>
<event>
 6    1  0.1353269E-005  0.1007369E+04  0.7818608E-02  0.9872386E-01
         21   -1    0    0  501  502  0.00000000000E+00  0.00000000000E+00  0.78365464157E+03  0.78365464157E+03  0.00000000000E+00 0.  1.
          4   -1    0    0  502    0 -0.00000000000E+00 -0.00000000000E+00 -0.49796196909E+03  0.49796196909E+03  0.00000000000E+00 0.  1.
    9000010    2    1    2  501    0 -0.60128388288E+02 -0.12755761728E+03  0.41574175424E+03  0.10897855818E+04  0.99744926650E+03 0.  0.
        -13    1    3    3    0    0  0.42182510375E+03 -0.27196585792E+03  0.24479350917E+03  0.55841357373E+03  0.10566000000E+00 0.  1.
          4    1    3    3  501    0 -0.48195349204E+03  0.14440824064E+03  0.17094824507E+03  0.53137200806E+03  0.00000000000E+00 0.  1.
         13    1    1    2    0    0  0.60128388288E+02  0.12755761728E+03 -0.13004908176E+03  0.19183102887E+03  0.10566000000E+00 0. -1.
<mgrwt>
<rscale>  1 0.61618449E+03</rscale>
<asrwt>0</asrwt>
<pdfrwt beam="1">  1       21 0.12056225E+00 0.10073686E+04</pdfrwt>
<pdfrwt beam="2">  1        4 0.76609534E-01 0.10073686E+04</pdfrwt>
<totfact> 0.29509386E+01</totfact>
</mgrwt>
</event>
<event>
 6    1  0.1353269E-005  0.1033197E+04  0.7818608E-02  0.1027571E+00
          4   -1    0    0  502    0 -0.00000000000E+00  0.00000000000E+00  0.74251626871E+03  0.74251626871E+03  0.00000000000E+00 0.  1.
         21   -1    0    0  501  502  0.00000000000E+00 -0.00000000000E+00 -0.41360563145E+03  0.41360563145E+03  0.00000000000E+00 0.  1.
    9000010    2    1    2  501    0  0.74068255929E+01  0.36604757730E+02  0.24146900537E+03  0.10610386761E+04  0.10325216812E+04 0.  0.
        -13    1    3    3    0    0 -0.51191905515E+03 -0.77605301122E+01  0.12056625244E+03  0.52598248758E+03  0.10566000000E+00 0.  1.
          4    1    3    3  501    0  0.51932588074E+03  0.44365287842E+02  0.12090275293E+03  0.53505618849E+03  0.00000000000E+00 0.  1.
         13    1    1    2    0    0 -0.74068255929E+01 -0.36604757730E+02  0.87441631883E+02  0.95083224095E+02  0.10566000000E+00 0. -1.
<mgrwt>
<rscale>  1 0.45050597E+03</rscale>
<asrwt>0</asrwt>
<pdfrwt beam="2">  1       21 0.63631636E-01 0.10331969E+04</pdfrwt>
<pdfrwt beam="1">  1        4 0.11423327E+00 0.10331969E+04</pdfrwt>
<totfact> 0.53109445E+01</totfact>
</mgrwt>
</event>
<event>
 6    1  0.1353269E-005  0.9733719E+03  0.7818608E-02  0.9836823E-01
          4   -1    0    0  502    0 -0.00000000000E+00  0.00000000000E+00  0.60240790153E+03  0.60240790153E+03  0.00000000000E+00 0.  1.
         21   -1    0    0  501  502  0.00000000000E+00 -0.00000000000E+00 -0.12689653729E+04  0.12689653729E+04  0.00000000000E+00 0.  1.
    9000010    2    1    2  501    0 -0.17433748866E+03 -0.19747235941E+02 -0.10608892001E+04  0.14397704053E+04  0.95742854144E+03 0.  0.
        -13    1    3    3    0    0  0.43159570827E+02  0.41600733437E+03 -0.75948300475E+03  0.86702900556E+03  0.10566000000E+00 0.  1.
          4    1    3    3  501    0 -0.21749705949E+03 -0.43575457031E+03 -0.30140619530E+03  0.57274139976E+03  0.00000000000E+00 0.  1.
         13    1    1    2    0    0  0.17433748866E+03  0.19747235941E+02  0.39433172865E+03  0.43160286916E+03  0.10566000000E+00 0. -1.
<mgrwt>
<rscale>  1 0.63423311E+03</rscale>
<asrwt>0</asrwt>
<pdfrwt beam="2">  1       21 0.19522544E+00 0.97337194E+03</pdfrwt>
<pdfrwt beam="1">  1        4 0.92678138E-01 0.97337194E+03</pdfrwt>
<totfact> 0.48731230E+00</totfact>
</mgrwt>
</event>
<event>
 6    1  0.1353269E-005  0.1073398E+04  0.7818608E-02  0.9537468E-01
         21   -1    0    0  501  502  0.00000000000E+00  0.00000000000E+00  0.12049723265E+04  0.12049723265E+04  0.00000000000E+00 0.  1.
          4   -1    0    0  502    0 -0.00000000000E+00 -0.00000000000E+00 -0.42675731952E+03  0.42675731952E+03  0.00000000000E+00 0.  1.
    9000010    2    1    2  501    0 -0.23219109087E+03 -0.27260450907E+03  0.53932951185E+03  0.12012738272E+04  0.10119073893E+04 0.  0.
        -13    1    3    3    0    0 -0.11615488520E+02  0.34295573082E+03  0.41011721071E+03  0.53474263955E+03  0.10566000000E+00 0.  1.
          4    1    3    3  501    0 -0.22057560235E+03 -0.61556023989E+03  0.12921230114E+03  0.66653118761E+03  0.00000000000E+00 0.  1.
         13    1    1    2    0    0  0.23219109087E+03  0.27260450907E+03  0.23888549516E+03  0.43045581888E+03  0.10566000000E+00 0. -1.
<mgrwt>
<rscale>  1 0.81576959E+03</rscale>
<asrwt>0</asrwt>
<pdfrwt beam="1">  1       21 0.18538036E+00 0.10733976E+04</pdfrwt>
<pdfrwt beam="2">  1        4 0.65654973E-01 0.10733976E+04</pdfrwt>
<totfact> 0.12416066E+01</totfact>
</mgrwt>
</event>
<event>
 6    1  0.1353269E-005  0.1081782E+04  0.7818608E-02  0.9495242E-01
          4   -1    0    0  502    0 -0.00000000000E+00  0.00000000000E+00  0.46643939900E+03  0.46643939900E+03  0.00000000000E+00 0.  1.
         21   -1    0    0  501  502  0.00000000000E+00 -0.00000000000E+00 -0.12290519398E+04  0.12290519398E+04  0.00000000000E+00 0.  1.
    9000010    2    1    2  501    0  0.40502751211E+03  0.15238972660E+02 -0.69170863346E+03  0.12840221576E+04  0.10029818322E+04 0.  0.
        -13    1    3    3    0    0 -0.11445427756E+03 -0.35727803026E+03 -0.50397255452E+02  0.37853304621E+03  0.10566000000E+00 0.  1.
          4    1    3    3  501    0  0.51948178967E+03  0.37251700291E+03 -0.64131137801E+03  0.90548911138E+03  0.00000000000E+00 0.  1.
         13    1    1    2    0    0 -0.40502751211E+03 -0.15238972660E+02 -0.70903907351E+02  0.41146918123E+03  0.10566000000E+00 0. -1.
<mgrwt>
<rscale>  1 0.84635529E+03</rscale>
<asrwt>0</asrwt>
<pdfrwt beam="2">  1       21 0.18908491E+00 0.10817819E+04</pdfrwt>
<pdfrwt beam="1">  1        4 0.71759908E-01 0.10817819E+04</pdfrwt>
<totfact> 0.95703409E+00</totfact>
</mgrwt>
</event>
<event>
 6    1  0.1353269E-005  0.1042460E+04  0.7818608E-02  0.9493085E-01
         21   -1    0    0  501  502  0.00000000000E+00  0.00000000000E+00  0.90829533141E+03  0.90829533141E+03  0.00000000000E+00 0.  1.
          4   -1    0    0  502    0 -0.00000000000E+00 -0.00000000000E+00 -0.66665180409E+03  0.66665180409E+03  0.00000000000E+00 0.  1.
    9000010    2    1    2  501    0  0.44858390675E+03 -0.83930865334E+02  0.36105594675E+03  0.11032149566E+04  0.93725659889E+03 0.  0.
        -13    1    3    3    0    0  0.23680916445E+03  0.17292381151E+02  0.67252261529E+03  0.71320704291E+03  0.10566000000E+00 0.  1.
          4    1    3    3  501    0  0.21177474230E+03 -0.10122324648E+03 -0.31146666854E+03  0.39000791366E+03  0.00000000000E+00 0.  1.
         13    1    1    2    0    0 -0.44858390675E+03  0.83930865334E+02 -0.11941241943E+03  0.47173217892E+03  0.10566000000E+00 0. -1.
<mgrwt>
<rscale>  1 0.84795585E+03</rscale>
<asrwt>0</asrwt>
<pdfrwt beam="1">  1       21 0.13973774E+00 0.10424595E+04</pdfrwt>
<pdfrwt beam="2">  1        4 0.10256182E+00 0.10424595E+04</pdfrwt>
<totfact> 0.10006826E+01</totfact>
</mgrwt>
</event>
<event>
 6    1  0.1353269E-005  0.1051533E+04  0.7818608E-02  0.9595882E-01
          4   -1    0    0  502    0 -0.00000000000E+00  0.00000000000E+00  0.10657912849E+04  0.10657912849E+04  0.00000000000E+00 0.  1.
         21   -1    0    0  501  502  0.00000000000E+00 -0.00000000000E+00 -0.50620673323E+03  0.50620673323E+03  0.00000000000E+00 0.  1.
    9000010    2    1    2  501    0  0.29748228594E+03 -0.91990611472E+02  0.15722215274E+03  0.10632215502E+04  0.10043720807E+04 0.  0.
        -13    1    3    3    0    0  0.56911637690E+03  0.19624162489E+03 -0.70903217908E+02  0.60616128487E+03  0.10566000000E+00 0.  1.
          4    1    3    3  501    0 -0.27163409096E+03 -0.28823223636E+03  0.22812537065E+03  0.45706026537E+03  0.00000000000E+00 0.  1.
         13    1    1    2    0    0 -0.29748228594E+03  0.91990611472E+02  0.40236239896E+03  0.50877646792E+03  0.10566000000E+00 0. -1.
<mgrwt>
<rscale>  1 0.77569336E+03</rscale>
<asrwt>0</asrwt>
<pdfrwt beam="2">  1       21 0.77877959E-01 0.10515328E+04</pdfrwt>
<pdfrwt beam="1">  1        4 0.16396789E+00 0.10515328E+04</pdfrwt>
<totfact> 0.12940837E+01</totfact>
</mgrwt>
</event>
<event>
 6    1  0.1353269E-005  0.1013954E+04  0.7818608E-02  0.9670866E-01
          4   -1    0    0  502    0 -0.00000000000E+00  0.00000000000E+00  0.73790388451E+03  0.73790388451E+03  0.00000000000E+00 0.  1.
         21   -1    0    0  501  502  0.00000000000E+00 -0.00000000000E+00 -0.55838046165E+03  0.55838046165E+03  0.00000000000E+00 0. -1.
    9000010    2    1    2  501    0 -0.14885187676E+03 -0.22421104281E+03  0.15943517936E+03  0.10264121141E+04  0.97758620012E+03 0.  0.
        -13    1    3    3    0    0 -0.48119463012E+03  0.10584727793E+03  0.24502890487E+03  0.55026456699E+03  0.10566000000E+00 0.  1.
          4    1    3    3  501    0  0.33234275336E+03 -0.33005832074E+03 -0.85593725510E+02  0.47614754714E+03  0.00000000000E+00 0.  1.
         13    1    1    2    0    0  0.14885187676E+03  0.22421104281E+03  0.20088243502E+02  0.26987223203E+03  0.10566000000E+00 0. -1.
<mgrwt>
<rscale>  1 0.72778248E+03</rscale>
<asrwt>0</asrwt>
<pdfrwt beam="2">  1       21 0.85904686E-01 0.10139538E+04</pdfrwt>
<pdfrwt beam="1">  1        4 0.11352367E+00 0.10139538E+04</pdfrwt>
<totfact> 0.26939188E+01</totfact>
</mgrwt>
</event>
<event>
 6    1  0.1353269E-005  0.1153474E+04  0.7818608E-02  0.9586836E-01
         21   -1    0    0  501  502  0.00000000000E+00  0.00000000000E+00  0.56758668698E+03  0.56758668698E+03  0.00000000000E+00 0.  1.
          4   -1    0    0  502    0 -0.00000000000E+00 -0.00000000000E+00 -0.89723368734E+03  0.89723368734E+03  0.00000000000E+00 0.  1.
    9000010    2    1    2  501    0  0.19419845358E+03  0.14663639860E+03 -0.15180907394E+03  0.11634209516E+04  0.11275136553E+04 0.  0.
        -13    1    3    3    0    0  0.25566601493E+03  0.22663002897E+03  0.44337995872E+03  0.55974286970E+03  0.10566000000E+00 0.  1.
          4    1    3    3  501    0 -0.61467561350E+02 -0.79993630364E+02 -0.59518903265E+03  0.60367808192E+03  0.00000000000E+00 0.  1.
         13    1    1    2    0    0 -0.19419845358E+03 -0.14663639860E+03 -0.17783792642E+03  0.30139942270E+03  0.10566000000E+00 0. -1.
<mgrwt>
<rscale>  1 0.78173596E+03</rscale>
<asrwt>0</asrwt>
<pdfrwt beam="1">  1       21 0.87321028E-01 0.11534740E+04</pdfrwt>
<pdfrwt beam="2">  1        4 0.13803595E+00 0.11534740E+04</pdfrwt>
<totfact> 0.15544824E+01</totfact>
</mgrwt>
</event>
<event>
 6    1  0.1353269E-005  0.1109037E+04  0.7818608E-02  0.9419924E-01
         21   -1    0    0  501  502  0.00000000000E+00  0.00000000000E+00  0.11444870545E+04  0.11444870545E+04  0.00000000000E+00 0. -1.
          4   -1    0    0  502    0 -0.00000000000E+00 -0.00000000000E+00 -0.59941153449E+03  0.59941153449E+03  0.00000000000E+00 0.  1.
    9000010    2    1    2  501    0  0.45647245827E+03 -0.18023118377E+03  0.58065070983E+03  0.12518457564E+04  0.99454118381E+03 0.  0.
        -13    1    3    3    0    0 -0.28546245425E+02 -0.35558319829E+03 -0.12484053159E+03  0.37794109135E+03  0.10566000000E+00 0.  1.
          4    1    3    3  501    0  0.48501870370E+03  0.17535201452E+03  0.70549124142E+03  0.87390466508E+03  0.00000000000E+00 0.  1.
         13    1    1    2    0    0 -0.45647245827E+03  0.18023118377E+03 -0.35575189800E+02  0.49205283259E+03  0.10566000000E+00 0. -1.
<mgrwt>
<rscale>  1 0.90454021E+03</rscale>
<asrwt>0</asrwt>
<pdfrwt beam="1">  1       21 0.17607493E+00 0.11090368E+04</pdfrwt>
<pdfrwt beam="2">  1        4 0.92217159E-01 0.11090368E+04</pdfrwt>
<totfact> 0.66363897E+00</totfact>
</mgrwt>
</event>
<event>
 6    1  0.1353269E-005  0.1170332E+04  0.7818608E-02  0.9342833E-01
          4   -1    0    0  502    0 -0.00000000000E+00  0.00000000000E+00  0.10774902345E+04  0.10774902345E+04  0.00000000000E+00 0.  1.
         21   -1    0    0  501  502  0.00000000000E+00 -0.00000000000E+00 -0.68990729830E+03  0.68990729830E+03  0.00000000000E+00 0.  1.
    9000010    2    1    2  501    0 -0.51928931446E+03 -0.18352347748E+03  0.21245344561E+03  0.11894592934E+04  0.10326348267E+04 0.  0.
        -13    1    3    3    0    0  0.61589787528E+02 -0.30752380958E+03 -0.27805292224E+03  0.41913915841E+03  0.10566000000E+00 0.  1.
          4    1    3    3  501    0 -0.58087910199E+03  0.12400033210E+03  0.49050636785E+03  0.77032013500E+03  0.00000000000E+00 0.  1.
         13    1    1    2    0    0  0.51928931446E+03  0.18352347748E+03  0.17512949058E+03  0.57793823938E+03  0.10566000000E+00 0. -1.
<mgrwt>
<rscale>  1 0.96933394E+03</rscale>
<asrwt>0</asrwt>
<pdfrwt beam="2">  1       21 0.10613958E+00 0.11703320E+04</pdfrwt>
<pdfrwt beam="1">  1        4 0.16576773E+00 0.11703320E+04</pdfrwt>
<totfact> 0.58437966E+00</totfact>
</mgrwt>
</event>
<event>
 6    1  0.1353269E-005  0.1119655E+04  0.7818608E-02  0.9678379E-01
         21   -1    0    0  501  502  0.00000000000E+00  0.00000000000E+00  0.84872259713E+03  0.84872259713E+03  0.00000000000E+00 0.  1.
          4   -1    0    0  502    0 -0.00000000000E+00 -0.00000000000E+00 -0.52619793404E+03  0.52619793404E+03  0.00000000000E+00 0.  1.
    9000010    2    1    2  501    0  0.60939542420E+02  0.18510043122E+03  0.36074365361E+03  0.11763342782E+04  0.11025654416E+04 0.  0.
        -13    1    3    3    0    0 -0.27786498207E+03 -0.32089320733E+03  0.37619545034E+03  0.56718993890E+03  0.10566000000E+00 0.  1.
          4    1    3    3  501    0  0.33880452449E+03  0.50599363855E+03 -0.15451796730E+02  0.60914433929E+03  0.00000000000E+00 0.  1.
         13    1    1    2    0    0 -0.60939542420E+02 -0.18510043122E+03 -0.38218990517E+02  0.19858625297E+03  0.10566000000E+00 0. -1.
<mgrwt>
<rscale>  1 0.72318835E+03</rscale>
<asrwt>0</asrwt>
<pdfrwt beam="1">  1       21 0.13057271E+00 0.11196546E+04</pdfrwt>
<pdfrwt beam="2">  1        4 0.80953528E-01 0.11196546E+04</pdfrwt>
<totfact> 0.20850335E+01</totfact>
</mgrwt>
</event>
<event>
 6    1  0.1353269E-005  0.1176011E+04  0.7818608E-02  0.9306597E-01
         21   -1    0    0  501  502  0.00000000000E+00  0.00000000000E+00  0.67103143210E+03  0.67103143210E+03  0.00000000000E+00 0.  1.
          4   -1    0    0  502    0 -0.00000000000E+00 -0.00000000000E+00 -0.13098090612E+04  0.13098090612E+04  0.00000000000E+00 0.  1.
    9000010    2    1    2  501    0  0.35027143420E+03  0.51064101117E+03 -0.13725994649E+03  0.11839940106E+04  0.99977857761E+03 0.  0.
        -13    1    3    3    0    0  0.46283982155E+03 -0.48308531955E+02  0.21622796874E+03  0.51313639542E+03  0.10566000000E+00 0.  1.
          4    1    3    3  501    0 -0.11256838735E+03  0.55894954313E+03 -0.35348791523E+03  0.67085761515E+03  0.00000000000E+00 0.  1.
         13    1    1    2    0    0 -0.35027143420E+03 -0.51064101117E+03 -0.50151768262E+03  0.79684648274E+03  0.10566000000E+00 0. -1.
<mgrwt>
<rscale>  1 0.10017775E+04</rscale>
<asrwt>0</asrwt>
<pdfrwt beam="1">  1       21 0.10323561E+00 0.11760109E+04</pdfrwt>
<pdfrwt beam="2">  1        4 0.20150908E+00 0.11760109E+04</pdfrwt>
<totfact> 0.35362699E+00</totfact>
</mgrwt>
</event>
<event>
 6    1  0.1353269E-005  0.1095907E+04  0.7818608E-02  0.9486810E-01
          4   -1    0    0  502    0 -0.00000000000E+00  0.00000000000E+00  0.13061018008E+04  0.13061018008E+04  0.00000000000E+00 0.  1.
         21   -1    0    0  501  502  0.00000000000E+00 -0.00000000000E+00 -0.78457035749E+03  0.78457035749E+03  0.00000000000E+00 0. -1.
    9000010    2    1    2  501    0 -0.92984469160E+02  0.39062471254E+03 -0.33393568684E+03  0.11456548042E+04  0.10196951064E+04 0.  0.
        -13    1    3    3    0    0  0.43978267732E+03  0.30072192491E+03 -0.28217782135E+03  0.60288208915E+03  0.10566000000E+00 0.  1.
          4    1    3    3  501    0 -0.53276714648E+03  0.89902787637E+02 -0.51757865488E+02  0.54277271507E+03  0.00000000000E+00 0.  1.
         13    1    1    2    0    0  0.92984469160E+02 -0.39062471254E+03  0.85546713015E+03  0.94501735407E+03  0.10566000000E+00 0. -1.
<mgrwt>
<rscale>  1 0.85263322E+03</rscale>
<asrwt>0</asrwt>
<pdfrwt beam="2">  1       21 0.12070313E+00 0.10959069E+04</pdfrwt>
<pdfrwt beam="1">  1        4 0.20093874E+00 0.10959069E+04</pdfrwt>
<totfact> 0.24178923E+00</totfact>
</mgrwt>
</event>
<event>
 6    1  0.1353269E-005  0.8756714E+03  0.7818608E-02  0.1032378E+00
         21   -1    0    0  501  502  0.00000000000E+00  0.00000000000E+00  0.96491942505E+03  0.96491942505E+03  0.00000000000E+00 0.  1.
          4   -1    0    0  502    0 -0.00000000000E+00 -0.00000000000E+00 -0.27759807192E+03  0.27759807192E+03  0.00000000000E+00 0.  1.
    9000010    2    1    2  501    0  0.36230608262E+02 -0.38943528054E+02  0.75515727054E+03  0.11563143752E+04  0.87405444661E+03 0.  0.
        -13    1    3    3    0    0  0.25215110013E+03  0.22794655617E+03  0.73808523697E+03  0.81259438711E+03  0.10566000000E+00 0.  1.
          4    1    3    3  501    0 -0.21592049187E+03 -0.26689008423E+03  0.17072033575E+02  0.34371998807E+03  0.00000000000E+00 0.  1.
         13    1    1    2    0    0 -0.36230608262E+02  0.38943528054E+02 -0.67835917414E+02  0.86203121798E+02  0.10566000000E+00 0. -1.
<mgrwt>
<rscale>  1 0.43472550E+03</rscale>
<asrwt>0</asrwt>
<pdfrwt beam="1">  1       21 0.14844914E+00 0.87567142E+03</pdfrwt>
<pdfrwt beam="2">  1        4 0.42707396E-01 0.87567142E+03</pdfrwt>
<totfact> 0.60497764E+01</totfact>
</mgrwt>
</event>
<event>
 6    1  0.1353269E-005  0.1328007E+04  0.7818608E-02  0.9111108E-01
         21   -1    0    0  501  502  0.00000000000E+00  0.00000000000E+00  0.17323047593E+04  0.17323047593E+04  0.00000000000E+00 0. -1.
          4   -1    0    0  502    0 -0.00000000000E+00 -0.00000000000E+00 -0.10749617508E+04  0.10749617508E+04  0.00000000000E+00 0.  1.
    9000010    2    1    2  501    0 -0.38417776343E+03 -0.80423370614E+03  0.11778840998E+04  0.17751098132E+04  0.98448945576E+03 0.  0.
        -13    1    3    3    0    0 -0.23057979760E+03  0.14264621469E+03  0.59186406440E+03  0.65101310856E+03  0.10566000000E+00 0.  1.
          4    1    3    3  501    0 -0.15359796582E+03 -0.94687992083E+03  0.58602003539E+03  0.11240967047E+04  0.00000000000E+00 0.  1.
         13    1    1    2    0    0  0.38417776343E+03  0.80423370614E+03 -0.52054109130E+03  0.10321566969E+04  0.10566000000E+00 0. -1.
<mgrwt>
<rscale>  1 0.12019994E+04</rscale>
<asrwt>0</asrwt>
<pdfrwt beam="1">  1       21 0.26650842E+00 0.13280075E+04</pdfrwt>
<pdfrwt beam="2">  1        4 0.16537873E+00 0.13280075E+04</pdfrwt>
<totfact> 0.35687825E-01</totfact>
</mgrwt>
</event>
<event>
 6    1  0.1353269E-005  0.1056243E+04  0.7818608E-02  0.9620527E-01
          4   -1    0    0  502    0 -0.00000000000E+00  0.00000000000E+00  0.46153853982E+03  0.46153853982E+03  0.00000000000E+00 0.  1.
         21   -1    0    0  501  502  0.00000000000E+00 -0.00000000000E+00 -0.10351228112E+04  0.10351228112E+04  0.00000000000E+00 0.  1.
    9000010    2    1    2  501    0 -0.27723537323E+03 -0.53789926193E+02 -0.59700459239E+03  0.12132864564E+04  0.10177901225E+04 0.  0.
        -13    1    3    3    0    0  0.56906827713E+02 -0.11392965154E+03 -0.80507752228E+03  0.81508783612E+03  0.10566000000E+00 0.  1.
          4    1    3    3  501    0 -0.33414220095E+03  0.60139725345E+02  0.20807292989E+03  0.39819862025E+03  0.00000000000E+00 0.  1.
         13    1    1    2    0    0  0.27723537323E+03  0.53789926193E+02  0.23420320995E+02  0.28337489467E+03  0.10566000000E+00 0. -1.
<mgrwt>
<rscale>  1 0.75952343E+03</rscale>
<asrwt>0</asrwt>
<pdfrwt beam="2">  1       21 0.15924966E+00 0.10562431E+04</pdfrwt>
<pdfrwt beam="1">  1        4 0.71005929E-01 0.10562431E+04</pdfrwt>
<totfact> 0.16357110E+01</totfact>
</mgrwt>
</event>
<event>
 6    1  0.1353269E-005  0.1115886E+04  0.7818608E-02  0.9423620E-01
          4   -1    0    0  502    0 -0.00000000000E+00  0.00000000000E+00  0.12616190435E+04  0.12616190435E+04  0.00000000000E+00 0.  1.
         21   -1    0    0  501  502  0.00000000000E+00 -0.00000000000E+00 -0.84890908400E+03  0.84890908400E+03  0.00000000000E+00 0.  1.
    9000010    2    1    2  501    0  0.37752801994E+03 -0.28906901810E+03 -0.38619942644E+03  0.11808268200E+04  0.10095116041E+04 0.  0.
        -13    1    3    3    0    0 -0.16207256933E+03 -0.40822745517E+03  0.93496989924E+02  0.44906443988E+03  0.10566000000E+00 0.  1.
          4    1    3    3  501    0  0.53960058927E+03  0.11915843706E+03 -0.47969641636E+03  0.73176238010E+03  0.00000000000E+00 0.  1.
         13    1    1    2    0    0 -0.37752801994E+03  0.28906901810E+03  0.79890938596E+03  0.92970130752E+03  0.10566000000E+00 0. -1.
<mgrwt>
<rscale>  1 0.90157050E+03</rscale>
<asrwt>0</asrwt>
<pdfrwt beam="2">  1       21 0.13060140E+00 0.11158862E+04</pdfrwt>
<pdfrwt beam="1">  1        4 0.19409524E+00 0.11158862E+04</pdfrwt>
<totfact> 0.21757667E+00</totfact>
</mgrwt>
</event>
<event>
 6    1  0.1353269E-005  0.1011410E+04  0.7818608E-02  0.9871174E-01
         21   -1    0    0  501  502  0.00000000000E+00  0.00000000000E+00  0.11317988252E+04  0.11317988252E+04  0.00000000000E+00 0.  1.
          4   -1    0    0  502    0 -0.00000000000E+00 -0.00000000000E+00 -0.30667314031E+03  0.30667314031E+03  0.00000000000E+00 0.  1.
    9000010    2    1    2  501    0  0.89566654936E+02  0.10744743363E+03  0.81374688134E+03  0.12981273005E+04  0.10016902539E+04 0.  0.
        -13    1    3    3    0    0  0.25795400108E+03  0.39438529716E+03  0.61063303303E+02  0.47519340006E+03  0.10566000000E+00 0.  1.
          4    1    3    3  501    0 -0.16838734615E+03 -0.28693786353E+03  0.75268357803E+03  0.82293390045E+03  0.00000000000E+00 0.  1.
         13    1    1    2    0    0 -0.89566654936E+02 -0.10744743363E+03  0.11378803602E+02  0.14034466504E+03  0.10566000000E+00 0. -1.
<mgrwt>
<rscale>  1 0.61678872E+03</rscale>
<asrwt>0</asrwt>
<pdfrwt beam="1">  1       21 0.17412289E+00 0.10114102E+04</pdfrwt>
<pdfrwt beam="2">  1        4 0.47180484E-01 0.10114102E+04</pdfrwt>
<totfact> 0.30740293E+01</totfact>
</mgrwt>
</event>
<event>
 6    1  0.1353269E-005  0.9849397E+03  0.7818608E-02  0.9917554E-01
         21   -1    0    0  501  502  0.00000000000E+00  0.00000000000E+00  0.34080920557E+03  0.34080920557E+03  0.00000000000E+00 0.  1.
          4   -1    0    0  502    0 -0.00000000000E+00 -0.00000000000E+00 -0.14692883612E+04  0.14692883612E+04  0.00000000000E+00 0.  1.
    9000010    2    1    2  501    0  0.74689675279E+02  0.10695171101E+03 -0.38863452038E+03  0.10588404127E+04  0.97626277869E+03 0.  0.
        -13    1    3    3    0    0  0.11565877447E+03 -0.53711222529E+02  0.31294773684E+03  0.33793215990E+03  0.10566000000E+00 0.  1.
          4    1    3    3  501    0 -0.40969099187E+02  0.16066293354E+03 -0.70158225722E+03  0.72090825280E+03  0.00000000000E+00 0.  1.
         13    1    1    2    0    0 -0.74689675279E+02 -0.10695171101E+03 -0.73984463523E+03  0.75125715405E+03  0.10566000000E+00 0. -1.
<mgrwt>
<rscale>  1 0.59418042E+03</rscale>
<asrwt>0</asrwt>
<pdfrwt beam="1">  1       21 0.52432186E-01 0.98493971E+03</pdfrwt>
<pdfrwt beam="2">  1        4 0.22604436E+00 0.98493971E+03</pdfrwt>
<totfact> 0.12132064E+01</totfact>
</mgrwt>
</event>
<event>
 6    1  0.1353269E-005  0.1003667E+04  0.7818608E-02  0.9690170E-01
          4   -1    0    0  502    0 -0.00000000000E+00  0.00000000000E+00  0.58902799869E+03  0.58902799869E+03  0.00000000000E+00 0.  1.
         21   -1    0    0  501  502  0.00000000000E+00 -0.00000000000E+00 -0.71584160837E+03  0.71584160837E+03  0.00000000000E+00 0.  1.
    9000010    2    1    2  501    0 -0.22394411597E+03  0.13213436283E+03  0.24615656106E+02  0.10039688084E+04  0.96940032023E+03 0.  0.
        -13    1    3    3    0    0 -0.39634617522E+03  0.27194449430E+03 -0.33181284351E+03  0.58407522878E+03  0.10566000000E+00 0.  1.
          4    1    3    3  501    0  0.17240205925E+03 -0.13981013147E+03  0.35642849961E+03  0.41989357965E+03  0.00000000000E+00 0.  1.
         13    1    1    2    0    0  0.22394411597E+03 -0.13213436283E+03 -0.15142926578E+03  0.30090079863E+03  0.10566000000E+00 0. -1.
<mgrwt>
<rscale>  1 0.71605112E+03</rscale>
<asrwt>0</asrwt>
<pdfrwt beam="2">  1       21 0.11012948E+00 0.10036670E+04</pdfrwt>
<pdfrwt beam="1">  1        4 0.90619692E-01 0.10036670E+04</pdfrwt>
<totfact> 0.25225506E+01</totfact>
</mgrwt>
</event>
<event>
 6    1  0.1353269E-005  0.9909861E+03  0.7818608E-02  0.1003997E+00
         21   -1    0    0  501  502  0.00000000000E+00  0.00000000000E+00  0.16062663103E+03  0.16062663103E+03  0.00000000000E+00 0.  1.
          4   -1    0    0  502    0 -0.00000000000E+00 -0.00000000000E+00 -0.18093622589E+04  0.18093622589E+04  0.00000000000E+00 0.  1.
    9000010    2    1    2  501    0  0.50272212343E+02 -0.70920583994E+02 -0.15278083267E+04  0.18210578727E+04  0.98716587662E+03 0.  0.
        -13    1    3    3    0    0  0.11023915986E+03 -0.51686842271E+03 -0.96756091771E+03  0.11024879951E+04  0.10566000000E+00 0.  1.
          4    1    3    3  501    0 -0.59966947519E+02  0.44594783872E+03 -0.56024740900E+03  0.71856987756E+03  0.00000000000E+00 0.  1.
         13    1    1    2    0    0 -0.50272212343E+02  0.70920583994E+02 -0.12092730118E+03  0.14893101726E+03  0.10566000000E+00 0. -1.
<mgrwt>
<rscale>  1 0.53931769E+03</rscale>
<asrwt>0</asrwt>
<pdfrwt beam="1">  1       21 0.24711790E-01 0.99098612E+03</pdfrwt>
<pdfrwt beam="2">  1        4 0.27836341E+00 0.99098612E+03</pdfrwt>
<totfact> 0.27212925E+01</totfact>
</mgrwt>
</event>
<event>
 6    1  0.1353269E-005  0.1083377E+04  0.7818608E-02  0.9495810E-01
         21   -1    0    0  501  502  0.00000000000E+00  0.00000000000E+00  0.10021525249E+04  0.10021525249E+04  0.00000000000E+00 0.  1.
          4   -1    0    0  502    0 -0.00000000000E+00 -0.00000000000E+00 -0.62812352109E+03  0.62812352109E+03  0.00000000000E+00 0.  1.
    9000010    2    1    2  501    0  0.51156578870E+02  0.39946187366E+03  0.52026395963E+03  0.12018236478E+04  0.10057428641E+04 0.  0.
        -13    1    3    3    0    0  0.82609245252E+02  0.51957797411E+03 -0.12826611129E+03  0.54151432580E+03  0.10566000000E+00 0.  1.
          4    1    3    3  501    0 -0.31452666382E+02 -0.12011610045E+03  0.64853007092E+03  0.66030932198E+03  0.00000000000E+00 0.  1.
         13    1    1    2    0    0 -0.51156578870E+02 -0.39946187366E+03 -0.14623495583E+03  0.42845239822E+03  0.10566000000E+00 0. -1.
<mgrwt>
<rscale>  1 0.84593426E+03</rscale>
<asrwt>0</asrwt>
<pdfrwt beam="1">  1       21 0.15417731E+00 0.10833769E+04</pdfrwt>
<pdfrwt beam="2">  1        4 0.96634388E-01 0.10833769E+04</pdfrwt>
<totfact> 0.87551951E+00</totfact>
</mgrwt>
</event>
<event>
 6    1  0.1353269E-005  0.8634526E+03  0.7818608E-02  0.1019191E+00
         21   -1    0    0  501  502  0.00000000000E+00  0.00000000000E+00  0.10185405588E+04  0.10185405588E+04  0.00000000000E+00 0.  1.
          4   -1    0    0  502    0 -0.00000000000E+00 -0.00000000000E+00 -0.24008434246E+03  0.24008434246E+03  0.00000000000E+00 0.  1.
    9000010    2    1    2  501    0  0.74233350398E+02  0.35585737305E+02  0.79608449452E+03  0.11744364082E+04  0.85951929556E+03 0.  0.
        -13    1    3    3    0    0 -0.89374895661E+02 -0.90136433229E+02  0.92333450898E+03  0.93201881698E+03  0.10566000000E+00 0.  1.
          4    1    3    3  501    0  0.16360824606E+03  0.12572217053E+03 -0.12725001446E+03  0.24241759120E+03  0.00000000000E+00 0.  1.
         13    1    1    2    0    0 -0.74233350398E+02 -0.35585737305E+02 -0.17628278181E+02  0.84188493077E+02  0.10566000000E+00 0. -1.
<mgrwt>
<rscale>  1 0.47979766E+03</rscale>
<asrwt>0</asrwt>
<pdfrwt beam="1">  1       21 0.15669854E+00 0.86345258E+03</pdfrwt>
<pdfrwt beam="2">  1        4 0.36936053E-01 0.86345258E+03</pdfrwt>
<totfact> 0.69965702E+01</totfact>
</mgrwt>
</event>
<event>
 6    1  0.1353269E-005  0.1024629E+04  0.7818608E-02  0.9815076E-01
         21   -1    0    0  501  502  0.00000000000E+00  0.00000000000E+00  0.29733903723E+03  0.29733903723E+03  0.00000000000E+00 0.  1.
          4   -1    0    0  502    0 -0.00000000000E+00 -0.00000000000E+00 -0.12860632523E+04  0.12860632523E+04  0.00000000000E+00 0.  1.
    9000010    2    1    2  501    0 -0.30727666147E+02 -0.15853957139E+03 -0.66465115216E+03  0.12213217095E+04  0.10118233931E+04 0.  0.
        -13    1    3    3    0    0 -0.21740941568E+03 -0.52559293992E+03 -0.55608334691E+03  0.79545175365E+03  0.10566000000E+00 0.  1.
          4    1    3    3  501    0  0.18668174953E+03  0.36705336852E+03 -0.10856780524E+03  0.42586995584E+03  0.00000000000E+00 0.  1.
         13    1    1    2    0    0  0.30727666147E+02  0.15853957139E+03 -0.32407306296E+03  0.36208058007E+03  0.10566000000E+00 0. -1.
<mgrwt>
<rscale>  1 0.64559698E+03</rscale>
<asrwt>0</asrwt>
<pdfrwt beam="1">  1       21 0.45744467E-01 0.10246295E+04</pdfrwt>
<pdfrwt beam="2">  1        4 0.19785588E+00 0.10246295E+04</pdfrwt>
<totfact> 0.24677459E+01</totfact>
</mgrwt>
</event>
<event>
 6    1  0.1353269E-005  0.1037504E+04  0.7818608E-02  0.9572255E-01
          4   -1    0    0  502    0 -0.00000000000E+00  0.00000000000E+00  0.10330511459E+04  0.10330511459E+04  0.00000000000E+00 0.  1.
         21   -1    0    0  501  502  0.00000000000E+00 -0.00000000000E+00 -0.60681319877E+03  0.60681319877E+03  0.00000000000E+00 0.  1.
    9000010    2    1    2  501    0 -0.35063061789E+03 -0.26160668604E+02 -0.60670809484E+02  0.10392760004E+04  0.97610831734E+03 0.  0.
        -13    1    3    3    0    0  0.17883992958E+03 -0.11099837987E+03 -0.36600557550E+03  0.42221375299E+03  0.10566000000E+00 0.  1.
          4    1    3    3  501    0 -0.52947054747E+03  0.84837711269E+02  0.30533476602E+03  0.61706224745E+03  0.00000000000E+00 0.  1.
         13    1    1    2    0    0  0.35063061789E+03  0.26160668604E+02  0.48690875658E+03  0.60058834420E+03  0.10566000000E+00 0. -1.
<mgrwt>
<rscale>  1 0.79160044E+03</rscale>
<asrwt>0</asrwt>
<pdfrwt beam="2">  1       21 0.93355877E-01 0.10375036E+04</pdfrwt>
<pdfrwt beam="1">  1        4 0.15893094E+00 0.10375036E+04</pdfrwt>
<totfact> 0.91639720E+00</totfact>
</mgrwt>
</event>
<event>
 6    1  0.1353269E-005  0.9624520E+03  0.7818608E-02  0.9983366E-01
          4   -1    0    0  502    0 -0.00000000000E+00  0.00000000000E+00  0.10968706265E+04  0.10968706265E+04  0.00000000000E+00 0.  1.
         21   -1    0    0  501  502  0.00000000000E+00 -0.00000000000E+00 -0.34970389426E+03  0.34970389426E+03  0.00000000000E+00 0.  1.
    9000010    2    1    2  501    0  0.11335170426E+03  0.25434014625E+01  0.33498365673E+03  0.10190818581E+04  0.95575033635E+03 0.  0.
        -13    1    3    3    0    0  0.13200480106E+03  0.14030599212E+03  0.64829573508E+03  0.67631236142E+03  0.10566000000E+00 0.  1.
          4    1    3    3  501    0 -0.18653096795E+02 -0.13776259066E+03 -0.31331207834E+03  0.34276949666E+03  0.00000000000E+00 0.  1.
         13    1    1    2    0    0 -0.11335170426E+03 -0.25434014625E+01  0.41218307547E+03  0.42749266265E+03  0.10566000000E+00 0. -1.
<mgrwt>
<rscale>  1 0.56385662E+03</rscale>
<asrwt>0</asrwt>
<pdfrwt beam="2">  1       21 0.53800600E-01 0.96245196E+03</pdfrwt>
<pdfrwt beam="1">  1        4 0.16874933E+00 0.96245196E+03</pdfrwt>
<totfact> 0.27802331E+01</totfact>
</mgrwt>
</event>
<event>
 6    1  0.1353269E-005  0.1048541E+04  0.7818608E-02  0.9564063E-01
          4   -1    0    0  502    0 -0.00000000000E+00  0.00000000000E+00  0.43814325827E+03  0.43814325827E+03  0.00000000000E+00 0.  1.
         21   -1    0    0  501  502  0.00000000000E+00 -0.00000000000E+00 -0.11263870485E+04  0.11263870485E+04  0.00000000000E+00 0.  1.
    9000010    2    1    2  501    0  0.35037672866E+03  0.82969664407E+00 -0.45118989880E+03  0.11414947303E+04  0.98826785542E+03 0.  0.
        -13    1    3    3    0    0  0.54653089734E+03  0.13866436010E+03  0.69645574608E+02  0.56813232942E+03  0.10566000000E+00 0.  1.
          4    1    3    3  501    0 -0.19615416868E+03 -0.13783466345E+03 -0.52083547340E+03  0.57336240084E+03  0.00000000000E+00 0.  1.
         13    1    1    2    0    0 -0.35037672866E+03 -0.82969664407E+00 -0.23705389142E+03  0.42303557650E+03  0.10566000000E+00 0. -1.
<mgrwt>
<rscale>  1 0.79721083E+03</rscale>
<asrwt>0</asrwt>
<pdfrwt beam="2">  1       21 0.17329031E+00 0.10485408E+04</pdfrwt>
<pdfrwt beam="1">  1        4 0.67406656E-01 0.10485408E+04</pdfrwt>
<totfact> 0.14386266E+01</totfact>
</mgrwt>
</event>
<event>
 6    1  0.1353269E-005  0.1098323E+04  0.7818608E-02  0.9544749E-01
          4   -1    0    0  502    0 -0.00000000000E+00  0.00000000000E+00  0.64585188518E+03  0.64585188518E+03  0.00000000000E+00 0.  1.
         21   -1    0    0  501  502  0.00000000000E+00 -0.00000000000E+00 -0.84186842648E+03  0.84186842648E+03  0.00000000000E+00 0.  1.
    9000010    2    1    2  501    0 -0.22879524708E+03 -0.23211426657E+03  0.16834035867E+02  0.10984521814E+04  0.10488515206E+04 0.  0.
        -13    1    3    3    0    0 -0.56218986109E+03  0.15914128471E+03  0.10922100801E+02  0.58438231652E+03  0.10566000000E+00 0.  1.
          4    1    3    3  501    0  0.33339461401E+03 -0.39125555128E+03  0.59119350662E+01  0.51406986493E+03  0.00000000000E+00 0.  1.
         13    1    1    2    0    0  0.22879524708E+03  0.23211426657E+03 -0.21285057717E+03  0.38926813021E+03  0.10566000000E+00 0. -1.
<mgrwt>
<rscale>  1 0.81063557E+03</rscale>
<asrwt>0</asrwt>
<pdfrwt beam="2">  1       21 0.12951822E+00 0.10983232E+04</pdfrwt>
<pdfrwt beam="1">  1        4 0.99361828E-01 0.10983232E+04</pdfrwt>
<totfact> 0.13175108E+01</totfact>
</mgrwt>
</event>
<event>
 6    1  0.1353269E-005  0.9935330E+03  0.7818608E-02  0.9751031E-01
          4   -1    0    0  502    0 -0.00000000000E+00  0.00000000000E+00  0.35676061370E+03  0.35676061370E+03  0.00000000000E+00 0.  1.
         21   -1    0    0  501  502  0.00000000000E+00 -0.00000000000E+00 -0.11695252872E+04  0.11695252872E+04  0.00000000000E+00 0.  1.
    9000010    2    1    2  501    0 -0.21717051371E+03  0.26337172548E+02 -0.84611392459E+03  0.13049968085E+04  0.96914973978E+03 0.  0.
        -13    1    3    3    0    0 -0.56513953940E+03 -0.17312019192E+03 -0.46995808533E+03  0.75512509757E+03  0.10566000000E+00 0.  1.
          4    1    3    3  501    0  0.34796902569E+03  0.19945736447E+03 -0.37615583925E+03  0.54987171093E+03  0.00000000000E+00 0.  1.
         13    1    1    2    0    0  0.21717051371E+03 -0.26337172548E+02  0.33349251135E+02  0.22128909236E+03  0.10566000000E+00 0. -1.
<mgrwt>
<rscale>  1 0.68058060E+03</rscale>
<asrwt>0</asrwt>
<pdfrwt beam="2">  1       21 0.17992697E+00 0.99353304E+03</pdfrwt>
<pdfrwt beam="1">  1        4 0.54886249E-01 0.99353304E+03</pdfrwt>
<totfact> 0.20274040E+01</totfact>
</mgrwt>
</event>
<event>
 6    1  0.1353269E-005  0.1026684E+04  0.7818608E-02  0.9713743E-01
         21   -1    0    0  501  502  0.00000000000E+00  0.00000000000E+00  0.63013938426E+03  0.63013938426E+03  0.00000000000E+00 0.  1.
          4   -1    0    0  502    0 -0.00000000000E+00 -0.00000000000E+00 -0.63974989839E+03  0.63974989839E+03  0.00000000000E+00 0.  1.
    9000010    2    1    2  501    0  0.22190291937E+03 -0.33810662164E+02 -0.91965076198E+02  0.10307944237E+04  0.10018460472E+04 0.  0.
        -13    1    3    3    0    0  0.39738584115E+03 -0.37488018846E+03 -0.26830357228E+03  0.60863575356E+03  0.10566000000E+00 0.  1.
          4    1    3    3  501    0 -0.17548292177E+03  0.34106952630E+03  0.17633849609E+03  0.42215867018E+03  0.00000000000E+00 0.  1.
         13    1    1    2    0    0 -0.22190291937E+03  0.33810662164E+02  0.82354562065E+02  0.23909485891E+03  0.10566000000E+00 0. -1.
<mgrwt>
<rscale>  1 0.70204385E+03</rscale>
<asrwt>0</asrwt>
<pdfrwt beam="1">  1       21 0.96944521E-01 0.10266838E+04</pdfrwt>
<pdfrwt beam="2">  1        4 0.98423061E-01 0.10266838E+04</pdfrwt>
<totfact> 0.28451466E+01</totfact>
</mgrwt>
</event>
<event>
 6    1  0.1353269E-005  0.9846430E+03  0.7818608E-02  0.1012584E+00
          4   -1    0    0  502    0 -0.00000000000E+00  0.00000000000E+00  0.15828900740E+04  0.15828900740E+04  0.00000000000E+00 0.  1.
         21   -1    0    0  501  502  0.00000000000E+00 -0.00000000000E+00 -0.18646102086E+03  0.18646102086E+03  0.00000000000E+00 0.  1.
    9000010    2    1    2  501    0 -0.67907436265E+02 -0.98790689717E+00  0.11510171896E+04  0.15147152965E+04  0.98229805200E+03 0.  0.
        -13    1    3    3    0    0 -0.33803548975E+03 -0.38583269766E+03  0.64209201519E+03  0.82183759348E+03  0.10566000000E+00 0.  1.
          4    1    3    3  501    0  0.27012805349E+03  0.38484479076E+03  0.50892517441E+03  0.69287770306E+03  0.00000000000E+00 0.  1.
         13    1    1    2    0    0  0.67907436265E+02  0.98790689717E+00  0.24541186355E+03  0.25463579834E+03  0.10566000000E+00 0. -1.
<mgrwt>
<rscale>  1 0.50460326E+03</rscale>
<asrwt>0</asrwt>
<pdfrwt beam="2">  1       21 0.28686312E-01 0.98464301E+03</pdfrwt>
<pdfrwt beam="1">  1        4 0.24352154E+00 0.98464301E+03</pdfrwt>
<totfact> 0.33193268E+01</totfact>
</mgrwt>
</event>
<event>
 6    1  0.1353269E-005  0.1127406E+04  0.7818608E-02  0.9392203E-01
         21   -1    0    0  501  502  0.00000000000E+00  0.00000000000E+00  0.26878086521E+04  0.26878086521E+04  0.00000000000E+00 0.  1.
          4   -1    0    0  502    0 -0.00000000000E+00 -0.00000000000E+00 -0.30352884809E+03  0.30352884809E+03  0.00000000000E+00 0.  1.
    9000010    2    1    2  501    0 -0.45064541367E+03 -0.25086904994E+03  0.21439913692E+04  0.24223426741E+04  0.10025110824E+04 0.  0.
        -13    1    3    3    0    0 -0.54735087961E+03  0.16036951665E+03  0.62692132950E+03  0.84755043025E+03  0.10566000000E+00 0.  1.
          4    1    3    3  501    0  0.96705465943E+02 -0.41123856659E+03  0.15170700397E+04  0.15747922438E+04  0.00000000000E+00 0.  1.
         13    1    1    2    0    0  0.45064541367E+03  0.25086904994E+03  0.24028843479E+03  0.56899482611E+03  0.10566000000E+00 0. -1.
<mgrwt>
<rscale>  1 0.92720111E+03</rscale>
<asrwt>0</asrwt>
<pdfrwt beam="1">  1       21 0.41350901E+00 0.11274063E+04</pdfrwt>
<pdfrwt beam="2">  1        4 0.46696748E-01 0.11274063E+04</pdfrwt>
<totfact> 0.86419996E-01</totfact>
</mgrwt>
</event>
<event>
 6    1  0.1353269E-005  0.1045511E+04  0.7818608E-02  0.9739344E-01
         21   -1    0    0  501  502  0.00000000000E+00  0.00000000000E+00  0.56719840016E+03  0.56719840016E+03  0.00000000000E+00 0.  1.
          4   -1    0    0  502    0 -0.00000000000E+00 -0.00000000000E+00 -0.94881868623E+03  0.94881868623E+03  0.00000000000E+00 0.  1.
    9000010    2    1    2  501    0  0.56297226037E+02  0.18686457130E+03  0.45417681340E+02  0.10464969245E+04  0.10271345099E+04 0.  0.
        -13    1    3    3    0    0  0.32620183374E+03 -0.31951132637E+03  0.10819735750E+03  0.46925664977E+03  0.10566000000E+00 0.  1.
          4    1    3    3  501    0 -0.26990460771E+03  0.50637589767E+03 -0.62779676163E+02  0.57724027471E+03  0.00000000000E+00 0.  1.
         13    1    1    2    0    0 -0.56297226037E+02 -0.18686457130E+03 -0.42703796741E+03  0.46952016191E+03  0.10566000000E+00 0. -1.
<mgrwt>
<rscale>  1 0.68721811E+03</rscale>
<asrwt>0</asrwt>
<pdfrwt beam="1">  1       21 0.87261293E-01 0.10455109E+04</pdfrwt>
<pdfrwt beam="2">  1        4 0.14597210E+00 0.10455109E+04</pdfrwt>
<totfact> 0.13566809E+01</totfact>
</mgrwt>
</event>
<event>
 6    1  0.1353269E-005  0.1006398E+04  0.7818608E-02  0.9824564E-01
         21   -1    0    0  501  502  0.00000000000E+00  0.00000000000E+00  0.38482142004E+04  0.38482142004E+04  0.00000000000E+00 0.  1.
          4   -1    0    0  502    0 -0.00000000000E+00 -0.00000000000E+00 -0.10589442353E+03  0.10589442353E+03  0.00000000000E+00 0.  1.
    9000010    2    1    2  501    0 -0.16520519546E+03  0.21122418478E+01  0.35934353385E+04  0.37317040257E+04  0.99274376610E+03 0.  0.
        -13    1    3    3    0    0  0.36014612426E+03  0.22967610328E+03  0.13257772541E+04  0.13928896876E+04  0.10566000000E+00 0.  1.
          4    1    3    3  501    0 -0.52535131971E+03 -0.22756386143E+03  0.22676580844E+04  0.23388143380E+04  0.00000000000E+00 0.  1.
         13    1    1    2    0    0  0.16520519546E+03 -0.21122418478E+01  0.14888443837E+03  0.22240459826E+03  0.10566000000E+00 0. -1.
<mgrwt>
<rscale>  1 0.64060780E+03</rscale>
<asrwt>0</asrwt>
<pdfrwt beam="1">  1       21 0.59203285E+00 0.10063982E+04</pdfrwt>
<pdfrwt beam="2">  1        4 0.16291453E-01 0.10063982E+04</pdfrwt>
<totfact> 0.35356420E-01</totfact>
</mgrwt>
</event>
<event>
 6    1  0.1353269E-005  0.7864621E+03  0.7818608E-02  0.9932012E-01
         21   -1    0    0  501  502  0.00000000000E+00  0.00000000000E+00  0.21675016769E+04  0.21675016769E+04  0.00000000000E+00 0.  1.
          4   -1    0    0  502    0 -0.00000000000E+00 -0.00000000000E+00 -0.22787291566E+03  0.22787291566E+03  0.00000000000E+00 0.  1.
    9000010    2    1    2  501    0  0.96467595633E+02  0.22482679269E+03  0.19951002577E+04  0.21445157043E+04  0.74744196037E+03 0.  0.
        -13    1    3    3    0    0 -0.31935826003E+03  0.20310245775E+02  0.72346169960E+03  0.79107461487E+03  0.10566000000E+00 0.  1.
          4    1    3    3  501    0  0.41582585566E+03  0.20451654692E+03  0.12716385581E+04  0.13534410895E+04  0.00000000000E+00 0.  1.
         13    1    1    2    0    0 -0.96467595633E+02 -0.22482679269E+03 -0.55471496470E+02  0.25085888823E+03  0.10566000000E+00 0. -1.
<mgrwt>
<rscale>  1 0.58734619E+03</rscale>
<asrwt>0</asrwt>
<pdfrwt beam="1">  1       21 0.33346178E+00 0.78646206E+03</pdfrwt>
<pdfrwt beam="2">  1        4 0.35057373E-01 0.78646206E+03</pdfrwt>
<totfact> 0.54624311E+00</totfact>
</mgrwt>
</event>
<event>
 6    1  0.1353269E-005  0.1016271E+04  0.7818608E-02  0.9784615E-01
         21   -1    0    0  501  502  0.00000000000E+00  0.00000000000E+00  0.59032526753E+03  0.59032526753E+03  0.00000000000E+00 0.  1.
          4   -1    0    0  502    0 -0.00000000000E+00 -0.00000000000E+00 -0.77849655345E+03  0.77849655345E+03  0.00000000000E+00 0.  1.
    9000010    2    1    2  501    0 -0.15032874618E+02  0.18230313711E+03  0.10666198438E+03  0.10218533937E+04  0.99967352576E+03 0.  0.
        -13    1    3    3    0    0 -0.22371853814E+03  0.36187848964E+03  0.42474046041E+03  0.60117426379E+03  0.10566000000E+00 0.  1.
          4    1    3    3  501    0  0.20868566353E+03 -0.17957535253E+03 -0.31807847602E+03  0.42067912987E+03  0.00000000000E+00 0.  1.
         13    1    1    2    0    0  0.15032874618E+02 -0.18230313711E+03 -0.29483327029E+03  0.34696842732E+03  0.10566000000E+00 0. -1.
<mgrwt>
<rscale>  1 0.66194777E+03</rscale>
<asrwt>0</asrwt>
<pdfrwt beam="1">  1       21 0.90819272E-01 0.10162714E+04</pdfrwt>
<pdfrwt beam="2">  1        4 0.11976870E+00 0.10162714E+04</pdfrwt>
<totfact> 0.20617494E+01</totfact>
</mgrwt>
</event>
<event>
 6    1  0.1353269E-005  0.1158713E+04  0.7818608E-02  0.9547291E-01
         21   -1    0    0  501  502  0.00000000000E+00  0.00000000000E+00  0.94364111267E+03  0.94364111267E+03  0.00000000000E+00 0.  1.
          4   -1    0    0  502    0 -0.00000000000E+00 -0.00000000000E+00 -0.64575228069E+03  0.64575228069E+03  0.00000000000E+00 0.  1.
    9000010    2    1    2  501    0  0.24927575128E+03  0.11645783374E+03  0.48556800534E+03  0.12563403788E+04  0.11255727575E+04 0.  0.
        -13    1    3    3    0    0 -0.23191822755E+03  0.42389854529E+03 -0.33905531984E+02  0.48438170612E+03  0.10566000000E+00 0.  1.
          4    1    3    3  501    0  0.48119397883E+03 -0.30744071154E+03  0.51947353732E+03  0.77195867269E+03  0.00000000000E+00 0.  1.
         13    1    1    2    0    0 -0.24927575128E+03 -0.11645783374E+03 -0.18767917336E+03  0.33305301453E+03  0.10566000000E+00 0. -1.
<mgrwt>
<rscale>  1 0.80885259E+03</rscale>
<asrwt>0</asrwt>
<pdfrwt beam="1">  1       21 0.14517556E+00 0.11587126E+04</pdfrwt>
<pdfrwt beam="2">  1        4 0.99346504E-01 0.11587126E+04</pdfrwt>
<totfact> 0.96117845E+00</totfact>
</mgrwt>
</event>
<event>
 6    1  0.1353269E-005  0.1044443E+04  0.7818608E-02  0.9641286E-01
          4   -1    0    0  502    0 -0.00000000000E+00  0.00000000000E+00  0.38309220408E+03  0.38309220408E+03  0.00000000000E+00 0.  1.
         21   -1    0    0  501  502  0.00000000000E+00 -0.00000000000E+00 -0.11985463323E+04  0.11985463323E+04  0.00000000000E+00 0.  1.
    9000010    2    1    2  501    0 -0.33256530669E+02  0.27012582743E+03 -0.47944159072E+03  0.11492285504E+04  0.10083590941E+04 0.  0.
        -13    1    3    3    0    0 -0.41531792167E+03 -0.68733452168E+02  0.37426432537E+02  0.42262751037E+03  0.10566000000E+00 0.  1.
          4    1    3    3  501    0  0.38206139100E+03  0.33885927960E+03 -0.51686802326E+03  0.72660104000E+03  0.00000000000E+00 0.  1.
         13    1    1    2    0    0  0.33256530669E+02 -0.27012582743E+03 -0.33601253748E+03  0.43240998599E+03  0.10566000000E+00 0. -1.
<mgrwt>
<rscale>  1 0.74622869E+03</rscale>
<asrwt>0</asrwt>
<pdfrwt beam="2">  1       21 0.18439174E+00 0.10444434E+04</pdfrwt>
<pdfrwt beam="1">  1        4 0.58937263E-01 0.10444434E+04</pdfrwt>
<totfact> 0.16046014E+01</totfact>
</mgrwt>
</event>
<event>
 6    1  0.1353269E-005  0.1033862E+04  0.7818608E-02  0.9736883E-01
          4   -1    0    0  502    0 -0.00000000000E+00  0.00000000000E+00  0.13058180743E+04  0.13058180743E+04  0.00000000000E+00 0.  1.
         21   -1    0    0  501  502  0.00000000000E+00 -0.00000000000E+00 -0.35156338555E+03  0.35156338555E+03  0.00000000000E+00 0.  1.
    9000010    2    1    2  501    0  0.16413619904E+03  0.12028389755E+03  0.47708116173E+03  0.11386295982E+04  0.10136380120E+04 0.  0.
        -13    1    3    3    0    0  0.55412668594E+03  0.23466723859E+03  0.40631215862E+03  0.72609550223E+03  0.10566000000E+00 0.  1.
          4    1    3    3  501    0 -0.38999048690E+03 -0.11438334104E+03  0.70769003104E+02  0.41253409602E+03  0.00000000000E+00 0.  1.
         13    1    1    2    0    0 -0.16413619904E+03 -0.12028389755E+03  0.47717352699E+03  0.51875186156E+03  0.10566000000E+00 0. -1.
<mgrwt>
<rscale>  1 0.68862647E+03</rscale>
<asrwt>0</asrwt>
<pdfrwt beam="2">  1       21 0.54086675E-01 0.10338621E+04</pdfrwt>
<pdfrwt beam="1">  1        4 0.20089509E+00 0.10338621E+04</pdfrwt>
<totfact> 0.16384498E+01</totfact>
</mgrwt>
</event>
<event>
 6    1  0.1353269E-005  0.1004205E+04  0.7818608E-02  0.1003879E+00
          4   -1    0    0  502    0 -0.00000000000E+00  0.00000000000E+00  0.12601088660E+04  0.12601088660E+04  0.00000000000E+00 0.  1.
         21   -1    0    0  501  502  0.00000000000E+00 -0.00000000000E+00 -0.30857900730E+03  0.30857900730E+03  0.00000000000E+00 0.  1.
    9000010    2    1    2  501    0 -0.13853784712E+02 -0.82698735686E+02  0.10407614229E+04  0.14462407768E+04  0.10006982746E+04 0.  0.
        -13    1    3    3    0    0 -0.10668198919E+03  0.20626344326E+03  0.11107535287E+04  0.11347682880E+04  0.10566000000E+00 0.  1.
          4    1    3    3  501    0  0.92828204480E+02 -0.28896217895E+03 -0.69992105760E+02  0.31147248880E+03  0.00000000000E+00 0.  1.
         13    1    1    2    0    0  0.13853784712E+02  0.82698735686E+02 -0.89231564184E+02  0.12244709652E+03  0.10566000000E+00 0. -1.
<mgrwt>
<rscale>  1 0.53981405E+03</rscale>
<asrwt>0</asrwt>
<pdfrwt beam="2">  1       21 0.47473694E-01 0.10042052E+04</pdfrwt>
<pdfrwt beam="1">  1        4 0.19386290E+00 0.10042052E+04</pdfrwt>
<totfact> 0.24287571E+01</totfact>
</mgrwt>
</event>
<event>
 6    1  0.1353269E-005  0.1046257E+04  0.7818608E-02  0.1006570E+00
         21   -1    0    0  501  502  0.00000000000E+00  0.00000000000E+00  0.50995518798E+03  0.50995518798E+03  0.00000000000E+00 0.  1.
          4   -1    0    0  502    0 -0.00000000000E+00 -0.00000000000E+00 -0.60916440657E+03  0.60916440657E+03  0.00000000000E+00 0.  1.
    9000010    2    1    2  501    0 -0.62274086562E+02  0.27742669096E+02 -0.87077800559E+02  0.10498743780E+04  0.10440334998E+04 0.  0.
        -13    1    3    3    0    0 -0.53370212612E+03  0.15885202834E+03 -0.53442633467E+02  0.55939972522E+03  0.10566000000E+00 0.  1.
          4    1    3    3  501    0  0.47142803956E+03 -0.13110935925E+03 -0.33635167092E+02  0.49047465279E+03  0.00000000000E+00 0.  1.
         13    1    1    2    0    0  0.62274086562E+02 -0.27742669096E+02 -0.12131418037E+02  0.69245216538E+02  0.10566000000E+00 0. -1.
<mgrwt>
<rscale>  1 0.52860817E+03</rscale>
<asrwt>0</asrwt>
<pdfrwt beam="1">  1       21 0.78454644E-01 0.10462570E+04</pdfrwt>
<pdfrwt beam="2">  1        4 0.93717602E-01 0.10462570E+04</pdfrwt>
<totfact> 0.53057905E+01</totfact>
</mgrwt>
</event>
<event>
 6    1  0.1353269E-005  0.1345452E+04  0.7818608E-02  0.9099721E-01
         21   -1    0    0  501  502  0.00000000000E+00  0.00000000000E+00  0.47246250944E+03  0.47246250944E+03  0.00000000000E+00 0. -1.
          4   -1    0    0  502    0 -0.00000000000E+00 -0.00000000000E+00 -0.29807792717E+04  0.29807792717E+04  0.00000000000E+00 0.  1.
    9000010    2    1    2  501    0  0.58238451981E+03  0.67974287608E+03 -0.91952759454E+03  0.16296537967E+04  0.10044990759E+04 0.  0.
        -13    1    3    3    0    0  0.16508017146E+03  0.57112297709E+03  0.21121704320E+02  0.59487734494E+03  0.10566000000E+00 0.  1.
          4    1    3    3  501    0  0.41730434834E+03  0.10861989899E+03 -0.94064929886E+03  0.10347764517E+04  0.00000000000E+00 0.  1.
         13    1    1    2    0    0 -0.58238451981E+03 -0.67974287608E+03 -0.15887891678E+04  0.18235879845E+04  0.10566000000E+00 0. -1.
<mgrwt>
<rscale>  1 0.12151229E+04</rscale>
<asrwt>0</asrwt>
<pdfrwt beam="1">  1       21 0.72686539E-01 0.13454518E+04</pdfrwt>
<pdfrwt beam="2">  1        4 0.45858143E+00 0.13454518E+04</pdfrwt>
<totfact> 0.16082230E-01</totfact>
</mgrwt>
</event>
<event>
 6    1  0.1353269E-005  0.1013747E+04  0.7818608E-02  0.9780829E-01
          4   -1    0    0  502    0 -0.00000000000E+00  0.00000000000E+00  0.60784950247E+03  0.60784950247E+03  0.00000000000E+00 0.  1.
         21   -1    0    0  501  502  0.00000000000E+00 -0.00000000000E+00 -0.82652185411E+03  0.82652185411E+03  0.00000000000E+00 0.  1.
    9000010    2    1    2  501    0 -0.12365997587E+03 -0.13975008098E+03 -0.47321416931E+03  0.11187554145E+04  0.99642368136E+03 0.  0.
        -13    1    3    3    0    0 -0.57940197042E+02 -0.43967778928E+03 -0.63279007274E+03  0.77272046184E+03  0.10566000000E+00 0.  1.
          4    1    3    3  501    0 -0.65719778829E+02  0.29992770831E+03  0.15957590343E+03  0.34603495271E+03  0.00000000000E+00 0.  1.
         13    1    1    2    0    0  0.12365997587E+03  0.13975008098E+03  0.25454181766E+03  0.31561594204E+03  0.10566000000E+00 0. -1.
<mgrwt>
<rscale>  1 0.66401604E+03</rscale>
<asrwt>0</asrwt>
<pdfrwt beam="2">  1       21 0.12715721E+00 0.10137465E+04</pdfrwt>
<pdfrwt beam="1">  1        4 0.93515309E-01 0.10137465E+04</pdfrwt>
<totfact> 0.16131929E+01</totfact>
</mgrwt>
</event>
<event>
 6    1  0.1353269E-005  0.1006474E+04  0.7818608E-02  0.9876730E-01
         21   -1    0    0  501  502  0.00000000000E+00  0.00000000000E+00  0.54606364317E+03  0.54606364317E+03  0.00000000000E+00 0.  1.
          4   -1    0    0  502    0 -0.00000000000E+00 -0.00000000000E+00 -0.62505557332E+03  0.62505557332E+03  0.00000000000E+00 0.  1.
    9000010    2    1    2  501    0 -0.13665826178E+02  0.13875117575E+03  0.85145989914E+01  0.10065104458E+04  0.99677085409E+03 0.  0.
        -13    1    3    3    0    0 -0.30765257849E+03 -0.15238193270E+03  0.33483306715E+03  0.47956600848E+03  0.10566000000E+00 0.  1.
          4    1    3    3  501    0  0.29398675231E+03  0.29113310845E+03 -0.32631846816E+03  0.52694443733E+03  0.00000000000E+00 0.  1.
         13    1    1    2    0    0  0.13665826178E+02 -0.13875117575E+03 -0.87506529149E+02  0.16460877068E+03  0.10566000000E+00 0. -1.
<mgrwt>
<rscale>  1 0.61402398E+03</rscale>
<asrwt>0</asrwt>
<pdfrwt beam="1">  1       21 0.84009791E-01 0.10064744E+04</pdfrwt>
<pdfrwt beam="2">  1        4 0.96162396E-01 0.10064744E+04</pdfrwt>
<totfact> 0.42593818E+01</totfact>
</mgrwt>
</event>
<event>
 6    1  0.1353269E-005  0.1031966E+04  0.7818608E-02  0.9674799E-01
          4   -1    0    0  502    0 -0.00000000000E+00  0.00000000000E+00  0.81006370246E+03  0.81006370246E+03  0.00000000000E+00 0.  1.
         21   -1    0    0  501  502  0.00000000000E+00 -0.00000000000E+00 -0.56256716755E+03  0.56256716755E+03  0.00000000000E+00 0.  1.
    9000010    2    1    2  501    0 -0.20850574480E+03  0.14136857517E+03  0.18409416491E+02  0.10321302993E+04  0.10007468853E+04 0.  0.
        -13    1    3    3    0    0 -0.35743120569E+01 -0.33302573719E+02 -0.47171822034E+03  0.47290583385E+03  0.10566000000E+00 0.  1.
          4    1    3    3  501    0 -0.20493143274E+03  0.17467114889E+03  0.49012763684E+03  0.55922446546E+03  0.00000000000E+00 0.  1.
         13    1    1    2    0    0  0.20850574480E+03 -0.14136857517E+03  0.22908711842E+03  0.34050057070E+03  0.10566000000E+00 0. -1.
<mgrwt>
<rscale>  1 0.72537295E+03</rscale>
<asrwt>0</asrwt>
<pdfrwt beam="2">  1       21 0.86548795E-01 0.10319661E+04</pdfrwt>
<pdfrwt beam="1">  1        4 0.12462519E+00 0.10319661E+04</pdfrwt>
<totfact> 0.20901871E+01</totfact>
</mgrwt>
</event>
<event>
 6    1  0.1353269E-005  0.1098876E+04  0.7818608E-02  0.9448242E-01
          4   -1    0    0  502    0 -0.00000000000E+00  0.00000000000E+00  0.10580005808E+04  0.10580005808E+04  0.00000000000E+00 0.  1.
         21   -1    0    0  501  502  0.00000000000E+00 -0.00000000000E+00 -0.59769214528E+03  0.59769214528E+03  0.00000000000E+00 0. -1.
    9000010    2    1    2  501    0  0.23737753694E+03  0.38965496906E+03  0.47969448168E+03  0.11990145901E+04  0.99967499799E+03 0.  0.
        -13    1    3    3    0    0  0.61106911610E+03  0.86331166602E+02  0.28627666964E+03  0.68030351882E+03  0.10566000000E+00 0.  1.
          4    1    3    3  501    0 -0.37369157916E+03  0.30332380246E+03  0.19341781204E+03  0.51871107129E+03  0.00000000000E+00 0.  1.
         13    1    1    2    0    0 -0.23737753694E+03 -0.38965496906E+03 -0.19386046121E+02  0.45667813600E+03  0.10566000000E+00 0. -1.
<mgrwt>
<rscale>  1 0.88209693E+03</rscale>
<asrwt>0</asrwt>
<pdfrwt beam="2">  1       21 0.91952638E-01 0.10988763E+04</pdfrwt>
<pdfrwt beam="1">  1        4 0.16276932E+00 0.10988763E+04</pdfrwt>
<totfact> 0.88422564E+00</totfact>
</mgrwt>
</event>
<event>
 6    1  0.1353269E-005  0.1073395E+04  0.7818608E-02  0.9462427E-01
          4   -1    0    0  502    0 -0.00000000000E+00  0.00000000000E+00  0.11036588835E+04  0.11036588835E+04  0.00000000000E+00 0.  1.
         21   -1    0    0  501  502  0.00000000000E+00 -0.00000000000E+00 -0.67566523554E+03  0.67566523554E+03  0.00000000000E+00 0. -1.
    9000010    2    1    2  501    0  0.31642276748E+03 -0.34157247211E+03 -0.96801804850E+02  0.10777506019E+04  0.96715078920E+03 0.  0.
        -13    1    3    3    0    0  0.24820897913E+03 -0.36734158127E+03  0.38699866751E+03  0.58848578103E+03  0.10566000000E+00 0.  1.
          4    1    3    3  501    0  0.68213788345E+02  0.25769109167E+02 -0.48380047236E+03  0.48926482089E+03  0.00000000000E+00 0.  1.
         13    1    1    2    0    0 -0.31642276748E+03  0.34157247211E+03  0.52479545283E+03  0.70157351714E+03  0.10566000000E+00 0. -1.
<mgrwt>
<rscale>  1 0.87111545E+03</rscale>
<asrwt>0</asrwt>
<pdfrwt beam="2">  1       21 0.10394850E+00 0.10733945E+04</pdfrwt>
<pdfrwt beam="1">  1        4 0.16979367E+00 0.10733945E+04</pdfrwt>
<totfact> 0.58203743E+00</totfact>
</mgrwt>
</event>
<event>
 6    1  0.1353269E-005  0.1044699E+04  0.7818608E-02  0.9589623E-01
          4   -1    0    0  502    0 -0.00000000000E+00  0.00000000000E+00  0.14768968746E+04  0.14768968746E+04  0.00000000000E+00 0.  1.
         21   -1    0    0  501  502  0.00000000000E+00 -0.00000000000E+00 -0.31799866182E+03  0.31799866182E+03  0.00000000000E+00 0.  1.
    9000010    2    1    2  501    0 -0.30894693408E+03 -0.99006781761E+02  0.84791238122E+03  0.13454928779E+04  0.99304840129E+03 0.  0.
        -13    1    3    3    0    0 -0.25224634146E+03  0.39461497944E+03  0.67055508115E+03  0.81792012250E+03  0.10566000000E+00 0.  1.
          4    1    3    3  501    0 -0.56700592620E+02 -0.49362176120E+03  0.17735730008E+03  0.52757275539E+03  0.00000000000E+00 0.  1.
         13    1    1    2    0    0  0.30894693408E+03  0.99006781761E+02  0.31098583157E+03  0.44940265855E+03  0.10566000000E+00 0. -1.
<mgrwt>
<rscale>  1 0.77986852E+03</rscale>
<asrwt>0</asrwt>
<pdfrwt beam="2">  1       21 0.48922872E-01 0.10446988E+04</pdfrwt>
<pdfrwt beam="1">  1        4 0.22721490E+00 0.10446988E+04</pdfrwt>
<totfact> 0.13766211E+01</totfact>
</mgrwt>
</event>
<event>
 6    1  0.1353269E-005  0.1107330E+04  0.7818608E-02  0.9470763E-01
         21   -1    0    0  501  502  0.00000000000E+00  0.00000000000E+00  0.39296031383E+03  0.39296031383E+03  0.00000000000E+00 0.  1.
          4   -1    0    0  502    0 -0.00000000000E+00 -0.00000000000E+00 -0.14690199650E+04  0.14690199650E+04  0.00000000000E+00 0.  1.
    9000010    2    1    2  501    0 -0.16064740471E+03  0.37919984494E+03 -0.76508942575E+03  0.13459351226E+04  0.10279004882E+04 0.  0.
        -13    1    3    3    0    0 -0.78338335091E+02 -0.40897773280E+02  0.23877592195E+03  0.25460454566E+03  0.10566000000E+00 0.  1.
          4    1    3    3  501    0 -0.82309069624E+02  0.42009761822E+03 -0.10038653477E+04  0.10913305769E+04  0.00000000000E+00 0.  1.
         13    1    1    2    0    0  0.16064740471E+03 -0.37919984494E+03 -0.31097022541E+03  0.51604515626E+03  0.10566000000E+00 0. -1.
<mgrwt>
<rscale>  1 0.86474098E+03</rscale>
<asrwt>0</asrwt>
<pdfrwt beam="1">  1       21 0.60455432E-01 0.11073299E+04</pdfrwt>
<pdfrwt beam="2">  1        4 0.22600307E+00 0.11073299E+04</pdfrwt>
<totfact> 0.87449308E+00</totfact>
</mgrwt>
</event>
<event>
 6    1  0.1353269E-005  0.1058537E+04  0.7818608E-02  0.9647543E-01
          4   -1    0    0  502    0 -0.00000000000E+00  0.00000000000E+00  0.94318571195E+03  0.94318571195E+03  0.00000000000E+00 0.  1.
         21   -1    0    0  501  502  0.00000000000E+00 -0.00000000000E+00 -0.47149125467E+03  0.47149125467E+03  0.00000000000E+00 0.  1.
    9000010    2    1    2  501    0 -0.60052512819E+02  0.24880135577E+03  0.28011579790E+03  0.10949727082E+04  0.10271280118E+04 0.  0.
        -13    1    3    3    0    0 -0.12808031690E+03 -0.16591721156E+03 -0.30774187829E+03  0.37234146087E+03  0.10566000000E+00 0.  1.
          4    1    3    3  501    0  0.68027804076E+02  0.41471856733E+03  0.58785767619E+03  0.72263124737E+03  0.00000000000E+00 0.  1.
         13    1    1    2    0    0  0.60052512819E+02 -0.24880135577E+03  0.19157865939E+03  0.31970425838E+03  0.10566000000E+00 0. -1.
<mgrwt>
<rscale>  1 0.74227811E+03</rscale>
<asrwt>0</asrwt>
<pdfrwt beam="2">  1       21 0.72537116E-01 0.10585369E+04</pdfrwt>
<pdfrwt beam="1">  1        4 0.14510549E+00 0.10585369E+04</pdfrwt>
<totfact> 0.21266868E+01</totfact>
</mgrwt>
</event>
<event>
 6    1  0.1353269E-005  0.1087887E+04  0.7818608E-02  0.9510486E-01
         21   -1    0    0  501  502  0.00000000000E+00  0.00000000000E+00  0.54913706236E+03  0.54913706236E+03  0.00000000000E+00 0. -1.
          4   -1    0    0  502    0 -0.00000000000E+00 -0.00000000000E+00 -0.10480051430E+04  0.10480051430E+04  0.00000000000E+00 0.  1.
    9000010    2    1    2  501    0  0.32918307253E+03 -0.18547827414E+03 -0.54452082422E+03  0.12165533596E+04  0.10201644295E+04 0.  0.
        -13    1    3    3    0    0 -0.31920109891E+03  0.75071180889E+02  0.44287513744E+01  0.32794000785E+03  0.10566000000E+00 0.  1.
          4    1    3    3  501    0  0.64838417143E+03 -0.26054945503E+03 -0.54894957559E+03  0.88861335170E+03  0.00000000000E+00 0.  1.
         13    1    1    2    0    0 -0.32918307253E+03  0.18547827414E+03  0.45652743555E+02  0.38058884584E+03  0.10566000000E+00 0. -1.
<mgrwt>
<rscale>  1 0.83515149E+03</rscale>
<asrwt>0</asrwt>
<pdfrwt beam="1">  1       21 0.84482626E-01 0.10878875E+04</pdfrwt>
<pdfrwt beam="2">  1        4 0.16123156E+00 0.10878875E+04</pdfrwt>
<totfact> 0.11145382E+01</totfact>
</mgrwt>
</event>
<event>
 6    1  0.1353269E-005  0.9545066E+03  0.7818608E-02  0.1015884E+00
         21   -1    0    0  501  502  0.00000000000E+00  0.00000000000E+00  0.60944064336E+03  0.60944064336E+03  0.00000000000E+00 0.  1.
          4   -1    0    0  502    0 -0.00000000000E+00 -0.00000000000E+00 -0.62286114449E+03  0.62286114449E+03  0.00000000000E+00 0.  1.
    9000010    2    1    2  501    0 -0.44577100642E+02 -0.50537968318E+02  0.22824484133E+03  0.98141664868E+03  0.95212484821E+03 0.  0.
        -13    1    3    3    0    0 -0.34648427761E+03  0.14081523475E+03 -0.19957910448E+03  0.42392465731E+03  0.10566000000E+00 0.  1.
          4    1    3    3  501    0  0.30190717696E+03 -0.19135320307E+03  0.42782394582E+03  0.55749199137E+03  0.00000000000E+00 0.  1.
         13    1    1    2    0    0  0.44577100642E+02  0.50537968318E+02 -0.24166534246E+03  0.25088513917E+03  0.10566000000E+00 0. -1.
<mgrwt>
<rscale>  1 0.49201770E+03</rscale>
<asrwt>0</asrwt>
<pdfrwt beam="1">  1       21 0.93760099E-01 0.95450664E+03</pdfrwt>
<pdfrwt beam="2">  1        4 0.95824792E-01 0.95450664E+03</pdfrwt>
<totfact> 0.33132328E+01</totfact>
</mgrwt>
</event>
<event>
 6    1  0.1353269E-005  0.1019700E+04  0.7818608E-02  0.9847669E-01
          4   -1    0    0  502    0 -0.00000000000E+00  0.00000000000E+00  0.14041593769E+04  0.14041593769E+04  0.00000000000E+00 0.  1.
         21   -1    0    0  501  502  0.00000000000E+00 -0.00000000000E+00 -0.24252075890E+03  0.24252075890E+03  0.00000000000E+00 0.  1.
    9000010    2    1    2  501    0 -0.59644941222E+02  0.13469943127E+03  0.10078192062E+04  0.14336968538E+04  0.10090023094E+04 0.  0.
        -13    1    3    3    0    0 -0.17756258986E+03 -0.25071706917E+03  0.98298933408E+03  0.10298813350E+04  0.10566000000E+00 0.  1.
          4    1    3    3  501    0  0.11791764864E+03  0.38541650044E+03  0.24829872094E+02  0.40381551879E+03  0.00000000000E+00 0.  1.
         13    1    1    2    0    0  0.59644941222E+02 -0.13469943127E+03  0.15381941182E+03  0.21298328201E+03  0.10566000000E+00 0. -1.
<mgrwt>
<rscale>  1 0.62865923E+03</rscale>
<asrwt>0</asrwt>
<pdfrwt beam="2">  1       21 0.37310887E-01 0.10196995E+04</pdfrwt>
<pdfrwt beam="1">  1        4 0.21602451E+00 0.10196995E+04</pdfrwt>
<totfact> 0.28844194E+01</totfact>
</mgrwt>
</event>
<event>
 6    1  0.1353269E-005  0.1094688E+04  0.7818608E-02  0.9460966E-01
          4   -1    0    0  502    0 -0.00000000000E+00  0.00000000000E+00  0.17238100255E+04  0.17238100255E+04  0.00000000000E+00 0.  1.
         21   -1    0    0  501  502  0.00000000000E+00 -0.00000000000E+00 -0.49006440870E+03  0.49006440870E+03  0.00000000000E+00 0.  1.
    9000010    2    1    2  501    0  0.42522078401E+03 -0.11779345010E+03  0.23163698824E+03  0.11189270717E+04  0.10018253767E+04 0.  0.
        -13    1    3    3    0    0 -0.22289413602E+03 -0.21984281376E+03  0.33070694708E+03  0.45538967340E+03  0.10566000000E+00 0.  1.
          4    1    3    3  501    0  0.64811492003E+03  0.10204936366E+03 -0.99069958841E+02  0.66353739830E+03  0.00000000000E+00 0.  1.
         13    1    1    2    0    0 -0.42522078401E+03  0.11779345010E+03  0.10021086286E+04  0.10949473625E+04  0.10566000000E+00 0. -1.
<mgrwt>
<rscale>  1 0.87223842E+03</rscale>
<asrwt>0</asrwt>
<pdfrwt beam="2">  1       21 0.75394525E-01 0.10946881E+04</pdfrwt>
<pdfrwt beam="1">  1        4 0.26520154E+00 0.10946881E+04</pdfrwt>
<totfact> 0.30145241E+00</totfact>
</mgrwt>
</event>
<event>
 6    1  0.1353269E-005  0.1009521E+04  0.7818608E-02  0.9765643E-01
         21   -1    0    0  501  502  0.00000000000E+00  0.00000000000E+00  0.23534474033E+04  0.23534474033E+04  0.00000000000E+00 0.  1.
          4   -1    0    0  502    0 -0.00000000000E+00 -0.00000000000E+00 -0.16033402053E+03  0.16033402053E+03  0.00000000000E+00 0.  1.
    9000010    2    1    2  501    0  0.57934482727E+02 -0.19004310499E+03  0.19794755475E+04  0.22220385201E+04  0.98977722531E+03 0.  0.
        -13    1    3    3    0    0  0.49545715669E+03 -0.49790598703E+02  0.13776346692E+04  0.14648666120E+04  0.10566000000E+00 0.  1.
          4    1    3    3  501    0 -0.43752267396E+03 -0.14025250629E+03  0.60184087828E+03  0.75717190817E+03  0.00000000000E+00 0.  1.
         13    1    1    2    0    0 -0.57934482727E+02  0.19004310499E+03  0.21363783529E+03  0.29174290373E+03  0.10566000000E+00 0. -1.
<mgrwt>
<rscale>  1 0.67239366E+03</rscale>
<asrwt>0</asrwt>
<pdfrwt beam="1">  1       21 0.36206881E+00 0.10095206E+04</pdfrwt>
<pdfrwt beam="2">  1        4 0.24666774E-01 0.10095206E+04</pdfrwt>
<totfact> 0.68287260E+00</totfact>
</mgrwt>
</event>
<event>
 6    1  0.1353269E-005  0.1180375E+04  0.7818608E-02  0.9598549E-01
          4   -1    0    0  502    0 -0.00000000000E+00  0.00000000000E+00  0.39231284026E+03  0.39231284026E+03  0.00000000000E+00 0.  1.
         21   -1    0    0  501  502  0.00000000000E+00 -0.00000000000E+00 -0.19971118650E+04  0.19971118650E+04  0.00000000000E+00 0.  1.
    9000010    2    1    2  501    0  0.95943560187E+01 -0.21792649576E+03 -0.17617971349E+04  0.21206637947E+04  0.11600438683E+04 0.  0.
        -13    1    3    3    0    0  0.10266757647E+03 -0.24730796017E+03  0.77513450429E+02  0.27876550106E+03  0.10566000000E+00 0.  1.
          4    1    3    3  501    0 -0.93073220447E+02  0.29381464414E+02 -0.18393105854E+04  0.18418982937E+04  0.00000000000E+00 0.  1.
         13    1    1    2    0    0 -0.95943560187E+01  0.21792649576E+03  0.15699811024E+03  0.26876091048E+03  0.10566000000E+00 0. -1.
<mgrwt>
<rscale>  1 0.77392294E+03</rscale>
<asrwt>0</asrwt>
<pdfrwt beam="2">  1       21 0.30724798E+00 0.11803753E+04</pdfrwt>
<pdfrwt beam="1">  1        4 0.60355821E-01 0.11803753E+04</pdfrwt>
<totfact> 0.23727924E+00</totfact>
</mgrwt>
</event>
<event>
 6    1  0.1353269E-005  0.1036622E+04  0.7818608E-02  0.9756534E-01
         21   -1    0    0  501  502  0.00000000000E+00  0.00000000000E+00  0.85459771458E+03  0.85459771458E+03  0.00000000000E+00 0.  1.
          4   -1    0    0  502    0 -0.00000000000E+00 -0.00000000000E+00 -0.73142661081E+03  0.73142661081E+03  0.00000000000E+00 0.  1.
    9000010    2    1    2  501    0 -0.31025429939E+02  0.18655552515E+03  0.51011603088E+03  0.11553365858E+04  0.10192245681E+04 0.  0.
        -13    1    3    3    0    0 -0.47035322462E+03  0.15653791105E+03  0.19524686425E+02  0.49610230603E+03  0.10566000000E+00 0.  1.
          4    1    3    3  501    0  0.43932779468E+03  0.30017614105E+02  0.49059134446E+03  0.65923427975E+03  0.00000000000E+00 0.  1.
         13    1    1    2    0    0  0.31025429939E+02 -0.18655552515E+03 -0.38694492711E+03  0.43068773961E+03  0.10566000000E+00 0. -1.
<mgrwt>
<rscale>  1 0.67748283E+03</rscale>
<asrwt>0</asrwt>
<pdfrwt beam="1">  1       21 0.13147657E+00 0.10366216E+04</pdfrwt>
<pdfrwt beam="2">  1        4 0.11252717E+00 0.10366216E+04</pdfrwt>
<totfact> 0.93989938E+00</totfact>
</mgrwt>
</event>
<event>
 6    1  0.1353269E-005  0.1087937E+04  0.7818608E-02  0.9451623E-01
          4   -1    0    0  502    0 -0.00000000000E+00  0.00000000000E+00  0.16534626808E+04  0.16534626808E+04  0.00000000000E+00 0.  1.
         21   -1    0    0  501  502  0.00000000000E+00 -0.00000000000E+00 -0.39188127366E+03  0.39188127366E+03  0.00000000000E+00 0.  1.
    9000010    2    1    2  501    0 -0.42381530196E+03  0.19030433430E+03  0.61678235251E+03  0.12506106773E+04  0.98375375269E+03 0.  0.
        -13    1    3    3    0    0  0.24641981819E+02 -0.36878796346E+03  0.17802053856E+03  0.41024762349E+03  0.10566000000E+00 0.  1.
          4    1    3    3  501    0 -0.44845728378E+03  0.55909229777E+03  0.43876181394E+03  0.84036305379E+03  0.00000000000E+00 0.  1.
         13    1    1    2    0    0  0.42381530196E+03 -0.19030433430E+03  0.64479905463E+03  0.79473327717E+03  0.10566000000E+00 0. -1.
<mgrwt>
<rscale>  1 0.87946395E+03</rscale>
<asrwt>0</asrwt>
<pdfrwt beam="2">  1       21 0.60289428E-01 0.10879369E+04</pdfrwt>
<pdfrwt beam="1">  1        4 0.25437887E+00 0.10879369E+04</pdfrwt>
<totfact> 0.58597999E+00</totfact>
</mgrwt>
</event>
<event>
 6    1  0.1353269E-005  0.1126490E+04  0.7818608E-02  0.9392341E-01
          4   -1    0    0  502    0 -0.00000000000E+00  0.00000000000E+00  0.56187800270E+03  0.56187800270E+03  0.00000000000E+00 0.  1.
         21   -1    0    0  501  502  0.00000000000E+00 -0.00000000000E+00 -0.15806039968E+04  0.15806039968E+04  0.00000000000E+00 0.  1.
    9000010    2    1    2  501    0 -0.47213421903E+03  0.21010649564E+03 -0.11494666933E+04  0.16094260907E+04  0.10009611392E+04 0.  0.
        -13    1    3    3    0    0  0.11921787149E+03 -0.63933771191E+02  0.12102211898E+03  0.18151251315E+03  0.10566000000E+00 0.  1.
          4    1    3    3  501    0 -0.59135209053E+03  0.27404026683E+03 -0.12704888123E+04  0.14279135776E+04  0.00000000000E+00 0.  1.
         13    1    1    2    0    0  0.47213421903E+03 -0.21010649564E+03  0.13074069923E+03  0.53305590878E+03  0.10566000000E+00 0. -1.
<mgrwt>
<rscale>  1 0.92708714E+03</rscale>
<asrwt>0</asrwt>
<pdfrwt beam="2">  1       21 0.24316984E+00 0.11264895E+04</pdfrwt>
<pdfrwt beam="1">  1        4 0.86442771E-01 0.11264895E+04</pdfrwt>
<totfact> 0.26930324E+00</totfact>
</mgrwt>
</event>
<event>
 6    1  0.1353269E-005  0.1011277E+04  0.7818608E-02  0.9742713E-01
         21   -1    0    0  501  502  0.00000000000E+00  0.00000000000E+00  0.22234494314E+03  0.22234494314E+03  0.00000000000E+00 0.  1.
          4   -1    0    0  502    0 -0.00000000000E+00 -0.00000000000E+00 -0.17014547930E+04  0.17014547930E+04  0.00000000000E+00 0.  1.
    9000010    2    1    2  501    0  0.19418262502E+03  0.88157584684E+02 -0.11473418197E+04  0.15294031228E+04  0.98853528478E+03 0.  0.
        -13    1    3    3    0    0  0.31258501800E+03 -0.33007033357E+03 -0.94768369104E+03  0.10510757385E+04  0.10566000000E+00 0.  1.
          4    1    3    3  501    0 -0.11840239299E+03  0.41822791826E+03 -0.19965812867E+03  0.47832738435E+03  0.00000000000E+00 0.  1.
         13    1    1    2    0    0 -0.19418262502E+03 -0.88157584684E+02 -0.33176803011E+03  0.39439661328E+03  0.10566000000E+00 0. -1.
<mgrwt>
<rscale>  1 0.68529644E+03</rscale>
<asrwt>0</asrwt>
<pdfrwt beam="1">  1       21 0.34206914E-01 0.10112767E+04</pdfrwt>
<pdfrwt beam="2">  1        4 0.26176228E+00 0.10112767E+04</pdfrwt>
<totfact> 0.17862967E+01</totfact>
</mgrwt>
</event>
<event>
 6    1  0.1353269E-005  0.1012146E+04  0.7818608E-02  0.9996879E-01
         21   -1    0    0  501  502  0.00000000000E+00  0.00000000000E+00  0.50625539369E+03  0.50625539369E+03  0.00000000000E+00 0.  1.
          4   -1    0    0  502    0 -0.00000000000E+00 -0.00000000000E+00 -0.60553111139E+03  0.60553111139E+03  0.00000000000E+00 0.  1.
    9000010    2    1    2  501    0 -0.22736603703E+02  0.90604623956E+02 -0.73141293122E+02  0.10147856270E+04  0.10078264082E+04 0.  0.
        -13    1    3    3    0    0 -0.42389885455E+03  0.66071469206E+02  0.25223751023E+03  0.49767404057E+03  0.10566000000E+00 0.  1.
          4    1    3    3  501    0  0.40116225084E+03  0.24533154750E+02 -0.32537880335E+03  0.51711158646E+03  0.00000000000E+00 0.  1.
         13    1    1    2    0    0  0.22736603703E+02 -0.90604623956E+02 -0.26134424574E+02  0.97000878047E+02  0.10566000000E+00 0. -1.
<mgrwt>
<rscale>  1 0.55787306E+03</rscale>
<asrwt>0</asrwt>
<pdfrwt beam="1">  1       21 0.77885445E-01 0.10121463E+04</pdfrwt>
<pdfrwt beam="2">  1        4 0.93158632E-01 0.10121463E+04</pdfrwt>
<totfact> 0.54886258E+01</totfact>
</mgrwt>
</event>
<event>
 6    1  0.1353269E-005  0.1006803E+04  0.7818608E-02  0.9805536E-01
          4   -1    0    0  502    0 -0.00000000000E+00  0.00000000000E+00  0.43869270464E+03  0.43869270464E+03  0.00000000000E+00 0.  1.
         21   -1    0    0  501  502  0.00000000000E+00 -0.00000000000E+00 -0.10185620275E+04  0.10185620275E+04  0.00000000000E+00 0.  1.
    9000010    2    1    2  501    0 -0.81267154959E+02 -0.15569328770E+03 -0.71567149382E+03  0.12352479955E+04  0.99136631621E+03 0.  0.
        -13    1    3    3    0    0  0.18896859497E+03 -0.75960595849E+02  0.19501324956E+03  0.28197397163E+03  0.10566000000E+00 0.  1.
          4    1    3    3  501    0 -0.27023574993E+03 -0.79732691847E+02 -0.91068474338E+03  0.95327402383E+03  0.00000000000E+00 0.  1.
         13    1    1    2    0    0  0.81267154959E+02  0.15569328770E+03  0.13580217099E+03  0.22200673665E+03  0.10566000000E+00 0. -1.
<mgrwt>
<rscale>  1 0.65066283E+03</rscale>
<asrwt>0</asrwt>
<pdfrwt beam="2">  1       21 0.15670185E+00 0.10068028E+04</pdfrwt>
<pdfrwt beam="1">  1        4 0.67491186E-01 0.10068028E+04</pdfrwt>
<totfact> 0.19290741E+01</totfact>
</mgrwt>
</event>
<event>
 6    1  0.1353269E-005  0.1017734E+04  0.7818608E-02  0.9792682E-01
          4   -1    0    0  502    0 -0.00000000000E+00  0.00000000000E+00  0.72350242120E+03  0.72350242120E+03  0.00000000000E+00 0.  1.
         21   -1    0    0  501  502  0.00000000000E+00 -0.00000000000E+00 -0.49380960535E+03  0.49380960535E+03  0.00000000000E+00 0.  1.
    9000010    2    1    2  501    0 -0.13479330129E+03  0.11527179335E+03  0.20603747628E+03  0.10383807362E+04  0.10021608111E+04 0.  0.
        -13    1    3    3    0    0 -0.25701795198E+03  0.52801578998E+03  0.12260069508E+03  0.59990819607E+03  0.10566000000E+00 0.  1.
          4    1    3    3  501    0  0.12222465069E+03 -0.41274399664E+03  0.83436781200E+02  0.43847254013E+03  0.00000000000E+00 0.  1.
         13    1    1    2    0    0  0.13479330129E+03 -0.11527179335E+03  0.23655339573E+02  0.17893129035E+03  0.10566000000E+00 0. -1.
<mgrwt>
<rscale>  1 0.65756734E+03</rscale>
<asrwt>0</asrwt>
<pdfrwt beam="2">  1       21 0.75970708E-01 0.10177343E+04</pdfrwt>
<pdfrwt beam="1">  1        4 0.11130807E+00 0.10177343E+04</pdfrwt>
<totfact> 0.37780665E+01</totfact>
</mgrwt>
</event>
<event>
 6    1  0.1353269E-005  0.1039789E+04  0.7818608E-02  0.9589012E-01
          4   -1    0    0  502    0 -0.00000000000E+00  0.00000000000E+00  0.16483934338E+04  0.16483934338E+04  0.00000000000E+00 0.  1.
         21   -1    0    0  501  502  0.00000000000E+00 -0.00000000000E+00 -0.38081063890E+03  0.38081063890E+03  0.00000000000E+00 0.  1.
    9000010    2    1    2  501    0 -0.90260894657E+02 -0.31713600179E+03  0.42299871223E+03  0.11225373442E+04  0.98612367673E+03 0.  0.
        -13    1    3    3    0    0 -0.30735258834E+03 -0.60147842722E+03  0.33579078720E+03  0.75431914725E+03  0.10566000000E+00 0.  1.
          4    1    3    3  501    0  0.21709169368E+03  0.28434242543E+03  0.87207925035E+02  0.36821819694E+03  0.00000000000E+00 0.  1.
         13    1    1    2    0    0  0.90260894657E+02  0.31713600179E+03  0.84458408262E+03  0.90666672847E+03  0.10566000000E+00 0. -1.
<mgrwt>
<rscale>  1 0.78027715E+03</rscale>
<asrwt>0</asrwt>
<pdfrwt beam="2">  1       21 0.58586253E-01 0.10397895E+04</pdfrwt>
<pdfrwt beam="1">  1        4 0.25359899E+00 0.10397895E+04</pdfrwt>
<totfact> 0.63537257E+00</totfact>
</mgrwt>
</event>
<event>
 6    1  0.1353269E-005  0.1077770E+04  0.7818608E-02  0.9501517E-01
         21   -1    0    0  501  502  0.00000000000E+00  0.00000000000E+00  0.58265985513E+03  0.58265985513E+03  0.00000000000E+00 0.  1.
          4   -1    0    0  502    0 -0.00000000000E+00 -0.00000000000E+00 -0.93975123127E+03  0.93975123127E+03  0.00000000000E+00 0.  1.
    9000010    2    1    2  501    0  0.67507225048E+02 -0.39522855861E+03 -0.23268641459E+03  0.11026022673E+04  0.10004128914E+04 0.  0.
        -13    1    3    3    0    0  0.34731035234E+03 -0.44490632490E+02 -0.47700333613E+03  0.59172298507E+03  0.10566000000E+00 0.  1.
          4    1    3    3  501    0 -0.27980312730E+03 -0.35073792612E+03  0.24431692154E+03  0.51087928223E+03  0.00000000000E+00 0.  1.
         13    1    1    2    0    0 -0.67507225048E+02  0.39522855861E+03 -0.12440496155E+03  0.41980881910E+03  0.10566000000E+00 0. -1.
<mgrwt>
<rscale>  1 0.84172043E+03</rscale>
<asrwt>0</asrwt>
<pdfrwt beam="1">  1       21 0.89639979E-01 0.10777703E+04</pdfrwt>
<pdfrwt beam="2">  1        4 0.14457711E+00 0.10777703E+04</pdfrwt>
<totfact> 0.13003202E+01</totfact>
</mgrwt>
</event>
<event>
 6    1  0.1353269E-005  0.1153527E+04  0.7818608E-02  0.9341975E-01
          4   -1    0    0  502    0 -0.00000000000E+00  0.00000000000E+00  0.33751971270E+03  0.33751971270E+03  0.00000000000E+00 0.  1.
         21   -1    0    0  501  502  0.00000000000E+00 -0.00000000000E+00 -0.24129655309E+04  0.24129655309E+04  0.00000000000E+00 0. -1.
    9000010    2    1    2  501    0  0.57697364377E+03  0.23584304967E+01 -0.98523122054E+03  0.15170056013E+04  0.99885999455E+03 0.  0.
        -13    1    3    3    0    0 -0.20264859184E+02 -0.42071918923E+03 -0.37952267583E+03  0.56696805319E+03  0.10566000000E+00 0.  1.
          4    1    3    3  501    0  0.59723850295E+03  0.42307761973E+03 -0.60570854471E+03  0.95003754813E+03  0.00000000000E+00 0.  1.
         13    1    1    2    0    0 -0.57697364377E+03 -0.23584304967E+01 -0.10902145977E+04  0.12334796423E+04  0.10566000000E+00 0. -1.
<mgrwt>
<rscale>  1 0.97008746E+03</rscale>
<asrwt>0</asrwt>
<pdfrwt beam="2">  1       21 0.37122545E+00 0.11535274E+04</pdfrwt>
<pdfrwt beam="1">  1        4 0.51926111E-01 0.11535274E+04</pdfrwt>
<totfact> 0.12992406E+00</totfact>
</mgrwt>
</event>
<event>
 6    1  0.1353269E-005  0.1025922E+04  0.7818608E-02  0.9795362E-01
          4   -1    0    0  502    0 -0.00000000000E+00  0.00000000000E+00  0.70316499763E+03  0.70316499763E+03  0.00000000000E+00 0.  1.
         21   -1    0    0  501  502  0.00000000000E+00 -0.00000000000E+00 -0.59654268711E+03  0.59654268711E+03  0.00000000000E+00 0.  1.
    9000010    2    1    2  501    0  0.17162527194E+03  0.11780709994E+01 -0.10036587310E+03  0.10308197134E+04  0.10114639644E+04 0.  0.
        -13    1    3    3    0    0 -0.59624564907E+02  0.56433854644E+02  0.43624082305E+03  0.44389856448E+03  0.10566000000E+00 0.  1.
          4    1    3    3  501    0  0.23124983685E+03 -0.55255783645E+02 -0.53660669615E+03  0.58692114890E+03  0.00000000000E+00 0.  1.
         13    1    1    2    0    0 -0.17162527194E+03 -0.11780709994E+01  0.20698818362E+03  0.26888797136E+03  0.10566000000E+00 0. -1.
<mgrwt>
<rscale>  1 0.65612056E+03</rscale>
<asrwt>0</asrwt>
<pdfrwt beam="2">  1       21 0.91775797E-01 0.10259220E+04</pdfrwt>
<pdfrwt beam="1">  1        4 0.10817923E+00 0.10259220E+04</pdfrwt>
<totfact> 0.25845577E+01</totfact>
</mgrwt>
</event>
<event>
 6    1  0.1353269E-005  0.1015143E+04  0.7818608E-02  0.9830448E-01
         21   -1    0    0  501  502  0.00000000000E+00  0.00000000000E+00  0.17863029310E+03  0.17863029310E+03  0.00000000000E+00 0.  1.
          4   -1    0    0  502    0 -0.00000000000E+00 -0.00000000000E+00 -0.22370486747E+04  0.22370486747E+04  0.00000000000E+00 0.  1.
    9000010    2    1    2  501    0 -0.12901868219E+03 -0.91069372445E+02 -0.13455761781E+04  0.16855533147E+04  0.10027837628E+04 0.  0.
        -13    1    3    3    0    0  0.20490706268E+03 -0.45633517540E+03 -0.50972525104E+03  0.71417682639E+03  0.10566000000E+00 0.  1.
          4    1    3    3  501    0 -0.33392574487E+03  0.36526580296E+03 -0.83585092703E+03  0.97137648835E+03  0.00000000000E+00 0.  1.
         13    1    1    2    0    0  0.12901868219E+03  0.91069372445E+02 -0.71284220352E+03  0.73012565305E+03  0.10566000000E+00 0. -1.
<mgrwt>
<rscale>  1 0.63753820E+03</rscale>
<asrwt>0</asrwt>
<pdfrwt beam="1">  1       21 0.27481585E-01 0.10151427E+04</pdfrwt>
<pdfrwt beam="2">  1        4 0.34416131E+00 0.10151427E+04</pdfrwt>
<totfact> 0.85191433E+00</totfact>
</mgrwt>
</event>
<event>
 6    1  0.1353269E-005  0.1024355E+04  0.7818608E-02  0.9687691E-01
         21   -1    0    0  501  502  0.00000000000E+00  0.00000000000E+00  0.11845442076E+04  0.11845442076E+04  0.00000000000E+00 0.  1.
          4   -1    0    0  502    0 -0.00000000000E+00 -0.00000000000E+00 -0.37914373913E+03  0.37914373913E+03  0.00000000000E+00 0.  1.
    9000010    2    1    2  501    0 -0.16472900013E+03 -0.18354792866E+03  0.82642951180E+03  0.13161647813E+04  0.99422256461E+03 0.  0.
        -13    1    3    3    0    0  0.33643657868E+03 -0.29018470657E+03  0.15285064570E+03  0.46985111094E+03  0.10566000000E+00 0.  1.
          4    1    3    3  501    0 -0.50116557880E+03  0.10663677791E+03  0.67357886610E+03  0.84631367036E+03  0.00000000000E+00 0.  1.
         13    1    1    2    0    0  0.16472900013E+03  0.18354792866E+03 -0.21029043334E+02  0.24752316543E+03  0.10566000000E+00 0. -1.
<mgrwt>
<rscale>  1 0.71754428E+03</rscale>
<asrwt>0</asrwt>
<pdfrwt beam="1">  1       21 0.18223757E+00 0.10243554E+04</pdfrwt>
<pdfrwt beam="2">  1        4 0.58329807E-01 0.10243554E+04</pdfrwt>
<totfact> 0.17047486E+01</totfact>
</mgrwt>
</event>
<event>
 6    1  0.1353269E-005  0.1044500E+04  0.7818608E-02  0.9651258E-01
         21   -1    0    0  501  502  0.00000000000E+00  0.00000000000E+00  0.11023878177E+04  0.11023878177E+04  0.00000000000E+00 0.  1.
          4   -1    0    0  502    0 -0.00000000000E+00 -0.00000000000E+00 -0.67062208773E+03  0.67062208773E+03  0.00000000000E+00 0.  1.
    9000010    2    1    2  501    0  0.21289265035E+03 -0.15454153211E+03  0.80336488518E+03  0.13177162541E+04  0.10108286807E+04 0.  0.
        -13    1    3    3    0    0  0.22151598610E+03 -0.37991468526E+03  0.95126951910E+03  0.10480067792E+04  0.10566000000E+00 0.  1.
          4    1    3    3  501    0 -0.86233357549E+01  0.22537315315E+03 -0.14790463391E+03  0.26970947483E+03  0.00000000000E+00 0.  1.
         13    1    1    2    0    0 -0.21289265035E+03  0.15454153211E+03 -0.37159915518E+03  0.45529365141E+03  0.10566000000E+00 0. -1.
<mgrwt>
<rscale>  1 0.73994546E+03</rscale>
<asrwt>0</asrwt>
<pdfrwt beam="1">  1       21 0.16959813E+00 0.10445004E+04</pdfrwt>
<pdfrwt beam="2">  1        4 0.10317263E+00 0.10445004E+04</pdfrwt>
<totfact> 0.57084703E+00</totfact>
</mgrwt>
</event>
<event>
 6    1  0.1353269E-005  0.9979805E+03  0.7818608E-02  0.1055010E+00
          4   -1    0    0  502    0 -0.00000000000E+00  0.00000000000E+00  0.49245964727E+03  0.49245964727E+03  0.00000000000E+00 0.  1.
         21   -1    0    0  501  502  0.00000000000E+00 -0.00000000000E+00 -0.64917452325E+03  0.64917452325E+03  0.00000000000E+00 0.  1.
    9000010    2    1    2  501    0  0.39871704818E+01 -0.18256644246E+02 -0.26434250555E+03  0.10323962632E+04  0.99780553287E+03 0.  0.
        -13    1    3    3    0    0 -0.11704543286E+03 -0.40260818766E+03  0.15855780559E+03  0.44825614887E+03  0.10566000000E+00 0.  1.
          4    1    3    3  501    0  0.12103260334E+03  0.38435154342E+03 -0.42290031113E+03  0.58414011431E+03  0.00000000000E+00 0.  1.
         13    1    1    2    0    0 -0.39871704818E+01  0.18256644246E+02  0.10762762957E+03  0.10923790733E+03  0.10566000000E+00 0. -1.
<mgrwt>
<rscale>  1 0.36917132E+03</rscale>
<asrwt>0</asrwt>
<pdfrwt beam="2">  1       21 0.99873004E-01 0.99798050E+03</pdfrwt>
<pdfrwt beam="1">  1        4 0.75763023E-01 0.99798050E+03</pdfrwt>
<totfact> 0.48819472E+01</totfact>
</mgrwt>
</event>
<event>
 6    1  0.1353269E-005  0.1061561E+04  0.7818608E-02  0.9613305E-01
         21   -1    0    0  501  502  0.00000000000E+00  0.00000000000E+00  0.26348699004E+03  0.26348699004E+03  0.00000000000E+00 0.  1.
          4   -1    0    0  502    0 -0.00000000000E+00 -0.00000000000E+00 -0.17210476863E+04  0.17210476863E+04  0.00000000000E+00 0.  1.
    9000010    2    1    2  501    0 -0.59036557778E+01 -0.28506350233E+03 -0.11378915425E+04  0.15561838475E+04  0.10225531533E+04 0.  0.
        -13    1    3    3    0    0  0.34035491061E+03 -0.48714512985E+03 -0.93239332768E+03  0.11056713668E+04  0.10566000000E+00 0.  1.
          4    1    3    3  501    0 -0.34625856639E+03  0.20208162752E+03 -0.20549821481E+03  0.45051248070E+03  0.00000000000E+00 0.  1.
         13    1    1    2    0    0  0.59036557778E+01  0.28506350233E+03 -0.31966915375E+03  0.42835082880E+03  0.10566000000E+00 0. -1.
<mgrwt>
<rscale>  1 0.76421806E+03</rscale>
<asrwt>0</asrwt>
<pdfrwt beam="1">  1       21 0.40536459E-01 0.10615606E+04</pdfrwt>
<pdfrwt beam="2">  1        4 0.26477657E+00 0.10615606E+04</pdfrwt>
<totfact> 0.11967018E+01</totfact>
</mgrwt>
</event>
<event>
 6    1  0.1353269E-005  0.1010379E+04  0.7818608E-02  0.9556560E-01
          4   -1    0    0  502    0 -0.00000000000E+00  0.00000000000E+00  0.96343899696E+03  0.96343899696E+03  0.00000000000E+00 0.  1.
         21   -1    0    0  501  502  0.00000000000E+00 -0.00000000000E+00 -0.58422537649E+03  0.58422537649E+03  0.00000000000E+00 0. -1.
    9000010    2    1    2  501    0  0.24696504448E+03 -0.31703933398E+03  0.50095588862E+03  0.11277514497E+04  0.92701718299E+03 0.  0.
        -13    1    3    3    0    0  0.50475023568E+03 -0.14528690581E+03  0.60480721210E+03  0.80104485542E+03  0.10566000000E+00 0.  1.
          4    1    3    3  501    0 -0.25778519121E+03 -0.17175242817E+03 -0.10385132347E+03  0.32670659432E+03  0.00000000000E+00 0.  1.
         13    1    1    2    0    0 -0.24696504448E+03  0.31703933398E+03 -0.12174226815E+03  0.41991292371E+03  0.10566000000E+00 0. -1.
<mgrwt>
<rscale>  1 0.80239256E+03</rscale>
<asrwt>0</asrwt>
<pdfrwt beam="2">  1       21 0.89880827E-01 0.10103794E+04</pdfrwt>
<pdfrwt beam="1">  1        4 0.14822138E+00 0.10103794E+04</pdfrwt>
<totfact> 0.12173882E+01</totfact>
</mgrwt>
</event>
<event>
 6    1  0.1353269E-005  0.1067580E+04  0.7818608E-02  0.9544004E-01
          4   -1    0    0  502    0 -0.00000000000E+00  0.00000000000E+00  0.27651060308E+03  0.27651060308E+03  0.00000000000E+00 0.  1.
         21   -1    0    0  501  502  0.00000000000E+00 -0.00000000000E+00 -0.19144753437E+04  0.19144753437E+04  0.00000000000E+00 0.  1.
    9000010    2    1    2  501    0 -0.35555889052E+03 -0.13457114643E+02 -0.14093875661E+04  0.17680784457E+04  0.10065410375E+04 0.  0.
        -13    1    3    3    0    0 -0.53435065911E+03 -0.12455901974E+03 -0.27389749687E+03  0.61324173557E+03  0.10566000000E+00 0.  1.
          4    1    3    3  501    0  0.17879176859E+03  0.11110190510E+03 -0.11354900692E+04  0.11548367102E+04  0.00000000000E+00 0.  1.
         13    1    1    2    0    0  0.35555889052E+03  0.13457114643E+02 -0.22857717452E+03  0.42290750105E+03  0.10566000000E+00 0. -1.
<mgrwt>
<rscale>  1 0.81115914E+03</rscale>
<asrwt>0</asrwt>
<pdfrwt beam="2">  1       21 0.29453466E+00 0.10675805E+04</pdfrwt>
<pdfrwt beam="1">  1        4 0.42540094E-01 0.10675805E+04</pdfrwt>
<totfact> 0.60902272E+00</totfact>
</mgrwt>
</event>
<event>
 6    1  0.1353269E-005  0.1032782E+04  0.7818608E-02  0.9596736E-01
         21   -1    0    0  501  502  0.00000000000E+00  0.00000000000E+00  0.32015980986E+03  0.32015980986E+03  0.00000000000E+00 0.  1.
          4   -1    0    0  502    0 -0.00000000000E+00 -0.00000000000E+00 -0.14892744738E+04  0.14892744738E+04  0.00000000000E+00 0.  1.
    9000010    2    1    2  501    0  0.31905620405E+03  0.74722687601E+02 -0.74486297867E+03  0.12733654028E+04  0.97941730165E+03 0.  0.
        -13    1    3    3    0    0 -0.19977197006E+03 -0.10920088014E+03 -0.68239010770E+03  0.71936773802E+03  0.10566000000E+00 0.  1.
          4    1    3    3  501    0  0.51882817411E+03  0.18392356775E+03 -0.62472870964E+02  0.55399766482E+03  0.00000000000E+00 0.  1.
         13    1    1    2    0    0 -0.31905620405E+03 -0.74722687601E+02 -0.42425168532E+03  0.53606888088E+03  0.10566000000E+00 0. -1.
<mgrwt>
<rscale>  1 0.77512561E+03</rscale>
<asrwt>0</asrwt>
<pdfrwt beam="1">  1       21 0.49255354E-01 0.10327820E+04</pdfrwt>
<pdfrwt beam="2">  1        4 0.22911915E+00 0.10327820E+04</pdfrwt>
<totfact> 0.13213347E+01</totfact>
</mgrwt>
</event>
<event>
 6    1  0.1353269E-005  0.1009449E+04  0.7818608E-02  0.9983822E-01
          4   -1    0    0  502    0 -0.00000000000E+00  0.00000000000E+00  0.13937862229E+04  0.13937862229E+04  0.00000000000E+00 0.  1.
         21   -1    0    0  501  502  0.00000000000E+00 -0.00000000000E+00 -0.27118270234E+03  0.27118270234E+03  0.00000000000E+00 0.  1.
    9000010    2    1    2  501    0  0.32340364610E+02 -0.92646042869E+02  0.69332356539E+03  0.12246162489E+04  0.10046682051E+04 0.  0.
        -13    1    3    3    0    0 -0.20769082891E+03 -0.42448102486E+03  0.66268598182E+03  0.81392403979E+03  0.10566000000E+00 0.  1.
          4    1    3    3  501    0  0.24003119352E+03  0.33183498199E+03  0.30637583563E+02  0.41069220915E+03  0.00000000000E+00 0.  1.
         13    1    1    2    0    0 -0.32340364610E+02  0.92646042869E+02  0.42927995519E+03  0.44035267632E+03  0.10566000000E+00 0. -1.
<mgrwt>
<rscale>  1 0.56365333E+03</rscale>
<asrwt>0</asrwt>
<pdfrwt beam="2">  1       21 0.41720417E-01 0.10094491E+04</pdfrwt>
<pdfrwt beam="1">  1        4 0.21442864E+00 0.10094491E+04</pdfrwt>
<totfact> 0.23408625E+01</totfact>
</mgrwt>
</event>
<event>
 6    1  0.1353269E-005  0.8905777E+03  0.7818608E-02  0.9612179E-01
          4   -1    0    0  502    0 -0.00000000000E+00  0.00000000000E+00  0.47166886680E+03  0.47166886680E+03  0.00000000000E+00 0.  1.
         21   -1    0    0  501  502  0.00000000000E+00 -0.00000000000E+00 -0.10026523102E+04  0.10026523102E+04  0.00000000000E+00 0.  1.
    9000010    2    1    2  501    0  0.47911661652E+03  0.73725100946E+02 -0.33781997018E+03  0.95249720164E+03  0.74708798956E+03 0.  0.
        -13    1    3    3    0    0 -0.19253840344E+03  0.10081506136E+03 -0.62947821337E+02  0.22626787835E+03  0.10566000000E+00 0.  1.
          4    1    3    3  501    0  0.67165501996E+03 -0.27089960415E+02 -0.27487214885E+03  0.72622932329E+03  0.00000000000E+00 0.  1.
         13    1    1    2    0    0 -0.47911661652E+03 -0.73725100946E+02 -0.19316347326E+03  0.52182397540E+03  0.10566000000E+00 0. -1.
<mgrwt>
<rscale>  1 0.76495282E+03</rscale>
<asrwt>0</asrwt>
<pdfrwt beam="2">  1       21 0.15425420E+00 0.89057767E+03</pdfrwt>
<pdfrwt beam="1">  1        4 0.72564443E-01 0.89057767E+03</pdfrwt>
<totfact> 0.17385416E+01</totfact>
</mgrwt>
</event>
<event>
 6    1  0.1353269E-005  0.1013185E+04  0.7818608E-02  0.9742840E-01
         21   -1    0    0  501  502  0.00000000000E+00  0.00000000000E+00  0.55521520316E+03  0.55521520316E+03  0.00000000000E+00 0.  1.
          4   -1    0    0  502    0 -0.00000000000E+00 -0.00000000000E+00 -0.69758590975E+03  0.69758590975E+03  0.00000000000E+00 0.  1.
    9000010    2    1    2  501    0  0.92918226084E+02 -0.19051393017E+03 -0.31693710605E+02  0.10136803005E+04  0.99076430396E+03 0.  0.
        -13    1    3    3    0    0 -0.78476377320E+02  0.31751881845E+03 -0.27269641827E+03  0.42584045084E+03  0.10566000000E+00 0.  1.
          4    1    3    3  501    0  0.17139460340E+03 -0.50803274862E+03  0.24100270767E+03  0.58783984966E+03  0.00000000000E+00 0.  1.
         13    1    1    2    0    0 -0.92918226084E+02  0.19051393017E+03 -0.11067699598E+03  0.23912081242E+03  0.10566000000E+00 0. -1.
<mgrwt>
<rscale>  1 0.68522430E+03</rscale>
<asrwt>0</asrwt>
<pdfrwt beam="1">  1       21 0.85417724E-01 0.10131847E+04</pdfrwt>
<pdfrwt beam="2">  1        4 0.10732091E+00 0.10131847E+04</pdfrwt>
<totfact> 0.31362752E+01</totfact>
</mgrwt>
</event>
<event>
 6    1  0.1353269E-005  0.9833729E+03  0.7818608E-02  0.9572338E-01
          4   -1    0    0  502    0 -0.00000000000E+00  0.00000000000E+00  0.15732514831E+04  0.15732514831E+04  0.00000000000E+00 0.  1.
         21   -1    0    0  501  502  0.00000000000E+00 -0.00000000000E+00 -0.34728341665E+03  0.34728341665E+03  0.00000000000E+00 0. -1.
    9000010    2    1    2  501    0 -0.23809592897E+03  0.33722317849E+03  0.54522775011E+03  0.11244089468E+04  0.89253181268E+03 0.  0.
        -13    1    3    3    0    0 -0.86008251314E+02  0.20953322919E+03 -0.23080139825E+03  0.32337422598E+03  0.10566000000E+00 0.  1.
          4    1    3    3  501    0 -0.15208767765E+03  0.12768994931E+03  0.77602914836E+03  0.80103472082E+03  0.00000000000E+00 0.  1.
         13    1    1    2    0    0  0.23809592897E+03 -0.33722317849E+03  0.68074031637E+03  0.79612595298E+03  0.10566000000E+00 0. -1.
<mgrwt>
<rscale>  1 0.79154440E+03</rscale>
<asrwt>0</asrwt>
<pdfrwt beam="2">  1       21 0.53428219E-01 0.98337286E+03</pdfrwt>
<pdfrwt beam="1">  1        4 0.24203869E+00 0.98337286E+03</pdfrwt>
<totfact> 0.92457442E+00</totfact>
</mgrwt>
</event>
<event>
 6    1  0.1353269E-005  0.1094576E+04  0.7818608E-02  0.9512658E-01
          4   -1    0    0  502    0 -0.00000000000E+00  0.00000000000E+00  0.86468087782E+03  0.86468087782E+03  0.00000000000E+00 0.  1.
         21   -1    0    0  501  502  0.00000000000E+00 -0.00000000000E+00 -0.62325655355E+03  0.62325655355E+03  0.00000000000E+00 0. -1.
    9000010    2    1    2  501    0  0.32806094149E+03 -0.16707603643E+03  0.12435741334E+03  0.11016175431E+04  0.10308045701E+04 0.  0.
        -13    1    3    3    0    0  0.54348396321E+03  0.24563209758E+03  0.20188820273E+03  0.62965768731E+03  0.10566000000E+00 0.  1.
          4    1    3    3  501    0 -0.21542302172E+03 -0.41270813401E+03 -0.77530789387E+02  0.47195985578E+03  0.00000000000E+00 0.  1.
         13    1    1    2    0    0 -0.32806094149E+03  0.16707603643E+03  0.11706691093E+03  0.38631988828E+03  0.10566000000E+00 0. -1.
<mgrwt>
<rscale>  1 0.83357026E+03</rscale>
<asrwt>0</asrwt>
<pdfrwt beam="2">  1       21 0.95885623E-01 0.10945759E+04</pdfrwt>
<pdfrwt beam="1">  1        4 0.13302783E+00 0.10945759E+04</pdfrwt>
<totfact> 0.13709271E+01</totfact>
</mgrwt>
</event>
<event>
 6    1  0.1353269E-005  0.1009430E+04  0.7818608E-02  0.9908376E-01
         21   -1    0    0  501  502  0.00000000000E+00  0.00000000000E+00  0.12030924567E+04  0.12030924567E+04  0.00000000000E+00 0.  1.
          4   -1    0    0  502    0 -0.00000000000E+00 -0.00000000000E+00 -0.31349902350E+03  0.31349902350E+03  0.00000000000E+00 0.  1.
    9000010    2    1    2  501    0  0.94099841224E+02  0.81985158655E+02  0.94250105711E+03  0.13810349452E+04  0.10016850457E+04 0.  0.
        -13    1    3    3    0    0  0.24392504359E+03 -0.28062354687E+03  0.91508040389E+03  0.98773536875E+03  0.10566000000E+00 0.  1.
          4    1    3    3  501    0 -0.14982520237E+03  0.36260870552E+03  0.27420653222E+02  0.39329957642E+03  0.00000000000E+00 0.  1.
         13    1    1    2    0    0 -0.94099841224E+02 -0.81985158655E+02 -0.52907623904E+02  0.13555653503E+03  0.10566000000E+00 0. -1.
<mgrwt>
<rscale>  1 0.59857069E+03</rscale>
<asrwt>0</asrwt>
<pdfrwt beam="1">  1       21 0.18509114E+00 0.10094302E+04</pdfrwt>
<pdfrwt beam="2">  1        4 0.48230620E-01 0.10094302E+04</pdfrwt>
<totfact> 0.24435951E+01</totfact>
</mgrwt>
</event>
<event>
 6    1  0.1353269E-005  0.1049925E+04  0.7818608E-02  0.9751962E-01
         21   -1    0    0  501  502  0.00000000000E+00  0.00000000000E+00  0.51990090826E+03  0.51990090826E+03  0.00000000000E+00 0.  1.
          4   -1    0    0  502    0 -0.00000000000E+00 -0.00000000000E+00 -0.96089826790E+03  0.96089826790E+03  0.00000000000E+00 0.  1.
    9000010    2    1    2  501    0  0.11357908068E+03  0.14577614720E+03 -0.53259933948E+02  0.10512747704E+04  0.10335333230E+04 0.  0.
        -13    1    3    3    0    0 -0.69208624797E+02 -0.26020383624E+03 -0.40329959060E+03  0.48491900466E+03  0.10566000000E+00 0.  1.
          4    1    3    3  501    0  0.18278770548E+03  0.40597998343E+03  0.35003965665E+03  0.56635576579E+03  0.00000000000E+00 0.  1.
         13    1    1    2    0    0 -0.11357908068E+03 -0.14577614720E+03 -0.38773742568E+03  0.42952440571E+03  0.10566000000E+00 0. -1.
<mgrwt>
<rscale>  1 0.68005480E+03</rscale>
<asrwt>0</asrwt>
<pdfrwt beam="1">  1       21 0.79984757E-01 0.10499248E+04</pdfrwt>
<pdfrwt beam="2">  1        4 0.14783050E+00 0.10499248E+04</pdfrwt>
<totfact> 0.16125397E+01</totfact>
</mgrwt>
</event>
<event>
 6    1  0.1353269E-005  0.1069847E+04  0.7818608E-02  0.9534818E-01
          4   -1    0    0  502    0 -0.00000000000E+00  0.00000000000E+00  0.13952534271E+04  0.13952534271E+04  0.00000000000E+00 0.  1.
         21   -1    0    0  501  502  0.00000000000E+00 -0.00000000000E+00 -0.37332862801E+03  0.37332862801E+03  0.00000000000E+00 0.  1.
    9000010    2    1    2  501    0 -0.31352812083E+03  0.18689493357E+03  0.67487493570E+03  0.12649222318E+04  0.10056552466E+04 0.  0.
        -13    1    3    3    0    0  0.33588638900E+03 -0.15053781572E+02  0.42148284484E+03  0.53916053482E+03  0.10566000000E+00 0.  1.
          4    1    3    3  501    0 -0.64941450983E+03  0.20194871514E+03  0.25339209086E+03  0.72576169700E+03  0.00000000000E+00 0.  1.
         13    1    1    2    0    0  0.31352812083E+03 -0.18689493357E+03  0.34704986337E+03  0.50365982327E+03  0.10566000000E+00 0. -1.
<mgrwt>
<rscale>  1 0.81764780E+03</rscale>
<asrwt>0</asrwt>
<pdfrwt beam="2">  1       21 0.57435174E-01 0.10698468E+04</pdfrwt>
<pdfrwt beam="1">  1        4 0.21465437E+00 0.10698468E+04</pdfrwt>
<totfact> 0.11630486E+01</totfact>
</mgrwt>
</event>
<event>
 6    1  0.1353269E-005  0.1039026E+04  0.7818608E-02  0.9638461E-01
         21   -1    0    0  501  502  0.00000000000E+00  0.00000000000E+00  0.83235536074E+03  0.83235536074E+03  0.00000000000E+00 0. -1.
          4   -1    0    0  502    0 -0.00000000000E+00 -0.00000000000E+00 -0.52639247611E+03  0.52639247611E+03  0.00000000000E+00 0.  1.
    9000010    2    1    2  501    0 -0.26744216251E+03 -0.79854510317E+02  0.18877535375E+03  0.10560351320E+04  0.10008356572E+04 0.  0.
        -13    1    3    3    0    0 -0.38603548872E+03  0.13644661477E+03  0.50809259849E+03  0.65253289346E+03  0.10566000000E+00 0.  1.
          4    1    3    3  501    0  0.11859332621E+03 -0.21630112509E+03 -0.31931724474E+03  0.40350223857E+03  0.00000000000E+00 0.  1.
         13    1    1    2    0    0  0.26744216251E+03  0.79854510317E+02  0.11718753088E+03  0.30271270483E+03  0.10566000000E+00 0. -1.
<mgrwt>
<rscale>  1 0.74802023E+03</rscale>
<asrwt>0</asrwt>
<pdfrwt beam="1">  1       21 0.12805467E+00 0.10390255E+04</pdfrwt>
<pdfrwt beam="2">  1        4 0.80983458E-01 0.10390255E+04</pdfrwt>
<totfact> 0.22107766E+01</totfact>
</mgrwt>
</event>
<event>
 6    1  0.1353269E-005  0.1030849E+04  0.7818608E-02  0.9603402E-01
          4   -1    0    0  502    0 -0.00000000000E+00  0.00000000000E+00  0.30400768529E+03  0.30400768529E+03  0.00000000000E+00 0.  1.
         21   -1    0    0  501  502  0.00000000000E+00 -0.00000000000E+00 -0.20817654488E+04  0.20817654488E+04  0.00000000000E+00 0.  1.
    9000010    2    1    2  501    0 -0.28200680109E+03 -0.15562474720E+03 -0.17875925338E+04  0.20635253542E+04  0.97923588710E+03 0.  0.
        -13    1    3    3    0    0  0.34573003007E+03 -0.20308480584E+03 -0.66925113620E+03  0.78017292091E+03  0.10566000000E+00 0.  1.
          4    1    3    3  501    0 -0.62773683116E+03  0.47460058642E+02 -0.11183413976E+04  0.12833524333E+04  0.00000000000E+00 0.  1.
         13    1    1    2    0    0  0.28200680109E+03  0.15562474720E+03  0.98347702944E+01  0.32224777993E+03  0.10566000000E+00 0. -1.
<mgrwt>
<rscale>  1 0.77071393E+03</rscale>
<asrwt>0</asrwt>
<pdfrwt beam="2">  1       21 0.32027160E+00 0.10308491E+04</pdfrwt>
<pdfrwt beam="1">  1        4 0.46770415E-01 0.10308491E+04</pdfrwt>
<totfact> 0.34802712E+00</totfact>
</mgrwt>
</event>
<event>
 6    1  0.1353269E-005  0.1025185E+04  0.7818608E-02  0.9769565E-01
          4   -1    0    0  502    0 -0.00000000000E+00  0.00000000000E+00  0.22443628736E+03  0.22443628736E+03  0.00000000000E+00 0.  1.
         21   -1    0    0  501  502  0.00000000000E+00 -0.00000000000E+00 -0.16382413453E+04  0.16382413453E+04  0.00000000000E+00 0.  1.
    9000010    2    1    2  501    0  0.40631393849E+02 -0.18280348503E+03 -0.12097858935E+04  0.15857446897E+04  0.10079366489E+04 0.  0.
        -13    1    3    3    0    0 -0.21670919956E+03  0.36156550870E+03 -0.45603560629E+03  0.62101608645E+03  0.10566000000E+00 0.  1.
          4    1    3    3  501    0  0.25734059341E+03 -0.54436899373E+03 -0.75375028725E+03  0.96472860322E+03  0.00000000000E+00 0.  1.
         13    1    1    2    0    0 -0.40631393849E+02  0.18280348503E+03 -0.20401916440E+03  0.27693294299E+03  0.10566000000E+00 0. -1.
<mgrwt>
<rscale>  1 0.67021727E+03</rscale>
<asrwt>0</asrwt>
<pdfrwt beam="2">  1       21 0.25203713E+00 0.10251850E+04</pdfrwt>
<pdfrwt beam="1">  1        4 0.34528660E-01 0.10251850E+04</pdfrwt>
<totfact> 0.17287223E+01</totfact>
</mgrwt>
</event>
<event>
 6    1  0.1353269E-005  0.9428478E+03  0.7818608E-02  0.9912339E-01
          4   -1    0    0  502    0 -0.00000000000E+00  0.00000000000E+00  0.14251653467E+04  0.14251653467E+04  0.00000000000E+00 0.  1.
         21   -1    0    0  501  502  0.00000000000E+00 -0.00000000000E+00 -0.22750563577E+03  0.22750563577E+03  0.00000000000E+00 0.  1.
    9000010    2    1    2  501    0 -0.15112557025E+03 -0.53653481410E+01  0.83382082357E+03  0.12586576933E+04  0.93064187422E+03 0.  0.
        -13    1    3    3    0    0  0.29194148154E+03  0.14370835639E+03  0.27410205781E+02  0.32654747111E+03  0.10566000000E+00 0.  1.
          4    1    3    3  501    0 -0.44306705179E+03 -0.14907370454E+03  0.80641061778E+03  0.93211022215E+03  0.00000000000E+00 0.  1.
         13    1    1    2    0    0  0.15112557025E+03  0.53653481410E+01  0.36383888733E+03  0.39401328917E+03  0.10566000000E+00 0. -1.
<mgrwt>
<rscale>  1 0.59666986E+03</rscale>
<asrwt>0</asrwt>
<pdfrwt beam="2">  1       21 0.35000868E-01 0.94284783E+03</pdfrwt>
<pdfrwt beam="1">  1        4 0.21925620E+00 0.94284783E+03</pdfrwt>
<totfact> 0.31618878E+01</totfact>
</mgrwt>
</event>
<event>
 6    1  0.1353269E-005  0.1117591E+04  0.7818608E-02  0.9384964E-01
         21   -1    0    0  501  502  0.00000000000E+00  0.00000000000E+00  0.30114888379E+03  0.30114888379E+03  0.00000000000E+00 0.  1.
          4   -1    0    0  502    0 -0.00000000000E+00 -0.00000000000E+00 -0.24116712945E+04  0.24116712945E+04  0.00000000000E+00 0.  1.
    9000010    2    1    2  501    0  0.44269838954E+03  0.31511210424E+03 -0.11151821774E+04  0.15788097315E+04  0.97659171459E+03 0.  0.
        -13    1    3    3    0    0 -0.54872840986E+02  0.22458057843E+03  0.10802122963E+03  0.25517849067E+03  0.10566000000E+00 0.  1.
          4    1    3    3  501    0  0.49757123052E+03  0.90531525814E+02 -0.12232034071E+04  0.13236312408E+04  0.00000000000E+00 0.  1.
         13    1    1    2    0    0 -0.44269838954E+03 -0.31511210424E+03 -0.99534023327E+03  0.11340104468E+04  0.10566000000E+00 0. -1.
<mgrwt>
<rscale>  1 0.93323468E+03</rscale>
<asrwt>0</asrwt>
<pdfrwt beam="1">  1       21 0.46330600E-01 0.11175907E+04</pdfrwt>
<pdfrwt beam="2">  1        4 0.37102634E+00 0.11175907E+04</pdfrwt>
<totfact> 0.19037756E+00</totfact>
</mgrwt>
</event>
<event>
 6    1  0.1353269E-005  0.1086041E+04  0.7818608E-02  0.9461245E-01
         21   -1    0    0  501  502  0.00000000000E+00  0.00000000000E+00  0.78654505461E+03  0.78654505461E+03  0.00000000000E+00 0.  1.
          4   -1    0    0  502    0 -0.00000000000E+00 -0.00000000000E+00 -0.82181359435E+03  0.82181359435E+03  0.00000000000E+00 0.  1.
    9000010    2    1    2  501    0  0.41758513324E+03 -0.17145229426E+03  0.19212977667E+03  0.11029051514E+04  0.98778170121E+03 0.  0.
        -13    1    3    3    0    0  0.74337297705E+03 -0.12085512996E+03  0.94364927889E+02  0.75902180221E+03  0.10566000000E+00 0.  1.
          4    1    3    3  501    0 -0.32578784381E+03 -0.50597164304E+02  0.97764848785E+02  0.34388334922E+03  0.00000000000E+00 0.  1.
         13    1    1    2    0    0 -0.41758513324E+03  0.17145229426E+03 -0.22739831641E+03  0.50545349755E+03  0.10566000000E+00 0. -1.
<mgrwt>
<rscale>  1 0.87202348E+03</rscale>
<asrwt>0</asrwt>
<pdfrwt beam="1">  1       21 0.12100693E+00 0.10860414E+04</pdfrwt>
<pdfrwt beam="2">  1        4 0.12643286E+00 0.10860414E+04</pdfrwt>
<totfact> 0.86823221E+00</totfact>
</mgrwt>
</event>
<event>
 6    1  0.1353269E-005  0.1051751E+04  0.7818608E-02  0.9617945E-01
         21   -1    0    0  501  502  0.00000000000E+00  0.00000000000E+00  0.10739073796E+04  0.10739073796E+04  0.00000000000E+00 0.  1.
          4   -1    0    0  502    0 -0.00000000000E+00 -0.00000000000E+00 -0.10962095084E+04  0.10962095084E+04  0.00000000000E+00 0.  1.
    9000010    2    1    2  501    0 -0.10569480065E+03 -0.26851659344E+03  0.78525066818E+03  0.13125540139E+04  0.10113885879E+04 0.  0.
        -13    1    3    3    0    0 -0.44434989425E+03 -0.12784462423E+03  0.82291280857E+03  0.94391555668E+03  0.10566000000E+00 0.  1.
          4    1    3    3  501    0  0.33865509360E+03 -0.14067196920E+03 -0.37662140392E+02  0.36863845724E+03  0.00000000000E+00 0.  1.
         13    1    1    2    0    0  0.10569480065E+03  0.26851659344E+03 -0.80755279697E+03  0.85756287402E+03  0.10566000000E+00 0. -1.
<mgrwt>
<rscale>  1 0.76119746E+03</rscale>
<asrwt>0</asrwt>
<pdfrwt beam="1">  1       21 0.16521652E+00 0.10517506E+04</pdfrwt>
<pdfrwt beam="2">  1        4 0.16864762E+00 0.10517506E+04</pdfrwt>
<totfact> 0.17190650E+00</totfact>
</mgrwt>
</event>
<event>
 6    1  0.1353269E-005  0.1010165E+04  0.7818608E-02  0.9806598E-01
          4   -1    0    0  502    0 -0.00000000000E+00  0.00000000000E+00  0.80356033800E+03  0.80356033800E+03  0.00000000000E+00 0.  1.
         21   -1    0    0  501  502  0.00000000000E+00 -0.00000000000E+00 -0.46449960787E+03  0.46449960787E+03  0.00000000000E+00 0.  1.
    9000010    2    1    2  501    0 -0.16093714456E+03 -0.64213116870E+02  0.16701218222E+03  0.10238780406E+04  0.99519298835E+03 0.  0.
        -13    1    3    3    0    0 -0.40136028600E+03  0.13301553013E+03 -0.25944719357E+03  0.49608070699E+03  0.10566000000E+00 0.  1.
          4    1    3    3  501    0  0.24042314143E+03 -0.19722864700E+03  0.42645937578E+03  0.52779733357E+03  0.00000000000E+00 0.  1.
         13    1    1    2    0    0  0.16093714456E+03  0.64213116870E+02  0.17204854791E+03  0.24418190531E+03  0.10566000000E+00 0. -1.
<mgrwt>
<rscale>  1 0.65009670E+03</rscale>
<asrwt>0</asrwt>
<pdfrwt beam="2">  1       21 0.71461478E-01 0.10101649E+04</pdfrwt>
<pdfrwt beam="1">  1        4 0.12362467E+00 0.10101649E+04</pdfrwt>
<totfact> 0.33506468E+01</totfact>
</mgrwt>
</event>
<event>
 6    1  0.1353269E-005  0.1240658E+04  0.7818608E-02  0.9201300E-01
         21   -1    0    0  501  502  0.00000000000E+00  0.00000000000E+00  0.15919529005E+04  0.15919529005E+04  0.00000000000E+00 0. -1.
          4   -1    0    0  502    0 -0.00000000000E+00 -0.00000000000E+00 -0.68848228394E+03  0.68848228394E+03  0.00000000000E+00 0.  1.
    9000010    2    1    2  501    0 -0.49911087437E+03 -0.59666978728E+03  0.25249704127E+03  0.12660915016E+04  0.96649181824E+03 0.  0.
        -13    1    3    3    0    0 -0.73706553002E+03 -0.52259023438E+03 -0.10741392267E+02  0.90359367931E+03  0.10566000000E+00 0.  1.
          4    1    3    3  501    0  0.23795465565E+03 -0.74079552898E+02  0.26323843354E+03  0.36249782233E+03  0.00000000000E+00 0.  1.
         13    1    1    2    0    0  0.49911087437E+03  0.59666978728E+03  0.65097357531E+03  0.10143436828E+04  0.10566000000E+00 0. -1.
<mgrwt>
<rscale>  1 0.11040022E+04</rscale>
<asrwt>0</asrwt>
<pdfrwt beam="1">  1       21 0.24491583E+00 0.12406583E+04</pdfrwt>
<pdfrwt beam="2">  1        4 0.10592035E+00 0.12406583E+04</pdfrwt>
<totfact> 0.15864847E+00</totfact>
</mgrwt>
</event>
<event>
 6    1  0.1353269E-005  0.8515203E+03  0.7818608E-02  0.9813453E-01
         21   -1    0    0  501  502  0.00000000000E+00  0.00000000000E+00  0.74622497974E+03  0.74622497974E+03  0.00000000000E+00 0.  1.
          4   -1    0    0  502    0 -0.00000000000E+00 -0.00000000000E+00 -0.43619405962E+03  0.43619405962E+03  0.00000000000E+00 0.  1.
    9000010    2    1    2  501    0  0.31786544138E+02  0.28106738480E+03  0.28716092421E+03  0.89863689218E+03  0.80316723564E+03 0.  0.
        -13    1    3    3    0    0 -0.34409767416E+03  0.13451656008E+03 -0.50043350203E+02  0.37283007169E+03  0.10566000000E+00 0.  1.
          4    1    3    3  501    0  0.37588421829E+03  0.14655082472E+03  0.33720427442E+03  0.52580682049E+03  0.00000000000E+00 0.  1.
         13    1    1    2    0    0 -0.31786544138E+02 -0.28106738480E+03  0.22869995907E+02  0.28378214719E+03  0.10566000000E+00 0. -1.
<mgrwt>
<rscale>  1 0.64645575E+03</rscale>
<asrwt>0</asrwt>
<pdfrwt beam="1">  1       21 0.11480384E+00 0.85152033E+03</pdfrwt>
<pdfrwt beam="2">  1        4 0.67106778E-01 0.85152033E+03</pdfrwt>
<totfact> 0.45766260E+01</totfact>
</mgrwt>
</event>
<event>
 6    1  0.1353269E-005  0.1017972E+04  0.7818608E-02  0.9806301E-01
          4   -1    0    0  502    0 -0.00000000000E+00  0.00000000000E+00  0.50927616780E+03  0.50927616780E+03  0.00000000000E+00 0.  1.
         21   -1    0    0  501  502  0.00000000000E+00 -0.00000000000E+00 -0.92634468946E+03  0.92634468946E+03  0.00000000000E+00 0.  1.
    9000010    2    1    2  501    0 -0.15917510215E+03  0.58206684126E+02 -0.60369792353E+03  0.11835191396E+04  0.10037637370E+04 0.  0.
        -13    1    3    3    0    0  0.21435088019E+02 -0.29541937022E+03  0.14970655964E+03  0.33187969576E+03  0.10566000000E+00 0.  1.
          4    1    3    3  501    0 -0.18061019017E+03  0.35362605434E+03 -0.75340448317E+03  0.85163944387E+03  0.00000000000E+00 0.  1.
         13    1    1    2    0    0  0.15917510215E+03 -0.58206684126E+02  0.18662940187E+03  0.25210171762E+03  0.10566000000E+00 0. -1.
<mgrwt>
<rscale>  1 0.65025514E+03</rscale>
<asrwt>0</asrwt>
<pdfrwt beam="2">  1       21 0.14251457E+00 0.10179717E+04</pdfrwt>
<pdfrwt beam="1">  1        4 0.78350180E-01 0.10179717E+04</pdfrwt>
<totfact> 0.17922919E+01</totfact>
</mgrwt>
</event>
<event>
 6    1  0.1353269E-005  0.1003974E+04  0.7818608E-02  0.9918195E-01
          4   -1    0    0  502    0 -0.00000000000E+00  0.00000000000E+00  0.38121256431E+03  0.38121256431E+03  0.00000000000E+00 0.  1.
         21   -1    0    0  501  502  0.00000000000E+00 -0.00000000000E+00 -0.98066636580E+03  0.98066636580E+03  0.00000000000E+00 0.  1.
    9000010    2    1    2  501    0 -0.86107890416E+01  0.12261534381E+03 -0.68209640889E+03  0.12137624896E+04  0.99642119705E+03 0.  0.
        -13    1    3    3    0    0 -0.32659733342E+03 -0.14219616677E+03 -0.71482129555E+03  0.79865828974E+03  0.10566000000E+00 0.  1.
          4    1    3    3  501    0  0.31798654438E+03  0.26481151058E+03  0.32724886654E+02  0.41510419987E+03  0.00000000000E+00 0.  1.
         13    1    1    2    0    0  0.86107890416E+01 -0.12261534381E+03  0.82642607405E+02  0.14811644051E+03  0.10566000000E+00 0. -1.
<mgrwt>
<rscale>  1 0.59387518E+03</rscale>
<asrwt>0</asrwt>
<pdfrwt beam="2">  1       21 0.15087175E+00 0.10039740E+04</pdfrwt>
<pdfrwt beam="1">  1        4 0.58648087E-01 0.10039740E+04</pdfrwt>
<totfact> 0.29224888E+01</totfact>
</mgrwt>
</event>
<event>
 6    1  0.1353269E-005  0.1018565E+04  0.7818608E-02  0.9732028E-01
          4   -1    0    0  502    0 -0.00000000000E+00  0.00000000000E+00  0.42843725584E+03  0.42843725584E+03  0.00000000000E+00 0.  1.
         21   -1    0    0  501  502  0.00000000000E+00 -0.00000000000E+00 -0.92511400435E+03  0.92511400435E+03  0.00000000000E+00 0.  1.
    9000010    2    1    2  501    0  0.18398167490E+03  0.11367375395E+03 -0.50550379050E+03  0.11371051771E+04  0.99534070681E+03 0.  0.
        -13    1    3    3    0    0  0.50498585619E+03  0.15925743883E+03 -0.59918031951E+03  0.79961910510E+03  0.10566000000E+00 0.  1.
          4    1    3    3  501    0 -0.32100418130E+03 -0.45583684874E+02  0.93676529016E+02  0.33748607205E+03  0.00000000000E+00 0.  1.
         13    1    1    2    0    0 -0.18398167490E+03 -0.11367375395E+03  0.88270419886E+01  0.21644608306E+03  0.10566000000E+00 0. -1.
<mgrwt>
<rscale>  1 0.69141460E+03</rscale>
<asrwt>0</asrwt>
<pdfrwt beam="2">  1       21 0.14232523E+00 0.10185647E+04</pdfrwt>
<pdfrwt beam="1">  1        4 0.65913425E-01 0.10185647E+04</pdfrwt>
<totfact> 0.26544619E+01</totfact>
</mgrwt>
</event>
<event>
 6    1  0.1353269E-005  0.1043340E+04  0.7818608E-02  0.9618314E-01
          4   -1    0    0  502    0 -0.00000000000E+00  0.00000000000E+00  0.47962099290E+03  0.47962099290E+03  0.00000000000E+00 0.  1.
         21   -1    0    0  501  502  0.00000000000E+00 -0.00000000000E+00 -0.12729820031E+04  0.12729820031E+04  0.00000000000E+00 0. -1.
    9000010    2    1    2  501    0  0.29454149689E+03  0.20195334106E+02 -0.95638056535E+03  0.14153524490E+04  0.10006978686E+04 0.  0.
        -13    1    3    3    0    0 -0.28026782407E+03  0.86096256355E+02 -0.74287624394E+03  0.79864118573E+03  0.10566000000E+00 0.  1.
          4    1    3    3  501    0  0.57480932096E+03 -0.65900922249E+02 -0.21350432140E+03  0.61671126329E+03  0.00000000000E+00 0.  1.
         13    1    1    2    0    0 -0.29454149689E+03 -0.20195334106E+02  0.16301955514E+03  0.33725054697E+03  0.10566000000E+00 0. -1.
<mgrwt>
<rscale>  1 0.76095802E+03</rscale>
<asrwt>0</asrwt>
<pdfrwt beam="2">  1       21 0.19584338E+00 0.10433402E+04</pdfrwt>
<pdfrwt beam="1">  1        4 0.73787847E-01 0.10433402E+04</pdfrwt>
<totfact> 0.80952205E+00</totfact>
</mgrwt>
</event>
<event>
 6    1  0.1353269E-005  0.1149730E+04  0.7818608E-02  0.9332567E-01
         21   -1    0    0  501  502  0.00000000000E+00  0.00000000000E+00  0.13711621243E+04  0.13711621243E+04  0.00000000000E+00 0.  1.
          4   -1    0    0  502    0 -0.00000000000E+00 -0.00000000000E+00 -0.57115791117E+03  0.57115791117E+03  0.00000000000E+00 0.  1.
    9000010    2    1    2  501    0 -0.58338377597E+03 -0.15225963112E+03  0.65105313494E+03  0.13212676543E+04  0.97895781548E+03 0.  0.
        -13    1    3    3    0    0 -0.60406897493E+03  0.16710458484E+03  0.35825683413E+02  0.62777922831E+03  0.10566000000E+00 0.  1.
          4    1    3    3  501    0  0.20685198960E+02 -0.31936421596E+03  0.61522745152E+03  0.69348842600E+03  0.00000000000E+00 0.  1.
         13    1    1    2    0    0  0.58338377597E+03  0.15225963112E+03  0.14895107824E+03  0.62105238121E+03  0.10566000000E+00 0. -1.
<mgrwt>
<rscale>  1 0.97839169E+03</rscale>
<asrwt>0</asrwt>
<pdfrwt beam="1">  1       21 0.21094802E+00 0.11497295E+04</pdfrwt>
<pdfrwt beam="2">  1        4 0.87870448E-01 0.11497295E+04</pdfrwt>
<totfact> 0.42070817E+00</totfact>
</mgrwt>
</event>
<event>
 6    1  0.1353269E-005  0.1036614E+04  0.7818608E-02  0.9968317E-01
          4   -1    0    0  502    0 -0.00000000000E+00  0.00000000000E+00  0.23259800306E+03  0.23259800306E+03  0.00000000000E+00 0.  1.
         21   -1    0    0  501  502  0.00000000000E+00 -0.00000000000E+00 -0.14756619967E+04  0.14756619967E+04  0.00000000000E+00 0.  1.
    9000010    2    1    2  501    0 -0.93847179153E+02  0.15843205945E+02 -0.12355202980E+04  0.16127863452E+04  0.10322359655E+04 0.  0.
        -13    1    3    3    0    0 -0.53868301576E+03  0.17101432392E+03 -0.69355955351E+03  0.89467880040E+03  0.10566000000E+00 0.  1.
          4    1    3    3  501    0  0.44483583661E+03 -0.15517111798E+03 -0.54196074446E+03  0.71810754482E+03  0.00000000000E+00 0.  1.
         13    1    1    2    0    0  0.93847179153E+02 -0.15843205945E+02 -0.75436957009E+01  0.95473654578E+02  0.10566000000E+00 0. -1.
<mgrwt>
<rscale>  1 0.57061585E+03</rscale>
<asrwt>0</asrwt>
<pdfrwt beam="2">  1       21 0.22702492E+00 0.10366144E+04</pdfrwt>
<pdfrwt beam="1">  1        4 0.35784309E-01 0.10366144E+04</pdfrwt>
<totfact> 0.23281936E+01</totfact>
</mgrwt>
</event>
<event>
 6    1  0.1353269E-005  0.1000218E+04  0.7818608E-02  0.1003354E+00
          4   -1    0    0  502    0 -0.00000000000E+00  0.00000000000E+00  0.53345032874E+03  0.53345032874E+03  0.00000000000E+00 0.  1.
         21   -1    0    0  501  502  0.00000000000E+00 -0.00000000000E+00 -0.59092174200E+03  0.59092174200E+03  0.00000000000E+00 0.  1.
    9000010    2    1    2  501    0  0.79299462678E+02  0.33959448877E+02 -0.13387402890E+03  0.10091374414E+04  0.99649107930E+03 0.  0.
        -13    1    3    3    0    0  0.54656004078E+02 -0.46404525803E+03 -0.19594409137E+03  0.50667482510E+03  0.10566000000E+00 0.  1.
          4    1    3    3  501    0  0.24643458600E+02  0.49800470691E+03  0.62070062462E+02  0.50246261633E+03  0.00000000000E+00 0.  1.
         13    1    1    2    0    0 -0.79299462678E+02 -0.33959448877E+02  0.76402615646E+02  0.11523462930E+03  0.10566000000E+00 0. -1.
<mgrwt>
<rscale>  1 0.54203801E+03</rscale>
<asrwt>0</asrwt>
<pdfrwt beam="2">  1       21 0.90911037E-01 0.10002180E+04</pdfrwt>
<pdfrwt beam="1">  1        4 0.82069281E-01 0.10002180E+04</pdfrwt>
<totfact> 0.51148746E+01</totfact>
</mgrwt>
</event>
<event>
 6    1  0.1353269E-005  0.9283547E+03  0.7818608E-02  0.1061076E+00
          4   -1    0    0  502    0 -0.00000000000E+00  0.00000000000E+00  0.15237089829E+03  0.15237089829E+03  0.00000000000E+00 0.  1.
         21   -1    0    0  501  502  0.00000000000E+00 -0.00000000000E+00 -0.16140711870E+04  0.16140711870E+04  0.00000000000E+00 0.  1.
    9000010    2    1    2  501    0 -0.18842576310E+02 -0.53141013112E+01 -0.14749579853E+04  0.17427976349E+04  0.92814829385E+03 0.  0.
        -13    1    3    3    0    0  0.40480392849E+03 -0.18943085159E+03 -0.54820276129E+03  0.70730230220E+03  0.10566000000E+00 0.  1.
          4    1    3    3  501    0 -0.42364650480E+03  0.18411675028E+03 -0.92675522399E+03  0.10354953327E+04  0.00000000000E+00 0.  1.
         13    1    1    2    0    0  0.18842576310E+02  0.53141013112E+01  0.13257696552E+02  0.23644450441E+02  0.10566000000E+00 0. -1.
<mgrwt>
<rscale>  1 0.35377481E+03</rscale>
<asrwt>0</asrwt>
<pdfrwt beam="2">  1       21 0.24831865E+00 0.92835475E+03</pdfrwt>
<pdfrwt beam="1">  1        4 0.23441676E-01 0.92835475E+03</pdfrwt>
<totfact> 0.39286517E+01</totfact>
</mgrwt>
</event>
<event>
 6    1  0.1353269E-005  0.1024809E+04  0.7818608E-02  0.9641323E-01
          4   -1    0    0  502    0 -0.00000000000E+00  0.00000000000E+00  0.48759465654E+03  0.48759465654E+03  0.00000000000E+00 0.  1.
         21   -1    0    0  501  502  0.00000000000E+00 -0.00000000000E+00 -0.13197685420E+04  0.13197685420E+04  0.00000000000E+00 0.  1.
    9000010    2    1    2  501    0 -0.16752834976E+03  0.23435102969E+03 -0.10338537483E+04  0.14557086360E+04  0.98348762420E+03 0.  0.
        -13    1    3    3    0    0  0.38254946034E+03  0.23846833683E+03 -0.31238145966E+03  0.54844637366E+03  0.10566000000E+00 0.  1.
          4    1    3    3  501    0 -0.55007781010E+03 -0.41173071390E+01 -0.72147228865E+03  0.90726226235E+03  0.00000000000E+00 0.  1.
         13    1    1    2    0    0  0.16752834976E+03 -0.23435102969E+03  0.20167986286E+03  0.35165456252E+03  0.10566000000E+00 0. -1.
<mgrwt>
<rscale>  1 0.74620473E+03</rscale>
<asrwt>0</asrwt>
<pdfrwt beam="2">  1       21 0.20304131E+00 0.10248093E+04</pdfrwt>
<pdfrwt beam="1">  1        4 0.75014562E-01 0.10248093E+04</pdfrwt>
<totfact> 0.69733437E+00</totfact>
</mgrwt>
</event>
<event>
 6    1  0.1353269E-005  0.9707323E+03  0.7818608E-02  0.9971331E-01
         21   -1    0    0  501  502  0.00000000000E+00  0.00000000000E+00  0.59211659512E+03  0.59211659512E+03  0.00000000000E+00 0.  1.
          4   -1    0    0  502    0 -0.00000000000E+00 -0.00000000000E+00 -0.62547878593E+03  0.62547878593E+03  0.00000000000E+00 0.  1.
    9000010    2    1    2  501    0 -0.11070976355E+03 -0.30353752304E+02  0.16862207571E+03  0.98526876374E+03  0.96392070750E+03 0.  0.
        -13    1    3    3    0    0 -0.16121678229E+02  0.46255283444E+03  0.26302545825E+02  0.46358048734E+03  0.10566000000E+00 0.  1.
          4    1    3    3  501    0 -0.94588085323E+02 -0.49290658675E+03  0.14231952988E+03  0.52168827640E+03  0.00000000000E+00 0.  1.
         13    1    1    2    0    0  0.11070976355E+03  0.30353752304E+02 -0.20198426652E+03  0.23232661731E+03  0.10566000000E+00 0. -1.
<mgrwt>
<rscale>  1 0.56925367E+03</rscale>
<asrwt>0</asrwt>
<pdfrwt beam="1">  1       21 0.91094861E-01 0.97073227E+03</pdfrwt>
<pdfrwt beam="2">  1        4 0.96227505E-01 0.97073227E+03</pdfrwt>
<totfact> 0.35127805E+01</totfact>
</mgrwt>
</event>
<event>
 6    1  0.1353269E-005  0.1017847E+04  0.7818608E-02  0.9746624E-01
          4   -1    0    0  502    0 -0.00000000000E+00  0.00000000000E+00  0.23457691923E+03  0.23457691923E+03  0.00000000000E+00 0.  1.
         21   -1    0    0  501  502  0.00000000000E+00 -0.00000000000E+00 -0.16640057661E+04  0.16640057661E+04  0.00000000000E+00 0.  1.
    9000010    2    1    2  501    0 -0.16553948503E+03  0.12336864551E+03 -0.13138080356E+04  0.16619578199E+04  0.99668906723E+03 0.  0.
        -13    1    3    3    0    0  0.13909983400E+03  0.47024467929E+03 -0.38042943316E+03  0.62064916579E+03  0.10566000000E+00 0.  1.
          4    1    3    3  501    0 -0.30463931903E+03 -0.34687603378E+03 -0.93337860248E+03  0.10413086541E+04  0.00000000000E+00 0.  1.
         13    1    1    2    0    0  0.16553948503E+03 -0.12336864551E+03 -0.11562081122E+03  0.23662486545E+03  0.10566000000E+00 0. -1.
<mgrwt>
<rscale>  1 0.68307365E+03</rscale>
<asrwt>0</asrwt>
<pdfrwt beam="2">  1       21 0.25600089E+00 0.10178469E+04</pdfrwt>
<pdfrwt beam="1">  1        4 0.36088756E-01 0.10178469E+04</pdfrwt>
<totfact> 0.14949877E+01</totfact>
</mgrwt>
</event>
<event>
 6    1  0.1353269E-005  0.1016294E+04  0.7818608E-02  0.9829522E-01
         21   -1    0    0  501  502  0.00000000000E+00  0.00000000000E+00  0.14751214572E+03  0.14751214572E+03  0.00000000000E+00 0.  1.
          4   -1    0    0  502    0 -0.00000000000E+00 -0.00000000000E+00 -0.23364956141E+04  0.23364956141E+04  0.00000000000E+00 0.  1.
    9000010    2    1    2  501    0  0.14247360444E+03 -0.67985091406E+02 -0.18936865690E+04  0.21491630637E+04  0.10039583417E+04 0.  0.
        -13    1    3    3    0    0 -0.26786966178E+03 -0.39624557937E+03 -0.73548936386E+03  0.87733079872E+03  0.10566000000E+00 0.  1.
          4    1    3    3  501    0  0.41034326622E+03  0.32826048796E+03 -0.11581972052E+04  0.12718322650E+04  0.00000000000E+00 0.  1.
         13    1    1    2    0    0 -0.14247360444E+03  0.67985091406E+02 -0.29529689935E+03  0.33484469616E+03  0.10566000000E+00 0. -1.
<mgrwt>
<rscale>  1 0.63802031E+03</rscale>
<asrwt>0</asrwt>
<pdfrwt beam="1">  1       21 0.22694175E-01 0.10162938E+04</pdfrwt>
<pdfrwt beam="2">  1        4 0.35946089E+00 0.10162938E+04</pdfrwt>
<totfact> 0.98942981E+00</totfact>
</mgrwt>
</event>
<event>
 6    1  0.1353269E-005  0.1046305E+04  0.7818608E-02  0.9767508E-01
          4   -1    0    0  502    0 -0.00000000000E+00  0.00000000000E+00  0.78641538624E+03  0.78641538624E+03  0.00000000000E+00 0.  1.
         21   -1    0    0  501  502  0.00000000000E+00 -0.00000000000E+00 -0.48838717568E+03  0.48838717568E+03  0.00000000000E+00 0.  1.
    9000010    2    1    2  501    0 -0.35730680008E+02  0.17371754670E+03  0.32453134964E+03  0.10954791249E+04  0.10311641230E+04 0.  0.
        -13    1    3    3    0    0 -0.52136019909E+03  0.19298991012E+03  0.22290445137E+03  0.59895573143E+03  0.10566000000E+00 0.  1.
          4    1    3    3  501    0  0.48562951909E+03 -0.19272363423E+02  0.10162689827E+03  0.49652339346E+03  0.00000000000E+00 0.  1.
         13    1    1    2    0    0  0.35730680008E+02 -0.17371754670E+03 -0.26503139077E+02  0.17932343703E+03  0.10566000000E+00 0. -1.
<mgrwt>
<rscale>  1 0.67135783E+03</rscale>
<asrwt>0</asrwt>
<pdfrwt beam="2">  1       21 0.75136489E-01 0.10463049E+04</pdfrwt>
<pdfrwt beam="1">  1        4 0.12098698E+00 0.10463049E+04</pdfrwt>
<totfact> 0.31416463E+01</totfact>
</mgrwt>
</event>
<event>
 6    1  0.1353269E-005  0.1004733E+04  0.7818608E-02  0.9950154E-01
         21   -1    0    0  501  502  0.00000000000E+00  0.00000000000E+00  0.10608880360E+04  0.10608880360E+04  0.00000000000E+00 0.  1.
          4   -1    0    0  502    0 -0.00000000000E+00 -0.00000000000E+00 -0.46580870378E+03  0.46580870378E+03  0.00000000000E+00 0.  1.
    9000010    2    1    2  501    0 -0.10020391081E+03 -0.47136124997E+02  0.80626718012E+03  0.12882371913E+04  0.99861186522E+03 0.  0.
        -13    1    3    3    0    0  0.24133304993E+03 -0.27194063320E+02 -0.14117918996E+03  0.28091410237E+03  0.10566000000E+00 0.  1.
          4    1    3    3  501    0 -0.34153696074E+03 -0.19942061677E+02  0.94744637008E+03  0.10073230890E+04  0.00000000000E+00 0.  1.
         13    1    1    2    0    0  0.10020391081E+03  0.47136124997E+02 -0.21118784786E+03  0.23845954849E+03  0.10566000000E+00 0. -1.
<mgrwt>
<rscale>  1 0.57890996E+03</rscale>
<asrwt>0</asrwt>
<pdfrwt beam="1">  1       21 0.16321354E+00 0.10047329E+04</pdfrwt>
<pdfrwt beam="2">  1        4 0.71662878E-01 0.10047329E+04</pdfrwt>
<totfact> 0.15016850E+01</totfact>
</mgrwt>
</event>
<event>
 6    1  0.1353269E-005  0.1003100E+04  0.7818608E-02  0.1010996E+00
          4   -1    0    0  502    0 -0.00000000000E+00  0.00000000000E+00  0.33741972666E+03  0.33741972666E+03  0.00000000000E+00 0.  1.
         21   -1    0    0  501  502  0.00000000000E+00 -0.00000000000E+00 -0.12155498644E+04  0.12155498644E+04  0.00000000000E+00 0.  1.
    9000010    2    1    2  501    0  0.61422728546E+02 -0.27875456922E+02 -0.99827168184E+03  0.14151878998E+04  0.10008299796E+04 0.  0.
        -13    1    3    3    0    0  0.45822759334E+03 -0.27112762315E+03 -0.60436206874E+03  0.80544164073E+03  0.10566000000E+00 0.  1.
          4    1    3    3  501    0 -0.39680486479E+03  0.24325216622E+03 -0.39390961310E+03  0.60974625902E+03  0.00000000000E+00 0.  1.
         13    1    1    2    0    0 -0.61422728546E+02  0.27875456922E+02  0.12014154409E+03  0.13778169132E+03  0.10566000000E+00 0. -1.
<mgrwt>
<rscale>  1 0.51080765E+03</rscale>
<asrwt>0</asrwt>
<pdfrwt beam="2">  1       21 0.18700767E+00 0.10031004E+04</pdfrwt>
<pdfrwt beam="1">  1        4 0.51910728E-01 0.10031004E+04</pdfrwt>
<totfact> 0.20289367E+01</totfact>
</mgrwt>
</event>
<event>
 6    1  0.1353269E-005  0.1098456E+04  0.7818608E-02  0.9429607E-01
         21   -1    0    0  501  502  0.00000000000E+00  0.00000000000E+00  0.13696792945E+04  0.13696792945E+04  0.00000000000E+00 0. -1.
          4   -1    0    0  502    0 -0.00000000000E+00 -0.00000000000E+00 -0.49808022935E+03  0.49808022935E+03  0.00000000000E+00 0.  1.
    9000010    2    1    2  501    0 -0.16942994889E+03  0.45762992682E+03  0.34857401811E+03  0.11524366118E+04  0.98411109159E+03 0.  0.
        -13    1    3    3    0    0  0.20379374528E+03 -0.21587687747E+03 -0.22415463072E+02  0.29771997076E+03  0.10566000000E+00 0.  1.
          4    1    3    3  501    0 -0.37322369417E+03  0.67350680429E+03  0.37098948118E+03  0.85471664103E+03  0.00000000000E+00 0.  1.
         13    1    1    2    0    0  0.16942994889E+03 -0.45762992682E+03  0.52302504701E+03  0.71532291202E+03  0.10566000000E+00 0. -1.
<mgrwt>
<rscale>  1 0.89678698E+03</rscale>
<asrwt>0</asrwt>
<pdfrwt beam="1">  1       21 0.21071989E+00 0.10984563E+04</pdfrwt>
<pdfrwt beam="2">  1        4 0.76627728E-01 0.10984563E+04</pdfrwt>
<totfact> 0.58345502E+00</totfact>
</mgrwt>
</event>
<event>
 6    1  0.1353269E-005  0.1020690E+04  0.7818608E-02  0.9770937E-01
          4   -1    0    0  502    0 -0.00000000000E+00  0.00000000000E+00  0.33190473647E+03  0.33190473647E+03  0.00000000000E+00 0.  1.
         21   -1    0    0  501  502  0.00000000000E+00 -0.00000000000E+00 -0.12874295672E+04  0.12874295672E+04  0.00000000000E+00 0.  1.
    9000010    2    1    2  501    0 -0.14177655934E+03 -0.12481780799E+03 -0.99603596281E+03  0.14261472416E+04  0.10030594386E+04 0.  0.
        -13    1    3    3    0    0 -0.44329172208E+03  0.21124237062E+03 -0.24240889143E+03  0.54762484587E+03  0.10566000000E+00 0.  1.
          4    1    3    3  501    0  0.30151516273E+03 -0.33606017861E+03 -0.75362707138E+03  0.87852239569E+03  0.00000000000E+00 0.  1.
         13    1    1    2    0    0  0.14177655934E+03  0.12481780799E+03  0.40511132106E+02  0.19318706209E+03  0.10566000000E+00 0. -1.
<mgrwt>
<rscale>  1 0.66945852E+03</rscale>
<asrwt>0</asrwt>
<pdfrwt beam="2">  1       21 0.19806609E+00 0.10206901E+04</pdfrwt>
<pdfrwt beam="1">  1        4 0.51062267E-01 0.10206901E+04</pdfrwt>
<totfact> 0.17539414E+01</totfact>
</mgrwt>
</event>
<event>
 6    1  0.1353269E-005  0.1271900E+04  0.7818608E-02  0.9201596E-01
         21   -1    0    0  501  502  0.00000000000E+00  0.00000000000E+00  0.99781141780E+03  0.99781141780E+03  0.00000000000E+00 0. -1.
          4   -1    0    0  502    0 -0.00000000000E+00 -0.00000000000E+00 -0.10081872740E+04  0.10081872740E+04  0.00000000000E+00 0.  1.
    9000010    2    1    2  501    0  0.57200087561E+03  0.43921132017E+03  0.10259104149E+03  0.12760308044E+04  0.10476822546E+04 0.  0.
        -13    1    3    3    0    0  0.39946084566E+03 -0.25494891328E+03  0.26442726305E+03  0.54266905588E+03  0.10566000000E+00 0.  1.
          4    1    3    3  501    0  0.17254002995E+03  0.69416023345E+03 -0.16183622156E+03  0.73336174856E+03  0.00000000000E+00 0.  1.
         13    1    1    2    0    0 -0.57200087561E+03 -0.43921132017E+03 -0.11296689770E+03  0.72996788738E+03  0.10566000000E+00 0. -1.
<mgrwt>
<rscale>  1 0.11036966E+04</rscale>
<asrwt>0</asrwt>
<pdfrwt beam="1">  1       21 0.15350945E+00 0.12719000E+04</pdfrwt>
<pdfrwt beam="2">  1        4 0.15510574E+00 0.12719000E+04</pdfrwt>
<totfact> 0.26006290E+00</totfact>
</mgrwt>
</event>
<event>
 6    1  0.1353269E-005  0.1008782E+04  0.7818608E-02  0.9872558E-01
          4   -1    0    0  502    0 -0.00000000000E+00  0.00000000000E+00  0.19904337481E+03  0.19904337481E+03  0.00000000000E+00 0.  1.
         21   -1    0    0  501  502  0.00000000000E+00 -0.00000000000E+00 -0.17992306486E+04  0.17992306486E+04  0.00000000000E+00 0.  1.
    9000010    2    1    2  501    0 -0.13271734894E+03  0.45650437798E+02 -0.15497189639E+04  0.18491267182E+04  0.99897091839E+03 0.  0.
        -13    1    3    3    0    0  0.43121314862E+03 -0.57781472665E+02 -0.64364932520E+03  0.77689635288E+03  0.10566000000E+00 0.  1.
          4    1    3    3  501    0 -0.56393049756E+03  0.10343191046E+03 -0.90606963870E+03  0.10722303653E+04  0.00000000000E+00 0.  1.
         13    1    1    2    0    0  0.13271734894E+03 -0.45650437798E+02 -0.50468309906E+02  0.14914730520E+03  0.10566000000E+00 0. -1.
<mgrwt>
<rscale>  1 0.61609876E+03</rscale>
<asrwt>0</asrwt>
<pdfrwt beam="2">  1       21 0.27680473E+00 0.10087818E+04</pdfrwt>
<pdfrwt beam="1">  1        4 0.30622056E-01 0.10087818E+04</pdfrwt>
<totfact> 0.15353210E+01</totfact>
</mgrwt>
</event>
<event>
 6    1  0.1353269E-005  0.1084375E+04  0.7818608E-02  0.9747495E-01
         21   -1    0    0  501  502  0.00000000000E+00  0.00000000000E+00  0.14608458192E+04  0.14608458192E+04  0.00000000000E+00 0. -1.
          4   -1    0    0  502    0 -0.00000000000E+00 -0.00000000000E+00 -0.36000594022E+03  0.36000594022E+03  0.00000000000E+00 0.  1.
    9000010    2    1    2  501    0 -0.78655665191E+02  0.15098606527E+03  0.49585231101E+03  0.11923666966E+04  0.10709273175E+04 0.  0.
        -13    1    3    3    0    0  0.27485478972E+03 -0.35903583335E+03  0.29595081062E+03  0.54040612370E+03  0.10566000000E+00 0.  1.
          4    1    3    3  501    0 -0.35351045491E+03  0.51002189862E+03  0.19990150038E+03  0.65196057293E+03  0.00000000000E+00 0.  1.
         13    1    1    2    0    0  0.78655665191E+02 -0.15098606527E+03  0.60498756793E+03  0.62848506274E+03  0.10566000000E+00 0. -1.
<mgrwt>
<rscale>  1 0.68257994E+03</rscale>
<asrwt>0</asrwt>
<pdfrwt beam="1">  1       21 0.22474551E+00 0.10843749E+04</pdfrwt>
<pdfrwt beam="2">  1        4 0.55385530E-01 0.10843749E+04</pdfrwt>
<totfact> 0.96733133E+00</totfact>
</mgrwt>
</event>
<event>
 6    1  0.1353269E-005  0.1019965E+04  0.7818608E-02  0.9779414E-01
          4   -1    0    0  502    0 -0.00000000000E+00  0.00000000000E+00  0.80824977688E+03  0.80824977688E+03  0.00000000000E+00 0.  1.
         21   -1    0    0  501  502  0.00000000000E+00 -0.00000000000E+00 -0.56652290342E+03  0.56652290342E+03  0.00000000000E+00 0.  1.
    9000010    2    1    2  501    0  0.13324834058E+02  0.18358747482E+03 -0.59564191007E+02  0.10217029580E+04  0.10032183857E+04 0.  0.
        -13    1    3    3    0    0  0.25411602392E+03 -0.33755803299E+03 -0.13296562277E+03  0.44294497091E+03  0.10566000000E+00 0.  1.
          4    1    3    3  501    0 -0.24079118986E+03  0.52114550781E+03  0.73401431765E+02  0.57875798708E+03  0.00000000000E+00 0.  1.
         13    1    1    2    0    0 -0.13324834058E+02 -0.18358747482E+03  0.30129106448E+03  0.35306972231E+03  0.10566000000E+00 0. -1.
<mgrwt>
<rscale>  1 0.66479084E+03</rscale>
<asrwt>0</asrwt>
<pdfrwt beam="2">  1       21 0.87157370E-01 0.10199652E+04</pdfrwt>
<pdfrwt beam="1">  1        4 0.12434612E+00 0.10199652E+04</pdfrwt>
<totfact> 0.20695090E+01</totfact>
</mgrwt>
</event>
<event>
 6    1  0.1353269E-005  0.1012184E+04  0.7818608E-02  0.9722982E-01
         21   -1    0    0  501  502  0.00000000000E+00  0.00000000000E+00  0.24629891470E+04  0.24629891470E+04  0.00000000000E+00 0.  1.
          4   -1    0    0  502    0 -0.00000000000E+00 -0.00000000000E+00 -0.22044861262E+03  0.22044861262E+03  0.00000000000E+00 0.  1.
    9000010    2    1    2  501    0 -0.16492062148E+03  0.15617120293E+03  0.22380141343E+04  0.24562621547E+04  0.98637125443E+03 0.  0.
        -13    1    3    3    0    0  0.33034857940E+03 -0.85832898061E+02  0.34775797693E+03  0.48727106623E+03  0.10566000000E+00 0.  1.
          4    1    3    3  501    0 -0.49526920088E+03  0.24200410099E+03  0.18902561573E+04  0.19689910885E+04  0.00000000000E+00 0.  1.
         13    1    1    2    0    0  0.16492062148E+03 -0.15617120293E+03  0.45264001428E+01  0.22717560493E+03  0.10566000000E+00 0. -1.
<mgrwt>
<rscale>  1 0.69664813E+03</rscale>
<asrwt>0</asrwt>
<pdfrwt beam="1">  1       21 0.37892139E+00 0.10121840E+04</pdfrwt>
<pdfrwt beam="2">  1        4 0.33915173E-01 0.10121840E+04</pdfrwt>
<totfact> 0.28617797E+00</totfact>
</mgrwt>
</event>
<event>
 6    1  0.1353269E-005  0.1004492E+04  0.7818608E-02  0.9910229E-01
          4   -1    0    0  502    0 -0.00000000000E+00  0.00000000000E+00  0.16498927881E+03  0.16498927881E+03  0.00000000000E+00 0.  1.
         21   -1    0    0  501  502  0.00000000000E+00 -0.00000000000E+00 -0.19362006146E+04  0.19362006146E+04  0.00000000000E+00 0.  1.
    9000010    2    1    2  501    0 -0.36127817381E+02 -0.12060862505E+03 -0.15761959590E+04  0.18690634883E+04  0.99657060077E+03 0.  0.
        -13    1    3    3    0    0  0.24582721619E+03  0.31550438232E+03 -0.32840202940E+03  0.51751515877E+03  0.10566000000E+00 0.  1.
          4    1    3    3  501    0 -0.28195503357E+03 -0.43611300737E+03 -0.12477939296E+04  0.13515483295E+04  0.00000000000E+00 0.  1.
         13    1    1    2    0    0  0.36127817381E+02  0.12060862505E+03 -0.19501537679E+03  0.23212640516E+03  0.10566000000E+00 0. -1.
<mgrwt>
<rscale>  1 0.59768081E+03</rscale>
<asrwt>0</asrwt>
<pdfrwt beam="2">  1       21 0.29787701E+00 0.10044922E+04</pdfrwt>
<pdfrwt beam="1">  1        4 0.25382966E-01 0.10044922E+04</pdfrwt>
<totfact> 0.16341543E+01</totfact>
</mgrwt>
</event>
<event>
 6    1  0.1353269E-005  0.1010491E+04  0.7818608E-02  0.1002133E+00
          4   -1    0    0  502    0 -0.00000000000E+00  0.00000000000E+00  0.27502808705E+04  0.27502808705E+04  0.00000000000E+00 0.  1.
         21   -1    0    0  501  502  0.00000000000E+00 -0.00000000000E+00 -0.11838349285E+03  0.11838349285E+03  0.00000000000E+00 0.  1.
    9000010    2    1    2  501    0 -0.93103649704E+01  0.86423841234E+02  0.21089107757E+04  0.23385032933E+04  0.10067458615E+04 0.  0.
        -13    1    3    3    0    0  0.91376704275E+01 -0.10447156993E+03 -0.85758159037E+02  0.13547058334E+03  0.10566000000E+00 0.  1.
          4    1    3    3  501    0 -0.18448035398E+02  0.19089541116E+03  0.21946689348E+04  0.22030327100E+04  0.00000000000E+00 0.  1.
         13    1    1    2    0    0  0.93103649704E+01 -0.86423841234E+02  0.52298660194E+03  0.53016107005E+03  0.10566000000E+00 0. -1.
<mgrwt>
<rscale>  1 0.54724822E+03</rscale>
<asrwt>0</asrwt>
<pdfrwt beam="2">  1       21 0.18212847E-01 0.10104915E+04</pdfrwt>
<pdfrwt beam="1">  1        4 0.42312009E+00 0.10104915E+04</pdfrwt>
<totfact> 0.55614501E+00</totfact>
</mgrwt>
</event>
<event>
 6    1  0.1353269E-005  0.1019589E+04  0.7818608E-02  0.9722612E-01
         21   -1    0    0  501  502  0.00000000000E+00  0.00000000000E+00  0.14035336009E+04  0.14035336009E+04  0.00000000000E+00 0.  1.
          4   -1    0    0  502    0 -0.00000000000E+00 -0.00000000000E+00 -0.27519200629E+03  0.27519200629E+03  0.00000000000E+00 0.  1.
    9000010    2    1    2  501    0  0.13517209485E+03 -0.17672319118E+03  0.90140766822E+03  0.13609181188E+04  0.99501746736E+03 0.  0.
        -13    1    3    3    0    0 -0.76654199755E+02  0.39842648924E+03  0.33062004784E+03  0.52338242315E+03  0.10566000000E+00 0.  1.
          4    1    3    3  501    0  0.21182629460E+03 -0.57514968042E+03  0.57078762039E+03  0.83753569569E+03  0.00000000000E+00 0.  1.
         13    1    1    2    0    0 -0.13517209485E+03  0.17672319118E+03  0.22693392636E+03  0.31780748830E+03  0.10566000000E+00 0. -1.
<mgrwt>
<rscale>  1 0.69686315E+03</rscale>
<asrwt>0</asrwt>
<pdfrwt beam="1">  1       21 0.21592824E+00 0.10195893E+04</pdfrwt>
<pdfrwt beam="2">  1        4 0.42337233E-01 0.10195893E+04</pdfrwt>
<totfact> 0.19626253E+01</totfact>
</mgrwt>
</event>
<event>
 6    1  0.1353269E-005  0.1007963E+04  0.7818608E-02  0.9899065E-01
         21   -1    0    0  501  502  0.00000000000E+00  0.00000000000E+00  0.14939304799E+04  0.14939304799E+04  0.00000000000E+00 0.  1.
          4   -1    0    0  502    0 -0.00000000000E+00 -0.00000000000E+00 -0.22135297734E+03  0.22135297734E+03  0.00000000000E+00 0.  1.
    9000010    2    1    2  501    0 -0.12509050510E+03 -0.32164833184E+02  0.11998896282E+04  0.15670749919E+04  0.99965328962E+03 0.  0.
        -13    1    3    3    0    0 -0.37550159372E+03  0.19325240935E+03  0.12471083313E+03  0.44034162155E+03  0.10566000000E+00 0.  1.
          4    1    3    3  501    0  0.25041108862E+03 -0.22541724254E+03  0.10751787950E+04  0.11267333703E+04  0.00000000000E+00 0.  1.
         13    1    1    2    0    0  0.12509050510E+03  0.32164833184E+02  0.72687874403E+02  0.14820846537E+03  0.10566000000E+00 0. -1.
<mgrwt>
<rscale>  1 0.60306636E+03</rscale>
<asrwt>0</asrwt>
<pdfrwt beam="1">  1       21 0.22983545E+00 0.10079628E+04</pdfrwt>
<pdfrwt beam="2">  1        4 0.34054305E-01 0.10079628E+04</pdfrwt>
<totfact> 0.24735572E+01</totfact>
</mgrwt>
</event>
<event>
 6    1  0.1353269E-005  0.1051646E+04  0.7818608E-02  0.9574014E-01
          4   -1    0    0  502    0 -0.00000000000E+00  0.00000000000E+00  0.85837666692E+03  0.85837666692E+03  0.00000000000E+00 0.  1.
         21   -1    0    0  501  502  0.00000000000E+00 -0.00000000000E+00 -0.56145825023E+03  0.56145825023E+03  0.00000000000E+00 0.  1.
    9000010    2    1    2  501    0  0.22643358225E+03 -0.24766059132E+03  0.19941645143E+03  0.10703859508E+04  0.99667006926E+03 0.  0.
        -13    1    3    3    0    0  0.28659972138E+03  0.13161077041E+03  0.49421358815E+03  0.58626604631E+03  0.10566000000E+00 0.  1.
          4    1    3    3  501    0 -0.60166139125E+02 -0.37927136173E+03 -0.29479713673E+03  0.48411990452E+03  0.00000000000E+00 0.  1.
         13    1    1    2    0    0 -0.22643358225E+03  0.24766059132E+03  0.97501965267E+02  0.34944896632E+03  0.10566000000E+00 0. -1.
<mgrwt>
<rscale>  1 0.79040247E+03</rscale>
<asrwt>0</asrwt>
<pdfrwt beam="2">  1       21 0.86378192E-01 0.10516459E+04</pdfrwt>
<pdfrwt beam="1">  1        4 0.13205795E+00 0.10516459E+04</pdfrwt>
<totfact> 0.18069882E+01</totfact>
</mgrwt>
</event>
<event>
 6    1  0.1353269E-005  0.1090209E+04  0.7818608E-02  0.9473975E-01
         21   -1    0    0  501  502  0.00000000000E+00  0.00000000000E+00  0.42917497255E+03  0.42917497255E+03  0.00000000000E+00 0.  1.
          4   -1    0    0  502    0 -0.00000000000E+00 -0.00000000000E+00 -0.13408066697E+04  0.13408066697E+04  0.00000000000E+00 0.  1.
    9000010    2    1    2  501    0  0.36954502118E+03  0.21329189206E+03 -0.64024820610E+03  0.12643078697E+04  0.10032445714E+04 0.  0.
        -13    1    3    3    0    0 -0.39760864289E+02 -0.34904252198E+03 -0.55539830778E+02  0.35566317274E+03  0.10566000000E+00 0.  1.
          4    1    3    3  501    0  0.40930588547E+03  0.56233441404E+03 -0.58470837532E+03  0.90864469693E+03  0.00000000000E+00 0.  1.
         13    1    1    2    0    0 -0.36954502118E+03 -0.21329189206E+03 -0.27138349111E+03  0.50567377261E+03  0.10566000000E+00 0. -1.
<mgrwt>
<rscale>  1 0.86229996E+03</rscale>
<asrwt>0</asrwt>
<pdfrwt beam="1">  1       21 0.66026921E-01 0.10902094E+04</pdfrwt>
<pdfrwt beam="2">  1        4 0.20627794E+00 0.10902094E+04</pdfrwt>
<totfact> 0.96219081E+00</totfact>
</mgrwt>
</event>
<event>
 6    1  0.1353269E-005  0.1051815E+04  0.7818608E-02  0.9627894E-01
          4   -1    0    0  502    0 -0.00000000000E+00  0.00000000000E+00  0.72702960693E+03  0.72702960693E+03  0.00000000000E+00 0.  1.
         21   -1    0    0  501  502  0.00000000000E+00 -0.00000000000E+00 -0.80929487888E+03  0.80929487888E+03  0.00000000000E+00 0.  1.
    9000010    2    1    2  501    0  0.18239844467E+02  0.27830014939E+03 -0.38928404866E+03  0.11215423677E+04  0.10141654436E+04 0.  0.
        -13    1    3    3    0    0  0.12083643358E+03 -0.25306539932E+03  0.18224178234E+03  0.33444822979E+03  0.10566000000E+00 0.  1.
          4    1    3    3  501    0 -0.10259658912E+03  0.53136554871E+03 -0.57152583100E+03  0.78709413793E+03  0.00000000000E+00 0.  1.
         13    1    1    2    0    0 -0.18239844467E+02 -0.27830014939E+03  0.30701877670E+03  0.41478211809E+03  0.10566000000E+00 0. -1.
<mgrwt>
<rscale>  1 0.75477175E+03</rscale>
<asrwt>0</asrwt>
<pdfrwt beam="2">  1       21 0.12450691E+00 0.10518152E+04</pdfrwt>
<pdfrwt beam="1">  1        4 0.11185071E+00 0.10518152E+04</pdfrwt>
<totfact> 0.11001543E+01</totfact>
</mgrwt>
</event>
<event>
 6    1  0.1353269E-005  0.1011056E+04  0.7818608E-02  0.9906708E-01
         21   -1    0    0  501  502  0.00000000000E+00  0.00000000000E+00  0.12798984337E+04  0.12798984337E+04  0.00000000000E+00 0.  1.
          4   -1    0    0  502    0 -0.00000000000E+00 -0.00000000000E+00 -0.30826660540E+03  0.30826660540E+03  0.00000000000E+00 0.  1.
    9000010    2    1    2  501    0 -0.51850419826E+02 -0.11359729820E+03  0.10360723440E+04  0.14476467007E+04  0.10033156312E+04 0.  0.
        -13    1    3    3    0    0  0.70039910902E+02 -0.54948935093E+03  0.63764804308E+03  0.84465328621E+03  0.10566000000E+00 0.  1.
          4    1    3    3  501    0 -0.12189033073E+03  0.43589205273E+03  0.39842430093E+03  0.60299341450E+03  0.00000000000E+00 0.  1.
         13    1    1    2    0    0  0.51850419826E+02  0.11359729820E+03 -0.64440515712E+02  0.14051833839E+03  0.10566000000E+00 0. -1.
<mgrwt>
<rscale>  1 0.59937295E+03</rscale>
<asrwt>0</asrwt>
<pdfrwt beam="1">  1       21 0.19690745E+00 0.10110564E+04</pdfrwt>
<pdfrwt beam="2">  1        4 0.47425632E-01 0.10110564E+04</pdfrwt>
<totfact> 0.20899661E+01</totfact>
</mgrwt>
</event>
<event>
 6    1  0.1353269E-005  0.1064583E+04  0.7818608E-02  0.9648298E-01
          4   -1    0    0  502    0 -0.00000000000E+00  0.00000000000E+00  0.11073696635E+04  0.11073696635E+04  0.00000000000E+00 0.  1.
         21   -1    0    0  501  502  0.00000000000E+00 -0.00000000000E+00 -0.51006660991E+03  0.51006660991E+03  0.00000000000E+00 0.  1.
    9000010    2    1    2  501    0 -0.21712848556E+03  0.12585578470E+03  0.11120502998E+03  0.10703752553E+04  0.10345782574E+04 0.  0.
        -13    1    3    3    0    0 -0.30028790147E+03  0.20414068123E+03 -0.40368990059E+03  0.54296573419E+03  0.10566000000E+00 0.  1.
          4    1    3    3  501    0  0.83159415910E+02 -0.78284896530E+02  0.51489493057E+03  0.52740952116E+03  0.00000000000E+00 0.  1.
         13    1    1    2    0    0  0.21712848556E+03 -0.12585578470E+03  0.48609802363E+03  0.54706101810E+03  0.10566000000E+00 0. -1.
<mgrwt>
<rscale>  1 0.74180333E+03</rscale>
<asrwt>0</asrwt>
<pdfrwt beam="2">  1       21 0.78471786E-01 0.10645828E+04</pdfrwt>
<pdfrwt beam="1">  1        4 0.17036456E+00 0.10645828E+04</pdfrwt>
<totfact> 0.11404720E+01</totfact>
</mgrwt>
</event>
<event>
 6    1  0.1353269E-005  0.9998874E+03  0.7818608E-02  0.9869993E-01
          4   -1    0    0  502    0 -0.00000000000E+00  0.00000000000E+00  0.10432216286E+04  0.10432216286E+04  0.00000000000E+00 0.  1.
         21   -1    0    0  501  502  0.00000000000E+00 -0.00000000000E+00 -0.31481348750E+03  0.31481348750E+03  0.00000000000E+00 0.  1.
    9000010    2    1    2  501    0  0.71539067989E+02  0.12650172741E+03  0.65387512536E+03  0.11947081224E+04  0.98926957540E+03 0.  0.
        -13    1    3    3    0    0  0.16351400563E+03 -0.35689698347E+03  0.57518727809E+03  0.69638545568E+03  0.10566000000E+00 0.  1.
          4    1    3    3  501    0 -0.91974937639E+02  0.48339871088E+03  0.78687847267E+02  0.49832266669E+03  0.00000000000E+00 0.  1.
         13    1    1    2    0    0 -0.71539067989E+02 -0.12650172741E+03  0.74533015796E+02  0.16332699377E+03  0.10566000000E+00 0. -1.
<mgrwt>
<rscale>  1 0.61737849E+03</rscale>
<asrwt>0</asrwt>
<pdfrwt beam="2">  1       21 0.48432845E-01 0.99988740E+03</pdfrwt>
<pdfrwt beam="1">  1        4 0.16049563E+00 0.99988740E+03</pdfrwt>
<totfact> 0.40008802E+01</totfact>
</mgrwt>
</event>
<event>
 6    1  0.1353269E-005  0.1052947E+04  0.7818608E-02  0.9534177E-01
         21   -1    0    0  501  502  0.00000000000E+00  0.00000000000E+00  0.70535589203E+03  0.70535589203E+03  0.00000000000E+00 0.  1.
          4   -1    0    0  502    0 -0.00000000000E+00 -0.00000000000E+00 -0.78067680974E+03  0.78067680974E+03  0.00000000000E+00 0.  1.
    9000010    2    1    2  501    0  0.37182083401E+02  0.38191232836E+03  0.11226868492E+03  0.10589151488E+04  0.98053939280E+03 0.  0.
        -13    1    3    3    0    0 -0.29435041144E+03  0.44425410461E+03  0.35761458449E+03  0.64178818654E+03  0.10566000000E+00 0.  1.
          4    1    3    3  501    0  0.33153249484E+03 -0.62341776251E+02 -0.24534589956E+03  0.41712696225E+03  0.00000000000E+00 0.  1.
         13    1    1    2    0    0 -0.37182083401E+02 -0.38191232836E+03 -0.18758960264E+03  0.42711755298E+03  0.10566000000E+00 0. -1.
<mgrwt>
<rscale>  1 0.81810282E+03</rscale>
<asrwt>0</asrwt>
<pdfrwt beam="1">  1       21 0.10851629E+00 0.10529468E+04</pdfrwt>
<pdfrwt beam="2">  1        4 0.12010412E+00 0.10529468E+04</pdfrwt>
<totfact> 0.13125055E+01</totfact>
</mgrwt>
</event>
<event>
 6    1  0.1353269E-005  0.1033608E+04  0.7818608E-02  0.9725700E-01
          4   -1    0    0  502    0 -0.00000000000E+00  0.00000000000E+00  0.16367383432E+04  0.16367383432E+04  0.00000000000E+00 0.  1.
         21   -1    0    0  501  502  0.00000000000E+00 -0.00000000000E+00 -0.29590004867E+03  0.29590004867E+03  0.00000000000E+00 0.  1.
    9000010    2    1    2  501    0  0.84322816213E+02 -0.19382367010E+03  0.67607638492E+03  0.12350809677E+04  0.10117646792E+04 0.  0.
        -13    1    3    3    0    0  0.43011125448E+03  0.29953113535E+02  0.70041651663E+03  0.82248172513E+03  0.10566000000E+00 0.  1.
          4    1    3    3  501    0 -0.34578843826E+03 -0.22377678363E+03 -0.24340131710E+02  0.41259924254E+03  0.00000000000E+00 0.  1.
         13    1    1    2    0    0 -0.84322816213E+02  0.19382367010E+03  0.66476190962E+03  0.69755742421E+03  0.10566000000E+00 0. -1.
<mgrwt>
<rscale>  1 0.69507009E+03</rscale>
<asrwt>0</asrwt>
<pdfrwt beam="2">  1       21 0.45523085E-01 0.10336081E+04</pdfrwt>
<pdfrwt beam="1">  1        4 0.25180589E+00 0.10336081E+04</pdfrwt>
<totfact> 0.11293064E+01</totfact>
</mgrwt>
</event>
<event>
 6    1  0.1353269E-005  0.1040382E+04  0.7818608E-02  0.9662421E-01
         21   -1    0    0  501  502  0.00000000000E+00  0.00000000000E+00  0.15820109475E+04  0.15820109475E+04  0.00000000000E+00 0.  1.
          4   -1    0    0  502    0 -0.00000000000E+00 -0.00000000000E+00 -0.34541627289E+03  0.34541627289E+03  0.00000000000E+00 0.  1.
    9000010    2    1    2  501    0  0.29526630559E+02  0.25463183395E+03  0.12983424011E+04  0.16637569990E+04  0.10083080722E+04 0.  0.
        -13    1    3    3    0    0 -0.31636333795E+03 -0.22713928834E+03  0.79740851344E+03  0.88743358421E+03  0.10566000000E+00 0.  1.
          4    1    3    3  501    0  0.34588996851E+03  0.48177112229E+03  0.50093388762E+03  0.77632341479E+03  0.00000000000E+00 0.  1.
         13    1    1    2    0    0 -0.29526630559E+02 -0.25463183395E+03 -0.61747726437E+02  0.26367022141E+03  0.10566000000E+00 0. -1.
<mgrwt>
<rscale>  1 0.73298966E+03</rscale>
<asrwt>0</asrwt>
<pdfrwt beam="1">  1       21 0.24338630E+00 0.10403818E+04</pdfrwt>
<pdfrwt beam="2">  1        4 0.53140966E-01 0.10403818E+04</pdfrwt>
<totfact> 0.80495525E+00</totfact>
</mgrwt>
</event>
<event>
 6    1  0.1353269E-005  0.1018981E+04  0.7818608E-02  0.1007916E+00
          4   -1    0    0  502    0 -0.00000000000E+00  0.00000000000E+00  0.11358113501E+03  0.11358113501E+03  0.00000000000E+00 0.  1.
         21   -1    0    0  501  502  0.00000000000E+00 -0.00000000000E+00 -0.26835559338E+04  0.26835559338E+04  0.00000000000E+00 0.  1.
    9000010    2    1    2  501    0  0.67381973823E+02  0.21651267512E+02 -0.24894923249E+04  0.26899617566E+04  0.10165200974E+04 0.  0.
        -13    1    3    3    0    0  0.15898389595E+03 -0.22981162949E+03 -0.11786912523E+03  0.30328601364E+03  0.10566000000E+00 0.  1.
          4    1    3    3  501    0 -0.91601922127E+02  0.25146289700E+03 -0.23716231997E+04  0.23866757430E+04  0.00000000000E+00 0.  1.
         13    1    1    2    0    0 -0.67381973823E+02 -0.21651267512E+02 -0.80482473845E+02  0.10717531218E+03  0.10566000000E+00 0. -1.
<mgrwt>
<rscale>  1 0.52311205E+03</rscale>
<asrwt>0</asrwt>
<pdfrwt beam="2">  1       21 0.41285475E+00 0.10189810E+04</pdfrwt>
<pdfrwt beam="1">  1        4 0.17474021E-01 0.10189810E+04</pdfrwt>
<totfact> 0.60796165E+00</totfact>
</mgrwt>
</event>
<event>
 6    1  0.1353269E-005  0.1004457E+04  0.7818608E-02  0.1013969E+00
          4   -1    0    0  502    0 -0.00000000000E+00  0.00000000000E+00  0.16559087599E+03  0.16559087599E+03  0.00000000000E+00 0.  1.
         21   -1    0    0  501  502  0.00000000000E+00 -0.00000000000E+00 -0.17396199705E+04  0.17396199705E+04  0.00000000000E+00 0.  1.
    9000010    2    1    2  501    0  0.57970066120E+02  0.19969342682E+02 -0.15278269171E+04  0.18284387450E+04  0.10025835886E+04 0.  0.
        -13    1    3    3    0    0  0.44618465072E+03  0.16778091680E+03 -0.12246911261E+04  0.13141915933E+04  0.10566000000E+00 0.  1.
          4    1    3    3  501    0 -0.38821458460E+03 -0.14781157411E+03 -0.30313579109E+03  0.51424715165E+03  0.00000000000E+00 0.  1.
         13    1    1    2    0    0 -0.57970066120E+02 -0.19969342682E+02 -0.46202177357E+02  0.76772101507E+02  0.10566000000E+00 0. -1.
<mgrwt>
<rscale>  1 0.49927173E+03</rscale>
<asrwt>0</asrwt>
<pdfrwt beam="2">  1       21 0.26763384E+00 0.10044566E+04</pdfrwt>
<pdfrwt beam="1">  1        4 0.25475519E-01 0.10044566E+04</pdfrwt>
<totfact> 0.25054019E+01</totfact>
</mgrwt>
</event>
<event>
 6    1  0.1353269E-005  0.1005628E+04  0.7818608E-02  0.9993271E-01
          4   -1    0    0  502    0 -0.00000000000E+00  0.00000000000E+00  0.73006905983E+03  0.73006905983E+03  0.00000000000E+00 0.  1.
         21   -1    0    0  501  502  0.00000000000E+00 -0.00000000000E+00 -0.42790254084E+03  0.42790254084E+03  0.00000000000E+00 0.  1.
    9000010    2    1    2  501    0 -0.88593880667E+02  0.37828903638E+02  0.21564715460E+03  0.10284898907E+04  0.10010034257E+04 0.  0.
        -13    1    3    3    0    0  0.35888977247E+03  0.53508027758E+02 -0.20276244176E+03  0.41566524604E+03  0.10566000000E+00 0.  1.
          4    1    3    3  501    0 -0.44748365313E+03 -0.15679124120E+02  0.41840959637E+03  0.61282464465E+03  0.00000000000E+00 0.  1.
         13    1    1    2    0    0  0.88593880667E+02 -0.37828903638E+02  0.86519364389E+02  0.12948170998E+03  0.10566000000E+00 0. -1.
<mgrwt>
<rscale>  1 0.55946255E+03</rscale>
<asrwt>0</asrwt>
<pdfrwt beam="2">  1       21 0.65831160E-01 0.10056280E+04</pdfrwt>
<pdfrwt beam="1">  1        4 0.11231832E+00 0.10056280E+04</pdfrwt>
<totfact> 0.51393235E+01</totfact>
</mgrwt>
</event>
<event>
 6    1  0.1353269E-005  0.1005524E+04  0.7818608E-02  0.9993565E-01
          4   -1    0    0  502    0 -0.00000000000E+00  0.00000000000E+00  0.49761443344E+03  0.49761443344E+03  0.00000000000E+00 0.  1.
         21   -1    0    0  501  502  0.00000000000E+00 -0.00000000000E+00 -0.10637849123E+04  0.10637849123E+04  0.00000000000E+00 0.  1.
    9000010    2    1    2  501    0  0.90554389341E+02  0.32686060644E+02 -0.81516626112E+03  0.12944398230E+04  0.10009045640E+04 0.  0.
        -13    1    3    3    0    0  0.16988287987E+03 -0.43358419591E+01  0.20740170902E+03  0.26813144625E+03  0.10566000000E+00 0.  1.
          4    1    3    3  501    0 -0.79328490530E+02  0.37021902603E+02 -0.10225679701E+04  0.10263083768E+04  0.00000000000E+00 0.  1.
         13    1    1    2    0    0 -0.90554389341E+02 -0.32686060644E+02  0.24899578229E+03  0.26695952269E+03  0.10566000000E+00 0. -1.
<mgrwt>
<rscale>  1 0.55933297E+03</rscale>
<asrwt>0</asrwt>
<pdfrwt beam="2">  1       21 0.16365922E+00 0.10055240E+04</pdfrwt>
<pdfrwt beam="1">  1        4 0.76556067E-01 0.10055240E+04</pdfrwt>
<totfact> 0.12828828E+01</totfact>
</mgrwt>
</event>
<event>
 6    1  0.1353269E-005  0.1023884E+04  0.7818608E-02  0.9687465E-01
          4   -1    0    0  502    0 -0.00000000000E+00  0.00000000000E+00  0.27495758397E+03  0.27495758397E+03  0.00000000000E+00 0.  1.
         21   -1    0    0  501  502  0.00000000000E+00 -0.00000000000E+00 -0.15751542776E+04  0.15751542776E+04  0.00000000000E+00 0.  1.
    9000010    2    1    2  501    0 -0.13789570437E+02 -0.24677185895E+03 -0.12145339484E+04  0.15885308613E+04  0.99360509396E+03 0.  0.
        -13    1    3    3    0    0  0.68227527654E+02 -0.38895381199E+03 -0.13302989097E+04  0.13876726068E+04  0.10566000000E+00 0.  1.
          4    1    3    3  501    0 -0.82017098091E+02  0.14218195304E+03  0.11576496124E+03  0.20085825450E+03  0.00000000000E+00 0.  1.
         13    1    1    2    0    0  0.13789570437E+02  0.24677185895E+03 -0.85662745168E+02  0.26158100026E+03  0.10566000000E+00 0. -1.
<mgrwt>
<rscale>  1 0.71768043E+03</rscale>
<asrwt>0</asrwt>
<pdfrwt beam="2">  1       21 0.24233142E+00 0.10238836E+04</pdfrwt>
<pdfrwt beam="1">  1        4 0.42301168E-01 0.10238836E+04</pdfrwt>
<totfact> 0.13215842E+01</totfact>
</mgrwt>
</event>
<event>
 6    1  0.1353269E-005  0.9683538E+03  0.7818608E-02  0.9955277E-01
          4   -1    0    0  502    0 -0.00000000000E+00  0.00000000000E+00  0.21466847326E+04  0.21466847326E+04  0.00000000000E+00 0.  1.
         21   -1    0    0  501  502  0.00000000000E+00 -0.00000000000E+00 -0.14811747371E+03  0.14811747371E+03  0.00000000000E+00 0.  1.
    9000010    2    1    2  501    0 -0.11608027088E+03 -0.36527228277E+02  0.15300204745E+04  0.18107103059E+04  0.96067699664E+03 0.  0.
        -13    1    3    3    0    0 -0.88164989270E+02 -0.10342926615E+03 -0.10645097823E+03  0.17263400696E+03  0.10566000000E+00 0.  1.
          4    1    3    3  501    0 -0.27915281612E+02  0.66902037870E+02  0.16364714527E+04  0.16380762990E+04  0.00000000000E+00 0.  1.
         13    1    1    2    0    0  0.11608027088E+03  0.36527228277E+02  0.46854678442E+03  0.48409190042E+03  0.10566000000E+00 0. -1.
<mgrwt>
<rscale>  1 0.57655512E+03</rscale>
<asrwt>0</asrwt>
<pdfrwt beam="2">  1       21 0.22787305E-01 0.96835384E+03</pdfrwt>
<pdfrwt beam="1">  1        4 0.33025917E+00 0.96835384E+03</pdfrwt>
<totfact> 0.15224640E+01</totfact>
</mgrwt>
</event>
<event>
 6    1  0.1353269E-005  0.1018890E+04  0.7818608E-02  0.9880256E-01
         21   -1    0    0  501  502  0.00000000000E+00  0.00000000000E+00  0.74710187365E+03  0.74710187365E+03  0.00000000000E+00 0.  1.
          4   -1    0    0  502    0 -0.00000000000E+00 -0.00000000000E+00 -0.49427163632E+03  0.49427163632E+03  0.00000000000E+00 0.  1.
    9000010    2    1    2  501    0  0.13259834755E+03 -0.84180879949E+01  0.34938614450E+03  0.10771290569E+04  0.10101896561E+04 0.  0.
        -13    1    3    3    0    0 -0.16492776288E+03  0.12310408754E+03  0.62045220078E+03  0.65369467487E+03  0.10566000000E+00 0.  1.
          4    1    3    3  501    0  0.29752611044E+03 -0.13152217553E+03 -0.27106605628E+03  0.42343438207E+03  0.00000000000E+00 0.  1.
         13    1    1    2    0    0 -0.13259834755E+03  0.84180879949E+01 -0.96555907164E+02  0.16424445303E+03  0.10566000000E+00 0. -1.
<mgrwt>
<rscale>  1 0.61227752E+03</rscale>
<asrwt>0</asrwt>
<pdfrwt beam="1">  1       21 0.11493875E+00 0.10188898E+04</pdfrwt>
<pdfrwt beam="2">  1        4 0.76041790E-01 0.10188898E+04</pdfrwt>
<totfact> 0.33909249E+01</totfact>
</mgrwt>
</event>
<event>
 6    1  0.1353269E-005  0.1039787E+04  0.7818608E-02  0.9573114E-01
          4   -1    0    0  502    0 -0.00000000000E+00  0.00000000000E+00  0.23162273287E+04  0.23162273287E+04  0.00000000000E+00 0.  1.
         21   -1    0    0  501  502  0.00000000000E+00 -0.00000000000E+00 -0.22775450846E+03  0.22775450846E+03  0.00000000000E+00 0.  1.
    9000010    2    1    2  501    0  0.21241455556E+03  0.27598301342E+03  0.11894256769E+04  0.15798385158E+04  0.97972941564E+03 0.  0.
        -13    1    3    3    0    0  0.22142834963E+03  0.59414118392E+03  0.10622264476E+04  0.12370769166E+04  0.10566000000E+00 0.  1.
          4    1    3    3  501    0 -0.90137940742E+01 -0.31815817049E+03  0.12719922936E+03  0.34276159920E+03  0.00000000000E+00 0.  1.
         13    1    1    2    0    0 -0.21241455556E+03 -0.27598301342E+03  0.89904714327E+03  0.96414332134E+03  0.10566000000E+00 0. -1.
<mgrwt>
<rscale>  1 0.79101510E+03</rscale>
<asrwt>0</asrwt>
<pdfrwt beam="2">  1       21 0.35039157E-01 0.10397867E+04</pdfrwt>
<pdfrwt beam="1">  1        4 0.35634265E+00 0.10397867E+04</pdfrwt>
<totfact> 0.43253762E+00</totfact>
</mgrwt>
</event>
<event>
 6    1  0.1353269E-005  0.1006171E+04  0.7818608E-02  0.9680278E-01
         21   -1    0    0  501  502  0.00000000000E+00  0.00000000000E+00  0.27805096842E+03  0.27805096842E+03  0.00000000000E+00 0.  1.
          4   -1    0    0  502    0 -0.00000000000E+00 -0.00000000000E+00 -0.17230628832E+04  0.17230628832E+04  0.00000000000E+00 0.  1.
    9000010    2    1    2  501    0 -0.21624483943E+03  0.15629753806E+03 -0.74495351517E+03  0.12519326152E+04  0.97014884540E+03 0.  0.
        -13    1    3    3    0    0  0.10382687898E+03  0.52138189456E+02 -0.88118806116E+03  0.88881427863E+03  0.10566000000E+00 0.  1.
          4    1    3    3  501    0 -0.32007171841E+03  0.10415934861E+03  0.13623454599E+03  0.36311833656E+03  0.00000000000E+00 0.  1.
         13    1    1    2    0    0  0.21624483943E+03 -0.15629753806E+03 -0.70005839965E+03  0.74918123646E+03  0.10566000000E+00 0. -1.
<mgrwt>
<rscale>  1 0.72203245E+03</rscale>
<asrwt>0</asrwt>
<pdfrwt beam="1">  1       21 0.42777071E-01 0.10061707E+04</pdfrwt>
<pdfrwt beam="2">  1        4 0.26508660E+00 0.10061707E+04</pdfrwt>
<totfact> 0.10707340E+01</totfact>
</mgrwt>
</event>
<event>
 6    1  0.1353269E-005  0.9862847E+03  0.7818608E-02  0.9899753E-01
         21   -1    0    0  501  502  0.00000000000E+00  0.00000000000E+00  0.13372267046E+04  0.13372267046E+04  0.00000000000E+00 0.  1.
          4   -1    0    0  502    0 -0.00000000000E+00 -0.00000000000E+00 -0.35639076502E+03  0.35639076502E+03  0.00000000000E+00 0.  1.
    9000010    2    1    2  501    0  0.27310172528E+02  0.13482146110E+03  0.11238000216E+04  0.14952203633E+04  0.97664465099E+03 0.  0.
        -13    1    3    3    0    0 -0.43632034453E+03  0.25718608629E+03  0.55882637151E+03  0.75419297974E+03  0.10566000000E+00 0.  1.
          4    1    3    3  501    0  0.46363051706E+03 -0.12236462519E+03  0.56497365006E+03  0.74102738351E+03  0.00000000000E+00 0.  1.
         13    1    1    2    0    0 -0.27310172528E+02 -0.13482146110E+03 -0.14296408202E+03  0.19839710635E+03  0.10566000000E+00 0. -1.
<mgrwt>
<rscale>  1 0.60273242E+03</rscale>
<asrwt>0</asrwt>
<pdfrwt beam="1">  1       21 0.20572718E+00 0.98628467E+03</pdfrwt>
<pdfrwt beam="2">  1        4 0.54829349E-01 0.98628467E+03</pdfrwt>
<totfact> 0.13415272E+01</totfact>
</mgrwt>
</event>
<event>
 6    1  0.1353269E-005  0.1030882E+04  0.7818608E-02  0.9642971E-01
         21   -1    0    0  501  502  0.00000000000E+00  0.00000000000E+00  0.46142800554E+03  0.46142800554E+03  0.00000000000E+00 0.  1.
          4   -1    0    0  502    0 -0.00000000000E+00 -0.00000000000E+00 -0.93707894199E+03  0.93707894199E+03  0.00000000000E+00 0.  1.
    9000010    2    1    2  501    0 -0.27752440441E+03  0.46745520747E+02 -0.41066100105E+03  0.11096667813E+04  0.99172222372E+03 0.  0.
        -13    1    3    3    0    0  0.10577230531E+03 -0.33894031411E+03 -0.43967326533E+03  0.56513795529E+03  0.10566000000E+00 0.  1.
          4    1    3    3  501    0 -0.38329670971E+03  0.38568583486E+03  0.29012264282E+02  0.54452882602E+03  0.00000000000E+00 0.  1.
         13    1    1    2    0    0  0.27752440441E+03 -0.46745520747E+02 -0.64989935401E+02  0.28884016621E+03  0.10566000000E+00 0. -1.
<mgrwt>
<rscale>  1 0.74516225E+03</rscale>
<asrwt>0</asrwt>
<pdfrwt beam="1">  1       21 0.70988925E-01 0.10308821E+04</pdfrwt>
<pdfrwt beam="2">  1        4 0.14416599E+00 0.10308821E+04</pdfrwt>
<totfact> 0.22798370E+01</totfact>
</mgrwt>
</event>
<event>
 6    1  0.1353269E-005  0.1013875E+04  0.7818608E-02  0.9869076E-01
         21   -1    0    0  501  502  0.00000000000E+00  0.00000000000E+00  0.34429484127E+03  0.34429484127E+03  0.00000000000E+00 0.  1.
          4   -1    0    0  502    0 -0.00000000000E+00 -0.00000000000E+00 -0.10808694376E+04  0.10808694376E+04  0.00000000000E+00 0.  1.
    9000010    2    1    2  501    0  0.49637642554E+02  0.13070289226E+03 -0.45603237014E+03  0.11117139743E+04  0.10041888749E+04 0.  0.
        -13    1    3    3    0    0  0.35276779739E+03 -0.27048940758E+03 -0.41344229243E+03  0.60707839595E+03  0.10566000000E+00 0.  1.
          4    1    3    3  501    0 -0.30313015483E+03  0.40119229984E+03 -0.42590077709E+02  0.50463557835E+03  0.00000000000E+00 0.  1.
         13    1    1    2    0    0 -0.49637642554E+02 -0.13070289226E+03 -0.28054222623E+03  0.31345030462E+03  0.10566000000E+00 0. -1.
<mgrwt>
<rscale>  1 0.61783675E+03</rscale>
<asrwt>0</asrwt>
<pdfrwt beam="1">  1       21 0.52968437E-01 0.10138750E+04</pdfrwt>
<pdfrwt beam="2">  1        4 0.16628761E+00 0.10138750E+04</pdfrwt>
<totfact> 0.29829416E+01</totfact>
</mgrwt>
</event>
<event>
 6    1  0.1353269E-005  0.1127415E+04  0.7818608E-02  0.9392737E-01
          4   -1    0    0  502    0 -0.00000000000E+00  0.00000000000E+00  0.66137338256E+03  0.66137338256E+03  0.00000000000E+00 0.  1.
         21   -1    0    0  501  502  0.00000000000E+00 -0.00000000000E+00 -0.10258800711E+04  0.10258800711E+04  0.00000000000E+00 0.  1.
    9000010    2    1    2  501    0  0.50779213925E+03 -0.84485138027E+02 -0.18750559586E+03  0.11429006331E+04  0.10030318607E+04 0.  0.
        -13    1    3    3    0    0  0.33812379602E+02  0.20050342466E+03  0.32860770347E+03  0.38642972745E+03  0.10566000000E+00 0.  1.
          4    1    3    3  501    0  0.47397975965E+03 -0.28498856269E+03 -0.51611329932E+03  0.75647090569E+03  0.00000000000E+00 0.  1.
         13    1    1    2    0    0 -0.50779213925E+03  0.84485138027E+02 -0.17700109269E+03  0.54435282052E+03  0.10566000000E+00 0. -1.
<mgrwt>
<rscale>  1 0.92675851E+03</rscale>
<asrwt>0</asrwt>
<pdfrwt beam="2">  1       21 0.15782770E+00 0.11274145E+04</pdfrwt>
<pdfrwt beam="1">  1        4 0.10174975E+00 0.11274145E+04</pdfrwt>
<totfact> 0.71982434E+00</totfact>
</mgrwt>
</event>
<event>
 6    1  0.1353269E-005  0.1114958E+04  0.7818608E-02  0.9405629E-01
          4   -1    0    0  502    0 -0.00000000000E+00  0.00000000000E+00  0.15275215312E+04  0.15275215312E+04  0.00000000000E+00 0.  1.
         21   -1    0    0  501  502  0.00000000000E+00 -0.00000000000E+00 -0.44206132626E+03  0.44206132626E+03  0.00000000000E+00 0. -1.
    9000010    2    1    2  501    0 -0.42475229379E+03 -0.27909631189E+03  0.59727150660E+03  0.12648577488E+04  0.99238229013E+03 0.  0.
        -13    1    3    3    0    0  0.13046915348E+03  0.28540322200E+03  0.97814405655E+02  0.32870179229E+03  0.10566000000E+00 0.  1.
          4    1    3    3  501    0 -0.55522144727E+03 -0.56449953389E+03  0.49945710094E+03  0.93615595653E+03  0.00000000000E+00 0.  1.
         13    1    1    2    0    0  0.42475229379E+03  0.27909631189E+03  0.48818869835E+03  0.70472510864E+03  0.10566000000E+00 0. -1.
<mgrwt>
<rscale>  1 0.91613917E+03</rscale>
<asrwt>0</asrwt>
<pdfrwt beam="2">  1       21 0.68009435E-01 0.11149582E+04</pdfrwt>
<pdfrwt beam="1">  1        4 0.23500331E+00 0.11149582E+04</pdfrwt>
<totfact> 0.58748664E+00</totfact>
</mgrwt>
</event>
<event>
 6    1  0.1353269E-005  0.1054123E+04  0.7818608E-02  0.9577708E-01
          4   -1    0    0  502    0 -0.00000000000E+00  0.00000000000E+00  0.44884660758E+03  0.44884660758E+03  0.00000000000E+00 0.  1.
         21   -1    0    0  501  502  0.00000000000E+00 -0.00000000000E+00 -0.10656130244E+04  0.10656130244E+04  0.00000000000E+00 0.  1.
    9000010    2    1    2  501    0 -0.24124826988E+03 -0.22369569771E+03 -0.46415966393E+03  0.11517899129E+04  0.10014665831E+04 0.  0.
        -13    1    3    3    0    0 -0.39536302641E+03 -0.89193952168E+02  0.20348489276E+03  0.45351250975E+03  0.10566000000E+00 0.  1.
          4    1    3    3  501    0  0.15411475653E+03 -0.13450174554E+03 -0.66764455669E+03  0.69827740319E+03  0.00000000000E+00 0.  1.
         13    1    1    2    0    0  0.24124826988E+03  0.22369569771E+03 -0.15260675285E+03  0.36266971899E+03  0.10566000000E+00 0. -1.
<mgrwt>
<rscale>  1 0.78789314E+03</rscale>
<asrwt>0</asrwt>
<pdfrwt beam="2">  1       21 0.16394046E+00 0.10541232E+04</pdfrwt>
<pdfrwt beam="1">  1        4 0.69053325E-01 0.10541232E+04</pdfrwt>
<totfact> 0.16020612E+01</totfact>
</mgrwt>
</event>
<event>
 6    1  0.1353269E-005  0.1024168E+04  0.7818608E-02  0.9748761E-01
          4   -1    0    0  502    0 -0.00000000000E+00  0.00000000000E+00  0.96311991728E+03  0.96311991728E+03  0.00000000000E+00 0.  1.
         21   -1    0    0  501  502  0.00000000000E+00 -0.00000000000E+00 -0.43621930658E+03  0.43621930658E+03  0.00000000000E+00 0.  1.
    9000010    2    1    2  501    0  0.19253524876E+03  0.58485281203E+02  0.24513039235E+03  0.10530953542E+04  0.10042064358E+04 0.  0.
        -13    1    3    3    0    0  0.46244048946E+01  0.31347077292E+03 -0.29271311068E+03  0.42891291298E+03  0.10566000000E+00 0.  1.
          4    1    3    3  501    0  0.18791084387E+03 -0.25498549171E+03  0.53784350304E+03  0.62418244127E+03  0.00000000000E+00 0.  1.
         13    1    1    2    0    0 -0.19253524876E+03 -0.58485281203E+02  0.28177021835E+03  0.34624386962E+03  0.10566000000E+00 0. -1.
<mgrwt>
<rscale>  1 0.68186357E+03</rscale>
<asrwt>0</asrwt>
<pdfrwt beam="2">  1       21 0.67110663E-01 0.10241684E+04</pdfrwt>
<pdfrwt beam="1">  1        4 0.14817229E+00 0.10241684E+04</pdfrwt>
<totfact> 0.24112172E+01</totfact>
</mgrwt>
</event>
<event>
 6    1  0.1353269E-005  0.8917450E+03  0.7818608E-02  0.9804702E-01
         21   -1    0    0  501  502  0.00000000000E+00  0.00000000000E+00  0.37636472953E+03  0.37636472953E+03  0.00000000000E+00 0.  1.
          4   -1    0    0  502    0 -0.00000000000E+00 -0.00000000000E+00 -0.11209016408E+04  0.11209016408E+04  0.00000000000E+00 0.  1.
    9000010    2    1    2  501    0  0.20761932873E+03  0.14536366377E+03 -0.22574573758E+03  0.91987510484E+03  0.85496940884E+03 0.  0.
        -13    1    3    3    0    0  0.38163509236E+03 -0.11838882832E+03 -0.39462118352E+03  0.56159340099E+03  0.10566000000E+00 0.  1.
          4    1    3    3  501    0 -0.17401576362E+03  0.26375249209E+03  0.16887544594E+03  0.35828170385E+03  0.00000000000E+00 0.  1.
         13    1    1    2    0    0 -0.20761932873E+03 -0.14536366377E+03 -0.51879117366E+03  0.57739126547E+03  0.10566000000E+00 0. -1.
<mgrwt>
<rscale>  1 0.65110816E+03</rscale>
<asrwt>0</asrwt>
<pdfrwt beam="1">  1       21 0.57902266E-01 0.89174496E+03</pdfrwt>
<pdfrwt beam="2">  1        4 0.17244641E+00 0.89174496E+03</pdfrwt>
<totfact> 0.22420445E+01</totfact>
</mgrwt>
</event>
<event>
 6    1  0.1353269E-005  0.1001292E+04  0.7818608E-02  0.9895291E-01
          4   -1    0    0  502    0 -0.00000000000E+00  0.00000000000E+00  0.27751315150E+03  0.27751315150E+03  0.00000000000E+00 0.  1.
         21   -1    0    0  501  502  0.00000000000E+00 -0.00000000000E+00 -0.13218663784E+04  0.13218663784E+04  0.00000000000E+00 0.  1.
    9000010    2    1    2  501    0 -0.32167091202E+02 -0.12943118205E+03 -0.10679562650E+04  0.14639385198E+04  0.99237001822E+03 0.  0.
        -13    1    3    3    0    0 -0.13308235722E+03  0.14904193325E+03 -0.11414139732E+04  0.11587710219E+04  0.10566000000E+00 0.  1.
          4    1    3    3  501    0  0.10091526602E+03 -0.27847311530E+03  0.73457708256E+02  0.30516749788E+03  0.00000000000E+00 0.  1.
         13    1    1    2    0    0  0.32167091202E+02  0.12943118205E+03  0.23603038119E+02  0.13544101010E+03  0.10566000000E+00 0. -1.
<mgrwt>
<rscale>  1 0.60490038E+03</rscale>
<asrwt>0</asrwt>
<pdfrwt beam="2">  1       21 0.20336406E+00 0.10012919E+04</pdfrwt>
<pdfrwt beam="1">  1        4 0.42694331E-01 0.10012919E+04</pdfrwt>
<totfact> 0.23496591E+01</totfact>
</mgrwt>
</event>
<event>
 6    1  0.1353269E-005  0.1019381E+04  0.7818608E-02  0.1004147E+00
         21   -1    0    0  501  502  0.00000000000E+00  0.00000000000E+00  0.79577283156E+03  0.79577283156E+03  0.00000000000E+00 0.  1.
          4   -1    0    0  502    0 -0.00000000000E+00 -0.00000000000E+00 -0.40862422619E+03  0.40862422619E+03  0.00000000000E+00 0.  1.
    9000010    2    1    2  501    0 -0.69748212515E+02  0.38138054443E+02  0.43857029951E+03  0.11097211572E+04  0.10162764461E+04 0.  0.
        -13    1    3    3    0    0 -0.11117790401E+03 -0.47174287488E+03  0.96087240998E+02  0.49409982331E+03  0.10566000000E+00 0.  1.
          4    1    3    3  501    0  0.41429691494E+02  0.50988092933E+03  0.34248305851E+03  0.61562133394E+03  0.00000000000E+00 0.  1.
         13    1    1    2    0    0  0.69748212515E+02 -0.38138054443E+02 -0.51421694133E+02  0.94675900510E+02  0.10566000000E+00 0. -1.
<mgrwt>
<rscale>  1 0.53868670E+03</rscale>
<asrwt>0</asrwt>
<pdfrwt beam="1">  1       21 0.12242659E+00 0.10193808E+04</pdfrwt>
<pdfrwt beam="2">  1        4 0.62865266E-01 0.10193808E+04</pdfrwt>
<totfact> 0.44069132E+01</totfact>
</mgrwt>
</event>
<event>
 6    1  0.1353269E-005  0.1020172E+04  0.7818608E-02  0.9738855E-01
          4   -1    0    0  502    0 -0.00000000000E+00  0.00000000000E+00  0.40390340440E+03  0.40390340440E+03  0.00000000000E+00 0.  1.
         21   -1    0    0  501  502  0.00000000000E+00 -0.00000000000E+00 -0.13409125341E+04  0.13409125341E+04  0.00000000000E+00 0.  1.
    9000010    2    1    2  501    0 -0.17356178127E+03 -0.11894670828E+03 -0.10836845331E+04  0.14883287138E+04  0.99823753771E+03 0.  0.
        -13    1    3    3    0    0  0.24347648405E+02 -0.54193248096E+03 -0.47432728351E+03  0.72060391683E+03  0.10566000000E+00 0.  1.
          4    1    3    3  501    0 -0.19790942967E+03  0.42298577268E+03 -0.60935724960E+03  0.76772479697E+03  0.00000000000E+00 0.  1.
         13    1    1    2    0    0  0.17356178127E+03  0.11894670828E+03  0.14667540338E+03  0.25648722473E+03  0.10566000000E+00 0. -1.
<mgrwt>
<rscale>  1 0.68749748E+03</rscale>
<asrwt>0</asrwt>
<pdfrwt beam="2">  1       21 0.20629424E+00 0.10201716E+04</pdfrwt>
<pdfrwt beam="1">  1        4 0.62138985E-01 0.10201716E+04</pdfrwt>
<totfact> 0.10091711E+01</totfact>
</mgrwt>
</event>
<event>
 6    1  0.1353269E-005  0.1028966E+04  0.7818608E-02  0.9721800E-01
          4   -1    0    0  502    0 -0.00000000000E+00  0.00000000000E+00  0.88580651676E+03  0.88580651676E+03  0.00000000000E+00 0.  1.
         21   -1    0    0  501  502  0.00000000000E+00 -0.00000000000E+00 -0.45467772526E+03  0.45467772526E+03  0.00000000000E+00 0.  1.
    9000010    2    1    2  501    0 -0.84599424621E+02  0.19988601889E+03  0.25278807054E+03  0.10595627101E+04  0.10058130268E+04 0.  0.
        -13    1    3    3    0    0  0.16547708308E+03 -0.25139348170E+03  0.42044859046E+03  0.51706709047E+03  0.10566000000E+00 0.  1.
          4    1    3    3  501    0 -0.25007650770E+03  0.45127950059E+03 -0.16766051991E+03  0.54249561961E+03  0.00000000000E+00 0.  1.
         13    1    1    2    0    0  0.84599424621E+02 -0.19988601889E+03  0.17834072095E+03  0.28092153194E+03  0.10566000000E+00 0. -1.
<mgrwt>
<rscale>  1 0.69733534E+03</rscale>
<asrwt>0</asrwt>
<pdfrwt beam="2">  1       21 0.69950420E-01 0.10289661E+04</pdfrwt>
<pdfrwt beam="1">  1        4 0.13627792E+00 0.10289661E+04</pdfrwt>
<totfact> 0.27355652E+01</totfact>
</mgrwt>
</event>
<event>
 6    1  0.1353269E-005  0.1032158E+04  0.7818608E-02  0.9786479E-01
         21   -1    0    0  501  502  0.00000000000E+00  0.00000000000E+00  0.10518708364E+04  0.10518708364E+04  0.00000000000E+00 0.  1.
          4   -1    0    0  502    0 -0.00000000000E+00 -0.00000000000E+00 -0.43376609636E+03  0.43376609636E+03  0.00000000000E+00 0.  1.
    9000010    2    1    2  501    0  0.17237966870E+03 -0.19998855745E+02  0.74305126161E+03  0.12717997311E+04  0.10174648270E+04 0.  0.
        -13    1    3    3    0    0 -0.15008200392E+03  0.24506545761E+03 -0.12130863334E+03  0.31192544318E+03  0.10566000000E+00 0.  1.
          4    1    3    3  501    0  0.32246167262E+03 -0.26506431335E+03  0.86435989495E+03  0.95987428787E+03  0.00000000000E+00 0.  1.
         13    1    1    2    0    0 -0.17237966870E+03  0.19998855745E+02 -0.12494652158E+03  0.21383720170E+03  0.10566000000E+00 0. -1.
<mgrwt>
<rscale>  1 0.66093213E+03</rscale>
<asrwt>0</asrwt>
<pdfrwt beam="1">  1       21 0.16182628E+00 0.10321576E+04</pdfrwt>
<pdfrwt beam="2">  1        4 0.66733246E-01 0.10321576E+04</pdfrwt>
<totfact> 0.17991609E+01</totfact>
</mgrwt>
</event>
<event>
 6    1  0.1353269E-005  0.1006892E+04  0.7818608E-02  0.9823196E-01
         21   -1    0    0  501  502  0.00000000000E+00  0.00000000000E+00  0.32820743974E+03  0.32820743974E+03  0.00000000000E+00 0. -1.
          4   -1    0    0  502    0 -0.00000000000E+00 -0.00000000000E+00 -0.10596363930E+04  0.10596363930E+04  0.00000000000E+00 0.  1.
    9000010    2    1    2  501    0 -0.13097290029E+02  0.16519653236E+03 -0.67737707312E+03  0.12135364886E+04  0.99316145548E+03 0.  0.
        -13    1    3    3    0    0  0.25874855246E+03  0.50628652404E+03 -0.34385011228E+03  0.66446201450E+03  0.10566000000E+00 0.  1.
          4    1    3    3  501    0 -0.27184584249E+03 -0.34108999168E+03 -0.33352696083E+03  0.54907447410E+03  0.00000000000E+00 0.  1.
         13    1    1    2    0    0  0.13097290029E+02 -0.16519653236E+03 -0.54051880151E+02  0.17430734414E+03  0.10566000000E+00 0. -1.
<mgrwt>
<rscale>  1 0.64132413E+03</rscale>
<asrwt>0</asrwt>
<pdfrwt beam="1">  1       21 0.50493453E-01 0.10068918E+04</pdfrwt>
<pdfrwt beam="2">  1        4 0.16302098E+00 0.10068918E+04</pdfrwt>
<totfact> 0.35000611E+01</totfact>
</mgrwt>
</event>
<event>
 6    1  0.1353269E-005  0.7316524E+03  0.7818608E-02  0.1071252E+00
          4   -1    0    0  502    0 -0.00000000000E+00  0.00000000000E+00  0.26519508319E+03  0.26519508319E+03  0.00000000000E+00 0.  1.
         21   -1    0    0  501  502  0.00000000000E+00 -0.00000000000E+00 -0.75296051852E+03  0.75296051852E+03  0.00000000000E+00 0.  1.
    9000010    2    1    2  501    0  0.29928071231E+02  0.39168460927E+01 -0.57197957619E+03  0.92869575700E+03  0.73102950854E+03 0.  0.
        -13    1    3    3    0    0  0.31367393462E+03 -0.20616581492E+03 -0.33829237336E+03  0.50530923358E+03  0.10566000000E+00 0.  1.
          4    1    3    3  501    0 -0.28374586339E+03  0.21008266101E+03 -0.23368720283E+03  0.42338652342E+03  0.00000000000E+00 0.  1.
         13    1    1    2    0    0 -0.29928071231E+02 -0.39168460927E+01  0.84214140864E+02  0.89459844715E+02  0.10566000000E+00 0. -1.
<mgrwt>
<rscale>  1 0.32973944E+03</rscale>
<asrwt>0</asrwt>
<pdfrwt beam="2">  1       21 0.11584008E+00 0.73165236E+03</pdfrwt>
<pdfrwt beam="1">  1        4 0.40799244E-01 0.73165236E+03</pdfrwt>
<totfact> 0.13010628E+02</totfact>
</mgrwt>
</event>
<event>
 6    1  0.1353269E-005  0.1089193E+04  0.7818608E-02  0.9475139E-01
          4   -1    0    0  502    0 -0.00000000000E+00  0.00000000000E+00  0.15469011286E+04  0.15469011286E+04  0.00000000000E+00 0.  1.
         21   -1    0    0  501  502  0.00000000000E+00 -0.00000000000E+00 -0.44091738960E+03  0.44091738960E+03  0.00000000000E+00 0.  1.
    9000010    2    1    2  501    0  0.14017768612E+03  0.40241262547E+03  0.39440445643E+03  0.11584025843E+04  0.10023751630E+04 0.  0.
        -13    1    3    3    0    0 -0.80684433207E+02  0.57418298677E+03 -0.10185475053E+03  0.58870237084E+03  0.10566000000E+00 0.  1.
          4    1    3    3  501    0  0.22086211932E+03 -0.17177036131E+03  0.49625920695E+03  0.56970021350E+03  0.00000000000E+00 0.  1.
         13    1    1    2    0    0 -0.14017768612E+03 -0.40241262547E+03  0.71157928261E+03  0.82941593391E+03  0.10566000000E+00 0. -1.
<mgrwt>
<rscale>  1 0.86141788E+03</rscale>
<asrwt>0</asrwt>
<pdfrwt beam="2">  1       21 0.67833445E-01 0.10891931E+04</pdfrwt>
<pdfrwt beam="1">  1        4 0.23798479E+00 0.10891931E+04</pdfrwt>
<totfact> 0.56779459E+00</totfact>
</mgrwt>
</event>
<event>
 6    1  0.1353269E-005  0.1140991E+04  0.7818608E-02  0.9381855E-01
          4   -1    0    0  502    0 -0.00000000000E+00  0.00000000000E+00  0.24963224173E+04  0.24963224173E+04  0.00000000000E+00 0.  1.
         21   -1    0    0  501  502  0.00000000000E+00 -0.00000000000E+00 -0.27575114943E+03  0.27575114943E+03  0.00000000000E+00 0. -1.
    9000010    2    1    2  501    0  0.51005826277E+03  0.80485985513E+02  0.15906400427E+04  0.19575486838E+04  0.10174594237E+04 0.  0.
        -13    1    3    3    0    0 -0.13740297468E+03 -0.11248538904E+03  0.11204425858E+04  0.11344267889E+04  0.10566000000E+00 0.  1.
          4    1    3    3  501    0  0.64746123745E+03  0.19297137455E+03  0.47019745691E+03  0.82312189491E+03  0.00000000000E+00 0.  1.
         13    1    1    2    0    0 -0.51005826277E+03 -0.80485985513E+02  0.62993122517E+03  0.81452488292E+03  0.10566000000E+00 0. -1.
<mgrwt>
<rscale>  1 0.93584072E+03</rscale>
<asrwt>0</asrwt>
<pdfrwt beam="2">  1       21 0.42423255E-01 0.11409913E+04</pdfrwt>
<pdfrwt beam="1">  1        4 0.38404959E+00 0.11409913E+04</pdfrwt>
<totfact> 0.18708942E+00</totfact>
</mgrwt>
</event>
<event>
 6    1  0.1353269E-005  0.1215251E+04  0.7818608E-02  0.9288224E-01
         21   -1    0    0  501  502  0.00000000000E+00  0.00000000000E+00  0.64730704770E+03  0.64730704770E+03  0.00000000000E+00 0.  1.
          4   -1    0    0  502    0 -0.00000000000E+00 -0.00000000000E+00 -0.17274925758E+04  0.17274925758E+04  0.00000000000E+00 0.  1.
    9000010    2    1    2  501    0 -0.20919614092E+03  0.56250839458E+03 -0.92105329795E+02  0.12187368186E+04  0.10567200774E+04 0.  0.
        -13    1    3    3    0    0 -0.49089301523E+03  0.19452659896E+03  0.30383144607E+03  0.60920448857E+03  0.10566000000E+00 0.  1.
          4    1    3    3  501    0  0.28169687431E+03  0.36798179562E+03 -0.39593677587E+03  0.60953233006E+03  0.00000000000E+00 0.  1.
         13    1    1    2    0    0  0.20919614092E+03 -0.56250839458E+03 -0.98808019830E+03  0.11560628049E+04  0.10566000000E+00 0. -1.
<mgrwt>
<rscale>  1 0.10187424E+04</rscale>
<asrwt>0</asrwt>
<pdfrwt beam="1">  1       21 0.99585701E-01 0.12152514E+04</pdfrwt>
<pdfrwt beam="2">  1        4 0.26576808E+00 0.12152514E+04</pdfrwt>
<totfact> 0.15077540E+00</totfact>
</mgrwt>
</event>
<event>
 6    1  0.1353269E-005  0.9673939E+03  0.7818608E-02  0.9876865E-01
         21   -1    0    0  501  502  0.00000000000E+00  0.00000000000E+00  0.67819854907E+03  0.67819854907E+03  0.00000000000E+00 0.  1.
          4   -1    0    0  502    0 -0.00000000000E+00 -0.00000000000E+00 -0.46600171719E+03  0.46600171719E+03  0.00000000000E+00 0.  1.
    9000010    2    1    2  501    0  0.15658179518E+03 -0.10644594175E+02  0.18459218012E+03  0.98484784573E+03  0.95457835734E+03 0.  0.
        -13    1    3    3    0    0 -0.16154113214E+02  0.36115436703E+03  0.38533571016E+03  0.52837207807E+03  0.10566000000E+00 0.  1.
          4    1    3    3  501    0  0.17273590839E+03 -0.37179896121E+03 -0.20074353004E+03  0.45647576765E+03  0.00000000000E+00 0.  1.
         13    1    1    2    0    0 -0.15658179518E+03  0.10644594175E+02  0.27604651758E+02  0.15935242053E+03  0.10566000000E+00 0. -1.
<mgrwt>
<rscale>  1 0.61395729E+03</rscale>
<asrwt>0</asrwt>
<pdfrwt beam="1">  1       21 0.10433824E+00 0.96739393E+03</pdfrwt>
<pdfrwt beam="2">  1        4 0.71692572E-01 0.96739393E+03</pdfrwt>
<totfact> 0.49720544E+01</totfact>
</mgrwt>
</event>
<event>
 6    1  0.1353269E-005  0.1180699E+04  0.7818608E-02  0.9371555E-01
         21   -1    0    0  501  502  0.00000000000E+00  0.00000000000E+00  0.11122705165E+04  0.11122705165E+04  0.00000000000E+00 0. -1.
          4   -1    0    0  502    0 -0.00000000000E+00 -0.00000000000E+00 -0.98713984633E+03  0.98713984633E+03  0.00000000000E+00 0.  1.
    9000010    2    1    2  501    0 -0.14289287686E+03 -0.46198109567E+03 -0.52251118080E+03  0.12911499560E+04  0.10771282968E+04 0.  0.
        -13    1    3    3    0    0 -0.37652568013E+00 -0.11786087434E+03  0.33559774672E+03  0.35569254454E+03  0.10566000000E+00 0.  1.
          4    1    3    3  501    0 -0.14251635118E+03 -0.34412022133E+03 -0.85810892753E+03  0.93545741142E+03  0.00000000000E+00 0.  1.
         13    1    1    2    0    0  0.14289287686E+03  0.46198109567E+03  0.64764185093E+03  0.80826040683E+03  0.10566000000E+00 0. -1.
<mgrwt>
<rscale>  1 0.94454023E+03</rscale>
<asrwt>0</asrwt>
<pdfrwt beam="1">  1       21 0.17111854E+00 0.11806991E+04</pdfrwt>
<pdfrwt beam="2">  1        4 0.15186767E+00 0.11806991E+04</pdfrwt>
<totfact> 0.20345177E+00</totfact>
</mgrwt>
</event>
<event>
 6    1  0.1353269E-005  0.1022735E+04  0.7818608E-02  0.9585945E-01
         21   -1    0    0  501  502  0.00000000000E+00  0.00000000000E+00  0.25504621660E+04  0.25504621660E+04  0.00000000000E+00 0.  1.
          4   -1    0    0  502    0 -0.00000000000E+00 -0.00000000000E+00 -0.32777871559E+03  0.32777871559E+03  0.00000000000E+00 0.  1.
    9000010    2    1    2  501    0 -0.33105639463E+03  0.11411167089E+03  0.23022052383E+04  0.25191537949E+04  0.96091991001E+03 0.  0.
        -13    1    3    3    0    0  0.50835615039E+01 -0.10661630823E+03 -0.60351240527E+02  0.12261795617E+03  0.10566000000E+00 0.  1.
          4    1    3    3  501    0 -0.33613995614E+03  0.22072797912E+03  0.23625564788E+04  0.23965358388E+04  0.00000000000E+00 0.  1.
         13    1    1    2    0    0  0.33105639463E+03 -0.11411167089E+03 -0.79521787917E+02  0.35908708662E+03  0.10566000000E+00 0. -1.
<mgrwt>
<rscale>  1 0.78233439E+03</rscale>
<asrwt>0</asrwt>
<pdfrwt beam="1">  1       21 0.39237878E+00 0.10227350E+04</pdfrwt>
<pdfrwt beam="2">  1        4 0.50427496E-01 0.10227350E+04</pdfrwt>
<totfact> 0.10354644E+00</totfact>
</mgrwt>
</event>
<event>
 6    1  0.1353269E-005  0.1028237E+04  0.7818608E-02  0.9670731E-01
          4   -1    0    0  502    0 -0.00000000000E+00  0.00000000000E+00  0.82828881085E+03  0.82828881085E+03  0.00000000000E+00 0.  1.
         21   -1    0    0  501  502  0.00000000000E+00 -0.00000000000E+00 -0.78868573900E+03  0.78868573900E+03  0.00000000000E+00 0.  1.
    9000010    2    1    2  501    0 -0.23866566236E+03 -0.98468477857E+02 -0.40314842123E+03  0.11044452967E+04  0.99529564672E+03 0.  0.
        -13    1    3    3    0    0 -0.31262863502E+03 -0.46220095760E+03 -0.46722194461E+03  0.72777932461E+03  0.10566000000E+00 0.  1.
          4    1    3    3  501    0  0.73962972654E+02  0.36373247975E+03  0.64073523379E+02  0.37666597211E+03  0.00000000000E+00 0.  1.
         13    1    1    2    0    0  0.23866566236E+03  0.98468477857E+02  0.44275149309E+03  0.51252925313E+03  0.10566000000E+00 0. -1.
<mgrwt>
<rscale>  1 0.72786501E+03</rscale>
<asrwt>0</asrwt>
<pdfrwt beam="2">  1       21 0.12133627E+00 0.10282367E+04</pdfrwt>
<pdfrwt beam="1">  1        4 0.12742905E+00 0.10282367E+04</pdfrwt>
<totfact> 0.85043072E+00</totfact>
</mgrwt>
</event>
<event>
 6    1  0.1353269E-005  0.1023512E+04  0.7818608E-02  0.9899017E-01
          4   -1    0    0  502    0 -0.00000000000E+00  0.00000000000E+00  0.10545447195E+04  0.10545447195E+04  0.00000000000E+00 0.  1.
         21   -1    0    0  501  502  0.00000000000E+00 -0.00000000000E+00 -0.33923199833E+03  0.33923199833E+03  0.00000000000E+00 0.  1.
    9000010    2    1    2  501    0 -0.11013964480E+03 -0.55606686066E+02  0.48524514396E+03  0.11327136102E+04  0.10160484379E+04 0.  0.
        -13    1    3    3    0    0  0.33081931235E+03 -0.31086203772E+03  0.39375208761E+02  0.45566110449E+03  0.10566000000E+00 0.  1.
          4    1    3    3  501    0 -0.44095895714E+03  0.25525535165E+03  0.44586993520E+03  0.67705250576E+03  0.00000000000E+00 0.  1.
         13    1    1    2    0    0  0.11013964480E+03  0.55606686066E+02  0.23006757723E+03  0.26106310760E+03  0.10566000000E+00 0. -1.
<mgrwt>
<rscale>  1 0.60308954E+03</rscale>
<asrwt>0</asrwt>
<pdfrwt beam="2">  1       21 0.52189539E-01 0.10235122E+04</pdfrwt>
<pdfrwt beam="1">  1        4 0.16223765E+00 0.10235122E+04</pdfrwt>
<totfact> 0.32967241E+01</totfact>
</mgrwt>
</event>
<event>
 6    1  0.1353269E-005  0.1089381E+04  0.7818608E-02  0.9485320E-01
          4   -1    0    0  502    0 -0.00000000000E+00  0.00000000000E+00  0.86381884456E+03  0.86381884456E+03  0.00000000000E+00 0.  1.
         21   -1    0    0  501  502  0.00000000000E+00 -0.00000000000E+00 -0.99328301670E+03  0.99328301670E+03  0.00000000000E+00 0.  1.
    9000010    2    1    2  501    0 -0.37429174749E+03 -0.16964251320E+03 -0.59080647080E+03  0.12392753304E+04  0.10088994817E+04 0.  0.
        -13    1    3    3    0    0  0.69702963366E+02  0.33263490516E+03  0.86410495626E+01  0.33996935470E+03  0.10566000000E+00 0.  1.
          4    1    3    3  501    0 -0.44399471086E+03 -0.50227741836E+03 -0.59944752036E+03  0.89930597570E+03  0.00000000000E+00 0.  1.
         13    1    1    2    0    0  0.37429174749E+03  0.16964251320E+03  0.46134229866E+03  0.61782653085E+03  0.10566000000E+00 0. -1.
<mgrwt>
<rscale>  1 0.85374831E+03</rscale>
<asrwt>0</asrwt>
<pdfrwt beam="2">  1       21 0.15281277E+00 0.10893810E+04</pdfrwt>
<pdfrwt beam="1">  1        4 0.13289521E+00 0.10893810E+04</pdfrwt>
<totfact> 0.40611222E+00</totfact>
</mgrwt>
</event>
<event>
 6    1  0.1353269E-005  0.1014100E+04  0.7818608E-02  0.9798075E-01
         21   -1    0    0  501  502  0.00000000000E+00  0.00000000000E+00  0.99305496316E+03  0.99305496316E+03  0.00000000000E+00 0.  1.
          4   -1    0    0  502    0 -0.00000000000E+00 -0.00000000000E+00 -0.50384924251E+03  0.50384924251E+03  0.00000000000E+00 0.  1.
    9000010    2    1    2  501    0 -0.11055140724E+03  0.13710644837E+03  0.69245427140E+03  0.12279622484E+04  0.99868842675E+03 0.  0.
        -13    1    3    3    0    0 -0.54949606962E+03  0.53632009991E+02  0.27636996436E+03  0.61741614118E+03  0.10566000000E+00 0.  1.
          4    1    3    3  501    0  0.43894466238E+03  0.83474438378E+02  0.41608430704E+03  0.61054610723E+03  0.00000000000E+00 0.  1.
         13    1    1    2    0    0  0.11055140724E+03 -0.13710644837E+03 -0.20324855074E+03  0.26894195725E+03  0.10566000000E+00 0. -1.
<mgrwt>
<rscale>  1 0.65465938E+03</rscale>
<asrwt>0</asrwt>
<pdfrwt beam="1">  1       21 0.15277769E+00 0.10140998E+04</pdfrwt>
<pdfrwt beam="2">  1        4 0.77515268E-01 0.10140998E+04</pdfrwt>
<totfact> 0.15153138E+01</totfact>
</mgrwt>
</event>
<event>
 6    1  0.1353269E-005  0.1090110E+04  0.7818608E-02  0.9448331E-01
         21   -1    0    0  501  502  0.00000000000E+00  0.00000000000E+00  0.10114096181E+04  0.10114096181E+04  0.00000000000E+00 0. -1.
          4   -1    0    0  502    0 -0.00000000000E+00 -0.00000000000E+00 -0.73195825127E+03  0.73195825127E+03  0.00000000000E+00 0.  1.
    9000010    2    1    2  501    0  0.17400758828E+03 -0.43360451124E+03  0.53119555527E+03  0.12126450975E+04  0.98491009827E+03 0.  0.
        -13    1    3    3    0    0 -0.31241094564E+03 -0.39981336133E+03  0.51766814971E+03  0.72486664100E+03  0.10566000000E+00 0.  1.
          4    1    3    3  501    0  0.48641853392E+03 -0.33791149915E+02  0.13527405566E+02  0.48777845653E+03  0.00000000000E+00 0.  1.
         13    1    1    2    0    0 -0.17400758828E+03  0.43360451124E+03 -0.25174418845E+03  0.53072277183E+03  0.10566000000E+00 0. -1.
<mgrwt>
<rscale>  1 0.88202785E+03</rscale>
<asrwt>0</asrwt>
<pdfrwt beam="1">  1       21 0.15560148E+00 0.10901098E+04</pdfrwt>
<pdfrwt beam="2">  1        4 0.11260896E+00 0.10901098E+04</pdfrwt>
<totfact> 0.58696203E+00</totfact>
</mgrwt>
</event>
<event>
 6    1  0.1353269E-005  0.1152780E+04  0.7818608E-02  0.9341231E-01
          4   -1    0    0  502    0 -0.00000000000E+00  0.00000000000E+00  0.85378815201E+03  0.85378815201E+03  0.00000000000E+00 0.  1.
         21   -1    0    0  501  502  0.00000000000E+00 -0.00000000000E+00 -0.91923467348E+03  0.91923467348E+03  0.00000000000E+00 0.  1.
    9000010    2    1    2  501    0 -0.41173915161E+02  0.57819679950E+03 -0.21893263567E+03  0.11733855779E+04  0.99644136069E+03 0.  0.
        -13    1    3    3    0    0  0.28202564136E+03 -0.84829527219E+02  0.16945109529E+03  0.33977668539E+03  0.10566000000E+00 0.  1.
          4    1    3    3  501    0 -0.32319955652E+03  0.66302632671E+03 -0.38838373096E+03  0.83360889254E+03  0.00000000000E+00 0.  1.
         13    1    1    2    0    0  0.41173915161E+02 -0.57819679950E+03  0.15348611421E+03  0.59963724755E+03  0.10566000000E+00 0. -1.
<mgrwt>
<rscale>  1 0.97074106E+03</rscale>
<asrwt>0</asrwt>
<pdfrwt beam="2">  1       21 0.14142072E+00 0.11527802E+04</pdfrwt>
<pdfrwt beam="1">  1        4 0.13135202E+00 0.11527802E+04</pdfrwt>
<totfact> 0.51510614E+00</totfact>
</mgrwt>
</event>
<event>
 6    1  0.1353269E-005  0.1028979E+04  0.7818608E-02  0.9672010E-01
         21   -1    0    0  501  502  0.00000000000E+00  0.00000000000E+00  0.82244232831E+03  0.82244232831E+03  0.00000000000E+00 0.  1.
          4   -1    0    0  502    0 -0.00000000000E+00 -0.00000000000E+00 -0.52319483390E+03  0.52319483390E+03  0.00000000000E+00 0.  1.
    9000010    2    1    2  501    0  0.24136403398E+03 -0.86847201108E+02  0.34459400471E+03  0.10851465666E+04  0.99649335657E+03 0.  0.
        -13    1    3    3    0    0  0.57012746106E+03 -0.28775055734E+03  0.16240985318E+03  0.65895574714E+03  0.10566000000E+00 0.  1.
          4    1    3    3  501    0 -0.32876342708E+03  0.20090335623E+03  0.18218415153E+03  0.42619081947E+03  0.00000000000E+00 0.  1.
         13    1    1    2    0    0 -0.24136403398E+03  0.86847201108E+02 -0.45346510290E+02  0.26049059561E+03  0.10566000000E+00 0. -1.
<mgrwt>
<rscale>  1 0.72708029E+03</rscale>
<asrwt>0</asrwt>
<pdfrwt beam="1">  1       21 0.12652959E+00 0.10289791E+04</pdfrwt>
<pdfrwt beam="2">  1        4 0.80491513E-01 0.10289791E+04</pdfrwt>
<totfact> 0.23164911E+01</totfact>
</mgrwt>
</event>
<event>
 6    1  0.1353269E-005  0.9999496E+03  0.7818608E-02  0.9976501E-01
          4   -1    0    0  502    0 -0.00000000000E+00  0.00000000000E+00  0.87870857808E+03  0.87870857808E+03  0.00000000000E+00 0.  1.
         21   -1    0    0  501  502  0.00000000000E+00 -0.00000000000E+00 -0.37280242075E+03  0.37280242075E+03  0.00000000000E+00 0.  1.
    9000010    2    1    2  501    0 -0.84143343328E+02 -0.59953969578E+02  0.34020446634E+03  0.10562377486E+04  0.99459766838E+03 0.  0.
        -13    1    3    3    0    0  0.25712988516E+03  0.34765896136E+03  0.14249590722E+02  0.43264950393E+03  0.10566000000E+00 0.  1.
          4    1    3    3  501    0 -0.34127322848E+03 -0.40761293093E+03  0.32595487561E+03  0.62358824466E+03  0.00000000000E+00 0.  1.
         13    1    1    2    0    0  0.84143343328E+02  0.59953969578E+02  0.16570169100E+03  0.19527325024E+03  0.10566000000E+00 0. -1.
<mgrwt>
<rscale>  1 0.56692744E+03</rscale>
<asrwt>0</asrwt>
<pdfrwt beam="2">  1       21 0.57354219E-01 0.99994955E+03</pdfrwt>
<pdfrwt beam="1">  1        4 0.13518593E+00 0.99994955E+03</pdfrwt>
<totfact> 0.43784639E+01</totfact>
</mgrwt>
</event>
<event>
 6    1  0.1353269E-005  0.1148243E+04  0.7818608E-02  0.9358222E-01
         21   -1    0    0  501  502  0.00000000000E+00  0.00000000000E+00  0.50710636006E+03  0.50710636006E+03  0.00000000000E+00 0.  1.
          4   -1    0    0  502    0 -0.00000000000E+00 -0.00000000000E+00 -0.18413500465E+04  0.18413500465E+04  0.00000000000E+00 0.  1.
    9000010    2    1    2  501    0  0.32267391629E+03  0.44740094429E+03 -0.31687393590E+03  0.11911633228E+04  0.10070625150E+04 0.  0.
        -13    1    3    3    0    0  0.63672034424E+03  0.17952323158E+03 -0.39580278692E+03  0.77090936221E+03  0.10566000000E+00 0.  1.
          4    1    3    3  501    0 -0.31404642795E+03  0.26787771270E+03  0.78928851021E+02  0.42025396059E+03  0.00000000000E+00 0.  1.
         13    1    1    2    0    0 -0.32267391629E+03 -0.44740094429E+03 -0.10173697505E+04  0.11572930837E+04  0.10566000000E+00 0. -1.
<mgrwt>
<rscale>  1 0.95595068E+03</rscale>
<asrwt>0</asrwt>
<pdfrwt beam="1">  1       21 0.78016364E-01 0.11482426E+04</pdfrwt>
<pdfrwt beam="2">  1        4 0.28328462E+00 0.11482426E+04</pdfrwt>
<totfact> 0.21367853E+00</totfact>
</mgrwt>
</event>
<event>
 6    1  0.1353269E-005  0.1018079E+04  0.7818608E-02  0.9636413E-01
          4   -1    0    0  502    0 -0.00000000000E+00  0.00000000000E+00  0.17133244199E+04  0.17133244199E+04  0.00000000000E+00 0.  1.
         21   -1    0    0  501  502  0.00000000000E+00 -0.00000000000E+00 -0.65055022009E+03  0.65055022009E+03  0.00000000000E+00 0.  1.
    9000010    2    1    2  501    0  0.13555670376E+03 -0.26624285499E+03 -0.22437083432E+03  0.10425104859E+04  0.97325482999E+03 0.  0.
        -13    1    3    3    0    0  0.55579531696E+03 -0.11758458131E+03 -0.17270379721E+03  0.59376862569E+03  0.10566000000E+00 0.  1.
          4    1    3    3  501    0 -0.42023861320E+03 -0.14865827368E+03 -0.51667037108E+02  0.44874186019E+03  0.00000000000E+00 0.  1.
         13    1    1    2    0    0 -0.13555670376E+03  0.26624285499E+03  0.12871450341E+04  0.13213641541E+04  0.10566000000E+00 0. -1.
<mgrwt>
<rscale>  1 0.74932275E+03</rscale>
<asrwt>0</asrwt>
<pdfrwt beam="2">  1       21 0.10008465E+00 0.10180795E+04</pdfrwt>
<pdfrwt beam="1">  1        4 0.26358837E+00 0.10180795E+04</pdfrwt>
<totfact> 0.15806396E+00</totfact>
</mgrwt>
</event>
<event>
 6    1  0.1353269E-005  0.1022475E+04  0.7818608E-02  0.9802135E-01
         21   -1    0    0  501  502  0.00000000000E+00  0.00000000000E+00  0.73278124121E+03  0.73278124121E+03  0.00000000000E+00 0.  1.
          4   -1    0    0  502    0 -0.00000000000E+00 -0.00000000000E+00 -0.48654179184E+03  0.48654179184E+03  0.00000000000E+00 0.  1.
    9000010    2    1    2  501    0  0.47341801750E+02  0.16281266244E+03  0.18518546170E+03  0.10391097987E+04  0.10083185555E+04 0.  0.
        -13    1    3    3    0    0  0.40508717693E+03 -0.21167624587E+03 -0.68923218267E+02  0.46222600009E+03  0.10566000000E+00 0.  1.
          4    1    3    3  501    0 -0.35774537518E+03  0.37448890831E+03  0.25410867997E+03  0.57688379865E+03  0.00000000000E+00 0.  1.
         13    1    1    2    0    0 -0.47341801750E+02 -0.16281266244E+03  0.61053987674E+02  0.18021323431E+03  0.10566000000E+00 0. -1.
<mgrwt>
<rscale>  1 0.65248104E+03</rscale>
<asrwt>0</asrwt>
<pdfrwt beam="1">  1       21 0.11273558E+00 0.10224752E+04</pdfrwt>
<pdfrwt beam="2">  1        4 0.74852583E-01 0.10224752E+04</pdfrwt>
<totfact> 0.36912181E+01</totfact>
</mgrwt>
</event>
<event>
 6    1  0.1353269E-005  0.9837244E+03  0.7818608E-02  0.9906050E-01
         21   -1    0    0  501  502  0.00000000000E+00  0.00000000000E+00  0.96753709619E+03  0.96753709619E+03  0.00000000000E+00 0.  1.
          4   -1    0    0  502    0 -0.00000000000E+00 -0.00000000000E+00 -0.32744086529E+03  0.32744086529E+03  0.00000000000E+00 0.  1.
    9000010    2    1    2  501    0 -0.10422299694E+03 -0.87149198287E+02  0.60420177190E+03  0.11544580725E+04  0.97429782104E+03 0.  0.
        -13    1    3    3    0    0  0.35675885589E+03  0.22081092112E+03  0.18070724258E+03  0.45682541832E+03  0.10566000000E+00 0.  1.
          4    1    3    3  501    0 -0.46098185283E+03 -0.30796011941E+03  0.42349452932E+03  0.69763265416E+03  0.00000000000E+00 0.  1.
         13    1    1    2    0    0  0.10422299694E+03  0.87149198287E+02  0.35894459003E+02  0.14051988900E+03  0.10566000000E+00 0. -1.
<mgrwt>
<rscale>  1 0.59968954E+03</rscale>
<asrwt>0</asrwt>
<pdfrwt beam="1">  1       21 0.14885186E+00 0.98372438E+03</pdfrwt>
<pdfrwt beam="2">  1        4 0.50375518E-01 0.98372438E+03</pdfrwt>
<totfact> 0.42101098E+01</totfact>
</mgrwt>
</event>
<event>
 6    1  0.1353269E-005  0.1010476E+04  0.7818608E-02  0.1018824E+00
          4   -1    0    0  502    0 -0.00000000000E+00  0.00000000000E+00  0.71395267616E+03  0.71395267616E+03  0.00000000000E+00 0.  1.
         21   -1    0    0  501  502  0.00000000000E+00 -0.00000000000E+00 -0.52282439463E+03  0.52282439463E+03  0.00000000000E+00 0.  1.
    9000010    2    1    2  501    0  0.34887256818E+02  0.38476783583E+02 -0.28712590654E+02  0.10108841674E+04  0.10091406262E+04 0.  0.
        -13    1    3    3    0    0  0.36798891847E+03  0.12387949465E+03  0.33320374964E+03  0.51165097796E+03  0.10566000000E+00 0.  1.
          4    1    3    3  501    0 -0.33310166165E+03 -0.85402711063E+02 -0.36191634029E+03  0.49923318942E+03  0.00000000000E+00 0.  1.
         13    1    1    2    0    0 -0.34887256818E+02 -0.38476783583E+02  0.21984087218E+03  0.22589290341E+03  0.10566000000E+00 0. -1.
<mgrwt>
<rscale>  1 0.48113471E+03</rscale>
<asrwt>0</asrwt>
<pdfrwt beam="2">  1       21 0.80434522E-01 0.10104763E+04</pdfrwt>
<pdfrwt beam="1">  1        4 0.10983887E+00 0.10104763E+04</pdfrwt>
<totfact> 0.34172996E+01</totfact>
</mgrwt>
</event>
<event>
 6    1  0.1353269E-005  0.9999610E+03  0.7818608E-02  0.9905866E-01
         21   -1    0    0  501  502  0.00000000000E+00  0.00000000000E+00  0.60407686843E+03  0.60407686843E+03  0.00000000000E+00 0.  1.
          4   -1    0    0  502    0 -0.00000000000E+00 -0.00000000000E+00 -0.58921186401E+03  0.58921186401E+03  0.00000000000E+00 0.  1.
    9000010    2    1    2  501    0 -0.34847636270E+02 -0.12464408678E+03 -0.11908611218E+03  0.10070270377E+04  0.99155002215E+03 0.  0.
        -13    1    3    3    0    0  0.25190311578E+03 -0.42361654566E+03  0.14743868359E+03  0.51443593778E+03  0.10566000000E+00 0.  1.
          4    1    3    3  501    0 -0.28675075205E+03  0.29897245888E+03 -0.26652479576E+03  0.49259109993E+03  0.00000000000E+00 0.  1.
         13    1    1    2    0    0  0.34847636270E+02  0.12464408678E+03  0.13395111660E+03  0.18626169473E+03  0.10566000000E+00 0. -1.
<mgrwt>
<rscale>  1 0.59977847E+03</rscale>
<asrwt>0</asrwt>
<pdfrwt beam="1">  1       21 0.92934903E-01 0.99996098E+03</pdfrwt>
<pdfrwt beam="2">  1        4 0.90647979E-01 0.99996098E+03</pdfrwt>
<totfact> 0.38455203E+01</totfact>
</mgrwt>
</event>
<event>
 6    1  0.3614540E-005  0.7716039E+03  0.7818608E-02  0.1010045E+00
          4   -1    0    0  502    0 -0.00000000000E+00  0.00000000000E+00  0.42682754567E+03  0.42682754567E+03  0.00000000000E+00 0.  1.
         21   -1    0    0  501  502  0.00000000000E+00 -0.00000000000E+00 -0.61287334139E+03  0.61287334139E+03  0.00000000000E+00 0.  1.
    9000010    2    1    2  501    0 -0.15084549555E+03 -0.23133916881E+02 -0.32125653012E+03  0.83580999590E+03  0.75636171867E+03 0.  0.
        -13    1    3    3    0    0 -0.12110721084E+03  0.36056208338E+03 -0.10599109143E+03  0.39484945880E+03  0.10566000000E+00 0.  1.
          4    1    3    3  501    0 -0.29738284710E+02 -0.38369600026E+03 -0.21526543869E+03  0.44096053711E+03  0.00000000000E+00 0.  1.
         13    1    1    2    0    0  0.15084549555E+03  0.23133916881E+02  0.13521073440E+03  0.20389089116E+03  0.10566000000E+00 0. -1.
<mgrwt>
<rscale>  1 0.51456585E+03</rscale>
<asrwt>0</asrwt>
<pdfrwt beam="2">  1       21 0.94288206E-01 0.77160391E+03</pdfrwt>
<pdfrwt beam="1">  1        4 0.65665777E-01 0.77160391E+03</pdfrwt>
<totfact> 0.79005425E+01</totfact>
</mgrwt>
</event>
<event>
 6    1  0.1353269E-005  0.1006816E+04  0.7818608E-02  0.9932364E-01
          4   -1    0    0  502    0 -0.00000000000E+00  0.00000000000E+00  0.14914785228E+04  0.14914785228E+04  0.00000000000E+00 0.  1.
         21   -1    0    0  501  502  0.00000000000E+00 -0.00000000000E+00 -0.21493262497E+03  0.21493262497E+03  0.00000000000E+00 0.  1.
    9000010    2    1    2  501    0  0.62052579863E+02  0.98570789493E+02  0.12027288577E+04  0.15685137591E+04  0.10000559906E+04 0.  0.
        -13    1    3    3    0    0  0.48063893995E+03 -0.16818539376E+03  0.57011316703E+03  0.76441425396E+03  0.10566000000E+00 0.  1.
          4    1    3    3  501    0 -0.41858636008E+03  0.26675618325E+03  0.63261569067E+03  0.80409950518E+03  0.00000000000E+00 0.  1.
         13    1    1    2    0    0 -0.62052579863E+02 -0.98570789493E+02  0.73817040082E+02  0.13789738859E+03  0.10566000000E+00 0. -1.
<mgrwt>
<rscale>  1 0.58718113E+03</rscale>
<asrwt>0</asrwt>
<pdfrwt beam="2">  1       21 0.33066559E-01 0.10068161E+04</pdfrwt>
<pdfrwt beam="1">  1        4 0.22945823E+00 0.10068161E+04</pdfrwt>
<totfact> 0.30417236E+01</totfact>
</mgrwt>
</event>
<event>
 6    1  0.1353269E-005  0.1028921E+04  0.7818608E-02  0.9483780E-01
         21   -1    0    0  501  502  0.00000000000E+00  0.00000000000E+00  0.26539728412E+04  0.26539728412E+04  0.00000000000E+00 0. -1.
          4   -1    0    0  502    0 -0.00000000000E+00 -0.00000000000E+00 -0.22290051376E+03  0.22290051376E+03  0.00000000000E+00 0.  1.
    9000010    2    1    2  501    0  0.33532142641E+03 -0.35779644443E+03  0.18468926649E+04  0.21141646007E+04  0.90455551968E+03 0.  0.
        -13    1    3    3    0    0 -0.11548952958E+03  0.22809588759E+03  0.26590087579E+03  0.36887511746E+03  0.10566000000E+00 0.  1.
          4    1    3    3  501    0  0.45081095599E+03 -0.58589233201E+03  0.15809917892E+04  0.17452894832E+04  0.00000000000E+00 0.  1.
         13    1    1    2    0    0 -0.33532142641E+03  0.35779644443E+03  0.58417966252E+03  0.76270875432E+03  0.10566000000E+00 0. -1.
<mgrwt>
<rscale>  1 0.85490283E+03</rscale>
<asrwt>0</asrwt>
<pdfrwt beam="1">  1       21 0.40830349E+00 0.10289215E+04</pdfrwt>
<pdfrwt beam="2">  1        4 0.34292389E-01 0.10289215E+04</pdfrwt>
<totfact> 0.17934503E+00</totfact>
</mgrwt>
</event>
<event>
 6    1  0.1353269E-005  0.9813070E+03  0.7818608E-02  0.9923654E-01
         21   -1    0    0  501  502  0.00000000000E+00  0.00000000000E+00  0.14490030474E+04  0.14490030474E+04  0.00000000000E+00 0.  1.
          4   -1    0    0  502    0 -0.00000000000E+00 -0.00000000000E+00 -0.22659403626E+03  0.22659403626E+03  0.00000000000E+00 0.  1.
    9000010    2    1    2  501    0  0.19240459981E+02 -0.12791281391E+03  0.11896694378E+04  0.15421662997E+04  0.97274438661E+03 0.  0.
        -13    1    3    3    0    0 -0.19197680810E+03 -0.14070731930E+03  0.12873037610E+04  0.13091236110E+04  0.10566000000E+00 0.  1.
          4    1    3    3  501    0  0.21121726808E+03  0.12794505392E+02 -0.97634323265E+02  0.23304268876E+03  0.00000000000E+00 0.  1.
         13    1    1    2    0    0 -0.19240459981E+02  0.12791281391E+03  0.32739573357E+02  0.13343078389E+03  0.10566000000E+00 0. -1.
<mgrwt>
<rscale>  1 0.59128495E+03</rscale>
<asrwt>0</asrwt>
<pdfrwt beam="1">  1       21 0.22292354E+00 0.98130705E+03</pdfrwt>
<pdfrwt beam="2">  1        4 0.34860622E-01 0.98130705E+03</pdfrwt>
<totfact> 0.26286936E+01</totfact>
</mgrwt>
</event>
<event>
 6    1  0.1353269E-005  0.9489774E+03  0.7818608E-02  0.9927822E-01
         21   -1    0    0  501  502  0.00000000000E+00  0.00000000000E+00  0.38428866461E+03  0.38428866461E+03  0.00000000000E+00 0.  1.
          4   -1    0    0  502    0 -0.00000000000E+00 -0.00000000000E+00 -0.83814687935E+03  0.83814687935E+03  0.00000000000E+00 0.  1.
    9000010    2    1    2  501    0 -0.69535058908E+02  0.12281384714E+03 -0.26241084067E+03  0.98459006120E+03  0.93842409061E+03 0.  0.
        -13    1    3    3    0    0 -0.17281608235E+02  0.43006621644E+03 -0.44848406874E+03  0.62160564314E+03  0.10566000000E+00 0.  1.
          4    1    3    3  501    0 -0.52253450673E+02 -0.30725236929E+03  0.18607322807E+03  0.36298441805E+03  0.00000000000E+00 0.  1.
         13    1    1    2    0    0  0.69535058908E+02 -0.12281384714E+03 -0.19144737407E+03  0.23784548276E+03  0.10566000000E+00 0. -1.
<mgrwt>
<rscale>  1 0.58931657E+03</rscale>
<asrwt>0</asrwt>
<pdfrwt beam="1">  1       21 0.59121333E-01 0.94897742E+03</pdfrwt>
<pdfrwt beam="2">  1        4 0.12894567E+00 0.94897742E+03</pdfrwt>
<totfact> 0.46430868E+01</totfact>
</mgrwt>
</event>
<event>
 6    1  0.1353269E-005  0.1007842E+04  0.7818608E-02  0.9879335E-01
          4   -1    0    0  502    0 -0.00000000000E+00  0.00000000000E+00  0.74520729908E+03  0.74520729908E+03  0.00000000000E+00 0.  1.
         21   -1    0    0  501  502  0.00000000000E+00 -0.00000000000E+00 -0.71910296371E+03  0.71910296371E+03  0.00000000000E+00 0.  1.
    9000010    2    1    2  501    0  0.12551682876E+03 -0.56609897857E+02 -0.34755707815E+03  0.10660866849E+04  0.99839157768E+03 0.  0.
        -13    1    3    3    0    0 -0.42180206628E+03  0.94242273351E+02 -0.21665048940E+03  0.48346254760E+03  0.10566000000E+00 0.  1.
          4    1    3    3  501    0  0.54731889505E+03 -0.15085217121E+03 -0.13090658875E+03  0.58262413734E+03  0.00000000000E+00 0.  1.
         13    1    1    2    0    0 -0.12551682876E+03  0.56609897857E+02  0.37366141352E+03  0.39822357785E+03  0.10566000000E+00 0. -1.
<mgrwt>
<rscale>  1 0.61273353E+03</rscale>
<asrwt>0</asrwt>
<pdfrwt beam="2">  1       21 0.11063122E+00 0.10078417E+04</pdfrwt>
<pdfrwt beam="1">  1        4 0.11464728E+00 0.10078417E+04</pdfrwt>
<totfact> 0.14104447E+01</totfact>
</mgrwt>
</event>
<event>
 6    1  0.1353269E-005  0.9806100E+03  0.7818608E-02  0.9693324E-01
         21   -1    0    0  501  502  0.00000000000E+00  0.00000000000E+00  0.29715772093E+04  0.29715772093E+04  0.00000000000E+00 0.  1.
          4   -1    0    0  502    0 -0.00000000000E+00 -0.00000000000E+00 -0.31415486347E+03  0.31415486347E+03  0.00000000000E+00 0.  1.
    9000010    2    1    2  501    0 -0.14304897706E+03  0.23586911381E+03  0.28059966442E+04  0.29724086264E+04  0.94100936564E+03 0.  0.
        -13    1    3    3    0    0 -0.27753555947E+02 -0.18551032116E+02 -0.72801808017E+02  0.80090667839E+02  0.10566000000E+00 0.  1.
          4    1    3    3  501    0 -0.11529542112E+03  0.25442014593E+03  0.28787984523E+04  0.28923179586E+04  0.00000000000E+00 0.  1.
         13    1    1    2    0    0  0.14304897706E+03 -0.23586911381E+03 -0.14857429845E+03  0.31332344632E+03  0.10566000000E+00 0. -1.
<mgrwt>
<rscale>  1 0.71415643E+03</rscale>
<asrwt>0</asrwt>
<pdfrwt beam="1">  1       21 0.45716571E+00 0.98060995E+03</pdfrwt>
<pdfrwt beam="2">  1        4 0.48331519E-01 0.98060995E+03</pdfrwt>
<totfact> 0.42030380E-01</totfact>
</mgrwt>
</event>
<event>
 6    1  0.1353269E-005  0.1068028E+04  0.7818608E-02  0.9547944E-01
         21   -1    0    0  501  502  0.00000000000E+00  0.00000000000E+00  0.10382545868E+04  0.10382545868E+04  0.00000000000E+00 0.  1.
          4   -1    0    0  502    0 -0.00000000000E+00 -0.00000000000E+00 -0.48677782433E+03  0.48677782433E+03  0.00000000000E+00 0.  1.
    9000010    2    1    2  501    0 -0.33067431255E+03  0.11635493801E+03  0.45906493571E+03  0.11625080265E+04  0.10088609041E+04 0.  0.
        -13    1    3    3    0    0 -0.16904199947E+03  0.54226481838E+03  0.41776504148E+03  0.70509146349E+03  0.10566000000E+00 0.  1.
          4    1    3    3  501    0 -0.16163231308E+03 -0.42590988037E+03  0.41299894223E+02  0.45741656298E+03  0.00000000000E+00 0.  1.
         13    1    1    2    0    0  0.33067431255E+03 -0.11635493801E+03  0.92411826759E+02  0.36252438466E+03  0.10566000000E+00 0. -1.
<mgrwt>
<rscale>  1 0.80839563E+03</rscale>
<asrwt>0</asrwt>
<pdfrwt beam="1">  1       21 0.15973147E+00 0.10680282E+04</pdfrwt>
<pdfrwt beam="2">  1        4 0.74888896E-01 0.10680282E+04</pdfrwt>
<totfact> 0.14360293E+01</totfact>
</mgrwt>
</event>
<event>
 6    1  0.1353269E-005  0.1212760E+04  0.7818608E-02  0.9257666E-01
         21   -1    0    0  501  502  0.00000000000E+00  0.00000000000E+00  0.10827888169E+04  0.10827888169E+04  0.00000000000E+00 0.  1.
          4   -1    0    0  502    0 -0.00000000000E+00 -0.00000000000E+00 -0.95570028760E+03  0.95570028760E+03  0.00000000000E+00 0.  1.
    9000010    2    1    2  501    0 -0.65530532952E+03  0.16449842156E+03  0.44496086371E+03  0.12918113710E+04  0.10071254353E+04 0.  0.
        -13    1    3    3    0    0 -0.71164920492E+03  0.41468717681E+03  0.57476964249E+03  0.10043755267E+04  0.10566000000E+00 0.  1.
          4    1    3    3  501    0  0.56343875405E+02 -0.25018875525E+03 -0.12980877878E+03  0.28743584432E+03  0.00000000000E+00 0.  1.
         13    1    1    2    0    0  0.65530532952E+03 -0.16449842156E+03 -0.31787233439E+03  0.74667773352E+03  0.10566000000E+00 0. -1.
<mgrwt>
<rscale>  1 0.10477542E+04</rscale>
<asrwt>0</asrwt>
<pdfrwt beam="1">  1       21 0.16658289E+00 0.12127598E+04</pdfrwt>
<pdfrwt beam="2">  1        4 0.14703081E+00 0.12127598E+04</pdfrwt>
<totfact> 0.23919446E+00</totfact>
</mgrwt>
</event>
<event>
 6    1  0.1353269E-005  0.7317189E+03  0.7818608E-02  0.1014046E+00
          4   -1    0    0  502    0 -0.00000000000E+00  0.00000000000E+00  0.66000974692E+03  0.66000974692E+03  0.00000000000E+00 0.  1.
         21   -1    0    0  501  502  0.00000000000E+00 -0.00000000000E+00 -0.32531830729E+03  0.32531830729E+03  0.00000000000E+00 0.  1.
    9000010    2    1    2  501    0 -0.11188931758E+03  0.11188285307E+03  0.15882675990E+03  0.74875800340E+03  0.71440577810E+03 0.  0.
        -13    1    3    3    0    0 -0.19433896211E+03 -0.27458991152E+03  0.65588760340E+02  0.34273772531E+03  0.10566000000E+00 0.  1.
          4    1    3    3  501    0  0.82449644534E+02  0.38647276459E+03  0.93237999556E+02  0.40602027809E+03  0.00000000000E+00 0.  1.
         13    1    1    2    0    0  0.11188931758E+03 -0.11188285307E+03  0.17586467974E+03  0.23657005081E+03  0.10566000000E+00 0. -1.
<mgrwt>
<rscale>  1 0.49897756E+03</rscale>
<asrwt>0</asrwt>
<pdfrwt beam="2">  1       21 0.50048970E-01 0.73171894E+03</pdfrwt>
<pdfrwt beam="1">  1        4 0.10153996E+00 0.73171894E+03</pdfrwt>
<totfact> 0.12304019E+02</totfact>
</mgrwt>
</event>
<event>
 6    1  0.1353269E-005  0.1004417E+04  0.7818608E-02  0.9938569E-01
          4   -1    0    0  502    0 -0.00000000000E+00  0.00000000000E+00  0.13431422849E+04  0.13431422849E+04  0.00000000000E+00 0.  1.
         21   -1    0    0  501  502  0.00000000000E+00 -0.00000000000E+00 -0.24761277775E+03  0.24761277775E+03  0.00000000000E+00 0.  1.
    9000010    2    1    2  501    0 -0.12717748481E+02  0.11430570067E+03  0.83572926079E+03  0.13066358738E+04  0.99781079113E+03 0.  0.
        -13    1    3    3    0    0  0.35450985878E+03 -0.63833754997E+02  0.82289425903E+03  0.89828000142E+03  0.10566000000E+00 0.  1.
          4    1    3    3  501    0 -0.36722760726E+03  0.17813945567E+03  0.12835001767E+02  0.40835587233E+03  0.00000000000E+00 0.  1.
         13    1    1    2    0    0  0.12717748481E+02 -0.11430570067E+03  0.25980024640E+03  0.28411918894E+03  0.10566000000E+00 0. -1.
<mgrwt>
<rscale>  1 0.58427932E+03</rscale>
<asrwt>0</asrwt>
<pdfrwt beam="2">  1       21 0.38094274E-01 0.10044172E+04</pdfrwt>
<pdfrwt beam="1">  1        4 0.20663727E+00 0.10044172E+04</pdfrwt>
<totfact> 0.31822022E+01</totfact>
</mgrwt>
</event>
<event>
 6    1  0.1353269E-005  0.9143090E+03  0.7818608E-02  0.9882528E-01
          4   -1    0    0  502    0 -0.00000000000E+00  0.00000000000E+00  0.10497840026E+04  0.10497840026E+04  0.00000000000E+00 0.  1.
         21   -1    0    0  501  502  0.00000000000E+00 -0.00000000000E+00 -0.33018442374E+03  0.33018442374E+03  0.00000000000E+00 0.  1.
    9000010    2    1    2  501    0 -0.14835857334E+03  0.10633034453E+03  0.37146898795E+03  0.98688913671E+03  0.89590432005E+03 0.  0.
        -13    1    3    3    0    0 -0.44091352584E+03  0.31907958276E+03  0.28754934705E+03  0.61554947450E+03  0.10566000000E+00 0.  1.
          4    1    3    3  501    0  0.29255495250E+03 -0.21274923823E+03  0.83919640906E+02  0.37133966221E+03  0.00000000000E+00 0.  1.
         13    1    1    2    0    0  0.14835857334E+03 -0.10633034453E+03  0.34813059090E+03  0.39307928963E+03  0.10566000000E+00 0. -1.
<mgrwt>
<rscale>  1 0.61115594E+03</rscale>
<asrwt>0</asrwt>
<pdfrwt beam="2">  1       21 0.50797604E-01 0.91430901E+03</pdfrwt>
<pdfrwt beam="1">  1        4 0.16150523E+00 0.91430901E+03</pdfrwt>
<totfact> 0.35753808E+01</totfact>
</mgrwt>
</event>
<event>
 6    1  0.1353269E-005  0.1025871E+04  0.7818608E-02  0.9722684E-01
          4   -1    0    0  502    0 -0.00000000000E+00  0.00000000000E+00  0.17936390927E+04  0.17936390927E+04  0.00000000000E+00 0.  1.
         21   -1    0    0  501  502  0.00000000000E+00 -0.00000000000E+00 -0.21642662979E+03  0.21642662979E+03  0.00000000000E+00 0.  1.
    9000010    2    1    2  501    0 -0.79499657941E+02 -0.20339190743E+03  0.12571624386E+04  0.16226118635E+04  0.10023589172E+04 0.  0.
        -13    1    3    3    0    0  0.40329662766E+02 -0.57557728210E+03  0.47189741364E+03  0.74538773100E+03  0.10566000000E+00 0.  1.
          4    1    3    3  501    0 -0.11982932071E+03  0.37218537467E+03  0.78526502492E+03  0.87722413246E+03  0.00000000000E+00 0.  1.
         13    1    1    2    0    0  0.79499657941E+02  0.20339190743E+03  0.32005002431E+03  0.38745385899E+03  0.10566000000E+00 0. -1.
<mgrwt>
<rscale>  1 0.69682116E+03</rscale>
<asrwt>0</asrwt>
<pdfrwt beam="2">  1       21 0.33296406E-01 0.10258713E+04</pdfrwt>
<pdfrwt beam="1">  1        4 0.27594447E+00 0.10258713E+04</pdfrwt>
<totfact> 0.15413670E+01</totfact>
</mgrwt>
</event>
<event>
 6    1  0.1353269E-005  0.1001902E+04  0.7818608E-02  0.9893497E-01
         21   -1    0    0  501  502  0.00000000000E+00  0.00000000000E+00  0.18519979221E+03  0.18519979221E+03  0.00000000000E+00 0.  1.
          4   -1    0    0  502    0 -0.00000000000E+00 -0.00000000000E+00 -0.19093574280E+04  0.19093574280E+04  0.00000000000E+00 0.  1.
    9000010    2    1    2  501    0 -0.10849711218E+03 -0.78464066688E+02 -0.12506221723E+04  0.16024555240E+04  0.99291472709E+03 0.  0.
        -13    1    3    3    0    0  0.32438461212E+03  0.28188250769E+03 -0.64844760644E+03  0.77792508262E+03  0.10566000000E+00 0.  1.
          4    1    3    3  501    0 -0.43288172430E+03 -0.36034657438E+03 -0.60217456587E+03  0.82453044133E+03  0.00000000000E+00 0.  1.
         13    1    1    2    0    0  0.10849711218E+03  0.78464066688E+02 -0.47353546345E+03  0.49210169622E+03  0.10566000000E+00 0. -1.
<mgrwt>
<rscale>  1 0.60577479E+03</rscale>
<asrwt>0</asrwt>
<pdfrwt beam="1">  1       21 0.28492274E-01 0.10019021E+04</pdfrwt>
<pdfrwt beam="2">  1        4 0.29374731E+00 0.10019021E+04</pdfrwt>
<totfact> 0.16461440E+01</totfact>
</mgrwt>
</event>
<event>
 6    1  0.1353269E-005  0.1007042E+04  0.7818608E-02  0.9794654E-01
          4   -1    0    0  502    0 -0.00000000000E+00  0.00000000000E+00  0.30087971723E+03  0.30087971723E+03  0.00000000000E+00 0.  1.
         21   -1    0    0  501  502  0.00000000000E+00 -0.00000000000E+00 -0.11745320024E+04  0.11745320024E+04  0.00000000000E+00 0.  1.
    9000010    2    1    2  501    0 -0.16830917546E+02 -0.18110637134E+03 -0.73803498844E+03  0.12485310024E+04  0.99048029876E+03 0.  0.
        -13    1    3    3    0    0 -0.23809605368E+03 -0.24692020024E+03  0.11735824595E+03  0.36253590873E+03  0.10566000000E+00 0.  1.
          4    1    3    3  501    0  0.22126513613E+03  0.65813828901E+02 -0.85539323439E+03  0.88599509365E+03  0.00000000000E+00 0.  1.
         13    1    1    2    0    0  0.16830917546E+02  0.18110637134E+03 -0.13561729675E+03  0.22688071726E+03  0.10566000000E+00 0. -1.
<mgrwt>
<rscale>  1 0.65650208E+03</rscale>
<asrwt>0</asrwt>
<pdfrwt beam="2">  1       21 0.18069723E+00 0.10070422E+04</pdfrwt>
<pdfrwt beam="1">  1        4 0.46289187E-01 0.10070422E+04</pdfrwt>
<totfact> 0.28647616E+01</totfact>
</mgrwt>
</event>
<event>
 6    1  0.1353269E-005  0.1292665E+04  0.7818608E-02  0.9353118E-01
         21   -1    0    0  501  502  0.00000000000E+00  0.00000000000E+00  0.25227477310E+03  0.25227477310E+03  0.00000000000E+00 0. -1.
          4   -1    0    0  502    0 -0.00000000000E+00 -0.00000000000E+00 -0.28519617405E+04  0.28519617405E+04  0.00000000000E+00 0.  1.
    9000010    2    1    2  501    0 -0.39070627573E+03  0.49340858140E+02 -0.18420373521E+04  0.22503519400E+04  0.12312174193E+04 0.  0.
        -13    1    3    3    0    0 -0.77791099957E+03 -0.11861208915E+03 -0.78202482265E+03  0.11094039775E+04  0.10566000000E+00 0.  1.
          4    1    3    3  501    0  0.38720472384E+03  0.16795294729E+03 -0.10600125294E+04  0.11409479625E+04  0.00000000000E+00 0.  1.
         13    1    1    2    0    0  0.39070627573E+03 -0.49340858140E+02 -0.75764961537E+03  0.85388457359E+03  0.10566000000E+00 0. -1.
<mgrwt>
<rscale>  1 0.96036425E+03</rscale>
<asrwt>0</asrwt>
<pdfrwt beam="1">  1       21 0.38811504E-01 0.12926648E+04</pdfrwt>
<pdfrwt beam="2">  1        4 0.43876334E+00 0.12926648E+04</pdfrwt>
<totfact> 0.90627543E-01</totfact>
</mgrwt>
</event>
<event>
 6    1  0.1353269E-005  0.1036860E+04  0.7818608E-02  0.9754390E-01
         21   -1    0    0  501  502  0.00000000000E+00  0.00000000000E+00  0.18235691841E+04  0.18235691841E+04  0.00000000000E+00 0.  1.
          4   -1    0    0  502    0 -0.00000000000E+00 -0.00000000000E+00 -0.22144495203E+03  0.22144495203E+03  0.00000000000E+00 0.  1.
    9000010    2    1    2  501    0  0.19033244258E+03  0.98755893223E+00  0.15146266764E+04  0.18355308495E+04  0.10192409512E+04 0.  0.
        -13    1    3    3    0    0  0.26500485079E+03 -0.33344643038E+03  0.18837237366E+03  0.46572336767E+03  0.10566000000E+00 0.  1.
          4    1    3    3  501    0 -0.74672408214E+02  0.33443398931E+03  0.13262543027E+04  0.13698074818E+04  0.00000000000E+00 0.  1.
         13    1    1    2    0    0 -0.19033244258E+03 -0.98755893223E+00  0.87497555700E+02  0.20948328666E+03  0.10566000000E+00 0. -1.
<mgrwt>
<rscale>  1 0.67868759E+03</rscale>
<asrwt>0</asrwt>
<pdfrwt beam="1">  1       21 0.28054909E+00 0.10368604E+04</pdfrwt>
<pdfrwt beam="2">  1        4 0.34068455E-01 0.10368604E+04</pdfrwt>
<totfact> 0.11730296E+01</totfact>
</mgrwt>
</event>
<event>
 6    1  0.1353269E-005  0.1233901E+04  0.7818608E-02  0.9223213E-01
         21   -1    0    0  501  502  0.00000000000E+00  0.00000000000E+00  0.90144133482E+03  0.90144133482E+03  0.00000000000E+00 0. -1.
          4   -1    0    0  502    0 -0.00000000000E+00 -0.00000000000E+00 -0.19379681898E+04  0.19379681898E+04  0.00000000000E+00 0.  1.
    9000010    2    1    2  501    0 -0.69901886246E+03 -0.20608793522E+03  0.34172452679E+03  0.12803468288E+04  0.99569711387E+03 0.  0.
        -13    1    3    3    0    0 -0.28814766287E+03 -0.19068371142E+03  0.67023988044E+03  0.75406290316E+03  0.10566000000E+00 0.  1.
          4    1    3    3  501    0 -0.41087119959E+03 -0.15404223801E+02 -0.32851535365E+03  0.52628392560E+03  0.00000000000E+00 0.  1.
         13    1    1    2    0    0  0.69901886246E+03  0.20608793522E+03 -0.13782513817E+04  0.15590626958E+04  0.10566000000E+00 0. -1.
<mgrwt>
<rscale>  1 0.10817012E+04</rscale>
<asrwt>0</asrwt>
<pdfrwt beam="1">  1       21 0.13868329E+00 0.12339013E+04</pdfrwt>
<pdfrwt beam="2">  1        4 0.29814895E+00 0.12339013E+04</pdfrwt>
<totfact> 0.40071902E-01</totfact>
</mgrwt>
</event>
<event>
 6    1  0.1353269E-005  0.1097487E+04  0.7818608E-02  0.9503286E-01
         21   -1    0    0  501  502  0.00000000000E+00  0.00000000000E+00  0.68214092650E+03  0.68214092650E+03  0.00000000000E+00 0.  1.
          4   -1    0    0  502    0 -0.00000000000E+00 -0.00000000000E+00 -0.80141093394E+03  0.80141093394E+03  0.00000000000E+00 0.  1.
    9000010    2    1    2  501    0 -0.36793328840E+03 -0.83938420212E+02 -0.13547603391E+03  0.11058175496E+04  0.10305620477E+04 0.  0.
        -13    1    3    3    0    0  0.10178705268E+03 -0.26050334619E+03 -0.43814115806E+03  0.51979830994E+03  0.10566000000E+00 0.  1.
          4    1    3    3  501    0 -0.46972034108E+03  0.17656492598E+03  0.30266512415E+03  0.58601923969E+03  0.00000000000E+00 0.  1.
         13    1    1    2    0    0  0.36793328840E+03  0.83938420212E+02  0.16206026478E+02  0.37773431081E+03  0.10566000000E+00 0. -1.
<mgrwt>
<rscale>  1 0.84041988E+03</rscale>
<asrwt>0</asrwt>
<pdfrwt beam="1">  1       21 0.10494476E+00 0.10974874E+04</pdfrwt>
<pdfrwt beam="2">  1        4 0.12329399E+00 0.10974874E+04</pdfrwt>
<totfact> 0.13304333E+01</totfact>
</mgrwt>
</event>
<event>
 6    1  0.1353269E-005  0.1056930E+04  0.7818608E-02  0.1020562E+00
          4   -1    0    0  502    0 -0.00000000000E+00  0.00000000000E+00  0.94026239081E+03  0.94026239081E+03  0.00000000000E+00 0.  1.
         21   -1    0    0  501  502  0.00000000000E+00 -0.00000000000E+00 -0.40894830689E+03  0.40894830689E+03  0.00000000000E+00 0.  1.
    9000010    2    1    2  501    0  0.13722801330E+02 -0.40813144631E+02  0.27884241045E+03  0.10930935660E+04  0.10560522838E+04 0.  0.
        -13    1    3    3    0    0  0.38061327182E+03  0.13134871223E+03 -0.21322620181E+03  0.45561427896E+03  0.10566000000E+00 0.  1.
          4    1    3    3  501    0 -0.36689047049E+03 -0.17216185686E+03  0.49206861226E+03  0.63747928709E+03  0.00000000000E+00 0.  1.
         13    1    1    2    0    0 -0.13722801330E+02  0.40813144631E+02  0.25247167348E+03  0.25611713165E+03  0.10566000000E+00 0. -1.
<mgrwt>
<rscale>  1 0.47484235E+03</rscale>
<asrwt>0</asrwt>
<pdfrwt beam="2">  1       21 0.62915124E-01 0.10569297E+04</pdfrwt>
<pdfrwt beam="1">  1        4 0.14465575E+00 0.10569297E+04</pdfrwt>
<totfact> 0.29664119E+01</totfact>
</mgrwt>
</event>
<event>
 6    1  0.1353269E-005  0.1016357E+04  0.7818608E-02  0.9881415E-01
          4   -1    0    0  502    0 -0.00000000000E+00  0.00000000000E+00  0.32792097114E+03  0.32792097114E+03  0.00000000000E+00 0.  1.
         21   -1    0    0  501  502  0.00000000000E+00 -0.00000000000E+00 -0.14353842322E+04  0.14353842322E+04  0.00000000000E+00 0.  1.
    9000010    2    1    2  501    0 -0.10633349002E+03 -0.80488119101E+02 -0.12206509817E+04  0.15883863088E+04  0.10075698975E+04 0.  0.
        -13    1    3    3    0    0  0.10688458888E+03 -0.34548591842E+03 -0.44889756324E+02  0.36441725612E+03  0.10566000000E+00 0.  1.
          4    1    3    3  501    0 -0.21321807890E+03  0.26499779932E+03 -0.11757612253E+04  0.12239690526E+04  0.00000000000E+00 0.  1.
         13    1    1    2    0    0  0.10633349002E+03  0.80488119101E+02  0.11318772061E+03  0.17491889457E+03  0.10566000000E+00 0. -1.
<mgrwt>
<rscale>  1 0.61170502E+03</rscale>
<asrwt>0</asrwt>
<pdfrwt beam="2">  1       21 0.22082834E+00 0.10163573E+04</pdfrwt>
<pdfrwt beam="1">  1        4 0.50449380E-01 0.10163573E+04</pdfrwt>
<totfact> 0.12640312E+01</totfact>
</mgrwt>
</event>
<event>
 6    1  0.1353269E-005  0.1037560E+04  0.7818608E-02  0.9724813E-01
         21   -1    0    0  501  502  0.00000000000E+00  0.00000000000E+00  0.59864977892E+03  0.59864977892E+03  0.00000000000E+00 0.  1.
          4   -1    0    0  502    0 -0.00000000000E+00 -0.00000000000E+00 -0.83974084135E+03  0.83974084135E+03  0.00000000000E+00 0.  1.
    9000010    2    1    2  501    0  0.19494716546E+03  0.76950974832E+02  0.95431510381E+02  0.10419397368E+04  0.10161719304E+04 0.  0.
        -13    1    3    3    0    0 -0.22986880198E+03  0.16174277739E+03 -0.33088817660E+03  0.43415134312E+03  0.10566000000E+00 0.  1.
          4    1    3    3  501    0  0.42481596743E+03 -0.84791802557E+02  0.42631968698E+03  0.60778839366E+03  0.00000000000E+00 0.  1.
         13    1    1    2    0    0 -0.19494716546E+03 -0.76950974832E+02 -0.33652257280E+03  0.39645088349E+03  0.10566000000E+00 0. -1.
<mgrwt>
<rscale>  1 0.69558471E+03</rscale>
<asrwt>0</asrwt>
<pdfrwt beam="1">  1       21 0.92099966E-01 0.10375602E+04</pdfrwt>
<pdfrwt beam="2">  1        4 0.12919090E+00 0.10375602E+04</pdfrwt>
<totfact> 0.16401703E+01</totfact>
</mgrwt>
</event>
<event>
 6    1  0.1353269E-005  0.1000538E+04  0.7818608E-02  0.1000386E+00
         21   -1    0    0  501  502  0.00000000000E+00  0.00000000000E+00  0.77574828444E+03  0.77574828444E+03  0.00000000000E+00 0.  1.
          4   -1    0    0  502    0 -0.00000000000E+00 -0.00000000000E+00 -0.38663511991E+03  0.38663511991E+03  0.00000000000E+00 0.  1.
    9000010    2    1    2  501    0  0.99814865927E+01  0.94071368541E+02  0.34948202094E+03  0.10598178587E+04  0.99605580072E+03 0.  0.
        -13    1    3    3    0    0  0.49768978373E+03  0.10610276220E+03  0.13222474184E+03  0.52577210890E+03  0.10566000000E+00 0.  1.
          4    1    3    3  501    0 -0.48770829714E+03 -0.12031393657E+02  0.21725727909E+03  0.53404574977E+03  0.00000000000E+00 0.  1.
         13    1    1    2    0    0 -0.99814865927E+01 -0.94071368541E+02  0.39631143593E+02  0.10256554568E+03  0.10566000000E+00 0. -1.
<mgrwt>
<rscale>  1 0.55481403E+03</rscale>
<asrwt>0</asrwt>
<pdfrwt beam="1">  1       21 0.11934589E+00 0.10005380E+04</pdfrwt>
<pdfrwt beam="2">  1        4 0.59482326E-01 0.10005380E+04</pdfrwt>
<totfact> 0.53240365E+01</totfact>
</mgrwt>
</event>
<event>
 6    1  0.1353269E-005  0.1004890E+04  0.7818608E-02  0.9853487E-01
         21   -1    0    0  501  502  0.00000000000E+00  0.00000000000E+00  0.24105986270E+03  0.24105986270E+03  0.00000000000E+00 0.  1.
          4   -1    0    0  502    0 -0.00000000000E+00 -0.00000000000E+00 -0.13890464251E+04  0.13890464251E+04  0.00000000000E+00 0.  1.
    9000010    2    1    2  501    0 -0.12400130458E+03  0.86237615775E+02 -0.97008730468E+03  0.13967366090E+04  0.99347396865E+03 0.  0.
        -13    1    3    3    0    0 -0.32879925929E+03  0.27387179091E+03 -0.44329969667E+02  0.43020909816E+03  0.10566000000E+00 0.  1.
          4    1    3    3  501    0  0.20479795471E+03 -0.18763417514E+03 -0.92575733501E+03  0.96652751086E+03  0.00000000000E+00 0.  1.
         13    1    1    2    0    0  0.12400130458E+03 -0.86237615775E+02 -0.17789925772E+03  0.23336967878E+03  0.10566000000E+00 0. -1.
<mgrwt>
<rscale>  1 0.62569444E+03</rscale>
<asrwt>0</asrwt>
<pdfrwt beam="1">  1       21 0.37086134E-01 0.10048899E+04</pdfrwt>
<pdfrwt beam="2">  1        4 0.21369944E+00 0.10048899E+04</pdfrwt>
<totfact> 0.30274650E+01</totfact>
</mgrwt>
</event>
<event>
 6    1  0.1353269E-005  0.1048192E+04  0.7818608E-02  0.9545125E-01
         21   -1    0    0  501  502  0.00000000000E+00  0.00000000000E+00  0.99730316334E+03  0.99730316334E+03  0.00000000000E+00 0.  1.
          4   -1    0    0  502    0 -0.00000000000E+00 -0.00000000000E+00 -0.50736558679E+03  0.50736558679E+03  0.00000000000E+00 0.  1.
    9000010    2    1    2  501    0  0.23410974611E+03 -0.29226438675E+03  0.35849510367E+03  0.11078022993E+04  0.97902060750E+03 0.  0.
        -13    1    3    3    0    0 -0.36397257840E+03 -0.26087795843E+03  0.12435313597E+03  0.46475483926E+03  0.10566000000E+00 0.  1.
          4    1    3    3  501    0  0.59808232452E+03 -0.31386428316E+02  0.23414196770E+03  0.64304746000E+03  0.00000000000E+00 0.  1.
         13    1    1    2    0    0 -0.23410974611E+03  0.29226438675E+03  0.13144247288E+03  0.39686645087E+03  0.10566000000E+00 0. -1.
<mgrwt>
<rscale>  1 0.81037177E+03</rscale>
<asrwt>0</asrwt>
<pdfrwt beam="1">  1       21 0.15343126E+00 0.10481923E+04</pdfrwt>
<pdfrwt beam="2">  1        4 0.78056244E-01 0.10481923E+04</pdfrwt>
<totfact> 0.14680219E+01</totfact>
</mgrwt>
</event>
<event>
 6    1  0.1353269E-005  0.1147706E+04  0.7818608E-02  0.9368266E-01
         21   -1    0    0  501  502  0.00000000000E+00  0.00000000000E+00  0.13844725662E+04  0.13844725662E+04  0.00000000000E+00 0.  1.
          4   -1    0    0  502    0 -0.00000000000E+00 -0.00000000000E+00 -0.51885119150E+03  0.51885119150E+03  0.00000000000E+00 0.  1.
    9000010    2    1    2  501    0  0.23508390148E+03  0.47808659788E+03  0.47221112225E+03  0.12410527605E+04  0.10165615449E+04 0.  0.
        -13    1    3    3    0    0  0.59838801879E+03  0.42313380897E+03  0.47546760745E+03  0.87360168167E+03  0.10566000000E+00 0.  1.
          4    1    3    3  501    0 -0.36330411731E+03  0.54952788914E+02 -0.32564852069E+01  0.36745107886E+03  0.00000000000E+00 0.  1.
         13    1    1    2    0    0 -0.23508390148E+03 -0.47808659788E+03  0.39341025248E+03  0.66227099720E+03  0.10566000000E+00 0. -1.
<mgrwt>
<rscale>  1 0.94733921E+03</rscale>
<asrwt>0</asrwt>
<pdfrwt beam="1">  1       21 0.21299578E+00 0.11477058E+04</pdfrwt>
<pdfrwt beam="2">  1        4 0.79823261E-01 0.11477058E+04</pdfrwt>
<totfact> 0.50957997E+00</totfact>
</mgrwt>
</event>
<event>
 6    1  0.1353269E-005  0.1044248E+04  0.7818608E-02  0.9626260E-01
         21   -1    0    0  501  502  0.00000000000E+00  0.00000000000E+00  0.92142835176E+03  0.92142835176E+03  0.00000000000E+00 0.  1.
          4   -1    0    0  502    0 -0.00000000000E+00 -0.00000000000E+00 -0.49276033384E+03  0.49276033384E+03  0.00000000000E+00 0.  1.
    9000010    2    1    2  501    0  0.26308154821E+03 -0.11368485514E+03  0.42540970957E+03  0.11275760986E+04  0.10041505314E+04 0.  0.
        -13    1    3    3    0    0 -0.21330153442E+03  0.29248915178E+03 -0.14729724061E+02  0.36230432571E+03  0.10566000000E+00 0.  1.
          4    1    3    3  501    0  0.47638308263E+03 -0.40617400693E+03  0.44013943363E+03  0.76527177287E+03  0.00000000000E+00 0.  1.
         13    1    1    2    0    0 -0.26308154821E+03  0.11368485514E+03  0.32583083515E+01  0.28661258702E+03  0.10566000000E+00 0. -1.
<mgrwt>
<rscale>  1 0.75582216E+03</rscale>
<asrwt>0</asrwt>
<pdfrwt beam="1">  1       21 0.14175821E+00 0.10442483E+04</pdfrwt>
<pdfrwt beam="2">  1        4 0.75809282E-01 0.10442483E+04</pdfrwt>
<totfact> 0.19552839E+01</totfact>
</mgrwt>
</event>
<event>
 6    1  0.1353269E-005  0.9886168E+03  0.7818608E-02  0.9992103E-01
         21   -1    0    0  501  502  0.00000000000E+00  0.00000000000E+00  0.31450949394E+03  0.31450949394E+03  0.00000000000E+00 0.  1.
          4   -1    0    0  502    0 -0.00000000000E+00 -0.00000000000E+00 -0.96751608024E+03  0.96751608024E+03  0.00000000000E+00 0.  1.
    9000010    2    1    2  501    0 -0.99024168671E+02  0.23462444560E+02 -0.52782393208E+03  0.11206967783E+04  0.98336508655E+03 0.  0.
        -13    1    3    3    0    0  0.37433137232E+03  0.12959350319E+03  0.10207797376E+02  0.39626085179E+03  0.10566000000E+00 0.  1.
          4    1    3    3  501    0 -0.47335554099E+03 -0.10613105863E+03 -0.53803172946E+03  0.72443592656E+03  0.00000000000E+00 0.  1.
         13    1    1    2    0    0  0.99024168671E+02 -0.23462444560E+02 -0.12518265422E+03  0.16132879584E+03  0.10566000000E+00 0. -1.
<mgrwt>
<rscale>  1 0.55997866E+03</rscale>
<asrwt>0</asrwt>
<pdfrwt beam="1">  1       21 0.48386077E-01 0.98861679E+03</pdfrwt>
<pdfrwt beam="2">  1        4 0.14884862E+00 0.98861679E+03</pdfrwt>
<totfact> 0.49238953E+01</totfact>
</mgrwt>
</event>
<event>
 6    1  0.1353269E-005  0.1099383E+04  0.7818608E-02  0.9462778E-01
          4   -1    0    0  502    0 -0.00000000000E+00  0.00000000000E+00  0.62062509787E+03  0.62062509787E+03  0.00000000000E+00 0.  1.
         21   -1    0    0  501  502  0.00000000000E+00 -0.00000000000E+00 -0.95650759380E+03  0.95650759380E+03  0.00000000000E+00 0. -1.
    9000010    2    1    2  501    0  0.13489027061E+03 -0.41127340627E+03 -0.16456378260E+03  0.11116315504E+04  0.10105950057E+04 0.  0.
        -13    1    3    3    0    0  0.94400805735E+01  0.20947423863E+03  0.27126351519E+03  0.34285926793E+03  0.10566000000E+00 0.  1.
          4    1    3    3  501    0  0.12545019004E+03 -0.62074764490E+03 -0.43582729779E+03  0.76877228249E+03  0.00000000000E+00 0.  1.
         13    1    1    2    0    0 -0.13489027061E+03  0.41127340627E+03 -0.17131871332E+03  0.46550114126E+03  0.10566000000E+00 0. -1.
<mgrwt>
<rscale>  1 0.87084537E+03</rscale>
<asrwt>0</asrwt>
<pdfrwt beam="2">  1       21 0.14715501E+00 0.10993832E+04</pdfrwt>
<pdfrwt beam="1">  1        4 0.95480785E-01 0.10993832E+04</pdfrwt>
<totfact> 0.10246136E+01</totfact>
</mgrwt>
</event>
<event>
 6    1  0.1353269E-005  0.1003084E+04  0.7818608E-02  0.1043164E+00
          4   -1    0    0  502    0 -0.00000000000E+00  0.00000000000E+00  0.10009253859E+04  0.10009253859E+04  0.00000000000E+00 0.  1.
         21   -1    0    0  501  502  0.00000000000E+00 -0.00000000000E+00 -0.27888273381E+03  0.27888273381E+03  0.00000000000E+00 0.  1.
    9000010    2    1    2  501    0 -0.22938892775E+02 -0.11852514310E+02  0.63070461167E+03  0.11848906625E+04  0.10027516641E+04 0.  0.
        -13    1    3    3    0    0  0.69894499111E+02 -0.47313180426E+03  0.12539661302E+03  0.49443226729E+03  0.10566000000E+00 0.  1.
          4    1    3    3  501    0 -0.92833391886E+02  0.46127928995E+03  0.50530799865E+03  0.69045839519E+03  0.00000000000E+00 0.  1.
         13    1    1    2    0    0  0.22938892775E+02  0.11852514310E+02  0.91338040418E+02  0.94917457239E+02  0.10566000000E+00 0. -1.
<mgrwt>
<rscale>  1 0.40178448E+03</rscale>
<asrwt>0</asrwt>
<pdfrwt beam="2">  1       21 0.42905036E-01 0.10030840E+04</pdfrwt>
<pdfrwt beam="1">  1        4 0.15398852E+00 0.10030840E+04</pdfrwt>
<totfact> 0.58008866E+01</totfact>
</mgrwt>
</event>
<event>
 6    1  0.1353269E-005  0.1006511E+04  0.7818608E-02  0.9917063E-01
          4   -1    0    0  502    0 -0.00000000000E+00  0.00000000000E+00  0.57252622775E+03  0.57252622775E+03  0.00000000000E+00 0.  1.
         21   -1    0    0  501  502  0.00000000000E+00 -0.00000000000E+00 -0.55653872968E+03  0.55653872968E+03  0.00000000000E+00 0.  1.
    9000010    2    1    2  501    0 -0.96584856478E+02  0.75241751766E+02  0.15474882327E+02  0.10066303641E+04  0.99903716758E+03 0.  0.
        -13    1    3    3    0    0  0.33008644624E+03 -0.23801046797E+03 -0.17650268772E+03  0.44357553448E+03  0.10566000000E+00 0.  1.
          4    1    3    3  501    0 -0.42667130272E+03  0.31325221974E+03  0.19197757005E+03  0.56305482960E+03  0.00000000000E+00 0.  1.
         13    1    1    2    0    0  0.96584856478E+02 -0.75241751766E+02  0.51261574474E+00  0.12243459335E+03  0.10566000000E+00 0. -1.
<mgrwt>
<rscale>  1 0.59441419E+03</rscale>
<asrwt>0</asrwt>
<pdfrwt beam="2">  1       21 0.85621343E-01 0.10065114E+04</pdfrwt>
<pdfrwt beam="1">  1        4 0.88080958E-01 0.10065114E+04</pdfrwt>
<totfact> 0.50096337E+01</totfact>
</mgrwt>
</event>
<event>
 6    1  0.1353269E-005  0.1220646E+04  0.7818608E-02  0.9246103E-01
          4   -1    0    0  502    0 -0.00000000000E+00  0.00000000000E+00  0.73997166969E+03  0.73997166969E+03  0.00000000000E+00 0.  1.
         21   -1    0    0  501  502  0.00000000000E+00 -0.00000000000E+00 -0.12356943476E+04  0.12356943476E+04  0.00000000000E+00 0.  1.
    9000010    2    1    2  501    0 -0.27411543503E+02 -0.69098675927E+03 -0.33285998379E+03  0.12652166085E+04  0.10058644060E+04 0.  0.
        -13    1    3    3    0    0 -0.28362620243E+03 -0.15875467853E+02  0.21710741613E+03  0.35753530523E+03  0.10566000000E+00 0.  1.
          4    1    3    3  501    0  0.25621465893E+03 -0.67511129142E+03 -0.54996739992E+03  0.90768130322E+03  0.00000000000E+00 0.  1.
         13    1    1    2    0    0  0.27411543503E+02  0.69098675927E+03 -0.16286269410E+03  0.71044940882E+03  0.10566000000E+00 0. -1.
<mgrwt>
<rscale>  1 0.10589981E+04</rscale>
<asrwt>0</asrwt>
<pdfrwt beam="2">  1       21 0.19010682E+00 0.12206463E+04</pdfrwt>
<pdfrwt beam="1">  1        4 0.11384180E+00 0.12206463E+04</pdfrwt>
<totfact> 0.31062181E+00</totfact>
</mgrwt>
</event>
<event>
 6    1  0.1353269E-005  0.1038519E+04  0.7818608E-02  0.1019207E+00
         21   -1    0    0  501  502  0.00000000000E+00  0.00000000000E+00  0.37428543635E+03  0.37428543635E+03  0.00000000000E+00 0.  1.
          4   -1    0    0  502    0 -0.00000000000E+00 -0.00000000000E+00 -0.78782704517E+03  0.78782704517E+03  0.00000000000E+00 0.  1.
    9000010    2    1    2  501    0 -0.27818123754E+02  0.38242886843E+02 -0.40037579064E+03  0.11130236199E+04  0.10374412939E+04 0.  0.
        -13    1    3    3    0    0 -0.52388317513E+03 -0.24691490315E+02 -0.29591814764E+03  0.60218835271E+03  0.10566000000E+00 0.  1.
          4    1    3    3  501    0  0.49606505137E+03  0.62934377159E+02 -0.10445764300E+03  0.51083526719E+03  0.00000000000E+00 0.  1.
         13    1    1    2    0    0  0.27818123754E+02 -0.38242886843E+02 -0.13165818183E+02  0.49088861626E+02  0.10566000000E+00 0. -1.
<mgrwt>
<rscale>  1 0.47973775E+03</rscale>
<asrwt>0</asrwt>
<pdfrwt beam="1">  1       21 0.57582375E-01 0.10385186E+04</pdfrwt>
<pdfrwt beam="2">  1        4 0.12120416E+00 0.10385186E+04</pdfrwt>
<totfact> 0.57225584E+01</totfact>
</mgrwt>
</event>
<event>
 6    1  0.1353269E-005  0.1103081E+04  0.7818608E-02  0.9686300E-01
         21   -1    0    0  501  502  0.00000000000E+00  0.00000000000E+00  0.29419969137E+03  0.29419969137E+03  0.00000000000E+00 0.  1.
          4   -1    0    0  502    0 -0.00000000000E+00 -0.00000000000E+00 -0.15668959329E+04  0.15668959329E+04  0.00000000000E+00 0.  1.
    9000010    2    1    2  501    0 -0.92770902823E+02 -0.17540653798E+03 -0.84475310043E+03  0.13893867764E+04  0.10850870563E+04 0.  0.
        -13    1    3    3    0    0 -0.22429298496E+03 -0.38484841549E+03 -0.10018392626E+04  0.10964021002E+04  0.10566000000E+00 0.  1.
          4    1    3    3  501    0  0.13152208214E+03  0.20944187751E+03  0.15708616219E+03  0.29298467622E+03  0.00000000000E+00 0.  1.
         13    1    1    2    0    0  0.92770902823E+02  0.17540653798E+03 -0.42794314114E+03  0.47170884790E+03  0.10566000000E+00 0. -1.
<mgrwt>
<rscale>  1 0.71838397E+03</rscale>
<asrwt>0</asrwt>
<pdfrwt beam="1">  1       21 0.45261490E-01 0.11030811E+04</pdfrwt>
<pdfrwt beam="2">  1        4 0.24106092E+00 0.11030811E+04</pdfrwt>
<totfact> 0.13231983E+01</totfact>
</mgrwt>
</event>
<event>
 6    1  0.1353269E-005  0.1114587E+04  0.7818608E-02  0.9538709E-01
         21   -1    0    0  501  502  0.00000000000E+00  0.00000000000E+00  0.12712653985E+04  0.12712653985E+04  0.00000000000E+00 0.  1.
          4   -1    0    0  502    0 -0.00000000000E+00 -0.00000000000E+00 -0.43587423036E+03  0.43587423036E+03  0.00000000000E+00 0.  1.
    9000010    2    1    2  501    0 -0.22485922755E+03  0.22551258892E+03  0.82818869676E+03  0.13885968739E+04  0.10681231955E+04 0.  0.
        -13    1    3    3    0    0 -0.43200753683E+03  0.48994430342E+03  0.82550236221E+03  0.10526775829E+04  0.10566000000E+00 0.  1.
          4    1    3    3  501    0  0.20714830928E+03 -0.26443171450E+03  0.26863345470E+01  0.33591929100E+03  0.00000000000E+00 0.  1.
         13    1    1    2    0    0  0.22485922755E+03 -0.22551258892E+03  0.72024713611E+01  0.31854275495E+03  0.10566000000E+00 0. -1.
<mgrwt>
<rscale>  1 0.81489139E+03</rscale>
<asrwt>0</asrwt>
<pdfrwt beam="1">  1       21 0.19557929E+00 0.11145873E+04</pdfrwt>
<pdfrwt beam="2">  1        4 0.67057575E-01 0.11145873E+04</pdfrwt>
<totfact> 0.99877473E+00</totfact>
</mgrwt>
</event>
<event>
 6    1  0.1353269E-005  0.1010755E+04  0.7818608E-02  0.1003291E+00
         21   -1    0    0  501  502  0.00000000000E+00  0.00000000000E+00  0.90903316637E+03  0.90903316637E+03  0.00000000000E+00 0.  1.
          4   -1    0    0  502    0 -0.00000000000E+00 -0.00000000000E+00 -0.33056597020E+03  0.33056597020E+03  0.00000000000E+00 0.  1.
    9000010    2    1    2  501    0 -0.70831063930E+02 -0.44705154671E+02  0.51424210115E+03  0.11340507379E+04  0.10072787832E+04 0.  0.
        -13    1    3    3    0    0  0.15622048894E+03  0.44336224390E+02 -0.26872403568E+03  0.31397955423E+03  0.10566000000E+00 0.  1.
          4    1    3    3  501    0 -0.22705155287E+03 -0.89041379061E+02  0.78296613683E+03  0.82007118366E+03  0.00000000000E+00 0.  1.
         13    1    1    2    0    0  0.70831063930E+02  0.44705154671E+02  0.64225095018E+02  0.10554839869E+03  0.10566000000E+00 0. -1.
<mgrwt>
<rscale>  1 0.54230383E+03</rscale>
<asrwt>0</asrwt>
<pdfrwt beam="1">  1       21 0.13985126E+00 0.10107552E+04</pdfrwt>
<pdfrwt beam="2">  1        4 0.50856303E-01 0.10107552E+04</pdfrwt>
<totfact> 0.48864885E+01</totfact>
</mgrwt>
</event>
<event>
 6    1  0.1353269E-005  0.1025582E+04  0.7818608E-02  0.9647895E-01
          4   -1    0    0  502    0 -0.00000000000E+00  0.00000000000E+00  0.37124677553E+03  0.37124677553E+03  0.00000000000E+00 0.  1.
         21   -1    0    0  501  502  0.00000000000E+00 -0.00000000000E+00 -0.16782380508E+04  0.16782380508E+04  0.00000000000E+00 0.  1.
    9000010    2    1    2  501    0 -0.14978861525E+03  0.23784913889E+03 -0.14156670458E+04  0.17481224590E+04  0.98631136316E+03 0.  0.
        -13    1    3    3    0    0 -0.60084585857E+01  0.51238550402E+03 -0.30787403462E+03  0.59779715511E+03  0.10566000000E+00 0.  1.
          4    1    3    3  501    0 -0.14378015667E+03 -0.27453636513E+03 -0.11077930112E+04  0.11503253039E+04  0.00000000000E+00 0.  1.
         13    1    1    2    0    0  0.14978861525E+03 -0.23784913889E+03  0.10867577056E+03  0.30136236726E+03  0.10566000000E+00 0. -1.
<mgrwt>
<rscale>  1 0.74205713E+03</rscale>
<asrwt>0</asrwt>
<pdfrwt beam="2">  1       21 0.25819047E+00 0.10255822E+04</pdfrwt>
<pdfrwt beam="1">  1        4 0.57114889E-01 0.10255822E+04</pdfrwt>
<totfact> 0.55640873E+00</totfact>
</mgrwt>
</event>
<event>
 6    1  0.1353269E-005  0.1275618E+04  0.7818608E-02  0.9248457E-01
         21   -1    0    0  501  502  0.00000000000E+00  0.00000000000E+00  0.98188754643E+03  0.98188754643E+03  0.00000000000E+00 0.  1.
          4   -1    0    0  502    0 -0.00000000000E+00 -0.00000000000E+00 -0.89736385610E+03  0.89736385610E+03  0.00000000000E+00 0.  1.
    9000010    2    1    2  501    0 -0.48401026564E+03  0.35573283704E+03  0.86846704606E+02  0.12785707918E+04  0.11253395625E+04 0.  0.
        -13    1    3    3    0    0 -0.30671146691E+03 -0.26236244366E+03 -0.32221971371E+03  0.51646058014E+03  0.10566000000E+00 0.  1.
          4    1    3    3  501    0 -0.17729879873E+03  0.61809528070E+03  0.40906641831E+03  0.76211021161E+03  0.00000000000E+00 0.  1.
         13    1    1    2    0    0  0.48401026564E+03 -0.35573283704E+03 -0.23230142748E+01  0.60068061077E+03  0.10566000000E+00 0. -1.
<mgrwt>
<rscale>  1 0.10566971E+04</rscale>
<asrwt>0</asrwt>
<pdfrwt beam="1">  1       21 0.15105962E+00 0.12756179E+04</pdfrwt>
<pdfrwt beam="2">  1        4 0.13805598E+00 0.12756179E+04</pdfrwt>
<totfact> 0.37163564E+00</totfact>
</mgrwt>
</event>
<event>
 6    1  0.1353269E-005  0.1039732E+04  0.7818608E-02  0.9759777E-01
          4   -1    0    0  502    0 -0.00000000000E+00  0.00000000000E+00  0.58014536063E+03  0.58014536063E+03  0.00000000000E+00 0.  1.
         21   -1    0    0  501  502  0.00000000000E+00 -0.00000000000E+00 -0.74327002250E+03  0.74327002250E+03  0.00000000000E+00 0.  1.
    9000010    2    1    2  501    0 -0.12377244192E+03 -0.13806529310E+03 -0.31209552779E+03  0.10855625450E+04  0.10230644057E+04 0.  0.
        -13    1    3    3    0    0 -0.51612546029E+03  0.10392672660E+03 -0.33497830274E+03  0.62401661014E+03  0.10566000000E+00 0.  1.
          4    1    3    3  501    0  0.39235301837E+03 -0.24199201970E+03  0.22882774945E+02  0.46154593488E+03  0.00000000000E+00 0.  1.
         13    1    1    2    0    0  0.12377244192E+03  0.13806529310E+03  0.14897086593E+03  0.23785283811E+03  0.10566000000E+00 0. -1.
<mgrwt>
<rscale>  1 0.67566570E+03</rscale>
<asrwt>0</asrwt>
<pdfrwt beam="2">  1       21 0.11434923E+00 0.10397319E+04</pdfrwt>
<pdfrwt beam="1">  1        4 0.89253133E-01 0.10397319E+04</pdfrwt>
<totfact> 0.23676593E+01</totfact>
</mgrwt>
</event>
<event>
 6    1  0.1353269E-005  0.1127862E+04  0.7818608E-02  0.9506959E-01
          4   -1    0    0  502    0 -0.00000000000E+00  0.00000000000E+00  0.16955183866E+04  0.16955183866E+04  0.00000000000E+00 0.  1.
         21   -1    0    0  501  502  0.00000000000E+00 -0.00000000000E+00 -0.32022635716E+03  0.32022635716E+03  0.00000000000E+00 0.  1.
    9000010    2    1    2  501    0 -0.28633061455E+03 -0.18934644316E+03  0.10027848865E+04  0.15091888445E+04  0.10743538260E+04 0.  0.
        -13    1    3    3    0    0 -0.11652442371E+03  0.27051416360E+03 -0.92896570399E+02  0.30884565398E+03  0.10566000000E+00 0.  1.
          4    1    3    3  501    0 -0.16980619084E+03 -0.45986060676E+03  0.10956814569E+04  0.12003431905E+04  0.00000000000E+00 0.  1.
         13    1    1    2    0    0  0.28633061455E+03  0.18934644316E+03  0.37250714300E+03  0.50655589930E+03  0.10566000000E+00 0. -1.
<mgrwt>
<rscale>  1 0.83772682E+03</rscale>
<asrwt>0</asrwt>
<pdfrwt beam="2">  1       21 0.49265594E-01 0.11278623E+04</pdfrwt>
<pdfrwt beam="1">  1        4 0.26084898E+00 0.11278623E+04</pdfrwt>
<totfact> 0.82889790E+00</totfact>
</mgrwt>
</event>
<event>
 6    1  0.1353269E-005  0.9855211E+03  0.7818608E-02  0.1004030E+00
         21   -1    0    0  501  502  0.00000000000E+00  0.00000000000E+00  0.94624525935E+03  0.94624525935E+03  0.00000000000E+00 0.  1.
          4   -1    0    0  502    0 -0.00000000000E+00 -0.00000000000E+00 -0.37938158029E+03  0.37938158029E+03  0.00000000000E+00 0.  1.
    9000010    2    1    2  501    0  0.81639846176E+02  0.33626676957E+02  0.66860353616E+03  0.11909166783E+04  0.98155795965E+03 0.  0.
        -13    1    3    3    0    0  0.39942333237E+03  0.89708520997E+02 -0.40964482796E+02  0.41141793495E+03  0.10566000000E+00 0.  1.
          4    1    3    3  501    0 -0.31778348620E+03 -0.56081844039E+02  0.70956801895E+03  0.77949874333E+03  0.00000000000E+00 0.  1.
         13    1    1    2    0    0 -0.81639846176E+02 -0.33626676957E+02 -0.10173985710E+03  0.13471016136E+03  0.10566000000E+00 0. -1.
<mgrwt>
<rscale>  1 0.53917809E+03</rscale>
<asrwt>0</asrwt>
<pdfrwt beam="1">  1       21 0.14557619E+00 0.98552110E+03</pdfrwt>
<pdfrwt beam="2">  1        4 0.58366397E-01 0.98552110E+03</pdfrwt>
<totfact> 0.32670788E+01</totfact>
</mgrwt>
</event>
<event>
 6    1  0.1353269E-005  0.1301096E+04  0.7818608E-02  0.9146728E-01
         21   -1    0    0  501  502  0.00000000000E+00  0.00000000000E+00  0.13263365230E+04  0.13263365230E+04  0.00000000000E+00 0. -1.
          4   -1    0    0  502    0 -0.00000000000E+00 -0.00000000000E+00 -0.92900499412E+03  0.92900499412E+03  0.00000000000E+00 0.  1.
    9000010    2    1    2  501    0 -0.57891522032E+03 -0.59186924125E+03  0.55156315185E+03  0.14131779726E+04  0.10036922041E+04 0.  0.
        -13    1    3    3    0    0 -0.50152037688E+03 -0.45947284124E+02 -0.14567623779E+03  0.52426655317E+03  0.10566000000E+00 0.  1.
          4    1    3    3  501    0 -0.77394843435E+02 -0.54592195713E+03  0.69723938964E+03  0.88891141940E+03  0.00000000000E+00 0.  1.
         13    1    1    2    0    0  0.57891522032E+03  0.59186924125E+03 -0.15423162299E+03  0.84216354454E+03  0.10566000000E+00 0. -1.
<mgrwt>
<rscale>  1 0.11620614E+04</rscale>
<asrwt>0</asrwt>
<pdfrwt beam="1">  1       21 0.20405177E+00 0.13010957E+04</pdfrwt>
<pdfrwt beam="2">  1        4 0.14292384E+00 0.13010957E+04</pdfrwt>
<totfact> 0.13691300E+00</totfact>
</mgrwt>
</event>
<event>
 6    1  0.1353269E-005  0.1018110E+04  0.7818608E-02  0.9774773E-01
          4   -1    0    0  502    0 -0.00000000000E+00  0.00000000000E+00  0.24152721325E+04  0.24152721325E+04  0.00000000000E+00 0.  1.
         21   -1    0    0  501  502  0.00000000000E+00 -0.00000000000E+00 -0.17316274841E+03  0.17316274841E+03  0.00000000000E+00 0.  1.
    9000010    2    1    2  501    0 -0.18789896705E+03  0.36833816783E+01  0.14334027342E+04  0.17581782664E+04  0.10006137262E+04 0.  0.
        -13    1    3    3    0    0  0.72554026432E+02 -0.20994731260E+02  0.14888358605E+04  0.14907505144E+04  0.10566000000E+00 0.  1.
          4    1    3    3  501    0 -0.26045299348E+03  0.24678112938E+02 -0.55433126311E+02  0.26742775204E+03  0.00000000000E+00 0.  1.
         13    1    1    2    0    0  0.18789896705E+03 -0.36833816783E+01  0.80870664990E+03  0.83025661447E+03  0.10566000000E+00 0. -1.
<mgrwt>
<rscale>  1 0.66734116E+03</rscale>
<asrwt>0</asrwt>
<pdfrwt beam="2">  1       21 0.26640425E-01 0.10181097E+04</pdfrwt>
<pdfrwt beam="1">  1        4 0.37158030E+00 0.10181097E+04</pdfrwt>
<totfact> 0.59961382E+00</totfact>
</mgrwt>
</event>
<event>
 6    1  0.1353269E-005  0.1016183E+04  0.7818608E-02  0.9783481E-01
         21   -1    0    0  501  502  0.00000000000E+00  0.00000000000E+00  0.13905762807E+04  0.13905762807E+04  0.00000000000E+00 0.  1.
          4   -1    0    0  502    0 -0.00000000000E+00 -0.00000000000E+00 -0.25953210487E+03  0.25953210487E+03  0.00000000000E+00 0.  1.
    9000010    2    1    2  501    0 -0.12545941477E+02  0.18322537426E+03  0.92557245468E+03  0.13745225046E+04  0.99944925254E+03 0.  0.
        -13    1    3    3    0    0  0.25229362992E+03  0.22531318740E+03 -0.68320736264E+02  0.34508816596E+03  0.10566000000E+00 0.  1.
          4    1    3    3  501    0 -0.26483957140E+03 -0.42087813149E+02  0.99389319094E+03  0.10294343387E+04  0.00000000000E+00 0.  1.
         13    1    1    2    0    0  0.12545941477E+02 -0.18322537426E+03  0.20547172111E+03  0.27558588092E+03  0.10566000000E+00 0. -1.
<mgrwt>
<rscale>  1 0.66256628E+03</rscale>
<asrwt>0</asrwt>
<pdfrwt beam="1">  1       21 0.21393481E+00 0.10161829E+04</pdfrwt>
<pdfrwt beam="2">  1        4 0.39928017E-01 0.10161829E+04</pdfrwt>
<totfact> 0.22826616E+01</totfact>
</mgrwt>
</event>
<event>
 6    1  0.1353269E-005  0.1252045E+04  0.7818608E-02  0.9208080E-01
         21   -1    0    0  501  502  0.00000000000E+00  0.00000000000E+00  0.11061047149E+04  0.11061047149E+04  0.00000000000E+00 0.  1.
          4   -1    0    0  502    0 -0.00000000000E+00 -0.00000000000E+00 -0.11971989589E+04  0.11971989589E+04  0.00000000000E+00 0.  1.
    9000010    2    1    2  501    0  0.64894984408E+03 -0.35135102067E+03  0.50958975259E+03  0.13517761047E+04  0.10114511760E+04 0.  0.
        -13    1    3    3    0    0  0.30766562928E+03 -0.47309515019E+03  0.73376909145E+03  0.92568582754E+03  0.10566000000E+00 0.  1.
          4    1    3    3  501    0  0.34128421480E+03  0.12174412951E+03 -0.22417933886E+03  0.42609027719E+03  0.00000000000E+00 0.  1.
         13    1    1    2    0    0 -0.64894984408E+03  0.35135102067E+03 -0.60068399655E+03  0.95152756908E+03  0.10566000000E+00 0. -1.
<mgrwt>
<rscale>  1 0.10970414E+04</rscale>
<asrwt>0</asrwt>
<pdfrwt beam="1">  1       21 0.17016996E+00 0.12520451E+04</pdfrwt>
<pdfrwt beam="2">  1        4 0.18418445E+00 0.12520451E+04</pdfrwt>
<totfact> 0.11896803E+00</totfact>
</mgrwt>
</event>
<event>
 6    1  0.1353269E-005  0.1081214E+04  0.7818608E-02  0.9568884E-01
          4   -1    0    0  502    0 -0.00000000000E+00  0.00000000000E+00  0.50533541110E+03  0.50533541110E+03  0.00000000000E+00 0.  1.
         21   -1    0    0  501  502  0.00000000000E+00 -0.00000000000E+00 -0.25166732185E+04  0.25166732185E+04  0.00000000000E+00 0.  1.
    9000010    2    1    2  501    0 -0.17955215101E+03  0.25795587425E+03 -0.23335705548E+04  0.25718818000E+04  0.10345260998E+04 0.  0.
        -13    1    3    3    0    0  0.22346478362E+03 -0.14405530555E+02 -0.19211487811E+04  0.19341552882E+04  0.10566000000E+00 0.  1.
          4    1    3    3  501    0 -0.40301693463E+03  0.27236140481E+03 -0.41242177369E+03  0.63772651180E+03  0.00000000000E+00 0.  1.
         13    1    1    2    0    0  0.17955215101E+03 -0.25795587425E+03  0.32223274741E+03  0.45012682953E+03  0.10566000000E+00 0. -1.
<mgrwt>
<rscale>  1 0.79390328E+03</rscale>
<asrwt>0</asrwt>
<pdfrwt beam="2">  1       21 0.38718051E+00 0.10812143E+04</pdfrwt>
<pdfrwt beam="1">  1        4 0.77743907E-01 0.10812143E+04</pdfrwt>
<totfact> 0.42682117E-01</totfact>
</mgrwt>
</event>
<event>
 6    1  0.1353269E-005  0.1023704E+04  0.7818608E-02  0.9742048E-01
         21   -1    0    0  501  502  0.00000000000E+00  0.00000000000E+00  0.51112331829E+03  0.51112331829E+03  0.00000000000E+00 0.  1.
          4   -1    0    0  502    0 -0.00000000000E+00 -0.00000000000E+00 -0.74751499010E+03  0.74751499010E+03  0.00000000000E+00 0.  1.
    9000010    2    1    2  501    0  0.20581425401E+03  0.96252025961E+01 -0.24428653499E+03  0.10524478826E+04  0.10027554451E+04 0.  0.
        -13    1    3    3    0    0  0.37737296903E+03 -0.22016750803E+02  0.29891636494E+03  0.48191918354E+03  0.10566000000E+00 0.  1.
          4    1    3    3  501    0 -0.17155871502E+03  0.31641953399E+02 -0.54320289993E+03  0.57052869902E+03  0.00000000000E+00 0.  1.
         13    1    1    2    0    0 -0.20581425401E+03 -0.96252025961E+01  0.78948631756E+01  0.20619042584E+03  0.10566000000E+00 0. -1.
<mgrwt>
<rscale>  1 0.68567521E+03</rscale>
<asrwt>0</asrwt>
<pdfrwt beam="1">  1       21 0.78634356E-01 0.10237044E+04</pdfrwt>
<pdfrwt beam="2">  1        4 0.11500231E+00 0.10237044E+04</pdfrwt>
<totfact> 0.32136765E+01</totfact>
</mgrwt>
</event>
<event>
 6    1  0.1353269E-005  0.9937586E+03  0.7818608E-02  0.9912262E-01
         21   -1    0    0  501  502  0.00000000000E+00  0.00000000000E+00  0.11247752121E+04  0.11247752121E+04  0.00000000000E+00 0.  1.
          4   -1    0    0  502    0 -0.00000000000E+00 -0.00000000000E+00 -0.33560414489E+03  0.33560414489E+03  0.00000000000E+00 0.  1.
    9000010    2    1    2  501    0 -0.27274032542E+01 -0.12915300132E+03  0.85897649894E+03  0.13135435782E+04  0.98532642797E+03 0.  0.
        -13    1    3    3    0    0  0.22250682164E+03  0.28838477140E+03  0.73946543177E+03  0.82430831489E+03  0.10566000000E+00 0.  1.
          4    1    3    3  501    0 -0.22523422489E+03 -0.41753777271E+03  0.11951106717E+03  0.48923526332E+03  0.00000000000E+00 0.  1.
         13    1    1    2    0    0  0.27274032542E+01  0.12915300132E+03 -0.69805431700E+02  0.14683577880E+03  0.10566000000E+00 0. -1.
<mgrwt>
<rscale>  1 0.59670686E+03</rscale>
<asrwt>0</asrwt>
<pdfrwt beam="1">  1       21 0.17304234E+00 0.99375858E+03</pdfrwt>
<pdfrwt beam="2">  1        4 0.51631407E-01 0.99375858E+03</pdfrwt>
<totfact> 0.25945994E+01</totfact>
</mgrwt>
</event>
<event>
 6    1  0.1353269E-005  0.9980078E+03  0.7818608E-02  0.1014953E+00
         21   -1    0    0  501  502  0.00000000000E+00  0.00000000000E+00  0.80601433755E+03  0.80601433755E+03  0.00000000000E+00 0.  1.
          4   -1    0    0  502    0 -0.00000000000E+00 -0.00000000000E+00 -0.46371354902E+03  0.46371354902E+03  0.00000000000E+00 0.  1.
    9000010    2    1    2  501    0 -0.27764157651E+02  0.53928654189E+02  0.48871741786E+03  0.11112444846E+04  0.99616285909E+03 0.  0.
        -13    1    3    3    0    0  0.43389326870E+03  0.24048988901E+03  0.19423759594E+03  0.53275417425E+03  0.10566000000E+00 0.  1.
          4    1    3    3  501    0 -0.46165742635E+03 -0.18656123482E+03  0.29447982192E+03  0.57849031034E+03  0.00000000000E+00 0.  1.
         13    1    1    2    0    0  0.27764157651E+02 -0.53928654189E+02 -0.14641662933E+03  0.15848340198E+03  0.10566000000E+00 0. -1.
<mgrwt>
<rscale>  1 0.49552895E+03</rscale>
<asrwt>0</asrwt>
<pdfrwt beam="1">  1       21 0.12400221E+00 0.99800781E+03</pdfrwt>
<pdfrwt beam="2">  1        4 0.71340546E-01 0.99800781E+03</pdfrwt>
<totfact> 0.32240690E+01</totfact>
</mgrwt>
</event>
<event>
 6    1  0.1353269E-005  0.1055712E+04  0.7818608E-02  0.9697021E-01
         21   -1    0    0  501  502  0.00000000000E+00  0.00000000000E+00  0.95975717948E+03  0.95975717948E+03  0.00000000000E+00 0.  1.
          4   -1    0    0  502    0 -0.00000000000E+00 -0.00000000000E+00 -0.70412330147E+03  0.70412330147E+03  0.00000000000E+00 0.  1.
    9000010    2    1    2  501    0 -0.10354680523E+03  0.19223315810E+03  0.63079188869E+03  0.12298078233E+04  0.10328859315E+04 0.  0.
        -13    1    3    3    0    0  0.43276184624E+03 -0.72087787781E+02  0.15365041839E+03  0.46485258625E+03  0.10566000000E+00 0.  1.
          4    1    3    3  501    0 -0.53630865147E+03  0.26432094588E+03  0.47714147030E+03  0.76495523709E+03  0.00000000000E+00 0.  1.
         13    1    1    2    0    0  0.10354680523E+03 -0.19223315810E+03 -0.37515801068E+03  0.43407265761E+03  0.10566000000E+00 0. -1.
<mgrwt>
<rscale>  1 0.71194460E+03</rscale>
<asrwt>0</asrwt>
<pdfrwt beam="1">  1       21 0.14765495E+00 0.10557125E+04</pdfrwt>
<pdfrwt beam="2">  1        4 0.10832666E+00 0.10557125E+04</pdfrwt>
<totfact> 0.75104320E+00</totfact>
</mgrwt>
</event>
<event>
 6    1  0.1353269E-005  0.1020813E+04  0.7818608E-02  0.9765333E-01
         21   -1    0    0  501  502  0.00000000000E+00  0.00000000000E+00  0.20438846713E+03  0.20438846713E+03  0.00000000000E+00 0. -1.
          4   -1    0    0  502    0 -0.00000000000E+00 -0.00000000000E+00 -0.21147388634E+04  0.21147388634E+04  0.00000000000E+00 0.  1.
    9000010    2    1    2  501    0 -0.18522192205E+03 -0.51894097117E+02 -0.18577038322E+04  0.21196985723E+04  0.10025259855E+04 0.  0.
        -13    1    3    3    0    0 -0.49903422462E+03  0.22534336063E+03 -0.70079090617E+03  0.88933834554E+03  0.10566000000E+00 0.  1.
          4    1    3    3  501    0  0.31381230256E+03 -0.27723745775E+03 -0.11569129260E+04  0.12303602268E+04  0.00000000000E+00 0.  1.
         13    1    1    2    0    0  0.18522192205E+03  0.51894097117E+02 -0.52646564050E+02  0.19942875820E+03  0.10566000000E+00 0. -1.
<mgrwt>
<rscale>  1 0.67256623E+03</rscale>
<asrwt>0</asrwt>
<pdfrwt beam="1">  1       21 0.31444380E-01 0.10208127E+04</pdfrwt>
<pdfrwt beam="2">  1        4 0.32534444E+00 0.10208127E+04</pdfrwt>
<totfact> 0.85512734E+00</totfact>
</mgrwt>
</event>
<event>
 6    1  0.1353269E-005  0.1013526E+04  0.7818608E-02  0.9903368E-01
         21   -1    0    0  501  502  0.00000000000E+00  0.00000000000E+00  0.28525391049E+03  0.28525391049E+03  0.00000000000E+00 0.  1.
          4   -1    0    0  502    0 -0.00000000000E+00 -0.00000000000E+00 -0.11672058975E+04  0.11672058975E+04  0.00000000000E+00 0.  1.
    9000010    2    1    2  501    0  0.23638870386E+02  0.12304803094E+03 -0.70087452493E+03  0.12322583717E+04  0.10057514508E+04 0.  0.
        -13    1    3    3    0    0 -0.40171035243E+03 -0.17306155238E+03 -0.52860526706E+03  0.68610862674E+03  0.10566000000E+00 0.  1.
          4    1    3    3  501    0  0.42534922282E+03  0.29610958332E+03 -0.17226925787E+03  0.54614974494E+03  0.00000000000E+00 0.  1.
         13    1    1    2    0    0 -0.23638870386E+02 -0.12304803094E+03 -0.18107746204E+03  0.22020143627E+03  0.10566000000E+00 0. -1.
<mgrwt>
<rscale>  1 0.60098334E+03</rscale>
<asrwt>0</asrwt>
<pdfrwt beam="1">  1       21 0.43885217E-01 0.10135263E+04</pdfrwt>
<pdfrwt beam="2">  1        4 0.17957014E+00 0.10135263E+04</pdfrwt>
<totfact> 0.35946880E+01</totfact>
</mgrwt>
</event>
<event>
 6    1  0.1353269E-005  0.9947271E+03  0.7818608E-02  0.1022120E+00
          4   -1    0    0  502    0 -0.00000000000E+00  0.00000000000E+00  0.20397983354E+03  0.20397983354E+03  0.00000000000E+00 0.  1.
         21   -1    0    0  501  502  0.00000000000E+00 -0.00000000000E+00 -0.20960481732E+04  0.20960481732E+04  0.00000000000E+00 0.  1.
    9000010    2    1    2  501    0  0.48875513934E+02  0.62938605668E+01 -0.19705341290E+04  0.22073710058E+04  0.99350569962E+03 0.  0.
        -13    1    3    3    0    0  0.16118760281E+03 -0.46359173624E+03 -0.12171947248E+04  0.13124259028E+04  0.10566000000E+00 0.  1.
          4    1    3    3  501    0 -0.11231208888E+03  0.46988559681E+03 -0.75333940424E+03  0.89494510300E+03  0.00000000000E+00 0.  1.
         13    1    1    2    0    0 -0.48875513934E+02 -0.62938605668E+01  0.78465789393E+02  0.92657000881E+02  0.10566000000E+00 0. -1.
<mgrwt>
<rscale>  1 0.46929279E+03</rscale>
<asrwt>0</asrwt>
<pdfrwt beam="2">  1       21 0.32246894E+00 0.99472710E+03</pdfrwt>
<pdfrwt beam="1">  1        4 0.31381514E-01 0.99472710E+03</pdfrwt>
<totfact> 0.76225358E+00</totfact>
</mgrwt>
</event>
<event>
 6    1  0.1353269E-005  0.1043823E+04  0.7818608E-02  0.9594523E-01
          4   -1    0    0  502    0 -0.00000000000E+00  0.00000000000E+00  0.96456952063E+03  0.96456952063E+03  0.00000000000E+00 0.  1.
         21   -1    0    0  501  502  0.00000000000E+00 -0.00000000000E+00 -0.93661880656E+03  0.93661880656E+03  0.00000000000E+00 0.  1.
    9000010    2    1    2  501    0 -0.23670811238E+03 -0.21506550824E+03 -0.59459685070E+03  0.12012959177E+04  0.99362093561E+03 0.  0.
        -13    1    3    3    0    0 -0.35430887190E+03  0.30317505323E+03 -0.10340289408E+03  0.47764218750E+03  0.10566000000E+00 0.  1.
          4    1    3    3  501    0  0.11760075952E+03 -0.51824056148E+03 -0.49119395662E+03  0.72365373019E+03  0.00000000000E+00 0.  1.
         13    1    1    2    0    0  0.23670811238E+03  0.21506550824E+03  0.62254756477E+03  0.69989240950E+03  0.10566000000E+00 0. -1.
<mgrwt>
<rscale>  1 0.77659764E+03</rscale>
<asrwt>0</asrwt>
<pdfrwt beam="2">  1       21 0.14409520E+00 0.10438230E+04</pdfrwt>
<pdfrwt beam="1">  1        4 0.14839531E+00 0.10438230E+04</pdfrwt>
<totfact> 0.35969335E+00</totfact>
</mgrwt>
</event>
<event>
 6    1  0.1353269E-005  0.9826054E+03  0.7818608E-02  0.9612284E-01
          4   -1    0    0  502    0 -0.00000000000E+00  0.00000000000E+00  0.10168442242E+04  0.10168442242E+04  0.00000000000E+00 0.  1.
         21   -1    0    0  501  502  0.00000000000E+00 -0.00000000000E+00 -0.50775913326E+03  0.50775913326E+03  0.00000000000E+00 0.  1.
    9000010    2    1    2  501    0 -0.46833881691E+02  0.35773078168E+03  0.11339529833E+03  0.98912679609E+03  0.91397406988E+03 0.  0.
        -13    1    3    3    0    0  0.71665399709E+02 -0.55211572841E+02 -0.34748477664E+03  0.35906813901E+03  0.10566000000E+00 0.  1.
          4    1    3    3  501    0 -0.11849928140E+03  0.41294235452E+03  0.46088007497E+03  0.63005865708E+03  0.00000000000E+00 0.  1.
         13    1    1    2    0    0  0.46833881691E+02 -0.35773078168E+03  0.39568979255E+03  0.53547656133E+03  0.10566000000E+00 0. -1.
<mgrwt>
<rscale>  1 0.76488478E+03</rscale>
<asrwt>0</asrwt>
<pdfrwt beam="2">  1       21 0.78116790E-01 0.98260538E+03</pdfrwt>
<pdfrwt beam="1">  1        4 0.15643757E+00 0.98260538E+03</pdfrwt>
<totfact> 0.14732795E+01</totfact>
</mgrwt>
</event>
<event>
 6    1  0.1353269E-005  0.1026480E+04  0.7818608E-02  0.9634540E-01
          4   -1    0    0  502    0 -0.00000000000E+00  0.00000000000E+00  0.25057458780E+03  0.25057458780E+03  0.00000000000E+00 0.  1.
         21   -1    0    0  501  502  0.00000000000E+00 -0.00000000000E+00 -0.21467765312E+04  0.21467765312E+04  0.00000000000E+00 0.  1.
    9000010    2    1    2  501    0 -0.27816203661E+03  0.93174139861E+02 -0.18275206552E+04  0.20960660887E+04  0.98366954004E+03 0.  0.
        -13    1    3    3    0    0 -0.21150691996E+03 -0.66637154699E+02 -0.18966882035E+04  0.19096077712E+04  0.10566000000E+00 0.  1.
          4    1    3    3  501    0 -0.66655116646E+02  0.15981129456E+03  0.69167548210E+02  0.18645831751E+03  0.00000000000E+00 0.  1.
         13    1    1    2    0    0  0.27816203661E+03 -0.93174139861E+02 -0.68681288120E+02  0.30128503024E+03  0.10566000000E+00 0. -1.
<mgrwt>
<rscale>  1 0.75051650E+03</rscale>
<asrwt>0</asrwt>
<pdfrwt beam="2">  1       21 0.33027332E+00 0.10264801E+04</pdfrwt>
<pdfrwt beam="1">  1        4 0.38549936E-01 0.10264801E+04</pdfrwt>
<totfact> 0.44900233E+00</totfact>
</mgrwt>
</event>
<event>
 6    1  0.1353269E-005  0.9841329E+03  0.7818608E-02  0.1056246E+00
          4   -1    0    0  502    0 -0.00000000000E+00  0.00000000000E+00  0.18766951049E+03  0.18766951049E+03  0.00000000000E+00 0.  1.
         21   -1    0    0  501  502  0.00000000000E+00 -0.00000000000E+00 -0.15095201679E+04  0.15095201679E+04  0.00000000000E+00 0.  1.
    9000010    2    1    2  501    0 -0.15071420110E+02  0.11269443538E+02 -0.13454790446E+04  0.16669827272E+04  0.98395294866E+03 0.  0.
        -13    1    3    3    0    0 -0.28086572844E+02  0.48119609603E+03 -0.46977840664E+03  0.67307525650E+03  0.10566000000E+00 0.  1.
          4    1    3    3  501    0  0.13015152734E+02 -0.46992665249E+03 -0.87570063796E+03  0.99390747066E+03  0.00000000000E+00 0.  1.
         13    1    1    2    0    0  0.15071420110E+02 -0.11269443538E+02  0.23628387146E+02  0.30206951269E+02  0.10566000000E+00 0. -1.
<mgrwt>
<rscale>  1 0.36596549E+03</rscale>
<asrwt>0</asrwt>
<pdfrwt beam="2">  1       21 0.23223386E+00 0.98413289E+03</pdfrwt>
<pdfrwt beam="1">  1        4 0.28872234E-01 0.98413289E+03</pdfrwt>
<totfact> 0.33133253E+01</totfact>
</mgrwt>
</event>
<event>
 6    1  0.1353269E-005  0.9948445E+03  0.7818608E-02  0.9819079E-01
         21   -1    0    0  501  502  0.00000000000E+00  0.00000000000E+00  0.16006781805E+03  0.16006781805E+03  0.00000000000E+00 0.  1.
          4   -1    0    0  502    0 -0.00000000000E+00 -0.00000000000E+00 -0.24279939181E+04  0.24279939181E+04  0.00000000000E+00 0.  1.
    9000010    2    1    2  501    0  0.17412675008E+03  0.18950309047E+01 -0.14949581397E+04  0.17957214083E+04  0.97948548768E+03 0.  0.
        -13    1    3    3    0    0  0.27674091372E+03 -0.11629159532E+03 -0.77317362589E+01  0.30028163343E+03  0.10566000000E+00 0.  1.
          4    1    3    3  501    0 -0.10261416364E+03  0.11818662622E+03 -0.14872264034E+04  0.14954397749E+04  0.00000000000E+00 0.  1.
         13    1    1    2    0    0 -0.17412675008E+03 -0.18950309047E+01 -0.77296796040E+03  0.79234032789E+03  0.10566000000E+00 0. -1.
<mgrwt>
<rscale>  1 0.64348617E+03</rscale>
<asrwt>0</asrwt>
<pdfrwt beam="1">  1       21 0.24625820E-01 0.99484448E+03</pdfrwt>
<pdfrwt beam="2">  1        4 0.37353750E+00 0.99484448E+03</pdfrwt>
<totfact> 0.68229834E+00</totfact>
</mgrwt>
</event>
<event>
 6    1  0.1353269E-005  0.1077620E+04  0.7818608E-02  0.9519087E-01
          4   -1    0    0  502    0 -0.00000000000E+00  0.00000000000E+00  0.41840162195E+03  0.41840162195E+03  0.00000000000E+00 0.  1.
         21   -1    0    0  501  502  0.00000000000E+00 -0.00000000000E+00 -0.17649355350E+04  0.17649355350E+04  0.00000000000E+00 0.  1.
    9000010    2    1    2  501    0 -0.25292492049E+03 -0.27991177875E+03 -0.14362387742E+04  0.17955632633E+04  0.10094275590E+04 0.  0.
        -13    1    3    3    0    0  0.28698939253E+03  0.20166161165E+03 -0.53724131145E+03  0.64160623043E+03  0.10566000000E+00 0.  1.
          4    1    3    3  501    0 -0.53991431302E+03 -0.48157339039E+03 -0.89899746276E+03  0.11539570329E+04  0.00000000000E+00 0.  1.
         13    1    1    2    0    0  0.25292492049E+03  0.27991177875E+03  0.89704861175E+02  0.38777389361E+03  0.10566000000E+00 0. -1.
<mgrwt>
<rscale>  1 0.82891157E+03</rscale>
<asrwt>0</asrwt>
<pdfrwt beam="2">  1       21 0.27152854E+00 0.10776203E+04</pdfrwt>
<pdfrwt beam="1">  1        4 0.64369481E-01 0.10776203E+04</pdfrwt>
<totfact> 0.35028733E+00</totfact>
</mgrwt>
</event>
<event>
 6    1  0.1353269E-005  0.1009219E+04  0.7818608E-02  0.9838531E-01
         21   -1    0    0  501  502  0.00000000000E+00  0.00000000000E+00  0.44918188907E+03  0.44918188907E+03  0.00000000000E+00 0.  1.
          4   -1    0    0  502    0 -0.00000000000E+00 -0.00000000000E+00 -0.76107393934E+03  0.76107393934E+03  0.00000000000E+00 0.  1.
    9000010    2    1    2  501    0  0.91098632256E+02 -0.12730014836E+03 -0.30186094255E+03  0.10533962643E+04  0.99700520179E+03 0.  0.
        -13    1    3    3    0    0  0.37102000245E+03 -0.39269145034E+03 -0.37913068165E+03  0.66000189569E+03  0.10566000000E+00 0.  1.
          4    1    3    3  501    0 -0.27992137020E+03  0.26539130198E+03  0.77269739097E+02  0.39339436859E+03  0.00000000000E+00 0.  1.
         13    1    1    2    0    0 -0.91098632256E+02  0.12730014836E+03 -0.10031107721E+02  0.15685956412E+03  0.10566000000E+00 0. -1.
<mgrwt>
<rscale>  1 0.63335108E+03</rscale>
<asrwt>0</asrwt>
<pdfrwt beam="1">  1       21 0.69104906E-01 0.10092193E+04</pdfrwt>
<pdfrwt beam="2">  1        4 0.11708830E+00 0.10092193E+04</pdfrwt>
<totfact> 0.41498886E+01</totfact>
</mgrwt>
</event>
<event>
 6    1  0.1353269E-005  0.1064815E+04  0.7818608E-02  0.9548288E-01
          4   -1    0    0  502    0 -0.00000000000E+00  0.00000000000E+00  0.18591718428E+04  0.18591718428E+04  0.00000000000E+00 0.  1.
         21   -1    0    0  501  502  0.00000000000E+00 -0.00000000000E+00 -0.28321507823E+03  0.28321507823E+03  0.00000000000E+00 0.  1.
    9000010    2    1    2  501    0 -0.10238701649E+02 -0.35316124602E+03  0.96708168098E+03  0.14384291274E+04  0.10044917521E+04 0.  0.
        -13    1    3    3    0    0  0.40297099696E+03 -0.23165148097E+03  0.10765038576E+03  0.47711282706E+03  0.10566000000E+00 0.  1.
          4    1    3    3  501    0 -0.41320969861E+03 -0.12150976505E+03  0.85943129522E+03  0.96131630030E+03  0.00000000000E+00 0.  1.
         13    1    1    2    0    0  0.10238701649E+02  0.35316124602E+03  0.60887508363E+03  0.70395779372E+03  0.10566000000E+00 0. -1.
<mgrwt>
<rscale>  1 0.80815479E+03</rscale>
<asrwt>0</asrwt>
<pdfrwt beam="2">  1       21 0.43571552E-01 0.10648152E+04</pdfrwt>
<pdfrwt beam="1">  1        4 0.28602643E+00 0.10648152E+04</pdfrwt>
<totfact> 0.75968554E+00</totfact>
</mgrwt>
</event>
<event>
 6    1  0.1353269E-005  0.1010656E+04  0.7818608E-02  0.9872426E-01
         21   -1    0    0  501  502  0.00000000000E+00  0.00000000000E+00  0.47363372337E+03  0.47363372337E+03  0.00000000000E+00 0.  1.
          4   -1    0    0  502    0 -0.00000000000E+00 -0.00000000000E+00 -0.69851903249E+03  0.69851903249E+03  0.00000000000E+00 0.  1.
    9000010    2    1    2  501    0  0.33003079840E+02  0.13567285966E+03 -0.19271476820E+03  0.10288653419E+04  0.10009638264E+04 0.  0.
        -13    1    3    3    0    0  0.11984903858E+03  0.44585813858E+03  0.21497452859E+03  0.50928119039E+03  0.10566000000E+00 0.  1.
          4    1    3    3  501    0 -0.86845958736E+02 -0.31018527892E+03 -0.40768929679E+03  0.51958415153E+03  0.00000000000E+00 0.  1.
         13    1    1    2    0    0 -0.33003079840E+02 -0.13567285966E+03 -0.32170540918E+02  0.14328741394E+03  0.10566000000E+00 0. -1.
<mgrwt>
<rscale>  1 0.61616433E+03</rscale>
<asrwt>0</asrwt>
<pdfrwt beam="1">  1       21 0.72866727E-01 0.10106557E+04</pdfrwt>
<pdfrwt beam="2">  1        4 0.10746447E+00 0.10106557E+04</pdfrwt>
<totfact> 0.45401566E+01</totfact>
</mgrwt>
</event>
<event>
 6    1  0.1353269E-005  0.1025078E+04  0.7818608E-02  0.9678114E-01
         21   -1    0    0  501  502  0.00000000000E+00  0.00000000000E+00  0.67918519816E+03  0.67918519816E+03  0.00000000000E+00 0.  1.
          4   -1    0    0  502    0 -0.00000000000E+00 -0.00000000000E+00 -0.63658736643E+03  0.63658736643E+03  0.00000000000E+00 0.  1.
    9000010    2    1    2  501    0  0.17562163546E+03 -0.18373543415E+03  0.15702307092E+03  0.10370346678E+04  0.99306746433E+03 0.  0.
        -13    1    3    3    0    0  0.54413807410E+03  0.92674824837E+02  0.16565184792E+03  0.57629455379E+03  0.10566000000E+00 0.  1.
          4    1    3    3  501    0 -0.36851643864E+03 -0.27641025899E+03 -0.86287770000E+01  0.46074011396E+03  0.00000000000E+00 0.  1.
         13    1    1    2    0    0 -0.17562163546E+03  0.18373543415E+03 -0.11442523920E+03  0.27873789684E+03  0.10566000000E+00 0. -1.
<mgrwt>
<rscale>  1 0.72334939E+03</rscale>
<asrwt>0</asrwt>
<pdfrwt beam="1">  1       21 0.10449003E+00 0.10250779E+04</pdfrwt>
<pdfrwt beam="2">  1        4 0.97936518E-01 0.10250779E+04</pdfrwt>
<totfact> 0.23900543E+01</totfact>
</mgrwt>
</event>
<event>
 6    1  0.1353269E-005  0.9465710E+03  0.7818608E-02  0.1002654E+00
          4   -1    0    0  502    0 -0.00000000000E+00  0.00000000000E+00  0.49205808395E+03  0.49205808395E+03  0.00000000000E+00 0.  1.
         21   -1    0    0  501  502  0.00000000000E+00 -0.00000000000E+00 -0.10078106868E+04  0.10078106868E+04  0.00000000000E+00 0.  1.
    9000010    2    1    2  501    0  0.49230660807E+02 -0.91647843866E+02 -0.77318116095E+03  0.12222134827E+04  0.94083670442E+03 0.  0.
        -13    1    3    3    0    0  0.13440916531E+03  0.33204347335E+03 -0.69660683440E+03  0.78331333756E+03  0.10566000000E+00 0.  1.
          4    1    3    3  501    0 -0.85178504500E+02 -0.42369131721E+03 -0.76574326547E+02  0.43890014513E+03  0.00000000000E+00 0.  1.
         13    1    1    2    0    0 -0.49230660807E+02  0.91647843866E+02  0.25742855814E+03  0.27765528801E+03  0.10566000000E+00 0. -1.
<mgrwt>
<rscale>  1 0.54501486E+03</rscale>
<asrwt>0</asrwt>
<pdfrwt beam="2">  1       21 0.15504780E+00 0.94657102E+03</pdfrwt>
<pdfrwt beam="1">  1        4 0.75701245E-01 0.94657102E+03</pdfrwt>
<totfact> 0.15466424E+01</totfact>
</mgrwt>
</event>
<event>
 6    1  0.1353269E-005  0.1322848E+04  0.7818608E-02  0.9125484E-01
         21   -1    0    0  501  502  0.00000000000E+00  0.00000000000E+00  0.51119151130E+03  0.51119151130E+03  0.00000000000E+00 0. -1.
          4   -1    0    0  502    0 -0.00000000000E+00 -0.00000000000E+00 -0.23235987485E+04  0.23235987485E+04  0.00000000000E+00 0.  1.
    9000010    2    1    2  501    0 -0.84676459309E+03  0.10913325136E+03 -0.10269973247E+04  0.16747087607E+04  0.10104482103E+04 0.  0.
        -13    1    3    3    0    0 -0.12275615263E+03 -0.39486860816E+03 -0.17740570165E+03  0.44995898130E+03  0.10566000000E+00 0.  1.
          4    1    3    3  501    0 -0.72400844046E+03  0.50400185952E+03 -0.84959162304E+03  0.12247497794E+04  0.00000000000E+00 0.  1.
         13    1    1    2    0    0  0.84676459309E+03 -0.10913325136E+03 -0.78540991253E+03  0.11600814991E+04  0.10566000000E+00 0. -1.
<mgrwt>
<rscale>  1 0.11856797E+04</rscale>
<asrwt>0</asrwt>
<pdfrwt beam="1">  1       21 0.78644847E-01 0.13228477E+04</pdfrwt>
<pdfrwt beam="2">  1        4 0.35747673E+00 0.13228477E+04</pdfrwt>
<totfact> 0.69357419E-01</totfact>
</mgrwt>
</event>
<event>
 6    1  0.1353269E-005  0.1009570E+04  0.7818608E-02  0.9914001E-01
         21   -1    0    0  501  502  0.00000000000E+00  0.00000000000E+00  0.23725810102E+04  0.23725810102E+04  0.00000000000E+00 0.  1.
          4   -1    0    0  502    0 -0.00000000000E+00 -0.00000000000E+00 -0.15687550959E+03  0.15687550959E+03  0.00000000000E+00 0.  1.
    9000010    2    1    2  501    0  0.12206507239E+03 -0.10562346726E+02  0.21790653415E+04  0.24015739272E+04  0.10021078387E+04 0.  0.
        -13    1    3    3    0    0  0.49372779680E+03 -0.17841173471E+03  0.75011789485E+03  0.91557345513E+03  0.10566000000E+00 0.  1.
          4    1    3    3  501    0 -0.37166272441E+03  0.16784938798E+03  0.14289474466E+04  0.14860004720E+04  0.00000000000E+00 0.  1.
         13    1    1    2    0    0 -0.12206507239E+03  0.10562346726E+02  0.36640159172E+02  0.12788259262E+03  0.10566000000E+00 0. -1.
<mgrwt>
<rscale>  1 0.59587502E+03</rscale>
<asrwt>0</asrwt>
<pdfrwt beam="1">  1       21 0.36501244E+00 0.10095700E+04</pdfrwt>
<pdfrwt beam="2">  1        4 0.24134695E-01 0.10095700E+04</pdfrwt>
<totfact> 0.68174988E+00</totfact>
</mgrwt>
</event>
<event>
 6    1  0.1353269E-005  0.1036452E+04  0.7818608E-02  0.9749244E-01
         21   -1    0    0  501  502  0.00000000000E+00  0.00000000000E+00  0.22463730227E+03  0.22463730227E+03  0.00000000000E+00 0.  1.
          4   -1    0    0  502    0 -0.00000000000E+00 -0.00000000000E+00 -0.16845184470E+04  0.16845184470E+04  0.00000000000E+00 0.  1.
    9000010    2    1    2  501    0 -0.14170791774E+03 -0.13226151243E+03 -0.12304960530E+04  0.16088362976E+04  0.10181647480E+04 0.  0.
        -13    1    3    3    0    0  0.44886381674E+02 -0.23173769425E+03  0.10382103390E+03  0.25786811443E+03  0.10566000000E+00 0.  1.
          4    1    3    3  501    0 -0.18659429941E+03  0.99476181819E+02 -0.13343170869E+04  0.13509681831E+04  0.00000000000E+00 0.  1.
         13    1    1    2    0    0  0.14170791774E+03  0.13226151243E+03 -0.22938509165E+03  0.30031945168E+03  0.10566000000E+00 0. -1.
<mgrwt>
<rscale>  1 0.68159028E+03</rscale>
<asrwt>0</asrwt>
<pdfrwt beam="1">  1       21 0.34559587E-01 0.10364525E+04</pdfrwt>
<pdfrwt beam="2">  1        4 0.25915667E+00 0.10364525E+04</pdfrwt>
<totfact> 0.18099533E+01</totfact>
</mgrwt>
</event>
<event>
 6    1  0.1353269E-005  0.1004170E+04  0.7818608E-02  0.9954558E-01
          4   -1    0    0  502    0 -0.00000000000E+00  0.00000000000E+00  0.28786280181E+03  0.28786280181E+03  0.00000000000E+00 0.  1.
         21   -1    0    0  501  502  0.00000000000E+00 -0.00000000000E+00 -0.12166024488E+04  0.12166024488E+04  0.00000000000E+00 0.  1.
    9000010    2    1    2  501    0 -0.64056677236E+02 -0.88659994245E+02 -0.96151960158E+03  0.13902794850E+04  0.99819499581E+03 0.  0.
        -13    1    3    3    0    0  0.22940030948E+02 -0.35970531053E+03  0.27137698197E+02  0.36145625083E+03  0.10566000000E+00 0.  1.
          4    1    3    3  501    0 -0.86996708184E+02  0.27104531628E+03 -0.98865729978E+03  0.10288232341E+04  0.00000000000E+00 0.  1.
         13    1    1    2    0    0  0.64056677236E+02  0.88659994245E+02  0.32779954615E+02  0.11418576560E+03  0.10566000000E+00 0. -1.
<mgrwt>
<rscale>  1 0.57688509E+03</rscale>
<asrwt>0</asrwt>
<pdfrwt beam="2">  1       21 0.18716961E+00 0.10041699E+04</pdfrwt>
<pdfrwt beam="1">  1        4 0.44286585E-01 0.10041699E+04</pdfrwt>
<totfact> 0.28231688E+01</totfact>
</mgrwt>
</event>
<event>
 6    1  0.1353269E-005  0.9853080E+03  0.7818608E-02  0.1015114E+00
          4   -1    0    0  502    0 -0.00000000000E+00  0.00000000000E+00  0.32165835541E+03  0.32165835541E+03  0.00000000000E+00 0.  1.
         21   -1    0    0  501  502  0.00000000000E+00 -0.00000000000E+00 -0.94831512128E+03  0.94831512128E+03  0.00000000000E+00 0.  1.
    9000010    2    1    2  501    0 -0.42486067462E+02  0.46140864700E+02 -0.67193665711E+03  0.11926150574E+04  0.98330959449E+03 0.  0.
        -13    1    3    3    0    0 -0.19889837810E+03  0.29391718635E+03  0.98526746651E+02  0.36831427913E+03  0.10566000000E+00 0.  1.
          4    1    3    3  501    0  0.15641231064E+03 -0.24777632165E+03 -0.77046340376E+03  0.82430077825E+03  0.00000000000E+00 0.  1.
         13    1    1    2    0    0  0.42486067462E+02 -0.46140864700E+02  0.45279891236E+02  0.77358419309E+02  0.10566000000E+00 0. -1.
<mgrwt>
<rscale>  1 0.49491894E+03</rscale>
<asrwt>0</asrwt>
<pdfrwt beam="2">  1       21 0.14589464E+00 0.98530797E+03</pdfrwt>
<pdfrwt beam="1">  1        4 0.49485900E-01 0.98530797E+03</pdfrwt>
<totfact> 0.46204235E+01</totfact>
</mgrwt>
</event>
<event>
 6    1  0.1353269E-005  0.1161763E+04  0.7818608E-02  0.9329157E-01
          4   -1    0    0  502    0 -0.00000000000E+00  0.00000000000E+00  0.18436241594E+04  0.18436241594E+04  0.00000000000E+00 0.  1.
         21   -1    0    0  501  502  0.00000000000E+00 -0.00000000000E+00 -0.46637755059E+03  0.46637755059E+03  0.00000000000E+00 0.  1.
    9000010    2    1    2  501    0 -0.27254667660E+03 -0.52514975599E+03  0.53082398773E+03  0.12772891547E+04  0.99981474370E+03 0.  0.
        -13    1    3    3    0    0 -0.37810181814E+03  0.41877843135E+02 -0.12827767508E+03  0.40145972615E+03  0.10566000000E+00 0.  1.
          4    1    3    3  501    0  0.10555514154E+03 -0.56702759912E+03  0.65910166281E+03  0.87582942859E+03  0.00000000000E+00 0.  1.
         13    1    1    2    0    0  0.27254667660E+03  0.52514975599E+03  0.84642262106E+03  0.10327125552E+04  0.10566000000E+00 0. -1.
<mgrwt>
<rscale>  1 0.98142385E+03</rscale>
<asrwt>0</asrwt>
<pdfrwt beam="2">  1       21 0.71750393E-01 0.11617631E+04</pdfrwt>
<pdfrwt beam="1">  1        4 0.28363448E+00 0.11617631E+04</pdfrwt>
<totfact> 0.25790615E+00</totfact>
</mgrwt>
</event>
<event>
 6    1  0.1353269E-005  0.1036194E+04  0.7818608E-02  0.9584560E-01
          4   -1    0    0  502    0 -0.00000000000E+00  0.00000000000E+00  0.14895325572E+04  0.14895325572E+04  0.00000000000E+00 0.  1.
         21   -1    0    0  501  502  0.00000000000E+00 -0.00000000000E+00 -0.33835105918E+03  0.33835105918E+03  0.00000000000E+00 0.  1.
    9000010    2    1    2  501    0  0.33402674508E+03 -0.53652975023E+02  0.64995368584E+03  0.12231672870E+04  0.97941100160E+03 0.  0.
        -13    1    3    3    0    0 -0.87792104027E+02 -0.22865974782E+03 -0.16054634330E+03  0.29286152584E+03  0.10566000000E+00 0.  1.
          4    1    3    3  501    0  0.42181884911E+03  0.17500677280E+03  0.81050002914E+03  0.93030576115E+03  0.00000000000E+00 0.  1.
         13    1    1    2    0    0 -0.33402674508E+03  0.53652975023E+02  0.50122781216E+03  0.60471632937E+03  0.10566000000E+00 0. -1.
<mgrwt>
<rscale>  1 0.78326557E+03</rscale>
<asrwt>0</asrwt>
<pdfrwt beam="2">  1       21 0.52054010E-01 0.10361942E+04</pdfrwt>
<pdfrwt beam="1">  1        4 0.22915885E+00 0.10361942E+04</pdfrwt>
<totfact> 0.11710189E+01</totfact>
</mgrwt>
</event>
<event>
 6    1  0.1353269E-005  0.1015563E+04  0.7818608E-02  0.9999849E-01
         21   -1    0    0  501  502  0.00000000000E+00  0.00000000000E+00  0.10140660762E+04  0.10140660762E+04  0.00000000000E+00 0.  1.
          4   -1    0    0  502    0 -0.00000000000E+00 -0.00000000000E+00 -0.67474164391E+03  0.67474164391E+03  0.00000000000E+00 0.  1.
    9000010    2    1    2  501    0  0.89719304940E+02  0.18528307583E+02  0.75353447839E+03  0.12645874645E+04  0.10114219661E+04 0.  0.
        -13    1    3    3    0    0 -0.17846462741E+03  0.26154796687E+03  0.83551955491E+03  0.89350428092E+03  0.10566000000E+00 0.  1.
          4    1    3    3  501    0  0.26818393235E+03 -0.24301965929E+03 -0.81985076528E+02  0.37108318360E+03  0.00000000000E+00 0.  1.
         13    1    1    2    0    0 -0.89719304940E+02 -0.18528307583E+02 -0.41421004606E+03  0.42422025562E+03  0.10566000000E+00 0. -1.
<mgrwt>
<rscale>  1 0.55656869E+03</rscale>
<asrwt>0</asrwt>
<pdfrwt beam="1">  1       21 0.15601016E+00 0.10155625E+04</pdfrwt>
<pdfrwt beam="2">  1        4 0.10380641E+00 0.10155625E+04</pdfrwt>
<totfact> 0.71810146E+00</totfact>
</mgrwt>
</event>
<event>
 6    1  0.1353269E-005  0.1085191E+04  0.7818608E-02  0.9481318E-01
          4   -1    0    0  502    0 -0.00000000000E+00  0.00000000000E+00  0.21478587259E+03  0.21478587259E+03  0.00000000000E+00 0.  1.
         21   -1    0    0  501  502  0.00000000000E+00 -0.00000000000E+00 -0.26803977528E+04  0.26803977528E+04  0.00000000000E+00 0. -1.
    9000010    2    1    2  501    0  0.19506593350E+03 -0.37376174013E+03 -0.19225536386E+04  0.22076803005E+04  0.99994562806E+03 0.  0.
        -13    1    3    3    0    0 -0.17458059246E+02  0.32233619630E+03 -0.87034655993E+03  0.92828258242E+03  0.10566000000E+00 0.  1.
          4    1    3    3  501    0  0.21252399274E+03 -0.69609793643E+03 -0.10522070786E+04  0.12793977180E+04  0.00000000000E+00 0.  1.
         13    1    1    2    0    0 -0.19506593350E+03  0.37376174013E+03 -0.54305824162E+03  0.68750332490E+03  0.10566000000E+00 0. -1.
<mgrwt>
<rscale>  1 0.85675263E+03</rscale>
<asrwt>0</asrwt>
<pdfrwt beam="2">  1       21 0.41236890E+00 0.10851911E+04</pdfrwt>
<pdfrwt beam="1">  1        4 0.33043979E-01 0.10851911E+04</pdfrwt>
<totfact> 0.17938117E+00</totfact>
</mgrwt>
</event>
<event>
 6    1  0.1353269E-005  0.1016634E+04  0.7818608E-02  0.9846513E-01
          4   -1    0    0  502    0 -0.00000000000E+00  0.00000000000E+00  0.74183589459E+03  0.74183589459E+03  0.00000000000E+00 0.  1.
         21   -1    0    0  501  502  0.00000000000E+00 -0.00000000000E+00 -0.46722248465E+03  0.46722248465E+03  0.00000000000E+00 0.  1.
    9000010    2    1    2  501    0  0.14404806902E+03 -0.38909508613E+02  0.18018545775E+03  0.10324785237E+04  0.10056248340E+04 0.  0.
        -13    1    3    3    0    0 -0.41950727684E+03  0.10032760886E+03  0.27395244501E+02  0.43220654206E+03  0.10566000000E+00 0.  1.
          4    1    3    3  501    0  0.56355534586E+03 -0.13923711747E+03  0.15279021325E+03  0.60027198168E+03  0.00000000000E+00 0.  1.
         13    1    1    2    0    0 -0.14404806902E+03  0.38909508613E+02  0.94427952192E+02  0.17657985550E+03  0.10566000000E+00 0. -1.
<mgrwt>
<rscale>  1 0.62925035E+03</rscale>
<asrwt>0</asrwt>
<pdfrwt beam="2">  1       21 0.71880382E-01 0.10166342E+04</pdfrwt>
<pdfrwt beam="1">  1        4 0.11412860E+00 0.10166342E+04</pdfrwt>
<totfact> 0.40375659E+01</totfact>
</mgrwt>
</event>
<event>
 6    1  0.1353269E-005  0.9862653E+03  0.7818608E-02  0.9568788E-01
          4   -1    0    0  502    0 -0.00000000000E+00  0.00000000000E+00  0.53819009292E+03  0.53819009292E+03  0.00000000000E+00 0.  1.
         21   -1    0    0  501  502  0.00000000000E+00 -0.00000000000E+00 -0.13417613225E+04  0.13417613225E+04  0.00000000000E+00 0.  1.
    9000010    2    1    2  501    0  0.36796722105E+03  0.19020868215E+03 -0.10146898859E+04  0.14150317269E+04  0.89506424638E+03 0.  0.
        -13    1    3    3    0    0 -0.63586561601E+02 -0.20197379225E+03 -0.74137915716E+03  0.77102511593E+03  0.10566000000E+00 0.  1.
          4    1    3    3  501    0  0.43155378265E+03  0.39218247440E+03 -0.27331072870E+03  0.64400661096E+03  0.00000000000E+00 0.  1.
         13    1    1    2    0    0 -0.36796722105E+03 -0.19020868215E+03  0.21111865631E+03  0.46491968848E+03  0.10566000000E+00 0. -1.
<mgrwt>
<rscale>  1 0.79396874E+03</rscale>
<asrwt>0</asrwt>
<pdfrwt beam="2">  1       21 0.20642482E+00 0.98626529E+03</pdfrwt>
<pdfrwt beam="1">  1        4 0.82798476E-01 0.98626529E+03</pdfrwt>
<totfact> 0.53041032E+00</totfact>
</mgrwt>
</event>
<event>
 6    1  0.1353269E-005  0.1069365E+04  0.7818608E-02  0.9526678E-01
          4   -1    0    0  502    0 -0.00000000000E+00  0.00000000000E+00  0.12134462501E+04  0.12134462501E+04  0.00000000000E+00 0.  1.
         21   -1    0    0  501  502  0.00000000000E+00 -0.00000000000E+00 -0.52451992328E+03  0.52451992328E+03  0.00000000000E+00 0.  1.
    9000010    2    1    2  501    0  0.24619606700E+03 -0.28417583436E+03  0.14851948163E+03  0.10796288907E+04  0.10010854594E+04 0.  0.
        -13    1    3    3    0    0  0.91991078529E+02 -0.61917578110E+03  0.28315282189E+03  0.68703459749E+03  0.10566000000E+00 0.  1.
          4    1    3    3  501    0  0.15420498847E+03  0.33499994674E+03 -0.13463334026E+03  0.39259429326E+03  0.00000000000E+00 0.  1.
         13    1    1    2    0    0 -0.24619606700E+03  0.28417583436E+03  0.54040684523E+03  0.65833728269E+03  0.10566000000E+00 0. -1.
<mgrwt>
<rscale>  1 0.82345218E+03</rscale>
<asrwt>0</asrwt>
<pdfrwt beam="2">  1       21 0.80695373E-01 0.10693645E+04</pdfrwt>
<pdfrwt beam="1">  1        4 0.18668404E+00 0.10693645E+04</pdfrwt>
<totfact> 0.81982601E+00</totfact>
</mgrwt>
</event>
<event>
 6    1  0.1353269E-005  0.9798278E+03  0.7818608E-02  0.9687414E-01
         21   -1    0    0  501  502  0.00000000000E+00  0.00000000000E+00  0.11351593146E+04  0.11351593146E+04  0.00000000000E+00 0.  1.
          4   -1    0    0  502    0 -0.00000000000E+00 -0.00000000000E+00 -0.36221271385E+03  0.36221271385E+03  0.00000000000E+00 0.  1.
    9000010    2    1    2  501    0  0.25666973791E+02 -0.28089465474E+03  0.70539905552E+03  0.12073318887E+04  0.93835060688E+03 0.  0.
        -13    1    3    3    0    0  0.85840235448E+02 -0.40884279964E+03  0.88506425118E+03  0.97870308098E+03  0.10566000000E+00 0.  1.
          4    1    3    3  501    0 -0.60173261657E+02  0.12794814490E+03 -0.17966519566E+03  0.22862880775E+03  0.00000000000E+00 0.  1.
         13    1    1    2    0    0 -0.25666973791E+02  0.28089465474E+03  0.67547545216E+02  0.29004013970E+03  0.10566000000E+00 0. -1.
<mgrwt>
<rscale>  1 0.71771095E+03</rscale>
<asrwt>0</asrwt>
<pdfrwt beam="1">  1       21 0.17463989E+00 0.97982777E+03</pdfrwt>
<pdfrwt beam="2">  1        4 0.55725033E-01 0.97982777E+03</pdfrwt>
<totfact> 0.21488125E+01</totfact>
</mgrwt>
</event>
<event>
 6    1  0.1353269E-005  0.1169288E+04  0.7818608E-02  0.9345172E-01
         21   -1    0    0  501  502  0.00000000000E+00  0.00000000000E+00  0.52444726394E+03  0.52444726394E+03  0.00000000000E+00 0. -1.
          4   -1    0    0  502    0 -0.00000000000E+00 -0.00000000000E+00 -0.16849566709E+04  0.16849566709E+04  0.00000000000E+00 0.  1.
    9000010    2    1    2  501    0 -0.52181041754E+03 -0.16603311335E+03 -0.11803406803E+04  0.16614564947E+04  0.10331410628E+04 0.  0.
        -13    1    3    3    0    0 -0.73410476235E+03 -0.29031566198E+03 -0.49130472393E+03  0.92982435363E+03  0.10566000000E+00 0.  1.
          4    1    3    3  501    0  0.21229434480E+03  0.12428254863E+03 -0.68903595633E+03  0.73163214107E+03  0.00000000000E+00 0.  1.
         13    1    1    2    0    0  0.52181041754E+03  0.16603311335E+03  0.19831273301E+02  0.54794744013E+03  0.10566000000E+00 0. -1.
<mgrwt>
<rscale>  1 0.96728542E+03</rscale>
<asrwt>0</asrwt>
<pdfrwt beam="1">  1       21 0.80684195E-01 0.11692876E+04</pdfrwt>
<pdfrwt beam="2">  1        4 0.25922410E+00 0.11692876E+04</pdfrwt>
<totfact> 0.27722777E+00</totfact>
</mgrwt>
</event>
<event>
 6    1  0.1353269E-005  0.9827977E+03  0.7818608E-02  0.1000318E+00
          4   -1    0    0  502    0 -0.00000000000E+00  0.00000000000E+00  0.14179928830E+04  0.14179928830E+04  0.00000000000E+00 0.  1.
         21   -1    0    0  501  502  0.00000000000E+00 -0.00000000000E+00 -0.27566574834E+03  0.27566574834E+03  0.00000000000E+00 0.  1.
    9000010    2    1    2  501    0  0.44699025837E+02 -0.89487338140E+02  0.62040342620E+03  0.11622356781E+04  0.97769390591E+03 0.  0.
        -13    1    3    3    0    0  0.38916478112E+03 -0.36547645817E+03  0.41065355311E+03  0.67354184739E+03  0.10566000000E+00 0.  1.
          4    1    3    3  501    0 -0.34446575528E+03  0.27598912003E+03  0.20974987309E+03  0.48869383073E+03  0.00000000000E+00 0.  1.
         13    1    1    2    0    0 -0.44699025837E+02  0.89487338140E+02  0.52192370847E+03  0.53142295323E+03  0.10566000000E+00 0. -1.
<mgrwt>
<rscale>  1 0.55511205E+03</rscale>
<asrwt>0</asrwt>
<pdfrwt beam="2">  1       21 0.42410116E-01 0.98279772E+03</pdfrwt>
<pdfrwt beam="1">  1        4 0.21815275E+00 0.98279772E+03</pdfrwt>
<totfact> 0.21460899E+01</totfact>
</mgrwt>
</event>
<event>
 6    1  0.1353269E-005  0.1008072E+04  0.7818608E-02  0.1009228E+00
         21   -1    0    0  501  502  0.00000000000E+00  0.00000000000E+00  0.17977704371E+03  0.17977704371E+03  0.00000000000E+00 0.  1.
          4   -1    0    0  502    0 -0.00000000000E+00 -0.00000000000E+00 -0.18417147482E+04  0.18417147482E+04  0.00000000000E+00 0.  1.
    9000010    2    1    2  501    0 -0.38032578030E+02 -0.58989312436E+02 -0.12607851790E+04  0.16142454588E+04  0.10056256349E+04 0.  0.
        -13    1    3    3    0    0 -0.85615140635E+02  0.30006196234E+03 -0.12087013089E+04  0.12483292830E+04  0.10566000000E+00 0.  1.
          4    1    3    3  501    0  0.47582562605E+02 -0.35905127477E+03 -0.52083870128E+02  0.36591617579E+03  0.00000000000E+00 0.  1.
         13    1    1    2    0    0  0.38032578030E+02  0.58989312436E+02 -0.40115252549E+03  0.40724633313E+03  0.10566000000E+00 0. -1.
<mgrwt>
<rscale>  1 0.51782494E+03</rscale>
<asrwt>0</asrwt>
<pdfrwt beam="1">  1       21 0.27658008E-01 0.10080720E+04</pdfrwt>
<pdfrwt beam="2">  1        4 0.28334071E+00 0.10080720E+04</pdfrwt>
<totfact> 0.20239166E+01</totfact>
</mgrwt>
</event>
<event>
 6    1  0.1353269E-005  0.1033671E+04  0.7818608E-02  0.9756345E-01
         21   -1    0    0  501  502  0.00000000000E+00  0.00000000000E+00  0.29857714180E+03  0.29857714180E+03  0.00000000000E+00 0.  1.
          4   -1    0    0  502    0 -0.00000000000E+00 -0.00000000000E+00 -0.12562357638E+04  0.12562357638E+04  0.00000000000E+00 0.  1.
    9000010    2    1    2  501    0 -0.15696851950E+03  0.10857702094E+03 -0.79474545233E+03  0.13038770620E+04  0.10158971273E+04 0.  0.
        -13    1    3    3    0    0 -0.43862986944E+03 -0.49466140944E+02  0.49360570550E+01  0.44143792008E+03  0.10566000000E+00 0.  1.
          4    1    3    3  501    0  0.28166134994E+03  0.15804316188E+03 -0.79968150938E+03  0.86243914192E+03  0.00000000000E+00 0.  1.
         13    1    1    2    0    0  0.15696851950E+03 -0.10857702094E+03 -0.16291316970E+03  0.25093584362E+03  0.10566000000E+00 0. -1.
<mgrwt>
<rscale>  1 0.67758878E+03</rscale>
<asrwt>0</asrwt>
<pdfrwt beam="1">  1       21 0.45934944E-01 0.10336707E+04</pdfrwt>
<pdfrwt beam="2">  1        4 0.19326704E+00 0.10336707E+04</pdfrwt>
<totfact> 0.26230927E+01</totfact>
</mgrwt>
</event>
<event>
 6    1  0.1353269E-005  0.1081838E+04  0.7818608E-02  0.9512116E-01
          4   -1    0    0  502    0 -0.00000000000E+00  0.00000000000E+00  0.27141373724E+03  0.27141373724E+03  0.00000000000E+00 0.  1.
         21   -1    0    0  501  502  0.00000000000E+00 -0.00000000000E+00 -0.19776779643E+04  0.19776779643E+04  0.00000000000E+00 0.  1.
    9000010    2    1    2  501    0  0.26209640041E+03 -0.27794954068E+03 -0.12167325758E+04  0.16281313816E+04  0.10121379176E+04 0.  0.
        -13    1    3    3    0    0 -0.22183485490E+03 -0.19260528066E+03 -0.10783023507E+04  0.11176061326E+04  0.10566000000E+00 0.  1.
          4    1    3    3  501    0  0.48393125531E+03 -0.85344260022E+02 -0.13843022513E+03  0.51052524895E+03  0.00000000000E+00 0.  1.
         13    1    1    2    0    0 -0.26209640041E+03  0.27794954068E+03 -0.48953165127E+03  0.62096032002E+03  0.10566000000E+00 0. -1.
<mgrwt>
<rscale>  1 0.83396427E+03</rscale>
<asrwt>0</asrwt>
<pdfrwt beam="2">  1       21 0.30425814E+00 0.10818381E+04</pdfrwt>
<pdfrwt beam="1">  1        4 0.41755961E-01 0.10818381E+04</pdfrwt>
<totfact> 0.54912362E+00</totfact>
</mgrwt>
</event>
<event>
 6    1  0.1353269E-005  0.1070017E+04  0.7818608E-02  0.9496776E-01
          4   -1    0    0  502    0 -0.00000000000E+00  0.00000000000E+00  0.23368447618E+03  0.23368447618E+03  0.00000000000E+00 0.  1.
         21   -1    0    0  501  502  0.00000000000E+00 -0.00000000000E+00 -0.23676669108E+04  0.23676669108E+04  0.00000000000E+00 0. -1.
    9000010    2    1    2  501    0  0.21230729407E+03 -0.35842808232E+03 -0.15794312617E+04  0.19077577798E+04  0.98559198396E+03 0.  0.
        -13    1    3    3    0    0  0.54568458973E+03 -0.11558739862E+03 -0.48849194314E+03  0.74145566818E+03  0.10566000000E+00 0.  1.
          4    1    3    3  501    0 -0.33337729567E+03 -0.24284068369E+03 -0.10909393185E+04  0.11663021117E+04  0.00000000000E+00 0.  1.
         13    1    1    2    0    0 -0.21230729407E+03  0.35842808232E+03 -0.55455117292E+03  0.69359360713E+03  0.10566000000E+00 0. -1.
<mgrwt>
<rscale>  1 0.84521965E+03</rscale>
<asrwt>0</asrwt>
<pdfrwt beam="2">  1       21 0.36425646E+00 0.10700171E+04</pdfrwt>
<pdfrwt beam="1">  1        4 0.35951457E-01 0.10700171E+04</pdfrwt>
<totfact> 0.31269624E+00</totfact>
</mgrwt>
</event>
<event>
 6    1  0.1353269E-005  0.1038976E+04  0.7818608E-02  0.1002831E+00
         21   -1    0    0  501  502  0.00000000000E+00  0.00000000000E+00  0.41154023948E+03  0.41154023948E+03  0.00000000000E+00 0.  1.
          4   -1    0    0  502    0 -0.00000000000E+00 -0.00000000000E+00 -0.87633023538E+03  0.87633023538E+03  0.00000000000E+00 0.  1.
    9000010    2    1    2  501    0 -0.20094256642E+01  0.78211508856E+02 -0.26344003400E+03  0.10718545119E+04  0.10360262378E+04 0.  0.
        -13    1    3    3    0    0  0.33055308832E+03  0.17692177551E+03  0.25114006895E+03  0.45126267765E+03  0.10566000000E+00 0.  1.
          4    1    3    3  501    0 -0.33256251398E+03 -0.98710266651E+02 -0.51458010295E+03  0.62059183430E+03  0.00000000000E+00 0.  1.
         13    1    1    2    0    0  0.20094256642E+01 -0.78211508856E+02 -0.20134996190E+03  0.21601596291E+03  0.10566000000E+00 0. -1.
<mgrwt>
<rscale>  1 0.54426170E+03</rscale>
<asrwt>0</asrwt>
<pdfrwt beam="1">  1       21 0.63313883E-01 0.10389762E+04</pdfrwt>
<pdfrwt beam="2">  1        4 0.13482004E+00 0.10389762E+04</pdfrwt>
<totfact> 0.35248888E+01</totfact>
</mgrwt>
</event>
<event>
 6    1  0.1353269E-005  0.9696045E+03  0.7818608E-02  0.9619496E-01
         21   -1    0    0  501  502  0.00000000000E+00  0.00000000000E+00  0.16230366049E+04  0.16230366049E+04  0.00000000000E+00 0.  1.
          4   -1    0    0  502    0 -0.00000000000E+00 -0.00000000000E+00 -0.34278610432E+03  0.34278610432E+03  0.00000000000E+00 0.  1.
    9000010    2    1    2  501    0 -0.26699035890E+03  0.25086982902E+03  0.12719463587E+04  0.15993687656E+04  0.89772678806E+03 0.  0.
        -13    1    3    3    0    0  0.14375807480E+03 -0.26537785577E+03  0.49888725874E+03  0.58307829535E+03  0.10566000000E+00 0.  1.
          4    1    3    3  501    0 -0.41074843370E+03  0.51624768479E+03  0.77305909997E+03  0.10162904702E+04  0.00000000000E+00 0.  1.
         13    1    1    2    0    0  0.26699035890E+03 -0.25086982902E+03  0.83041418347E+01  0.36645394362E+03  0.10566000000E+00 0. -1.
<mgrwt>
<rscale>  1 0.76019137E+03</rscale>
<asrwt>0</asrwt>
<pdfrwt beam="1">  1       21 0.24969793E+00 0.96960451E+03</pdfrwt>
<pdfrwt beam="2">  1        4 0.52736325E-01 0.96960451E+03</pdfrwt>
<totfact> 0.75400924E+00</totfact>
</mgrwt>
</event>
<event>
 6    1  0.1353269E-005  0.1096271E+04  0.7818608E-02  0.9669126E-01
          4   -1    0    0  502    0 -0.00000000000E+00  0.00000000000E+00  0.56790834625E+03  0.56790834625E+03  0.00000000000E+00 0.  1.
         21   -1    0    0  501  502  0.00000000000E+00 -0.00000000000E+00 -0.86681442663E+03  0.86681442663E+03  0.00000000000E+00 0. -1.
    9000010    2    1    2  501    0 -0.52300993797E+02  0.20770803772E+03 -0.37690041783E+02  0.10969183134E+04  0.10751424204E+04 0.  0.
        -13    1    3    3    0    0 -0.26309504030E+03  0.56526378768E+03 -0.19464321050E+03  0.65316777359E+03  0.10566000000E+00 0.  1.
          4    1    3    3  501    0  0.21079404651E+03 -0.35755574996E+03  0.15695316872E+03  0.44375053977E+03  0.00000000000E+00 0.  1.
         13    1    1    2    0    0  0.52300993797E+02 -0.20770803772E+03 -0.26121603860E+03  0.33780445952E+03  0.10566000000E+00 0. -1.
<mgrwt>
<rscale>  1 0.72885138E+03</rscale>
<asrwt>0</asrwt>
<pdfrwt beam="2">  1       21 0.13335607E+00 0.10962706E+04</pdfrwt>
<pdfrwt beam="1">  1        4 0.87370515E-01 0.10962706E+04</pdfrwt>
<totfact> 0.16542832E+01</totfact>
</mgrwt>
</event>
<event>
 6    1  0.1353269E-005  0.1114053E+04  0.7818608E-02  0.9443818E-01
          4   -1    0    0  502    0 -0.00000000000E+00  0.00000000000E+00  0.10313951507E+04  0.10313951507E+04  0.00000000000E+00 0.  1.
         21   -1    0    0  501  502  0.00000000000E+00 -0.00000000000E+00 -0.60915021090E+03  0.60915021090E+03  0.00000000000E+00 0. -1.
    9000010    2    1    2  501    0  0.28856864745E+03  0.33846815828E+03  0.16352941242E+03  0.11259909002E+04  0.10214113178E+04 0.  0.
        -13    1    3    3    0    0  0.11461638437E+03  0.65959087327E+03 -0.98254573666E+02  0.67664688581E+03  0.10566000000E+00 0.  1.
          4    1    3    3  501    0  0.17395226308E+03 -0.32112271499E+03  0.26178398609E+03  0.44934401441E+03  0.00000000000E+00 0.  1.
         13    1    1    2    0    0 -0.28856864745E+03 -0.33846815828E+03  0.25871552736E+03  0.51455446137E+03  0.10566000000E+00 0. -1.
<mgrwt>
<rscale>  1 0.88555707E+03</rscale>
<asrwt>0</asrwt>
<pdfrwt beam="2">  1       21 0.93715417E-01 0.11140528E+04</pdfrwt>
<pdfrwt beam="1">  1        4 0.15867618E+00 0.11140528E+04</pdfrwt>
<totfact> 0.90441961E+00</totfact>
</mgrwt>
</event>
<event>
 6    1  0.1353269E-005  0.1093095E+04  0.7818608E-02  0.1001625E+00
          4   -1    0    0  502    0 -0.00000000000E+00  0.00000000000E+00  0.85110331582E+03  0.85110331582E+03  0.00000000000E+00 0.  1.
         21   -1    0    0  501  502  0.00000000000E+00 -0.00000000000E+00 -0.47619108658E+03  0.47619108658E+03  0.00000000000E+00 0.  1.
    9000010    2    1    2  501    0  0.62824092427E+02 -0.30352435320E+02  0.16423500294E+03  0.11053641391E+04  0.10908659894E+04 0.  0.
        -13    1    3    3    0    0  0.64012624772E+02  0.52844470958E+03  0.46815256318E+02  0.53436233644E+03  0.10566000000E+00 0.  1.
          4    1    3    3  501    0 -0.11885323451E+01 -0.55879714490E+03  0.11741974662E+03  0.57100180267E+03  0.00000000000E+00 0.  1.
         13    1    1    2    0    0 -0.62824092427E+02  0.30352435320E+02  0.21067722630E+03  0.22193026329E+03  0.10566000000E+00 0. -1.
<mgrwt>
<rscale>  1 0.54943195E+03</rscale>
<asrwt>0</asrwt>
<pdfrwt beam="2">  1       21 0.73260167E-01 0.10930950E+04</pdfrwt>
<pdfrwt beam="1">  1        4 0.13093897E+00 0.10930950E+04</pdfrwt>
<totfact> 0.27118817E+01</totfact>
</mgrwt>
</event>
<event>
 6    1  0.1353269E-005  0.9612667E+03  0.7818608E-02  0.1058712E+00
          4   -1    0    0  502    0 -0.00000000000E+00  0.00000000000E+00  0.82307227054E+03  0.82307227054E+03  0.00000000000E+00 0.  1.
         21   -1    0    0  501  502  0.00000000000E+00 -0.00000000000E+00 -0.30628936597E+03  0.30628936597E+03  0.00000000000E+00 0.  1.
    9000010    2    1    2  501    0  0.15198087269E+01  0.18779856844E+02  0.45263287060E+03  0.10625018514E+04  0.96108203388E+03 0.  0.
        -13    1    3    3    0    0  0.24295575699E+03  0.13382945275E+03 -0.21001769959E+03  0.34791560412E+03  0.10566000000E+00 0.  1.
          4    1    3    3  501    0 -0.24143594827E+03 -0.11504959591E+03  0.66265057019E+03  0.71458624729E+03  0.00000000000E+00 0.  1.
         13    1    1    2    0    0 -0.15198087269E+01 -0.18779856844E+02  0.64150033972E+02  0.66859785105E+02  0.10566000000E+00 0. -1.
<mgrwt>
<rscale>  1 0.35967651E+03</rscale>
<asrwt>0</asrwt>
<pdfrwt beam="2">  1       21 0.47121441E-01 0.96126670E+03</pdfrwt>
<pdfrwt beam="1">  1        4 0.12662650E+00 0.96126670E+03</pdfrwt>
<totfact> 0.79662982E+01</totfact>
</mgrwt>
</event>
<event>
 6    1  0.1353269E-005  0.1002783E+04  0.7818608E-02  0.9870879E-01
          4   -1    0    0  502    0 -0.00000000000E+00  0.00000000000E+00  0.10033806934E+04  0.10033806934E+04  0.00000000000E+00 0.  1.
         21   -1    0    0  501  502  0.00000000000E+00 -0.00000000000E+00 -0.34324658438E+03  0.34324658438E+03  0.00000000000E+00 0.  1.
    9000010    2    1    2  501    0  0.25757536701E+02  0.14133352719E+03  0.46771595751E+03  0.11064952874E+04  0.99243890872E+03 0.  0.
        -13    1    3    3    0    0  0.22022890971E+02 -0.36480145341E+03  0.47619900388E+03  0.60027544560E+03  0.10566000000E+00 0.  1.
          4    1    3    3  501    0  0.37346457302E+01  0.50613498060E+03 -0.84830463692E+01  0.50621984181E+03  0.00000000000E+00 0.  1.
         13    1    1    2    0    0 -0.25757536701E+02 -0.14133352719E+03  0.19241815152E+03  0.24013199038E+03  0.10566000000E+00 0. -1.
<mgrwt>
<rscale>  1 0.61693627E+03</rscale>
<asrwt>0</asrwt>
<pdfrwt beam="2">  1       21 0.52807167E-01 0.10027829E+04</pdfrwt>
<pdfrwt beam="1">  1        4 0.15436626E+00 0.10027829E+04</pdfrwt>
<totfact> 0.36897470E+01</totfact>
</mgrwt>
</event>
<event>
 6    1  0.1353269E-005  0.1073680E+04  0.7818608E-02  0.9494166E-01
          4   -1    0    0  502    0 -0.00000000000E+00  0.00000000000E+00  0.36334593602E+03  0.36334593602E+03  0.00000000000E+00 0.  1.
         21   -1    0    0  501  502  0.00000000000E+00 -0.00000000000E+00 -0.15371026548E+04  0.15371026548E+04  0.00000000000E+00 0.  1.
    9000010    2    1    2  501    0 -0.40929426076E+03  0.75085182268E+02 -0.91293496299E+03  0.14093400733E+04  0.98976240540E+03 0.  0.
        -13    1    3    3    0    0 -0.38120496947E+03 -0.17835538732E+03  0.40109756015E+02  0.42277260629E+03  0.10566000000E+00 0.  1.
          4    1    3    3  501    0 -0.28089291290E+02  0.25344056959E+03 -0.95304471900E+03  0.98656746704E+03  0.00000000000E+00 0.  1.
         13    1    1    2    0    0  0.40929426076E+03 -0.75085182268E+02 -0.26082175576E+03  0.49110851747E+03  0.10566000000E+00 0. -1.
<mgrwt>
<rscale>  1 0.84715334E+03</rscale>
<asrwt>0</asrwt>
<pdfrwt beam="2">  1       21 0.23647733E+00 0.10736802E+04</pdfrwt>
<pdfrwt beam="1">  1        4 0.55899374E-01 0.10736802E+04</pdfrwt>
<totfact> 0.79630103E+00</totfact>
</mgrwt>
</event>
<event>
 6    1  0.1353269E-005  0.9955806E+03  0.7818608E-02  0.9934615E-01
          4   -1    0    0  502    0 -0.00000000000E+00  0.00000000000E+00  0.12492096399E+04  0.12492096399E+04  0.00000000000E+00 0.  1.
         21   -1    0    0  501  502  0.00000000000E+00 -0.00000000000E+00 -0.25801859588E+03  0.25801859588E+03  0.00000000000E+00 0.  1.
    9000010    2    1    2  501    0  0.98435522155E+02 -0.67932828096E+02  0.78088156367E+03  0.12652891735E+04  0.98837050492E+03 0.  0.
        -13    1    3    3    0    0 -0.42842980465E+03 -0.55908282956E+02  0.18557841678E+03  0.47023100020E+03  0.10566000000E+00 0.  1.
          4    1    3    3  501    0  0.52686532680E+03 -0.12024545141E+02  0.59530314688E+03  0.79505817332E+03  0.00000000000E+00 0.  1.
         13    1    1    2    0    0 -0.98435522155E+02  0.67932828096E+02  0.21030948039E+03  0.24193906229E+03  0.10566000000E+00 0. -1.
<mgrwt>
<rscale>  1 0.58612620E+03</rscale>
<asrwt>0</asrwt>
<pdfrwt beam="2">  1       21 0.39695169E-01 0.99558057E+03</pdfrwt>
<pdfrwt beam="1">  1        4 0.19218610E+00 0.99558057E+03</pdfrwt>
<totfact> 0.36447493E+01</totfact>
</mgrwt>
</event>
<event>
 6    1  0.1353269E-005  0.1024461E+04  0.7818608E-02  0.9685177E-01
          4   -1    0    0  502    0 -0.00000000000E+00  0.00000000000E+00  0.75926029025E+03  0.75926029025E+03  0.00000000000E+00 0.  1.
         21   -1    0    0  501  502  0.00000000000E+00 -0.00000000000E+00 -0.60169158524E+03  0.60169158524E+03  0.00000000000E+00 0.  1.
    9000010    2    1    2  501    0  0.15695252868E+03 -0.19284763470E+03 -0.65988122634E+02  0.10265838555E+04  0.99382879487E+03 0.  0.
        -13    1    3    3    0    0 -0.21483514970E+03  0.26649918936E+02  0.35998936621E+03  0.42006751204E+03  0.10566000000E+00 0.  1.
          4    1    3    3  501    0  0.37178767838E+03 -0.21949755364E+03 -0.42597748884E+03  0.60651634343E+03  0.00000000000E+00 0.  1.
         13    1    1    2    0    0 -0.15695252868E+03  0.19284763470E+03  0.22355682764E+03  0.33436802003E+03  0.10566000000E+00 0. -1.
<mgrwt>
<rscale>  1 0.71906216E+03</rscale>
<asrwt>0</asrwt>
<pdfrwt beam="2">  1       21 0.92567936E-01 0.10244608E+04</pdfrwt>
<pdfrwt beam="1">  1        4 0.11680928E+00 0.10244608E+04</pdfrwt>
<totfact> 0.20941808E+01</totfact>
</mgrwt>
</event>
<event>
 6    1  0.1353269E-005  0.1381070E+04  0.7818608E-02  0.9060476E-01
         21   -1    0    0  501  502  0.00000000000E+00  0.00000000000E+00  0.77886779461E+03  0.77886779461E+03  0.00000000000E+00 0. -1.
          4   -1    0    0  502    0 -0.00000000000E+00 -0.00000000000E+00 -0.17844636273E+04  0.17844636273E+04  0.00000000000E+00 0.  1.
    9000010    2    1    2  501    0  0.41930732673E+03 -0.86591915985E+03 -0.73210353684E+03  0.15631151089E+04  0.99081715241E+03 0.  0.
        -13    1    3    3    0    0  0.60578707341E+03 -0.87223728822E+03 -0.83419137146E+03  0.13504262737E+04  0.10566000000E+00 0.  1.
          4    1    3    3  501    0 -0.18647974668E+03  0.63181283640E+01  0.10208783462E+03  0.21268883526E+03  0.00000000000E+00 0.  1.
         13    1    1    2    0    0 -0.41930732673E+03  0.86591915985E+03 -0.27349229584E+03  0.10002163130E+04  0.10566000000E+00 0. -1.
<mgrwt>
<rscale>  1 0.12617307E+04</rscale>
<asrwt>0</asrwt>
<pdfrwt beam="1">  1       21 0.11982581E+00 0.13810696E+04</pdfrwt>
<pdfrwt beam="2">  1        4 0.27453287E+00 0.13810696E+04</pdfrwt>
<totfact> 0.81276403E-01</totfact>
</mgrwt>
</event>
<event>
 6    1  0.1353269E-005  0.1091661E+04  0.7818608E-02  0.9459851E-01
         21   -1    0    0  501  502  0.00000000000E+00  0.00000000000E+00  0.81321692532E+03  0.81321692532E+03  0.00000000000E+00 0.  1.
          4   -1    0    0  502    0 -0.00000000000E+00 -0.00000000000E+00 -0.77432371037E+03  0.77432371037E+03  0.00000000000E+00 0.  1.
    9000010    2    1    2  501    0 -0.33060614965E+03  0.30035421423E+03  0.20545607335E+03  0.11108265944E+04  0.99609760796E+03 0.  0.
        -13    1    3    3    0    0 -0.51675850956E+03  0.21833387185E+03 -0.24835769861E+03  0.61350680063E+03  0.10566000000E+00 0.  1.
          4    1    3    3  501    0  0.18615235991E+03  0.82020342377E+02  0.45381377196E+03  0.49731979378E+03  0.00000000000E+00 0.  1.
         13    1    1    2    0    0  0.33060614965E+03 -0.30035421423E+03 -0.16656285840E+03  0.47671404128E+03  0.10566000000E+00 0. -1.
<mgrwt>
<rscale>  1 0.87309649E+03</rscale>
<asrwt>0</asrwt>
<pdfrwt beam="1">  1       21 0.12511030E+00 0.10916609E+04</pdfrwt>
<pdfrwt beam="2">  1        4 0.11912672E+00 0.10916609E+04</pdfrwt>
<totfact> 0.92470995E+00</totfact>
</mgrwt>
</event>
<event>
 6    1  0.1353269E-005  0.1030510E+04  0.7818608E-02  0.9903615E-01
          4   -1    0    0  502    0 -0.00000000000E+00  0.00000000000E+00  0.49078901087E+03  0.49078901087E+03  0.00000000000E+00 0.  1.
         21   -1    0    0  501  502  0.00000000000E+00 -0.00000000000E+00 -0.10420871594E+04  0.10420871594E+04  0.00000000000E+00 0.  1.
    9000010    2    1    2  501    0  0.23318196603E+02 -0.11680497384E+03 -0.76826000254E+03  0.12853694078E+04  0.10236034108E+04 0.  0.
        -13    1    3    3    0    0  0.42213057113E+03  0.20377273570E+03 -0.56665203845E+03  0.73539927300E+03  0.10566000000E+00 0.  1.
          4    1    3    3  501    0 -0.39881237452E+03 -0.32057770955E+03 -0.20160796409E+03  0.54997013475E+03  0.00000000000E+00 0.  1.
         13    1    1    2    0    0 -0.23318196603E+02  0.11680497384E+03  0.21696185403E+03  0.24750676249E+03  0.10566000000E+00 0. -1.
<mgrwt>
<rscale>  1 0.60086387E+03</rscale>
<asrwt>0</asrwt>
<pdfrwt beam="2">  1       21 0.16032110E+00 0.10305101E+04</pdfrwt>
<pdfrwt beam="1">  1        4 0.75506003E-01 0.10305101E+04</pdfrwt>
<totfact> 0.14005544E+01</totfact>
</mgrwt>
</event>
<event>
 6    1  0.1353269E-005  0.1020643E+04  0.7818608E-02  0.9855997E-01
          4   -1    0    0  502    0 -0.00000000000E+00  0.00000000000E+00  0.25856901142E+03  0.25856901142E+03  0.00000000000E+00 0.  1.
         21   -1    0    0  501  502  0.00000000000E+00 -0.00000000000E+00 -0.15651416464E+04  0.15651416464E+04  0.00000000000E+00 0.  1.
    9000010    2    1    2  501    0 -0.14201686116E+03 -0.16603664999E+02 -0.13324204084E+04  0.16784089404E+04  0.10105780305E+04 0.  0.
        -13    1    3    3    0    0 -0.42389481292E+03 -0.19705362574E+03 -0.12488107961E+04  0.13334336727E+04  0.10566000000E+00 0.  1.
          4    1    3    3  501    0  0.28187795176E+03  0.18044996074E+03 -0.83609612306E+02  0.34497526765E+03  0.00000000000E+00 0.  1.
         13    1    1    2    0    0  0.14201686116E+03  0.16603664999E+02  0.25847773441E+02  0.14530171747E+03  0.10566000000E+00 0. -1.
<mgrwt>
<rscale>  1 0.62442093E+03</rscale>
<asrwt>0</asrwt>
<pdfrwt beam="2">  1       21 0.24079102E+00 0.10206431E+04</pdfrwt>
<pdfrwt beam="1">  1        4 0.39779848E-01 0.10206431E+04</pdfrwt>
<totfact> 0.15339583E+01</totfact>
</mgrwt>
</event>
<event>
 6    1  0.1353269E-005  0.1037000E+04  0.7818608E-02  0.9635819E-01
         21   -1    0    0  501  502  0.00000000000E+00  0.00000000000E+00  0.21532834364E+04  0.21532834364E+04  0.00000000000E+00 0.  1.
          4   -1    0    0  502    0 -0.00000000000E+00 -0.00000000000E+00 -0.25088580802E+03  0.25088580802E+03  0.00000000000E+00 0.  1.
    9000010    2    1    2  501    0  0.19266188747E+03 -0.20767626158E+03  0.18430204643E+04  0.21147323924E+04  0.99755733024E+03 0.  0.
        -13    1    3    3    0    0  0.32472142369E+03 -0.32125432098E+02  0.18655785708E+04  0.18939005944E+04  0.10566000000E+00 0.  1.
          4    1    3    3  501    0 -0.13205953622E+03 -0.17555082948E+03 -0.22558106518E+02  0.22083179800E+03  0.00000000000E+00 0.  1.
         13    1    1    2    0    0 -0.19266188747E+03  0.20767626158E+03  0.59377164034E+02  0.28943685197E+03  0.10566000000E+00 0. -1.
<mgrwt>
<rscale>  1 0.74970140E+03</rscale>
<asrwt>0</asrwt>
<pdfrwt beam="1">  1       21 0.33127436E+00 0.10369998E+04</pdfrwt>
<pdfrwt beam="2">  1        4 0.38597818E-01 0.10369998E+04</pdfrwt>
<totfact> 0.44057971E+00</totfact>
</mgrwt>
</event>
<event>
 6    1  0.1353269E-005  0.1018980E+04  0.7818608E-02  0.9739707E-01
         21   -1    0    0  501  502  0.00000000000E+00  0.00000000000E+00  0.11599521328E+04  0.11599521328E+04  0.00000000000E+00 0.  1.
          4   -1    0    0  502    0 -0.00000000000E+00 -0.00000000000E+00 -0.33816011202E+03  0.33816011202E+03  0.00000000000E+00 0.  1.
    9000010    2    1    2  501    0 -0.26440974307E+02  0.20888404789E+03  0.78050114571E+03  0.12835507895E+04  0.99698992983E+03 0.  0.
        -13    1    3    3    0    0 -0.10884292916E+03  0.60483222472E+03  0.47149355152E+03  0.77458052104E+03  0.10566000000E+00 0.  1.
          4    1    3    3  501    0  0.82401954854E+02 -0.39594817684E+03  0.30900759419E+03  0.50897026845E+03  0.00000000000E+00 0.  1.
         13    1    1    2    0    0  0.26440974307E+02 -0.20888404789E+03  0.41290875073E+02  0.21456145533E+03  0.10566000000E+00 0. -1.
<mgrwt>
<rscale>  1 0.68701082E+03</rscale>
<asrwt>0</asrwt>
<pdfrwt beam="1">  1       21 0.17845417E+00 0.10189802E+04</pdfrwt>
<pdfrwt beam="2">  1        4 0.52024633E-01 0.10189802E+04</pdfrwt>
<totfact> 0.23228002E+01</totfact>
</mgrwt>
</event>
<event>
 6    1  0.1353269E-005  0.1153170E+04  0.7818608E-02  0.9337236E-01
         21   -1    0    0  501  502  0.00000000000E+00  0.00000000000E+00  0.70596747539E+03  0.70596747539E+03  0.00000000000E+00 0. -1.
          4   -1    0    0  502    0 -0.00000000000E+00 -0.00000000000E+00 -0.11683521968E+04  0.11683521968E+04  0.00000000000E+00 0.  1.
    9000010    2    1    2  501    0 -0.56025542283E+03  0.17688533428E+03 -0.45761750809E+02  0.11540771637E+04  0.99228292417E+03 0.  0.
        -13    1    3    3    0    0 -0.46345627333E+03 -0.15216691888E+03 -0.42196795172E+03  0.64498329585E+03  0.10566000000E+00 0.  1.
          4    1    3    3  501    0 -0.96799149496E+02  0.32905225316E+03  0.37620620091E+03  0.50909386782E+03  0.00000000000E+00 0.  1.
         13    1    1    2    0    0  0.56025542283E+03 -0.17688533428E+03 -0.41662297063E+03  0.72024250854E+03  0.10566000000E+00 0. -1.
<mgrwt>
<rscale>  1 0.97425965E+03</rscale>
<asrwt>0</asrwt>
<pdfrwt beam="1">  1       21 0.10861038E+00 0.11531695E+04</pdfrwt>
<pdfrwt beam="2">  1        4 0.17974649E+00 0.11531695E+04</pdfrwt>
<totfact> 0.43862337E+00</totfact>
</mgrwt>
</event>
<event>
 6    1  0.1353269E-005  0.1009077E+04  0.7818608E-02  0.9628649E-01
          4   -1    0    0  502    0 -0.00000000000E+00  0.00000000000E+00  0.48170430731E+03  0.48170430731E+03  0.00000000000E+00 0.  1.
         21   -1    0    0  501  502  0.00000000000E+00 -0.00000000000E+00 -0.92029596864E+03  0.92029596864E+03  0.00000000000E+00 0.  1.
    9000010    2    1    2  501    0 -0.31073920518E+03 -0.51913784515E+02 -0.39638970321E+03  0.10841403837E+04  0.95863532177E+03 0.  0.
        -13    1    3    3    0    0 -0.12579252394E+03 -0.25615638628E+03 -0.64985487601E+03  0.70975434084E+03  0.10566000000E+00 0.  1.
          4    1    3    3  501    0 -0.18494668124E+03  0.20424260176E+03  0.25346517280E+03  0.37438604288E+03  0.00000000000E+00 0.  1.
         13    1    1    2    0    0  0.31073920518E+03  0.51913784515E+02 -0.42201958127E+02  0.31785989223E+03  0.10566000000E+00 0. -1.
<mgrwt>
<rscale>  1 0.75428687E+03</rscale>
<asrwt>0</asrwt>
<pdfrwt beam="2">  1       21 0.14158399E+00 0.10090766E+04</pdfrwt>
<pdfrwt beam="1">  1        4 0.74108355E-01 0.10090766E+04</pdfrwt>
<totfact> 0.20732263E+01</totfact>
</mgrwt>
</event>
<event>
 6    1  0.1353269E-005  0.1011171E+04  0.7818608E-02  0.9676612E-01
          4   -1    0    0  502    0 -0.00000000000E+00  0.00000000000E+00  0.12402872653E+04  0.12402872653E+04  0.00000000000E+00 0.  1.
         21   -1    0    0  501  502  0.00000000000E+00 -0.00000000000E+00 -0.33650061445E+03  0.33650061445E+03  0.00000000000E+00 0.  1.
    9000010    2    1    2  501    0  0.20621415893E+03  0.16825114632E+03  0.61244192168E+03  0.11821811262E+04  0.97551749348E+03 0.  0.
        -13    1    3    3    0    0  0.48839867367E+02 -0.40705996415E+03  0.30622692698E+03  0.51172071390E+03  0.10566000000E+00 0.  1.
          4    1    3    3  501    0  0.15737429156E+03  0.57531111046E+03  0.30621499469E+03  0.67046041229E+03  0.00000000000E+00 0.  1.
         13    1    1    2    0    0 -0.20621415893E+03 -0.16825114632E+03  0.29134472919E+03  0.39460675358E+03  0.10566000000E+00 0. -1.
<mgrwt>
<rscale>  1 0.72426543E+03</rscale>
<asrwt>0</asrwt>
<pdfrwt beam="2">  1       21 0.51769326E-01 0.10111712E+04</pdfrwt>
<pdfrwt beam="1">  1        4 0.19081342E+00 0.10111712E+04</pdfrwt>
<totfact> 0.21105451E+01</totfact>
</mgrwt>
</event>
<event>
 6    1  0.1353269E-005  0.1000758E+04  0.7818608E-02  0.9944190E-01
         21   -1    0    0  501  502  0.00000000000E+00  0.00000000000E+00  0.16052570638E+03  0.16052570638E+03  0.00000000000E+00 0.  1.
          4   -1    0    0  502    0 -0.00000000000E+00 -0.00000000000E+00 -0.20980704097E+04  0.20980704097E+04  0.00000000000E+00 0.  1.
    9000010    2    1    2  501    0  0.11410889965E+03 -0.48329298074E+01 -0.14770574083E+04  0.17841567014E+04  0.99421946744E+03 0.  0.
        -13    1    3    3    0    0 -0.29270191242E+03  0.32804033063E+03 -0.44277300987E+03  0.62396539767E+03  0.10566000000E+00 0.  1.
          4    1    3    3  501    0  0.40681081208E+03 -0.33287326044E+03 -0.10342843985E+04  0.11601913037E+04  0.00000000000E+00 0.  1.
         13    1    1    2    0    0 -0.11410889965E+03  0.48329298074E+01 -0.46048729500E+03  0.47443941469E+03  0.10566000000E+00 0. -1.
<mgrwt>
<rscale>  1 0.58166646E+03</rscale>
<asrwt>0</asrwt>
<pdfrwt beam="1">  1       21 0.24696263E-01 0.10007580E+04</pdfrwt>
<pdfrwt beam="2">  1        4 0.32278006E+00 0.10007580E+04</pdfrwt>
<totfact> 0.14430998E+01</totfact>
</mgrwt>
</event>
<event>
 6    1  0.1353269E-005  0.1249084E+04  0.7818608E-02  0.9208770E-01
         21   -1    0    0  501  502  0.00000000000E+00  0.00000000000E+00  0.21257951597E+04  0.21257951597E+04  0.00000000000E+00 0. -1.
          4   -1    0    0  502    0 -0.00000000000E+00 -0.00000000000E+00 -0.47407244894E+03  0.47407244894E+03  0.00000000000E+00 0.  1.
    9000010    2    1    2  501    0 -0.68920938286E+03  0.27300738255E+03  0.11979973710E+04  0.17307247553E+04  0.10053197866E+04 0.  0.
        -13    1    3    3    0    0  0.11405732768E+03  0.15669533155E+03 -0.85738236089E+02  0.21192818883E+03  0.10566000000E+00 0.  1.
          4    1    3    3  501    0 -0.80326671054E+03  0.11631205100E+03  0.12837356071E+04  0.15187965665E+04  0.00000000000E+00 0.  1.
         13    1    1    2    0    0  0.68920938286E+03 -0.27300738255E+03  0.45372533969E+03  0.86914285327E+03  0.10566000000E+00 0. -1.
<mgrwt>
<rscale>  1 0.10963365E+04</rscale>
<asrwt>0</asrwt>
<pdfrwt beam="1">  1       21 0.32704540E+00 0.12490839E+04</pdfrwt>
<pdfrwt beam="2">  1        4 0.72934224E-01 0.12490839E+04</pdfrwt>
<totfact> 0.11568172E+00</totfact>
</mgrwt>
</event>
<event>
 6    1  0.1353269E-005  0.1062619E+04  0.7818608E-02  0.9530855E-01
          4   -1    0    0  502    0 -0.00000000000E+00  0.00000000000E+00  0.44302689488E+03  0.44302689488E+03  0.00000000000E+00 0.  1.
         21   -1    0    0  501  502  0.00000000000E+00 -0.00000000000E+00 -0.27196516833E+04  0.27196516833E+04  0.00000000000E+00 0. -1.
    9000010    2    1    2  501    0  0.33588935051E+03  0.17266319399E+03 -0.25051848057E+04  0.27212333075E+04  0.99323993514E+03 0.  0.
        -13    1    3    3    0    0 -0.21524826332E+03  0.39457630987E+03 -0.13389671145E+04  0.14123934381E+04  0.10566000000E+00 0.  1.
          4    1    3    3  501    0  0.55113761383E+03 -0.22191311589E+03 -0.11662176911E+04  0.13088398693E+04  0.00000000000E+00 0.  1.
         13    1    1    2    0    0 -0.33588935051E+03 -0.17266319399E+03  0.22856001728E+03  0.44144527068E+03  0.10566000000E+00 0. -1.
<mgrwt>
<rscale>  1 0.82046726E+03</rscale>
<asrwt>0</asrwt>
<pdfrwt beam="2">  1       21 0.41840796E+00 0.10626193E+04</pdfrwt>
<pdfrwt beam="1">  1        4 0.68157982E-01 0.10626193E+04</pdfrwt>
<totfact> 0.35923777E-01</totfact>
</mgrwt>
</event>
<event>
 6    1  0.1353269E-005  0.2239832E+04  0.7818608E-02  0.8527568E-01
          4   -1    0    0  502    0 -0.00000000000E+00  0.00000000000E+00  0.25944116833E+04  0.25944116833E+04  0.00000000000E+00 0.  1.
         21   -1    0    0  501  502  0.00000000000E+00 -0.00000000000E+00 -0.19922645223E+04  0.19922645223E+04  0.00000000000E+00 0. -1.
    9000010    2    1    2  501    0 -0.12482536974E+04  0.15667402316E+04  0.11389787882E+04  0.25127908536E+04  0.10020144447E+04 0.  0.
        -13    1    3    3    0    0 -0.41558469908E+03  0.16928446606E+03 -0.10984708391E+03  0.46198946477E+03  0.10566000000E+00 0.  1.
          4    1    3    3  501    0 -0.83266899832E+03  0.13974557655E+04  0.12488258721E+04  0.20508013888E+04  0.00000000000E+00 0.  1.
         13    1    1    2    0    0  0.12482536974E+04 -0.15667402316E+04 -0.53683162723E+03  0.20738853520E+04  0.10566000000E+00 0. -1.
<mgrwt>
<rscale>  1 0.21781745E+04</rscale>
<asrwt>0</asrwt>
<pdfrwt beam="2">  1       21 0.30650223E+00 0.22398315E+04</pdfrwt>
<pdfrwt beam="1">  1        4 0.39914026E+00 0.22398315E+04</pdfrwt>
<totfact> 0.51077618E-03</totfact>
</mgrwt>
</event>
<event>
 6    1  0.1353269E-005  0.1579784E+04  0.7818608E-02  0.8896225E-01
          4   -1    0    0  502    0 -0.00000000000E+00  0.00000000000E+00  0.11309483436E+04  0.11309483436E+04  0.00000000000E+00 0.  1.
         21   -1    0    0  501  502  0.00000000000E+00 -0.00000000000E+00 -0.25124873814E+04  0.25124873814E+04  0.00000000000E+00 0. -1.
    9000010    2    1    2  501    0 -0.12018335210E+04 -0.23655446478E+03 -0.17565205055E+04  0.23624310650E+04  0.99767450805E+03 0.  0.
        -13    1    3    3    0    0  0.92876341093E+02 -0.84285710457E+02  0.49693646460E+02  0.13490576483E+03  0.10566000000E+00 0.  1.
          4    1    3    3  501    0 -0.12947098620E+04 -0.15226875433E+03 -0.18062141519E+04  0.22275253002E+04  0.00000000000E+00 0.  1.
         13    1    1    2    0    0  0.12018335210E+04  0.23655446478E+03  0.37498146765E+03  0.12810046601E+04  0.10566000000E+00 0. -1.
<mgrwt>
<rscale>  1 0.14824249E+04</rscale>
<asrwt>0</asrwt>
<pdfrwt beam="2">  1       21 0.38653651E+00 0.15797836E+04</pdfrwt>
<pdfrwt beam="1">  1        4 0.17399206E+00 0.15797836E+04</pdfrwt>
<totfact> 0.50997492E-02</totfact>
</mgrwt>
</event>
<event>
 6    1  0.1353269E-005  0.1021106E+04  0.7818608E-02  0.9741882E-01
         21   -1    0    0  501  502  0.00000000000E+00  0.00000000000E+00  0.61786629259E+03  0.61786629259E+03  0.00000000000E+00 0.  1.
          4   -1    0    0  502    0 -0.00000000000E+00 -0.00000000000E+00 -0.64206788663E+03  0.64206788663E+03  0.00000000000E+00 0.  1.
    9000010    2    1    2  501    0  0.19280303170E+03  0.77323678650E+02 -0.12555656661E+03  0.10287961210E+04  0.99975249284E+03 0.  0.
        -13    1    3    3    0    0 -0.12436615373E+03  0.33221711992E+03  0.28179170456E+03  0.45303612537E+03  0.10566000000E+00 0.  1.
          4    1    3    3  501    0  0.31716918543E+03 -0.25489344127E+03 -0.40734827117E+03  0.57575999567E+03  0.00000000000E+00 0.  1.
         13    1    1    2    0    0 -0.19280303170E+03 -0.77323678650E+02  0.10135497257E+03  0.23113805818E+03  0.10566000000E+00 0. -1.
<mgrwt>
<rscale>  1 0.68576953E+03</rscale>
<asrwt>0</asrwt>
<pdfrwt beam="1">  1       21 0.95056353E-01 0.10211058E+04</pdfrwt>
<pdfrwt beam="2">  1        4 0.98779674E-01 0.10211058E+04</pdfrwt>
<totfact> 0.29613780E+01</totfact>
</mgrwt>
</event>
<event>
 6    1  0.1353269E-005  0.1000842E+04  0.7818608E-02  0.9851347E-01
         21   -1    0    0  501  502  0.00000000000E+00  0.00000000000E+00  0.20751932939E+03  0.20751932939E+03  0.00000000000E+00 0.  1.
          4   -1    0    0  502    0 -0.00000000000E+00 -0.00000000000E+00 -0.16164862120E+04  0.16164862120E+04  0.00000000000E+00 0.  1.
    9000010    2    1    2  501    0  0.10710630307E+03  0.11057977708E+03 -0.12668022217E+04  0.16144573387E+04  0.98893123241E+03 0.  0.
        -13    1    3    3    0    0  0.35698196758E+03 -0.22143461109E+03 -0.10800771475E+04  0.11588943299E+04  0.10566000000E+00 0.  1.
          4    1    3    3  501    0 -0.24987566451E+03  0.33201438817E+03 -0.18672507416E+03  0.45556300880E+03  0.00000000000E+00 0.  1.
         13    1    1    2    0    0 -0.10710630307E+03 -0.11057977708E+03 -0.14216466091E+03  0.20954820264E+03  0.10566000000E+00 0. -1.
<mgrwt>
<rscale>  1 0.62678262E+03</rscale>
<asrwt>0</asrwt>
<pdfrwt beam="1">  1       21 0.31926051E-01 0.10008420E+04</pdfrwt>
<pdfrwt beam="2">  1        4 0.24869018E+00 0.10008420E+04</pdfrwt>
<totfact> 0.24796310E+01</totfact>
</mgrwt>
</event>
<event>
 6    1  0.1353269E-005  0.1081125E+04  0.7818608E-02  0.9506800E-01
          4   -1    0    0  502    0 -0.00000000000E+00  0.00000000000E+00  0.72378499669E+03  0.72378499669E+03  0.00000000000E+00 0.  1.
         21   -1    0    0  501  502  0.00000000000E+00 -0.00000000000E+00 -0.81190596101E+03  0.81190596101E+03  0.00000000000E+00 0.  1.
    9000010    2    1    2  501    0 -0.59583452315E+02  0.38538442656E+03 -0.25616999538E+03  0.11110595504E+04  0.10083446405E+04 0.  0.
        -13    1    3    3    0    0 -0.21915561427E+03  0.25445106884E+03  0.34137664469E+03  0.47886590441E+03  0.10566000000E+00 0.  1.
          4    1    3    3  501    0  0.15957216195E+03  0.13093335772E+03 -0.59754664007E+03  0.63219364604E+03  0.00000000000E+00 0.  1.
         13    1    1    2    0    0  0.59583452315E+02 -0.38538442656E+03  0.16804903106E+03  0.42463140725E+03  0.10566000000E+00 0. -1.
<mgrwt>
<rscale>  1 0.83784314E+03</rscale>
<asrwt>0</asrwt>
<pdfrwt beam="2">  1       21 0.12490861E+00 0.10811245E+04</pdfrwt>
<pdfrwt beam="1">  1        4 0.11135154E+00 0.10811245E+04</pdfrwt>
<totfact> 0.10995523E+01</totfact>
</mgrwt>
</event>
<event>
 6    1  0.1353269E-005  0.1013956E+04  0.7818608E-02  0.9770112E-01
         21   -1    0    0  501  502  0.00000000000E+00  0.00000000000E+00  0.28820162261E+03  0.28820162261E+03  0.00000000000E+00 0.  1.
          4   -1    0    0  502    0 -0.00000000000E+00 -0.00000000000E+00 -0.17876740488E+04  0.17876740488E+04  0.00000000000E+00 0.  1.
    9000010    2    1    2  501    0  0.40527041031E+02  0.18890759633E+03 -0.64931682012E+03  0.12040424955E+04  0.99537805731E+03 0.  0.
        -13    1    3    3    0    0  0.40151910464E+03 -0.22858619610E+03 -0.29821302296E+03  0.54990931859E+03  0.10566000000E+00 0.  1.
          4    1    3    3  501    0 -0.36099206361E+03  0.41749379243E+03 -0.35110379716E+03  0.65413317687E+03  0.00000000000E+00 0.  1.
         13    1    1    2    0    0 -0.40527041031E+02 -0.18890759633E+03 -0.85015560606E+03  0.87183317595E+03  0.10566000000E+00 0. -1.
<mgrwt>
<rscale>  1 0.66991442E+03</rscale>
<asrwt>0</asrwt>
<pdfrwt beam="1">  1       21 0.44338712E-01 0.10139556E+04</pdfrwt>
<pdfrwt beam="2">  1        4 0.27502677E+00 0.10139556E+04</pdfrwt>
<totfact> 0.86112873E+00</totfact>
</mgrwt>
</event>
<event>
 6    1  0.1353269E-005  0.1086846E+04  0.7818608E-02  0.9463799E-01
         21   -1    0    0  501  502  0.00000000000E+00  0.00000000000E+00  0.98392727345E+03  0.98392727345E+03  0.00000000000E+00 0.  1.
          4   -1    0    0  502    0 -0.00000000000E+00 -0.00000000000E+00 -0.74423226884E+03  0.74423226884E+03  0.00000000000E+00 0.  1.
    9000010    2    1    2  501    0  0.44624212809E+03 -0.10735071244E+02  0.51607763603E+03  0.12031503531E+04  0.99095275725E+03 0.  0.
        -13    1    3    3    0    0  0.13350172914E+03  0.36779467412E+03  0.58862813949E+03  0.70680883678E+03  0.10566000000E+00 0.  1.
          4    1    3    3  501    0  0.31274039894E+03 -0.37852974537E+03 -0.72550503454E+02  0.49634151631E+03  0.00000000000E+00 0.  1.
         13    1    1    2    0    0 -0.44624212809E+03  0.10735071244E+02 -0.27638263142E+03  0.52500918920E+03  0.10566000000E+00 0. -1.
<mgrwt>
<rscale>  1 0.87006184E+03</rscale>
<asrwt>0</asrwt>
<pdfrwt beam="1">  1       21 0.15137343E+00 0.10868462E+04</pdfrwt>
<pdfrwt beam="2">  1        4 0.11449727E+00 0.10868462E+04</pdfrwt>
<totfact> 0.60890805E+00</totfact>
</mgrwt>
</event>
<event>
 6    1  0.1353269E-005  0.1002663E+04  0.7818608E-02  0.9967490E-01
          4   -1    0    0  502    0 -0.00000000000E+00  0.00000000000E+00  0.36316628783E+03  0.36316628783E+03  0.00000000000E+00 0.  1.
         21   -1    0    0  501  502  0.00000000000E+00 -0.00000000000E+00 -0.10404366214E+04  0.10404366214E+04  0.00000000000E+00 0.  1.
    9000010    2    1    2  501    0  0.89853887504E+02 -0.55191575460E+02 -0.76918561852E+03  0.12637163057E+04  0.99710207821E+03 0.  0.
        -13    1    3    3    0    0 -0.36919152992E+03 -0.21891279302E+03 -0.10849055388E+03  0.44271368644E+03  0.10566000000E+00 0.  1.
          4    1    3    3  501    0  0.45904541743E+03  0.16372121756E+03 -0.66069506464E+03  0.82100261923E+03  0.00000000000E+00 0.  1.
         13    1    1    2    0    0 -0.89853887504E+02  0.55191575460E+02  0.91915284916E+02  0.13988660360E+03  0.10566000000E+00 0. -1.
<mgrwt>
<rscale>  1 0.57098994E+03</rscale>
<asrwt>0</asrwt>
<pdfrwt beam="2">  1       21 0.16006717E+00 0.10026626E+04</pdfrwt>
<pdfrwt beam="1">  1        4 0.55871737E-01 0.10026626E+04</pdfrwt>
<totfact> 0.27459702E+01</totfact>
</mgrwt>
</event>
<event>
 6    1  0.1353269E-005  0.1066708E+04  0.7818608E-02  0.9465038E-01
         21   -1    0    0  501  502  0.00000000000E+00  0.00000000000E+00  0.70915752505E+03  0.70915752505E+03  0.00000000000E+00 0. -1.
          4   -1    0    0  502    0 -0.00000000000E+00 -0.00000000000E+00 -0.89648055577E+03  0.89648055577E+03  0.00000000000E+00 0.  1.
    9000010    2    1    2  501    0  0.69257856010E+02  0.46494488108E+03  0.71349587467E+02  0.10690917849E+04  0.95754691161E+03 0.  0.
        -13    1    3    3    0    0  0.23181399805E+03 -0.23016798216E+03 -0.86606269692E+02  0.33795811400E+03  0.10566000000E+00 0.  1.
          4    1    3    3  501    0 -0.16255614204E+03  0.69511286325E+03  0.15795585716E+03  0.73113367094E+03  0.00000000000E+00 0.  1.
         13    1    1    2    0    0 -0.69257856010E+02 -0.46494488108E+03 -0.25867261818E+03  0.53654629588E+03  0.10566000000E+00 0. -1.
<mgrwt>
<rscale>  1 0.86911251E+03</rscale>
<asrwt>0</asrwt>
<pdfrwt beam="1">  1       21 0.10910116E+00 0.10667082E+04</pdfrwt>
<pdfrwt beam="2">  1        4 0.13792009E+00 0.10667082E+04</pdfrwt>
<totfact> 0.90652322E+00</totfact>
</mgrwt>
</event>
<event>
 6    1  0.1353269E-005  0.1044054E+04  0.7818608E-02  0.9585610E-01
          4   -1    0    0  502    0 -0.00000000000E+00  0.00000000000E+00  0.80272990958E+03  0.80272990958E+03  0.00000000000E+00 0.  1.
         21   -1    0    0  501  502  0.00000000000E+00 -0.00000000000E+00 -0.69364553813E+03  0.69364553813E+03  0.00000000000E+00 0. -1.
    9000010    2    1    2  501    0 -0.15005225062E+01  0.32953127164E+03  0.33540652099E+03  0.10966069683E+04  0.99068471177E+03 0.  0.
        -13    1    3    3    0    0  0.48870341292E+03  0.13264143751E+03  0.23762892787E+03  0.55936776388E+03  0.10566000000E+00 0.  1.
          4    1    3    3  501    0 -0.49020393543E+03  0.19688983413E+03  0.97777593123E+02  0.53723920446E+03  0.00000000000E+00 0.  1.
         13    1    1    2    0    0  0.15005225062E+01 -0.32953127164E+03 -0.22632214954E+03  0.39976847936E+03  0.10566000000E+00 0. -1.
<mgrwt>
<rscale>  1 0.78256000E+03</rscale>
<asrwt>0</asrwt>
<pdfrwt beam="2">  1       21 0.10671470E+00 0.10440543E+04</pdfrwt>
<pdfrwt beam="1">  1        4 0.12349691E+00 0.10440543E+04</pdfrwt>
<totfact> 0.12770614E+01</totfact>
</mgrwt>
</event>
<event>
 6    1  0.1353269E-005  0.9037796E+03  0.7818608E-02  0.1023828E+00
         21   -1    0    0  501  502  0.00000000000E+00  0.00000000000E+00  0.20591754408E+04  0.20591754408E+04  0.00000000000E+00 0.  1.
          4   -1    0    0  502    0 -0.00000000000E+00 -0.00000000000E+00 -0.12775266328E+03  0.12775266328E+03  0.00000000000E+00 0.  1.
    9000010    2    1    2  501    0  0.16872478496E+02  0.60088239028E+02  0.19218943371E+04  0.21237926993E+04  0.90162204362E+03 0.  0.
        -13    1    3    3    0    0  0.12052278897E+03 -0.30003770467E+03  0.15920787801E+04  0.16245809368E+04  0.10566000000E+00 0.  1.
          4    1    3    3  501    0 -0.10365031047E+03  0.36012594370E+03  0.32981555696E+03  0.49921176248E+03  0.00000000000E+00 0.  1.
         13    1    1    2    0    0 -0.16872478496E+02 -0.60088239028E+02  0.95284404443E+01  0.63135404817E+02  0.10566000000E+00 0. -1.
<mgrwt>
<rscale>  1 0.46330219E+03</rscale>
<asrwt>0</asrwt>
<pdfrwt beam="1">  1       21 0.31679620E+00 0.90377961E+03</pdfrwt>
<pdfrwt beam="2">  1        4 0.19654257E-01 0.90377961E+03</pdfrwt>
<totfact> 0.20547803E+01</totfact>
</mgrwt>
</event>
<event>
 6    1  0.1353269E-005  0.1105669E+04  0.7818608E-02  0.9436137E-01
         21   -1    0    0  501  502  0.00000000000E+00  0.00000000000E+00  0.62614303962E+03  0.62614303962E+03  0.00000000000E+00 0.  1.
          4   -1    0    0  502    0 -0.00000000000E+00 -0.00000000000E+00 -0.14623014412E+04  0.14623014412E+04  0.00000000000E+00 0.  1.
    9000010    2    1    2  501    0  0.58605516360E+02 -0.46384729381E+03  0.27883600486E+02  0.11060201779E+04  0.10019551987E+04 0.  0.
        -13    1    3    3    0    0 -0.21667169999E+03 -0.14341509545E+03 -0.41776038279E+03  0.49197384460E+03  0.10566000000E+00 0.  1.
          4    1    3    3  501    0  0.27527721635E+03 -0.32043219836E+03  0.44564398328E+03  0.61404633328E+03  0.00000000000E+00 0.  1.
         13    1    1    2    0    0 -0.58605516360E+02  0.46384729381E+03 -0.86404200207E+03  0.98242430295E+03  0.10566000000E+00 0. -1.
<mgrwt>
<rscale>  1 0.89160453E+03</rscale>
<asrwt>0</asrwt>
<pdfrwt beam="1">  1       21 0.96329700E-01 0.11056686E+04</pdfrwt>
<pdfrwt beam="2">  1        4 0.22496945E+00 0.11056686E+04</pdfrwt>
<totfact> 0.29860548E+00</totfact>
</mgrwt>
</event>
<event>
 6    1  0.1353269E-005  0.1052669E+04  0.7818608E-02  0.9594369E-01
          4   -1    0    0  502    0 -0.00000000000E+00  0.00000000000E+00  0.50185798253E+03  0.50185798253E+03  0.00000000000E+00 0.  1.
         21   -1    0    0  501  502  0.00000000000E+00 -0.00000000000E+00 -0.14738145962E+04  0.14738145962E+04  0.00000000000E+00 0.  1.
    9000010    2    1    2  501    0  0.30248828474E+03 -0.76402349419E+02 -0.11947227510E+04  0.15923173330E+04  0.10053733415E+04 0.  0.
        -13    1    3    3    0    0 -0.36842092896E+03  0.31828798815E+02 -0.36197832626E+03  0.51747016646E+03  0.10566000000E+00 0.  1.
          4    1    3    3  501    0  0.67090921370E+03 -0.10823114823E+03 -0.83274442472E+03  0.10748471665E+04  0.00000000000E+00 0.  1.
         13    1    1    2    0    0 -0.30248828474E+03  0.76402349419E+02  0.22276613726E+03  0.38335524579E+03  0.10566000000E+00 0. -1.
<mgrwt>
<rscale>  1 0.77670006E+03</rscale>
<asrwt>0</asrwt>
<pdfrwt beam="2">  1       21 0.22674070E+00 0.10526690E+04</pdfrwt>
<pdfrwt beam="1">  1        4 0.77208922E-01 0.10526690E+04</pdfrwt>
<totfact> 0.45169040E+00</totfact>
</mgrwt>
</event>
<event>
 6    1  0.1353269E-005  0.1017188E+04  0.7818608E-02  0.1021259E+00
          4   -1    0    0  502    0 -0.00000000000E+00  0.00000000000E+00  0.29676368201E+03  0.29676368201E+03  0.00000000000E+00 0.  1.
         21   -1    0    0  501  502  0.00000000000E+00 -0.00000000000E+00 -0.16127069987E+04  0.16127069987E+04  0.00000000000E+00 0.  1.
    9000010    2    1    2  501    0  0.20218688238E+02 -0.42759289135E+02 -0.14477895497E+04  0.17693971553E+04  0.10160878706E+04 0.  0.
        -13    1    3    3    0    0  0.41549288225E+03  0.23955900032E+03 -0.99857235394E+03  0.11077768760E+04  0.10566000000E+00 0.  1.
          4    1    3    3  501    0 -0.39527419401E+03 -0.28231828945E+03 -0.44921719580E+03  0.66162027932E+03  0.00000000000E+00 0.  1.
         13    1    1    2    0    0 -0.20218688238E+02  0.42759289135E+02  0.13184623307E+03  0.14007352534E+03  0.10566000000E+00 0. -1.
<mgrwt>
<rscale>  1 0.47234919E+03</rscale>
<asrwt>0</asrwt>
<pdfrwt beam="2">  1       21 0.24810877E+00 0.10171881E+04</pdfrwt>
<pdfrwt beam="1">  1        4 0.45655951E-01 0.10171881E+04</pdfrwt>
<totfact> 0.10376439E+01</totfact>
</mgrwt>
</event>
<event>
 6    1  0.1353269E-005  0.1082016E+04  0.7818608E-02  0.9464185E-01
          4   -1    0    0  502    0 -0.00000000000E+00  0.00000000000E+00  0.25712055011E+03  0.25712055011E+03  0.00000000000E+00 0.  1.
         21   -1    0    0  501  502  0.00000000000E+00 -0.00000000000E+00 -0.23258391650E+04  0.23258391650E+04  0.00000000000E+00 0.  1.
    9000010    2    1    2  501    0  0.12359198326E+03 -0.43452574144E+03 -0.16041293543E+04  0.19349390438E+04  0.98319403957E+03 0.  0.
        -13    1    3    3    0    0 -0.37247425908E+03 -0.25428090972E+03 -0.11619189575E+04  0.12463753567E+04  0.10566000000E+00 0.  1.
          4    1    3    3  501    0  0.49606624234E+03 -0.18024483172E+03 -0.44221039681E+03  0.68856368711E+03  0.00000000000E+00 0.  1.
         13    1    1    2    0    0 -0.12359198326E+03  0.43452574144E+03 -0.46458926058E+03  0.64802067136E+03  0.10566000000E+00 0. -1.
<mgrwt>
<rscale>  1 0.86976569E+03</rscale>
<asrwt>0</asrwt>
<pdfrwt beam="2">  1       21 0.35782139E+00 0.10820158E+04</pdfrwt>
<pdfrwt beam="1">  1        4 0.39557010E-01 0.10820158E+04</pdfrwt>
<totfact> 0.28264913E+00</totfact>
</mgrwt>
</event>
<event>
 6    1  0.1353269E-005  0.1098766E+04  0.7818608E-02  0.9426341E-01
         21   -1    0    0  501  502  0.00000000000E+00  0.00000000000E+00  0.12945903333E+04  0.12945903333E+04  0.00000000000E+00 0.  1.
          4   -1    0    0  502    0 -0.00000000000E+00 -0.00000000000E+00 -0.49935294144E+03  0.49935294144E+03  0.00000000000E+00 0.  1.
    9000010    2    1    2  501    0 -0.61030326651E+02 -0.48947612521E+03  0.42884853489E+03  0.11794903607E+04  0.98182221771E+03 0.  0.
        -13    1    3    3    0    0 -0.42507658105E+03 -0.47802041199E+03  0.31487053255E+02  0.64045691481E+03  0.10566000000E+00 0.  1.
          4    1    3    3  501    0  0.36404625440E+03 -0.11455713211E+02  0.39736148163E+03  0.53903344589E+03  0.00000000000E+00 0.  1.
         13    1    1    2    0    0  0.61030326651E+02  0.48947612521E+03  0.36638885700E+03  0.61445291408E+03  0.10566000000E+00 0. -1.
<mgrwt>
<rscale>  1 0.89939253E+03</rscale>
<asrwt>0</asrwt>
<pdfrwt beam="1">  1       21 0.19916774E+00 0.10987659E+04</pdfrwt>
<pdfrwt beam="2">  1        4 0.76823530E-01 0.10987659E+04</pdfrwt>
<totfact> 0.69548072E+00</totfact>
</mgrwt>
</event>
<event>
 6    1  0.1353269E-005  0.1171928E+04  0.7818608E-02  0.9316047E-01
         21   -1    0    0  501  502  0.00000000000E+00  0.00000000000E+00  0.70740301423E+03  0.70740301423E+03  0.00000000000E+00 0. -1.
          4   -1    0    0  502    0 -0.00000000000E+00 -0.00000000000E+00 -0.12091600120E+04  0.12091600120E+04  0.00000000000E+00 0.  1.
    9000010    2    1    2  501    0  0.53802499443E+03 -0.27567694803E+03 -0.70655430978E+02  0.11740556213E+04  0.10039650082E+04 0.  0.
        -13    1    3    3    0    0  0.69517350589E+03 -0.10030477868E+03 -0.36945823069E+03  0.79361618388E+03  0.10566000000E+00 0.  1.
          4    1    3    3  501    0 -0.15714851147E+03 -0.17537216935E+03  0.29880279971E+03  0.38043943743E+03  0.00000000000E+00 0.  1.
         13    1    1    2    0    0 -0.53802499443E+03  0.27567694803E+03 -0.43110156678E+03  0.74250740491E+03  0.10566000000E+00 0. -1.
<mgrwt>
<rscale>  1 0.99318893E+03</rscale>
<asrwt>0</asrwt>
<pdfrwt beam="1">  1       21 0.10883123E+00 0.11719276E+04</pdfrwt>
<pdfrwt beam="2">  1        4 0.18602462E+00 0.11719276E+04</pdfrwt>
<totfact> 0.39384932E+00</totfact>
</mgrwt>
</event>
<event>
 6    1  0.1353269E-005  0.1003396E+04  0.7818608E-02  0.1002263E+00
          4   -1    0    0  502    0 -0.00000000000E+00  0.00000000000E+00  0.10920998321E+04  0.10920998321E+04  0.00000000000E+00 0.  1.
         21   -1    0    0  501  502  0.00000000000E+00 -0.00000000000E+00 -0.33307125160E+03  0.33307125160E+03  0.00000000000E+00 0.  1.
    9000010    2    1    2  501    0 -0.81737539919E+02  0.33716772837E+02  0.44269798041E+03  0.10967157505E+04  0.99949291607E+03 0.  0.
        -13    1    3    3    0    0 -0.33491414852E+03  0.26736904854E+03 -0.11272023565E+03  0.44312476537E+03  0.10566000000E+00 0.  1.
          4    1    3    3  501    0  0.25317660860E+03 -0.23365227570E+03  0.55541821606E+03  0.65359098511E+03  0.00000000000E+00 0.  1.
         13    1    1    2    0    0  0.81737539919E+02 -0.33716772837E+02  0.31633060014E+03  0.32845533326E+03  0.10566000000E+00 0. -1.
<mgrwt>
<rscale>  1 0.54668896E+03</rscale>
<asrwt>0</asrwt>
<pdfrwt beam="2">  1       21 0.51241732E-01 0.10033962E+04</pdfrwt>
<pdfrwt beam="1">  1        4 0.16801536E+00 0.10033962E+04</pdfrwt>
<totfact> 0.31175957E+01</totfact>
</mgrwt>
</event>
<event>
 6    1  0.1353269E-005  0.1024037E+04  0.7818608E-02  0.9722399E-01
         21   -1    0    0  501  502  0.00000000000E+00  0.00000000000E+00  0.29744028184E+03  0.29744028184E+03  0.00000000000E+00 0.  1.
          4   -1    0    0  502    0 -0.00000000000E+00 -0.00000000000E+00 -0.13827855233E+04  0.13827855233E+04  0.00000000000E+00 0.  1.
    9000010    2    1    2  501    0 -0.11848579578E+03 -0.18508433331E+03 -0.71279920153E+03  0.12476918096E+04  0.10001785120E+04 0.  0.
        -13    1    3    3    0    0 -0.46252402757E+03 -0.11157546244E+03 -0.26562382938E+02  0.47653240314E+03  0.10566000000E+00 0.  1.
          4    1    3    3  501    0  0.34403823179E+03 -0.73508870874E+02 -0.68623681859E+03  0.77115940649E+03  0.00000000000E+00 0.  1.
         13    1    1    2    0    0  0.11848579578E+03  0.18508433331E+03 -0.37254603994E+03  0.43253399552E+03  0.10566000000E+00 0. -1.
<mgrwt>
<rscale>  1 0.69698701E+03</rscale>
<asrwt>0</asrwt>
<pdfrwt beam="1">  1       21 0.45760043E-01 0.10240372E+04</pdfrwt>
<pdfrwt beam="2">  1        4 0.21273624E+00 0.10240372E+04</pdfrwt>
<totfact> 0.19702757E+01</totfact>
</mgrwt>
</event>
<event>
 6    1  0.1353269E-005  0.9864945E+03  0.7818608E-02  0.9911124E-01
          4   -1    0    0  502    0 -0.00000000000E+00  0.00000000000E+00  0.75579895347E+03  0.75579895347E+03  0.00000000000E+00 0.  1.
         21   -1    0    0  501  502  0.00000000000E+00 -0.00000000000E+00 -0.80004734714E+03  0.80004734714E+03  0.00000000000E+00 0.  1.
    9000010    2    1    2  501    0 -0.83066477563E+02 -0.10327974425E+03 -0.48237190742E+03  0.10981138791E+04  0.97755035115E+03 0.  0.
        -13    1    3    3    0    0  0.37667542356E+03  0.14610841770E+03 -0.27494935995E+02  0.40495435189E+03  0.10566000000E+00 0.  1.
          4    1    3    3  501    0 -0.45974190113E+03 -0.24938816196E+03 -0.45487697143E+03  0.69315952717E+03  0.00000000000E+00 0.  1.
         13    1    1    2    0    0  0.83066477563E+02  0.10327974425E+03  0.43812351376E+03  0.45773242155E+03  0.10566000000E+00 0. -1.
<mgrwt>
<rscale>  1 0.59725178E+03</rscale>
<asrwt>0</asrwt>
<pdfrwt beam="2">  1       21 0.12308421E+00 0.98649452E+03</pdfrwt>
<pdfrwt beam="1">  1        4 0.11627676E+00 0.98649452E+03</pdfrwt>
<totfact> 0.10375911E+01</totfact>
</mgrwt>
</event>
<event>
 6    1  0.1353269E-005  0.1029292E+04  0.7818608E-02  0.9762327E-01
          4   -1    0    0  502    0 -0.00000000000E+00  0.00000000000E+00  0.38519308459E+03  0.38519308459E+03  0.00000000000E+00 0.  1.
         21   -1    0    0  501  502  0.00000000000E+00 -0.00000000000E+00 -0.10315190232E+04  0.10315190232E+04  0.00000000000E+00 0.  1.
    9000010    2    1    2  501    0 -0.99902937381E+02 -0.16104479467E+03 -0.39623235343E+03  0.11029242251E+04  0.10116944923E+04 0.  0.
        -13    1    3    3    0    0  0.30825592548E+03 -0.40910815935E+03 -0.35559584729E+03  0.62357005975E+03  0.10566000000E+00 0.  1.
          4    1    3    3  501    0 -0.40815886286E+03  0.24806336468E+03 -0.40636506133E+02  0.47935416537E+03  0.00000000000E+00 0.  1.
         13    1    1    2    0    0  0.99902937381E+02  0.16104479467E+03 -0.25009358517E+03  0.31378788265E+03  0.10566000000E+00 0. -1.
<mgrwt>
<rscale>  1 0.67424077E+03</rscale>
<asrwt>0</asrwt>
<pdfrwt beam="2">  1       21 0.15869523E+00 0.10292919E+04</pdfrwt>
<pdfrwt beam="1">  1        4 0.59260474E-01 0.10292919E+04</pdfrwt>
<totfact> 0.24708856E+01</totfact>
</mgrwt>
</event>
<event>
 6    1  0.1353269E-005  0.1218149E+04  0.7818608E-02  0.9243481E-01
         21   -1    0    0  501  502  0.00000000000E+00  0.00000000000E+00  0.82027673927E+03  0.82027673927E+03  0.00000000000E+00 0. -1.
          4   -1    0    0  502    0 -0.00000000000E+00 -0.00000000000E+00 -0.11263178762E+04  0.11263178762E+04  0.00000000000E+00 0.  1.
    9000010    2    1    2  501    0  0.65374010675E+03 -0.25735368997E+03 -0.23304455658E+03  0.12402409074E+04  0.99512848123E+03 0.  0.
        -13    1    3    3    0    0 -0.69124451046E+02  0.25897124716E+03 -0.22801130125E+03  0.35189978865E+03  0.10566000000E+00 0.  1.
          4    1    3    3  501    0  0.72286455779E+03 -0.51632493714E+03 -0.50332553303E+01  0.88834111876E+03  0.00000000000E+00 0.  1.
         13    1    1    2    0    0 -0.65374010675E+03  0.25735368997E+03 -0.72996580302E+02  0.70635370800E+03  0.10566000000E+00 0. -1.
<mgrwt>
<rscale>  1 0.10615687E+04</rscale>
<asrwt>0</asrwt>
<pdfrwt beam="1">  1       21 0.12619642E+00 0.12181493E+04</pdfrwt>
<pdfrwt beam="2">  1        4 0.17327967E+00 0.12181493E+04</pdfrwt>
<totfact> 0.32810259E+00</totfact>
</mgrwt>
</event>
<event>
 6    1  0.1353269E-005  0.1045333E+04  0.7818608E-02  0.9660522E-01
          4   -1    0    0  502    0 -0.00000000000E+00  0.00000000000E+00  0.14216238141E+04  0.14216238141E+04  0.00000000000E+00 0.  1.
         21   -1    0    0  501  502  0.00000000000E+00 -0.00000000000E+00 -0.75703942283E+03  0.75703942283E+03  0.00000000000E+00 0.  1.
    9000010    2    1    2  501    0  0.12339335657E+03  0.22240348242E+03 -0.37336192562E+03  0.11100090378E+04  0.10139189844E+04 0.  0.
        -13    1    3    3    0    0 -0.43850924411E+02 -0.39899791137E+03 -0.15873683667E+03  0.43164757769E+03  0.10566000000E+00 0.  1.
          4    1    3    3  501    0  0.16724428098E+03  0.62140139379E+03 -0.21462508895E+03  0.67836146009E+03  0.00000000000E+00 0.  1.
         13    1    1    2    0    0 -0.12339335657E+03 -0.22240348242E+03  0.10379463168E+04  0.10686541991E+04  0.10566000000E+00 0. -1.
<mgrwt>
<rscale>  1 0.73416720E+03</rscale>
<asrwt>0</asrwt>
<pdfrwt beam="2">  1       21 0.11646760E+00 0.10453329E+04</pdfrwt>
<pdfrwt beam="1">  1        4 0.21871136E+00 0.10453329E+04</pdfrwt>
<totfact> 0.20468434E+00</totfact>
</mgrwt>
</event>
<event>
 6    1  0.1353269E-005  0.7923476E+03  0.7818608E-02  0.1007556E+00
         21   -1    0    0  501  502  0.00000000000E+00  0.00000000000E+00  0.70459112696E+03  0.70459112696E+03  0.00000000000E+00 0.  1.
          4   -1    0    0  502    0 -0.00000000000E+00 -0.00000000000E+00 -0.54216339225E+03  0.54216339225E+03  0.00000000000E+00 0.  1.
    9000010    2    1    2  501    0  0.10390182598E+03 -0.11125390459E+03  0.45734604802E+03  0.91486621960E+03  0.77758714714E+03 0.  0.
        -13    1    3    3    0    0  0.19637832622E+03  0.23939285230E+03  0.45725761818E+03  0.55222995689E+03  0.10566000000E+00 0.  1.
          4    1    3    3  501    0 -0.92476500247E+02 -0.35064675689E+03  0.88429846649E-01  0.36263626271E+03  0.00000000000E+00 0.  1.
         13    1    1    2    0    0 -0.10390182598E+03  0.11125390459E+03 -0.29491831331E+03  0.33188829960E+03  0.10566000000E+00 0. -1.
<mgrwt>
<rscale>  1 0.52457753E+03</rscale>
<asrwt>0</asrwt>
<pdfrwt beam="1">  1       21 0.10839864E+00 0.79234765E+03</pdfrwt>
<pdfrwt beam="2">  1        4 0.83409752E-01 0.79234765E+03</pdfrwt>
<totfact> 0.32570410E+01</totfact>
</mgrwt>
</event>
<event>
 6    1  0.1353269E-005  0.1540164E+04  0.7818608E-02  0.8930144E-01
         21   -1    0    0  501  502  0.00000000000E+00  0.00000000000E+00  0.18678108748E+04  0.18678108748E+04  0.00000000000E+00 0. -1.
          4   -1    0    0  502    0 -0.00000000000E+00 -0.00000000000E+00 -0.97238530146E+03  0.97238530146E+03  0.00000000000E+00 0.  1.
    9000010    2    1    2  501    0  0.99807789496E+03 -0.58085347983E+03  0.53574783855E+03  0.16306845667E+04  0.10190957562E+04 0.  0.
        -13    1    3    3    0    0  0.10488591507E+04 -0.16056805851E+03  0.57263990582E+03  0.12057379866E+04  0.10566000000E+00 0.  1.
          4    1    3    3  501    0 -0.50781255789E+02 -0.42028542132E+03 -0.36892067266E+02  0.42494658010E+03  0.00000000000E+00 0.  1.
         13    1    1    2    0    0 -0.99807789496E+03  0.58085347983E+03  0.35967773475E+03  0.12095116095E+04  0.10566000000E+00 0. -1.
<mgrwt>
<rscale>  1 0.14331825E+04</rscale>
<asrwt>0</asrwt>
<pdfrwt beam="1">  1       21 0.28735552E+00 0.15401644E+04</pdfrwt>
<pdfrwt beam="2">  1        4 0.14959774E+00 0.15401644E+04</pdfrwt>
<totfact> 0.33641744E-01</totfact>
</mgrwt>
</event>
<event>
 6    1  0.1353269E-005  0.1004446E+04  0.7818608E-02  0.1021472E+00
         21   -1    0    0  501  502  0.00000000000E+00  0.00000000000E+00  0.12089719024E+04  0.12089719024E+04  0.00000000000E+00 0.  1.
          4   -1    0    0  502    0 -0.00000000000E+00 -0.00000000000E+00 -0.25028256762E+03  0.25028256762E+03  0.00000000000E+00 0.  1.
    9000010    2    1    2  501    0  0.23316750242E+02 -0.42877008320E+02  0.98239461302E+03  0.14049952767E+04  0.10032599081E+04 0.  0.
        -13    1    3    3    0    0  0.25959255321E+03 -0.15277050721E+02 -0.11338924459E+03  0.28368788115E+03  0.10566000000E+00 0.  1.
          4    1    3    3  501    0 -0.23627580297E+03 -0.27599957599E+02  0.10957838576E+04  0.11213073955E+04  0.00000000000E+00 0.  1.
         13    1    1    2    0    0 -0.23316750242E+02  0.42877008320E+02 -0.23705278199E+02  0.54259193349E+02  0.10566000000E+00 0. -1.
<mgrwt>
<rscale>  1 0.47159102E+03</rscale>
<asrwt>0</asrwt>
<pdfrwt beam="1">  1       21 0.18599567E+00 0.10044464E+04</pdfrwt>
<pdfrwt beam="2">  1        4 0.38505011E-01 0.10044464E+04</pdfrwt>
<totfact> 0.38330612E+01</totfact>
</mgrwt>
</event>
<event>
 6    1  0.1353269E-005  0.1053798E+04  0.7818608E-02  0.9588108E-01
         21   -1    0    0  501  502  0.00000000000E+00  0.00000000000E+00  0.88233577940E+03  0.88233577940E+03  0.00000000000E+00 0.  1.
          4   -1    0    0  502    0 -0.00000000000E+00 -0.00000000000E+00 -0.53778709881E+03  0.53778709881E+03  0.00000000000E+00 0.  1.
    9000010    2    1    2  501    0  0.98112615988E+02 -0.30221289421E+03  0.32057361673E+03  0.11014796079E+04  0.10047542805E+04 0.  0.
        -13    1    3    3    0    0 -0.17903239535E+03 -0.81546029474E+02  0.61194198204E+03  0.64278717633E+03  0.10566000000E+00 0.  1.
          4    1    3    3  501    0  0.27714501134E+03 -0.22066686474E+03 -0.29136836531E+03  0.45869243160E+03  0.00000000000E+00 0.  1.
         13    1    1    2    0    0 -0.98112615988E+02  0.30221289421E+03  0.23975063851E+02  0.31864327028E+03  0.10566000000E+00 0. -1.
<mgrwt>
<rscale>  1 0.78088299E+03</rscale>
<asrwt>0</asrwt>
<pdfrwt beam="1">  1       21 0.13574397E+00 0.10537978E+04</pdfrwt>
<pdfrwt beam="2">  1        4 0.82736477E-01 0.10537978E+04</pdfrwt>
<totfact> 0.17983198E+01</totfact>
</mgrwt>
</event>
<event>
 6    1  0.1353269E-005  0.1054831E+04  0.7818608E-02  0.9674680E-01
          4   -1    0    0  502    0 -0.00000000000E+00  0.00000000000E+00  0.15451815693E+04  0.15451815693E+04  0.00000000000E+00 0.  1.
         21   -1    0    0  501  502  0.00000000000E+00 -0.00000000000E+00 -0.95462255087E+03  0.95462255087E+03  0.00000000000E+00 0.  1.
    9000010    2    1    2  501    0 -0.18007662950E+03 -0.15250530259E+03 -0.64866047916E+03  0.12383167306E+04  0.10280965169E+04 0.  0.
        -13    1    3    3    0    0 -0.53596373428E+03 -0.26613273406E+03 -0.15302953627E+03  0.61765832524E+03  0.10566000000E+00 0.  1.
          4    1    3    3  501    0  0.35588710478E+03  0.11362743147E+03 -0.49563094290E+03  0.62065840532E+03  0.00000000000E+00 0.  1.
         13    1    1    2    0    0  0.18007662950E+03  0.15250530259E+03  0.12392194976E+04  0.12614873897E+04  0.10566000000E+00 0. -1.
<mgrwt>
<rscale>  1 0.72544555E+03</rscale>
<asrwt>0</asrwt>
<pdfrwt beam="2">  1       21 0.14686501E+00 0.10548307E+04</pdfrwt>
<pdfrwt beam="1">  1        4 0.23772024E+00 0.10548307E+04</pdfrwt>
<totfact> 0.83452068E-01</totfact>
</mgrwt>
</event>
<event>
 6    1  0.1353269E-005  0.1052371E+04  0.7818608E-02  0.9591074E-01
         21   -1    0    0  501  502  0.00000000000E+00  0.00000000000E+00  0.88713375140E+03  0.88713375140E+03  0.00000000000E+00 0.  1.
          4   -1    0    0  502    0 -0.00000000000E+00 -0.00000000000E+00 -0.69321875647E+03  0.69321875647E+03  0.00000000000E+00 0.  1.
    9000010    2    1    2  501    0 -0.25984476713E+03  0.17947606007E+03  0.47775457916E+03  0.11557398845E+04  0.10038696547E+04 0.  0.
        -13    1    3    3    0    0  0.38741048086E+03  0.97932134567E+02  0.16600296903E+03  0.43270611337E+03  0.10566000000E+00 0.  1.
          4    1    3    3  501    0 -0.64725524799E+03  0.81543925506E+02  0.31175161013E+03  0.72303377117E+03  0.00000000000E+00 0.  1.
         13    1    1    2    0    0  0.25984476713E+03 -0.17947606007E+03 -0.28383958423E+03  0.42461262332E+03  0.10566000000E+00 0. -1.
<mgrwt>
<rscale>  1 0.77889782E+03</rscale>
<asrwt>0</asrwt>
<pdfrwt beam="1">  1       21 0.13648212E+00 0.10523712E+04</pdfrwt>
<pdfrwt beam="2">  1        4 0.10664904E+00 0.10523712E+04</pdfrwt>
<totfact> 0.96872316E+00</totfact>
</mgrwt>
</event>
<event>
 6    1  0.1353269E-005  0.1008244E+04  0.7818608E-02  0.9959846E-01
          4   -1    0    0  502    0 -0.00000000000E+00  0.00000000000E+00  0.76929274151E+03  0.76929274151E+03  0.00000000000E+00 0.  1.
         21   -1    0    0  501  502  0.00000000000E+00 -0.00000000000E+00 -0.43865553909E+03  0.43865553909E+03  0.00000000000E+00 0.  1.
    9000010    2    1    2  501    0  0.66112602778E+02 -0.83184773347E+02  0.18090507675E+03  0.10243446222E+04  0.10026288822E+04 0.  0.
        -13    1    3    3    0    0  0.51091587339E+03  0.93389362807E+02  0.16701620562E+03  0.54557403427E+03  0.10566000000E+00 0.  1.
          4    1    3    3  501    0 -0.44480327061E+03 -0.17657413615E+03  0.13888871127E+02  0.47877058791E+03  0.00000000000E+00 0.  1.
         13    1    1    2    0    0 -0.66112602778E+02  0.83184773347E+02  0.14973212568E+03  0.18360365842E+03  0.10566000000E+00 0. -1.
<mgrwt>
<rscale>  1 0.57446519E+03</rscale>
<asrwt>0</asrwt>
<pdfrwt beam="2">  1       21 0.67485468E-01 0.10082437E+04</pdfrwt>
<pdfrwt beam="1">  1        4 0.11835273E+00 0.10082437E+04</pdfrwt>
<totfact> 0.42653063E+01</totfact>
</mgrwt>
</event>
<event>
 6    1  0.1353269E-005  0.1007347E+04  0.7818608E-02  0.9508808E-01
          4   -1    0    0  502    0 -0.00000000000E+00  0.00000000000E+00  0.14364260286E+04  0.14364260286E+04  0.00000000000E+00 0.  1.
         21   -1    0    0  501  502  0.00000000000E+00 -0.00000000000E+00 -0.80243968127E+03  0.80243968127E+03  0.00000000000E+00 0.  1.
    9000010    2    1    2  501    0  0.26007526031E+03  0.40189395454E+03 -0.41215340397E+03  0.10884022023E+04  0.88633573431E+03 0.  0.
        -13    1    3    3    0    0 -0.21634592583E+03  0.45124607119E+03 -0.83072807989E+02  0.50727672821E+03  0.10566000000E+00 0.  1.
          4    1    3    3  501    0  0.47642118615E+03 -0.49352116650E+02 -0.32908059598E+03  0.58112547413E+03  0.00000000000E+00 0.  1.
         13    1    1    2    0    0 -0.26007526031E+03 -0.40189395454E+03  0.10461397513E+04  0.11504635075E+04  0.10566000000E+00 0. -1.
<mgrwt>
<rscale>  1 0.83637555E+03</rscale>
<asrwt>0</asrwt>
<pdfrwt beam="2">  1       21 0.12345226E+00 0.10073475E+04</pdfrwt>
<pdfrwt beam="1">  1        4 0.22098862E+00 0.10073475E+04</pdfrwt>
<totfact> 0.17113394E+00</totfact>
</mgrwt>
</event>
<event>
 6    1  0.1353269E-005  0.1025105E+04  0.7818608E-02  0.9679068E-01
          4   -1    0    0  502    0 -0.00000000000E+00  0.00000000000E+00  0.22391577760E+03  0.22391577760E+03  0.00000000000E+00 0.  1.
         21   -1    0    0  501  502  0.00000000000E+00 -0.00000000000E+00 -0.19102434130E+04  0.19102434130E+04  0.00000000000E+00 0. -1.
    9000010    2    1    2  501    0  0.25280775752E+03 -0.16307117763E+02 -0.15116128920E+04  0.18264207675E+04  0.99330841143E+03 0.  0.
        -13    1    3    3    0    0  0.22089189931E+03  0.41040589832E+03 -0.33377909212E+03  0.57326671459E+03  0.10566000000E+00 0.  1.
          4    1    3    3  501    0  0.31915858216E+02 -0.42671301608E+03 -0.11778337999E+04  0.12531540529E+04  0.00000000000E+00 0.  1.
         13    1    1    2    0    0 -0.25280775752E+03  0.16307117763E+02 -0.17471474340E+03  0.30773842314E+03  0.10566000000E+00 0. -1.
<mgrwt>
<rscale>  1 0.72276835E+03</rscale>
<asrwt>0</asrwt>
<pdfrwt beam="2">  1       21 0.29388360E+00 0.10251045E+04</pdfrwt>
<pdfrwt beam="1">  1        4 0.34448581E-01 0.10251045E+04</pdfrwt>
<totfact> 0.94932228E+00</totfact>
</mgrwt>
</event>
<event>
 6    1  0.1353269E-005  0.1190394E+04  0.7818608E-02  0.9282124E-01
          4   -1    0    0  502    0 -0.00000000000E+00  0.00000000000E+00  0.49562115936E+03  0.49562115936E+03  0.00000000000E+00 0.  1.
         21   -1    0    0  501  502  0.00000000000E+00 -0.00000000000E+00 -0.17476222951E+04  0.17476222951E+04  0.00000000000E+00 0.  1.
    9000010    2    1    2  501    0 -0.60462467796E+03  0.24659259391E+03 -0.95390318264E+03  0.15254403412E+04  0.99531806183E+03 0.  0.
        -13    1    3    3    0    0 -0.49571490306E+02  0.83585458571E+02 -0.94181974939E+03  0.94682010595E+03  0.10566000000E+00 0.  1.
          4    1    3    3  501    0 -0.55505318766E+03  0.16300713534E+03 -0.12083433246E+02  0.57862023527E+03  0.00000000000E+00 0.  1.
         13    1    1    2    0    0  0.60462467796E+03 -0.24659259391E+03 -0.29809795312E+03  0.71780311325E+03  0.10566000000E+00 0. -1.
<mgrwt>
<rscale>  1 0.10244539E+04</rscale>
<asrwt>0</asrwt>
<pdfrwt beam="2">  1       21 0.26886498E+00 0.11903936E+04</pdfrwt>
<pdfrwt beam="1">  1        4 0.76249407E-01 0.11903936E+04</pdfrwt>
<totfact> 0.24463932E+00</totfact>
</mgrwt>
</event>
<event>
 6    1  0.1353269E-005  0.1016012E+04  0.7818608E-02  0.9711467E-01
         21   -1    0    0  501  502  0.00000000000E+00  0.00000000000E+00  0.95942575172E+03  0.95942575172E+03  0.00000000000E+00 0.  1.
          4   -1    0    0  502    0 -0.00000000000E+00 -0.00000000000E+00 -0.48190124293E+03  0.48190124293E+03  0.00000000000E+00 0.  1.
    9000010    2    1    2  501    0  0.36412110684E+02 -0.23052376207E+03  0.59774148095E+03  0.11788023706E+04  0.98884432757E+03 0.  0.
        -13    1    3    3    0    0  0.33765154284E+03  0.26543056853E+03  0.19024087371E+03  0.46973774841E+03  0.10566000000E+00 0.  1.
          4    1    3    3  501    0 -0.30123943215E+03 -0.49595433059E+03  0.40750060724E+03  0.70906462217E+03  0.00000000000E+00 0.  1.
         13    1    1    2    0    0 -0.36412110684E+02  0.23052376207E+03 -0.12021697216E+03  0.26252462407E+03  0.10566000000E+00 0. -1.
<mgrwt>
<rscale>  1 0.70338132E+03</rscale>
<asrwt>0</asrwt>
<pdfrwt beam="1">  1       21 0.14760396E+00 0.10160119E+04</pdfrwt>
<pdfrwt beam="2">  1        4 0.74138653E-01 0.10160119E+04</pdfrwt>
<totfact> 0.18454281E+01</totfact>
</mgrwt>
</event>
<event>
 6    1  0.1353269E-005  0.1281303E+04  0.7818608E-02  0.9168699E-01
         21   -1    0    0  501  502  0.00000000000E+00  0.00000000000E+00  0.17649972817E+04  0.17649972817E+04  0.00000000000E+00 0. -1.
          4   -1    0    0  502    0 -0.00000000000E+00 -0.00000000000E+00 -0.61258432039E+03  0.61258432039E+03  0.00000000000E+00 0.  1.
    9000010    2    1    2  501    0  0.72595015015E+03  0.33127744454E+03  0.73152156598E+03  0.14754186769E+04  0.10024909500E+04 0.  0.
        -13    1    3    3    0    0  0.82433361509E+03  0.46583884075E+03  0.84879502380E+03  0.12716071477E+04  0.10566000000E+00 0.  1.
          4    1    3    3  501    0 -0.98383464938E+02 -0.13456139622E+03 -0.11727345782E+03  0.20381152920E+03  0.00000000000E+00 0.  1.
         13    1    1    2    0    0 -0.72595015015E+03 -0.33127744454E+03  0.42089139535E+03  0.90216292520E+03  0.10566000000E+00 0. -1.
<mgrwt>
<rscale>  1 0.11382424E+04</rscale>
<asrwt>0</asrwt>
<pdfrwt beam="1">  1       21 0.27153804E+00 0.12813026E+04</pdfrwt>
<pdfrwt beam="2">  1        4 0.94243742E-01 0.12813026E+04</pdfrwt>
<totfact> 0.14161953E+00</totfact>
</mgrwt>
</event>
<event>
 6    1  0.1353269E-005  0.1094518E+04  0.7818608E-02  0.9606755E-01
          4   -1    0    0  502    0 -0.00000000000E+00  0.00000000000E+00  0.51269071865E+03  0.51269071865E+03  0.00000000000E+00 0.  1.
         21   -1    0    0  501  502  0.00000000000E+00 -0.00000000000E+00 -0.10483762320E+04  0.10483762320E+04  0.00000000000E+00 0.  1.
    9000010    2    1    2  501    0 -0.19849609951E+03  0.17711190098E+03 -0.64838661620E+03  0.12721536821E+04  0.10616969718E+04 0.  0.
        -13    1    3    3    0    0 -0.27175819096E+03  0.92552547398E+02 -0.92778507081E+03  0.97118671591E+03  0.10566000000E+00 0.  1.
          4    1    3    3  501    0  0.73262091449E+02  0.84559353585E+02  0.27939845461E+03  0.30096696623E+03  0.00000000000E+00 0.  1.
         13    1    1    2    0    0  0.19849609951E+03 -0.17711190098E+03  0.11270110283E+03  0.28891326853E+03  0.10566000000E+00 0. -1.
<mgrwt>
<rscale>  1 0.76850702E+03</rscale>
<asrwt>0</asrwt>
<pdfrwt beam="2">  1       21 0.16128865E+00 0.10945181E+04</pdfrwt>
<pdfrwt beam="1">  1        4 0.78875496E-01 0.10945181E+04</pdfrwt>
<totfact> 0.12370902E+01</totfact>
</mgrwt>
</event>
<event>
 6    1  0.1353269E-005  0.1030942E+04  0.7818608E-02  0.9634747E-01
         21   -1    0    0  501  502  0.00000000000E+00  0.00000000000E+00  0.58949204679E+03  0.58949204679E+03  0.00000000000E+00 0.  1.
          4   -1    0    0  502    0 -0.00000000000E+00 -0.00000000000E+00 -0.81945541335E+03  0.81945541335E+03  0.00000000000E+00 0.  1.
    9000010    2    1    2  501    0  0.22425731288E+03 -0.18285510358E+03 -0.35962794755E+03  0.10918666408E+04  0.98950147513E+03 0.  0.
        -13    1    3    3    0    0 -0.12392139463E+02  0.28245435717E+03  0.18467035535E+03  0.33769391513E+03  0.10566000000E+00 0.  1.
          4    1    3    3  501    0  0.23664945234E+03 -0.46530946075E+03 -0.54429830290E+03  0.75417272564E+03  0.00000000000E+00 0.  1.
         13    1    1    2    0    0 -0.22425731288E+03  0.18285510358E+03  0.12966458099E+03  0.31708081937E+03  0.10566000000E+00 0. -1.
<mgrwt>
<rscale>  1 0.75038476E+03</rscale>
<asrwt>0</asrwt>
<pdfrwt beam="1">  1       21 0.90691084E-01 0.10309416E+04</pdfrwt>
<pdfrwt beam="2">  1        4 0.12607006E+00 0.10309416E+04</pdfrwt>
<totfact> 0.18137734E+01</totfact>
</mgrwt>
</event>
<event>
 6    1  0.1353269E-005  0.1033464E+04  0.7818608E-02  0.9797570E-01
          4   -1    0    0  502    0 -0.00000000000E+00  0.00000000000E+00  0.69566322535E+03  0.69566322535E+03  0.00000000000E+00 0.  1.
         21   -1    0    0  501  502  0.00000000000E+00 -0.00000000000E+00 -0.61294966931E+03  0.61294966931E+03  0.00000000000E+00 0.  1.
    9000010    2    1    2  501    0 -0.39101342281E+02 -0.16203373979E+03 -0.12643286320E+03  0.10411692863E+04  0.10199335106E+04 0.  0.
        -13    1    3    3    0    0 -0.37668500676E+03 -0.19241681001E+03  0.28354029653E+03  0.50922581829E+03  0.10566000000E+00 0.  1.
          4    1    3    3  501    0  0.33758366448E+03  0.30383070212E+02 -0.40997315973E+03  0.53194346803E+03  0.00000000000E+00 0.  1.
         13    1    1    2    0    0  0.39101342281E+02  0.16203373979E+03  0.20914641924E+03  0.26744360834E+03  0.10566000000E+00 0. -1.
<mgrwt>
<rscale>  1 0.65493114E+03</rscale>
<asrwt>0</asrwt>
<pdfrwt beam="2">  1       21 0.94299949E-01 0.10334642E+04</pdfrwt>
<pdfrwt beam="1">  1        4 0.10702511E+00 0.10334642E+04</pdfrwt>
<totfact> 0.24821727E+01</totfact>
</mgrwt>
</event>
<event>
 6    1  0.1353269E-005  0.1207505E+04  0.7818608E-02  0.9253220E-01
          4   -1    0    0  502    0 -0.00000000000E+00  0.00000000000E+00  0.11622934887E+04  0.11622934887E+04  0.00000000000E+00 0.  1.
         21   -1    0    0  501  502  0.00000000000E+00 -0.00000000000E+00 -0.79688429654E+03  0.79688429654E+03  0.00000000000E+00 0. -1.
    9000010    2    1    2  501    0  0.43220517119E+03  0.54530676845E+03  0.90052533649E+02  0.12108582798E+04  0.98686753580E+03 0.  0.
        -13    1    3    3    0    0  0.59434481481E+03  0.63556804238E+02 -0.19418035496E+03  0.62848329148E+03  0.10566000000E+00 0.  1.
          4    1    3    3  501    0 -0.16213964362E+03  0.48174996421E+03  0.28423288861E+03  0.58237498832E+03  0.00000000000E+00 0.  1.
         13    1    1    2    0    0 -0.43220517119E+03 -0.54530676845E+03  0.27535665854E+03  0.74831950548E+03  0.10566000000E+00 0. -1.
<mgrwt>
<rscale>  1 0.10520597E+04</rscale>
<asrwt>0</asrwt>
<pdfrwt beam="2">  1       21 0.12259758E+00 0.12075050E+04</pdfrwt>
<pdfrwt beam="1">  1        4 0.17881438E+00 0.12075050E+04</pdfrwt>
<totfact> 0.32390631E+00</totfact>
</mgrwt>
</event>
<event>
 6    1  0.1353269E-005  0.9961861E+03  0.7818608E-02  0.1015861E+00
         21   -1    0    0  501  502  0.00000000000E+00  0.00000000000E+00  0.13470898256E+03  0.13470898256E+03  0.00000000000E+00 0.  1.
          4   -1    0    0  502    0 -0.00000000000E+00 -0.00000000000E+00 -0.21507820422E+04  0.21507820422E+04  0.00000000000E+00 0.  1.
    9000010    2    1    2  501    0 -0.91075372609E+01 -0.58617155881E+02 -0.17574578161E+04  0.20201595838E+04  0.99441834783E+03 0.  0.
        -13    1    3    3    0    0 -0.13326869040E+03 -0.43441271435E+03 -0.39730162734E+03  0.60359220048E+03  0.10566000000E+00 0.  1.
          4    1    3    3  501    0  0.12416115314E+03  0.37579555847E+03 -0.13601561887E+04  0.14165673833E+04  0.00000000000E+00 0.  1.
         13    1    1    2    0    0  0.91075372609E+01  0.58617155881E+02 -0.25861524356E+03  0.26533144097E+03  0.10566000000E+00 0. -1.
<mgrwt>
<rscale>  1 0.49210376E+03</rscale>
<asrwt>0</asrwt>
<pdfrwt beam="1">  1       21 0.20724457E-01 0.99618611E+03</pdfrwt>
<pdfrwt beam="2">  1        4 0.33088957E+00 0.99618611E+03</pdfrwt>
<totfact> 0.18084214E+01</totfact>
</mgrwt>
</event>
<event>
 6    1  0.1353269E-005  0.9903956E+03  0.7818608E-02  0.9798424E-01
         21   -1    0    0  501  502  0.00000000000E+00  0.00000000000E+00  0.12570938526E+04  0.12570938526E+04  0.00000000000E+00 0.  1.
          4   -1    0    0  502    0 -0.00000000000E+00 -0.00000000000E+00 -0.28560376151E+03  0.28560376151E+03  0.00000000000E+00 0.  1.
    9000010    2    1    2  501    0 -0.18851628731E+03  0.11370563276E+02  0.70340306960E+03  0.12147672213E+04  0.97222211623E+03 0.  0.
        -13    1    3    3    0    0  0.76974648758E+02 -0.30981743913E+03 -0.78506690831E+02  0.32874800959E+03  0.10566000000E+00 0.  1.
          4    1    3    3  501    0 -0.26549093607E+03  0.32118800241E+03  0.78190976043E+03  0.88601921169E+03  0.00000000000E+00 0.  1.
         13    1    1    2    0    0  0.18851628731E+03 -0.11370563276E+02  0.26808702151E+03  0.32793039285E+03  0.10566000000E+00 0. -1.
<mgrwt>
<rscale>  1 0.65447185E+03</rscale>
<asrwt>0</asrwt>
<pdfrwt beam="1">  1       21 0.19339905E+00 0.99039564E+03</pdfrwt>
<pdfrwt beam="2">  1        4 0.43939041E-01 0.99039564E+03</pdfrwt>
<totfact> 0.25981393E+01</totfact>
</mgrwt>
</event>
<event>
 6    1  0.1353269E-005  0.1109984E+04  0.7818608E-02  0.9445793E-01
         21   -1    0    0  501  502  0.00000000000E+00  0.00000000000E+00  0.16539881511E+04  0.16539881511E+04  0.00000000000E+00 0.  1.
          4   -1    0    0  502    0 -0.00000000000E+00 -0.00000000000E+00 -0.36759496246E+03  0.36759496246E+03  0.00000000000E+00 0.  1.
    9000010    2    1    2  501    0  0.13204139421E+03 -0.42659144112E+03  0.97245611913E+03  0.14757152887E+04  0.10161936441E+04 0.  0.
        -13    1    3    3    0    0  0.23041450377E+03  0.14721425224E+03 -0.69522752637E+02  0.28212816929E+03  0.10566000000E+00 0.  1.
          4    1    3    3  501    0 -0.98373109555E+02 -0.57380569337E+03  0.10419788718E+04  0.11935871194E+04  0.00000000000E+00 0.  1.
         13    1    1    2    0    0 -0.13204139421E+03  0.42659144112E+03  0.31393706949E+03  0.54586782483E+03  0.10566000000E+00 0. -1.
<mgrwt>
<rscale>  1 0.88401035E+03</rscale>
<asrwt>0</asrwt>
<pdfrwt beam="1">  1       21 0.25445971E+00 0.11099841E+04</pdfrwt>
<pdfrwt beam="2">  1        4 0.56553072E-01 0.11099841E+04</pdfrwt>
<totfact> 0.59263439E+00</totfact>
</mgrwt>
</event>
<event>
 6    1  0.1353269E-005  0.8238024E+03  0.7818608E-02  0.9835777E-01
          4   -1    0    0  502    0 -0.00000000000E+00  0.00000000000E+00  0.15000280929E+04  0.15000280929E+04  0.00000000000E+00 0.  1.
         21   -1    0    0  501  502  0.00000000000E+00 -0.00000000000E+00 -0.20692585704E+03  0.20692585704E+03  0.00000000000E+00 0.  1.
    9000010    2    1    2  501    0 -0.29038838699E+03 -0.32301911357E+01  0.96331923988E+03  0.12675308224E+04  0.77091801011E+03 0.  0.
        -13    1    3    3    0    0 -0.46374629700E+03 -0.20095880966E+03  0.83229084573E+03  0.97373155141E+03  0.10566000000E+00 0.  1.
          4    1    3    3  501    0  0.17335791001E+03  0.19772861852E+03  0.13102839415E+03  0.29379927097E+03  0.00000000000E+00 0.  1.
         13    1    1    2    0    0  0.29038838699E+03  0.32301911357E+01  0.32978299594E+03  0.43942312753E+03  0.10566000000E+00 0. -1.
<mgrwt>
<rscale>  1 0.63477364E+03</rscale>
<asrwt>0</asrwt>
<pdfrwt beam="2">  1       21 0.31834748E-01 0.82380242E+03</pdfrwt>
<pdfrwt beam="1">  1        4 0.23077355E+00 0.82380242E+03</pdfrwt>
<totfact> 0.32877016E+01</totfact>
</mgrwt>
</event>
<event>
 6    1  0.1353269E-005  0.9981870E+03  0.7818608E-02  0.9819919E-01
         21   -1    0    0  501  502  0.00000000000E+00  0.00000000000E+00  0.30264914559E+03  0.30264914559E+03  0.00000000000E+00 0.  1.
          4   -1    0    0  502    0 -0.00000000000E+00 -0.00000000000E+00 -0.13943055019E+04  0.13943055019E+04  0.00000000000E+00 0.  1.
    9000010    2    1    2  501    0 -0.13658283050E+03 -0.10441186858E+03 -0.57391290187E+03  0.11514136283E+04  0.98327036797E+03 0.  0.
        -13    1    3    3    0    0  0.27854252336E+03  0.30633502473E+03 -0.24830844660E+03  0.48278792499E+03  0.10566000000E+00 0.  1.
          4    1    3    3  501    0 -0.41512535386E+03 -0.41074689331E+03 -0.32560445527E+03  0.66862570328E+03  0.00000000000E+00 0.  1.
         13    1    1    2    0    0  0.13658283050E+03  0.10441186858E+03 -0.51774345443E+03  0.54554101923E+03  0.10566000000E+00 0. -1.
<mgrwt>
<rscale>  1 0.64304441E+03</rscale>
<asrwt>0</asrwt>
<pdfrwt beam="1">  1       21 0.46561408E-01 0.99818702E+03</pdfrwt>
<pdfrwt beam="2">  1        4 0.21450853E+00 0.99818702E+03</pdfrwt>
<totfact> 0.18541540E+01</totfact>
</mgrwt>
</event>
<event>
 6    1  0.1353269E-005  0.1613040E+04  0.7818608E-02  0.8870861E-01
         21   -1    0    0  501  502  0.00000000000E+00  0.00000000000E+00  0.20696586163E+04  0.20696586163E+04  0.00000000000E+00 0. -1.
          4   -1    0    0  502    0 -0.00000000000E+00 -0.00000000000E+00 -0.10113523302E+04  0.10113523302E+04  0.00000000000E+00 0.  1.
    9000010    2    1    2  501    0 -0.12566668933E+04  0.20886875858E+03  0.48775240090E+03  0.16851708460E+04  0.98947487917E+03 0.  0.
        -13    1    3    3    0    0 -0.98678057907E+03 -0.23703525228E+03  0.55978210124E+03  0.11589985479E+04  0.10566000000E+00 0.  1.
          4    1    3    3  501    0 -0.26988631424E+03  0.44590401086E+03 -0.72029700345E+02  0.52617229806E+03  0.00000000000E+00 0.  1.
         13    1    1    2    0    0  0.12566668933E+04 -0.20886875858E+03  0.57055388525E+03  0.13958401005E+04  0.10566000000E+00 0. -1.
<mgrwt>
<rscale>  1 0.15206117E+04</rscale>
<asrwt>0</asrwt>
<pdfrwt beam="1">  1       21 0.31840902E+00 0.16130401E+04</pdfrwt>
<pdfrwt beam="2">  1        4 0.15559267E+00 0.16130401E+04</pdfrwt>
<totfact> 0.19041043E-01</totfact>
</mgrwt>
</event>
<event>
 6    1  0.1353269E-005  0.1020843E+04  0.7818608E-02  0.9839248E-01
          4   -1    0    0  502    0 -0.00000000000E+00  0.00000000000E+00  0.44421127676E+03  0.44421127676E+03  0.00000000000E+00 0.  1.
         21   -1    0    0  501  502  0.00000000000E+00 -0.00000000000E+00 -0.90638956879E+03  0.90638956879E+03  0.00000000000E+00 0.  1.
    9000010    2    1    2  501    0 -0.11554293852E+03  0.97058779266E+02 -0.56617457628E+03  0.11673365130E+04  0.10096287964E+04 0.  0.
        -13    1    3    3    0    0 -0.69867419084E+02 -0.11502774594E+03 -0.82140620885E+03  0.83235870254E+03  0.10566000000E+00 0.  1.
          4    1    3    3  501    0 -0.45675519439E+02  0.21208652521E+03  0.25523163257E+03  0.33497781048E+03  0.00000000000E+00 0.  1.
         13    1    1    2    0    0  0.11554293852E+03 -0.97058779266E+02  0.10399628425E+03  0.18326433253E+03  0.10566000000E+00 0. -1.
<mgrwt>
<rscale>  1 0.63298158E+03</rscale>
<asrwt>0</asrwt>
<pdfrwt beam="2">  1       21 0.13944455E+00 0.10208432E+04</pdfrwt>
<pdfrwt beam="1">  1        4 0.68340197E-01 0.10208432E+04</pdfrwt>
<totfact> 0.25897470E+01</totfact>
</mgrwt>
</event>
<event>
 6    1  0.1353269E-005  0.1005260E+04  0.7818608E-02  0.9762820E-01
         21   -1    0    0  501  502  0.00000000000E+00  0.00000000000E+00  0.90051130103E+03  0.90051130103E+03  0.00000000000E+00 0.  1.
          4   -1    0    0  502    0 -0.00000000000E+00 -0.00000000000E+00 -0.41669368024E+03  0.41669368024E+03  0.00000000000E+00 0.  1.
    9000010    2    1    2  501    0 -0.20141325107E+03 -0.26140299207E+02  0.48021297714E+03  0.11140704998E+04  0.98452930995E+03 0.  0.
        -13    1    3    3    0    0 -0.10663625870E+03  0.42182946817E+03 -0.20475224149E+02  0.43558080520E+03  0.10566000000E+00 0.  1.
          4    1    3    3  501    0 -0.94776992363E+02 -0.44796976738E+03  0.50068820129E+03  0.67848969459E+03  0.00000000000E+00 0.  1.
         13    1    1    2    0    0  0.20141325107E+03  0.26140299207E+02  0.36046436538E+01  0.20313448148E+03  0.10566000000E+00 0. -1.
<mgrwt>
<rscale>  1 0.67396565E+03</rscale>
<asrwt>0</asrwt>
<pdfrwt beam="1">  1       21 0.13854020E+00 0.10052605E+04</pdfrwt>
<pdfrwt beam="2">  1        4 0.64106720E-01 0.10052605E+04</pdfrwt>
<totfact> 0.30423016E+01</totfact>
</mgrwt>
</event>
<event>
 6    1  0.1353269E-005  0.1129877E+04  0.7818608E-02  0.9404248E-01
         21   -1    0    0  501  502  0.00000000000E+00  0.00000000000E+00  0.10311545726E+04  0.10311545726E+04  0.00000000000E+00 0.  1.
          4   -1    0    0  502    0 -0.00000000000E+00 -0.00000000000E+00 -0.86662475480E+03  0.86662475480E+03  0.00000000000E+00 0.  1.
    9000010    2    1    2  501    0 -0.48438861384E+03 -0.78990701202E+02  0.56599004244E+03  0.12637113632E+04  0.10177179478E+04 0.  0.
        -13    1    3    3    0    0 -0.28536532207E+02 -0.34037589308E+03 -0.15209063760E+03  0.37390059570E+03  0.10566000000E+00 0.  1.
          4    1    3    3  501    0 -0.45585208164E+03  0.26138519187E+03  0.71808068004E+03  0.88981076747E+03  0.00000000000E+00 0.  1.
         13    1    1    2    0    0  0.48438861384E+03  0.78990701202E+02 -0.40146022465E+03  0.63406796421E+03  0.10566000000E+00 0. -1.
<mgrwt>
<rscale>  1 0.91726874E+03</rscale>
<asrwt>0</asrwt>
<pdfrwt beam="1">  1       21 0.15863917E+00 0.11298768E+04</pdfrwt>
<pdfrwt beam="2">  1        4 0.13332689E+00 0.11298768E+04</pdfrwt>
<totfact> 0.36032575E+00</totfact>
</mgrwt>
</event>
<event>
 6    1  0.1353269E-005  0.1018881E+04  0.7818608E-02  0.9703057E-01
         21   -1    0    0  501  502  0.00000000000E+00  0.00000000000E+00  0.28311629398E+03  0.28311629398E+03  0.00000000000E+00 0.  1.
          4   -1    0    0  502    0 -0.00000000000E+00 -0.00000000000E+00 -0.15630757656E+04  0.15630757656E+04  0.00000000000E+00 0.  1.
    9000010    2    1    2  501    0  0.13856910326E+03 -0.19353198565E+03 -0.74975639807E+03  0.12650110755E+04  0.99068781105E+03 0.  0.
        -13    1    3    3    0    0  0.35728454466E+03 -0.41276824086E+03 -0.78194892097E+03  0.95366345882E+03  0.10566000000E+00 0.  1.
          4    1    3    3  501    0 -0.21871544141E+03  0.21923625521E+03  0.32192522901E+02  0.31134761672E+03  0.00000000000E+00 0.  1.
         13    1    1    2    0    0 -0.13856910326E+03  0.19353198565E+03 -0.53020307356E+03  0.58118098405E+03  0.10566000000E+00 0. -1.
<mgrwt>
<rscale>  1 0.70835074E+03</rscale>
<asrwt>0</asrwt>
<pdfrwt beam="1">  1       21 0.43556353E-01 0.10188809E+04</pdfrwt>
<pdfrwt beam="2">  1        4 0.24047320E+00 0.10188809E+04</pdfrwt>
<totfact> 0.14612163E+01</totfact>
</mgrwt>
</event>
<event>
 6    1  0.1353269E-005  0.1018987E+04  0.7818608E-02  0.9721366E-01
          4   -1    0    0  502    0 -0.00000000000E+00  0.00000000000E+00  0.10252967822E+04  0.10252967822E+04  0.00000000000E+00 0.  1.
         21   -1    0    0  501  502  0.00000000000E+00 -0.00000000000E+00 -0.71818203991E+03  0.71818203991E+03  0.00000000000E+00 0.  1.
    9000010    2    1    2  501    0  0.12142968933E+03 -0.18801062678E+03 -0.32768406514E+03  0.10703794964E+04  0.99410374432E+03 0.  0.
        -13    1    3    3    0    0  0.52390083536E+03 -0.16966082337E+03  0.58343538245E+00  0.55068796232E+03  0.10566000000E+00 0.  1.
          4    1    3    3  501    0 -0.40247114603E+03 -0.18349803410E+02 -0.32826750052E+03  0.51969153406E+03  0.00000000000E+00 0.  1.
         13    1    1    2    0    0 -0.12142968933E+03  0.18801062678E+03  0.63479880747E+03  0.67309932577E+03  0.10566000000E+00 0. -1.
<mgrwt>
<rscale>  1 0.69758791E+03</rscale>
<asrwt>0</asrwt>
<pdfrwt beam="2">  1       21 0.11048954E+00 0.10189874E+04</pdfrwt>
<pdfrwt beam="1">  1        4 0.15773797E+00 0.10189874E+04</pdfrwt>
<totfact> 0.61630883E+00</totfact>
</mgrwt>
</event>
<event>
 6    1  0.1353269E-005  0.1151375E+04  0.7818608E-02  0.9326982E-01
         21   -1    0    0  501  502  0.00000000000E+00  0.00000000000E+00  0.47578930880E+03  0.47578930880E+03  0.00000000000E+00 0. -1.
          4   -1    0    0  502    0 -0.00000000000E+00 -0.00000000000E+00 -0.16601853074E+04  0.16601853074E+04  0.00000000000E+00 0.  1.
    9000010    2    1    2  501    0  0.71372556588E+02  0.60846887128E+03 -0.64507961278E+03  0.13197696270E+04  0.97485165662E+03 0.  0.
        -13    1    3    3    0    0 -0.99125691036E+02  0.56734748775E+03  0.73028963314E+02  0.58055345587E+03  0.10566000000E+00 0.  1.
          4    1    3    3  501    0  0.17049824762E+03  0.41121383534E+02 -0.71810857609E+03  0.73921617115E+03  0.00000000000E+00 0.  1.
         13    1    1    2    0    0 -0.71372556588E+02 -0.60846887128E+03 -0.53931638579E+03  0.81620498914E+03  0.10566000000E+00 0. -1.
<mgrwt>
<rscale>  1 0.98336331E+03</rscale>
<asrwt>0</asrwt>
<pdfrwt beam="1">  1       21 0.73198354E-01 0.11513749E+04</pdfrwt>
<pdfrwt beam="2">  1        4 0.25541313E+00 0.11513749E+04</pdfrwt>
<totfact> 0.36846431E+00</totfact>
</mgrwt>
</event>
<event>
 6    1  0.1353269E-005  0.1021518E+04  0.7818608E-02  0.9815712E-01
         21   -1    0    0  501  502  0.00000000000E+00  0.00000000000E+00  0.40507477137E+03  0.40507477137E+03  0.00000000000E+00 0.  1.
          4   -1    0    0  502    0 -0.00000000000E+00 -0.00000000000E+00 -0.86556029282E+03  0.86556029282E+03  0.00000000000E+00 0.  1.
    9000010    2    1    2  501    0 -0.16108636593E+03  0.22364100467E+02 -0.40312736024E+03  0.10981852451E+04  0.10084890648E+04 0.  0.
        -13    1    3    3    0    0 -0.10646921605E+03 -0.24394695691E+03  0.26578037638E+03  0.37614496060E+03  0.10566000000E+00 0.  1.
          4    1    3    3  501    0 -0.54617149879E+02  0.26631105738E+03 -0.66890773663E+03  0.72204028451E+03  0.00000000000E+00 0.  1.
         13    1    1    2    0    0  0.16108636593E+03 -0.22364100467E+02 -0.57358161207E+02  0.17244981907E+03  0.10566000000E+00 0. -1.
<mgrwt>
<rscale>  1 0.64526144E+03</rscale>
<asrwt>0</asrwt>
<pdfrwt beam="1">  1       21 0.62319196E-01 0.10215181E+04</pdfrwt>
<pdfrwt beam="2">  1        4 0.13316312E+00 0.10215181E+04</pdfrwt>
<totfact> 0.37768582E+01</totfact>
</mgrwt>
</event>
<event>
 6    1  0.1353269E-005  0.9867074E+03  0.7818608E-02  0.1007986E+00
         21   -1    0    0  501  502  0.00000000000E+00  0.00000000000E+00  0.43320636238E+03  0.43320636238E+03  0.00000000000E+00 0.  1.
          4   -1    0    0  502    0 -0.00000000000E+00 -0.00000000000E+00 -0.69275828558E+03  0.69275828558E+03  0.00000000000E+00 0.  1.
    9000010    2    1    2  501    0 -0.64540942593E+02  0.43411422944E+02 -0.15994685140E+03  0.99958717209E+03  0.98363684072E+03 0.  0.
        -13    1    3    3    0    0 -0.52199821672E+03 -0.22644662555E+02 -0.52973790862E+02  0.52516773766E+03  0.10566000000E+00 0.  1.
          4    1    3    3  501    0  0.45745727413E+03  0.66056085499E+02 -0.10697306053E+03  0.47441943443E+03  0.00000000000E+00 0.  1.
         13    1    1    2    0    0  0.64540942593E+02 -0.43411422944E+02 -0.99605071806E+02  0.12637747587E+03  0.10566000000E+00 0. -1.
<mgrwt>
<rscale>  1 0.52283130E+03</rscale>
<asrwt>0</asrwt>
<pdfrwt beam="1">  1       21 0.66647133E-01 0.98670741E+03</pdfrwt>
<pdfrwt beam="2">  1        4 0.10657820E+00 0.98670741E+03</pdfrwt>
<totfact> 0.56941310E+01</totfact>
</mgrwt>
</event>
<event>
 6    1  0.1353269E-005  0.1016158E+04  0.7818608E-02  0.9769777E-01
         21   -1    0    0  501  502  0.00000000000E+00  0.00000000000E+00  0.13344375607E+04  0.13344375607E+04  0.00000000000E+00 0.  1.
          4   -1    0    0  502    0 -0.00000000000E+00 -0.00000000000E+00 -0.31115370007E+03  0.31115370007E+03  0.00000000000E+00 0.  1.
    9000010    2    1    2  501    0 -0.61980400345E+02  0.18189505744E+03  0.59837685002E+03  0.11792508692E+04  0.99782281795E+03 0.  0.
        -13    1    3    3    0    0 -0.25655361571E+03 -0.73249837430E+02 -0.19035400303E+03  0.32774983456E+03  0.10566000000E+00 0.  1.
          4    1    3    3  501    0  0.19457321537E+03  0.25514489487E+03  0.78873085305E+03  0.85150103469E+03  0.00000000000E+00 0.  1.
         13    1    1    2    0    0  0.61980400345E+02 -0.18189505744E+03  0.42490701059E+03  0.46634039152E+03  0.10566000000E+00 0. -1.
<mgrwt>
<rscale>  1 0.67010008E+03</rscale>
<asrwt>0</asrwt>
<pdfrwt beam="1">  1       21 0.20529808E+00 0.10161583E+04</pdfrwt>
<pdfrwt beam="2">  1        4 0.47869801E-01 0.10161583E+04</pdfrwt>
<totfact> 0.17938167E+01</totfact>
</mgrwt>
</event>
<event>
 6    1  0.1353269E-005  0.1272688E+04  0.7818608E-02  0.9220315E-01
          4   -1    0    0  502    0 -0.00000000000E+00  0.00000000000E+00  0.26719784224E+04  0.26719784224E+04  0.00000000000E+00 0.  1.
         21   -1    0    0  501  502  0.00000000000E+00 -0.00000000000E+00 -0.37585112234E+03  0.37585112234E+03  0.00000000000E+00 0. -1.
    9000010    2    1    2  501    0  0.53172266674E+03  0.40983829191E+03  0.11284584568E+04  0.17009268168E+04  0.10812202031E+04 0.  0.
        -13    1    3    3    0    0  0.57451162121E+03 -0.19407244226E+03  0.30480035011E+03  0.67869800378E+03  0.10566000000E+00 0.  1.
          4    1    3    3  501    0 -0.42788954471E+02  0.60391073417E+03  0.82365810671E+03  0.10222288130E+04  0.00000000000E+00 0.  1.
         13    1    1    2    0    0 -0.53172266674E+03 -0.40983829191E+03  0.11676688432E+04  0.13469027279E+04  0.10566000000E+00 0. -1.
<mgrwt>
<rscale>  1 0.10846181E+04</rscale>
<asrwt>0</asrwt>
<pdfrwt beam="2">  1       21 0.57823251E-01 0.12726875E+04</pdfrwt>
<pdfrwt beam="1">  1        4 0.41107359E+00 0.12726875E+04</pdfrwt>
<totfact> 0.60939586E-01</totfact>
</mgrwt>
</event>
<event>
 6    1  0.1353269E-005  0.1050100E+04  0.7818608E-02  0.9890652E-01
          4   -1    0    0  502    0 -0.00000000000E+00  0.00000000000E+00  0.13468889637E+04  0.13468889637E+04  0.00000000000E+00 0.  1.
         21   -1    0    0  501  502  0.00000000000E+00 -0.00000000000E+00 -0.40482265909E+03  0.40482265909E+03  0.00000000000E+00 0.  1.
    9000010    2    1    2  501    0  0.55263245078E+02 -0.10353855276E+03  0.29033503748E+03  0.10894972210E+04  0.10435207245E+04 0.  0.
        -13    1    3    3    0    0  0.20587636116E+03 -0.91433153068E+02 -0.35844560871E+03  0.42335370924E+03  0.10566000000E+00 0.  1.
          4    1    3    3  501    0 -0.15061311608E+03 -0.12105399696E+02  0.64878064619E+03  0.66614351180E+03  0.00000000000E+00 0.  1.
         13    1    1    2    0    0 -0.55263245078E+02  0.10353855276E+03  0.65173126710E+03  0.66221440172E+03  0.10566000000E+00 0. -1.
<mgrwt>
<rscale>  1 0.60716472E+03</rscale>
<asrwt>0</asrwt>
<pdfrwt beam="2">  1       21 0.62280410E-01 0.10500999E+04</pdfrwt>
<pdfrwt beam="1">  1        4 0.20721369E+00 0.10500999E+04</pdfrwt>
<totfact> 0.10872350E+01</totfact>
</mgrwt>
</event>
<event>
 6    1  0.1353269E-005  0.1001347E+04  0.7818608E-02  0.1007651E+00
         21   -1    0    0  501  502  0.00000000000E+00  0.00000000000E+00  0.68319326586E+03  0.68319326586E+03  0.00000000000E+00 0.  1.
          4   -1    0    0  502    0 -0.00000000000E+00 -0.00000000000E+00 -0.42410245832E+03  0.42410245832E+03  0.00000000000E+00 0.  1.
    9000010    2    1    2  501    0  0.58849299891E+02  0.46811806819E+02  0.23961103942E+03  0.10296165256E+04  0.99851998193E+03 0.  0.
        -13    1    3    3    0    0  0.50858947129E+03 -0.11433238559E+03  0.16004754709E+03  0.54529842581E+03  0.10566000000E+00 0.  1.
          4    1    3    3  501    0 -0.44974017140E+03  0.16114419241E+03  0.79563492326E+02  0.48431809983E+03  0.00000000000E+00 0.  1.
         13    1    1    2    0    0 -0.58849299891E+02 -0.46811806819E+02  0.19479768120E+02  0.77679198538E+02  0.10566000000E+00 0. -1.
<mgrwt>
<rscale>  1 0.52419015E+03</rscale>
<asrwt>0</asrwt>
<pdfrwt beam="1">  1       21 0.10510666E+00 0.10013475E+04</pdfrwt>
<pdfrwt beam="2">  1        4 0.65246532E-01 0.10013475E+04</pdfrwt>
<totfact> 0.60049467E+01</totfact>
</mgrwt>
</event>
<event>
 6    1  0.1353269E-005  0.1081731E+04  0.7818608E-02  0.9473676E-01
          4   -1    0    0  502    0 -0.00000000000E+00  0.00000000000E+00  0.18397264214E+03  0.18397264214E+03  0.00000000000E+00 0.  1.
         21   -1    0    0  501  502  0.00000000000E+00 -0.00000000000E+00 -0.31642871950E+04  0.31642871950E+04  0.00000000000E+00 0. -1.
    9000010    2    1    2  501    0 -0.21072091941E+03 -0.38312812721E+03 -0.19716547084E+04  0.22489031340E+04  0.98942030969E+03 0.  0.
        -13    1    3    3    0    0 -0.87597179269E+02  0.33098583148E+03 -0.81500821617E+03  0.88400412331E+03  0.10566000000E+00 0.  1.
          4    1    3    3  501    0 -0.12312374014E+03 -0.71411395868E+03 -0.11566464922E+04  0.13648990107E+04  0.00000000000E+00 0.  1.
         13    1    1    2    0    0  0.21072091941E+03  0.38312812721E+03 -0.10086598445E+04  0.10993567032E+04  0.10566000000E+00 0. -1.
<mgrwt>
<rscale>  1 0.86252748E+03</rscale>
<asrwt>0</asrwt>
<pdfrwt beam="2">  1       21 0.48681339E+00 0.10817315E+04</pdfrwt>
<pdfrwt beam="1">  1        4 0.28303485E-01 0.10817315E+04</pdfrwt>
<totfact> 0.74878745E-01</totfact>
</mgrwt>
</event>
<event>
 6    1  0.1353269E-005  0.1117395E+04  0.7818608E-02  0.9408668E-01
          4   -1    0    0  502    0 -0.00000000000E+00  0.00000000000E+00  0.14858518824E+04  0.14858518824E+04  0.00000000000E+00 0.  1.
         21   -1    0    0  501  502  0.00000000000E+00 -0.00000000000E+00 -0.69345596040E+03  0.69345596040E+03  0.00000000000E+00 0. -1.
    9000010    2    1    2  501    0  0.80762845028E+01 -0.49940848140E+03 -0.13544076273E+03  0.11255740138E+04  0.99954919973E+03 0.  0.
        -13    1    3    3    0    0 -0.90086202343E+02 -0.66438636161E+03 -0.41347036481E+03  0.78770712520E+03  0.10566000000E+00 0.  1.
          4    1    3    3  501    0  0.98162486846E+02  0.16497788022E+03  0.27802960208E+03  0.33786688861E+03  0.00000000000E+00 0.  1.
         13    1    1    2    0    0 -0.80762845028E+01  0.49940848140E+03  0.92783668472E+03  0.10537338290E+04  0.10566000000E+00 0. -1.
<mgrwt>
<rscale>  1 0.91365736E+03</rscale>
<asrwt>0</asrwt>
<pdfrwt beam="2">  1       21 0.10668553E+00 0.11173955E+04</pdfrwt>
<pdfrwt beam="1">  1        4 0.22859260E+00 0.11173955E+04</pdfrwt>
<totfact> 0.21919966E+00</totfact>
</mgrwt>
</event>
<event>
 6    1  0.1353269E-005  0.1088244E+04  0.7818608E-02  0.9476323E-01
          4   -1    0    0  502    0 -0.00000000000E+00  0.00000000000E+00  0.30202920856E+03  0.30202920856E+03  0.00000000000E+00 0.  1.
         21   -1    0    0  501  502  0.00000000000E+00 -0.00000000000E+00 -0.18966131790E+04  0.18966131790E+04  0.00000000000E+00 0.  1.
    9000010    2    1    2  501    0 -0.40811329809E+03 -0.12028271718E+03 -0.11466540164E+04  0.15808514432E+04  0.10016244086E+04 0.  0.
        -13    1    3    3    0    0 -0.19808011099E+03  0.35255812456E+03 -0.10503335438E+03  0.41780973930E+03  0.10566000000E+00 0.  1.
          4    1    3    3  501    0 -0.21003318710E+03 -0.47284084174E+03 -0.10416206621E+04  0.11630417039E+04  0.00000000000E+00 0.  1.
         13    1    1    2    0    0  0.40811329809E+03  0.12028271718E+03 -0.44792995404E+03  0.61779094443E+03  0.10566000000E+00 0. -1.
<mgrwt>
<rscale>  1 0.86052198E+03</rscale>
<asrwt>0</asrwt>
<pdfrwt beam="2">  1       21 0.29178665E+00 0.10882444E+04</pdfrwt>
<pdfrwt beam="1">  1        4 0.46466031E-01 0.10882444E+04</pdfrwt>
<totfact> 0.52580578E+00</totfact>
</mgrwt>
</event>
<event>
 6    1  0.1353269E-005  0.1106700E+04  0.7818608E-02  0.9436690E-01
         21   -1    0    0  501  502  0.00000000000E+00  0.00000000000E+00  0.87495850517E+03  0.87495850517E+03  0.00000000000E+00 0.  1.
          4   -1    0    0  502    0 -0.00000000000E+00 -0.00000000000E+00 -0.12371592177E+04  0.12371592177E+04  0.00000000000E+00 0.  1.
    9000010    2    1    2  501    0  0.43420461330E+03  0.16728665976E+03  0.43494448533E+03  0.11891014985E+04  0.10041250897E+04 0.  0.
        -13    1    3    3    0    0 -0.16083791043E+02  0.23410970766E+03  0.64602547843E+03  0.68732450378E+03  0.10566000000E+00 0.  1.
          4    1    3    3  501    0  0.45028840434E+03 -0.66823047897E+02 -0.21108099310E+03  0.50177699475E+03  0.00000000000E+00 0.  1.
         13    1    1    2    0    0 -0.43420461330E+03 -0.16728665976E+03 -0.79714519782E+03  0.92301622430E+03  0.10566000000E+00 0. -1.
<mgrwt>
<rscale>  1 0.89116764E+03</rscale>
<asrwt>0</asrwt>
<pdfrwt beam="1">  1       21 0.13460900E+00 0.11067004E+04</pdfrwt>
<pdfrwt beam="2">  1        4 0.19033219E+00 0.11067004E+04</pdfrwt>
<totfact> 0.21305041E+00</totfact>
</mgrwt>
</event>
<event>
 6    1  0.1353269E-005  0.1041411E+04  0.7818608E-02  0.9737757E-01
          4   -1    0    0  502    0 -0.00000000000E+00  0.00000000000E+00  0.31375353653E+03  0.31375353653E+03  0.00000000000E+00 0.  1.
         21   -1    0    0  501  502  0.00000000000E+00 -0.00000000000E+00 -0.12321570019E+04  0.12321570019E+04  0.00000000000E+00 0.  1.
    9000010    2    1    2  501    0 -0.27578323989E+02  0.19659524983E+03 -0.81277682742E+03  0.13210388994E+04  0.10223147003E+04 0.  0.
        -13    1    3    3    0    0  0.31399928971E+03 -0.59486289825E+02  0.81739220041E+02  0.32987192041E+03  0.10566000000E+00 0.  1.
          4    1    3    3  501    0 -0.34157761370E+03  0.25608153965E+03 -0.89451604746E+03  0.99116697902E+03  0.00000000000E+00 0.  1.
         13    1    1    2    0    0  0.27578323989E+02 -0.19659524983E+03 -0.10562663790E+03  0.22487163896E+03  0.10566000000E+00 0. -1.
<mgrwt>
<rscale>  1 0.68812590E+03</rscale>
<asrwt>0</asrwt>
<pdfrwt beam="2">  1       21 0.18956262E+00 0.10414114E+04</pdfrwt>
<pdfrwt beam="1">  1        4 0.48269774E-01 0.10414114E+04</pdfrwt>
<totfact> 0.22590325E+01</totfact>
</mgrwt>
</event>
<event>
 6    1  0.1353269E-005  0.1027148E+04  0.7818608E-02  0.9725767E-01
         21   -1    0    0  501  502  0.00000000000E+00  0.00000000000E+00  0.12996022196E+04  0.12996022196E+04  0.00000000000E+00 0.  1.
          4   -1    0    0  502    0 -0.00000000000E+00 -0.00000000000E+00 -0.32460848377E+03  0.32460848377E+03  0.00000000000E+00 0.  1.
    9000010    2    1    2  501    0 -0.14934548263E+03  0.15513197815E+03  0.96389172505E+03  0.14085877231E+04  0.10043217175E+04 0.  0.
        -13    1    3    3    0    0 -0.45004135314E+03 -0.25557293015E+03  0.50972164824E+03  0.72640960347E+03  0.10566000000E+00 0.  1.
          4    1    3    3  501    0  0.30069587051E+03  0.41070490830E+03  0.45417007681E+03  0.68217811964E+03  0.00000000000E+00 0.  1.
         13    1    1    2    0    0  0.14934548263E+03 -0.15513197815E+03  0.11102010822E+02  0.21562298030E+03  0.10566000000E+00 0. -1.
<mgrwt>
<rscale>  1 0.69503117E+03</rscale>
<asrwt>0</asrwt>
<pdfrwt beam="1">  1       21 0.19993880E+00 0.10271476E+04</pdfrwt>
<pdfrwt beam="2">  1        4 0.49939767E-01 0.10271476E+04</pdfrwt>
<totfact> 0.17830341E+01</totfact>
</mgrwt>
</event>
<event>
 6    1  0.1353269E-005  0.9654370E+03  0.7818608E-02  0.9904838E-01
          4   -1    0    0  502    0 -0.00000000000E+00  0.00000000000E+00  0.90593496772E+02  0.90593496772E+02  0.00000000000E+00 0.  1.
         21   -1    0    0  501  502  0.00000000000E+00 -0.00000000000E+00 -0.33988204806E+04  0.33988204806E+04  0.00000000000E+00 0.  1.
    9000010    2    1    2  501    0  0.89302025667E+02 -0.11333038100E+03 -0.28912048227E+04  0.30481361498E+04  0.95459417243E+03 0.  0.
        -13    1    3    3    0    0  0.31054434846E+03 -0.21640926612E+03 -0.42193719565E+03  0.56683487107E+03  0.10566000000E+00 0.  1.
          4    1    3    3  501    0 -0.22124232280E+03  0.10307888513E+03 -0.24692676271E+04  0.24813012788E+04  0.00000000000E+00 0.  1.
         13    1    1    2    0    0 -0.89302025667E+02  0.11333038100E+03 -0.41702216110E+03  0.44127782752E+03  0.10566000000E+00 0. -1.
<mgrwt>
<rscale>  1 0.60027396E+03</rscale>
<asrwt>0</asrwt>
<pdfrwt beam="2">  1       21 0.52289540E+00 0.96543703E+03</pdfrwt>
<pdfrwt beam="1">  1        4 0.13937463E-01 0.96543703E+03</pdfrwt>
<totfact> 0.15798443E+00</totfact>
</mgrwt>
</event>
<event>
 6    1  0.1353269E-005  0.1108857E+04  0.7818608E-02  0.9423691E-01
         21   -1    0    0  501  502  0.00000000000E+00  0.00000000000E+00  0.22788637786E+04  0.22788637786E+04  0.00000000000E+00 0.  1.
          4   -1    0    0  502    0 -0.00000000000E+00 -0.00000000000E+00 -0.30662000119E+03  0.30662000119E+03  0.00000000000E+00 0.  1.
    9000010    2    1    2  501    0 -0.40090724527E+03 -0.27199429439E+03  0.17002684864E+04  0.20298957260E+04  0.99742479262E+03 0.  0.
        -13    1    3    3    0    0  0.33272912753E+03 -0.23137532779E+02  0.48072571939E+03  0.58509934727E+03  0.10566000000E+00 0.  1.
          4    1    3    3  501    0 -0.73363637280E+03 -0.24885676161E+03  0.12195427670E+04  0.14447963787E+04  0.00000000000E+00 0.  1.
         13    1    1    2    0    0  0.40090724527E+03  0.27199429439E+03  0.27197529104E+03  0.55558805386E+03  0.10566000000E+00 0. -1.
<mgrwt>
<rscale>  1 0.90151409E+03</rscale>
<asrwt>0</asrwt>
<pdfrwt beam="1">  1       21 0.35059442E+00 0.11088569E+04</pdfrwt>
<pdfrwt beam="2">  1        4 0.47172309E-01 0.11088569E+04</pdfrwt>
<totfact> 0.21729814E+00</totfact>
</mgrwt>
</event>
<event>
 6    1  0.1353269E-005  0.1064633E+04  0.7818608E-02  0.9547077E-01
          4   -1    0    0  502    0 -0.00000000000E+00  0.00000000000E+00  0.51643693030E+03  0.51643693030E+03  0.00000000000E+00 0.  1.
         21   -1    0    0  501  502  0.00000000000E+00 -0.00000000000E+00 -0.97563027436E+03  0.97563027436E+03  0.00000000000E+00 0.  1.
    9000010    2    1    2  501    0 -0.15987825281E+03 -0.31693419093E+03 -0.34921196583E+03  0.11204434005E+04  0.10037111534E+04 0.  0.
        -13    1    3    3    0    0 -0.36171138301E+03  0.11889988239E+03 -0.48943234694E+03  0.62009381550E+03  0.10566000000E+00 0.  1.
          4    1    3    3  501    0  0.20183313020E+03 -0.43583407332E+03  0.14022038111E+03  0.50034958498E+03  0.00000000000E+00 0.  1.
         13    1    1    2    0    0  0.15987825281E+03  0.31693419093E+03 -0.10998137824E+03  0.37162380417E+03  0.10566000000E+00 0. -1.
<mgrwt>
<rscale>  1 0.80900275E+03</rscale>
<asrwt>0</asrwt>
<pdfrwt beam="2">  1       21 0.15009696E+00 0.10646335E+04</pdfrwt>
<pdfrwt beam="1">  1        4 0.79451836E-01 0.10646335E+04</pdfrwt>
<totfact> 0.14963645E+01</totfact>
</mgrwt>
</event>
<event>
 6    1  0.1353269E-005  0.9767965E+03  0.7818608E-02  0.1027023E+00
         21   -1    0    0  501  502  0.00000000000E+00  0.00000000000E+00  0.13760728599E+04  0.13760728599E+04  0.00000000000E+00 0.  1.
          4   -1    0    0  502    0 -0.00000000000E+00 -0.00000000000E+00 -0.19443744534E+03  0.19443744534E+03  0.00000000000E+00 0.  1.
    9000010    2    1    2  501    0 -0.35897681656E+02  0.27012663341E+02  0.11699083810E+04  0.15240790442E+04  0.97576277102E+03 0.  0.
        -13    1    3    3    0    0 -0.23258355961E+03 -0.38653333817E+03  0.85999528826E+03  0.97113080515E+03  0.10566000000E+00 0.  1.
          4    1    3    3  501    0  0.19668587796E+03  0.41354600151E+03  0.30991309276E+03  0.55294823900E+03  0.00000000000E+00 0.  1.
         13    1    1    2    0    0  0.35897681656E+02 -0.27012663341E+02  0.11727033583E+02  0.46431261126E+02  0.10566000000E+00 0. -1.
<mgrwt>
<rscale>  1 0.45235283E+03</rscale>
<asrwt>0</asrwt>
<pdfrwt beam="1">  1       21 0.21170351E+00 0.97679645E+03</pdfrwt>
<pdfrwt beam="2">  1        4 0.29913454E-01 0.97679645E+03</pdfrwt>
<totfact> 0.42249327E+01</totfact>
</mgrwt>
</event>
<event>
 6    1  0.1353269E-005  0.1035765E+04  0.7818608E-02  0.9799400E-01
          4   -1    0    0  502    0 -0.00000000000E+00  0.00000000000E+00  0.15969029484E+04  0.15969029484E+04  0.00000000000E+00 0.  1.
         21   -1    0    0  501  502  0.00000000000E+00 -0.00000000000E+00 -0.34232399260E+03  0.34232399260E+03  0.00000000000E+00 0.  1.
    9000010    2    1    2  501    0 -0.14947873245E+03 -0.68877894099E+02  0.46972072024E+03  0.11372976942E+04  0.10226047303E+04 0.  0.
        -13    1    3    3    0    0  0.29990104282E+01 -0.61650556898E+02  0.78478139789E+03  0.78720495354E+03  0.10566000000E+00 0.  1.
          4    1    3    3  501    0 -0.15247774288E+03 -0.72273372018E+01 -0.31506067766E+03  0.35009274069E+03  0.00000000000E+00 0.  1.
         13    1    1    2    0    0  0.14947873245E+03  0.68877894099E+02  0.78485823556E+03  0.80192924678E+03  0.10566000000E+00 0. -1.
<mgrwt>
<rscale>  1 0.65394779E+03</rscale>
<asrwt>0</asrwt>
<pdfrwt beam="2">  1       21 0.52665231E-01 0.10357647E+04</pdfrwt>
<pdfrwt beam="1">  1        4 0.24567737E+00 0.10357647E+04</pdfrwt>
<totfact> 0.89987665E+00</totfact>
</mgrwt>
</event>
<event>
 6    1  0.1353269E-005  0.1083796E+04  0.7818608E-02  0.9487785E-01
          4   -1    0    0  502    0 -0.00000000000E+00  0.00000000000E+00  0.60234034566E+03  0.60234034566E+03  0.00000000000E+00 0.  1.
         21   -1    0    0  501  502  0.00000000000E+00 -0.00000000000E+00 -0.13163146645E+04  0.13163146645E+04  0.00000000000E+00 0.  1.
    9000010    2    1    2  501    0  0.40659588764E+03 -0.76513737129E+02 -0.95096337817E+03  0.14418548494E+04  0.10017182700E+04 0.  0.
        -13    1    3    3    0    0  0.66623933751E+03  0.73057581253E+02 -0.31862769724E+03  0.74211581686E+03  0.10566000000E+00 0.  1.
          4    1    3    3  501    0 -0.25964344987E+03 -0.14957131838E+03 -0.63233568092E+03  0.69973903258E+03  0.00000000000E+00 0.  1.
         13    1    1    2    0    0 -0.40659588764E+03  0.76513737129E+02  0.23698905936E+03  0.47680016069E+03  0.10566000000E+00 0. -1.
<mgrwt>
<rscale>  1 0.85190390E+03</rscale>
<asrwt>0</asrwt>
<pdfrwt beam="2">  1       21 0.20250995E+00 0.10837961E+04</pdfrwt>
<pdfrwt beam="1">  1        4 0.92667745E-01 0.10837961E+04</pdfrwt>
<totfact> 0.42729978E+00</totfact>
</mgrwt>
</event>
<event>
 6    1  0.1353269E-005  0.1064553E+04  0.7818608E-02  0.9536832E-01
          4   -1    0    0  502    0 -0.00000000000E+00  0.00000000000E+00  0.55396568618E+03  0.55396568618E+03  0.00000000000E+00 0.  1.
         21   -1    0    0  501  502  0.00000000000E+00 -0.00000000000E+00 -0.95988983419E+03  0.95988983419E+03  0.00000000000E+00 0.  1.
    9000010    2    1    2  501    0 -0.36757662158E+03 -0.15359526131E+02 -0.42311541684E+03  0.11455566761E+04  0.99896193847E+03 0.  0.
        -13    1    3    3    0    0 -0.50904964315E+03  0.64065374743E+02 -0.67382984676E+03  0.84692537155E+03  0.10566000000E+00 0.  1.
          4    1    3    3  501    0  0.14147302157E+03 -0.79424900873E+02  0.25071442992E+03  0.29863130459E+03  0.00000000000E+00 0.  1.
         13    1    1    2    0    0  0.36757662158E+03  0.15359526131E+02  0.17191268832E+02  0.36829884423E+03  0.10566000000E+00 0. -1.
<mgrwt>
<rscale>  1 0.81621993E+03</rscale>
<asrwt>0</asrwt>
<pdfrwt beam="2">  1       21 0.14767536E+00 0.10645532E+04</pdfrwt>
<pdfrwt beam="1">  1        4 0.85225490E-01 0.10645532E+04</pdfrwt>
<totfact> 0.13312146E+01</totfact>
</mgrwt>
</event>
<event>
 6    1  0.1353269E-005  0.1174922E+04  0.7818608E-02  0.9291234E-01
         21   -1    0    0  501  502  0.00000000000E+00  0.00000000000E+00  0.57192365185E+03  0.57192365185E+03  0.00000000000E+00 0.  1.
          4   -1    0    0  502    0 -0.00000000000E+00 -0.00000000000E+00 -0.16766220034E+04  0.16766220034E+04  0.00000000000E+00 0.  1.
    9000010    2    1    2  501    0  0.60657316695E+03  0.25194143606E+03 -0.30533193341E+03  0.12139480641E+04  0.97418520755E+03 0.  0.
        -13    1    3    3    0    0  0.13734276058E+03 -0.25236959427E+03  0.20813651774E+03  0.35478763673E+03  0.10566000000E+00 0.  1.
          4    1    3    3  501    0  0.46923040637E+03  0.50431103032E+03 -0.51346845115E+03  0.85916042733E+03  0.00000000000E+00 0.  1.
         13    1    1    2    0    0 -0.60657316695E+03 -0.25194143606E+03 -0.79936641811E+03  0.10345975912E+04  0.10566000000E+00 0. -1.
<mgrwt>
<rscale>  1 0.10159388E+04</rscale>
<asrwt>0</asrwt>
<pdfrwt beam="1">  1       21 0.87988256E-01 0.11749223E+04</pdfrwt>
<pdfrwt beam="2">  1        4 0.25794184E+00 0.11749223E+04</pdfrwt>
<totfact> 0.22940658E+00</totfact>
</mgrwt>
</event>
<event>
 6    1  0.1353269E-005  0.1286503E+04  0.7818608E-02  0.9162323E-01
          4   -1    0    0  502    0 -0.00000000000E+00  0.00000000000E+00  0.69161064008E+03  0.69161064008E+03  0.00000000000E+00 0.  1.
         21   -1    0    0  501  502  0.00000000000E+00 -0.00000000000E+00 -0.16403152972E+04  0.16403152972E+04  0.00000000000E+00 0.  1.
    9000010    2    1    2  501    0 -0.85239055420E+02 -0.80296338586E+03 -0.78788113419E+03  0.15085911862E+04  0.10015362150E+04 0.  0.
        -13    1    3    3    0    0  0.20304629302E+03 -0.68307407046E+03 -0.58280855865E+02  0.71499276372E+03  0.10566000000E+00 0.  1.
          4    1    3    3  501    0 -0.28828534844E+03 -0.11988931540E+03 -0.72960027832E+03  0.79359842250E+03  0.00000000000E+00 0.  1.
         13    1    1    2    0    0  0.85239055420E+02  0.80296338586E+03 -0.16082352295E+03  0.82333475106E+03  0.10566000000E+00 0. -1.
<mgrwt>
<rscale>  1 0.11450922E+04</rscale>
<asrwt>0</asrwt>
<pdfrwt beam="2">  1       21 0.25235620E+00 0.12865033E+04</pdfrwt>
<pdfrwt beam="1">  1        4 0.10640164E+00 0.12865033E+04</pdfrwt>
<totfact> 0.13963622E+00</totfact>
</mgrwt>
</event>
<event>
 6    1  0.1353269E-005  0.1057196E+04  0.7818608E-02  0.9583884E-01
         21   -1    0    0  501  502  0.00000000000E+00  0.00000000000E+00  0.60767495033E+03  0.60767495033E+03  0.00000000000E+00 0.  1.
          4   -1    0    0  502    0 -0.00000000000E+00 -0.00000000000E+00 -0.98462397200E+03  0.98462397200E+03  0.00000000000E+00 0.  1.
    9000010    2    1    2  501    0 -0.17738582650E+03  0.26547653573E+03  0.50930847638E+02  0.10584218614E+04  0.10078290346E+04 0.  0.
        -13    1    3    3    0    0  0.34079234463E+02 -0.11961378600E+02  0.49354501582E+03  0.49486479225E+03  0.10566000000E+00 0.  1.
          4    1    3    3  501    0 -0.21146506097E+03  0.27743791433E+03 -0.44261416818E+03  0.56355706916E+03  0.00000000000E+00 0.  1.
         13    1    1    2    0    0  0.17738582650E+03 -0.26547653573E+03 -0.42787986931E+03  0.53387706093E+03  0.10566000000E+00 0. -1.
<mgrwt>
<rscale>  1 0.78372107E+03</rscale>
<asrwt>0</asrwt>
<pdfrwt beam="1">  1       21 0.93488455E-01 0.10571958E+04</pdfrwt>
<pdfrwt beam="2">  1        4 0.15148061E+00 0.10571958E+04</pdfrwt>
<totfact> 0.10385207E+01</totfact>
</mgrwt>
</event>
<event>
 6    1  0.1353269E-005  0.1009777E+04  0.7818608E-02  0.9831987E-01
         21   -1    0    0  501  502  0.00000000000E+00  0.00000000000E+00  0.74652430586E+03  0.74652430586E+03  0.00000000000E+00 0.  1.
          4   -1    0    0  502    0 -0.00000000000E+00 -0.00000000000E+00 -0.47069579724E+03  0.47069579724E+03  0.00000000000E+00 0.  1.
    9000010    2    1    2  501    0  0.51528295072E+02  0.15110523598E+03  0.30519867793E+03  0.10548914995E+04  0.99707666966E+03 0.  0.
        -13    1    3    3    0    0  0.40070762345E+03  0.39626034757E+03  0.70476333310E+02  0.56793995041E+03  0.10566000000E+00 0.  1.
          4    1    3    3  501    0 -0.34917932838E+03 -0.24515511159E+03  0.23472234462E+03  0.48695154910E+03  0.00000000000E+00 0.  1.
         13    1    1    2    0    0 -0.51528295072E+02 -0.15110523598E+03 -0.29370169308E+02  0.16232860359E+03  0.10566000000E+00 0. -1.
<mgrwt>
<rscale>  1 0.63673841E+03</rscale>
<asrwt>0</asrwt>
<pdfrwt beam="1">  1       21 0.11484989E+00 0.10097771E+04</pdfrwt>
<pdfrwt beam="2">  1        4 0.72414738E-01 0.10097771E+04</pdfrwt>
<totfact> 0.37984615E+01</totfact>
</mgrwt>
</event>
<event>
 6    1  0.1353269E-005  0.1042557E+04  0.7818608E-02  0.9743864E-01
          4   -1    0    0  502    0 -0.00000000000E+00  0.00000000000E+00  0.65245059876E+03  0.65245059876E+03  0.00000000000E+00 0.  1.
         21   -1    0    0  501  502  0.00000000000E+00 -0.00000000000E+00 -0.69423193232E+03  0.69423193232E+03  0.00000000000E+00 0.  1.
    9000010    2    1    2  501    0 -0.15402453613E+03 -0.11776915161E+03 -0.23955125968E+03  0.10697238958E+04  0.10243687210E+04 0.  0.
        -13    1    3    3    0    0 -0.27277618877E+03  0.39105533867E+03 -0.26708089724E+03  0.54650100082E+03  0.10566000000E+00 0.  1.
          4    1    3    3  501    0  0.11875165264E+03 -0.50882449028E+03  0.27529637554E+02  0.52322289501E+03  0.00000000000E+00 0.  1.
         13    1    1    2    0    0  0.15402453613E+03  0.11776915161E+03  0.19776992612E+03  0.27695863525E+03  0.10566000000E+00 0. -1.
<mgrwt>
<rscale>  1 0.68464167E+03</rscale>
<asrwt>0</asrwt>
<pdfrwt beam="2">  1       21 0.10680491E+00 0.10425567E+04</pdfrwt>
<pdfrwt beam="1">  1        4 0.10037702E+00 0.10425567E+04</pdfrwt>
<totfact> 0.21282006E+01</totfact>
</mgrwt>
</event>
<event>
 6    1  0.1353269E-005  0.9822735E+03  0.7818608E-02  0.1006094E+00
          4   -1    0    0  502    0 -0.00000000000E+00  0.00000000000E+00  0.44527641307E+03  0.44527641307E+03  0.00000000000E+00 0.  1.
         21   -1    0    0  501  502  0.00000000000E+00 -0.00000000000E+00 -0.65200023007E+03  0.65200023007E+03  0.00000000000E+00 0.  1.
    9000010    2    1    2  501    0 -0.73087599783E+02  0.40612472078E+02 -0.23319193746E+03  0.10095740622E+04  0.97870840261E+03 0.  0.
        -13    1    3    3    0    0  0.34376833909E+03  0.27301062893E+03  0.69445621020E+02  0.44444817461E+03  0.10566000000E+00 0.  1.
          4    1    3    3  501    0 -0.41685593887E+03 -0.23239815685E+03 -0.30263755848E+03  0.56512588764E+03  0.00000000000E+00 0.  1.
         13    1    1    2    0    0  0.73087599783E+02 -0.40612472078E+02  0.26468120466E+02  0.87702580894E+02  0.10566000000E+00 0. -1.
<mgrwt>
<rscale>  1 0.53057057E+03</rscale>
<asrwt>0</asrwt>
<pdfrwt beam="2">  1       21 0.10030773E+00 0.98227354E+03</pdfrwt>
<pdfrwt beam="1">  1        4 0.68504064E-01 0.98227354E+03</pdfrwt>
<totfact> 0.60667035E+01</totfact>
</mgrwt>
</event>
<event>
 6    1  0.1353269E-005  0.1308857E+04  0.7818608E-02  0.9156037E-01
          4   -1    0    0  502    0 -0.00000000000E+00  0.00000000000E+00  0.11292768361E+04  0.11292768361E+04  0.00000000000E+00 0.  1.
         21   -1    0    0  501  502  0.00000000000E+00 -0.00000000000E+00 -0.10943162615E+04  0.10943162615E+04  0.00000000000E+00 0. -1.
    9000010    2    1    2  501    0  0.11955189127E+03  0.77603625515E+03 -0.34171099295E+03  0.13527277779E+04  0.10471776900E+04 0.  0.
        -13    1    3    3    0    0 -0.26258800213E+02 -0.41731641309E+02  0.29939752102E+03  0.30343029056E+03  0.10566000000E+00 0.  1.
          4    1    3    3  501    0  0.14581069148E+03  0.81776789646E+03 -0.64110851397E+03  0.10492974873E+04  0.00000000000E+00 0.  1.
         13    1    1    2    0    0 -0.11955189127E+03 -0.77603625515E+03  0.37667156756E+03  0.87086531966E+03  0.10566000000E+00 0. -1.
<mgrwt>
<rscale>  1 0.11518951E+04</rscale>
<asrwt>0</asrwt>
<pdfrwt beam="2">  1       21 0.16835635E+00 0.13088568E+04</pdfrwt>
<pdfrwt beam="1">  1        4 0.17373490E+00 0.13088568E+04</pdfrwt>
<totfact> 0.14441291E+00</totfact>
</mgrwt>
</event>
<event>
 6    1  0.1353269E-005  0.1055851E+04  0.7818608E-02  0.9825988E-01
          4   -1    0    0  502    0 -0.00000000000E+00  0.00000000000E+00  0.38756084869E+03  0.38756084869E+03  0.00000000000E+00 0.  1.
         21   -1    0    0  501  502  0.00000000000E+00 -0.00000000000E+00 -0.10232598510E+04  0.10232598510E+04  0.00000000000E+00 0.  1.
    9000010    2    1    2  501    0  0.61224601313E+02 -0.12857745628E+03 -0.38758421775E+03  0.11247410402E+04  0.10462027852E+04 0.  0.
        -13    1    3    3    0    0  0.40736582832E+03 -0.17374229762E+03 -0.57717279504E+03  0.72750378044E+03  0.10566000000E+00 0.  1.
          4    1    3    3  501    0 -0.34614122700E+03  0.45164841334E+02  0.18958857729E+03  0.39723725979E+03  0.00000000000E+00 0.  1.
         13    1    1    2    0    0 -0.61224601313E+02  0.12857745628E+03 -0.24811478454E+03  0.28607965943E+03  0.10566000000E+00 0. -1.
<mgrwt>
<rscale>  1 0.63986320E+03</rscale>
<asrwt>0</asrwt>
<pdfrwt beam="2">  1       21 0.15742459E+00 0.10558508E+04</pdfrwt>
<pdfrwt beam="1">  1        4 0.59624746E-01 0.10558508E+04</pdfrwt>
<totfact> 0.24878432E+01</totfact>
</mgrwt>
</event>
<event>
 6    1  0.1353269E-005  0.1017155E+04  0.7818608E-02  0.9579985E-01
         21   -1    0    0  501  502  0.00000000000E+00  0.00000000000E+00  0.13941897321E+04  0.13941897321E+04  0.00000000000E+00 0.  1.
          4   -1    0    0  502    0 -0.00000000000E+00 -0.00000000000E+00 -0.10564877079E+04  0.10564877079E+04  0.00000000000E+00 0.  1.
    9000010    2    1    2  501    0 -0.51217874650E+02 -0.35970628577E+03  0.11653331594E+04  0.15468051096E+04  0.95004883656E+03 0.  0.
        -13    1    3    3    0    0  0.94182731880E+02 -0.65345031109E+03  0.94149312250E+03  0.11499030424E+04  0.10566000000E+00 0.  1.
          4    1    3    3  501    0 -0.14540060653E+03  0.29374402532E+03  0.22384003691E+03  0.39690206716E+03  0.00000000000E+00 0.  1.
         13    1    1    2    0    0  0.51217874650E+02  0.35970628577E+03 -0.82763113521E+03  0.90387233050E+03  0.10566000000E+00 0. -1.
<mgrwt>
<rscale>  1 0.78635209E+03</rscale>
<asrwt>0</asrwt>
<pdfrwt beam="1">  1       21 0.21449073E+00 0.10171552E+04</pdfrwt>
<pdfrwt beam="2">  1        4 0.16253657E+00 0.10171552E+04</pdfrwt>
<totfact> 0.85736064E-01</totfact>
</mgrwt>
</event>
<event>
 6    1  0.1353269E-005  0.1002792E+04  0.7818608E-02  0.1007709E+00
          4   -1    0    0  502    0 -0.00000000000E+00  0.00000000000E+00  0.87639914433E+03  0.87639914433E+03  0.00000000000E+00 0.  1.
         21   -1    0    0  501  502  0.00000000000E+00 -0.00000000000E+00 -0.44609666801E+03  0.44609666801E+03  0.00000000000E+00 0.  1.
    9000010    2    1    2  501    0 -0.63728890915E+02  0.39043667052E+02  0.12780608143E+03  0.10109033549E+04  0.10000027095E+04 0.  0.
        -13    1    3    3    0    0  0.14156287495E+03 -0.10543132463E+03 -0.39406715423E+03  0.43179247907E+03  0.10566000000E+00 0.  1.
          4    1    3    3  501    0 -0.20529176587E+03  0.14447499168E+03  0.52187323566E+03  0.57911087578E+03  0.00000000000E+00 0.  1.
         13    1    1    2    0    0  0.63728890915E+02 -0.39043667052E+02  0.30249639490E+03  0.31159245749E+03  0.10566000000E+00 0. -1.
<mgrwt>
<rscale>  1 0.52395457E+03</rscale>
<asrwt>0</asrwt>
<pdfrwt beam="2">  1       21 0.68630257E-01 0.10027917E+04</pdfrwt>
<pdfrwt beam="1">  1        4 0.13483064E+00 0.10027917E+04</pdfrwt>
<totfact> 0.29445624E+01</totfact>
</mgrwt>
</event>
<event>
 6    1  0.1353269E-005  0.1026859E+04  0.7818608E-02  0.9852052E-01
         21   -1    0    0  501  502  0.00000000000E+00  0.00000000000E+00  0.22273160440E+03  0.22273160440E+03  0.00000000000E+00 0.  1.
          4   -1    0    0  502    0 -0.00000000000E+00 -0.00000000000E+00 -0.15611154789E+04  0.15611154789E+04  0.00000000000E+00 0.  1.
    9000010    2    1    2  501    0  0.13027278786E+03 -0.57041237785E+02 -0.10891405876E+04  0.14968855366E+04  0.10169633169E+04 0.  0.
        -13    1    3    3    0    0  0.34866727478E+03  0.12246023319E+03  0.21703883517E+01  0.36955391889E+03  0.10566000000E+00 0.  1.
          4    1    3    3  501    0 -0.21839448692E+03 -0.17950147098E+03 -0.10913109760E+04  0.11273316177E+04  0.00000000000E+00 0.  1.
         13    1    1    2    0    0 -0.13027278786E+03  0.57041237785E+02 -0.24924328692E+03  0.28696154673E+03  0.10566000000E+00 0. -1.
<mgrwt>
<rscale>  1 0.62642396E+03</rscale>
<asrwt>0</asrwt>
<pdfrwt beam="1">  1       21 0.34266402E-01 0.10268588E+04</pdfrwt>
<pdfrwt beam="2">  1        4 0.24017160E+00 0.10268588E+04</pdfrwt>
<totfact> 0.24176841E+01</totfact>
</mgrwt>
</event>
<event>
 6    1  0.1353269E-005  0.1011782E+04  0.7818608E-02  0.9891538E-01
          4   -1    0    0  502    0 -0.00000000000E+00  0.00000000000E+00  0.49910618361E+03  0.49910618361E+03  0.00000000000E+00 0.  1.
         21   -1    0    0  501  502  0.00000000000E+00 -0.00000000000E+00 -0.75221129247E+03  0.75221129247E+03  0.00000000000E+00 0.  1.
    9000010    2    1    2  501    0 -0.18581884165E+02  0.12950938939E+03 -0.54190907299E+02  0.10132316951E+04  0.10032865220E+04 0.  0.
        -13    1    3    3    0    0  0.19060765395E+03  0.24100288726E+03  0.39791990412E+03  0.50274638803E+03  0.10566000000E+00 0.  1.
          4    1    3    3  501    0 -0.20918953812E+03 -0.11149349787E+03 -0.45211081142E+03  0.51048530706E+03  0.00000000000E+00 0.  1.
         13    1    1    2    0    0  0.18581884165E+02 -0.12950938939E+03 -0.19891420156E+03  0.23808578099E+03  0.10566000000E+00 0. -1.
<mgrwt>
<rscale>  1 0.60673168E+03</rscale>
<asrwt>0</asrwt>
<pdfrwt beam="2">  1       21 0.11572481E+00 0.10117815E+04</pdfrwt>
<pdfrwt beam="1">  1        4 0.76785567E-01 0.10117815E+04</pdfrwt>
<totfact> 0.32614273E+01</totfact>
</mgrwt>
</event>
<event>
 6    1  0.1353269E-005  0.1106459E+04  0.7818608E-02  0.9435980E-01
         21   -1    0    0  501  502  0.00000000000E+00  0.00000000000E+00  0.77118101182E+03  0.77118101182E+03  0.00000000000E+00 0.  1.
          4   -1    0    0  502    0 -0.00000000000E+00 -0.00000000000E+00 -0.81955949692E+03  0.81955949692E+03  0.00000000000E+00 0.  1.
    9000010    2    1    2  501    0 -0.42935622551E+03  0.18316763334E+03  0.71600083204E+02  0.11087736859E+04  0.10031726493E+04 0.  0.
        -13    1    3    3    0    0 -0.96322953660E+02  0.12713179437E+03  0.52200014529E+03  0.54582485047E+03  0.10566000000E+00 0.  1.
          4    1    3    3  501    0 -0.33303327185E+03  0.56035838968E+02 -0.45040006209E+03  0.56294883545E+03  0.00000000000E+00 0.  1.
         13    1    1    2    0    0  0.42935622551E+03 -0.18316763334E+03 -0.11997856830E+03  0.48196682282E+03  0.10566000000E+00 0. -1.
<mgrwt>
<rscale>  1 0.89172938E+03</rscale>
<asrwt>0</asrwt>
<pdfrwt beam="1">  1       21 0.11864323E+00 0.11064595E+04</pdfrwt>
<pdfrwt beam="2">  1        4 0.12608608E+00 0.11064595E+04</pdfrwt>
<totfact> 0.91853771E+00</totfact>
</mgrwt>
</event>
<event>
 6    1  0.1353269E-005  0.1061129E+04  0.7818608E-02  0.9555433E-01
          4   -1    0    0  502    0 -0.00000000000E+00  0.00000000000E+00  0.11611658055E+04  0.11611658055E+04  0.00000000000E+00 0.  1.
         21   -1    0    0  501  502  0.00000000000E+00 -0.00000000000E+00 -0.50862818715E+03  0.50862818715E+03  0.00000000000E+00 0.  1.
    9000010    2    1    2  501    0 -0.91855567193E+02 -0.33595537616E+03  0.16995035149E+03  0.10746520421E+04  0.10023424712E+04 0.  0.
        -13    1    3    3    0    0  0.13351129745E+03  0.54145610468E+02  0.49730805610E+03  0.51775701590E+03  0.10566000000E+00 0.  1.
          4    1    3    3  501    0 -0.22536686465E+03 -0.39010098663E+03 -0.32735770461E+03  0.55689502621E+03  0.00000000000E+00 0.  1.
         13    1    1    2    0    0  0.91855567193E+02  0.33595537616E+03  0.48258726684E+03  0.59514195053E+03  0.10566000000E+00 0. -1.
<mgrwt>
<rscale>  1 0.80317497E+03</rscale>
<asrwt>0</asrwt>
<pdfrwt beam="2">  1       21 0.78250491E-01 0.10611286E+04</pdfrwt>
<pdfrwt beam="1">  1        4 0.17864089E+00 0.10611286E+04</pdfrwt>
<totfact> 0.10029953E+01</totfact>
</mgrwt>
</event>
<event>
 6    1  0.1353269E-005  0.1009370E+04  0.7818608E-02  0.9988612E-01
          4   -1    0    0  502    0 -0.00000000000E+00  0.00000000000E+00  0.46242229271E+03  0.46242229271E+03  0.00000000000E+00 0.  1.
         21   -1    0    0  501  502  0.00000000000E+00 -0.00000000000E+00 -0.67300328993E+03  0.67300328993E+03  0.00000000000E+00 0.  1.
    9000010    2    1    2  501    0  0.18382226098E+02 -0.94912855042E+02 -0.23359401298E+03  0.10360476860E+04  0.10047299580E+04 0.  0.
        -13    1    3    3    0    0  0.18725516076E+03 -0.35003398465E+03  0.24611633854E+03  0.46707766902E+03  0.10566000000E+00 0.  1.
          4    1    3    3  501    0 -0.16887293466E+03  0.25512112961E+03 -0.47971035151E+03  0.56897001695E+03  0.00000000000E+00 0.  1.
         13    1    1    2    0    0 -0.18382226098E+02  0.94912855042E+02  0.23013015754E+02  0.99377896670E+02  0.10566000000E+00 0. -1.
<mgrwt>
<rscale>  1 0.56152395E+03</rscale>
<asrwt>0</asrwt>
<pdfrwt beam="2">  1       21 0.10353897E+00 0.10093704E+04</pdfrwt>
<pdfrwt beam="1">  1        4 0.71141892E-01 0.10093704E+04</pdfrwt>
<totfact> 0.51389792E+01</totfact>
</mgrwt>
</event>
<event>
 6    1  0.1353269E-005  0.1021569E+04  0.7818608E-02  0.9926449E-01
         21   -1    0    0  501  502  0.00000000000E+00  0.00000000000E+00  0.67395836251E+03  0.67395836251E+03  0.00000000000E+00 0.  1.
          4   -1    0    0  502    0 -0.00000000000E+00 -0.00000000000E+00 -0.48769321337E+03  0.48769321337E+03  0.00000000000E+00 0.  1.
    9000010    2    1    2  501    0 -0.43766329801E+02 -0.10486483780E+03  0.21608415320E+03  0.10441725990E+04  0.10152299885E+04 0.  0.
        -13    1    3    3    0    0 -0.96179460495E+01 -0.54929704047E+03  0.23613536289E+03  0.59797965210E+03  0.10566000000E+00 0.  1.
          4    1    3    3  501    0 -0.34148383752E+02  0.44443220268E+03 -0.20051209692E+02  0.44619294694E+03  0.00000000000E+00 0.  1.
         13    1    1    2    0    0  0.43766329801E+02  0.10486483780E+03 -0.29819004066E+02  0.11747897684E+03  0.10566000000E+00 0. -1.
<mgrwt>
<rscale>  1 0.58996422E+03</rscale>
<asrwt>0</asrwt>
<pdfrwt beam="1">  1       21 0.10368590E+00 0.10215694E+04</pdfrwt>
<pdfrwt beam="2">  1        4 0.75029725E-01 0.10215694E+04</pdfrwt>
<totfact> 0.45363569E+01</totfact>
</mgrwt>
</event>
<event>
 6    1  0.1353269E-005  0.1066526E+04  0.7818608E-02  0.9517645E-01
          4   -1    0    0  502    0 -0.00000000000E+00  0.00000000000E+00  0.38444250982E+03  0.38444250982E+03  0.00000000000E+00 0.  1.
         21   -1    0    0  501  502  0.00000000000E+00 -0.00000000000E+00 -0.17659791862E+04  0.17659791862E+04  0.00000000000E+00 0.  1.
    9000010    2    1    2  501    0  0.38400596257E+03 -0.74217605439E+02 -0.13987022597E+04  0.17589328703E+04  0.99222376439E+03 0.  0.
        -13    1    3    3    0    0  0.32072382205E+03 -0.45614067140E+03 -0.39550760837E+03  0.68363320690E+03  0.10566000000E+00 0.  1.
          4    1    3    3  501    0  0.63282140517E+02  0.38192306596E+03 -0.10031946513E+04  0.10752996634E+04  0.00000000000E+00 0.  1.
         13    1    1    2    0    0 -0.38400596257E+03  0.74217605439E+02  0.17165583337E+02  0.39148882571E+03  0.10566000000E+00 0. -1.
<mgrwt>
<rscale>  1 0.82995364E+03</rscale>
<asrwt>0</asrwt>
<pdfrwt beam="2">  1       21 0.27168911E+00 0.10665256E+04</pdfrwt>
<pdfrwt beam="1">  1        4 0.59145001E-01 0.10665256E+04</pdfrwt>
<totfact> 0.42142971E+00</totfact>
</mgrwt>
</event>
<event>
 6    1  0.1353269E-005  0.1015412E+04  0.7818608E-02  0.9873622E-01
          4   -1    0    0  502    0 -0.00000000000E+00  0.00000000000E+00  0.64131179895E+03  0.64131179895E+03  0.00000000000E+00 0.  1.
         21   -1    0    0  501  502  0.00000000000E+00 -0.00000000000E+00 -0.74295512048E+03  0.74295512048E+03  0.00000000000E+00 0.  1.
    9000010    2    1    2  501    0 -0.94050163689E+02 -0.99816328110E+02 -0.37176165534E+03  0.10813268955E+04  0.10061075459E+04 0.  0.
        -13    1    3    3    0    0  0.44191936321E+03  0.81618848823E+02 -0.15467709691E+03  0.47526768829E+03  0.10566000000E+00 0.  1.
          4    1    3    3  501    0 -0.53596952690E+03 -0.18143517693E+03 -0.21708455843E+03  0.60605920726E+03  0.00000000000E+00 0.  1.
         13    1    1    2    0    0  0.94050163689E+02  0.99816328110E+02  0.27011833381E+03  0.30294002388E+03  0.10566000000E+00 0. -1.
<mgrwt>
<rscale>  1 0.61556884E+03</rscale>
<asrwt>0</asrwt>
<pdfrwt beam="2">  1       21 0.11430079E+00 0.10154118E+04</pdfrwt>
<pdfrwt beam="1">  1        4 0.98663355E-01 0.10154118E+04</pdfrwt>
<totfact> 0.18725859E+01</totfact>
</mgrwt>
</event>
<event>
 6    1  0.1353269E-005  0.1118902E+04  0.7818608E-02  0.9426154E-01
         21   -1    0    0  501  502  0.00000000000E+00  0.00000000000E+00  0.49314648317E+03  0.49314648317E+03  0.00000000000E+00 0.  1.
          4   -1    0    0  502    0 -0.00000000000E+00 -0.00000000000E+00 -0.13188873608E+04  0.13188873608E+04  0.00000000000E+00 0.  1.
    9000010    2    1    2  501    0  0.73302777995E+02 -0.46163845864E+03 -0.42689321848E+03  0.11975724293E+04  0.10165916288E+04 0.  0.
        -13    1    3    3    0    0 -0.41429937844E+03 -0.40191478013E+03 -0.51877345384E+02  0.57954355797E+03  0.10566000000E+00 0.  1.
          4    1    3    3  501    0  0.48760215643E+03 -0.59723678510E+02 -0.37501587310E+03  0.61802887134E+03  0.00000000000E+00 0.  1.
         13    1    1    2    0    0 -0.73302777995E+02  0.46163845864E+03 -0.39884765919E+03  0.61446141471E+03  0.10566000000E+00 0. -1.
<mgrwt>
<rscale>  1 0.89954183E+03</rscale>
<asrwt>0</asrwt>
<pdfrwt beam="1">  1       21 0.75868691E-01 0.11189021E+04</pdfrwt>
<pdfrwt beam="2">  1        4 0.20290574E+00 0.11189021E+04</pdfrwt>
<totfact> 0.73317353E+00</totfact>
</mgrwt>
</event>
<event>
 6    1  0.1353269E-005  0.1154294E+04  0.7818608E-02  0.9347794E-01
          4   -1    0    0  502    0 -0.00000000000E+00  0.00000000000E+00  0.52024134199E+03  0.52024134199E+03  0.00000000000E+00 0.  1.
         21   -1    0    0  501  502  0.00000000000E+00 -0.00000000000E+00 -0.14578742654E+04  0.14578742654E+04  0.00000000000E+00 0.  1.
    9000010    2    1    2  501    0 -0.46460610810E+03 -0.31944940012E+03 -0.47276842930E+03  0.12473586273E+04  0.10072173561E+04 0.  0.
        -13    1    3    3    0    0 -0.46607577634E+03 -0.66312135201E+03 -0.33909956038E+03  0.87860405178E+03  0.10566000000E+00 0.  1.
          4    1    3    3  501    0  0.14696682396E+01  0.34367195189E+03 -0.13366886892E+03  0.36875457551E+03  0.00000000000E+00 0.  1.
         13    1    1    2    0    0  0.46460610810E+03  0.31944940012E+03 -0.46486449413E+03  0.73075698012E+03  0.10566000000E+00 0. -1.
<mgrwt>
<rscale>  1 0.96499424E+03</rscale>
<asrwt>0</asrwt>
<pdfrwt beam="2">  1       21 0.22428835E+00 0.11542935E+04</pdfrwt>
<pdfrwt beam="1">  1        4 0.80037129E-01 0.11542935E+04</pdfrwt>
<totfact> 0.42555877E+00</totfact>
</mgrwt>
</event>
<event>
 6    1  0.1353269E-005  0.1007034E+04  0.7818608E-02  0.1040539E+00
         21   -1    0    0  501  502  0.00000000000E+00  0.00000000000E+00  0.12777941652E+04  0.12777941652E+04  0.00000000000E+00 0.  1.
          4   -1    0    0  502    0 -0.00000000000E+00 -0.00000000000E+00 -0.20976450699E+03  0.20976450699E+03  0.00000000000E+00 0.  1.
    9000010    2    1    2  501    0 -0.26042927260E+02  0.89388520868E+01  0.10486623373E+04  0.14538950208E+04  0.10066577854E+04 0.  0.
        -13    1    3    3    0    0  0.41346489648E+03  0.24266483156E+03  0.69063729358E+03  0.84072547454E+03  0.10566000000E+00 0.  1.
          4    1    3    3  501    0 -0.43950782374E+03 -0.23372597947E+03  0.35802504368E+03  0.61316954630E+03  0.00000000000E+00 0.  1.
         13    1    1    2    0    0  0.26042927260E+02 -0.89388520868E+01  0.19367320953E+02  0.33663651344E+02  0.10566000000E+00 0. -1.
<mgrwt>
<rscale>  1 0.40949864E+03</rscale>
<asrwt>0</asrwt>
<pdfrwt beam="1">  1       21 0.19658371E+00 0.10070343E+04</pdfrwt>
<pdfrwt beam="2">  1        4 0.32271463E-01 0.10070343E+04</pdfrwt>
<totfact> 0.45974382E+01</totfact>
</mgrwt>
</event>
<event>
 6    1  0.1353269E-005  0.1021556E+04  0.7818608E-02  0.9920877E-01
         21   -1    0    0  501  502  0.00000000000E+00  0.00000000000E+00  0.94703060605E+03  0.94703060605E+03  0.00000000000E+00 0.  1.
          4   -1    0    0  502    0 -0.00000000000E+00 -0.00000000000E+00 -0.43175062635E+03  0.43175062635E+03  0.00000000000E+00 0.  1.
    9000010    2    1    2  501    0  0.10541224682E+03 -0.47648772421E+02  0.64251862554E+03  0.12068166097E+04  0.10149847280E+04 0.  0.
        -13    1    3    3    0    0 -0.42935014150E+03 -0.16886534725E+03  0.38558594080E+03  0.60127662388E+03  0.10566000000E+00 0.  1.
          4    1    3    3  501    0  0.53476238833E+03  0.12121657483E+03  0.25693268474E+03  0.60553998586E+03  0.00000000000E+00 0.  1.
         13    1    1    2    0    0 -0.10541224682E+03  0.47648772421E+02 -0.12723864584E+03  0.17196462268E+03  0.10566000000E+00 0. -1.
<mgrwt>
<rscale>  1 0.59260092E+03</rscale>
<asrwt>0</asrwt>
<pdfrwt beam="1">  1       21 0.14569702E+00 0.10215557E+04</pdfrwt>
<pdfrwt beam="2">  1        4 0.66423173E-01 0.10215557E+04</pdfrwt>
<totfact> 0.24458821E+01</totfact>
</mgrwt>
</event>
<event>
 6    1  0.1353269E-005  0.9889736E+03  0.7818608E-02  0.9966706E-01
         21   -1    0    0  501  502  0.00000000000E+00  0.00000000000E+00  0.23056812961E+03  0.23056812961E+03  0.00000000000E+00 0.  1.
          4   -1    0    0  502    0 -0.00000000000E+00 -0.00000000000E+00 -0.14464388913E+04  0.14464388913E+04  0.00000000000E+00 0.  1.
    9000010    2    1    2  501    0 -0.97380339638E+02 -0.51509668515E+02 -0.88097347438E+03  0.13244557754E+04  0.98281873301E+03 0.  0.
        -13    1    3    3    0    0 -0.49951102836E+03 -0.18767349299E+02 -0.74799567204E+03  0.89964493963E+03  0.10566000000E+00 0.  1.
          4    1    3    3  501    0  0.40213068872E+03 -0.32742319217E+02 -0.13297780234E+03  0.42481083577E+03  0.00000000000E+00 0.  1.
         13    1    1    2    0    0  0.97380339638E+02  0.51509668515E+02 -0.33489728728E+03  0.35255124549E+03  0.10566000000E+00 0. -1.
<mgrwt>
<rscale>  1 0.57134551E+03</rscale>
<asrwt>0</asrwt>
<pdfrwt beam="1">  1       21 0.35472020E-01 0.98897363E+03</pdfrwt>
<pdfrwt beam="2">  1        4 0.22252906E+00 0.98897363E+03</pdfrwt>
<totfact> 0.29185245E+01</totfact>
</mgrwt>
</event>
<event>
 6    1  0.1353269E-005  0.1023683E+04  0.7818608E-02  0.9673322E-01
          4   -1    0    0  502    0 -0.00000000000E+00  0.00000000000E+00  0.29498639035E+03  0.29498639035E+03  0.00000000000E+00 0.  1.
         21   -1    0    0  501  502  0.00000000000E+00 -0.00000000000E+00 -0.15062762726E+04  0.15062762726E+04  0.00000000000E+00 0.  1.
    9000010    2    1    2  501    0 -0.74545682949E+02 -0.24842142731E+03 -0.11402389651E+04  0.15323416552E+04  0.99028066048E+03 0.  0.
        -13    1    3    3    0    0 -0.53376872825E+03 -0.14027327800E+03 -0.61687140415E+03  0.82771733593E+03  0.10566000000E+00 0.  1.
          4    1    3    3  501    0  0.45922304530E+03 -0.10814814931E+03 -0.52336756091E+03  0.70462431930E+03  0.00000000000E+00 0.  1.
         13    1    1    2    0    0  0.74545682949E+02  0.24842142731E+03 -0.71050917167E+02  0.26892100771E+03  0.10566000000E+00 0. -1.
<mgrwt>
<rscale>  1 0.72627633E+03</rscale>
<asrwt>0</asrwt>
<pdfrwt beam="2">  1       21 0.23173480E+00 0.10236826E+04</pdfrwt>
<pdfrwt beam="1">  1        4 0.45382523E-01 0.10236826E+04</pdfrwt>
<totfact> 0.13375934E+01</totfact>
</mgrwt>
</event>
<event>
 6    1  0.1353269E-005  0.9184042E+03  0.7818608E-02  0.9881403E-01
         21   -1    0    0  501  502  0.00000000000E+00  0.00000000000E+00  0.28569119318E+03  0.28569119318E+03  0.00000000000E+00 0.  1.
          4   -1    0    0  502    0 -0.00000000000E+00 -0.00000000000E+00 -0.10582285625E+04  0.10582285625E+04  0.00000000000E+00 0.  1.
    9000010    2    1    2  501    0  0.17354160482E+03  0.50543982480E+02 -0.62980318596E+03  0.11136059675E+04  0.90044145564E+03 0.  0.
        -13    1    3    3    0    0 -0.80658270879E+02  0.42168079535E+03 -0.46913263643E+03  0.63592915609E+03  0.10566000000E+00 0.  1.
          4    1    3    3  501    0  0.25419987570E+03 -0.37113681287E+03 -0.16067054953E+03  0.47767681141E+03  0.00000000000E+00 0.  1.
         13    1    1    2    0    0 -0.17354160482E+03 -0.50543982480E+02 -0.14273418340E+03  0.23031378822E+03  0.10566000000E+00 0. -1.
<mgrwt>
<rscale>  1 0.61171107E+03</rscale>
<asrwt>0</asrwt>
<pdfrwt beam="1">  1       21 0.43952491E-01 0.91840416E+03</pdfrwt>
<pdfrwt beam="2">  1        4 0.16280440E+00 0.91840416E+03</pdfrwt>
<totfact> 0.47655950E+01</totfact>
</mgrwt>
</event>
<event>
 6    1  0.1353269E-005  0.1000635E+04  0.7818608E-02  0.9990453E-01
         21   -1    0    0  501  502  0.00000000000E+00  0.00000000000E+00  0.30605243423E+03  0.30605243423E+03  0.00000000000E+00 0.  1.
          4   -1    0    0  502    0 -0.00000000000E+00 -0.00000000000E+00 -0.10661739434E+04  0.10661739434E+04  0.00000000000E+00 0.  1.
    9000010    2    1    2  501    0 -0.97061814808E+02 -0.17660654257E+02 -0.55411449394E+03  0.11438149154E+04  0.99575940549E+03 0.  0.
        -13    1    3    3    0    0  0.83276268559E+02  0.21668210260E+03 -0.75265908318E+03  0.78764317882E+03  0.10566000000E+00 0.  1.
          4    1    3    3  501    0 -0.18033808337E+03 -0.23434275686E+03  0.19854458923E+03  0.35617173655E+03  0.00000000000E+00 0.  1.
         13    1    1    2    0    0  0.97061814808E+02  0.17660654257E+02 -0.20600701521E+03  0.22841146224E+03  0.10566000000E+00 0. -1.
<mgrwt>
<rscale>  1 0.56070828E+03</rscale>
<asrwt>0</asrwt>
<pdfrwt beam="1">  1       21 0.47084989E-01 0.10006346E+04</pdfrwt>
<pdfrwt beam="2">  1        4 0.16402676E+00 0.10006346E+04</pdfrwt>
<totfact> 0.40020917E+01</totfact>
</mgrwt>
</event>
<event>
 6    1  0.1353269E-005  0.9666962E+03  0.7818608E-02  0.9943904E-01
         21   -1    0    0  501  502  0.00000000000E+00  0.00000000000E+00  0.45977875173E+03  0.45977875173E+03  0.00000000000E+00 0.  1.
          4   -1    0    0  502    0 -0.00000000000E+00 -0.00000000000E+00 -0.82350339442E+03  0.82350339442E+03  0.00000000000E+00 0.  1.
    9000010    2    1    2  501    0  0.91443171207E+02  0.87886122291E+02 -0.76998990628E+02  0.96975792897E+03  0.95834011300E+03 0.  0.
        -13    1    3    3    0    0  0.18164794435E+02  0.42793714728E+03 -0.32909969675E+03  0.54015440695E+03  0.10566000000E+00 0.  1.
          4    1    3    3  501    0  0.73278376772E+02 -0.34005102499E+03  0.25210070612E+03  0.42960352202E+03  0.00000000000E+00 0.  1.
         13    1    1    2    0    0 -0.91443171207E+02 -0.87886122291E+02 -0.28672565206E+03  0.31352421719E+03  0.10566000000E+00 0. -1.
<mgrwt>
<rscale>  1 0.58179900E+03</rscale>
<asrwt>0</asrwt>
<pdfrwt beam="1">  1       21 0.70735193E-01 0.96669623E+03</pdfrwt>
<pdfrwt beam="2">  1        4 0.12669283E+00 0.96669623E+03</pdfrwt>
<totfact> 0.32351208E+01</totfact>
</mgrwt>
</event>
<event>
 6    1  0.1353269E-005  0.1004824E+04  0.7818608E-02  0.9723131E-01
         21   -1    0    0  501  502  0.00000000000E+00  0.00000000000E+00  0.14332328932E+04  0.14332328932E+04  0.00000000000E+00 0.  1.
          4   -1    0    0  502    0 -0.00000000000E+00 -0.00000000000E+00 -0.51405876375E+03  0.51405876375E+03  0.00000000000E+00 0.  1.
    9000010    2    1    2  501    0  0.20677049956E+03  0.10530838276E+03  0.12115567135E+04  0.15740203325E+04  0.97766376745E+03 0.  0.
        -13    1    3    3    0    0  0.43258526512E+02  0.50698407022E+03  0.92034863816E+03  0.10516395649E+04  0.10566000000E+00 0.  1.
          4    1    3    3  501    0  0.16351197305E+03 -0.40167568746E+03  0.29120807536E+03  0.52238076762E+03  0.00000000000E+00 0.  1.
         13    1    1    2    0    0 -0.20677049956E+03 -0.10530838276E+03 -0.29238258409E+03  0.37327132439E+03  0.10566000000E+00 0. -1.
<mgrwt>
<rscale>  1 0.69656142E+03</rscale>
<asrwt>0</asrwt>
<pdfrwt beam="1">  1       21 0.22049737E+00 0.10048235E+04</pdfrwt>
<pdfrwt beam="2">  1        4 0.79085964E-01 0.10048235E+04</pdfrwt>
<totfact> 0.47332249E+00</totfact>
</mgrwt>
</event>
<event>
 6    1  0.1353269E-005  0.1038966E+04  0.7818608E-02  0.9512725E-01
          4   -1    0    0  502    0 -0.00000000000E+00  0.00000000000E+00  0.48336573496E+03  0.48336573496E+03  0.00000000000E+00 0.  1.
         21   -1    0    0  501  502  0.00000000000E+00 -0.00000000000E+00 -0.11217369029E+04  0.11217369029E+04  0.00000000000E+00 0. -1.
    9000010    2    1    2  501    0  0.20082926081E+03 -0.38066256362E+03 -0.40159020580E+03  0.11138780308E+04  0.94562846556E+03 0.  0.
        -13    1    3    3    0    0  0.31760973504E+03  0.30447185779E+02 -0.57104313258E+03  0.65413549463E+03  0.10566000000E+00 0.  1.
          4    1    3    3  501    0 -0.11678047423E+03 -0.41110974939E+03  0.16945292678E+03  0.45974253621E+03  0.00000000000E+00 0.  1.
         13    1    1    2    0    0 -0.20082926081E+03  0.38066256362E+03 -0.23678096212E+03  0.49122460700E+03  0.10566000000E+00 0. -1.
<mgrwt>
<rscale>  1 0.83352135E+03</rscale>
<asrwt>0</asrwt>
<pdfrwt beam="2">  1       21 0.17257491E+00 0.10389656E+04</pdfrwt>
<pdfrwt beam="1">  1        4 0.74363960E-01 0.10389656E+04</pdfrwt>
<totfact> 0.11693205E+01</totfact>
</mgrwt>
</event>
<event>
 6    1  0.1353269E-005  0.1113320E+04  0.7818608E-02  0.9452221E-01
          4   -1    0    0  502    0 -0.00000000000E+00  0.00000000000E+00  0.10848062337E+04  0.10848062337E+04  0.00000000000E+00 0.  1.
         21   -1    0    0  501  502  0.00000000000E+00 -0.00000000000E+00 -0.81818180459E+03  0.81818180459E+03  0.00000000000E+00 0.  1.
    9000010    2    1    2  501    0  0.19439865059E+03  0.38646889115E+03 -0.33440481106E+03  0.11624576892E+04  0.10258324729E+04 0.  0.
        -13    1    3    3    0    0  0.50781514018E+03  0.50377155657E+03 -0.40275803376E+03  0.82089953266E+03  0.10566000000E+00 0.  1.
          4    1    3    3  501    0 -0.31341648960E+03 -0.11730266542E+03  0.68353222698E+02  0.34155815657E+03  0.00000000000E+00 0.  1.
         13    1    1    2    0    0 -0.19439865059E+03 -0.38646889115E+03  0.60102924014E+03  0.74053034903E+03  0.10566000000E+00 0. -1.
<mgrwt>
<rscale>  1 0.87899913E+03</rscale>
<asrwt>0</asrwt>
<pdfrwt beam="2">  1       21 0.12587412E+00 0.11133199E+04</pdfrwt>
<pdfrwt beam="1">  1        4 0.16689327E+00 0.11133199E+04</pdfrwt>
<totfact> 0.37191344E+00</totfact>
</mgrwt>
</event>
<event>
 6    1  0.1353269E-005  0.1075447E+04  0.7818608E-02  0.9529727E-01
         21   -1    0    0  501  502  0.00000000000E+00  0.00000000000E+00  0.76815170257E+03  0.76815170257E+03  0.00000000000E+00 0.  1.
          4   -1    0    0  502    0 -0.00000000000E+00 -0.00000000000E+00 -0.72774466842E+03  0.72774466842E+03  0.00000000000E+00 0.  1.
    9000010    2    1    2  501    0 -0.35672164369E+03 -0.80748173602E+02  0.20501592036E+03  0.10948144651E+04  0.10113439508E+04 0.  0.
        -13    1    3    3    0    0  0.59266904034E+02 -0.10165989211E+03 -0.36803275098E+03  0.38638765060E+03  0.10566000000E+00 0.  1.
          4    1    3    3  501    0 -0.41598854773E+03  0.20911718508E+02  0.57304867134E+03  0.70842681453E+03  0.00000000000E+00 0.  1.
         13    1    1    2    0    0  0.35672164369E+03  0.80748173602E+02 -0.16460888621E+03  0.40108190586E+03  0.10566000000E+00 0. -1.
<mgrwt>
<rscale>  1 0.82127193E+03</rscale>
<asrwt>0</asrwt>
<pdfrwt beam="1">  1       21 0.11817719E+00 0.10754474E+04</pdfrwt>
<pdfrwt beam="2">  1        4 0.11196072E+00 0.10754474E+04</pdfrwt>
<totfact> 0.12547942E+01</totfact>
</mgrwt>
</event>
<event>
 6    1  0.1353269E-005  0.9975611E+03  0.7818608E-02  0.1015975E+00
          4   -1    0    0  502    0 -0.00000000000E+00  0.00000000000E+00  0.42181750294E+03  0.42181750294E+03  0.00000000000E+00 0.  1.
         21   -1    0    0  501  502  0.00000000000E+00 -0.00000000000E+00 -0.67649000060E+03  0.67649000060E+03  0.00000000000E+00 0.  1.
    9000010    2    1    2  501    0 -0.58868411051E+02  0.28900089198E+00 -0.27706588547E+03  0.10353229949E+04  0.99582258742E+03 0.  0.
        -13    1    3    3    0    0 -0.17374132149E+03 -0.34907524556E+03 -0.47750538292E+03  0.61648274569E+03  0.10566000000E+00 0.  1.
          4    1    3    3  501    0  0.11487291043E+03  0.34936424645E+03  0.20043949745E+03  0.41884024925E+03  0.00000000000E+00 0.  1.
         13    1    1    2    0    0  0.58868411051E+02 -0.28900089198E+00  0.22393387811E+02  0.62984508594E+02  0.10566000000E+00 0. -1.
<mgrwt>
<rscale>  1 0.49167338E+03</rscale>
<asrwt>0</asrwt>
<pdfrwt beam="2">  1       21 0.10407538E+00 0.99756113E+03</pdfrwt>
<pdfrwt beam="1">  1        4 0.64895001E-01 0.99756113E+03</pdfrwt>
<totfact> 0.62312639E+01</totfact>
</mgrwt>
</event>
<event>
 6    1  0.1353269E-005  0.1000177E+04  0.7818608E-02  0.1015027E+00
         21   -1    0    0  501  502  0.00000000000E+00  0.00000000000E+00  0.96976655126E+03  0.96976655126E+03  0.00000000000E+00 0.  1.
          4   -1    0    0  502    0 -0.00000000000E+00 -0.00000000000E+00 -0.40330041345E+03  0.40330041345E+03  0.00000000000E+00 0.  1.
    9000010    2    1    2  501    0  0.54716689120E+02 -0.24923719574E+02  0.70391023999E+03  0.12230469652E+04  0.99836824129E+03 0.  0.
        -13    1    3    3    0    0 -0.32005609974E+03 -0.16102275360E+03 -0.58162594276E+02  0.36296987849E+03  0.10566000000E+00 0.  1.
          4    1    3    3  501    0  0.37477278886E+03  0.13609903402E+03  0.76207283427E+03  0.86007708670E+03  0.00000000000E+00 0.  1.
         13    1    1    2    0    0 -0.54716689120E+02  0.24923719574E+02 -0.13744410219E+03  0.15001999952E+03  0.10566000000E+00 0. -1.
<mgrwt>
<rscale>  1 0.49524832E+03</rscale>
<asrwt>0</asrwt>
<pdfrwt beam="1">  1       21 0.14919485E+00 0.10001771E+04</pdfrwt>
<pdfrwt beam="2">  1        4 0.62046218E-01 0.10001771E+04</pdfrwt>
<totfact> 0.26675889E+01</totfact>
</mgrwt>
</event>
<event>
 6    1  0.1353269E-005  0.1002340E+04  0.7818608E-02  0.9876613E-01
         21   -1    0    0  501  502  0.00000000000E+00  0.00000000000E+00  0.12039717912E+04  0.12039717912E+04  0.00000000000E+00 0.  1.
          4   -1    0    0  502    0 -0.00000000000E+00 -0.00000000000E+00 -0.29200578493E+03  0.29200578493E+03  0.00000000000E+00 0.  1.
    9000010    2    1    2  501    0 -0.13297797478E+03  0.47504651730E+02  0.91143329152E+03  0.13547680557E+04  0.99234369358E+03 0.  0.
        -13    1    3    3    0    0 -0.39713821109E+03  0.35010908908E+03  0.26092477533E+03  0.59023459955E+03  0.10566000000E+00 0.  1.
          4    1    3    3  501    0  0.26416023631E+03 -0.30260443735E+03  0.65050851619E+03  0.76453345616E+03  0.00000000000E+00 0.  1.
         13    1    1    2    0    0  0.13297797478E+03 -0.47504651730E+02  0.53271477393E+00  0.14120952043E+03  0.10566000000E+00 0. -1.
<mgrwt>
<rscale>  1 0.61408230E+03</rscale>
<asrwt>0</asrwt>
<pdfrwt beam="1">  1       21 0.18522643E+00 0.10023402E+04</pdfrwt>
<pdfrwt beam="2">  1        4 0.44923968E-01 0.10023402E+04</pdfrwt>
<totfact> 0.28300742E+01</totfact>
</mgrwt>
</event>
<event>
 6    1  0.1353269E-005  0.1010241E+04  0.7818608E-02  0.1002689E+00
         21   -1    0    0  501  502  0.00000000000E+00  0.00000000000E+00  0.17481727155E+04  0.17481727155E+04  0.00000000000E+00 0.  1.
          4   -1    0    0  502    0 -0.00000000000E+00 -0.00000000000E+00 -0.22245210720E+03  0.22245210720E+03  0.00000000000E+00 0.  1.
    9000010    2    1    2  501    0  0.40930408564E+01 -0.85385328902E+02  0.15755966853E+04  0.18716549202E+04  0.10066180100E+04 0.  0.
        -13    1    3    3    0    0  0.44451125508E+03 -0.27776156427E+03  0.72430703658E+03  0.89407071134E+03  0.10566000000E+00 0.  1.
          4    1    3    3  501    0 -0.44041821422E+03  0.19237623537E+03  0.85128964870E+03  0.97758420882E+03  0.00000000000E+00 0.  1.
         13    1    1    2    0    0 -0.40930408564E+01  0.85385328902E+02 -0.49876077020E+02  0.98969902486E+02  0.10566000000E+00 0. -1.
<mgrwt>
<rscale>  1 0.54486548E+03</rscale>
<asrwt>0</asrwt>
<pdfrwt beam="1">  1       21 0.26894964E+00 0.10102412E+04</pdfrwt>
<pdfrwt beam="2">  1        4 0.34223402E-01 0.10102412E+04</pdfrwt>
<totfact> 0.13795602E+01</totfact>
</mgrwt>
</event>
<event>
 6    1  0.1353269E-005  0.1079920E+04  0.7818608E-02  0.9514527E-01
          4   -1    0    0  502    0 -0.00000000000E+00  0.00000000000E+00  0.87954040557E+03  0.87954040557E+03  0.00000000000E+00 0.  1.
         21   -1    0    0  501  502  0.00000000000E+00 -0.00000000000E+00 -0.88419277150E+03  0.88419277150E+03  0.00000000000E+00 0.  1.
    9000010    2    1    2  501    0 -0.33340144203E+03  0.18410569474E+03 -0.45679882479E+03  0.11725581947E+04  0.10105325948E+04 0.  0.
        -13    1    3    3    0    0 -0.31759101363E+03  0.30572295592E+03 -0.74145643076E+03  0.86260548781E+03  0.10566000000E+00 0.  1.
          4    1    3    3  501    0 -0.15810428394E+02 -0.12161726118E+03  0.28465760597E+03  0.30995270687E+03  0.00000000000E+00 0.  1.
         13    1    1    2    0    0  0.33340144203E+03 -0.18410569474E+03  0.45214645886E+03  0.59117498239E+03  0.10566000000E+00 0. -1.
<mgrwt>
<rscale>  1 0.83221204E+03</rscale>
<asrwt>0</asrwt>
<pdfrwt beam="2">  1       21 0.13602966E+00 0.10799202E+04</pdfrwt>
<pdfrwt beam="1">  1        4 0.13531391E+00 0.10799202E+04</pdfrwt>
<totfact> 0.53481118E+00</totfact>
</mgrwt>
</event>
<event>
 6    1  0.1353269E-005  0.1016503E+04  0.7818608E-02  0.9806580E-01
          4   -1    0    0  502    0 -0.00000000000E+00  0.00000000000E+00  0.47514588358E+03  0.47514588358E+03  0.00000000000E+00 0.  1.
         21   -1    0    0  501  502  0.00000000000E+00 -0.00000000000E+00 -0.76733700295E+03  0.76733700295E+03  0.00000000000E+00 0.  1.
    9000010    2    1    2  501    0 -0.15909278235E+03  0.60092050914E+02 -0.16429542003E+03  0.10296945197E+04  0.10021757585E+04 0.  0.
        -13    1    3    3    0    0  0.21531720302E+03  0.27542774152E+03  0.25110515857E+03  0.43043669748E+03  0.10566000000E+00 0.  1.
          4    1    3    3  501    0 -0.37440998537E+03 -0.21533569060E+03 -0.41540057861E+03  0.59925782223E+03  0.00000000000E+00 0.  1.
         13    1    1    2    0    0  0.15909278235E+03 -0.60092050914E+02 -0.12789569933E+03  0.21278836681E+03  0.10566000000E+00 0. -1.
<mgrwt>
<rscale>  1 0.65010607E+03</rscale>
<asrwt>0</asrwt>
<pdfrwt beam="2">  1       21 0.11805185E+00 0.10165027E+04</pdfrwt>
<pdfrwt beam="1">  1        4 0.73099367E-01 0.10165027E+04</pdfrwt>
<totfact> 0.34636508E+01</totfact>
</mgrwt>
</event>
<event>
 6    1  0.1353269E-005  0.1043453E+04  0.7818608E-02  0.9600032E-01
         21   -1    0    0  501  502  0.00000000000E+00  0.00000000000E+00  0.58562712412E+03  0.58562712412E+03  0.00000000000E+00 0.  1.
          4   -1    0    0  502    0 -0.00000000000E+00 -0.00000000000E+00 -0.14540061440E+04  0.14540061440E+04  0.00000000000E+00 0.  1.
    9000010    2    1    2  501    0  0.11456353207E+03 -0.29253777079E+03  0.74186806107E+02  0.10460873468E+04  0.99503361992E+03 0.  0.
        -13    1    3    3    0    0  0.42745367122E+03 -0.13176815529E+03 -0.29525019747E+03  0.53595911976E+03  0.10566000000E+00 0.  1.
          4    1    3    3  501    0 -0.31289013914E+03 -0.16076961550E+03  0.36943700358E+03  0.51012822707E+03  0.00000000000E+00 0.  1.
         13    1    1    2    0    0 -0.11456353207E+03  0.29253777079E+03 -0.94256582598E+03  0.99354592127E+03  0.10566000000E+00 0. -1.
<mgrwt>
<rscale>  1 0.77294072E+03</rscale>
<asrwt>0</asrwt>
<pdfrwt beam="1">  1       21 0.90096480E-01 0.10434534E+04</pdfrwt>
<pdfrwt beam="2">  1        4 0.22369325E+00 0.10434534E+04</pdfrwt>
<totfact> 0.36103802E+00</totfact>
</mgrwt>
</event>
<event>
 6    1  0.1353269E-005  0.9853027E+03  0.7818608E-02  0.9830372E-01
          4   -1    0    0  502    0 -0.00000000000E+00  0.00000000000E+00  0.70932495258E+03  0.70932495258E+03  0.00000000000E+00 0.  1.
         21   -1    0    0  501  502  0.00000000000E+00 -0.00000000000E+00 -0.65772118272E+03  0.65772118272E+03  0.00000000000E+00 0.  1.
    9000010    2    1    2  501    0 -0.17030605542E+03  0.28968510306E+02 -0.25264134659E+03  0.10171769752E+04  0.97004021662E+03 0.  0.
        -13    1    3    3    0    0 -0.42738245990E+03 -0.89050794759E+02 -0.48395769317E+03  0.65176749767E+03  0.10566000000E+00 0.  1.
          4    1    3    3  501    0  0.25707640448E+03  0.11801930507E+03  0.23131634658E+03  0.36540947758E+03  0.00000000000E+00 0.  1.
         13    1    1    2    0    0  0.17030605542E+03 -0.28968510306E+02  0.30424511645E+03  0.34986916004E+03  0.10566000000E+00 0. -1.
<mgrwt>
<rscale>  1 0.63757777E+03</rscale>
<asrwt>0</asrwt>
<pdfrwt beam="2">  1       21 0.10118787E+00 0.98530267E+03</pdfrwt>
<pdfrwt beam="1">  1        4 0.10912692E+00 0.98530267E+03</pdfrwt>
<totfact> 0.19985744E+01</totfact>
</mgrwt>
</event>
<event>
 6    1  0.1353269E-005  0.9987424E+03  0.7818608E-02  0.9856746E-01
          4   -1    0    0  502    0 -0.00000000000E+00  0.00000000000E+00  0.31795193673E+03  0.31795193673E+03  0.00000000000E+00 0.  1.
         21   -1    0    0  501  502  0.00000000000E+00 -0.00000000000E+00 -0.15387840273E+04  0.15387840273E+04  0.00000000000E+00 0.  1.
    9000010    2    1    2  501    0  0.14776795546E+03 -0.36576033192E+02 -0.13344332027E+04  0.16667928180E+04  0.98707302205E+03 0.  0.
        -13    1    3    3    0    0  0.73463654392E+01  0.42225873768E+03 -0.27556494644E+03  0.50427419278E+03  0.10566000000E+00 0.  1.
          4    1    3    3  501    0  0.14042159002E+03 -0.45883477088E+03 -0.10588682562E+04  0.11625186252E+04  0.00000000000E+00 0.  1.
         13    1    1    2    0    0 -0.14776795546E+03  0.36576033192E+02  0.11360111214E+03  0.18994314599E+03  0.10566000000E+00 0. -1.
<mgrwt>
<rscale>  1 0.62404129E+03</rscale>
<asrwt>0</asrwt>
<pdfrwt beam="2">  1       21 0.23673600E+00 0.99874237E+03</pdfrwt>
<pdfrwt beam="1">  1        4 0.48915683E-01 0.99874237E+03</pdfrwt>
<totfact> 0.10651498E+01</totfact>
</mgrwt>
</event>
<event>
 6    1  0.1353269E-005  0.1011780E+04  0.7818608E-02  0.9773897E-01
          4   -1    0    0  502    0 -0.00000000000E+00  0.00000000000E+00  0.82907792250E+03  0.82907792250E+03  0.00000000000E+00 0.  1.
         21   -1    0    0  501  502  0.00000000000E+00 -0.00000000000E+00 -0.68128993969E+03  0.68128993969E+03  0.00000000000E+00 0.  1.
    9000010    2    1    2  501    0  0.19203034825E+03  0.18132207716E+01 -0.27288549809E+03  0.10479339414E+04  0.99338819603E+03 0.  0.
        -13    1    3    3    0    0 -0.20556993162E+03  0.29670674030E+03  0.15574300168E+03  0.39312819825E+03  0.10566000000E+00 0.  1.
          4    1    3    3  501    0  0.39760027988E+03 -0.29489351953E+03 -0.42862849977E+03  0.65480574312E+03  0.00000000000E+00 0.  1.
         13    1    1    2    0    0 -0.19203034825E+03 -0.18132207716E+01  0.42067348090E+03  0.46243392081E+03  0.10566000000E+00 0. -1.
<mgrwt>
<rscale>  1 0.66782387E+03</rscale>
<asrwt>0</asrwt>
<pdfrwt beam="2">  1       21 0.10481384E+00 0.10117801E+04</pdfrwt>
<pdfrwt beam="1">  1        4 0.12755045E+00 0.10117801E+04</pdfrwt>
<totfact> 0.12347942E+01</totfact>
</mgrwt>
</event>
<event>
 6    1  0.1353269E-005  0.9539393E+03  0.7818608E-02  0.1020749E+00
          4   -1    0    0  502    0 -0.00000000000E+00  0.00000000000E+00  0.14360689232E+04  0.14360689232E+04  0.00000000000E+00 0.  1.
         21   -1    0    0  501  502  0.00000000000E+00 -0.00000000000E+00 -0.17992452079E+03  0.17992452079E+03  0.00000000000E+00 0.  1.
    9000010    2    1    2  501    0 -0.56853864725E+02 -0.12604395192E+02  0.11432664225E+04  0.14889789478E+04  0.95216015546E+03 0.  0.
        -13    1    3    3    0    0  0.75749456269E+02  0.27619537791E+03  0.11355383133E+04  0.11710974080E+04  0.10566000000E+00 0.  1.
          4    1    3    3  501    0 -0.13260332099E+03 -0.28879977310E+03  0.77281091425E+01  0.31788153981E+03  0.00000000000E+00 0.  1.
         13    1    1    2    0    0  0.56853864725E+02  0.12604395192E+02  0.11287797996E+03  0.12701449617E+03  0.10566000000E+00 0. -1.
<mgrwt>
<rscale>  1 0.47417149E+03</rscale>
<asrwt>0</asrwt>
<pdfrwt beam="2">  1       21 0.27680697E-01 0.95393930E+03</pdfrwt>
<pdfrwt beam="1">  1        4 0.22093367E+00 0.95393930E+03</pdfrwt>
<totfact> 0.49566634E+01</totfact>
</mgrwt>
</event>
<event>
 6    1  0.1353269E-005  0.9987454E+03  0.7818608E-02  0.1043229E+00
         21   -1    0    0  501  502  0.00000000000E+00  0.00000000000E+00  0.29298673560E+03  0.29298673560E+03  0.00000000000E+00 0.  1.
          4   -1    0    0  502    0 -0.00000000000E+00 -0.00000000000E+00 -0.10104153457E+04  0.10104153457E+04  0.00000000000E+00 0.  1.
    9000010    2    1    2  501    0 -0.23150050948E+02  0.12072220790E+02 -0.56242993567E+03  0.11462198189E+04  0.99840411524E+03 0.  0.
        -13    1    3    3    0    0 -0.18466339078E+03 -0.34241650934E+03  0.77848953490E+02  0.39674942280E+03  0.10566000000E+00 0.  1.
          4    1    3    3  501    0  0.16151333984E+03  0.35448873013E+03 -0.64027888916E+03  0.74947039611E+03  0.00000000000E+00 0.  1.
         13    1    1    2    0    0  0.23150050948E+02 -0.12072220790E+02 -0.15499867444E+03  0.15718226241E+03  0.10566000000E+00 0. -1.
<mgrwt>
<rscale>  1 0.40159495E+03</rscale>
<asrwt>0</asrwt>
<pdfrwt beam="1">  1       21 0.45074882E-01 0.99874543E+03</pdfrwt>
<pdfrwt beam="2">  1        4 0.15544852E+00 0.99874543E+03</pdfrwt>
<totfact> 0.50939582E+01</totfact>
</mgrwt>
</event>
<event>
 6    1  0.1353269E-005  0.1084434E+04  0.7818608E-02  0.9505857E-01
          4   -1    0    0  502    0 -0.00000000000E+00  0.00000000000E+00  0.45975600733E+03  0.45975600733E+03  0.00000000000E+00 0.  1.
         21   -1    0    0  501  502  0.00000000000E+00 -0.00000000000E+00 -0.12669579902E+04  0.12669579902E+04  0.00000000000E+00 0. -1.
    9000010    2    1    2  501    0  0.38757377896E+03  0.90716900437E+01 -0.37819317454E+03  0.11484888697E+04  0.10127689158E+04 0.  0.
        -13    1    3    3    0    0 -0.26210001617E+03  0.16071357145E+03  0.10485072396E+03  0.32483681442E+03  0.10566000000E+00 0.  1.
          4    1    3    3  501    0  0.64967379513E+03 -0.15164188141E+03 -0.48304389850E+03  0.82365205527E+03  0.00000000000E+00 0.  1.
         13    1    1    2    0    0 -0.38757377896E+03 -0.90716900437E+01 -0.42900880837E+03  0.57822512788E+03  0.10566000000E+00 0. -1.
<mgrwt>
<rscale>  1 0.83853398E+03</rscale>
<asrwt>0</asrwt>
<pdfrwt beam="2">  1       21 0.19491661E+00 0.10844338E+04</pdfrwt>
<pdfrwt beam="1">  1        4 0.70731695E-01 0.10844338E+04</pdfrwt>
<totfact> 0.89923413E+00</totfact>
</mgrwt>
</event>
<event>
 6    1  0.1353269E-005  0.1010432E+04  0.7818608E-02  0.9763463E-01
         21   -1    0    0  501  502  0.00000000000E+00  0.00000000000E+00  0.25237260868E+04  0.25237260868E+04  0.00000000000E+00 0.  1.
          4   -1    0    0  502    0 -0.00000000000E+00 -0.00000000000E+00 -0.16220327211E+03  0.16220327211E+03  0.00000000000E+00 0.  1.
    9000010    2    1    2  501    0 -0.43720299182E+02  0.19472715487E+03  0.22262682408E+04  0.24448402876E+04  0.99052694175E+03 0.  0.
        -13    1    3    3    0    0 -0.30573683132E+03 -0.19887603510E+03  0.33455262450E+03  0.49492641583E+03  0.10566000000E+00 0.  1.
          4    1    3    3  501    0  0.26201653213E+03  0.39360318997E+03  0.18917156163E+04  0.19499138718E+04  0.00000000000E+00 0.  1.
         13    1    1    2    0    0  0.43720299182E+02 -0.19472715487E+03  0.13525457391E+03  0.24108907136E+03  0.10566000000E+00 0. -1.
<mgrwt>
<rscale>  1 0.67360755E+03</rscale>
<asrwt>0</asrwt>
<pdfrwt beam="1">  1       21 0.38826552E+00 0.10104325E+04</pdfrwt>
<pdfrwt beam="2">  1        4 0.24954351E-01 0.10104325E+04</pdfrwt>
<totfact> 0.45309920E+00</totfact>
</mgrwt>
</event>
<event>
 6    1  0.1353269E-005  0.1174297E+04  0.7818608E-02  0.9301790E-01
         21   -1    0    0  501  502  0.00000000000E+00  0.00000000000E+00  0.81643786891E+03  0.81643786891E+03  0.00000000000E+00 0. -1.
          4   -1    0    0  502    0 -0.00000000000E+00 -0.00000000000E+00 -0.11274585467E+04  0.11274585467E+04  0.00000000000E+00 0.  1.
    9000010    2    1    2  501    0 -0.62185527265E+03  0.11801858675E+03 -0.51019909459E+03  0.12803420322E+04  0.98911083113E+03 0.  0.
        -13    1    3    3    0    0 -0.37648764386E+03  0.21811483345E+03  0.23140489149E+03  0.49281361742E+03  0.10566000000E+00 0.  1.
          4    1    3    3  501    0 -0.24536762879E+03 -0.10009624670E+03 -0.74160398608E+03  0.78752841474E+03  0.00000000000E+00 0.  1.
         13    1    1    2    0    0  0.62185527265E+03 -0.11801858675E+03  0.19917841677E+03  0.66355438347E+03  0.10566000000E+00 0. -1.
<mgrwt>
<rscale>  1 0.10061823E+04</rscale>
<asrwt>0</asrwt>
<pdfrwt beam="1">  1       21 0.12560583E+00 0.11742966E+04</pdfrwt>
<pdfrwt beam="2">  1        4 0.17345516E+00 0.11742966E+04</pdfrwt>
<totfact> 0.33294894E+00</totfact>
</mgrwt>
</event>
<event>
 6    1  0.1353269E-005  0.1210620E+04  0.7818608E-02  0.9250376E-01
          4   -1    0    0  502    0 -0.00000000000E+00  0.00000000000E+00  0.61587674831E+03  0.61587674831E+03  0.00000000000E+00 0.  1.
         21   -1    0    0  501  502  0.00000000000E+00 -0.00000000000E+00 -0.15261969108E+04  0.15261969108E+04  0.00000000000E+00 0.  1.
    9000010    2    1    2  501    0 -0.14430269316E+02  0.69759991301E+03 -0.75657241692E+03  0.14275862542E+04  0.98931633964E+03 0.  0.
        -13    1    3    3    0    0  0.39237714364E+03  0.64230591075E+03 -0.67071984562E+03  0.10081576406E+04  0.10566000000E+00 0.  1.
          4    1    3    3  501    0 -0.40680741295E+03  0.55294002261E+02 -0.85852571299E+02  0.41942861362E+03  0.00000000000E+00 0.  1.
         13    1    1    2    0    0  0.14430269316E+02 -0.69759991301E+03 -0.15374774556E+03  0.71448740488E+03  0.10566000000E+00 0. -1.
<mgrwt>
<rscale>  1 0.10548257E+04</rscale>
<asrwt>0</asrwt>
<pdfrwt beam="2">  1       21 0.23479952E+00 0.12106200E+04</pdfrwt>
<pdfrwt beam="1">  1        4 0.94750269E-01 0.12106200E+04</pdfrwt>
<totfact> 0.24265237E+00</totfact>
</mgrwt>
</event>
<event>
 6    1  0.1353269E-005  0.9701754E+03  0.7818608E-02  0.1012156E+00
         21   -1    0    0  501  502  0.00000000000E+00  0.00000000000E+00  0.17071381610E+03  0.17071381610E+03  0.00000000000E+00 0.  1.
          4   -1    0    0  502    0 -0.00000000000E+00 -0.00000000000E+00 -0.16029881719E+04  0.16029881719E+04  0.00000000000E+00 0.  1.
    9000010    2    1    2  501    0  0.59789966296E+02 -0.40004359143E+02 -0.12882266151E+04  0.16126897164E+04  0.96750458444E+03 0.  0.
        -13    1    3    3    0    0 -0.37451872481E+03 -0.19770042045E+02 -0.10542039736E+04  0.11189285764E+04  0.10566000000E+00 0.  1.
          4    1    3    3  501    0  0.43430869111E+03 -0.20234317099E+02 -0.23402264145E+03  0.49376114010E+03  0.00000000000E+00 0.  1.
         13    1    1    2    0    0 -0.59789966296E+02  0.40004359143E+02 -0.14404774072E+03  0.16101227155E+03  0.10566000000E+00 0. -1.
<mgrwt>
<rscale>  1 0.50626580E+03</rscale>
<asrwt>0</asrwt>
<pdfrwt beam="1">  1       21 0.26263663E-01 0.97017540E+03</pdfrwt>
<pdfrwt beam="2">  1        4 0.24661357E+00 0.97017540E+03</pdfrwt>
<totfact> 0.37932520E+01</totfact>
</mgrwt>
</event>
<event>
 6    1  0.1353269E-005  0.1060526E+04  0.7818608E-02  0.9546113E-01
          4   -1    0    0  502    0 -0.00000000000E+00  0.00000000000E+00  0.15445524447E+04  0.15445524447E+04  0.00000000000E+00 0.  1.
         21   -1    0    0  501  502  0.00000000000E+00 -0.00000000000E+00 -0.33696021932E+03  0.33696021932E+03  0.00000000000E+00 0.  1.
    9000010    2    1    2  501    0  0.24140611483E+03  0.26749276974E+03  0.74924041400E+03  0.12984897757E+04  0.99743932422E+03 0.  0.
        -13    1    3    3    0    0  0.21997816927E+03 -0.30885309074E+03  0.58794806309E+03  0.69961672555E+03  0.10566000000E+00 0.  1.
          4    1    3    3  501    0  0.21427945557E+02  0.57634586048E+03  0.16129235091E+03  0.59887305015E+03  0.00000000000E+00 0.  1.
         13    1    1    2    0    0 -0.24140611483E+03 -0.26749276974E+03  0.45835181140E+03  0.58302288833E+03  0.10566000000E+00 0. -1.
<mgrwt>
<rscale>  1 0.80967821E+03</rscale>
<asrwt>0</asrwt>
<pdfrwt beam="2">  1       21 0.51840035E-01 0.10605256E+04</pdfrwt>
<pdfrwt beam="1">  1        4 0.23762345E+00 0.10605256E+04</pdfrwt>
<totfact> 0.10424919E+01</totfact>
</mgrwt>
</event>
<event>
 6    1  0.1353269E-005  0.1004880E+04  0.7818608E-02  0.1063737E+00
         21   -1    0    0  501  502  0.00000000000E+00  0.00000000000E+00  0.11775413296E+04  0.11775413296E+04  0.00000000000E+00 0.  1.
          4   -1    0    0  502    0 -0.00000000000E+00 -0.00000000000E+00 -0.24893079269E+03  0.24893079269E+03  0.00000000000E+00 0.  1.
    9000010    2    1    2  501    0  0.49655638606E+01 -0.13446293576E+02  0.96138559548E+03  0.13906995733E+04  0.10047773785E+04 0.  0.
        -13    1    3    3    0    0  0.34291190245E+03 -0.23243692886E+03  0.89004708299E+03  0.98173281490E+03  0.10566000000E+00 0.  1.
          4    1    3    3  501    0 -0.33794633859E+03  0.21899063528E+03  0.71338512488E+02  0.40896675839E+03  0.00000000000E+00 0.  1.
         13    1    1    2    0    0 -0.49655638606E+01  0.13446293576E+02 -0.32775058553E+02  0.35772549008E+02  0.10566000000E+00 0. -1.
<mgrwt>
<rscale>  1 0.34727961E+03</rscale>
<asrwt>0</asrwt>
<pdfrwt beam="1">  1       21 0.18116020E+00 0.10048796E+04</pdfrwt>
<pdfrwt beam="2">  1        4 0.38297046E-01 0.10048796E+04</pdfrwt>
<totfact> 0.41975657E+01</totfact>
</mgrwt>
</event>
<event>
 6    1  0.1353269E-005  0.9935079E+03  0.7818608E-02  0.9716693E-01
         21   -1    0    0  501  502  0.00000000000E+00  0.00000000000E+00  0.21679831295E+04  0.21679831295E+04  0.00000000000E+00 0.  1.
          4   -1    0    0  502    0 -0.00000000000E+00 -0.00000000000E+00 -0.19455482316E+03  0.19455482316E+03  0.00000000000E+00 0.  1.
    9000010    2    1    2  501    0 -0.42080434278E+02 -0.24164283648E+03  0.18191656991E+04  0.20727811813E+04  0.96275436203E+03 0.  0.
        -13    1    3    3    0    0  0.24436139792E+03  0.27251844366E+03  0.99373080666E+03  0.10589993967E+04  0.10566000000E+00 0.  1.
          4    1    3    3  501    0 -0.28644183220E+03 -0.51416128015E+03  0.82543489240E+03  0.10137817846E+04  0.00000000000E+00 0.  1.
         13    1    1    2    0    0  0.42080434278E+02  0.24164283648E+03  0.15426260729E+03  0.28975677135E+03  0.10566000000E+00 0. -1.
<mgrwt>
<rscale>  1 0.70031562E+03</rscale>
<asrwt>0</asrwt>
<pdfrwt beam="1">  1       21 0.33353585E+00 0.99350792E+03</pdfrwt>
<pdfrwt beam="2">  1        4 0.29931513E-01 0.99350792E+03</pdfrwt>
<totfact> 0.71346986E+00</totfact>
</mgrwt>
</event>
<event>
 6    1  0.1353269E-005  0.9871691E+03  0.7818608E-02  0.1025938E+00
          4   -1    0    0  502    0 -0.00000000000E+00  0.00000000000E+00  0.34319936646E+03  0.34319936646E+03  0.00000000000E+00 0.  1.
         21   -1    0    0  501  502  0.00000000000E+00 -0.00000000000E+00 -0.77600078336E+03  0.77600078336E+03  0.00000000000E+00 0.  1.
    9000010    2    1    2  501    0 -0.44565581406E+01 -0.44736354912E+02 -0.41448344192E+03  0.10706536594E+04  0.98614478267E+03 0.  0.
        -13    1    3    3    0    0 -0.23542554897E+03  0.24734794257E+03  0.16702632028E+03  0.38013681305E+03  0.10566000000E+00 0.  1.
          4    1    3    3  501    0  0.23096899083E+03 -0.29208429748E+03 -0.58150976220E+03  0.69051684635E+03  0.00000000000E+00 0.  1.
         13    1    1    2    0    0  0.44565581406E+01  0.44736354912E+02 -0.18317974981E+02  0.48546490427E+02  0.10566000000E+00 0. -1.
<mgrwt>
<rscale>  1 0.45603185E+03</rscale>
<asrwt>0</asrwt>
<pdfrwt beam="2">  1       21 0.11938474E+00 0.98716905E+03</pdfrwt>
<pdfrwt beam="1">  1        4 0.52799903E-01 0.98716905E+03</pdfrwt>
<totfact> 0.68822848E+01</totfact>
</mgrwt>
</event>
<event>
 6    1  0.1353269E-005  0.1166034E+04  0.7818608E-02  0.9345644E-01
          4   -1    0    0  502    0 -0.00000000000E+00  0.00000000000E+00  0.11432497394E+04  0.11432497394E+04  0.00000000000E+00 0.  1.
         21   -1    0    0  501  502  0.00000000000E+00 -0.00000000000E+00 -0.78478081486E+03  0.78478081486E+03  0.00000000000E+00 0.  1.
    9000010    2    1    2  501    0  0.13839458462E+03 -0.53358785814E+03 -0.15302980756E+03  0.11760331955E+04  0.10275051784E+04 0.  0.
        -13    1    3    3    0    0  0.30697133386E+03  0.75385071774E+02  0.26993012586E+03  0.41566403846E+03  0.10566000000E+00 0.  1.
          4    1    3    3  501    0 -0.16857674924E+03 -0.60897292992E+03 -0.42295993342E+03  0.76036915707E+03  0.00000000000E+00 0.  1.
         13    1    1    2    0    0 -0.13839458462E+03  0.53358785814E+03  0.51149873206E+03  0.75199735869E+03  0.10566000000E+00 0. -1.
<mgrwt>
<rscale>  1 0.96687271E+03</rscale>
<asrwt>0</asrwt>
<pdfrwt beam="2">  1       21 0.12073551E+00 0.11660343E+04</pdfrwt>
<pdfrwt beam="1">  1        4 0.17588458E+00 0.11660343E+04</pdfrwt>
<totfact> 0.35537431E+00</totfact>
</mgrwt>
</event>
<event>
 6    1  0.1353269E-005  0.1156204E+04  0.7818608E-02  0.9328782E-01
          4   -1    0    0  502    0 -0.00000000000E+00  0.00000000000E+00  0.13647314208E+04  0.13647314208E+04  0.00000000000E+00 0.  1.
         21   -1    0    0  501  502  0.00000000000E+00 -0.00000000000E+00 -0.56801186532E+03  0.56801186532E+03  0.00000000000E+00 0.  1.
    9000010    2    1    2  501    0  0.39435256827E+03 -0.45360003172E+03  0.46482422851E+03  0.12461419053E+04  0.98769486579E+03 0.  0.
        -13    1    3    3    0    0 -0.84175167340E+02  0.18904096119E+03  0.38990111211E+03  0.44141231540E+03  0.10566000000E+00 0.  1.
          4    1    3    3  501    0  0.47852773561E+03 -0.64264099290E+03  0.74923116401E+02  0.80472958991E+03  0.00000000000E+00 0.  1.
         13    1    1    2    0    0 -0.39435256827E+03  0.45360003172E+03  0.33189532694E+03  0.68660138078E+03  0.10566000000E+00 0. -1.
<mgrwt>
<rscale>  1 0.98175795E+03</rscale>
<asrwt>0</asrwt>
<pdfrwt beam="2">  1       21 0.87386441E-01 0.11562042E+04</pdfrwt>
<pdfrwt beam="1">  1        4 0.20995868E+00 0.11562042E+04</pdfrwt>
<totfact> 0.46971026E+00</totfact>
</mgrwt>
</event>
<event>
 6    1  0.1353269E-005  0.1031418E+04  0.7818608E-02  0.9661181E-01
         21   -1    0    0  501  502  0.00000000000E+00  0.00000000000E+00  0.28162592284E+03  0.28162592284E+03  0.00000000000E+00 0.  1.
          4   -1    0    0  502    0 -0.00000000000E+00 -0.00000000000E+00 -0.16095169323E+04  0.16095169323E+04  0.00000000000E+00 0.  1.
    9000010    2    1    2  501    0  0.25389613458E+03 -0.73011419461E+02 -0.12396206653E+04  0.16126009743E+04  0.99700982648E+03 0.  0.
        -13    1    3    3    0    0  0.51697101455E+03 -0.15698701579E+03 -0.12217383113E+04  0.13358699283E+04  0.10566000000E+00 0.  1.
          4    1    3    3  501    0 -0.26307487996E+03  0.83975596328E+02 -0.17882354018E+02  0.27673104602E+03  0.00000000000E+00 0.  1.
         13    1    1    2    0    0 -0.25389613458E+03  0.73011419461E+02 -0.88270344164E+02  0.27854188079E+03  0.10566000000E+00 0. -1.
<mgrwt>
<rscale>  1 0.73375859E+03</rscale>
<asrwt>0</asrwt>
<pdfrwt beam="1">  1       21 0.43327066E-01 0.10314177E+04</pdfrwt>
<pdfrwt beam="2">  1        4 0.24761798E+00 0.10314177E+04</pdfrwt>
<totfact> 0.13321340E+01</totfact>
</mgrwt>
</event>
<event>
 6    1  0.1353269E-005  0.9843610E+03  0.7818608E-02  0.1002116E+00
          4   -1    0    0  502    0 -0.00000000000E+00  0.00000000000E+00  0.23170892439E+03  0.23170892439E+03  0.00000000000E+00 0.  1.
         21   -1    0    0  501  502  0.00000000000E+00 -0.00000000000E+00 -0.13100321925E+04  0.13100321925E+04  0.00000000000E+00 0.  1.
    9000010    2    1    2  501    0 -0.90142090178E+02  0.26943209605E+02 -0.87227685958E+03  0.13152313674E+04  0.97985463061E+03 0.  0.
        -13    1    3    3    0    0  0.68846935076E+02 -0.35320147146E+03 -0.10490228754E+02  0.36000171663E+03  0.10566000000E+00 0.  1.
          4    1    3    3  501    0 -0.15898902525E+03  0.38014468107E+03 -0.86178663083E+03  0.95522965080E+03  0.00000000000E+00 0.  1.
         13    1    1    2    0    0  0.90142090178E+02 -0.26943209605E+02 -0.20604640849E+03  0.22650974942E+03  0.10566000000E+00 0. -1.
<mgrwt>
<rscale>  1 0.54732242E+03</rscale>
<asrwt>0</asrwt>
<pdfrwt beam="2">  1       21 0.20154341E+00 0.98436103E+03</pdfrwt>
<pdfrwt beam="1">  1        4 0.35647527E-01 0.98436103E+03</pdfrwt>
<totfact> 0.34949923E+01</totfact>
</mgrwt>
</event>
<event>
 6    1  0.1353269E-005  0.1096287E+04  0.7818608E-02  0.9520885E-01
          4   -1    0    0  502    0 -0.00000000000E+00  0.00000000000E+00  0.42871681774E+03  0.42871681774E+03  0.00000000000E+00 0.  1.
         21   -1    0    0  501  502  0.00000000000E+00 -0.00000000000E+00 -0.17582918266E+04  0.17582918266E+04  0.00000000000E+00 0.  1.
    9000010    2    1    2  501    0  0.24539077273E+03 -0.25801313194E+03 -0.14439991200E+04  0.18130029011E+04  0.10368503525E+04 0.  0.
        -13    1    3    3    0    0 -0.39862456017E+03 -0.12736512278E+01 -0.45093750732E+03  0.60187025913E+03  0.10566000000E+00 0.  1.
          4    1    3    3  501    0  0.64401533290E+03 -0.25673948072E+03 -0.99306161268E+03  0.12111326420E+04  0.00000000000E+00 0.  1.
         13    1    1    2    0    0 -0.24539077273E+03  0.25801313194E+03  0.11442411111E+03  0.37400574322E+03  0.10566000000E+00 0. -1.
<mgrwt>
<rscale>  1 0.82761402E+03</rscale>
<asrwt>0</asrwt>
<pdfrwt beam="2">  1       21 0.27050643E+00 0.10962874E+04</pdfrwt>
<pdfrwt beam="1">  1        4 0.65956434E-01 0.10962874E+04</pdfrwt>
<totfact> 0.33586042E+00</totfact>
</mgrwt>
</event>
<event>
 6    1  0.1353269E-005  0.1026718E+04  0.7818608E-02  0.9653093E-01
          4   -1    0    0  502    0 -0.00000000000E+00  0.00000000000E+00  0.30950398525E+03  0.30950398525E+03  0.00000000000E+00 0.  1.
         21   -1    0    0  501  502  0.00000000000E+00 -0.00000000000E+00 -0.14251281629E+04  0.14251281629E+04  0.00000000000E+00 0.  1.
    9000010    2    1    2  501    0 -0.10773989414E+03  0.25329973293E+03 -0.72551826427E+03  0.12571897178E+04  0.98913123256E+03 0.  0.
        -13    1    3    3    0    0 -0.26907288528E+03 -0.31665528114E+03 -0.18338207158E+03  0.45420235579E+03  0.10566000000E+00 0.  1.
          4    1    3    3  501    0  0.16133299114E+03  0.56995501408E+03 -0.54213619269E+03  0.80298736200E+03  0.00000000000E+00 0.  1.
         13    1    1    2    0    0  0.10773989414E+03 -0.25329973293E+03 -0.39010591339E+03  0.47744243037E+03  0.10566000000E+00 0. -1.
<mgrwt>
<rscale>  1 0.73879600E+03</rscale>
<asrwt>0</asrwt>
<pdfrwt beam="2">  1       21 0.21925048E+00 0.10267177E+04</pdfrwt>
<pdfrwt beam="1">  1        4 0.47615998E-01 0.10267177E+04</pdfrwt>
<totfact> 0.14602337E+01</totfact>
</mgrwt>
</event>
<event>
 6    1  0.1353269E-005  0.1036839E+04  0.7818608E-02  0.9762725E-01
          4   -1    0    0  502    0 -0.00000000000E+00  0.00000000000E+00  0.50806700140E+03  0.50806700140E+03  0.00000000000E+00 0.  1.
         21   -1    0    0  501  502  0.00000000000E+00 -0.00000000000E+00 -0.73808388051E+03  0.73808388051E+03  0.00000000000E+00 0.  1.
    9000010    2    1    2  501    0  0.97635150619E+02  0.15732962542E+03 -0.16488890189E+03  0.10498681821E+04  0.10201713660E+04 0.  0.
        -13    1    3    3    0    0  0.38332848159E+03 -0.95692294034E+01 -0.46531723828E+03  0.60295309797E+03  0.10566000000E+00 0.  1.
          4    1    3    3  501    0 -0.28569333097E+03  0.16689885482E+03  0.30042833639E+03  0.44691508411E+03  0.00000000000E+00 0.  1.
         13    1    1    2    0    0 -0.97635150619E+02 -0.15732962542E+03 -0.65127977218E+02  0.19628269983E+03  0.10566000000E+00 0. -1.
<mgrwt>
<rscale>  1 0.67401865E+03</rscale>
<asrwt>0</asrwt>
<pdfrwt beam="2">  1       21 0.11355137E+00 0.10368389E+04</pdfrwt>
<pdfrwt beam="1">  1        4 0.78164154E-01 0.10368389E+04</pdfrwt>
<totfact> 0.32793662E+01</totfact>
</mgrwt>
</event>
<event>
 6    1  0.1353269E-005  0.1024310E+04  0.7818608E-02  0.9656023E-01
         21   -1    0    0  501  502  0.00000000000E+00  0.00000000000E+00  0.87918442539E+03  0.87918442539E+03  0.00000000000E+00 0. -1.
          4   -1    0    0  502    0 -0.00000000000E+00 -0.00000000000E+00 -0.50525457849E+03  0.50525457849E+03  0.00000000000E+00 0.  1.
    9000010    2    1    2  501    0 -0.82065810086E+02 -0.26191440541E+03  0.16062233287E+03  0.10368270656E+04  0.98685200367E+03 0.  0.
        -13    1    3    3    0    0  0.68238484483E+02  0.33597205557E+03 -0.11489447986E+03  0.36157221347E+03  0.10566000000E+00 0.  1.
          4    1    3    3  501    0 -0.15030429457E+03 -0.59788646098E+03  0.27551681272E+03  0.67525485210E+03  0.00000000000E+00 0.  1.
         13    1    1    2    0    0  0.82065810086E+02  0.26191440541E+03  0.21330751403E+03  0.34761193831E+03  0.10566000000E+00 0. -1.
<mgrwt>
<rscale>  1 0.73696599E+03</rscale>
<asrwt>0</asrwt>
<pdfrwt beam="1">  1       21 0.13525914E+00 0.10243099E+04</pdfrwt>
<pdfrwt beam="2">  1        4 0.77731474E-01 0.10243099E+04</pdfrwt>
<totfact> 0.21022701E+01</totfact>
</mgrwt>
</event>
<event>
 6    1  0.1353269E-005  0.1009465E+04  0.7818608E-02  0.9969270E-01
         21   -1    0    0  501  502  0.00000000000E+00  0.00000000000E+00  0.70984828096E+03  0.70984828096E+03  0.00000000000E+00 0.  1.
          4   -1    0    0  502    0 -0.00000000000E+00 -0.00000000000E+00 -0.59507730661E+03  0.59507730661E+03  0.00000000000E+00 0.  1.
    9000010    2    1    2  501    0 -0.90017211856E+02  0.49545747876E+02  0.33361112186E+03  0.10631635126E+04  0.10042222833E+04 0.  0.
        -13    1    3    3    0    0  0.13438091985E+03 -0.16471296917E+03  0.61103736116E+03  0.64695846987E+03  0.10566000000E+00 0.  1.
          4    1    3    3  501    0 -0.22439813171E+03  0.21425871705E+03 -0.27742623931E+03  0.41620504274E+03  0.00000000000E+00 0.  1.
         13    1    1    2    0    0  0.90017211856E+02 -0.49545747876E+02 -0.21884014750E+03  0.24176207496E+03  0.10566000000E+00 0. -1.
<mgrwt>
<rscale>  1 0.57018489E+03</rscale>
<asrwt>0</asrwt>
<pdfrwt beam="1">  1       21 0.10920743E+00 0.10094653E+04</pdfrwt>
<pdfrwt beam="2">  1        4 0.91550354E-01 0.10094653E+04</pdfrwt>
<totfact> 0.25140694E+01</totfact>
</mgrwt>
</event>
<event>
 6    1  0.1353269E-005  0.1135176E+04  0.7818608E-02  0.9356749E-01
          4   -1    0    0  502    0 -0.00000000000E+00  0.00000000000E+00  0.10965938738E+04  0.10965938738E+04  0.00000000000E+00 0.  1.
         21   -1    0    0  501  502  0.00000000000E+00 -0.00000000000E+00 -0.17643696995E+04  0.17643696995E+04  0.00000000000E+00 0.  1.
    9000010    2    1    2  501    0  0.50808954150E+03 -0.26691572132E+03 -0.14807518517E+04  0.18658108139E+04  0.97940030765E+03 0.  0.
        -13    1    3    3    0    0 -0.26474115261E+03  0.83988059054E+02 -0.27134846332E+03  0.38829353801E+03  0.10566000000E+00 0.  1.
          4    1    3    3  501    0  0.77283069411E+03 -0.35090378038E+03 -0.12094033883E+04  0.14775172759E+04  0.00000000000E+00 0.  1.
         13    1    1    2    0    0 -0.50808954150E+03  0.26691572132E+03  0.81297602594E+03  0.99515275932E+03  0.10566000000E+00 0. -1.
<mgrwt>
<rscale>  1 0.95722186E+03</rscale>
<asrwt>0</asrwt>
<pdfrwt beam="2">  1       21 0.27144149E+00 0.11351757E+04</pdfrwt>
<pdfrwt beam="1">  1        4 0.16870675E+00 0.11351757E+04</pdfrwt>
<totfact> 0.32485163E-01</totfact>
</mgrwt>
</event>
<event>
 6    1  0.1353269E-005  0.1017943E+04  0.7818608E-02  0.9766010E-01
          4   -1    0    0  502    0 -0.00000000000E+00  0.00000000000E+00  0.15310613300E+04  0.15310613300E+04  0.00000000000E+00 0.  1.
         21   -1    0    0  501  502  0.00000000000E+00 -0.00000000000E+00 -0.41960274544E+03  0.41960274544E+03  0.00000000000E+00 0.  1.
    9000010    2    1    2  501    0 -0.49153630863E+02 -0.18720648891E+03  0.22393862881E+03  0.10422841814E+04  0.99937253133E+03 0.  0.
        -13    1    3    3    0    0  0.14757787011E+03  0.22023649571E+03 -0.26588503620E+03  0.37547064523E+03  0.10566000000E+00 0.  1.
          4    1    3    3  501    0 -0.19673150097E+03 -0.40744298462E+03  0.48982366502E+03  0.66681353615E+03  0.00000000000E+00 0.  1.
         13    1    1    2    0    0  0.49153630863E+02  0.18720648891E+03  0.88751995577E+03  0.90837989408E+03  0.10566000000E+00 0. -1.
<mgrwt>
<rscale>  1 0.67218987E+03</rscale>
<asrwt>0</asrwt>
<pdfrwt beam="2">  1       21 0.64554269E-01 0.10179429E+04</pdfrwt>
<pdfrwt beam="1">  1        4 0.23554789E+00 0.10179429E+04</pdfrwt>
<totfact> 0.66392409E+00</totfact>
</mgrwt>
</event>
<event>
 6    1  0.1353269E-005  0.1009350E+04  0.7818608E-02  0.9732885E-01
          4   -1    0    0  502    0 -0.00000000000E+00  0.00000000000E+00  0.37108862841E+03  0.37108862841E+03  0.00000000000E+00 0.  1.
         21   -1    0    0  501  502  0.00000000000E+00 -0.00000000000E+00 -0.13156813629E+04  0.13156813629E+04  0.00000000000E+00 0.  1.
    9000010    2    1    2  501    0 -0.18682299961E+02 -0.22082133760E+03 -0.10365869997E+04  0.14468240652E+04  0.98472136980E+03 0.  0.
        -13    1    3    3    0    0 -0.13031914745E+03  0.32365441023E+03 -0.10912357116E+03  0.36557245848E+03  0.10566000000E+00 0.  1.
          4    1    3    3  501    0  0.11163684749E+03 -0.54447574783E+03 -0.92746342856E+03  0.10812516067E+04  0.00000000000E+00 0.  1.
         13    1    1    2    0    0  0.18682299961E+02  0.22082133760E+03  0.91994265221E+02  0.23994592614E+03  0.10566000000E+00 0. -1.
<mgrwt>
<rscale>  1 0.69092161E+03</rscale>
<asrwt>0</asrwt>
<pdfrwt beam="2">  1       21 0.20241252E+00 0.10093499E+04</pdfrwt>
<pdfrwt beam="1">  1        4 0.57090558E-01 0.10093499E+04</pdfrwt>
<totfact> 0.12914919E+01</totfact>
</mgrwt>
</event>
<event>
 6    1  0.1353269E-005  0.1017934E+04  0.7818608E-02  0.9744887E-01
          4   -1    0    0  502    0 -0.00000000000E+00  0.00000000000E+00  0.97536987117E+03  0.97536987117E+03  0.00000000000E+00 0.  1.
         21   -1    0    0  501  502  0.00000000000E+00 -0.00000000000E+00 -0.39046906585E+03  0.39046906585E+03  0.00000000000E+00 0.  1.
    9000010    2    1    2  501    0 -0.13929802005E+03  0.15392144368E+03  0.42192130884E+03  0.11019107713E+04  0.99654102167E+03 0.  0.
        -13    1    3    3    0    0  0.11787733457E+03  0.38234495726E+03 -0.15594367624E+03  0.42941957765E+03  0.10566000000E+00 0.  1.
          4    1    3    3  501    0 -0.25717535462E+03 -0.22842351358E+03  0.57786498508E+03  0.67249119367E+03  0.00000000000E+00 0.  1.
         13    1    1    2    0    0  0.13929802005E+03 -0.15392144368E+03  0.16297949648E+03  0.26392816570E+03  0.10566000000E+00 0. -1.
<mgrwt>
<rscale>  1 0.68405978E+03</rscale>
<asrwt>0</asrwt>
<pdfrwt beam="2">  1       21 0.60072164E-01 0.10179341E+04</pdfrwt>
<pdfrwt beam="1">  1        4 0.15005690E+00 0.10179341E+04</pdfrwt>
<totfact> 0.29932974E+01</totfact>
</mgrwt>
</event>
<event>
 6    1  0.1353269E-005  0.1043647E+04  0.7818608E-02  0.9626278E-01
         21   -1    0    0  501  502  0.00000000000E+00  0.00000000000E+00  0.91571992300E+03  0.91571992300E+03  0.00000000000E+00 0.  1.
          4   -1    0    0  502    0 -0.00000000000E+00 -0.00000000000E+00 -0.54546878663E+03  0.54546878663E+03  0.00000000000E+00 0.  1.
    9000010    2    1    2  501    0  0.66040934842E+02 -0.27937321447E+03  0.48650328497E+03  0.11514704970E+04  0.10033882903E+04 0.  0.
        -13    1    3    3    0    0  0.19785622586E+03 -0.15476660512E+03  0.77277121101E+03  0.81257316219E+03  0.10566000000E+00 0.  1.
          4    1    3    3  501    0 -0.13181529102E+03 -0.12460660935E+03 -0.28626792604E+03  0.33889733478E+03  0.00000000000E+00 0.  1.
         13    1    1    2    0    0 -0.66040934842E+02  0.27937321447E+03 -0.11625214860E+03  0.30971821266E+03  0.10566000000E+00 0. -1.
<mgrwt>
<rscale>  1 0.75581101E+03</rscale>
<asrwt>0</asrwt>
<pdfrwt beam="1">  1       21 0.14087999E+00 0.10436469E+04</pdfrwt>
<pdfrwt beam="2">  1        4 0.83918275E-01 0.10436469E+04</pdfrwt>
<totfact> 0.15747670E+01</totfact>
</mgrwt>
</event>
<event>
 6    1  0.1353269E-005  0.1005526E+04  0.7818608E-02  0.9858022E-01
         21   -1    0    0  501  502  0.00000000000E+00  0.00000000000E+00  0.54420603683E+03  0.54420603683E+03  0.00000000000E+00 0.  1.
          4   -1    0    0  502    0 -0.00000000000E+00 -0.00000000000E+00 -0.10009182817E+04  0.10009182817E+04  0.00000000000E+00 0.  1.
    9000010    2    1    2  501    0  0.27507043612E+02 -0.14598189742E+03  0.60164652936E+02  0.10073240857E+04  0.99449217004E+03 0.  0.
        -13    1    3    3    0    0  0.43879122285E+03 -0.21129090333E+03  0.25254352274E+03  0.54859805425E+03  0.10566000000E+00 0.  1.
          4    1    3    3  501    0 -0.41128417924E+03  0.65309005912E+02 -0.19237886981E+03  0.45872603141E+03  0.00000000000E+00 0.  1.
         13    1    1    2    0    0 -0.27507043612E+02  0.14598189742E+03 -0.51687689776E+03  0.53780023282E+03  0.10566000000E+00 0. -1.
<mgrwt>
<rscale>  1 0.62339556E+03</rscale>
<asrwt>0</asrwt>
<pdfrwt beam="1">  1       21 0.83724006E-01 0.10055257E+04</pdfrwt>
<pdfrwt beam="2">  1        4 0.15398743E+00 0.10055257E+04</pdfrwt>
<totfact> 0.13028200E+01</totfact>
</mgrwt>
</event>
<event>
 6    1  0.1353269E-005  0.1041190E+04  0.7818608E-02  0.9617477E-01
         21   -1    0    0  501  502  0.00000000000E+00  0.00000000000E+00  0.18256176924E+03  0.18256176924E+03  0.00000000000E+00 0.  1.
          4   -1    0    0  502    0 -0.00000000000E+00 -0.00000000000E+00 -0.26638351367E+04  0.26638351367E+04  0.00000000000E+00 0.  1.
    9000010    2    1    2  501    0  0.28103275352E+03 -0.98865654848E+02 -0.15387360309E+04  0.18578978071E+04  0.99765818938E+03 0.  0.
        -13    1    3    3    0    0  0.25348424493E+03 -0.46660825527E+03 -0.41127173326E+03  0.67165614421E+03  0.10566000000E+00 0.  1.
          4    1    3    3  501    0  0.27548508590E+02  0.36774260043E+03 -0.11274642976E+04  0.11862416629E+04  0.00000000000E+00 0.  1.
         13    1    1    2    0    0 -0.28103275352E+03  0.98865654848E+02 -0.94253733656E+03  0.98849909876E+03  0.10566000000E+00 0. -1.
<mgrwt>
<rscale>  1 0.76150147E+03</rscale>
<asrwt>0</asrwt>
<pdfrwt beam="1">  1       21 0.28086428E-01 0.10411896E+04</pdfrwt>
<pdfrwt beam="2">  1        4 0.40982076E+00 0.10411896E+04</pdfrwt>
<totfact> 0.29454516E+00</totfact>
</mgrwt>
</event>
<event>
 6    1  0.1353269E-005  0.9988788E+03  0.7818608E-02  0.9970007E-01
          4   -1    0    0  502    0 -0.00000000000E+00  0.00000000000E+00  0.76068212960E+03  0.76068212960E+03  0.00000000000E+00 0.  1.
         21   -1    0    0  501  502  0.00000000000E+00 -0.00000000000E+00 -0.82557547538E+03  0.82557547538E+03  0.00000000000E+00 0.  1.
    9000010    2    1    2  501    0  0.10247044093E+03 -0.26355705373E+02 -0.51503969681E+03  0.11238437611E+04  0.99325932954E+03 0.  0.
        -13    1    3    3    0    0  0.41844275949E+03 -0.12148047798E+03  0.80406660138E+02  0.44307684622E+03  0.10566000000E+00 0.  1.
          4    1    3    3  501    0 -0.31597231856E+03  0.95124772610E+02 -0.59544635694E+03  0.68076691493E+03  0.00000000000E+00 0.  1.
         13    1    1    2    0    0 -0.10247044093E+03  0.26355705373E+02  0.45014635103E+03  0.46241384384E+03  0.10566000000E+00 0. -1.
<mgrwt>
<rscale>  1 0.56985160E+03</rscale>
<asrwt>0</asrwt>
<pdfrwt beam="2">  1       21 0.12701161E+00 0.99887883E+03</pdfrwt>
<pdfrwt beam="1">  1        4 0.11702802E+00 0.99887883E+03</pdfrwt>
<totfact> 0.93878289E+00</totfact>
</mgrwt>
</event>
<event>
 6    1  0.1353269E-005  0.9838183E+03  0.7818608E-02  0.9700927E-01
          4   -1    0    0  502    0 -0.00000000000E+00  0.00000000000E+00  0.51798017977E+03  0.51798017977E+03  0.00000000000E+00 0.  1.
         21   -1    0    0  501  502  0.00000000000E+00 -0.00000000000E+00 -0.78355492554E+03  0.78355492554E+03  0.00000000000E+00 0.  1.
    9000010    2    1    2  501    0 -0.12226566411E+03  0.23655805767E+03 -0.10216942785E+03  0.98910924793E+03  0.94709551001E+03 0.  0.
        -13    1    3    3    0    0  0.37222712531E+03 -0.80603456624E+02 -0.12601639488E+03  0.40116093152E+03  0.10566000000E+00 0.  1.
          4    1    3    3  501    0 -0.49449278941E+03  0.31716151430E+03  0.23846967031E+02  0.58794831641E+03  0.00000000000E+00 0.  1.
         13    1    1    2    0    0  0.12226566411E+03 -0.23655805767E+03 -0.16340531792E+03  0.31242585738E+03  0.10566000000E+00 0. -1.
<mgrwt>
<rscale>  1 0.70961635E+03</rscale>
<asrwt>0</asrwt>
<pdfrwt beam="2">  1       21 0.12054691E+00 0.98381833E+03</pdfrwt>
<pdfrwt beam="1">  1        4 0.79689258E-01 0.98381833E+03</pdfrwt>
<totfact> 0.27037105E+01</totfact>
</mgrwt>
</event>
<event>
 6    1  0.1353269E-005  0.1034901E+04  0.7818608E-02  0.9623733E-01
         21   -1    0    0  501  502  0.00000000000E+00  0.00000000000E+00  0.35814217856E+03  0.35814217856E+03  0.00000000000E+00 0.  1.
          4   -1    0    0  502    0 -0.00000000000E+00 -0.00000000000E+00 -0.13022224858E+04  0.13022224858E+04  0.00000000000E+00 0.  1.
    9000010    2    1    2  501    0  0.13982758478E+03 -0.26199756423E+03 -0.56590526905E+03  0.11795207731E+04  0.99137581342E+03 0.  0.
        -13    1    3    3    0    0  0.78846244184E+02  0.38097105374E+03 -0.21145035108E+03  0.44279446265E+03  0.10566000000E+00 0.  1.
          4    1    3    3  501    0  0.60981340593E+02 -0.64296861797E+03 -0.35445491797E+03  0.73672631042E+03  0.00000000000E+00 0.  1.
         13    1    1    2    0    0 -0.13982758478E+03  0.26199756423E+03 -0.37817503819E+03  0.48084389130E+03  0.10566000000E+00 0. -1.
<mgrwt>
<rscale>  1 0.75745066E+03</rscale>
<asrwt>0</asrwt>
<pdfrwt beam="1">  1       21 0.55098797E-01 0.10349012E+04</pdfrwt>
<pdfrwt beam="2">  1        4 0.20034192E+00 0.10349012E+04</pdfrwt>
<totfact> 0.15863004E+01</totfact>
</mgrwt>
</event>
<event>
 6    1  0.1353269E-005  0.1080651E+04  0.7818608E-02  0.9523181E-01
         21   -1    0    0  501  502  0.00000000000E+00  0.00000000000E+00  0.64188682975E+03  0.64188682975E+03  0.00000000000E+00 0.  1.
          4   -1    0    0  502    0 -0.00000000000E+00 -0.00000000000E+00 -0.12673033480E+04  0.12673033480E+04  0.00000000000E+00 0.  1.
    9000010    2    1    2  501    0  0.36581709644E+03  0.46755842451E+02  0.11025017069E+03  0.10862602018E+04  0.10157745169E+04 0.  0.
        -13    1    3    3    0    0  0.34962170870E+03  0.15657083129E+03  0.52894853138E+03  0.65309748462E+03  0.10566000000E+00 0.  1.
          4    1    3    3  501    0  0.16195387736E+02 -0.10981498884E+03 -0.41869836068E+03  0.43316271723E+03  0.00000000000E+00 0.  1.
         13    1    1    2    0    0 -0.36581709644E+03 -0.46755842451E+02 -0.73566668891E+03  0.82292997587E+03  0.10566000000E+00 0. -1.
<mgrwt>
<rscale>  1 0.82596129E+03</rscale>
<asrwt>0</asrwt>
<pdfrwt beam="1">  1       21 0.98751821E-01 0.10806508E+04</pdfrwt>
<pdfrwt beam="2">  1        4 0.19496974E+00 0.10806508E+04</pdfrwt>
<totfact> 0.44182832E+00</totfact>
</mgrwt>
</event>
<event>
 6    1  0.1353269E-005  0.1033652E+04  0.7818608E-02  0.9673113E-01
         21   -1    0    0  501  502  0.00000000000E+00  0.00000000000E+00  0.98117547483E+03  0.98117547483E+03  0.00000000000E+00 0.  1.
          4   -1    0    0  502    0 -0.00000000000E+00 -0.00000000000E+00 -0.53772944425E+03  0.53772944425E+03  0.00000000000E+00 0.  1.
    9000010    2    1    2  501    0  0.10048320086E+03  0.23122032266E+03  0.62528068015E+03  0.12080616109E+04  0.10024356416E+04 0.  0.
        -13    1    3    3    0    0 -0.36657621984E+03  0.33081713078E+02 -0.41289684038E+02  0.37037463988E+03  0.10566000000E+00 0.  1.
          4    1    3    3  501    0  0.46705942070E+03  0.19813860958E+03  0.66657036419E+03  0.83768697107E+03  0.00000000000E+00 0.  1.
         13    1    1    2    0    0 -0.10048320086E+03 -0.23122032266E+03 -0.18183464957E+03  0.31084330814E+03  0.10566000000E+00 0. -1.
<mgrwt>
<rscale>  1 0.72640459E+03</rscale>
<asrwt>0</asrwt>
<pdfrwt beam="1">  1       21 0.15095007E+00 0.10336522E+04</pdfrwt>
<pdfrwt beam="2">  1        4 0.82727607E-01 0.10336522E+04</pdfrwt>
<totfact> 0.13464365E+01</totfact>
</mgrwt>
</event>
<event>
 6    1  0.1353269E-005  0.9214304E+03  0.7818608E-02  0.1052394E+00
          4   -1    0    0  502    0 -0.00000000000E+00  0.00000000000E+00  0.29366348238E+03  0.29366348238E+03  0.00000000000E+00 0.  1.
         21   -1    0    0  501  502  0.00000000000E+00 -0.00000000000E+00 -0.78853521615E+03  0.78853521615E+03  0.00000000000E+00 0.  1.
    9000010    2    1    2  501    0 -0.78034447636E+01 -0.24348909040E+02 -0.50932479891E+03  0.10528275328E+04  0.92107562115E+03 0.  0.
        -13    1    3    3    0    0 -0.18682636124E+03  0.38572187363E+03 -0.41287302355E+03  0.59510469481E+03  0.10566000000E+00 0.  1.
          4    1    3    3  501    0  0.17902291648E+03 -0.41007078267E+03 -0.96451775361E+02  0.45772283797E+03  0.00000000000E+00 0.  1.
         13    1    1    2    0    0  0.78034447636E+01  0.24348909040E+02  0.14453065132E+02  0.29371165748E+02  0.10566000000E+00 0. -1.
<mgrwt>
<rscale>  1 0.37607581E+03</rscale>
<asrwt>0</asrwt>
<pdfrwt beam="2">  1       21 0.12131311E+00 0.92143044E+03</pdfrwt>
<pdfrwt beam="1">  1        4 0.45178997E-01 0.92143044E+03</pdfrwt>
<totfact> 0.92109843E+01</totfact>
</mgrwt>
</event>
<event>
 6    1  0.1353269E-005  0.1083869E+04  0.7818608E-02  0.9470880E-01
         21   -1    0    0  501  502  0.00000000000E+00  0.00000000000E+00  0.11238325331E+04  0.11238325331E+04  0.00000000000E+00 0.  1.
          4   -1    0    0  502    0 -0.00000000000E+00 -0.00000000000E+00 -0.52604372463E+03  0.52604372463E+03  0.00000000000E+00 0.  1.
    9000010    2    1    2  501    0 -0.14619938621E+03  0.41390942274E+03  0.52713424118E+03  0.12052558018E+04  0.99099736067E+03 0.  0.
        -13    1    3    3    0    0 -0.29125522646E+03 -0.22897249939E+03  0.15294745790E+02  0.37079907339E+03  0.10566000000E+00 0.  1.
          4    1    3    3  501    0  0.14505584025E+03  0.64288192212E+03  0.51183949539E+03  0.83445672843E+03  0.00000000000E+00 0.  1.
         13    1    1    2    0    0  0.14619938621E+03 -0.41390942274E+03  0.70654567272E+02  0.44462045589E+03  0.10566000000E+00 0. -1.
<mgrwt>
<rscale>  1 0.86465199E+03</rscale>
<asrwt>0</asrwt>
<pdfrwt beam="1">  1       21 0.17289731E+00 0.10838686E+04</pdfrwt>
<pdfrwt beam="2">  1        4 0.80929804E-01 0.10838686E+04</pdfrwt>
<totfact> 0.95334587E+00</totfact>
</mgrwt>
</event>
<event>
 6    1  0.1353269E-005  0.1371892E+04  0.7818608E-02  0.9074642E-01
          4   -1    0    0  502    0 -0.00000000000E+00  0.00000000000E+00  0.37391480427E+03  0.37391480427E+03  0.00000000000E+00 0.  1.
         21   -1    0    0  501  502  0.00000000000E+00 -0.00000000000E+00 -0.39754081392E+04  0.39754081392E+04  0.00000000000E+00 0. -1.
    9000010    2    1    2  501    0 -0.63356711873E+03  0.68008644850E+03 -0.14022560983E+04  0.19617364413E+04  0.10090405484E+04 0.  0.
        -13    1    3    3    0    0  0.26821190340E+02  0.35161512013E+02  0.14965896822E+03  0.15605616332E+03  0.10566000000E+00 0.  1.
          4    1    3    3  501    0 -0.66038830907E+03  0.64492493648E+03 -0.15519150665E+04  0.18056802779E+04  0.00000000000E+00 0.  1.
         13    1    1    2    0    0  0.63356711873E+03 -0.68008644850E+03 -0.21992372366E+04  0.23875865022E+04  0.10566000000E+00 0. -1.
<mgrwt>
<rscale>  1 0.12446565E+04</rscale>
<asrwt>0</asrwt>
<pdfrwt beam="2">  1       21 0.61160125E+00 0.13718920E+04</pdfrwt>
<pdfrwt beam="1">  1        4 0.57525355E-01 0.13718920E+04</pdfrwt>
<totfact> 0.18964215E-02</totfact>
</mgrwt>
</event>
<event>
 6    1  0.1353269E-005  0.1055138E+04  0.7818608E-02  0.9571813E-01
          4   -1    0    0  502    0 -0.00000000000E+00  0.00000000000E+00  0.88323136213E+03  0.88323136213E+03  0.00000000000E+00 0.  1.
         21   -1    0    0  501  502  0.00000000000E+00 -0.00000000000E+00 -0.97301181031E+03  0.97301181031E+03  0.00000000000E+00 0.  1.
    9000010    2    1    2  501    0 -0.27649899604E+02 -0.33363540503E+03 -0.62396280533E+03  0.12258243416E+04  0.10006191251E+04 0.  0.
        -13    1    3    3    0    0  0.14625686563E+03  0.22676718991E+03 -0.57724420111E+03  0.63720115194E+03  0.10566000000E+00 0.  1.
          4    1    3    3  501    0 -0.17390676523E+03 -0.56040259494E+03 -0.46718604220E+02  0.58862318964E+03  0.00000000000E+00 0.  1.
         13    1    1    2    0    0  0.27649899604E+02  0.33363540503E+03  0.53418235715E+03  0.63041883085E+03  0.10566000000E+00 0. -1.
<mgrwt>
<rscale>  1 0.79190210E+03</rscale>
<asrwt>0</asrwt>
<pdfrwt beam="2">  1       21 0.14969412E+00 0.10551378E+04</pdfrwt>
<pdfrwt beam="1">  1        4 0.13588175E+00 0.10551378E+04</pdfrwt>
<totfact> 0.40793597E+00</totfact>
</mgrwt>
</event>
<event>
 6    1  0.1353269E-005  0.9262130E+03  0.7818608E-02  0.9681345E-01
         21   -1    0    0  501  502  0.00000000000E+00  0.00000000000E+00  0.50579765110E+03  0.50579765110E+03  0.00000000000E+00 0.  1.
          4   -1    0    0  502    0 -0.00000000000E+00 -0.00000000000E+00 -0.84517719503E+03  0.84517719503E+03  0.00000000000E+00 0.  1.
    9000010    2    1    2  501    0  0.23365211961E+03 -0.24813315527E+03 -0.93928638436E+02  0.93096349639E+03  0.86122416754E+03 0.  0.
        -13    1    3    3    0    0  0.34831972496E+03 -0.39060137581E+03 -0.34020631576E+03  0.62420863021E+03  0.10566000000E+00 0.  1.
          4    1    3    3  501    0 -0.11466760535E+03  0.14246822054E+03  0.24627767732E+03  0.30675486618E+03  0.00000000000E+00 0.  1.
         13    1    1    2    0    0 -0.23365211961E+03  0.24813315527E+03 -0.24545090549E+03  0.42001134974E+03  0.10566000000E+00 0. -1.
<mgrwt>
<rscale>  1 0.72138448E+03</rscale>
<asrwt>0</asrwt>
<pdfrwt beam="1">  1       21 0.77815023E-01 0.92621296E+03</pdfrwt>
<pdfrwt beam="2">  1        4 0.13002726E+00 0.92621296E+03</pdfrwt>
<totfact> 0.24369067E+01</totfact>
</mgrwt>
</event>
<event>
 6    1  0.1353269E-005  0.1045011E+04  0.7818608E-02  0.9655729E-01
         21   -1    0    0  501  502  0.00000000000E+00  0.00000000000E+00  0.63189097570E+03  0.63189097570E+03  0.00000000000E+00 0.  1.
          4   -1    0    0  502    0 -0.00000000000E+00 -0.00000000000E+00 -0.93118006169E+03  0.93118006169E+03  0.00000000000E+00 0.  1.
    9000010    2    1    2  501    0 -0.19630369987E+03 -0.16855283055E+03  0.13889289951E+03  0.10542010512E+04  0.10124739105E+04 0.  0.
        -13    1    3    3    0    0 -0.53144451742E+03 -0.72620402675E+02  0.35576766879E+03  0.64364403462E+03  0.10566000000E+00 0.  1.
          4    1    3    3  501    0  0.33514081755E+03 -0.95932427875E+02 -0.21687476928E+03  0.41055701657E+03  0.00000000000E+00 0.  1.
         13    1    1    2    0    0  0.19630369987E+03  0.16855283055E+03 -0.43818198551E+03  0.50886998620E+03  0.10566000000E+00 0. -1.
<mgrwt>
<rscale>  1 0.73714968E+03</rscale>
<asrwt>0</asrwt>
<pdfrwt beam="1">  1       21 0.97213996E-01 0.10450113E+04</pdfrwt>
<pdfrwt beam="2">  1        4 0.14325847E+00 0.10450113E+04</pdfrwt>
<totfact> 0.10969959E+01</totfact>
</mgrwt>
</event>
<event>
 6    1  0.1353269E-005  0.1006977E+04  0.7818608E-02  0.1006002E+00
          4   -1    0    0  502    0 -0.00000000000E+00  0.00000000000E+00  0.96818691635E+03  0.96818691635E+03  0.00000000000E+00 0.  1.
         21   -1    0    0  501  502  0.00000000000E+00 -0.00000000000E+00 -0.43701060636E+03  0.43701060636E+03  0.00000000000E+00 0.  1.
    9000010    2    1    2  501    0  0.18773162893E+02 -0.75534321338E+02  0.15232411830E+03  0.10184329177E+04  0.10039646934E+04 0.  0.
        -13    1    3    3    0    0 -0.45701763826E+03  0.11143694414E+03 -0.40314421642E+02  0.47213194973E+03  0.10566000000E+00 0.  1.
          4    1    3    3  501    0  0.47579080116E+03 -0.18697126547E+03  0.19263853994E+03  0.54630096801E+03  0.00000000000E+00 0.  1.
         13    1    1    2    0    0 -0.18773162893E+02  0.75534321338E+02  0.37885219169E+03  0.38676460497E+03  0.10566000000E+00 0. -1.
<mgrwt>
<rscale>  1 0.53095139E+03</rscale>
<asrwt>0</asrwt>
<pdfrwt beam="2">  1       21 0.67232401E-01 0.10069771E+04</pdfrwt>
<pdfrwt beam="1">  1        4 0.14895183E+00 0.10069771E+04</pdfrwt>
<totfact> 0.23716042E+01</totfact>
</mgrwt>
</event>
<event>
 6    1  0.1353269E-005  0.1015026E+04  0.7818608E-02  0.9700521E-01
          4   -1    0    0  502    0 -0.00000000000E+00  0.00000000000E+00  0.33377387887E+03  0.33377387887E+03  0.00000000000E+00 0.  1.
         21   -1    0    0  501  502  0.00000000000E+00 -0.00000000000E+00 -0.19090283026E+04  0.19090283026E+04  0.00000000000E+00 0.  1.
    9000010    2    1    2  501    0 -0.23858831356E+03  0.45043752141E+02 -0.16922209763E+04  0.19732942808E+04  0.98555830020E+03 0.  0.
        -13    1    3    3    0    0 -0.40445599099E+02  0.24655916918E+03 -0.16713402883E+04  0.16899129093E+04  0.10566000000E+00 0.  1.
          4    1    3    3  501    0 -0.19814271446E+03 -0.20151541704E+03 -0.20880687959E+02  0.28338137153E+03  0.00000000000E+00 0.  1.
         13    1    1    2    0    0  0.23858831356E+03 -0.45043752141E+02  0.11696655251E+03  0.26950790071E+03  0.10566000000E+00 0. -1.
<mgrwt>
<rscale>  1 0.70985809E+03</rscale>
<asrwt>0</asrwt>
<pdfrwt beam="2">  1       21 0.29369666E+00 0.10150263E+04</pdfrwt>
<pdfrwt beam="1">  1        4 0.51349827E-01 0.10150263E+04</pdfrwt>
<totfact> 0.41967416E+00</totfact>
</mgrwt>
</event>
<event>
 6    1  0.1353269E-005  0.1161912E+04  0.7818608E-02  0.9328916E-01
         21   -1    0    0  501  502  0.00000000000E+00  0.00000000000E+00  0.14484440864E+04  0.14484440864E+04  0.00000000000E+00 0. -1.
          4   -1    0    0  502    0 -0.00000000000E+00 -0.00000000000E+00 -0.53602684237E+03  0.53602684237E+03  0.00000000000E+00 0.  1.
    9000010    2    1    2  501    0  0.58115374371E+03 -0.11254447868E+03  0.51141262608E+03  0.12694809650E+04  0.99981653964E+03 0.  0.
        -13    1    3    3    0    0  0.65558263261E+03  0.13935906651E+03  0.68205698022E+03  0.95624854145E+03  0.10566000000E+00 0.  1.
          4    1    3    3  501    0 -0.74428888900E+02 -0.25190354519E+03 -0.17064435414E+03  0.31323242358E+03  0.00000000000E+00 0.  1.
         13    1    1    2    0    0 -0.58115374371E+03  0.11254447868E+03  0.40100461799E+03  0.71498996379E+03  0.10566000000E+00 0. -1.
<mgrwt>
<rscale>  1 0.98163800E+03</rscale>
<asrwt>0</asrwt>
<pdfrwt beam="1">  1       21 0.22283755E+00 0.11619118E+04</pdfrwt>
<pdfrwt beam="2">  1        4 0.82465669E-01 0.11619118E+04</pdfrwt>
<totfact> 0.40560516E+00</totfact>
</mgrwt>
</event>
<event>
 6    1  0.1353269E-005  0.1008341E+04  0.7818608E-02  0.9775394E-01
          4   -1    0    0  502    0 -0.00000000000E+00  0.00000000000E+00  0.56941289528E+03  0.56941289528E+03  0.00000000000E+00 0.  1.
         21   -1    0    0  501  502  0.00000000000E+00 -0.00000000000E+00 -0.12216922865E+04  0.12216922865E+04  0.00000000000E+00 0.  1.
    9000010    2    1    2  501    0 -0.64357380985E+02 -0.18201151578E+03 -0.98297225016E+03  0.14081850302E+04  0.98968710724E+03 0.  0.
        -13    1    3    3    0    0  0.16896198837E+03  0.34919786685E+03 -0.59477934218E+03  0.71010547158E+03  0.10566000000E+00 0.  1.
          4    1    3    3  501    0 -0.23331936936E+03 -0.53120938263E+03 -0.38819290798E+03  0.69807955858E+03  0.00000000000E+00 0.  1.
         13    1    1    2    0    0  0.64357380985E+02  0.18201151578E+03  0.33069285896E+03  0.38292015159E+03  0.10566000000E+00 0. -1.
<mgrwt>
<rscale>  1 0.66699942E+03</rscale>
<asrwt>0</asrwt>
<pdfrwt beam="2">  1       21 0.18795266E+00 0.10083405E+04</pdfrwt>
<pdfrwt beam="1">  1        4 0.87601985E-01 0.10083405E+04</pdfrwt>
<totfact> 0.62261286E+00</totfact>
</mgrwt>
</event>
<event>
 6    1  0.1353269E-005  0.1146944E+04  0.7818608E-02  0.9347635E-01
          4   -1    0    0  502    0 -0.00000000000E+00  0.00000000000E+00  0.40582794364E+03  0.40582794364E+03  0.00000000000E+00 0.  1.
         21   -1    0    0  501  502  0.00000000000E+00 -0.00000000000E+00 -0.18304310983E+04  0.18304310983E+04  0.00000000000E+00 0.  1.
    9000010    2    1    2  501    0  0.55474279700E+03  0.15154918482E+03 -0.99586792948E+03  0.15189581074E+04  0.99235783504E+03 0.  0.
        -13    1    3    3    0    0 -0.22612354452E+03  0.22661365694E+03 -0.49074804250E+03  0.58593451791E+03  0.10566000000E+00 0.  1.
          4    1    3    3  501    0  0.78086634152E+03 -0.75064472117E+02 -0.50511988699E+03  0.93302358947E+03  0.00000000000E+00 0.  1.
         13    1    1    2    0    0 -0.55474279700E+03 -0.15154918482E+03 -0.42873522515E+03  0.71730093454E+03  0.10566000000E+00 0. -1.
<mgrwt>
<rscale>  1 0.96513279E+03</rscale>
<asrwt>0</asrwt>
<pdfrwt beam="2">  1       21 0.28160478E+00 0.11469441E+04</pdfrwt>
<pdfrwt beam="1">  1        4 0.62435068E-01 0.11469441E+04</pdfrwt>
<totfact> 0.32042612E+00</totfact>
</mgrwt>
</event>
<event>
 6    1  0.1353269E-005  0.1156105E+04  0.7818608E-02  0.9300547E-01
          4   -1    0    0  502    0 -0.00000000000E+00  0.00000000000E+00  0.57898825439E+03  0.57898825439E+03  0.00000000000E+00 0.  1.
         21   -1    0    0  501  502  0.00000000000E+00 -0.00000000000E+00 -0.15191842036E+04  0.15191842036E+04  0.00000000000E+00 0.  1.
    9000010    2    1    2  501    0  0.55041505839E+03  0.37554301578E+03 -0.82905342737E+03  0.14226415819E+04  0.94476991488E+03 0.  0.
        -13    1    3    3    0    0  0.24715195121E+03 -0.54684972244E+02  0.16196299460E+03  0.30051049226E+03  0.10566000000E+00 0.  1.
          4    1    3    3  501    0  0.30326310718E+03  0.43022798802E+03 -0.99101642196E+03  0.11221310897E+04  0.00000000000E+00 0.  1.
         13    1    1    2    0    0 -0.55041505839E+03 -0.37554301578E+03 -0.11114252188E+03  0.67553087608E+03  0.10566000000E+00 0. -1.
<mgrwt>
<rscale>  1 0.10073250E+04</rscale>
<asrwt>0</asrwt>
<pdfrwt beam="2">  1       21 0.23372064E+00 0.11561053E+04</pdfrwt>
<pdfrwt beam="1">  1        4 0.89075117E-01 0.11561053E+04</pdfrwt>
<totfact> 0.28768071E+00</totfact>
</mgrwt>
</event>
<event>
 6    1  0.1353269E-005  0.9755515E+03  0.7818608E-02  0.1018774E+00
          4   -1    0    0  502    0 -0.00000000000E+00  0.00000000000E+00  0.56635026469E+03  0.56635026469E+03  0.00000000000E+00 0.  1.
         21   -1    0    0  501  502  0.00000000000E+00 -0.00000000000E+00 -0.78216652214E+03  0.78216652214E+03  0.00000000000E+00 0.  1.
    9000010    2    1    2  501    0  0.40293461427E+02 -0.41448304239E+02 -0.47352707917E+03  0.10844024106E+04  0.97383734183E+03 0.  0.
        -13    1    3    3    0    0 -0.81613753369E+02 -0.42164949219E+03 -0.52890329181E+03  0.68131329229E+03  0.10566000000E+00 0.  1.
          4    1    3    3  501    0  0.12190721480E+03  0.38020118795E+03  0.55376212642E+02  0.40308911826E+03  0.00000000000E+00 0.  1.
         13    1    1    2    0    0 -0.40293461427E+02  0.41448304239E+02  0.25771082173E+03  0.26411437628E+03  0.10566000000E+00 0. -1.
<mgrwt>
<rscale>  1 0.48131668E+03</rscale>
<asrwt>0</asrwt>
<pdfrwt beam="2">  1       21 0.12033331E+00 0.97555148E+03</pdfrwt>
<pdfrwt beam="1">  1        4 0.87130810E-01 0.97555148E+03</pdfrwt>
<totfact> 0.22108918E+01</totfact>
</mgrwt>
</event>
<event>
 6    1  0.1353269E-005  0.1383787E+04  0.7818608E-02  0.9061342E-01
         21   -1    0    0  501  502  0.00000000000E+00  0.00000000000E+00  0.11857653594E+04  0.11857653594E+04  0.00000000000E+00 0. -1.
          4   -1    0    0  502    0 -0.00000000000E+00 -0.00000000000E+00 -0.13433415955E+04  0.13433415955E+04  0.00000000000E+00 0.  1.
    9000010    2    1    2  501    0 -0.92101608562E+03 -0.24582479280E+03 -0.56206697380E+03  0.14935813749E+04  0.10030780536E+04 0.  0.
        -13    1    3    3    0    0 -0.10150443559E+04 -0.31298789539E+03 -0.15870465723E+03  0.10739942488E+04  0.10566000000E+00 0.  1.
          4    1    3    3  501    0  0.94028270242E+02  0.67163102588E+02 -0.40336231657E+03  0.41958712610E+03  0.00000000000E+00 0.  1.
         13    1    1    2    0    0  0.92101608562E+03  0.24582479280E+03  0.40449073775E+03  0.10355255800E+04  0.10566000000E+00 0. -1.
<mgrwt>
<rscale>  1 0.12606791E+04</rscale>
<asrwt>0</asrwt>
<pdfrwt beam="1">  1       21 0.18242544E+00 0.13837868E+04</pdfrwt>
<pdfrwt beam="2">  1        4 0.20666794E+00 0.13837868E+04</pdfrwt>
<totfact> 0.66917917E-01</totfact>
</mgrwt>
</event>
<event>
 6    1  0.1353269E-005  0.9450297E+03  0.7818608E-02  0.1020296E+00
          4   -1    0    0  502    0 -0.00000000000E+00  0.00000000000E+00  0.13246932109E+04  0.13246932109E+04  0.00000000000E+00 0.  1.
         21   -1    0    0  501  502  0.00000000000E+00 -0.00000000000E+00 -0.19144242064E+03  0.19144242064E+03  0.00000000000E+00 0.  1.
    9000010    2    1    2  501    0  0.88583272388E+01  0.60074437853E+02  0.10441220822E+04  0.14082869143E+04  0.94307672140E+03 0.  0.
        -13    1    3    3    0    0  0.20851217548E+03  0.43176294702E+03  0.34128236320E+03  0.58853226958E+03  0.10566000000E+00 0.  1.
          4    1    3    3  501    0 -0.19965384824E+03 -0.37168850916E+03  0.70283971898E+03  0.81975464472E+03  0.00000000000E+00 0.  1.
         13    1    1    2    0    0 -0.88583272388E+01 -0.60074437853E+02  0.89128708098E+02  0.10784871727E+03  0.10566000000E+00 0. -1.
<mgrwt>
<rscale>  1 0.47579996E+03</rscale>
<asrwt>0</asrwt>
<pdfrwt beam="2">  1       21 0.29452681E-01 0.94502969E+03</pdfrwt>
<pdfrwt beam="1">  1        4 0.20379895E+00 0.94502969E+03</pdfrwt>
<totfact> 0.56501630E+01</totfact>
</mgrwt>
</event>
<event>
 6    1  0.1353269E-005  0.1155902E+04  0.7818608E-02  0.9368515E-01
          4   -1    0    0  502    0 -0.00000000000E+00  0.00000000000E+00  0.90621842298E+03  0.90621842298E+03  0.00000000000E+00 0.  1.
         21   -1    0    0  501  502  0.00000000000E+00 -0.00000000000E+00 -0.11205168670E+04  0.11205168670E+04  0.00000000000E+00 0.  1.
    9000010    2    1    2  501    0 -0.41793344357E+03  0.31114662539E+03 -0.66869734551E+03  0.13353895309E+04  0.10318083511E+04 0.  0.
        -13    1    3    3    0    0  0.26024152655E+03  0.35068358897E+03 -0.43658342364E+03  0.61750281674E+03  0.10566000000E+00 0.  1.
          4    1    3    3  501    0 -0.67817497012E+03 -0.39536963574E+02 -0.23211392187E+03  0.71788671412E+03  0.00000000000E+00 0.  1.
         13    1    1    2    0    0  0.41793344357E+03 -0.31114662539E+03  0.45439890152E+03  0.69134575909E+03  0.10566000000E+00 0. -1.
<mgrwt>
<rscale>  1 0.94712667E+03</rscale>
<asrwt>0</asrwt>
<pdfrwt beam="2">  1       21 0.17238721E+00 0.11559018E+04</pdfrwt>
<pdfrwt beam="1">  1        4 0.13941822E+00 0.11559018E+04</pdfrwt>
<totfact> 0.25095452E+00</totfact>
</mgrwt>
</event>
<event>
 6    1  0.1353269E-005  0.1023150E+04  0.7818608E-02  0.9750099E-01
         21   -1    0    0  501  502  0.00000000000E+00  0.00000000000E+00  0.36012115243E+03  0.36012115243E+03  0.00000000000E+00 0.  1.
          4   -1    0    0  502    0 -0.00000000000E+00 -0.00000000000E+00 -0.15021433466E+04  0.15021433466E+04  0.00000000000E+00 0.  1.
    9000010    2    1    2  501    0  0.16378446932E+03 -0.11639208273E+03 -0.40843902116E+03  0.11016616117E+04  0.10032264966E+04 0.  0.
        -13    1    3    3    0    0 -0.25937698445E+03  0.11823709708E+03 -0.53086635846E+03  0.60255749344E+03  0.10566000000E+00 0.  1.
          4    1    3    3  501    0  0.42316145377E+03 -0.23462917980E+03  0.12242733730E+03  0.49910411828E+03  0.00000000000E+00 0.  1.
         13    1    1    2    0    0 -0.16378446932E+03  0.11639208273E+03 -0.73358317300E+03  0.76060288731E+03  0.10566000000E+00 0. -1.
<mgrwt>
<rscale>  1 0.68110670E+03</rscale>
<asrwt>0</asrwt>
<pdfrwt beam="1">  1       21 0.55403253E-01 0.10231500E+04</pdfrwt>
<pdfrwt beam="2">  1        4 0.23109898E+00 0.10231500E+04</pdfrwt>
<totfact> 0.99481009E+00</totfact>
</mgrwt>
</event>
<event>
 6    1  0.1353269E-005  0.8873385E+03  0.7818608E-02  0.9979891E-01
          4   -1    0    0  502    0 -0.00000000000E+00  0.00000000000E+00  0.54951129884E+03  0.54951129884E+03  0.00000000000E+00 0.  1.
         21   -1    0    0  501  502  0.00000000000E+00 -0.00000000000E+00 -0.49151255800E+03  0.49151255800E+03  0.00000000000E+00 0.  1.
    9000010    2    1    2  501    0 -0.10679535533E+03 -0.99961036659E+02  0.88029225434E+02  0.89169436231E+03  0.87519839720E+03 0.  0.
        -13    1    3    3    0    0 -0.28089794169E+03 -0.79222629802E+02 -0.32870632824E+03  0.43957677385E+03  0.10566000000E+00 0.  1.
          4    1    3    3  501    0  0.17410258636E+03 -0.20738406856E+02  0.41673555368E+03  0.45211758846E+03  0.00000000000E+00 0.  1.
         13    1    1    2    0    0  0.10679535533E+03  0.99961036659E+02 -0.30030484597E+02  0.14932949454E+03  0.10566000000E+00 0. -1.
<mgrwt>
<rscale>  1 0.56540854E+03</rscale>
<asrwt>0</asrwt>
<pdfrwt beam="2">  1       21 0.75617317E-01 0.88733854E+03</pdfrwt>
<pdfrwt beam="1">  1        4 0.84540199E-01 0.88733854E+03</pdfrwt>
<totfact> 0.74559295E+01</totfact>
</mgrwt>
</event>
<event>
 6    1  0.1353269E-005  0.1069094E+04  0.7818608E-02  0.9534570E-01
         21   -1    0    0  501  502  0.00000000000E+00  0.00000000000E+00  0.54178750944E+03  0.54178750944E+03  0.00000000000E+00 0. -1.
          4   -1    0    0  502    0 -0.00000000000E+00 -0.00000000000E+00 -0.11363819362E+04  0.11363819362E+04  0.00000000000E+00 0.  1.
    9000010    2    1    2  501    0 -0.13501396489E+03 -0.34028641872E+03 -0.72254445527E+03  0.12903617118E+04  0.10044596756E+04 0.  0.
        -13    1    3    3    0    0 -0.52523920012E+03 -0.41459752634E+03 -0.49726399640E+03  0.83368988207E+03  0.10566000000E+00 0.  1.
          4    1    3    3  501    0  0.39022523522E+03  0.74311107620E+02 -0.22528045887E+03  0.45667182973E+03  0.00000000000E+00 0.  1.
         13    1    1    2    0    0  0.13501396489E+03  0.34028641872E+03  0.12795002850E+03  0.38780773385E+03  0.10566000000E+00 0. -1.
<mgrwt>
<rscale>  1 0.81782385E+03</rscale>
<asrwt>0</asrwt>
<pdfrwt beam="1">  1       21 0.83351926E-01 0.10690944E+04</pdfrwt>
<pdfrwt beam="2">  1        4 0.17482799E+00 0.10690944E+04</pdfrwt>
<totfact> 0.91858855E+00</totfact>
</mgrwt>
</event>
<event>
 6    1  0.1353269E-005  0.1061976E+04  0.7818608E-02  0.9619066E-01
         21   -1    0    0  501  502  0.00000000000E+00  0.00000000000E+00  0.77762552203E+03  0.77762552203E+03  0.00000000000E+00 0.  1.
          4   -1    0    0  502    0 -0.00000000000E+00 -0.00000000000E+00 -0.70988656986E+03  0.70988656986E+03  0.00000000000E+00 0.  1.
    9000010    2    1    2  501    0 -0.22526541190E+03 -0.16502382240E+03 -0.22219423984E+03  0.10849718644E+04  0.10246054356E+04 0.  0.
        -13    1    3    3    0    0  0.16642385947E+03  0.28943100489E+03 -0.33671973654E+03  0.47418076694E+03  0.10566000000E+00 0.  1.
          4    1    3    3  501    0 -0.39168927137E+03 -0.45445482728E+03  0.11452549670E+03  0.61079109747E+03  0.00000000000E+00 0.  1.
         13    1    1    2    0    0  0.22526541190E+03  0.16502382240E+03  0.28993319200E+03  0.40254022749E+03  0.10566000000E+00 0. -1.
<mgrwt>
<rscale>  1 0.76047029E+03</rscale>
<asrwt>0</asrwt>
<pdfrwt beam="1">  1       21 0.11963470E+00 0.10619763E+04</pdfrwt>
<pdfrwt beam="2">  1        4 0.10921332E+00 0.10619763E+04</pdfrwt>
<totfact> 0.12940331E+01</totfact>
</mgrwt>
</event>
<event>
 6    1  0.1353269E-005  0.1069739E+04  0.7818608E-02  0.9537411E-01
          4   -1    0    0  502    0 -0.00000000000E+00  0.00000000000E+00  0.70356840979E+03  0.70356840979E+03  0.00000000000E+00 0.  1.
         21   -1    0    0  501  502  0.00000000000E+00 -0.00000000000E+00 -0.73535257359E+03  0.73535257359E+03  0.00000000000E+00 0. -1.
    9000010    2    1    2  501    0  0.24102574633E+03 -0.26988480967E+03  0.37980520616E+02  0.10704127159E+04  0.10066824929E+04 0.  0.
        -13    1    3    3    0    0 -0.36240466670E+03 -0.74684460676E+02 -0.16410430168E+03  0.40477789479E+03  0.10566000000E+00 0.  1.
          4    1    3    3  501    0  0.60343041303E+03 -0.19520034899E+03  0.20208482230E+03  0.66563482107E+03  0.00000000000E+00 0.  1.
         13    1    1    2    0    0 -0.24102574633E+03  0.26988480967E+03 -0.69764684417E+02  0.36850826753E+03  0.10566000000E+00 0. -1.
<mgrwt>
<rscale>  1 0.81580946E+03</rscale>
<asrwt>0</asrwt>
<pdfrwt beam="2">  1       21 0.11313117E+00 0.10697387E+04</pdfrwt>
<pdfrwt beam="1">  1        4 0.10824129E+00 0.10697387E+04</pdfrwt>
<totfact> 0.15258922E+01</totfact>
</mgrwt>
</event>
<event>
 6    1  0.1969699E-005  0.8299934E+03  0.7818608E-02  0.9904047E-01
          4   -1    0    0  502    0 -0.00000000000E+00  0.00000000000E+00  0.24645963415E+03  0.24645963415E+03  0.00000000000E+00 0.  1.
         21   -1    0    0  501  502  0.00000000000E+00 -0.00000000000E+00 -0.11353537174E+04  0.11353537174E+04  0.00000000000E+00 0.  1.
    9000010    2    1    2  501    0 -0.19829000076E+03 -0.11183878302E+03 -0.68367431871E+03  0.10753137582E+04  0.79816180491E+03 0.  0.
        -13    1    3    3    0    0 -0.21504317902E+03 -0.28256618032E+03  0.15476372012E+02  0.35542473797E+03  0.10566000000E+00 0.  1.
          4    1    3    3  501    0  0.16753178264E+02  0.17072739730E+03 -0.69915069072E+03  0.71988902027E+03  0.00000000000E+00 0.  1.
         13    1    1    2    0    0  0.19829000076E+03  0.11183878302E+03 -0.20521976459E+03  0.30649959336E+03  0.10566000000E+00 0. -1.
<mgrwt>
<rscale>  1 0.60065542E+03</rscale>
<asrwt>0</asrwt>
<pdfrwt beam="2">  1       21 0.17466980E+00 0.82999344E+03</pdfrwt>
<pdfrwt beam="1">  1        4 0.37916866E-01 0.82999344E+03</pdfrwt>
<totfact> 0.48721742E+01</totfact>
</mgrwt>
</event>
<event>
 6    1  0.1353269E-005  0.1035803E+04  0.7818608E-02  0.9700437E-01
          4   -1    0    0  502    0 -0.00000000000E+00  0.00000000000E+00  0.13672338036E+04  0.13672338036E+04  0.00000000000E+00 0.  1.
         21   -1    0    0  501  502  0.00000000000E+00 -0.00000000000E+00 -0.36238701093E+03  0.36238701093E+03  0.00000000000E+00 0. -1.
    9000010    2    1    2  501    0 -0.11337468420E+02  0.22826570835E+03  0.10727489274E+04  0.14912000040E+04  0.10102739327E+04 0.  0.
        -13    1    3    3    0    0  0.14317208502E+03 -0.36400136961E+03  0.60678520565E+03  0.72193042599E+03  0.10566000000E+00 0.  1.
          4    1    3    3  501    0 -0.15450955344E+03  0.59226707796E+03  0.46596372171E+03  0.76926957803E+03  0.00000000000E+00 0.  1.
         13    1    1    2    0    0  0.11337468420E+02 -0.22826570835E+03 -0.67902134731E+02  0.23842081047E+03  0.10566000000E+00 0. -1.
<mgrwt>
<rscale>  1 0.70990750E+03</rscale>
<asrwt>0</asrwt>
<pdfrwt beam="2">  1       21 0.55751849E-01 0.10358027E+04</pdfrwt>
<pdfrwt beam="1">  1        4 0.21034366E+00 0.10358027E+04</pdfrwt>
<totfact> 0.13292176E+01</totfact>
</mgrwt>
</event>
<event>
 6    1  0.1353269E-005  0.1178735E+04  0.7818608E-02  0.9314714E-01
          4   -1    0    0  502    0 -0.00000000000E+00  0.00000000000E+00  0.10240845720E+04  0.10240845720E+04  0.00000000000E+00 0.  1.
         21   -1    0    0  501  502  0.00000000000E+00 -0.00000000000E+00 -0.11074470803E+04  0.11074470803E+04  0.00000000000E+00 0.  1.
    9000010    2    1    2  501    0 -0.52401223710E+03  0.28607671878E+03 -0.61729252613E+03  0.13305884653E+04  0.10163596251E+04 0.  0.
        -13    1    3    3    0    0 -0.59111478021E+03 -0.19056747174E+03 -0.10902901261E+03  0.63057115492E+03  0.10566000000E+00 0.  1.
          4    1    3    3  501    0  0.67102543103E+02  0.47664419052E+03 -0.50826351352E+03  0.70001731038E+03  0.00000000000E+00 0.  1.
         13    1    1    2    0    0  0.52401223710E+03 -0.28607671878E+03  0.53393001789E+03  0.80094318702E+03  0.10566000000E+00 0. -1.
<mgrwt>
<rscale>  1 0.99439436E+03</rscale>
<asrwt>0</asrwt>
<pdfrwt beam="2">  1       21 0.17037647E+00 0.11787347E+04</pdfrwt>
<pdfrwt beam="1">  1        4 0.15755147E+00 0.11787347E+04</pdfrwt>
<totfact> 0.18648491E+00</totfact>
</mgrwt>
</event>
<event>
 6    1  0.1353269E-005  0.1022539E+04  0.7818608E-02  0.9754352E-01
          4   -1    0    0  502    0 -0.00000000000E+00  0.00000000000E+00  0.85134659197E+03  0.85134659197E+03  0.00000000000E+00 0.  1.
         21   -1    0    0  501  502  0.00000000000E+00 -0.00000000000E+00 -0.74173385555E+03  0.74173385555E+03  0.00000000000E+00 0.  1.
    9000010    2    1    2  501    0 -0.19005245717E+03 -0.57186001381E+02 -0.35935379356E+03  0.10838459312E+04  0.10030935541E+04 0.  0.
        -13    1    3    3    0    0  0.36467274513E+03 -0.20621291788E+03 -0.28024105462E+03  0.50402880711E+03  0.10566000000E+00 0.  1.
          4    1    3    3  501    0 -0.55472520230E+03  0.14902691650E+03 -0.79112738945E+02  0.57981712407E+03  0.00000000000E+00 0.  1.
         13    1    1    2    0    0  0.19005245717E+03  0.57186001381E+02  0.46896652998E+03  0.50923451634E+03  0.10566000000E+00 0. -1.
<mgrwt>
<rscale>  1 0.67870890E+03</rscale>
<asrwt>0</asrwt>
<pdfrwt beam="2">  1       21 0.11411290E+00 0.10225394E+04</pdfrwt>
<pdfrwt beam="1">  1        4 0.13097640E+00 0.10225394E+04</pdfrwt>
<totfact> 0.92912691E+00</totfact>
</mgrwt>
</event>
<event>
 6    1  0.1353269E-005  0.1030033E+04  0.7818608E-02  0.9683426E-01
          4   -1    0    0  502    0 -0.00000000000E+00  0.00000000000E+00  0.45922649389E+03  0.45922649389E+03  0.00000000000E+00 0.  1.
         21   -1    0    0  501  502  0.00000000000E+00 -0.00000000000E+00 -0.11863161293E+04  0.11863161293E+04  0.00000000000E+00 0.  1.
    9000010    2    1    2  501    0 -0.21297392091E+03 -0.12327278707E+03 -0.88090689165E+03  0.13553464300E+04  0.10002064400E+04 0.  0.
        -13    1    3    3    0    0 -0.59360630738E+03 -0.46103037004E+02 -0.72171573098E+03  0.93561078750E+03  0.10566000000E+00 0.  1.
          4    1    3    3  501    0  0.38063238647E+03 -0.77169750068E+02 -0.15919116067E+03  0.41973564251E+03  0.00000000000E+00 0.  1.
         13    1    1    2    0    0  0.21297392091E+03  0.12327278707E+03  0.15381725628E+03  0.29019619314E+03  0.10566000000E+00 0. -1.
<mgrwt>
<rscale>  1 0.72012209E+03</rscale>
<asrwt>0</asrwt>
<pdfrwt beam="2">  1       21 0.18251017E+00 0.10300325E+04</pdfrwt>
<pdfrwt beam="1">  1        4 0.70650230E-01 0.10300325E+04</pdfrwt>
<totfact> 0.11113440E+01</totfact>
</mgrwt>
</event>
<event>
 6    1  0.1353269E-005  0.1024150E+04  0.7818608E-02  0.9627355E-01
         21   -1    0    0  501  502  0.00000000000E+00  0.00000000000E+00  0.32441160028E+03  0.32441160028E+03  0.00000000000E+00 0. -1.
          4   -1    0    0  502    0 -0.00000000000E+00 -0.00000000000E+00 -0.13591117400E+04  0.13591117400E+04  0.00000000000E+00 0.  1.
    9000010    2    1    2  501    0  0.20822388886E+03 -0.21966242171E+03 -0.76807149206E+03  0.12801629377E+04  0.97840408976E+03 0.  0.
        -13    1    3    3    0    0  0.44294444069E+03 -0.17837644194E+03 -0.16215944055E+01  0.47751499799E+03  0.10566000000E+00 0.  1.
          4    1    3    3  501    0 -0.23472055183E+03 -0.41285979774E+02 -0.76644989765E+03  0.80264793975E+03  0.00000000000E+00 0.  1.
         13    1    1    2    0    0 -0.20822388886E+03  0.21966242171E+03 -0.26662864762E+03  0.40336040250E+03  0.10566000000E+00 0. -1.
<mgrwt>
<rscale>  1 0.75511801E+03</rscale>
<asrwt>0</asrwt>
<pdfrwt beam="1">  1       21 0.49909478E-01 0.10241501E+04</pdfrwt>
<pdfrwt beam="2">  1        4 0.20909411E+00 0.10241501E+04</pdfrwt>
<totfact> 0.17263288E+01</totfact>
</mgrwt>
</event>
<event>
 6    1  0.1353269E-005  0.1006848E+04  0.7818608E-02  0.9716966E-01
          4   -1    0    0  502    0 -0.00000000000E+00  0.00000000000E+00  0.10435885576E+04  0.10435885576E+04  0.00000000000E+00 0.  1.
         21   -1    0    0  501  502  0.00000000000E+00 -0.00000000000E+00 -0.40086058216E+03  0.40086058216E+03  0.00000000000E+00 0.  1.
    9000010    2    1    2  501    0 -0.15767637424E+02  0.23491480475E+03  0.34378522042E+03  0.10639227073E+04  0.97893292180E+03 0.  0.
        -13    1    3    3    0    0  0.45228051845E+03 -0.52712423037E+02  0.12132708102E+03  0.47122875407E+03  0.10566000000E+00 0.  1.
          4    1    3    3  501    0 -0.46804815587E+03  0.28762722778E+03  0.22245813939E+03  0.59269395320E+03  0.00000000000E+00 0.  1.
         13    1    1    2    0    0  0.15767637424E+02 -0.23491480475E+03  0.29894275505E+03  0.38052643251E+03  0.10566000000E+00 0. -1.
<mgrwt>
<rscale>  1 0.70015569E+03</rscale>
<asrwt>0</asrwt>
<pdfrwt beam="2">  1       21 0.61670859E-01 0.10068482E+04</pdfrwt>
<pdfrwt beam="1">  1        4 0.16055208E+00 0.10068482E+04</pdfrwt>
<totfact> 0.23507683E+01</totfact>
</mgrwt>
</event>
<event>
 6    1  0.1353269E-005  0.1154337E+04  0.7818608E-02  0.9347820E-01
          4   -1    0    0  502    0 -0.00000000000E+00  0.00000000000E+00  0.71873227083E+03  0.71873227083E+03  0.00000000000E+00 0.  1.
         21   -1    0    0  501  502  0.00000000000E+00 -0.00000000000E+00 -0.10439915768E+04  0.10439915768E+04  0.00000000000E+00 0.  1.
    9000010    2    1    2  501    0 -0.22272813466E+03  0.51784856097E+03 -0.32422890911E+03  0.11990075830E+04  0.10073330356E+04 0.  0.
        -13    1    3    3    0    0 -0.53212181979E+03  0.49900936580E+03  0.27719868900E+02  0.73002217812E+03  0.10566000000E+00 0.  1.
          4    1    3    3  501    0  0.30939368514E+03  0.18839195177E+02 -0.35194877801E+03  0.46898540491E+03  0.00000000000E+00 0.  1.
         13    1    1    2    0    0  0.22272813466E+03 -0.51784856097E+03 -0.10303968416E+01  0.56371626458E+03  0.10566000000E+00 0. -1.
<mgrwt>
<rscale>  1 0.96497160E+03</rscale>
<asrwt>0</asrwt>
<pdfrwt beam="2">  1       21 0.16061409E+00 0.11543374E+04</pdfrwt>
<pdfrwt beam="1">  1        4 0.11057420E+00 0.11543374E+04</pdfrwt>
<totfact> 0.55658747E+00</totfact>
</mgrwt>
</event>
<event>
 6    1  0.1353269E-005  0.1109368E+04  0.7818608E-02  0.9518998E-01
         21   -1    0    0  501  502  0.00000000000E+00  0.00000000000E+00  0.13674863951E+04  0.13674863951E+04  0.00000000000E+00 0.  1.
          4   -1    0    0  502    0 -0.00000000000E+00 -0.00000000000E+00 -0.39074455073E+03  0.39074455073E+03  0.00000000000E+00 0.  1.
    9000010    2    1    2  501    0 -0.32973820274E+03  0.10446730507E+03  0.81398280822E+03  0.13759598180E+04  0.10540667476E+04 0.  0.
        -13    1    3    3    0    0 -0.45286794331E+03  0.43362445017E+03  0.18206218217E+03  0.65289063954E+03  0.10566000000E+00 0.  1.
          4    1    3    3  501    0  0.12312974057E+03 -0.32915714510E+03  0.63192062605E+03  0.72306917844E+03  0.00000000000E+00 0.  1.
         13    1    1    2    0    0  0.32973820274E+03 -0.10446730507E+03  0.16275903613E+03  0.38227112784E+03  0.10566000000E+00 0. -1.
<mgrwt>
<rscale>  1 0.82897533E+03</rscale>
<asrwt>0</asrwt>
<pdfrwt beam="1">  1       21 0.21038252E+00 0.11093680E+04</pdfrwt>
<pdfrwt beam="2">  1        4 0.60114547E-01 0.11093680E+04</pdfrwt>
<totfact> 0.10065062E+01</totfact>
</mgrwt>
</event>
<event>
 6    1  0.1353269E-005  0.1000259E+04  0.7818608E-02  0.1011044E+00
          4   -1    0    0  502    0 -0.00000000000E+00  0.00000000000E+00  0.41964800113E+03  0.41964800113E+03  0.00000000000E+00 0.  1.
         21   -1    0    0  501  502  0.00000000000E+00 -0.00000000000E+00 -0.75152636300E+03  0.75152636300E+03  0.00000000000E+00 0.  1.
    9000010    2    1    2  501    0  0.11655762307E+02  0.66919722433E+02 -0.39785617794E+03  0.10764791191E+04  0.99794972298E+03 0.  0.
        -13    1    3    3    0    0  0.32278470899E+03 -0.63114078348E+02  0.20369133401E+03  0.38686370463E+03  0.10566000000E+00 0.  1.
          4    1    3    3  501    0 -0.31112894668E+03  0.13003380078E+03 -0.60154751195E+03  0.68961541452E+03  0.00000000000E+00 0.  1.
         13    1    1    2    0    0 -0.11655762307E+02 -0.66919722433E+02  0.65977816066E+02  0.94695244983E+02  0.10566000000E+00 0. -1.
<mgrwt>
<rscale>  1 0.51061713E+03</rscale>
<asrwt>0</asrwt>
<pdfrwt beam="2">  1       21 0.11561944E+00 0.10002588E+04</pdfrwt>
<pdfrwt beam="1">  1        4 0.64561232E-01 0.10002588E+04</pdfrwt>
<totfact> 0.48277287E+01</totfact>
</mgrwt>
</event>
<event>
 6    1  0.1353269E-005  0.1009626E+04  0.7818608E-02  0.9850430E-01
         21   -1    0    0  501  502  0.00000000000E+00  0.00000000000E+00  0.74302993591E+03  0.74302993591E+03  0.00000000000E+00 0.  1.
          4   -1    0    0  502    0 -0.00000000000E+00 -0.00000000000E+00 -0.46244073858E+03  0.46244073858E+03  0.00000000000E+00 0.  1.
    9000010    2    1    2  501    0 -0.35012962520E+02  0.14627953699E+03  0.18273471106E+03  0.10260295361E+04  0.99835916578E+03 0.  0.
        -13    1    3    3    0    0  0.41372761520E+03 -0.75138187576E+02 -0.12487721525E+03  0.43864634600E+03  0.10566000000E+00 0.  1.
          4    1    3    3  501    0 -0.44874057772E+03  0.22141772457E+03  0.30761192631E+03  0.58738319013E+03  0.00000000000E+00 0.  1.
         13    1    1    2    0    0  0.35012962520E+02 -0.14627953699E+03  0.97854486274E+02  0.17944113836E+03  0.10566000000E+00 0. -1.
<mgrwt>
<rscale>  1 0.62725006E+03</rscale>
<asrwt>0</asrwt>
<pdfrwt beam="1">  1       21 0.11431230E+00 0.10096260E+04</pdfrwt>
<pdfrwt beam="2">  1        4 0.71144729E-01 0.10096260E+04</pdfrwt>
<totfact> 0.40004407E+01</totfact>
</mgrwt>
</event>
<event>
 6    1  0.1353269E-005  0.1164964E+04  0.7818608E-02  0.9321170E-01
         21   -1    0    0  501  502  0.00000000000E+00  0.00000000000E+00  0.15047588536E+04  0.15047588536E+04  0.00000000000E+00 0. -1.
          4   -1    0    0  502    0 -0.00000000000E+00 -0.00000000000E+00 -0.52597934783E+03  0.52597934783E+03  0.00000000000E+00 0.  1.
    9000010    2    1    2  501    0 -0.31076838623E+03 -0.51800936073E+03  0.74606434848E+03  0.13833843235E+04  0.99610716633E+03 0.  0.
        -13    1    3    3    0    0 -0.19641210555E+03 -0.70225827605E+03  0.14377636828E+03  0.74324696887E+03  0.10566000000E+00 0.  1.
          4    1    3    3  501    0 -0.11435628068E+03  0.18424891532E+03  0.60228798020E+03  0.64013735465E+03  0.00000000000E+00 0.  1.
         13    1    1    2    0    0  0.31076838623E+03  0.51800936073E+03  0.23271515733E+03  0.64735387795E+03  0.10566000000E+00 0. -1.
<mgrwt>
<rscale>  1 0.98857037E+03</rscale>
<asrwt>0</asrwt>
<pdfrwt beam="1">  1       21 0.23150136E+00 0.11649636E+04</pdfrwt>
<pdfrwt beam="2">  1        4 0.80919900E-01 0.11649636E+04</pdfrwt>
<totfact> 0.37156102E+00</totfact>
</mgrwt>
</event>
<event>
 6    1  0.1353269E-005  0.9269580E+03  0.7818608E-02  0.9987688E-01
          4   -1    0    0  502    0 -0.00000000000E+00  0.00000000000E+00  0.24138292506E+03  0.24138292506E+03  0.00000000000E+00 0.  1.
         21   -1    0    0  501  502  0.00000000000E+00 -0.00000000000E+00 -0.11794977769E+04  0.11794977769E+04  0.00000000000E+00 0.  1.
    9000010    2    1    2  501    0 -0.10104788898E+03 -0.73899778119E+02 -0.73811703550E+03  0.11849336936E+04  0.91846570266E+03 0.  0.
        -13    1    3    3    0    0  0.13197339458E+03  0.67805876284E+02 -0.86960050204E+03  0.88216759068E+03  0.10566000000E+00 0.  1.
          4    1    3    3  501    0 -0.23302128355E+03 -0.14170565440E+03  0.13148346654E+03  0.30276610288E+03  0.00000000000E+00 0.  1.
         13    1    1    2    0    0  0.10104788898E+03  0.73899778119E+02 -0.19999781636E+03  0.23594700843E+03  0.10566000000E+00 0. -1.
<mgrwt>
<rscale>  1 0.56193382E+03</rscale>
<asrwt>0</asrwt>
<pdfrwt beam="2">  1       21 0.18146120E+00 0.92695798E+03</pdfrwt>
<pdfrwt beam="1">  1        4 0.37135835E-01 0.92695798E+03</pdfrwt>
<totfact> 0.44829536E+01</totfact>
</mgrwt>
</event>
<event>
 6    1  0.1353269E-005  0.1076940E+04  0.7818608E-02  0.9490832E-01
         21   -1    0    0  501  502  0.00000000000E+00  0.00000000000E+00  0.15283239360E+04  0.15283239360E+04  0.00000000000E+00 0. -1.
          4   -1    0    0  502    0 -0.00000000000E+00 -0.00000000000E+00 -0.44978460531E+03  0.44978460531E+03  0.00000000000E+00 0.  1.
    9000010    2    1    2  501    0 -0.18690304633E+02  0.41678405529E+03  0.11261369671E+04  0.15581992387E+04  0.99284546766E+03 0.  0.
        -13    1    3    3    0    0  0.27303310772E+03 -0.13992352716E+03  0.78555774510E+03  0.84334254809E+03  0.10566000000E+00 0.  1.
          4    1    3    3  501    0 -0.29172341235E+03  0.55670758246E+03  0.34057922197E+03  0.71485669061E+03  0.00000000000E+00 0.  1.
         13    1    1    2    0    0  0.18690304633E+02 -0.41678405529E+03 -0.47597636408E+02  0.41990930257E+03  0.10566000000E+00 0. -1.
<mgrwt>
<rscale>  1 0.84963141E+03</rscale>
<asrwt>0</asrwt>
<pdfrwt beam="1">  1       21 0.23512676E+00 0.10769403E+04</pdfrwt>
<pdfrwt beam="2">  1        4 0.69197632E-01 0.10769403E+04</pdfrwt>
<totfact> 0.50842124E+00</totfact>
</mgrwt>
</event>
<event>
 6    1  0.1353269E-005  0.1054715E+04  0.7818608E-02  0.9578200E-01
         21   -1    0    0  501  502  0.00000000000E+00  0.00000000000E+00  0.24257816599E+03  0.24257816599E+03  0.00000000000E+00 0.  1.
          4   -1    0    0  502    0 -0.00000000000E+00 -0.00000000000E+00 -0.23387607478E+04  0.23387607478E+04  0.00000000000E+00 0.  1.
    9000010    2    1    2  501    0  0.31609095081E+03 -0.87173932075E+02 -0.10633601485E+04  0.14977176822E+04  0.10024523263E+04 0.  0.
        -13    1    3    3    0    0 -0.27860157395E+03 -0.30978937104E+03 -0.36596240981E+03  0.55454196232E+03  0.10566000000E+00 0.  1.
          4    1    3    3  501    0  0.59469252477E+03  0.22261543896E+03 -0.69739773871E+03  0.94317571991E+03  0.00000000000E+00 0.  1.
         13    1    1    2    0    0 -0.31609095081E+03  0.87173932075E+02 -0.10328224333E+04  0.10836212316E+04  0.10566000000E+00 0. -1.
<mgrwt>
<rscale>  1 0.78756031E+03</rscale>
<asrwt>0</asrwt>
<pdfrwt beam="1">  1       21 0.37319718E-01 0.10547149E+04</pdfrwt>
<pdfrwt beam="2">  1        4 0.35980935E+00 0.10547149E+04</pdfrwt>
<totfact> 0.35959349E+00</totfact>
</mgrwt>
</event>
<event>
 6    1  0.1353269E-005  0.1096270E+04  0.7818608E-02  0.9446786E-01
         21   -1    0    0  501  502  0.00000000000E+00  0.00000000000E+00  0.14947468373E+04  0.14947468373E+04  0.00000000000E+00 0. -1.
          4   -1    0    0  502    0 -0.00000000000E+00 -0.00000000000E+00 -0.59632372118E+03  0.59632372118E+03  0.00000000000E+00 0.  1.
    9000010    2    1    2  501    0 -0.46110987408E+03  0.27052498177E+02  0.11299797709E+04  0.15743765977E+04  0.99420985461E+03 0.  0.
        -13    1    3    3    0    0 -0.22164089463E+03 -0.14127435348E+03  0.12355600968E+04  0.12632069874E+04  0.10566000000E+00 0.  1.
          4    1    3    3  501    0 -0.23946897945E+03  0.16832685166E+03 -0.10558032591E+03  0.31116961022E+03  0.00000000000E+00 0.  1.
         13    1    1    2    0    0  0.46110987408E+03 -0.27052498177E+02 -0.23155665477E+03  0.51669396083E+03  0.10566000000E+00 0. -1.
<mgrwt>
<rscale>  1 0.88323387E+03</rscale>
<asrwt>0</asrwt>
<pdfrwt beam="1">  1       21 0.22996105E+00 0.10962698E+04</pdfrwt>
<pdfrwt beam="2">  1        4 0.91742111E-01 0.10962698E+04</pdfrwt>
<totfact> 0.28639541E+00</totfact>
</mgrwt>
</event>
<event>
 6    1  0.1353269E-005  0.1023585E+04  0.7818608E-02  0.9762730E-01
         21   -1    0    0  501  502  0.00000000000E+00  0.00000000000E+00  0.40777975678E+03  0.40777975678E+03  0.00000000000E+00 0.  1.
          4   -1    0    0  502    0 -0.00000000000E+00 -0.00000000000E+00 -0.99733024697E+03  0.99733024697E+03  0.00000000000E+00 0.  1.
    9000010    2    1    2  501    0  0.24306337217E+01 -0.19243049699E+03 -0.31715968117E+03  0.10715951343E+04  0.10053310222E+04 0.  0.
        -13    1    3    3    0    0 -0.41108772151E+03 -0.33159866675E+03  0.67415734818E+01  0.52820095659E+03  0.10566000000E+00 0.  1.
          4    1    3    3  501    0  0.41351835523E+03  0.13916816975E+03 -0.32390125465E+03  0.54339417769E+03  0.00000000000E+00 0.  1.
         13    1    1    2    0    0 -0.24306337217E+01  0.19243049699E+03 -0.27239080902E+03  0.33351486947E+03  0.10566000000E+00 0. -1.
<mgrwt>
<rscale>  1 0.67401572E+03</rscale>
<asrwt>0</asrwt>
<pdfrwt beam="1">  1       21 0.62735347E-01 0.10235848E+04</pdfrwt>
<pdfrwt beam="2">  1        4 0.15343542E+00 0.10235848E+04</pdfrwt>
<totfact> 0.25567866E+01</totfact>
</mgrwt>
</event>
<event>
 6    1  0.1353269E-005  0.1018717E+04  0.7818608E-02  0.9685987E-01
         21   -1    0    0  501  502  0.00000000000E+00  0.00000000000E+00  0.10542537609E+04  0.10542537609E+04  0.00000000000E+00 0.  1.
          4   -1    0    0  502    0 -0.00000000000E+00 -0.00000000000E+00 -0.43995273665E+03  0.43995273665E+03  0.00000000000E+00 0.  1.
    9000010    2    1    2  501    0 -0.21272858834E+03 -0.13544268059E+03  0.69059279637E+03  0.12307323666E+04  0.98700839697E+03 0.  0.
        -13    1    3    3    0    0 -0.42664165682E+03  0.11240803865E+03 -0.26953172332E+02  0.44202393052E+03  0.10566000000E+00 0.  1.
          4    1    3    3  501    0  0.21391306848E+03 -0.24785071923E+03  0.71754596870E+03  0.78870843605E+03  0.00000000000E+00 0.  1.
         13    1    1    2    0    0  0.21272858834E+03  0.13544268059E+03 -0.76291772145E+02  0.26347413096E+03  0.10566000000E+00 0. -1.
<mgrwt>
<rscale>  1 0.71857262E+03</rscale>
<asrwt>0</asrwt>
<pdfrwt beam="1">  1       21 0.16219288E+00 0.10187167E+04</pdfrwt>
<pdfrwt beam="2">  1        4 0.67685037E-01 0.10187167E+04</pdfrwt>
<totfact> 0.17347009E+01</totfact>
</mgrwt>
</event>
<event>
 6    1  0.1353269E-005  0.1013362E+04  0.7818608E-02  0.9904577E-01
          4   -1    0    0  502    0 -0.00000000000E+00  0.00000000000E+00  0.57299976062E+03  0.57299976062E+03  0.00000000000E+00 0.  1.
         21   -1    0    0  501  502  0.00000000000E+00 -0.00000000000E+00 -0.56732549653E+03  0.56732549653E+03  0.00000000000E+00 0.  1.
    9000010    2    1    2  501    0  0.12475055784E+03  0.55251074934E+01 -0.16510656279E+02  0.10134969860E+04  0.10056392546E+04 0.  0.
        -13    1    3    3    0    0  0.23548390305E+03 -0.46915151758E+03  0.14007501710E+02  0.52512097302E+03  0.10566000000E+00 0.  1.
          4    1    3    3  501    0 -0.11073334521E+03  0.47467662507E+03 -0.30518157989E+02  0.48837601302E+03  0.00000000000E+00 0.  1.
         13    1    1    2    0    0 -0.12475055784E+03 -0.55251074934E+01  0.22184920369E+02  0.12682827110E+03  0.10566000000E+00 0. -1.
<mgrwt>
<rscale>  1 0.60039997E+03</rscale>
<asrwt>0</asrwt>
<pdfrwt beam="2">  1       21 0.87280845E-01 0.10133625E+04</pdfrwt>
<pdfrwt beam="1">  1        4 0.88153810E-01 0.10133625E+04</pdfrwt>
<totfact> 0.47727544E+01</totfact>
</mgrwt>
</event>
<event>
 6    1  0.1353269E-005  0.1044119E+04  0.7818608E-02  0.9595550E-01
         21   -1    0    0  501  502  0.00000000000E+00  0.00000000000E+00  0.59496962286E+03  0.59496962286E+03  0.00000000000E+00 0.  1.
          4   -1    0    0  502    0 -0.00000000000E+00 -0.00000000000E+00 -0.94572034927E+03  0.94572034927E+03  0.00000000000E+00 0.  1.
    9000010    2    1    2  501    0  0.31489584370E+03  0.47263912612E+02  0.29734563586E+02  0.10445424770E+04  0.99437999390E+03 0.  0.
        -13    1    3    3    0    0 -0.35442269042E+03 -0.52376315385E+02  0.76087466276E+02  0.36626224975E+03  0.10566000000E+00 0.  1.
          4    1    3    3  501    0  0.66931853413E+03  0.99640227997E+02 -0.46352902690E+02  0.67828022730E+03  0.00000000000E+00 0.  1.
         13    1    1    2    0    0 -0.31489584370E+03 -0.47263912612E+02 -0.38048528999E+03  0.49614749509E+03  0.10566000000E+00 0. -1.
<mgrwt>
<rscale>  1 0.77591420E+03</rscale>
<asrwt>0</asrwt>
<pdfrwt beam="1">  1       21 0.91533788E-01 0.10441192E+04</pdfrwt>
<pdfrwt beam="2">  1        4 0.14549544E+00 0.10441192E+04</pdfrwt>
<totfact> 0.12196435E+01</totfact>
</mgrwt>
</event>
<event>
 6    1  0.1353269E-005  0.1238622E+04  0.7818608E-02  0.9225086E-01
         21   -1    0    0  501  502  0.00000000000E+00  0.00000000000E+00  0.10421200508E+04  0.10421200508E+04  0.00000000000E+00 0. -1.
          4   -1    0    0  502    0 -0.00000000000E+00 -0.00000000000E+00 -0.94268377717E+03  0.94268377717E+03  0.00000000000E+00 0.  1.
    9000010    2    1    2  501    0 -0.19096419216E+03  0.68951084730E+03  0.22360036984E+03  0.12586431948E+04  0.10110850781E+04 0.  0.
        -13    1    3    3    0    0  0.25747812692E+03  0.67224358480E+03  0.33837079452E+03  0.79542518749E+03  0.10566000000E+00 0.  1.
          4    1    3    3  501    0 -0.44844231907E+03  0.17267262494E+02 -0.11477042468E+03  0.46321800728E+03  0.00000000000E+00 0.  1.
         13    1    1    2    0    0  0.19096419216E+03 -0.68951084730E+03 -0.12416409622E+03  0.72616063318E+03  0.10566000000E+00 0. -1.
<mgrwt>
<rscale>  1 0.10798205E+04</rscale>
<asrwt>0</asrwt>
<pdfrwt beam="1">  1       21 0.16032616E+00 0.12386224E+04</pdfrwt>
<pdfrwt beam="2">  1        4 0.14502827E+00 0.12386224E+04</pdfrwt>
<totfact> 0.27641516E+00</totfact>
</mgrwt>
</event>
<event>
 6    1  0.1353269E-005  0.1116141E+04  0.7818608E-02  0.9411336E-01
          4   -1    0    0  502    0 -0.00000000000E+00  0.00000000000E+00  0.12079095124E+04  0.12079095124E+04  0.00000000000E+00 0.  1.
         21   -1    0    0  501  502  0.00000000000E+00 -0.00000000000E+00 -0.66425764268E+03  0.66425764268E+03  0.00000000000E+00 0. -1.
    9000010    2    1    2  501    0 -0.39763027969E+03  0.29717862397E+03  0.73909331800E+03  0.13386670663E+04  0.99967275043E+03 0.  0.
        -13    1    3    3    0    0 -0.51372769654E+03  0.59029121092E+03  0.63145076193E+03  0.10055296792E+04  0.10566000000E+00 0.  1.
          4    1    3    3  501    0  0.11609741685E+03 -0.29311258695E+03  0.10764255607E+03  0.33313738713E+03  0.00000000000E+00 0.  1.
         13    1    1    2    0    0  0.39763027969E+03 -0.29717862397E+03 -0.19544144823E+03  0.53350008877E+03  0.10566000000E+00 0. -1.
<mgrwt>
<rscale>  1 0.91148583E+03</rscale>
<asrwt>0</asrwt>
<pdfrwt beam="2">  1       21 0.10219348E+00 0.11161409E+04</pdfrwt>
<pdfrwt beam="1">  1        4 0.18583223E+00 0.11161409E+04</pdfrwt>
<totfact> 0.46601565E+00</totfact>
</mgrwt>
</event>
<event>
 6    1  0.1353269E-005  0.9007927E+03  0.7818608E-02  0.9787235E-01
          4   -1    0    0  502    0 -0.00000000000E+00  0.00000000000E+00  0.57195416600E+03  0.57195416600E+03  0.00000000000E+00 0.  1.
         21   -1    0    0  501  502  0.00000000000E+00 -0.00000000000E+00 -0.59919941810E+03  0.59919941810E+03  0.00000000000E+00 0.  1.
    9000010    2    1    2  501    0 -0.48143042354E+00 -0.26041814245E+03 -0.83742693562E+02  0.90467691955E+03  0.86232804046E+03 0.  0.
        -13    1    3    3    0    0 -0.32330767618E+03 -0.18292134221E+03  0.23895774690E+03  0.44168867643E+03  0.10566000000E+00 0.  1.
          4    1    3    3  501    0  0.32282624576E+03 -0.77496800240E+02 -0.32270044046E+03  0.46298824313E+03  0.00000000000E+00 0.  1.
         13    1    1    2    0    0  0.48143042354E+00  0.26041814245E+03  0.56497441459E+02  0.26647666455E+03  0.10566000000E+00 0. -1.
<mgrwt>
<rscale>  1 0.66052103E+03</rscale>
<asrwt>0</asrwt>
<pdfrwt beam="2">  1       21 0.92184527E-01 0.90079270E+03</pdfrwt>
<pdfrwt beam="1">  1        4 0.87992948E-01 0.90079270E+03</pdfrwt>
<totfact> 0.42431170E+01</totfact>
</mgrwt>
</event>
<event>
 6    1  0.1353269E-005  0.1007175E+04  0.7818608E-02  0.9841831E-01
          4   -1    0    0  502    0 -0.00000000000E+00  0.00000000000E+00  0.28755457393E+03  0.28755457393E+03  0.00000000000E+00 0.  1.
         21   -1    0    0  501  502  0.00000000000E+00 -0.00000000000E+00 -0.12110504057E+04  0.12110504057E+04  0.00000000000E+00 0.  1.
    9000010    2    1    2  501    0 -0.10563733432E+03  0.11453196305E+03 -0.87837654624E+03  0.13363934570E+04  0.99505039977E+03 0.  0.
        -13    1    3    3    0    0 -0.17587954095E+03  0.40618280357E+02  0.19063144824E+03  0.26253346043E+03  0.10566000000E+00 0.  1.
          4    1    3    3  501    0  0.70242206637E+02  0.73913682691E+02 -0.10690079945E+04  0.10738599966E+04  0.00000000000E+00 0.  1.
         13    1    1    2    0    0  0.10563733432E+03 -0.11453196305E+03 -0.45119285507E+02  0.16221152256E+03  0.10566000000E+00 0. -1.
<mgrwt>
<rscale>  1 0.63165189E+03</rscale>
<asrwt>0</asrwt>
<pdfrwt beam="2">  1       21 0.18631544E+00 0.10071753E+04</pdfrwt>
<pdfrwt beam="1">  1        4 0.44239167E-01 0.10071753E+04</pdfrwt>
<totfact> 0.28682872E+01</totfact>
</mgrwt>
</event>
<event>
 6    1  0.1353269E-005  0.1008618E+04  0.7818608E-02  0.9879259E-01
         21   -1    0    0  501  502  0.00000000000E+00  0.00000000000E+00  0.30404240395E+03  0.30404240395E+03  0.00000000000E+00 0.  1.
          4   -1    0    0  502    0 -0.00000000000E+00 -0.00000000000E+00 -0.11523713128E+04  0.11523713128E+04  0.00000000000E+00 0.  1.
    9000010    2    1    2  501    0 -0.11422023436E+03 -0.76385669319E+02 -0.60272237548E+03  0.11749823524E+04  0.99921380806E+03 0.  0.
        -13    1    3    3    0    0  0.42035248135E+03  0.78574879016E+02 -0.13636636647E+03  0.44884965997E+03  0.10566000000E+00 0.  1.
          4    1    3    3  501    0 -0.53457271571E+03 -0.15496054834E+03 -0.46635600901E+03  0.72613269246E+03  0.00000000000E+00 0.  1.
         13    1    1    2    0    0  0.11422023436E+03  0.76385669319E+02 -0.24560653335E+03  0.28143136428E+03  0.10566000000E+00 0. -1.
<mgrwt>
<rscale>  1 0.61277089E+03</rscale>
<asrwt>0</asrwt>
<pdfrwt beam="1">  1       21 0.46775754E-01 0.10086175E+04</pdfrwt>
<pdfrwt beam="2">  1        4 0.17728790E+00 0.10086175E+04</pdfrwt>
<totfact> 0.32569457E+01</totfact>
</mgrwt>
</event>
<event>
 6    1  0.1353269E-005  0.1020292E+04  0.7818608E-02  0.9756504E-01
         21   -1    0    0  501  502  0.00000000000E+00  0.00000000000E+00  0.71183855527E+03  0.71183855527E+03  0.00000000000E+00 0.  1.
          4   -1    0    0  502    0 -0.00000000000E+00 -0.00000000000E+00 -0.52424444232E+03  0.52424444232E+03  0.00000000000E+00 0.  1.
    9000010    2    1    2  501    0  0.80477877346E+01  0.19820076344E+03  0.12413416868E+03  0.10278151767E+04  0.10008228795E+04 0.  0.
        -13    1    3    3    0    0 -0.30637602590E+03 -0.23539416418E+03  0.27161318946E+03  0.47228213774E+03  0.10566000000E+00 0.  1.
          4    1    3    3  501    0  0.31442381364E+03  0.43359492762E+03 -0.14747902078E+03  0.55553303899E+03  0.00000000000E+00 0.  1.
         13    1    1    2    0    0 -0.80477877346E+01 -0.19820076344E+03  0.63459944271E+02  0.20826782086E+03  0.10566000000E+00 0. -1.
<mgrwt>
<rscale>  1 0.67749958E+03</rscale>
<asrwt>0</asrwt>
<pdfrwt beam="1">  1       21 0.10951362E+00 0.10202915E+04</pdfrwt>
<pdfrwt beam="2">  1        4 0.80652991E-01 0.10202915E+04</pdfrwt>
<totfact> 0.33508837E+01</totfact>
</mgrwt>
</event>
<event>
 6    1  0.1353269E-005  0.1012798E+04  0.7818608E-02  0.9761063E-01
          4   -1    0    0  502    0 -0.00000000000E+00  0.00000000000E+00  0.53725948972E+03  0.53725948972E+03  0.00000000000E+00 0.  1.
         21   -1    0    0  501  502  0.00000000000E+00 -0.00000000000E+00 -0.78108820398E+03  0.78108820398E+03  0.00000000000E+00 0.  1.
    9000010    2    1    2  501    0 -0.32971903044E+02  0.19702010172E+03 -0.37430495442E+03  0.10797515343E+04  0.99290236681E+03 0.  0.
        -13    1    3    3    0    0  0.98983755066E+02 -0.33637915242E+03  0.88165928040E+02  0.36155491973E+03  0.10566000000E+00 0.  1.
          4    1    3    3  501    0 -0.13195565811E+03  0.53339925415E+03 -0.46247088246E+03  0.71819661455E+03  0.00000000000E+00 0.  1.
         13    1    1    2    0    0  0.32971903044E+02 -0.19702010172E+03  0.13047624016E+03  0.23859615941E+03  0.10566000000E+00 0. -1.
<mgrwt>
<rscale>  1 0.67494625E+03</rscale>
<asrwt>0</asrwt>
<pdfrwt beam="2">  1       21 0.12016742E+00 0.10127977E+04</pdfrwt>
<pdfrwt beam="1">  1        4 0.82655306E-01 0.10127977E+04</pdfrwt>
<totfact> 0.24987344E+01</totfact>
</mgrwt>
</event>
<event>
 6    1  0.1353269E-005  0.1021472E+04  0.7818608E-02  0.9745471E-01
          4   -1    0    0  502    0 -0.00000000000E+00  0.00000000000E+00  0.16724783678E+03  0.16724783678E+03  0.00000000000E+00 0.  1.
         21   -1    0    0  501  502  0.00000000000E+00 -0.00000000000E+00 -0.24604488016E+04  0.24604488016E+04  0.00000000000E+00 0.  1.
    9000010    2    1    2  501    0  0.13152483658E+03  0.15730768523E+03 -0.21414715857E+04  0.23726156589E+04  0.10006797798E+04 0.  0.
        -13    1    3    3    0    0  0.37809968354E+03  0.14982644049E+03 -0.20786369101E+04  0.21180506954E+04  0.10566000000E+00 0.  1.
          4    1    3    3  501    0 -0.24657484696E+03  0.74812447394E+01 -0.62834675644E+02  0.25456496350E+03  0.00000000000E+00 0.  1.
         13    1    1    2    0    0 -0.13152483658E+03 -0.15730768523E+03 -0.15172937907E+03  0.25508097951E+03  0.10566000000E+00 0. -1.
<mgrwt>
<rscale>  1 0.68372808E+03</rscale>
<asrwt>0</asrwt>
<pdfrwt beam="2">  1       21 0.37853058E+00 0.10214717E+04</pdfrwt>
<pdfrwt beam="1">  1        4 0.25730437E-01 0.10214717E+04</pdfrwt>
<totfact> 0.49288670E+00</totfact>
</mgrwt>
</event>
<event>
 6    1  0.1353269E-005  0.1075719E+04  0.7818608E-02  0.9482944E-01
          4   -1    0    0  502    0 -0.00000000000E+00  0.00000000000E+00  0.10924973605E+04  0.10924973605E+04  0.00000000000E+00 0.  1.
         21   -1    0    0  501  502  0.00000000000E+00 -0.00000000000E+00 -0.52018790762E+03  0.52018790762E+03  0.00000000000E+00 0.  1.
    9000010    2    1    2  501    0  0.42103262531E+03 -0.89179333173E+02  0.44234296643E+03  0.11631157809E+04  0.98587504019E+03 0.  0.
        -13    1    3    3    0    0  0.13782285480E+02 -0.42665143901E+03 -0.63124925589E+02  0.43151612855E+03  0.10566000000E+00 0.  1.
          4    1    3    3  501    0  0.40725033983E+03  0.33747210584E+03  0.50546789202E+03  0.73159965239E+03  0.00000000000E+00 0.  1.
         13    1    1    2    0    0 -0.42103262531E+03  0.89179333173E+02  0.12996648644E+03  0.44956948718E+03  0.10566000000E+00 0. -1.
<mgrwt>
<rscale>  1 0.85553059E+03</rscale>
<asrwt>0</asrwt>
<pdfrwt beam="2">  1       21 0.80028909E-01 0.10757188E+04</pdfrwt>
<pdfrwt beam="1">  1        4 0.16807652E+00 0.10757188E+04</pdfrwt>
<totfact> 0.11299305E+01</totfact>
</mgrwt>
</event>
<event>
 6    1  0.1353269E-005  0.1028031E+04  0.7818608E-02  0.9742752E-01
         21   -1    0    0  501  502  0.00000000000E+00  0.00000000000E+00  0.42065879025E+03  0.42065879025E+03  0.00000000000E+00 0.  1.
          4   -1    0    0  502    0 -0.00000000000E+00 -0.00000000000E+00 -0.10403354366E+04  0.10403354366E+04  0.00000000000E+00 0.  1.
    9000010    2    1    2  501    0  0.17198719329E+03 -0.10778960664E+03 -0.28031196074E+03  0.10655620646E+04  0.10077943859E+04 0.  0.
        -13    1    3    3    0    0 -0.31200646607E+03 -0.25905447784E+03 -0.37193966294E+03  0.55026937166E+03  0.10566000000E+00 0.  1.
          4    1    3    3  501    0  0.48399365935E+03  0.15126487120E+03  0.91627702198E+02  0.51529269291E+03  0.00000000000E+00 0.  1.
         13    1    1    2    0    0 -0.17198719329E+03  0.10778960664E+03 -0.33936468559E+03  0.39543216226E+03  0.10566000000E+00 0. -1.
<mgrwt>
<rscale>  1 0.68527430E+03</rscale>
<asrwt>0</asrwt>
<pdfrwt beam="1">  1       21 0.64716738E-01 0.10280310E+04</pdfrwt>
<pdfrwt beam="2">  1        4 0.16005160E+00 0.10280310E+04</pdfrwt>
<totfact> 0.21230662E+01</totfact>
</mgrwt>
</event>
<event>
 6    1  0.1353269E-005  0.8729617E+03  0.7818608E-02  0.9833583E-01
         21   -1    0    0  501  502  0.00000000000E+00  0.00000000000E+00  0.66939552798E+03  0.66939552798E+03  0.00000000000E+00 0.  1.
          4   -1    0    0  502    0 -0.00000000000E+00 -0.00000000000E+00 -0.48317624231E+03  0.48317624231E+03  0.00000000000E+00 0.  1.
    9000010    2    1    2  501    0  0.18814959040E+03 -0.15818200798E+03  0.23033030465E+03  0.90283669230E+03  0.83763967654E+03 0.  0.
        -13    1    3    3    0    0  0.49563835958E+03  0.55144225414E+02  0.13479843632E+03  0.51659355270E+03  0.10566000000E+00 0.  1.
          4    1    3    3  501    0 -0.30748876918E+03 -0.21332623339E+03  0.95531868324E+02  0.38624313961E+03  0.00000000000E+00 0.  1.
         13    1    1    2    0    0 -0.18814959040E+03  0.15818200798E+03 -0.44111018985E+02  0.24973507799E+03  0.10566000000E+00 0. -1.
<mgrwt>
<rscale>  1 0.63590993E+03</rscale>
<asrwt>0</asrwt>
<pdfrwt beam="1">  1       21 0.10298393E+00 0.87296165E+03</pdfrwt>
<pdfrwt beam="2">  1        4 0.74334806E-01 0.87296165E+03</pdfrwt>
<totfact> 0.47758673E+01</totfact>
</mgrwt>
</event>
<event>
 6    1  0.1353269E-005  0.1035044E+04  0.7818608E-02  0.9714075E-01
         21   -1    0    0  501  502  0.00000000000E+00  0.00000000000E+00  0.10412055799E+04  0.10412055799E+04  0.00000000000E+00 0.  1.
          4   -1    0    0  502    0 -0.00000000000E+00 -0.00000000000E+00 -0.92693112613E+03  0.92693112613E+03  0.00000000000E+00 0.  1.
    9000010    2    1    2  501    0  0.99052424363E+02 -0.19512433672E+03  0.76145436275E+03  0.12849626906E+04  0.10116479033E+04 0.  0.
        -13    1    3    3    0    0 -0.20227453674E+03 -0.14934283817E+03  0.91128890985E+03  0.94533896561E+03  0.10566000000E+00 0.  1.
          4    1    3    3  501    0  0.30132696111E+03 -0.45781498556E+02 -0.14983454710E+03  0.33962372503E+03  0.00000000000E+00 0.  1.
         13    1    1    2    0    0 -0.99052424363E+02  0.19512433672E+03 -0.64717990898E+03  0.68317401539E+03  0.10566000000E+00 0. -1.
<mgrwt>
<rscale>  1 0.70184947E+03</rscale>
<asrwt>0</asrwt>
<pdfrwt beam="1">  1       21 0.16018547E+00 0.10350441E+04</pdfrwt>
<pdfrwt beam="2">  1        4 0.14260479E+00 0.10350441E+04</pdfrwt>
<totfact> 0.29753149E+00</totfact>
</mgrwt>
</event>
<event>
 6    1  0.1353269E-005  0.1117921E+04  0.7818608E-02  0.9475203E-01
         21   -1    0    0  501  502  0.00000000000E+00  0.00000000000E+00  0.60769596607E+03  0.60769596607E+03  0.00000000000E+00 0.  1.
          4   -1    0    0  502    0 -0.00000000000E+00 -0.00000000000E+00 -0.10948069009E+04  0.10948069009E+04  0.00000000000E+00 0.  1.
    9000010    2    1    2  501    0  0.13432017495E+03 -0.37042568198E+03 -0.57264712199E+02  0.11193863421E+04  0.10461784936E+04 0.  0.
        -13    1    3    3    0    0 -0.30148209125E+03 -0.56505025884E+03 -0.42924005406E+02  0.64188451279E+03  0.10566000000E+00 0.  1.
          4    1    3    3  501    0  0.43580226621E+03  0.19462457686E+03 -0.14340706793E+02  0.47750182934E+03  0.00000000000E+00 0.  1.
         13    1    1    2    0    0 -0.13432017495E+03  0.37042568198E+03 -0.42984622265E+03  0.58311652486E+03  0.10566000000E+00 0. -1.
<mgrwt>
<rscale>  1 0.86136985E+03</rscale>
<asrwt>0</asrwt>
<pdfrwt beam="1">  1       21 0.93491687E-01 0.11179206E+04</pdfrwt>
<pdfrwt beam="2">  1        4 0.16843183E+00 0.11179206E+04</pdfrwt>
<totfact> 0.77021985E+00</totfact>
</mgrwt>
</event>
<event>
 6    1  0.1353269E-005  0.1085412E+04  0.7818608E-02  0.9457540E-01
         21   -1    0    0  501  502  0.00000000000E+00  0.00000000000E+00  0.19398192157E+04  0.19398192157E+04  0.00000000000E+00 0.  1.
          4   -1    0    0  502    0 -0.00000000000E+00 -0.00000000000E+00 -0.55036049430E+03  0.55036049430E+03  0.00000000000E+00 0.  1.
    9000010    2    1    2  501    0  0.22049715509E+03 -0.40160244971E+03  0.16410237795E+04  0.19675053251E+04  0.98397898169E+03 0.  0.
        -13    1    3    3    0    0  0.45790461532E+03 -0.61357108035E+03  0.12059854929E+04  0.14284772058E+04  0.10566000000E+00 0.  1.
          4    1    3    3  501    0 -0.23740746023E+03  0.21196863064E+03  0.43503828664E+03  0.53902811929E+03  0.00000000000E+00 0.  1.
         13    1    1    2    0    0 -0.22049715509E+03  0.40160244971E+03 -0.25156505809E+03  0.52267438490E+03  0.10566000000E+00 0. -1.
<mgrwt>
<rscale>  1 0.87487960E+03</rscale>
<asrwt>0</asrwt>
<pdfrwt beam="1">  1       21 0.29843372E+00 0.10854115E+04</pdfrwt>
<pdfrwt beam="2">  1        4 0.84670846E-01 0.10854115E+04</pdfrwt>
<totfact> 0.12763885E+00</totfact>
</mgrwt>
</event>
<event>
 6    1  0.1353269E-005  0.9564053E+03  0.7818608E-02  0.1008088E+00
          4   -1    0    0  502    0 -0.00000000000E+00  0.00000000000E+00  0.51559494709E+03  0.51559494709E+03  0.00000000000E+00 0.  1.
         21   -1    0    0  501  502  0.00000000000E+00 -0.00000000000E+00 -0.52981469030E+03  0.52981469030E+03  0.00000000000E+00 0.  1.
    9000010    2    1    2  501    0  0.15212566395E+01  0.85128573062E+02 -0.37506019754E+02  0.95714044677E+03  0.95260797034E+03 0.  0.
        -13    1    3    3    0    0  0.38663813953E+03 -0.31205016526E+02 -0.28809171094E+03  0.48317662306E+03  0.10566000000E+00 0.  1.
          4    1    3    3  501    0 -0.38511688290E+03  0.11633358959E+03  0.25058569118E+03  0.47396382371E+03  0.00000000000E+00 0.  1.
         13    1    1    2    0    0 -0.15212566395E+01 -0.85128573062E+02  0.23286276550E+02  0.88269190621E+02  0.10566000000E+00 0. -1.
<mgrwt>
<rscale>  1 0.52241753E+03</rscale>
<asrwt>0</asrwt>
<pdfrwt beam="2">  1       21 0.81509952E-01 0.95640532E+03</pdfrwt>
<pdfrwt beam="1">  1        4 0.79322300E-01 0.95640532E+03</pdfrwt>
<totfact> 0.72051902E+01</totfact>
</mgrwt>
</event>
<event>
 6    1  0.1353269E-005  0.1034128E+04  0.7818608E-02  0.9615910E-01
         21   -1    0    0  501  502  0.00000000000E+00  0.00000000000E+00  0.65055766064E+03  0.65055766064E+03  0.00000000000E+00 0.  1.
          4   -1    0    0  502    0 -0.00000000000E+00 -0.00000000000E+00 -0.88260700746E+03  0.88260700746E+03  0.00000000000E+00 0.  1.
    9000010    2    1    2  501    0 -0.26305060097E+03  0.15572940419E+03  0.14883098714E+03  0.10447825370E+04  0.98791326588E+03 0.  0.
        -13    1    3    3    0    0  0.17602403914E+03 -0.29152819233E+03 -0.12236804634E+03  0.36186613437E+03  0.10566000000E+00 0.  1.
          4    1    3    3  501    0 -0.43907464011E+03  0.44725759651E+03  0.27119903348E+03  0.68291640264E+03  0.00000000000E+00 0.  1.
         13    1    1    2    0    0  0.26305060097E+03 -0.15572940419E+03 -0.38088033396E+03  0.48838213109E+03  0.10566000000E+00 0. -1.
<mgrwt>
<rscale>  1 0.76252033E+03</rscale>
<asrwt>0</asrwt>
<pdfrwt beam="1">  1       21 0.10008579E+00 0.10341276E+04</pdfrwt>
<pdfrwt beam="2">  1        4 0.13578569E+00 0.10341276E+04</pdfrwt>
<totfact> 0.11767603E+01</totfact>
</mgrwt>
</event>
<event>
 6    1  0.1353269E-005  0.1082447E+04  0.7818608E-02  0.9487148E-01
         21   -1    0    0  501  502  0.00000000000E+00  0.00000000000E+00  0.21023216146E+04  0.21023216146E+04  0.00000000000E+00 0.  1.
          4   -1    0    0  502    0 -0.00000000000E+00 -0.00000000000E+00 -0.47412583788E+03  0.47412583788E+03  0.00000000000E+00 0.  1.
    9000010    2    1    2  501    0  0.41534085990E+03  0.26906172793E+02  0.18204692023E+04  0.21179705682E+04  0.99922932267E+03 0.  0.
        -13    1    3    3    0    0  0.45695103235E+02 -0.24353623061E+03  0.73488612955E+01  0.24789504837E+03  0.10566000000E+00 0.  1.
          4    1    3    3  501    0  0.36964575667E+03  0.27044240341E+03  0.18131203410E+04  0.18700755198E+04  0.00000000000E+00 0.  1.
         13    1    1    2    0    0 -0.41534085990E+03 -0.26906172793E+02 -0.19227342560E+03  0.45847688425E+03  0.10566000000E+00 0. -1.
<mgrwt>
<rscale>  1 0.85238039E+03</rscale>
<asrwt>0</asrwt>
<pdfrwt beam="1">  1       21 0.32343409E+00 0.10824469E+04</pdfrwt>
<pdfrwt beam="2">  1        4 0.72942438E-01 0.10824469E+04</pdfrwt>
<totfact> 0.12550161E+00</totfact>
</mgrwt>
</event>
<event>
 6    1  0.1353269E-005  0.1005890E+04  0.7818608E-02  0.9711432E-01
          4   -1    0    0  502    0 -0.00000000000E+00  0.00000000000E+00  0.31601902547E+03  0.31601902547E+03  0.00000000000E+00 0.  1.
         21   -1    0    0  501  502  0.00000000000E+00 -0.00000000000E+00 -0.18319124592E+04  0.18319124592E+04  0.00000000000E+00 0.  1.
    9000010    2    1    2  501    0  0.21277196316E+03  0.11216390850E+03 -0.16027080388E+04  0.18922178998E+04  0.97671022920E+03 0.  0.
        -13    1    3    3    0    0  0.34923678740E+03 -0.10363889757E+03 -0.11391055036E+03  0.38168439765E+03  0.10566000000E+00 0.  1.
          4    1    3    3  501    0 -0.13646482424E+03  0.21580280608E+03 -0.14887974885E+04  0.15105335021E+04  0.00000000000E+00 0.  1.
         13    1    1    2    0    0 -0.21277196316E+03 -0.11216390850E+03  0.86814605098E+02  0.25571358490E+03  0.10566000000E+00 0. -1.
<mgrwt>
<rscale>  1 0.70340171E+03</rscale>
<asrwt>0</asrwt>
<pdfrwt beam="2">  1       21 0.28183268E+00 0.10058904E+04</pdfrwt>
<pdfrwt beam="1">  1        4 0.48618312E-01 0.10058904E+04</pdfrwt>
<totfact> 0.55926033E+00</totfact>
</mgrwt>
</event>
<event>
 6    1  0.1353269E-005  0.1120963E+04  0.7818608E-02  0.9390682E-01
          4   -1    0    0  502    0 -0.00000000000E+00  0.00000000000E+00  0.89424797422E+03  0.89424797422E+03  0.00000000000E+00 0.  1.
         21   -1    0    0  501  502  0.00000000000E+00 -0.00000000000E+00 -0.80397734514E+03  0.80397734514E+03  0.00000000000E+00 0.  1.
    9000010    2    1    2  501    0 -0.63078698448E+02 -0.52379504289E+03 -0.12603301959E+03  0.11280258378E+04  0.98904893693E+03 0.  0.
        -13    1    3    3    0    0  0.45952955878E+03 -0.31584014724E+03 -0.85286912017E+02  0.56408889594E+03  0.10566000000E+00 0.  1.
          4    1    3    3  501    0 -0.52260825723E+03 -0.20795489565E+03 -0.40746107577E+02  0.56393694189E+03  0.00000000000E+00 0.  1.
         13    1    1    2    0    0  0.63078698448E+02  0.52379504289E+03  0.21630364867E+03  0.57019948153E+03  0.10566000000E+00 0. -1.
<mgrwt>
<rscale>  1 0.92846478E+03</rscale>
<asrwt>0</asrwt>
<pdfrwt beam="2">  1       21 0.12368882E+00 0.11209630E+04</pdfrwt>
<pdfrwt beam="1">  1        4 0.13757661E+00 0.11209630E+04</pdfrwt>
<totfact> 0.65653909E+00</totfact>
</mgrwt>
</event>
<event>
 6    1  0.1353269E-005  0.1159265E+04  0.7818608E-02  0.9320622E-01
         21   -1    0    0  501  502  0.00000000000E+00  0.00000000000E+00  0.10265073909E+04  0.10265073909E+04  0.00000000000E+00 0.  1.
          4   -1    0    0  502    0 -0.00000000000E+00 -0.00000000000E+00 -0.78796792030E+03  0.78796792030E+03  0.00000000000E+00 0.  1.
    9000010    2    1    2  501    0 -0.28237718657E+03 -0.54550049520E+03  0.10660962331E+02  0.11593140399E+04  0.98315193192E+03 0.  0.
        -13    1    3    3    0    0 -0.16553721172E+03  0.18141185677E+03 -0.27581011348E+03  0.36930212578E+03  0.10566000000E+00 0.  1.
          4    1    3    3  501    0 -0.11683997485E+03 -0.72691235198E+03  0.28647107581E+03  0.79001191412E+03  0.00000000000E+00 0.  1.
         13    1    1    2    0    0  0.28237718657E+03  0.54550049520E+03  0.22787850831E+03  0.65516127135E+03  0.10566000000E+00 0. -1.
<mgrwt>
<rscale>  1 0.98906323E+03</rscale>
<asrwt>0</asrwt>
<pdfrwt beam="1">  1       21 0.15792421E+00 0.11592650E+04</pdfrwt>
<pdfrwt beam="2">  1        4 0.12122583E+00 0.11592650E+04</pdfrwt>
<totfact> 0.46414051E+00</totfact>
</mgrwt>
</event>
<event>
 6    1  0.1353269E-005  0.1000009E+04  0.7818608E-02  0.9702118E-01
          4   -1    0    0  502    0 -0.00000000000E+00  0.00000000000E+00  0.59934796323E+03  0.59934796323E+03  0.00000000000E+00 0.  1.
         21   -1    0    0  501  502  0.00000000000E+00 -0.00000000000E+00 -0.65624692938E+03  0.65624692938E+03  0.00000000000E+00 0.  1.
    9000010    2    1    2  501    0 -0.25228019781E+03  0.11690296703E+02 -0.71967003733E+02  0.10025948567E+04  0.96759249472E+03 0.  0.
        -13    1    3    3    0    0 -0.61690625867E+02 -0.44811730670E+03  0.12181848287E+03  0.46845982519E+03  0.10566000000E+00 0.  1.
          4    1    3    3  501    0 -0.19058957195E+03  0.45980760341E+03 -0.19378548660E+03  0.53413503152E+03  0.00000000000E+00 0.  1.
         13    1    1    2    0    0  0.25228019781E+03 -0.11690296703E+02  0.15068037582E+02  0.25300003590E+03  0.10566000000E+00 0. -1.
<mgrwt>
<rscale>  1 0.70890827E+03</rscale>
<asrwt>0</asrwt>
<pdfrwt beam="2">  1       21 0.10096107E+00 0.10000086E+04</pdfrwt>
<pdfrwt beam="1">  1        4 0.92207379E-01 0.10000086E+04</pdfrwt>
<totfact> 0.30135730E+01</totfact>
</mgrwt>
</event>
<event>
 6    1  0.1353269E-005  0.1033957E+04  0.7818608E-02  0.9678101E-01
          4   -1    0    0  502    0 -0.00000000000E+00  0.00000000000E+00  0.16334123412E+04  0.16334123412E+04  0.00000000000E+00 0.  1.
         21   -1    0    0  501  502  0.00000000000E+00 -0.00000000000E+00 -0.25307657449E+03  0.25307657449E+03  0.00000000000E+00 0.  1.
    9000010    2    1    2  501    0  0.69080666390E+02 -0.23785993167E+03  0.10501855767E+04  0.14737557759E+04  0.10038510128E+04 0.  0.
        -13    1    3    3    0    0  0.71757685355E+01  0.17094245013E+03  0.10463799175E+04  0.10602753208E+04  0.10566000000E+00 0.  1.
          4    1    3    3  501    0  0.61904897854E+02 -0.40880238181E+03  0.38056592277E+01  0.41348045515E+03  0.00000000000E+00 0.  1.
         13    1    1    2    0    0 -0.69080666390E+02  0.23785993167E+03  0.33015018999E+03  0.41273313979E+03  0.10566000000E+00 0. -1.
<mgrwt>
<rscale>  1 0.72335772E+03</rscale>
<asrwt>0</asrwt>
<pdfrwt beam="2">  1       21 0.38934859E-01 0.10339566E+04</pdfrwt>
<pdfrwt beam="1">  1        4 0.25129420E+00 0.10339566E+04</pdfrwt>
<totfact> 0.15821499E+01</totfact>
</mgrwt>
</event>
<event>
 6    1  0.1353269E-005  0.1010161E+04  0.7818608E-02  0.9833872E-01
         21   -1    0    0  501  502  0.00000000000E+00  0.00000000000E+00  0.10823368608E+04  0.10823368608E+04  0.00000000000E+00 0.  1.
          4   -1    0    0  502    0 -0.00000000000E+00 -0.00000000000E+00 -0.33069623585E+03  0.33069623585E+03  0.00000000000E+00 0.  1.
    9000010    2    1    2  501    0  0.46184203324E+02 -0.15161117922E+03  0.53057525021E+03  0.11410241972E+04  0.99765083681E+03 0.  0.
        -13    1    3    3    0    0  0.33487109308E+03 -0.17793308131E+03  0.70656961066E+03  0.80189741007E+03  0.10566000000E+00 0.  1.
          4    1    3    3  501    0 -0.28868688975E+03  0.26321902097E+02 -0.17599436045E+03  0.33912678714E+03  0.00000000000E+00 0.  1.
         13    1    1    2    0    0 -0.46184203324E+02  0.15161117922E+03  0.22106537469E+03  0.27200889940E+03  0.10566000000E+00 0. -1.
<mgrwt>
<rscale>  1 0.63576016E+03</rscale>
<asrwt>0</asrwt>
<pdfrwt beam="1">  1       21 0.16651336E+00 0.10101614E+04</pdfrwt>
<pdfrwt beam="2">  1        4 0.50876345E-01 0.10101614E+04</pdfrwt>
<totfact> 0.29902200E+01</totfact>
</mgrwt>
</event>
<event>
 6    1  0.1353269E-005  0.1008106E+04  0.7818608E-02  0.1005868E+00
         21   -1    0    0  501  502  0.00000000000E+00  0.00000000000E+00  0.32237048915E+03  0.32237048915E+03  0.00000000000E+00 0.  1.
          4   -1    0    0  502    0 -0.00000000000E+00 -0.00000000000E+00 -0.91470170549E+03  0.91470170549E+03  0.00000000000E+00 0.  1.
    9000010    2    1    2  501    0 -0.70038635163E+01 -0.77580194910E+02 -0.54701012005E+03  0.11469514219E+04  0.10050919122E+04 0.  0.
        -13    1    3    3    0    0 -0.22117836136E+03  0.40989306460E+03 -0.33557893899E+03  0.57406047364E+03  0.10566000000E+00 0.  1.
          4    1    3    3  501    0  0.21417449785E+03 -0.48747325951E+03 -0.21143118106E+03  0.57289094825E+03  0.00000000000E+00 0.  1.
         13    1    1    2    0    0  0.70038635163E+01  0.77580194910E+02 -0.45321096288E+02  0.90120772740E+02  0.10566000000E+00 0. -1.
<mgrwt>
<rscale>  1 0.53150590E+03</rscale>
<asrwt>0</asrwt>
<pdfrwt beam="1">  1       21 0.49595461E-01 0.10081059E+04</pdfrwt>
<pdfrwt beam="2">  1        4 0.14072334E+00 0.10081059E+04</pdfrwt>
<totfact> 0.54112558E+01</totfact>
</mgrwt>
</event>
<event>
 6    1  0.1353269E-005  0.1101038E+04  0.7818608E-02  0.9439784E-01
         21   -1    0    0  501  502  0.00000000000E+00  0.00000000000E+00  0.58576959001E+03  0.58576959001E+03  0.00000000000E+00 0.  1.
          4   -1    0    0  502    0 -0.00000000000E+00 -0.00000000000E+00 -0.12056893217E+04  0.12056893217E+04  0.00000000000E+00 0.  1.
    9000010    2    1    2  501    0 -0.14001424877E+03 -0.44590942975E+03 -0.12075147524E+03  0.11076400989E+04  0.99691848236E+03 0.  0.
        -13    1    3    3    0    0 -0.13181504856E+03  0.20656286875E+03  0.25582840354E+03  0.35424794847E+03  0.10566000000E+00 0.  1.
          4    1    3    3  501    0 -0.81992002131E+01 -0.65247229850E+03 -0.37657987878E+03  0.75339215040E+03  0.00000000000E+00 0.  1.
         13    1    1    2    0    0  0.14001424877E+03  0.44590942975E+03 -0.49916825649E+03  0.68381881288E+03  0.10566000000E+00 0. -1.
<mgrwt>
<rscale>  1 0.88872663E+03</rscale>
<asrwt>0</asrwt>
<pdfrwt beam="1">  1       21 0.90118399E-01 0.11010385E+04</pdfrwt>
<pdfrwt beam="2">  1        4 0.18549066E+00 0.11010385E+04</pdfrwt>
<totfact> 0.63935611E+00</totfact>
</mgrwt>
</event>
<event>
 6    1  0.1353269E-005  0.1038567E+04  0.7818608E-02  0.9591993E-01
         21   -1    0    0  501  502  0.00000000000E+00  0.00000000000E+00  0.14091565174E+03  0.14091565174E+03  0.00000000000E+00 0.  1.
          4   -1    0    0  502    0 -0.00000000000E+00 -0.00000000000E+00 -0.36308207488E+04  0.36308207488E+04  0.00000000000E+00 0.  1.
    9000010    2    1    2  501    0  0.30590773113E+03  0.11702627264E+03 -0.20873744884E+04  0.23314701724E+04  0.98556898370E+03 0.  0.
        -13    1    3    3    0    0  0.55508474414E+03 -0.20350345906E+03 -0.90191736988E+03  0.10784190671E+04  0.10566000000E+00 0.  1.
          4    1    3    3  501    0 -0.24917701301E+03  0.32052973170E+03 -0.11854571185E+04  0.12530511053E+04  0.00000000000E+00 0.  1.
         13    1    1    2    0    0 -0.30590773113E+03 -0.11702627264E+03 -0.14025306087E+04  0.14402662282E+04  0.10566000000E+00 0. -1.
<mgrwt>
<rscale>  1 0.77828377E+03</rscale>
<asrwt>0</asrwt>
<pdfrwt beam="1">  1       21 0.21679329E-01 0.10385668E+04</pdfrwt>
<pdfrwt beam="2">  1        4 0.55858787E+00 0.10385668E+04</pdfrwt>
<totfact> 0.33590253E-01</totfact>
</mgrwt>
</event>
<event>
 6    1  0.1353269E-005  0.1038309E+04  0.7818608E-02  0.9510067E-01
         21   -1    0    0  501  502  0.00000000000E+00  0.00000000000E+00  0.10772310958E+04  0.10772310958E+04  0.00000000000E+00 0. -1.
          4   -1    0    0  502    0 -0.00000000000E+00 -0.00000000000E+00 -0.59268185359E+03  0.59268185359E+03  0.00000000000E+00 0.  1.
    9000010    2    1    2  501    0 -0.30800257354E+03  0.30750184645E+03  0.62582629968E+03  0.12123299635E+04  0.94268892650E+03 0.  0.
        -13    1    3    3    0    0 -0.59239476751E+03  0.42365426570E+03  0.39869650535E+03  0.83028513895E+03  0.10566000000E+00 0.  1.
          4    1    3    3  501    0  0.28439219397E+03 -0.11615241925E+03  0.22712979432E+03  0.38204482454E+03  0.00000000000E+00 0.  1.
         13    1    1    2    0    0  0.30800257354E+03 -0.30750184645E+03 -0.14127705745E+03  0.45758298592E+03  0.10566000000E+00 0. -1.
<mgrwt>
<rscale>  1 0.83545684E+03</rscale>
<asrwt>0</asrwt>
<pdfrwt beam="1">  1       21 0.16572786E+00 0.10383089E+04</pdfrwt>
<pdfrwt beam="2">  1        4 0.91181824E-01 0.10383089E+04</pdfrwt>
<totfact> 0.82152978E+00</totfact>
</mgrwt>
</event>
<event>
 6    1  0.1353269E-005  0.1023342E+04  0.7818608E-02  0.9751441E-01
         21   -1    0    0  501  502  0.00000000000E+00  0.00000000000E+00  0.80618308094E+03  0.80618308094E+03  0.00000000000E+00 0.  1.
          4   -1    0    0  502    0 -0.00000000000E+00 -0.00000000000E+00 -0.46441369950E+03  0.46441369950E+03  0.00000000000E+00 0.  1.
    9000010    2    1    2  501    0 -0.13225639031E+03 -0.14992577152E+03  0.27234195521E+03  0.10589610830E+04  0.10036229098E+04 0.  0.
        -13    1    3    3    0    0  0.23389299087E+03 -0.39192867813E+03 -0.11819102403E+03  0.47146913923E+03  0.10566000000E+00 0.  1.
          4    1    3    3  501    0 -0.36614938118E+03  0.24200290662E+03  0.39053297923E+03  0.58749194379E+03  0.00000000000E+00 0.  1.
         13    1    1    2    0    0  0.13225639031E+03  0.14992577152E+03  0.69427426232E+02  0.21163569742E+03  0.10566000000E+00 0. -1.
<mgrwt>
<rscale>  1 0.68034889E+03</rscale>
<asrwt>0</asrwt>
<pdfrwt beam="1">  1       21 0.12402817E+00 0.10233418E+04</pdfrwt>
<pdfrwt beam="2">  1        4 0.71448261E-01 0.10233418E+04</pdfrwt>
<totfact> 0.32036668E+01</totfact>
</mgrwt>
</event>
<event>
 6    1  0.1353269E-005  0.1019845E+04  0.7818608E-02  0.9725196E-01
         21   -1    0    0  501  502  0.00000000000E+00  0.00000000000E+00  0.46786312587E+03  0.46786312587E+03  0.00000000000E+00 0.  1.
          4   -1    0    0  502    0 -0.00000000000E+00 -0.00000000000E+00 -0.93555551683E+03  0.93555551683E+03  0.00000000000E+00 0.  1.
    9000010    2    1    2  501    0 -0.40197355426E+02 -0.21671971968E+03 -0.17142428827E+03  0.10341517147E+04  0.99574103969E+03 0.  0.
        -13    1    3    3    0    0  0.19350134094E+03 -0.85570583221E+02 -0.53912673162E+03  0.57915691965E+03  0.10566000000E+00 0.  1.
          4    1    3    3  501    0 -0.23369869636E+03 -0.13114913646E+03  0.36770244336E+03  0.45499479505E+03  0.00000000000E+00 0.  1.
         13    1    1    2    0    0  0.40197355426E+02  0.21671971968E+03 -0.29626810269E+03  0.36926692800E+03  0.10566000000E+00 0. -1.
<mgrwt>
<rscale>  1 0.69536275E+03</rscale>
<asrwt>0</asrwt>
<pdfrwt beam="1">  1       21 0.71978943E-01 0.10198448E+04</pdfrwt>
<pdfrwt beam="2">  1        4 0.14393162E+00 0.10198448E+04</pdfrwt>
<totfact> 0.22201594E+01</totfact>
</mgrwt>
</event>
<event>
 6    1  0.1353269E-005  0.1006751E+04  0.7818608E-02  0.9903702E-01
         21   -1    0    0  501  502  0.00000000000E+00  0.00000000000E+00  0.16696956374E+04  0.16696956374E+04  0.00000000000E+00 0.  1.
          4   -1    0    0  502    0 -0.00000000000E+00 -0.00000000000E+00 -0.22920244196E+03  0.22920244196E+03  0.00000000000E+00 0.  1.
    9000010    2    1    2  501    0 -0.91701903341E+02  0.88882249946E+02  0.14560924705E+04  0.17702410081E+04  0.99861837092E+03 0.  0.
        -13    1    3    3    0    0  0.38011610354E+03 -0.12338150308E+02  0.11183154310E+04  0.11812154319E+04  0.10566000000E+00 0.  1.
          4    1    3    3  501    0 -0.47181800688E+03  0.10122040025E+03  0.33777703947E+03  0.58902557622E+03  0.00000000000E+00 0.  1.
         13    1    1    2    0    0  0.91701903341E+02 -0.88882249946E+02 -0.15599275067E+02  0.12865707123E+03  0.10566000000E+00 0. -1.
<mgrwt>
<rscale>  1 0.60082230E+03</rscale>
<asrwt>0</asrwt>
<pdfrwt beam="1">  1       21 0.25687624E+00 0.10067512E+04</pdfrwt>
<pdfrwt beam="2">  1        4 0.35261915E-01 0.10067512E+04</pdfrwt>
<totfact> 0.15488059E+01</totfact>
</mgrwt>
</event>
<event>
 6    1  0.1353269E-005  0.1155614E+04  0.7818608E-02  0.9331446E-01
         21   -1    0    0  501  502  0.00000000000E+00  0.00000000000E+00  0.45419756715E+03  0.45419756715E+03  0.00000000000E+00 0. -1.
          4   -1    0    0  502    0 -0.00000000000E+00 -0.00000000000E+00 -0.16969483731E+04  0.16969483731E+04  0.00000000000E+00 0.  1.
    9000010    2    1    2  501    0  0.38568269201E+03 -0.45462252808E+03 -0.88811412833E+03  0.14574601568E+04  0.98995485839E+03 0.  0.
        -13    1    3    3    0    0  0.19287746345E+03 -0.47775923447E+03 -0.10724000146E+04  0.11897467817E+04  0.10566000000E+00 0.  1.
          4    1    3    3  501    0  0.19280522856E+03  0.23136706391E+02  0.18428588624E+03  0.26771337511E+03  0.00000000000E+00 0.  1.
         13    1    1    2    0    0 -0.38568269201E+03  0.45462252808E+03 -0.35463667764E+03  0.69368578351E+03  0.10566000000E+00 0. -1.
<mgrwt>
<rscale>  1 0.97938692E+03</rscale>
<asrwt>0</asrwt>
<pdfrwt beam="1">  1       21 0.69876548E-01 0.11556139E+04</pdfrwt>
<pdfrwt beam="2">  1        4 0.26106898E+00 0.11556139E+04</pdfrwt>
<totfact> 0.37817516E+00</totfact>
</mgrwt>
</event>
<event>
 6    1  0.1353269E-005  0.1068674E+04  0.7818608E-02  0.9519807E-01
          4   -1    0    0  502    0 -0.00000000000E+00  0.00000000000E+00  0.19230597820E+04  0.19230597820E+04  0.00000000000E+00 0.  1.
         21   -1    0    0  501  502  0.00000000000E+00 -0.00000000000E+00 -0.32273866810E+03  0.32273866810E+03  0.00000000000E+00 0.  1.
    9000010    2    1    2  501    0 -0.38539239845E+03  0.18576055347E+02  0.73120140056E+03  0.12948823350E+04  0.99659038866E+03 0.  0.
        -13    1    3    3    0    0 -0.30118077723E+03  0.43383554682E+03  0.69035963650E+03  0.86920629377E+03  0.10566000000E+00 0.  1.
          4    1    3    3  501    0 -0.84211621221E+02 -0.41525949147E+03  0.40841764059E+02  0.42567604125E+03  0.00000000000E+00 0.  1.
         13    1    1    2    0    0  0.38539239845E+03 -0.18576055347E+02  0.86911971335E+03  0.95091611507E+03  0.10566000000E+00 0. -1.
<mgrwt>
<rscale>  1 0.82839180E+03</rscale>
<asrwt>0</asrwt>
<pdfrwt beam="2">  1       21 0.49652104E-01 0.10686743E+04</pdfrwt>
<pdfrwt beam="1">  1        4 0.29585534E+00 0.10686743E+04</pdfrwt>
<totfact> 0.49903330E+00</totfact>
</mgrwt>
</event>
<event>
 6    1  0.1353269E-005  0.1015771E+04  0.7818608E-02  0.9858783E-01
          4   -1    0    0  502    0 -0.00000000000E+00  0.00000000000E+00  0.99318279982E+03  0.99318279982E+03  0.00000000000E+00 0.  1.
         21   -1    0    0  501  502  0.00000000000E+00 -0.00000000000E+00 -0.36703544570E+03  0.36703544570E+03  0.00000000000E+00 0.  1.
    9000010    2    1    2  501    0  0.10846802959E+03 -0.94326851286E+02  0.39882790628E+03  0.10912628387E+04  0.10055486145E+04 0.  0.
        -13    1    3    3    0    0 -0.16642715595E+03 -0.33557137750E+03  0.57425990775E+03  0.68562424144E+03  0.10566000000E+00 0.  1.
          4    1    3    3  501    0  0.27489518554E+03  0.24124452622E+03 -0.17543200147E+03  0.40563859728E+03  0.00000000000E+00 0.  1.
         13    1    1    2    0    0 -0.10846802959E+03  0.94326851286E+02  0.22731944784E+03  0.26895540680E+03  0.10566000000E+00 0. -1.
<mgrwt>
<rscale>  1 0.62301103E+03</rscale>
<asrwt>0</asrwt>
<pdfrwt beam="2">  1       21 0.56466992E-01 0.10157711E+04</pdfrwt>
<pdfrwt beam="1">  1        4 0.15279735E+00 0.10157711E+04</pdfrwt>
<totfact> 0.32711009E+01</totfact>
</mgrwt>
</event>
<event>
 6    1  0.1353269E-005  0.1013018E+04  0.7818608E-02  0.1008142E+00
          4   -1    0    0  502    0 -0.00000000000E+00  0.00000000000E+00  0.17023230581E+04  0.17023230581E+04  0.00000000000E+00 0.  1.
         21   -1    0    0  501  502  0.00000000000E+00 -0.00000000000E+00 -0.17773782185E+03  0.17773782185E+03  0.00000000000E+00 0.  1.
    9000010    2    1    2  501    0  0.52766543688E+02 -0.48293956559E+02  0.13238974037E+04  0.16670063525E+04  0.10104895988E+04 0.  0.
        -13    1    3    3    0    0 -0.20442964795E+03 -0.32103221718E+03  0.10945827062E+03  0.39602309226E+03  0.10566000000E+00 0.  1.
          4    1    3    3  501    0  0.25719619164E+03  0.27273826063E+03  0.12144391330E+04  0.12709832602E+04  0.00000000000E+00 0.  1.
         13    1    1    2    0    0 -0.52766543688E+02  0.48293956559E+02  0.20068783257E+03  0.21305452747E+03  0.10566000000E+00 0. -1.
<mgrwt>
<rscale>  1 0.52219882E+03</rscale>
<asrwt>0</asrwt>
<pdfrwt beam="2">  1       21 0.27344281E-01 0.10130182E+04</pdfrwt>
<pdfrwt beam="1">  1        4 0.26189584E+00 0.10130182E+04</pdfrwt>
<totfact> 0.28044355E+01</totfact>
</mgrwt>
</event>
<event>
 6    1  0.1353269E-005  0.1103726E+04  0.7818608E-02  0.9446930E-01
         21   -1    0    0  501  502  0.00000000000E+00  0.00000000000E+00  0.63509029653E+03  0.63509029653E+03  0.00000000000E+00 0.  1.
          4   -1    0    0  502    0 -0.00000000000E+00 -0.00000000000E+00 -0.11078265308E+04  0.11078265308E+04  0.00000000000E+00 0.  1.
    9000010    2    1    2  501    0  0.31886829493E+03 -0.32088215319E+03 -0.21453153430E+02  0.11039342173E+04  0.10067612292E+04 0.  0.
        -13    1    3    3    0    0 -0.32974257185E+03 -0.30301932954E+03 -0.69986630468E+02  0.45326484242E+03  0.10566000000E+00 0.  1.
          4    1    3    3  501    0  0.64861086678E+03 -0.17862823649E+02  0.48533477038E+02  0.65066937485E+03  0.00000000000E+00 0.  1.
         13    1    1    2    0    0 -0.31886829493E+03  0.32088215319E+03 -0.45128308088E+03  0.63898261009E+03  0.10566000000E+00 0. -1.
<mgrwt>
<rscale>  1 0.88312122E+03</rscale>
<asrwt>0</asrwt>
<pdfrwt beam="1">  1       21 0.97706200E-01 0.11037257E+04</pdfrwt>
<pdfrwt beam="2">  1        4 0.17043485E+00 0.11037257E+04</pdfrwt>
<totfact> 0.66962060E+00</totfact>
</mgrwt>
</event>
<event>
 6    1  0.1353269E-005  0.1016731E+04  0.7818608E-02  0.9751385E-01
         21   -1    0    0  501  502  0.00000000000E+00  0.00000000000E+00  0.10947213849E+04  0.10947213849E+04  0.00000000000E+00 0.  1.
          4   -1    0    0  502    0 -0.00000000000E+00 -0.00000000000E+00 -0.34320030276E+03  0.34320030276E+03  0.00000000000E+00 0.  1.
    9000010    2    1    2  501    0  0.29349193430E+02 -0.20176318634E+03  0.57392439355E+03  0.11675324248E+04  0.99607880959E+03 0.  0.
        -13    1    3    3    0    0 -0.34680380020E+03 -0.22363224891E+03 -0.72824289681E+02  0.41903179702E+03  0.10566000000E+00 0.  1.
          4    1    3    3  501    0  0.37615299363E+03  0.21869062570E+02  0.64674868323E+03  0.74850062777E+03  0.00000000000E+00 0.  1.
         13    1    1    2    0    0 -0.29349193430E+02  0.20176318634E+03  0.17759668859E+03  0.27038926288E+03  0.10566000000E+00 0. -1.
<mgrwt>
<rscale>  1 0.68038062E+03</rscale>
<asrwt>0</asrwt>
<pdfrwt beam="1">  1       21 0.16841867E+00 0.10167314E+04</pdfrwt>
<pdfrwt beam="2">  1        4 0.52800047E-01 0.10167314E+04</pdfrwt>
<totfact> 0.26716211E+01</totfact>
</mgrwt>
</event>
<event>
 6    1  0.1353269E-005  0.1006638E+04  0.7818608E-02  0.9773203E-01
         21   -1    0    0  501  502  0.00000000000E+00  0.00000000000E+00  0.83843022309E+03  0.83843022309E+03  0.00000000000E+00 0.  1.
          4   -1    0    0  502    0 -0.00000000000E+00 -0.00000000000E+00 -0.49959313124E+03  0.49959313124E+03  0.00000000000E+00 0.  1.
    9000010    2    1    2  501    0 -0.14362321590E+03  0.13255512619E+03  0.46138390365E+03  0.11073369398E+04  0.98748240591E+03 0.  0.
        -13    1    3    3    0    0 -0.20056947834E+03  0.50618414379E+03  0.48430498797E+03  0.72869872760E+03  0.10566000000E+00 0.  1.
          4    1    3    3  501    0  0.56946262440E+02 -0.37362901760E+03 -0.22921084320E+02  0.37863821216E+03  0.00000000000E+00 0.  1.
         13    1    1    2    0    0  0.14362321590E+03 -0.13255512619E+03 -0.12254681179E+03  0.23068641457E+03  0.10566000000E+00 0. -1.
<mgrwt>
<rscale>  1 0.66820661E+03</rscale>
<asrwt>0</asrwt>
<pdfrwt beam="1">  1       21 0.12898927E+00 0.10066380E+04</pdfrwt>
<pdfrwt beam="2">  1        4 0.76860482E-01 0.10066380E+04</pdfrwt>
<totfact> 0.24524612E+01</totfact>
</mgrwt>
</event>
<event>
 6    1  0.1353269E-005  0.1006573E+04  0.7818608E-02  0.9883882E-01
          4   -1    0    0  502    0 -0.00000000000E+00  0.00000000000E+00  0.71090058210E+03  0.71090058210E+03  0.00000000000E+00 0.  1.
         21   -1    0    0  501  502  0.00000000000E+00 -0.00000000000E+00 -0.70728157761E+03  0.70728157761E+03  0.00000000000E+00 0.  1.
    9000010    2    1    2  501    0 -0.11040612418E+03  0.79753533797E+02 -0.32882374808E+03  0.10589213445E+04  0.99731600721E+03 0.  0.
        -13    1    3    3    0    0 -0.26497292154E+03 -0.23981263880E+03 -0.53875223440E+03  0.64650965353E+03  0.10566000000E+00 0.  1.
          4    1    3    3  501    0  0.15456679736E+03  0.31956617260E+03  0.20992848632E+03  0.41241169101E+03  0.00000000000E+00 0.  1.
         13    1    1    2    0    0  0.11040612418E+03 -0.79753533797E+02  0.33244275257E+03  0.35926081517E+03  0.10566000000E+00 0. -1.
<mgrwt>
<rscale>  1 0.61048839E+03</rscale>
<asrwt>0</asrwt>
<pdfrwt beam="2">  1       21 0.10881255E+00 0.10065731E+04</pdfrwt>
<pdfrwt beam="1">  1        4 0.10936932E+00 0.10065731E+04</pdfrwt>
<totfact> 0.16526207E+01</totfact>
</mgrwt>
</event>
<event>
 6    1  0.1353269E-005  0.1008499E+04  0.7818608E-02  0.9687929E-01
          4   -1    0    0  502    0 -0.00000000000E+00  0.00000000000E+00  0.30634697089E+03  0.30634697089E+03  0.00000000000E+00 0.  1.
         21   -1    0    0  501  502  0.00000000000E+00 -0.00000000000E+00 -0.13823446704E+04  0.13823446704E+04  0.00000000000E+00 0.  1.
    9000010    2    1    2  501    0  0.40227626446E+02  0.25508595670E+03 -0.99824709339E+03  0.14190024217E+04  0.97487614916E+03 0.  0.
        -13    1    3    3    0    0 -0.26549196356E+03 -0.27373093691E+03 -0.51123710890E+03  0.63779150293E+03  0.10566000000E+00 0.  1.
          4    1    3    3  501    0  0.30571959000E+03  0.52881689360E+03 -0.48700998450E+03  0.78121091881E+03  0.00000000000E+00 0.  1.
         13    1    1    2    0    0 -0.40227626446E+02 -0.25508595670E+03 -0.77750606126E+02  0.26968921956E+03  0.10566000000E+00 0. -1.
<mgrwt>
<rscale>  1 0.71740089E+03</rscale>
<asrwt>0</asrwt>
<pdfrwt beam="2">  1       21 0.21266841E+00 0.10084992E+04</pdfrwt>
<pdfrwt beam="1">  1        4 0.47130303E-01 0.10084992E+04</pdfrwt>
<totfact> 0.16544263E+01</totfact>
</mgrwt>
</event>
<event>
 6    1  0.1353269E-005  0.1171088E+04  0.7818608E-02  0.9324868E-01
          4   -1    0    0  502    0 -0.00000000000E+00  0.00000000000E+00  0.19232277494E+04  0.19232277494E+04  0.00000000000E+00 0.  1.
         21   -1    0    0  501  502  0.00000000000E+00 -0.00000000000E+00 -0.40466048208E+03  0.40466048208E+03  0.00000000000E+00 0. -1.
    9000010    2    1    2  501    0  0.25763966556E+03 -0.52711470337E+03  0.91509239151E+03  0.14862172479E+04  0.10135183842E+04 0.  0.
        -13    1    3    3    0    0  0.27473901725E+03 -0.35563215651E+03 -0.96844177522E+02  0.45971139232E+03  0.10566000000E+00 0.  1.
          4    1    3    3  501    0 -0.17099351697E+02 -0.17148254686E+03  0.10119365690E+04  0.10265058555E+04  0.00000000000E+00 0.  1.
         13    1    1    2    0    0 -0.25763966556E+03  0.52711470337E+03  0.60347487581E+03  0.84167098363E+03  0.10566000000E+00 0. -1.
<mgrwt>
<rscale>  1 0.98525354E+03</rscale>
<asrwt>0</asrwt>
<pdfrwt beam="2">  1       21 0.62255460E-01 0.11710882E+04</pdfrwt>
<pdfrwt beam="1">  1        4 0.29588119E+00 0.11710882E+04</pdfrwt>
<totfact> 0.29893654E+00</totfact>
</mgrwt>
</event>
<event>
 6    1  0.1353269E-005  0.1030771E+04  0.7818608E-02  0.9659102E-01
         21   -1    0    0  501  502  0.00000000000E+00  0.00000000000E+00  0.59781941895E+03  0.59781941895E+03  0.00000000000E+00 0.  1.
          4   -1    0    0  502    0 -0.00000000000E+00 -0.00000000000E+00 -0.14319368161E+04  0.14319368161E+04  0.00000000000E+00 0.  1.
    9000010    2    1    2  501    0  0.32482825985E+02  0.26456380529E+03  0.12127168874E+03  0.10378805081E+04  0.99571079416E+03 0.  0.
        -13    1    3    3    0    0  0.63915974965E+02  0.64500325668E+03  0.55668031085E+02  0.65054853304E+03  0.10566000000E+00 0.  1.
          4    1    3    3  501    0 -0.31433148980E+02 -0.38043945139E+03  0.65603657658E+02  0.38733197509E+03  0.00000000000E+00 0.  1.
         13    1    1    2    0    0 -0.32482825985E+02 -0.26456380529E+03 -0.95538908593E+03  0.99187572696E+03  0.10566000000E+00 0. -1.
<mgrwt>
<rscale>  1 0.73504943E+03</rscale>
<asrwt>0</asrwt>
<pdfrwt beam="1">  1       21 0.91972219E-01 0.10307711E+04</pdfrwt>
<pdfrwt beam="2">  1        4 0.22029797E+00 0.10307711E+04</pdfrwt>
<totfact> 0.36160428E+00</totfact>
</mgrwt>
</event>
<event>
 6    1  0.1353269E-005  0.1000435E+04  0.7818608E-02  0.9912239E-01
          4   -1    0    0  502    0 -0.00000000000E+00  0.00000000000E+00  0.75970637519E+03  0.75970637519E+03  0.00000000000E+00 0.  1.
         21   -1    0    0  501  502  0.00000000000E+00 -0.00000000000E+00 -0.42827618586E+03  0.42827618586E+03  0.00000000000E+00 0.  1.
    9000010    2    1    2  501    0  0.11630548606E+03 -0.50062443529E+02  0.23198893025E+03  0.10269801092E+04  0.99238907015E+03 0.  0.
        -13    1    3    3    0    0 -0.69074672103E+02  0.31971891041E+03  0.45240907927E+03  0.55827007637E+03  0.10566000000E+00 0.  1.
          4    1    3    3  501    0  0.18538015816E+03 -0.36978135394E+03 -0.22042014902E+03  0.46871003281E+03  0.00000000000E+00 0.  1.
         13    1    1    2    0    0 -0.11630548606E+03  0.50062443529E+02  0.99441259074E+02  0.16100245187E+03  0.10566000000E+00 0. -1.
<mgrwt>
<rscale>  1 0.59671798E+03</rscale>
<asrwt>0</asrwt>
<pdfrwt beam="2">  1       21 0.65888644E-01 0.10004345E+04</pdfrwt>
<pdfrwt beam="1">  1        4 0.11687790E+00 0.10004345E+04</pdfrwt>
<totfact> 0.46494947E+01</totfact>
</mgrwt>
</event>
<event>
 6    1  0.1353269E-005  0.1011249E+04  0.7818608E-02  0.9690945E-01
          4   -1    0    0  502    0 -0.00000000000E+00  0.00000000000E+00  0.58866900926E+03  0.58866900926E+03  0.00000000000E+00 0.  1.
         21   -1    0    0  501  502  0.00000000000E+00 -0.00000000000E+00 -0.70335425761E+03  0.70335425761E+03  0.00000000000E+00 0.  1.
    9000010    2    1    2  501    0  0.54810560980E+02 -0.24755884403E+03 -0.18692400410E+03  0.10283795151E+04  0.97894548618E+03 0.  0.
        -13    1    3    3    0    0 -0.11642087473E+03 -0.52845885055E+03 -0.36651888806E+03  0.65357377798E+03  0.10566000000E+00 0.  1.
          4    1    3    3  501    0  0.17123143571E+03  0.28090000652E+03  0.17959488395E+03  0.37480573712E+03  0.00000000000E+00 0.  1.
         13    1    1    2    0    0 -0.54810560980E+02  0.24755884403E+03  0.72238755759E+02  0.26364375177E+03  0.10566000000E+00 0. -1.
<mgrwt>
<rscale>  1 0.71558471E+03</rscale>
<asrwt>0</asrwt>
<pdfrwt beam="2">  1       21 0.10820835E+00 0.10112487E+04</pdfrwt>
<pdfrwt beam="1">  1        4 0.90564463E-01 0.10112487E+04</pdfrwt>
<totfact> 0.26392995E+01</totfact>
</mgrwt>
</event>
<event>
 6    1  0.1353269E-005  0.9901071E+03  0.7818608E-02  0.9932299E-01
          4   -1    0    0  502    0 -0.00000000000E+00  0.00000000000E+00  0.85598461583E+03  0.85598461583E+03  0.00000000000E+00 0.  1.
         21   -1    0    0  501  502  0.00000000000E+00 -0.00000000000E+00 -0.48167243714E+03  0.48167243714E+03  0.00000000000E+00 0.  1.
    9000010    2    1    2  501    0 -0.10843113786E+03  0.56996379701E+02  0.50438357470E+02  0.99139102490E+03  0.98249999359E+03 0.  0.
        -13    1    3    3    0    0  0.37801713582E+03 -0.92842556847E+02 -0.18452511945E+03  0.43077398506E+03  0.10566000000E+00 0.  1.
          4    1    3    3  501    0 -0.48644827368E+03  0.14983893655E+03  0.23496347692E+03  0.56061703984E+03  0.00000000000E+00 0.  1.
         13    1    1    2    0    0  0.10843113786E+03 -0.56996379701E+02  0.32387382122E+03  0.34626602806E+03  0.10566000000E+00 0. -1.
<mgrwt>
<rscale>  1 0.58721134E+03</rscale>
<asrwt>0</asrwt>
<pdfrwt beam="2">  1       21 0.74103452E-01 0.99010713E+03</pdfrwt>
<pdfrwt beam="1">  1        4 0.13168994E+00 0.99010713E+03</pdfrwt>
<totfact> 0.26261791E+01</totfact>
</mgrwt>
</event>
<event>
 6    1  0.1353269E-005  0.1027678E+04  0.7818608E-02  0.9953652E-01
          4   -1    0    0  502    0 -0.00000000000E+00  0.00000000000E+00  0.46373815069E+03  0.46373815069E+03  0.00000000000E+00 0.  1.
         21   -1    0    0  501  502  0.00000000000E+00 -0.00000000000E+00 -0.71326629950E+03  0.71326629950E+03  0.00000000000E+00 0.  1.
    9000010    2    1    2  501    0 -0.10127614613E+03 -0.14704649581E+02 -0.28864644822E+03  0.10674447085E+04  0.10225694837E+04 0.  0.
        -13    1    3    3    0    0 -0.50296294292E+03  0.19227835580E+03 -0.13992421654E+02  0.53864504740E+03  0.10566000000E+00 0.  1.
          4    1    3    3  501    0  0.40168679679E+03 -0.20698300538E+03 -0.27465402656E+03  0.52879966106E+03  0.00000000000E+00 0.  1.
         13    1    1    2    0    0  0.10127614613E+03  0.14704649581E+02  0.39118299407E+02  0.10955974173E+03  0.10566000000E+00 0. -1.
<mgrwt>
<rscale>  1 0.57730069E+03</rscale>
<asrwt>0</asrwt>
<pdfrwt beam="2">  1       21 0.10973328E+00 0.10276777E+04</pdfrwt>
<pdfrwt beam="1">  1        4 0.71344331E-01 0.10276777E+04</pdfrwt>
<totfact> 0.44038689E+01</totfact>
</mgrwt>
</event>
<event>
 6    1  0.1353269E-005  0.1103975E+04  0.7818608E-02  0.9436441E-01
          4   -1    0    0  502    0 -0.00000000000E+00  0.00000000000E+00  0.90685744666E+03  0.90685744666E+03  0.00000000000E+00 0.  1.
         21   -1    0    0  501  502  0.00000000000E+00 -0.00000000000E+00 -0.78466346298E+03  0.78466346298E+03  0.00000000000E+00 0.  1.
    9000010    2    1    2  501    0 -0.46306016888E+03  0.75560319142E+02 -0.20055844297E+03  0.11220446398E+04  0.99931296540E+03 0.  0.
        -13    1    3    3    0    0 -0.16673940341E+03 -0.92576366825E+02 -0.58090937728E+03  0.61141485762E+03  0.10566000000E+00 0.  1.
          4    1    3    3  501    0 -0.29632076547E+03  0.16813668597E+03  0.38035093431E+03  0.51062978217E+03  0.00000000000E+00 0.  1.
         13    1    1    2    0    0  0.46306016888E+03 -0.75560319142E+02  0.32275242666E+03  0.56947626984E+03  0.10566000000E+00 0. -1.
<mgrwt>
<rscale>  1 0.89136443E+03</rscale>
<asrwt>0</asrwt>
<pdfrwt beam="2">  1       21 0.12071746E+00 0.11039749E+04</pdfrwt>
<pdfrwt beam="1">  1        4 0.13951653E+00 0.11039749E+04</pdfrwt>
<totfact> 0.67574331E+00</totfact>
</mgrwt>
</event>
<event>
 6    1  0.1353269E-005  0.1007904E+04  0.7818608E-02  0.9847914E-01
         21   -1    0    0  501  502  0.00000000000E+00  0.00000000000E+00  0.43957749655E+03  0.43957749655E+03  0.00000000000E+00 0.  1.
          4   -1    0    0  502    0 -0.00000000000E+00 -0.00000000000E+00 -0.80262567502E+03  0.80262567502E+03  0.00000000000E+00 0.  1.
    9000010    2    1    2  501    0  0.14449019948E+02  0.15173891555E+03 -0.21678677791E+03  0.10309547843E+04  0.99631209342E+03 0.  0.
        -13    1    3    3    0    0 -0.11763975046E+03 -0.27892607750E+03  0.24232037469E+03  0.38776029032E+03  0.10566000000E+00 0.  1.
          4    1    3    3  501    0  0.13208877040E+03  0.43066499305E+03 -0.45910715260E+03  0.64319449397E+03  0.00000000000E+00 0.  1.
         13    1    1    2    0    0 -0.14449019948E+02 -0.15173891555E+03 -0.14626140056E+03  0.21124838727E+03  0.10566000000E+00 0. -1.
<mgrwt>
<rscale>  1 0.62853403E+03</rscale>
<asrwt>0</asrwt>
<pdfrwt beam="1">  1       21 0.67627307E-01 0.10079044E+04</pdfrwt>
<pdfrwt beam="2">  1        4 0.12348087E+00 0.10079044E+04</pdfrwt>
<totfact> 0.38134543E+01</totfact>
</mgrwt>
</event>
<event>
 6    1  0.1353269E-005  0.1039462E+04  0.7818608E-02  0.9626850E-01
         21   -1    0    0  501  502  0.00000000000E+00  0.00000000000E+00  0.83997418592E+03  0.83997418592E+03  0.00000000000E+00 0.  1.
          4   -1    0    0  502    0 -0.00000000000E+00 -0.00000000000E+00 -0.53246048768E+03  0.53246048768E+03  0.00000000000E+00 0.  1.
    9000010    2    1    2  501    0  0.28756248770E+03  0.37429184542E+02  0.17697619828E+03  0.10544202427E+04  0.99819253920E+03 0.  0.
        -13    1    3    3    0    0 -0.25583087509E+03 -0.24750804626E+03 -0.11614337942E+03  0.37443152292E+03  0.10566000000E+00 0.  1.
          4    1    3    3  501    0  0.54339336279E+03  0.28493723080E+03  0.29311957770E+03  0.67998871980E+03  0.00000000000E+00 0.  1.
         13    1    1    2    0    0 -0.28756248770E+03 -0.37429184542E+02  0.13053749996E+03  0.31801443088E+03  0.10566000000E+00 0. -1.
<mgrwt>
<rscale>  1 0.75544286E+03</rscale>
<asrwt>0</asrwt>
<pdfrwt beam="1">  1       21 0.12922680E+00 0.10394621E+04</pdfrwt>
<pdfrwt beam="2">  1        4 0.81916998E-01 0.10394621E+04</pdfrwt>
<totfact> 0.21016047E+01</totfact>
</mgrwt>
</event>
<event>
 6    1  0.1353269E-005  0.1003372E+04  0.7818608E-02  0.1041327E+00
         21   -1    0    0  501  502  0.00000000000E+00  0.00000000000E+00  0.78322238085E+03  0.78322238085E+03  0.00000000000E+00 0.  1.
          4   -1    0    0  502    0 -0.00000000000E+00 -0.00000000000E+00 -0.45096105644E+03  0.45096105644E+03  0.00000000000E+00 0.  1.
    9000010    2    1    2  501    0  0.26323987241E+02  0.68783287213E+01  0.45984816625E+03  0.11037277855E+04  0.10030027043E+04 0.  0.
        -13    1    3    3    0    0 -0.32792298579E+03  0.23136060995E+03 -0.90890312782E+02  0.41148788144E+03  0.10566000000E+00 0.  1.
          4    1    3    3  501    0  0.35424697304E+03 -0.22448228123E+03  0.55073847903E+03  0.69223990406E+03  0.00000000000E+00 0.  1.
         13    1    1    2    0    0 -0.26323987241E+02 -0.68783287213E+01 -0.12758684184E+03  0.13045565179E+03  0.10566000000E+00 0. -1.
<mgrwt>
<rscale>  1 0.40716506E+03</rscale>
<asrwt>0</asrwt>
<pdfrwt beam="1">  1       21 0.12049575E+00 0.10033717E+04</pdfrwt>
<pdfrwt beam="2">  1        4 0.69378624E-01 0.10033717E+04</pdfrwt>
<totfact> 0.36976560E+01</totfact>
</mgrwt>
</event>
<event>
 6    1  0.1353269E-005  0.1005904E+04  0.7818608E-02  0.1000389E+00
          4   -1    0    0  502    0 -0.00000000000E+00  0.00000000000E+00  0.62643623179E+03  0.62643623179E+03  0.00000000000E+00 0.  1.
         21   -1    0    0  501  502  0.00000000000E+00 -0.00000000000E+00 -0.57298131463E+03  0.57298131463E+03  0.00000000000E+00 0.  1.
    9000010    2    1    2  501    0 -0.92014260001E+02 -0.14069703343E+02 -0.10940225565E+03  0.10118354298E+04  0.10015874913E+04 0.  0.
        -13    1    3    3    0    0  0.44366216356E+03  0.66269519473E+02 -0.13823729179E+03  0.46940102747E+03  0.10566000000E+00 0.  1.
          4    1    3    3  501    0 -0.53567642356E+03 -0.80339222816E+02  0.28835036144E+02  0.54243440229E+03  0.00000000000E+00 0.  1.
         13    1    1    2    0    0  0.92014260001E+02  0.14069703343E+02  0.16285717280E+03  0.18758211667E+03  0.10566000000E+00 0. -1.
<mgrwt>
<rscale>  1 0.55479915E+03</rscale>
<asrwt>0</asrwt>
<pdfrwt beam="2">  1       21 0.88150971E-01 0.10059036E+04</pdfrwt>
<pdfrwt beam="1">  1        4 0.96374805E-01 0.10059036E+04</pdfrwt>
<totfact> 0.37767263E+01</totfact>
</mgrwt>
</event>
<event>
 6    1  0.1353269E-005  0.1019226E+04  0.7818608E-02  0.9747146E-01
          4   -1    0    0  502    0 -0.00000000000E+00  0.00000000000E+00  0.18883739020E+04  0.18883739020E+04  0.00000000000E+00 0.  1.
         21   -1    0    0  501  502  0.00000000000E+00 -0.00000000000E+00 -0.21425758088E+03  0.21425758088E+03  0.00000000000E+00 0.  1.
    9000010    2    1    2  501    0 -0.48299654779E+01 -0.20520433496E+03  0.11334500790E+04  0.15243131068E+04  0.99834323665E+03 0.  0.
        -13    1    3    3    0    0  0.49114500313E+03 -0.30129297547E+02  0.51110705537E+03  0.70947982486E+03  0.10566000000E+00 0.  1.
          4    1    3    3  501    0 -0.49597496861E+03 -0.17507503742E+03  0.62234302367E+03  0.81483328192E+03  0.00000000000E+00 0.  1.
         13    1    1    2    0    0  0.48299654779E+01  0.20520433496E+03  0.54066624209E+03  0.57831837612E+03  0.10566000000E+00 0. -1.
<mgrwt>
<rscale>  1 0.68277804E+03</rscale>
<asrwt>0</asrwt>
<pdfrwt beam="2">  1       21 0.32962706E-01 0.10192259E+04</pdfrwt>
<pdfrwt beam="1">  1        4 0.29051905E+00 0.10192259E+04</pdfrwt>
<totfact> 0.12805255E+01</totfact>
</mgrwt>
</event>
<event>
 6    1  0.1353269E-005  0.1112935E+04  0.7818608E-02  0.9691689E-01
         21   -1    0    0  501  502  0.00000000000E+00  0.00000000000E+00  0.57291522276E+03  0.57291522276E+03  0.00000000000E+00 0.  1.
          4   -1    0    0  502    0 -0.00000000000E+00 -0.00000000000E+00 -0.87858028385E+03  0.87858028385E+03  0.00000000000E+00 0.  1.
    9000010    2    1    2  501    0 -0.13659055002E+03 -0.13169181335E+03 -0.25622474328E+02  0.11132299695E+04  0.10966424858E+04 0.  0.
        -13    1    3    3    0    0 -0.17213196745E+03 -0.37440924959E+03 -0.45800982519E+03  0.61610446479E+03  0.10566000000E+00 0.  1.
          4    1    3    3  501    0  0.35541417428E+02  0.24271743624E+03  0.43238735087E+03  0.49712550467E+03  0.00000000000E+00 0.  1.
         13    1    1    2    0    0  0.13659055002E+03  0.13169181335E+03 -0.28004258676E+03  0.33826553714E+03  0.10566000000E+00 0. -1.
<mgrwt>
<rscale>  1 0.71513785E+03</rscale>
<asrwt>0</asrwt>
<pdfrwt beam="1">  1       21 0.88140804E-01 0.11129351E+04</pdfrwt>
<pdfrwt beam="2">  1        4 0.13516620E+00 0.11129351E+04</pdfrwt>
<totfact> 0.16115747E+01</totfact>
</mgrwt>
</event>
<event>
 6    1  0.1353269E-005  0.1064279E+04  0.7818608E-02  0.9549386E-01
          4   -1    0    0  502    0 -0.00000000000E+00  0.00000000000E+00  0.11344049293E+04  0.11344049293E+04  0.00000000000E+00 0.  1.
         21   -1    0    0  501  502  0.00000000000E+00 -0.00000000000E+00 -0.50439179748E+03  0.50439179748E+03  0.00000000000E+00 0.  1.
    9000010    2    1    2  501    0  0.25291180843E+03 -0.24554498552E+03  0.20023883987E+03  0.10829526156E+04  0.10042081716E+04 0.  0.
        -13    1    3    3    0    0  0.34361925139E+02  0.17375331044E+03 -0.32875982384E+03  0.37343538628E+03  0.10566000000E+00 0.  1.
          4    1    3    3  501    0  0.21854988329E+03 -0.41929829596E+03  0.52899866371E+03  0.70951722931E+03  0.00000000000E+00 0.  1.
         13    1    1    2    0    0 -0.25291180843E+03  0.24554498552E+03  0.42977429192E+03  0.55584411116E+03  0.10566000000E+00 0. -1.
<mgrwt>
<rscale>  1 0.80738700E+03</rscale>
<asrwt>0</asrwt>
<pdfrwt beam="2">  1       21 0.77598738E-01 0.10642795E+04</pdfrwt>
<pdfrwt beam="1">  1        4 0.17452383E+00 0.10642795E+04</pdfrwt>
<totfact> 0.10933506E+01</totfact>
</mgrwt>
</event>
<event>
 6    1  0.1353269E-005  0.1066334E+04  0.7818608E-02  0.9453155E-01
         21   -1    0    0  501  502  0.00000000000E+00  0.00000000000E+00  0.40727350853E+03  0.40727350853E+03  0.00000000000E+00 0.  1.
          4   -1    0    0  502    0 -0.00000000000E+00 -0.00000000000E+00 -0.20280767070E+04  0.20280767070E+04  0.00000000000E+00 0.  1.
    9000010    2    1    2  501    0  0.43968553950E+03  0.21792204081E+03 -0.43432390797E+03  0.11513928535E+04  0.94670737644E+03 0.  0.
        -13    1    3    3    0    0 -0.17306669202E+03 -0.12614615872E+03  0.12963410170E+03  0.25033965874E+03  0.10566000000E+00 0.  1.
          4    1    3    3  501    0  0.61275223153E+03  0.34406819953E+03 -0.56395800967E+03  0.90105319479E+03  0.00000000000E+00 0.  1.
         13    1    1    2    0    0 -0.43968553950E+03 -0.21792204081E+03 -0.11864792905E+04  0.12839573621E+04  0.10566000000E+00 0. -1.
<mgrwt>
<rscale>  1 0.87827401E+03</rscale>
<asrwt>0</asrwt>
<pdfrwt beam="1">  1       21 0.62657463E-01 0.10663340E+04</pdfrwt>
<pdfrwt beam="2">  1        4 0.31201180E+00 0.10663340E+04</pdfrwt>
<totfact> 0.23718827E+00</totfact>
</mgrwt>
</event>
<event>
 6    1  0.1353269E-005  0.1031144E+04  0.7818608E-02  0.9507268E-01
         21   -1    0    0  501  502  0.00000000000E+00  0.00000000000E+00  0.29172269566E+03  0.29172269566E+03  0.00000000000E+00 0.  1.
          4   -1    0    0  502    0 -0.00000000000E+00 -0.00000000000E+00 -0.18880850211E+04  0.18880850211E+04  0.00000000000E+00 0.  1.
    9000010    2    1    2  501    0 -0.12111206701E+03  0.43207488863E+03 -0.11879397294E+04  0.15730409821E+04  0.92838585112E+03 0.  0.
        -13    1    3    3    0    0  0.13523889416E+03  0.64439670050E+03 -0.56880376664E+03  0.87010022539E+03  0.10566000000E+00 0.  1.
          4    1    3    3  501    0 -0.25635096116E+03 -0.21232181187E+03 -0.61913596276E+03  0.70294075673E+03  0.00000000000E+00 0.  1.
         13    1    1    2    0    0  0.12111206701E+03 -0.43207488863E+03 -0.40842259605E+03  0.60676673466E+03  0.10566000000E+00 0. -1.
<mgrwt>
<rscale>  1 0.83750078E+03</rscale>
<asrwt>0</asrwt>
<pdfrwt beam="1">  1       21 0.44880414E-01 0.10311436E+04</pdfrwt>
<pdfrwt beam="2">  1        4 0.29047462E+00 0.10311436E+04</pdfrwt>
<totfact> 0.67252950E+00</totfact>
</mgrwt>
</event>
<event>
 6    1  0.1353269E-005  0.1017656E+04  0.7818608E-02  0.9706757E-01
          4   -1    0    0  502    0 -0.00000000000E+00  0.00000000000E+00  0.64282420022E+03  0.64282420022E+03  0.00000000000E+00 0.  1.
         21   -1    0    0  501  502  0.00000000000E+00 -0.00000000000E+00 -0.68991187877E+03  0.68991187877E+03  0.00000000000E+00 0.  1.
    9000010    2    1    2  501    0  0.95321851470E+02 -0.21583018455E+03 -0.21881558371E+03  0.10409152290E+04  0.98992693180E+03 0.  0.
        -13    1    3    3    0    0 -0.39580237509E+03 -0.30402340968E+03 -0.77973747365E+01  0.49914984120E+03  0.10566000000E+00 0.  1.
          4    1    3    3  501    0  0.49112422656E+03  0.88193225129E+02 -0.21101820898E+03  0.54176538777E+03  0.00000000000E+00 0.  1.
         13    1    1    2    0    0 -0.95321851470E+02  0.21583018455E+03  0.17172790516E+03  0.29182085002E+03  0.10566000000E+00 0. -1.
<mgrwt>
<rscale>  1 0.70615891E+03</rscale>
<asrwt>0</asrwt>
<pdfrwt beam="2">  1       21 0.10614029E+00 0.10176563E+04</pdfrwt>
<pdfrwt beam="1">  1        4 0.98896031E-01 0.10176563E+04</pdfrwt>
<totfact> 0.22461706E+01</totfact>
</mgrwt>
</event>
<event>
 6    1  0.1353269E-005  0.1308687E+04  0.7818608E-02  0.9147824E-01
         21   -1    0    0  501  502  0.00000000000E+00  0.00000000000E+00  0.90546731679E+03  0.90546731679E+03  0.00000000000E+00 0. -1.
          4   -1    0    0  502    0 -0.00000000000E+00 -0.00000000000E+00 -0.14159086344E+04  0.14159086344E+04  0.00000000000E+00 0.  1.
    9000010    2    1    2  501    0 -0.22677592814E+03 -0.77785015886E+03 -0.70726784893E+03  0.14875780825E+04  0.10277074244E+04 0.  0.
        -13    1    3    3    0    0 -0.17198318213E+03 -0.10311522087E+04 -0.51821961871E+03  0.11667924737E+04  0.10566000000E+00 0.  1.
          4    1    3    3  501    0 -0.54792746017E+02  0.25330204981E+03 -0.18904823022E+03  0.32078560879E+03  0.00000000000E+00 0.  1.
         13    1    1    2    0    0  0.22677592814E+03  0.77785015886E+03  0.19682653131E+03  0.83379786868E+03  0.10566000000E+00 0. -1.
<mgrwt>
<rscale>  1 0.11608587E+04</rscale>
<asrwt>0</asrwt>
<pdfrwt beam="1">  1       21 0.13930267E+00 0.13086866E+04</pdfrwt>
<pdfrwt beam="2">  1        4 0.21783209E+00 0.13086866E+04</pdfrwt>
<totfact> 0.12445101E+00</totfact>
</mgrwt>
</event>
<event>
 6    1  0.1353269E-005  0.9238213E+03  0.7818608E-02  0.1002123E+00
          4   -1    0    0  502    0 -0.00000000000E+00  0.00000000000E+00  0.63462906838E+03  0.63462906838E+03  0.00000000000E+00 0.  1.
         21   -1    0    0  501  502  0.00000000000E+00 -0.00000000000E+00 -0.50762056460E+03  0.50762056460E+03  0.00000000000E+00 0.  1.
    9000010    2    1    2  501    0 -0.79152846370E+02  0.81752626351E+02 -0.57351143532E+02  0.92559978709E+03  0.91678631490E+03 0.  0.
        -13    1    3    3    0    0  0.37055592118E+03  0.20101536804E+03 -0.15689338069E+03  0.44981597679E+03  0.10566000000E+00 0.  1.
          4    1    3    3  501    0 -0.44970876754E+03 -0.11926274169E+03  0.99542237163E+02  0.47578381030E+03  0.00000000000E+00 0.  1.
         13    1    1    2    0    0  0.79152846370E+02 -0.81752626351E+02  0.18435964732E+03  0.21664984589E+03  0.10566000000E+00 0. -1.
<mgrwt>
<rscale>  1 0.54729207E+03</rscale>
<asrwt>0</asrwt>
<pdfrwt beam="2">  1       21 0.78095472E-01 0.92382131E+03</pdfrwt>
<pdfrwt beam="1">  1        4 0.97635241E-01 0.92382131E+03</pdfrwt>
<totfact> 0.49131399E+01</totfact>
</mgrwt>
</event>
<event>
 6    1  0.1353269E-005  0.1020269E+04  0.7818608E-02  0.9771061E-01
          4   -1    0    0  502    0 -0.00000000000E+00  0.00000000000E+00  0.10297599482E+04  0.10297599482E+04  0.00000000000E+00 0.  1.
         21   -1    0    0  501  502  0.00000000000E+00 -0.00000000000E+00 -0.38174547055E+03  0.38174547055E+03  0.00000000000E+00 0.  1.
    9000010    2    1    2  501    0 -0.42854712616E+02  0.18412655453E+03  0.39138887867E+03  0.10927644209E+04  0.10026014716E+04 0.  0.
        -13    1    3    3    0    0 -0.19564417011E+03 -0.37908469418E+03  0.24168950456E+03  0.49030161578E+03  0.10566000000E+00 0.  1.
          4    1    3    3  501    0  0.15278945749E+03  0.56321124870E+03  0.14969937411E+03  0.60246280515E+03  0.00000000000E+00 0.  1.
         13    1    1    2    0    0  0.42854712616E+02 -0.18412655453E+03  0.25662559902E+03  0.31874099785E+03  0.10566000000E+00 0. -1.
<mgrwt>
<rscale>  1 0.66938967E+03</rscale>
<asrwt>0</asrwt>
<pdfrwt beam="2">  1       21 0.58730073E-01 0.10202690E+04</pdfrwt>
<pdfrwt beam="1">  1        4 0.15842461E+00 0.10202690E+04</pdfrwt>
<totfact> 0.27161652E+01</totfact>
</mgrwt>
</event>
<event>
 6    1  0.1353269E-005  0.1022554E+04  0.7818608E-02  0.9662389E-01
         21   -1    0    0  501  502  0.00000000000E+00  0.00000000000E+00  0.26313768886E+04  0.26313768886E+04  0.00000000000E+00 0.  1.
          4   -1    0    0  502    0 -0.00000000000E+00 -0.00000000000E+00 -0.25889821943E+03  0.25889821943E+03  0.00000000000E+00 0.  1.
    9000010    2    1    2  501    0 -0.23234093218E+03 -0.13756102859E+03  0.24097260131E+04  0.26177081968E+04  0.98626132444E+03 0.  0.
        -13    1    3    3    0    0 -0.46549873715E+03 -0.57717079084E+02  0.47577845118E+03  0.66812085829E+03  0.10566000000E+00 0.  1.
          4    1    3    3  501    0  0.23315780497E+03 -0.79843949502E+02  0.19339475619E+04  0.19495873385E+04  0.00000000000E+00 0.  1.
         13    1    1    2    0    0  0.23234093218E+03  0.13756102859E+03 -0.37247343828E+02  0.27256691131E+03  0.10566000000E+00 0. -1.
<mgrwt>
<rscale>  1 0.73300954E+03</rscale>
<asrwt>0</asrwt>
<pdfrwt beam="1">  1       21 0.40482720E+00 0.10225540E+04</pdfrwt>
<pdfrwt beam="2">  1        4 0.39830497E-01 0.10225540E+04</pdfrwt>
<totfact> 0.14002252E+00</totfact>
</mgrwt>
</event>
<event>
 6    1  0.1353269E-005  0.1017742E+04  0.7818608E-02  0.1029578E+00
          4   -1    0    0  502    0 -0.00000000000E+00  0.00000000000E+00  0.22249688217E+03  0.22249688217E+03  0.00000000000E+00 0.  1.
         21   -1    0    0  501  502  0.00000000000E+00 -0.00000000000E+00 -0.16227546285E+04  0.16227546285E+04  0.00000000000E+00 0.  1.
    9000010    2    1    2  501    0  0.36742173554E+02  0.22217193594E+01 -0.14572150907E+04  0.17774350407E+04  0.10170764867E+04 0.  0.
        -13    1    3    3    0    0  0.48628759198E+03 -0.15898669100E+03 -0.54339273984E+03  0.74634313215E+03  0.10566000000E+00 0.  1.
          4    1    3    3  501    0 -0.44954541843E+03  0.16120841036E+03 -0.91382235090E+03  0.10310919085E+04  0.00000000000E+00 0.  1.
         13    1    1    2    0    0 -0.36742173554E+02 -0.22217193594E+01  0.56957344429E+02  0.67816469996E+02  0.10566000000E+00 0. -1.
<mgrwt>
<rscale>  1 0.44383155E+03</rscale>
<asrwt>0</asrwt>
<pdfrwt beam="2">  1       21 0.24965457E+00 0.10177424E+04</pdfrwt>
<pdfrwt beam="1">  1        4 0.34230288E-01 0.10177424E+04</pdfrwt>
<totfact> 0.18232779E+01</totfact>
</mgrwt>
</event>
<event>
 6    1  0.1353269E-005  0.1013109E+04  0.7818608E-02  0.9817801E-01
          4   -1    0    0  502    0 -0.00000000000E+00  0.00000000000E+00  0.20945650771E+03  0.20945650771E+03  0.00000000000E+00 0.  1.
         21   -1    0    0  501  502  0.00000000000E+00 -0.00000000000E+00 -0.17879740660E+04  0.17879740660E+04  0.00000000000E+00 0.  1.
    9000010    2    1    2  501    0  0.14514852633E+03 -0.79675067632E+02 -0.15096865283E+04  0.18181153960E+04  0.99948685251E+03 0.  0.
        -13    1    3    3    0    0 -0.33080264789E+02 -0.49146096677E+03 -0.44932148799E+03  0.66672182843E+03  0.10566000000E+00 0.  1.
          4    1    3    3  501    0  0.17822879112E+03  0.41178589914E+03 -0.10603650404E+04  0.11513935676E+04  0.00000000000E+00 0.  1.
         13    1    1    2    0    0 -0.14514852633E+03  0.79675067632E+02 -0.68831029958E+02  0.17931517769E+03  0.10566000000E+00 0. -1.
<mgrwt>
<rscale>  1 0.64415908E+03</rscale>
<asrwt>0</asrwt>
<pdfrwt beam="2">  1       21 0.27507292E+00 0.10131092E+04</pdfrwt>
<pdfrwt beam="1">  1        4 0.32224079E-01 0.10131092E+04</pdfrwt>
<totfact> 0.14226565E+01</totfact>
</mgrwt>
</event>
<event>
 6    1  0.1353269E-005  0.9989404E+03  0.7818608E-02  0.9900326E-01
          4   -1    0    0  502    0 -0.00000000000E+00  0.00000000000E+00  0.82638583041E+03  0.82638583041E+03  0.00000000000E+00 0.  1.
         21   -1    0    0  501  502  0.00000000000E+00 -0.00000000000E+00 -0.39168488616E+03  0.39168488616E+03  0.00000000000E+00 0.  1.
    9000010    2    1    2  501    0 -0.94652802144E+02 -0.92224876491E+02  0.33896375971E+03  0.10548830931E+04  0.99016025412E+03 0.  0.
        -13    1    3    3    0    0  0.39435759415E+03 -0.26811344304E+03  0.12578932758E+03  0.49317917281E+03  0.10566000000E+00 0.  1.
          4    1    3    3  501    0 -0.48901039629E+03  0.17588856654E+03  0.21317443213E+03  0.56170392026E+03  0.00000000000E+00 0.  1.
         13    1    1    2    0    0  0.94652802144E+02  0.92224876491E+02  0.95737184541E+02  0.16318762351E+03  0.10566000000E+00 0. -1.
<mgrwt>
<rscale>  1 0.60245482E+03</rscale>
<asrwt>0</asrwt>
<pdfrwt beam="2">  1       21 0.60259213E-01 0.99894039E+03</pdfrwt>
<pdfrwt beam="1">  1        4 0.12713628E+00 0.99894039E+03</pdfrwt>
<totfact> 0.45948577E+01</totfact>
</mgrwt>
</event>
<event>
 6    1  0.1353269E-005  0.1263058E+04  0.7818608E-02  0.9185166E-01
         21   -1    0    0  501  502  0.00000000000E+00  0.00000000000E+00  0.16070059062E+04  0.16070059062E+04  0.00000000000E+00 0. -1.
          4   -1    0    0  502    0 -0.00000000000E+00 -0.00000000000E+00 -0.91494017184E+03  0.91494017184E+03  0.00000000000E+00 0.  1.
    9000010    2    1    2  501    0  0.60809096725E+03  0.49343927206E+03  0.10672679234E+04  0.16535949776E+04  0.99098869312E+03 0.  0.
        -13    1    3    3    0    0  0.71118098908E+03  0.71118818536E+03  0.74699317326E+03  0.12528231504E+04  0.10566000000E+00 0.  1.
          4    1    3    3  501    0 -0.10309002183E+03 -0.21774891330E+03  0.32027475018E+03  0.40077182716E+03  0.00000000000E+00 0.  1.
         13    1    1    2    0    0 -0.60809096725E+03 -0.49343927206E+03 -0.37520218912E+03  0.86835110039E+03  0.10566000000E+00 0. -1.
<mgrwt>
<rscale>  1 0.11207862E+04</rscale>
<asrwt>0</asrwt>
<pdfrwt beam="1">  1       21 0.24723168E+00 0.12630580E+04</pdfrwt>
<pdfrwt beam="2">  1        4 0.14076003E+00 0.12630580E+04</pdfrwt>
<totfact> 0.74197588E-01</totfact>
</mgrwt>
</event>
<event>
 6    1  0.1353269E-005  0.1026666E+04  0.7818608E-02  0.9741741E-01
         21   -1    0    0  501  502  0.00000000000E+00  0.00000000000E+00  0.82331891384E+03  0.82331891384E+03  0.00000000000E+00 0.  1.
          4   -1    0    0  502    0 -0.00000000000E+00 -0.00000000000E+00 -0.46084687315E+03  0.46084687315E+03  0.00000000000E+00 0.  1.
    9000010    2    1    2  501    0  0.16256192606E+03  0.12402237477E+03  0.31947176022E+03  0.10752232960E+04  0.10060989024E+04 0.  0.
        -13    1    3    3    0    0  0.53912086690E+02  0.25100537135E+03  0.65328110683E+03  0.70191625230E+03  0.10566000000E+00 0.  1.
          4    1    3    3  501    0  0.10864983937E+03 -0.12698299659E+03 -0.33380934661E+03  0.37330704373E+03  0.00000000000E+00 0.  1.
         13    1    1    2    0    0 -0.16256192606E+03 -0.12402237477E+03  0.43000280472E+02  0.20894249096E+03  0.10566000000E+00 0. -1.
<mgrwt>
<rscale>  1 0.68585010E+03</rscale>
<asrwt>0</asrwt>
<pdfrwt beam="1">  1       21 0.12666445E+00 0.10266659E+04</pdfrwt>
<pdfrwt beam="2">  1        4 0.70899519E-01 0.10266659E+04</pdfrwt>
<totfact> 0.30830216E+01</totfact>
</mgrwt>
</event>
<event>
 6    1  0.1353269E-005  0.1019335E+04  0.7818608E-02  0.9650029E-01
         21   -1    0    0  501  502  0.00000000000E+00  0.00000000000E+00  0.54873028897E+03  0.54873028897E+03  0.00000000000E+00 0.  1.
          4   -1    0    0  502    0 -0.00000000000E+00 -0.00000000000E+00 -0.79873346124E+03  0.79873346124E+03  0.00000000000E+00 0.  1.
    9000010    2    1    2  501    0  0.19070436371E+02  0.28358016790E+03 -0.29157908029E+03  0.10602182795E+04  0.97890911063E+03 0.  0.
        -13    1    3    3    0    0 -0.33165147613E+03  0.36267167726E+03  0.12782753806E+03  0.50780245938E+03  0.10566000000E+00 0.  1.
          4    1    3    3  501    0  0.35072191250E+03 -0.79091509354E+02 -0.41940661835E+03  0.55241582008E+03  0.00000000000E+00 0.  1.
         13    1    1    2    0    0 -0.19070436371E+02 -0.28358016790E+03  0.41575908014E+02  0.28724547074E+03  0.10566000000E+00 0. -1.
<mgrwt>
<rscale>  1 0.74071608E+03</rscale>
<asrwt>0</asrwt>
<pdfrwt beam="1">  1       21 0.84420045E-01 0.10193353E+04</pdfrwt>
<pdfrwt beam="2">  1        4 0.12288207E+00 0.10193353E+04</pdfrwt>
<totfact> 0.23018974E+01</totfact>
</mgrwt>
</event>
<event>
 6    1  0.1353269E-005  0.1117551E+04  0.7818608E-02  0.9388385E-01
          4   -1    0    0  502    0 -0.00000000000E+00  0.00000000000E+00  0.91032296881E+03  0.91032296881E+03  0.00000000000E+00 0.  1.
         21   -1    0    0  501  502  0.00000000000E+00 -0.00000000000E+00 -0.13586607356E+04  0.13586607356E+04  0.00000000000E+00 0.  1.
    9000010    2    1    2  501    0  0.39716934817E+03 -0.36116641091E+03 -0.99970597556E+03  0.14994438547E+04  0.98017098927E+03 0.  0.
        -13    1    3    3    0    0 -0.14134390185E+03  0.17099117242E+03  0.27321602680E+02  0.22352306542E+03  0.10566000000E+00 0.  1.
          4    1    3    3  501    0  0.53851325003E+03 -0.53215758333E+03 -0.10270275782E+04  0.12759207892E+04  0.00000000000E+00 0.  1.
         13    1    1    2    0    0 -0.39716934817E+03  0.36116641091E+03  0.55136820879E+03  0.76953984974E+03  0.10566000000E+00 0. -1.
<mgrwt>
<rscale>  1 0.93037776E+03</rscale>
<asrwt>0</asrwt>
<pdfrwt beam="2">  1       21 0.20902473E+00 0.11175508E+04</pdfrwt>
<pdfrwt beam="1">  1        4 0.14004969E+00 0.11175508E+04</pdfrwt>
<totfact> 0.13715329E+00</totfact>
</mgrwt>
</event>
<event>
 6    1  0.1353269E-005  0.1182670E+04  0.7818608E-02  0.9299655E-01
          4   -1    0    0  502    0 -0.00000000000E+00  0.00000000000E+00  0.19073725299E+04  0.19073725299E+04  0.00000000000E+00 0.  1.
         21   -1    0    0  501  502  0.00000000000E+00 -0.00000000000E+00 -0.44543544662E+03  0.44543544662E+03  0.00000000000E+00 0. -1.
    9000010    2    1    2  501    0  0.60889880836E+03  0.13853406195E+03  0.72636725309E+03  0.13879181220E+04  0.10043693951E+04 0.  0.
        -13    1    3    3    0    0 -0.36775039905E+02 -0.19650156884E+02  0.72193188236E+03  0.72313497091E+03  0.10566000000E+00 0.  1.
          4    1    3    3  501    0  0.64567384827E+03  0.15818421883E+03  0.44353707279E+01  0.66478315106E+03  0.00000000000E+00 0.  1.
         13    1    1    2    0    0 -0.60889880836E+03 -0.13853406195E+03  0.73556983018E+03  0.96488985454E+03  0.10566000000E+00 0. -1.
<mgrwt>
<rscale>  1 0.10081464E+04</rscale>
<asrwt>0</asrwt>
<pdfrwt beam="2">  1       21 0.68528531E-01 0.11826696E+04</pdfrwt>
<pdfrwt beam="1">  1        4 0.29344192E+00 0.11826696E+04</pdfrwt>
<totfact> 0.24855005E+00</totfact>
</mgrwt>
</event>
<event>
 6    1  0.1353269E-005  0.9732697E+03  0.7818608E-02  0.1043852E+00
          4   -1    0    0  502    0 -0.00000000000E+00  0.00000000000E+00  0.47205458443E+03  0.47205458443E+03  0.00000000000E+00 0.  1.
         21   -1    0    0  501  502  0.00000000000E+00 -0.00000000000E+00 -0.55489158884E+03  0.55489158884E+03  0.00000000000E+00 0.  1.
    9000010    2    1    2  501    0 -0.17549070145E+02 -0.21444520361E+02 -0.37721564858E+02  0.97400043343E+03  0.97287516699E+03 0.  0.
        -13    1    3    3    0    0  0.46012356050E+03 -0.50537448587E+02 -0.14206259137E+03  0.48419987161E+03  0.10566000000E+00 0.  1.
          4    1    3    3  501    0 -0.47767263065E+03  0.29092928225E+02  0.10434102652E+03  0.48980056182E+03  0.00000000000E+00 0.  1.
         13    1    1    2    0    0  0.17549070145E+02  0.21444520361E+02 -0.45115439558E+02  0.52945739839E+02  0.10566000000E+00 0. -1.
<mgrwt>
<rscale>  1 0.39979228E+03</rscale>
<asrwt>0</asrwt>
<pdfrwt beam="2">  1       21 0.85367937E-01 0.97326971E+03</pdfrwt>
<pdfrwt beam="1">  1        4 0.72623782E-01 0.97326971E+03</pdfrwt>
<totfact> 0.78800185E+01</totfact>
</mgrwt>
</event>
<event>
 6    1  0.1353269E-005  0.1007096E+04  0.7818608E-02  0.9816282E-01
          4   -1    0    0  502    0 -0.00000000000E+00  0.00000000000E+00  0.87688733528E+03  0.87688733528E+03  0.00000000000E+00 0.  1.
         21   -1    0    0  501  502  0.00000000000E+00 -0.00000000000E+00 -0.48275808210E+03  0.48275808210E+03  0.00000000000E+00 0.  1.
    9000010    2    1    2  501    0  0.10795889141E+03  0.13054494800E+03  0.89477481978E+02  0.10110628324E+04  0.99274605293E+03 0.  0.
        -13    1    3    3    0    0 -0.82115162856E+01  0.52391990371E+03  0.23710694521E+03  0.57513407927E+03  0.10566000000E+00 0.  1.
          4    1    3    3  501    0  0.11617040770E+03 -0.39337495570E+03 -0.14762946324E+03  0.43592875314E+03  0.00000000000E+00 0.  1.
         13    1    1    2    0    0 -0.10795889141E+03 -0.13054494800E+03  0.30465177120E+03  0.34858258497E+03  0.10566000000E+00 0. -1.
<mgrwt>
<rscale>  1 0.64496011E+03</rscale>
<asrwt>0</asrwt>
<pdfrwt beam="2">  1       21 0.74270474E-01 0.10070957E+04</pdfrwt>
<pdfrwt beam="1">  1        4 0.13490574E+00 0.10070957E+04</pdfrwt>
<totfact> 0.24508645E+01</totfact>
</mgrwt>
</event>
<event>
 6    1  0.1353269E-005  0.1008279E+04  0.7818608E-02  0.9853462E-01
         21   -1    0    0  501  502  0.00000000000E+00  0.00000000000E+00  0.11911738569E+04  0.11911738569E+04  0.00000000000E+00 0.  1.
          4   -1    0    0  502    0 -0.00000000000E+00 -0.00000000000E+00 -0.42713896805E+03  0.42713896805E+03  0.00000000000E+00 0.  1.
    9000010    2    1    2  501    0 -0.51245130635E+01 -0.14944674479E+03  0.94613892805E+03  0.13826807338E+04  0.99712915424E+03 0.  0.
        -13    1    3    3    0    0 -0.29999050711E+03  0.30641864857E+03  0.60472614646E+03  0.74133691121E+03  0.10566000000E+00 0.  1.
          4    1    3    3  501    0  0.29486599404E+03 -0.45586539337E+03  0.34141278159E+03  0.64134382257E+03  0.00000000000E+00 0.  1.
         13    1    1    2    0    0  0.51245130635E+01  0.14944674479E+03 -0.18210403916E+03  0.23563209121E+03  0.10566000000E+00 0. -1.
<mgrwt>
<rscale>  1 0.62570708E+03</rscale>
<asrwt>0</asrwt>
<pdfrwt beam="1">  1       21 0.18325751E+00 0.10082793E+04</pdfrwt>
<pdfrwt beam="2">  1        4 0.65713688E-01 0.10082793E+04</pdfrwt>
<totfact> 0.12935261E+01</totfact>
</mgrwt>
</event>
<event>
 6    1  0.1353269E-005  0.9686535E+03  0.7818608E-02  0.9638808E-01
          4   -1    0    0  502    0 -0.00000000000E+00  0.00000000000E+00  0.45011267371E+03  0.45011267371E+03  0.00000000000E+00 0.  1.
         21   -1    0    0  501  502  0.00000000000E+00 -0.00000000000E+00 -0.99817226738E+03  0.99817226738E+03  0.00000000000E+00 0.  1.
    9000010    2    1    2  501    0  0.32928250900E+03  0.99757633286E+02 -0.26908428986E+03  0.10053337164E+04  0.90548935400E+03 0.  0.
        -13    1    3    3    0    0 -0.11424623757E+03  0.39176163809E+03  0.42315519718E+01  0.40810207188E+03  0.10566000000E+00 0.  1.
          4    1    3    3  501    0  0.44352874657E+03 -0.29200400480E+03 -0.27331584184E+03  0.59723164455E+03  0.00000000000E+00 0.  1.
         13    1    1    2    0    0 -0.32928250900E+03 -0.99757633286E+02 -0.27897530381E+03  0.44295122466E+03  0.10566000000E+00 0. -1.
<mgrwt>
<rscale>  1 0.74780009E+03</rscale>
<asrwt>0</asrwt>
<pdfrwt beam="2">  1       21 0.15356496E+00 0.96865346E+03</pdfrwt>
<pdfrwt beam="1">  1        4 0.69248104E-01 0.96865346E+03</pdfrwt>
<totfact> 0.19369694E+01</totfact>
</mgrwt>
</event>
<event>
 6    1  0.1353269E-005  0.1012603E+04  0.7818608E-02  0.9962203E-01
          4   -1    0    0  502    0 -0.00000000000E+00  0.00000000000E+00  0.17147261667E+03  0.17147261667E+03  0.00000000000E+00 0.  1.
         21   -1    0    0  501  502  0.00000000000E+00 -0.00000000000E+00 -0.19811130030E+04  0.19811130030E+04  0.00000000000E+00 0.  1.
    9000010    2    1    2  501    0  0.90750095947E+02 -0.51019398888E+02 -0.17737981652E+04  0.20424800569E+04  0.10072369597E+04 0.  0.
        -13    1    3    3    0    0 -0.91634978854E+02  0.32939579549E+03 -0.16565650597E+03  0.37992189799E+03  0.10566000000E+00 0.  1.
          4    1    3    3  501    0  0.18238507480E+03 -0.38041519438E+03 -0.16081416592E+04  0.16625581589E+04  0.00000000000E+00 0.  1.
         13    1    1    2    0    0 -0.90750095947E+02  0.51019398888E+02 -0.35842221149E+02  0.11010556279E+03  0.10566000000E+00 0. -1.
<mgrwt>
<rscale>  1 0.57339105E+03</rscale>
<asrwt>0</asrwt>
<pdfrwt beam="2">  1       21 0.30478661E+00 0.10126030E+04</pdfrwt>
<pdfrwt beam="1">  1        4 0.26380403E-01 0.10126030E+04</pdfrwt>
<totfact> 0.13728140E+01</totfact>
</mgrwt>
</event>
<event>
 6    1  0.1353269E-005  0.1060566E+04  0.7818608E-02  0.9559907E-01
         21   -1    0    0  501  502  0.00000000000E+00  0.00000000000E+00  0.50954429577E+03  0.50954429577E+03  0.00000000000E+00 0.  1.
          4   -1    0    0  502    0 -0.00000000000E+00 -0.00000000000E+00 -0.11692849705E+04  0.11692849705E+04  0.00000000000E+00 0.  1.
    9000010    2    1    2  501    0 -0.34346752466E+03  0.37907119071E+01 -0.16020908757E+03  0.10725981818E+04  0.10034020121E+04 0.  0.
        -13    1    3    3    0    0 -0.50304392416E+03  0.31892641712E+03 -0.32972033007E+03  0.68079567889E+03  0.10566000000E+00 0.  1.
          4    1    3    3  501    0  0.15957639950E+03 -0.31513570522E+03  0.16951124250E+03  0.39180250295E+03  0.00000000000E+00 0.  1.
         13    1    1    2    0    0  0.34346752466E+03 -0.37907119071E+01 -0.49953158718E+03  0.60623108444E+03  0.10566000000E+00 0. -1.
<mgrwt>
<rscale>  1 0.80007604E+03</rscale>
<asrwt>0</asrwt>
<pdfrwt beam="1">  1       21 0.78391431E-01 0.10605658E+04</pdfrwt>
<pdfrwt beam="2">  1        4 0.17988999E+00 0.10605658E+04</pdfrwt>
<totfact> 0.97890775E+00</totfact>
</mgrwt>
</event>
<event>
 6    1  0.1353269E-005  0.1110989E+04  0.7818608E-02  0.9397128E-01
         21   -1    0    0  501  502  0.00000000000E+00  0.00000000000E+00  0.42086771363E+03  0.42086771363E+03  0.00000000000E+00 0. -1.
          4   -1    0    0  502    0 -0.00000000000E+00 -0.00000000000E+00 -0.18837729377E+04  0.18837729377E+04  0.00000000000E+00 0.  1.
    9000010    2    1    2  501    0 -0.26019416201E+03 -0.46122438634E+03 -0.13751534530E+04  0.17678638626E+04  0.97666098560E+03 0.  0.
        -13    1    3    3    0    0 -0.25965219244E+03  0.26880537893E+03 -0.56384195755E+03  0.67645647091E+03  0.10566000000E+00 0.  1.
          4    1    3    3  501    0 -0.54196957036E+00 -0.73002976527E+03 -0.81131149542E+03  0.10914073916E+04  0.00000000000E+00 0.  1.
         13    1    1    2    0    0  0.26019416201E+03  0.46122438634E+03 -0.87751771105E+02  0.53677678880E+03  0.10566000000E+00 0. -1.
<mgrwt>
<rscale>  1 0.92312413E+03</rscale>
<asrwt>0</asrwt>
<pdfrwt beam="1">  1       21 0.64748880E-01 0.11109886E+04</pdfrwt>
<pdfrwt beam="2">  1        4 0.28981122E+00 0.11109886E+04</pdfrwt>
<totfact> 0.30069764E+00</totfact>
</mgrwt>
</event>
<event>
 6    1  0.1353269E-005  0.1163631E+04  0.7818608E-02  0.9296391E-01
          4   -1    0    0  502    0 -0.00000000000E+00  0.00000000000E+00  0.10919312657E+04  0.10919312657E+04  0.00000000000E+00 0.  1.
         21   -1    0    0  501  502  0.00000000000E+00 -0.00000000000E+00 -0.98607795697E+03  0.98607795697E+03  0.00000000000E+00 0. -1.
    9000010    2    1    2  501    0  0.62739528066E+03 -0.21584080694E+03  0.54235250376E+03  0.12838155116E+04  0.95594138807E+03 0.  0.
        -13    1    3    3    0    0  0.44263664254E+01 -0.24454690499E+03  0.60934227208E+03  0.65659789610E+03  0.10566000000E+00 0.  1.
          4    1    3    3  501    0  0.62296891423E+03  0.28706098045E+02 -0.66989768315E+02  0.62721761553E+03  0.00000000000E+00 0.  1.
         13    1    1    2    0    0 -0.62739528066E+03  0.21584080694E+03 -0.43649919507E+03  0.79419371100E+03  0.10566000000E+00 0. -1.
<mgrwt>
<rscale>  1 0.10111583E+04</rscale>
<asrwt>0</asrwt>
<pdfrwt beam="2">  1       21 0.15170430E+00 0.11636305E+04</pdfrwt>
<pdfrwt beam="1">  1        4 0.16798943E+00 0.11636305E+04</pdfrwt>
<totfact> 0.21833775E+00</totfact>
</mgrwt>
</event>
<event>
 6    1  0.1353269E-005  0.1056516E+04  0.7818608E-02  0.9517979E-01
         21   -1    0    0  501  502  0.00000000000E+00  0.00000000000E+00  0.10048939843E+04  0.10048939843E+04  0.00000000000E+00 0.  1.
          4   -1    0    0  502    0 -0.00000000000E+00 -0.00000000000E+00 -0.53047441867E+03  0.53047441867E+03  0.00000000000E+00 0.  1.
    9000010    2    1    2  501    0  0.40085803400E+03  0.28433417178E+02  0.37797176216E+03  0.11220914830E+04  0.97710338276E+03 0.  0.
        -13    1    3    3    0    0  0.60245231947E+03 -0.25152826379E+03  0.41736217027E+03  0.77485899173E+03  0.10566000000E+00 0.  1.
          4    1    3    3  501    0 -0.20159428547E+03  0.27996168097E+03 -0.39390408113E+02  0.34723249127E+03  0.00000000000E+00 0.  1.
         13    1    1    2    0    0 -0.40085803400E+03 -0.28433417178E+02  0.96447803487E+02  0.41327691999E+03  0.10566000000E+00 0. -1.
<mgrwt>
<rscale>  1 0.82971175E+03</rscale>
<asrwt>0</asrwt>
<pdfrwt beam="1">  1       21 0.15459907E+00 0.10565163E+04</pdfrwt>
<pdfrwt beam="2">  1        4 0.81611449E-01 0.10565163E+04</pdfrwt>
<totfact> 0.12960342E+01</totfact>
</mgrwt>
</event>
<event>
 6    1  0.1353269E-005  0.1156419E+04  0.7818608E-02  0.9348630E-01
          4   -1    0    0  502    0 -0.00000000000E+00  0.00000000000E+00  0.52753354960E+03  0.52753354960E+03  0.00000000000E+00 0.  1.
         21   -1    0    0  501  502  0.00000000000E+00 -0.00000000000E+00 -0.14097959638E+04  0.14097959638E+04  0.00000000000E+00 0.  1.
    9000010    2    1    2  501    0 -0.55890062556E+03 -0.12328576748E+02 -0.68744323174E+03  0.13453190168E+04  0.10123157398E+04 0.  0.
        -13    1    3    3    0    0 -0.20376604769E+03 -0.40470112848E+03  0.29662310375E+02  0.45407429943E+03  0.10566000000E+00 0.  1.
          4    1    3    3  501    0 -0.35513457786E+03  0.39237255173E+03 -0.71710554212E+03  0.89124471739E+03  0.00000000000E+00 0.  1.
         13    1    1    2    0    0  0.55890062556E+03  0.12328576748E+02 -0.19481918246E+03  0.59201049659E+03  0.10566000000E+00 0. -1.
<mgrwt>
<rscale>  1 0.96426520E+03</rscale>
<asrwt>0</asrwt>
<pdfrwt beam="2">  1       21 0.21689168E+00 0.11564191E+04</pdfrwt>
<pdfrwt beam="1">  1        4 0.81159008E-01 0.11564191E+04</pdfrwt>
<totfact> 0.46129235E+00</totfact>
</mgrwt>
</event>
<event>
 6    1  0.1353269E-005  0.1084109E+04  0.7818608E-02  0.9490515E-01
         21   -1    0    0  501  502  0.00000000000E+00  0.00000000000E+00  0.12010995520E+04  0.12010995520E+04  0.00000000000E+00 0.  1.
          4   -1    0    0  502    0 -0.00000000000E+00 -0.00000000000E+00 -0.48286872459E+03  0.48286872459E+03  0.00000000000E+00 0.  1.
    9000010    2    1    2  501    0 -0.30986279572E+03  0.26762389699E+03  0.66313401521E+03  0.12708421793E+04  0.10038205119E+04 0.  0.
        -13    1    3    3    0    0 -0.50324226783E+00 -0.27206604568E+03 -0.96795218304E+02  0.28877242236E+03  0.10566000000E+00 0.  1.
          4    1    3    3  501    0 -0.30935955345E+03  0.53968994267E+03  0.75992923351E+03  0.98206975693E+03  0.00000000000E+00 0.  1.
         13    1    1    2    0    0  0.30986279572E+03 -0.26762389699E+03  0.55096812218E+02  0.41312609732E+03  0.10566000000E+00 0. -1.
<mgrwt>
<rscale>  1 0.84986751E+03</rscale>
<asrwt>0</asrwt>
<pdfrwt beam="1">  1       21 0.18478455E+00 0.10841094E+04</pdfrwt>
<pdfrwt beam="2">  1        4 0.74287497E-01 0.10841094E+04</pdfrwt>
<totfact> 0.94942153E+00</totfact>
</mgrwt>
</event>
<event>
 6    1  0.1353269E-005  0.8547814E+03  0.7818608E-02  0.9771891E-01
          4   -1    0    0  502    0 -0.00000000000E+00  0.00000000000E+00  0.70427966606E+03  0.70427966606E+03  0.00000000000E+00 0.  1.
         21   -1    0    0  501  502  0.00000000000E+00 -0.00000000000E+00 -0.79266351778E+03  0.79266351778E+03  0.00000000000E+00 0.  1.
    9000010    2    1    2  501    0  0.12208315220E+03 -0.29644270737E+03 -0.48827072839E+03  0.98440820932E+03  0.79238162748E+03 0.  0.
        -13    1    3    3    0    0 -0.20056305621E+03 -0.69836917131E+02 -0.54607714823E+03  0.58592064095E+03  0.10566000000E+00 0.  1.
          4    1    3    3  501    0  0.32264620841E+03 -0.22660579024E+03  0.57806419836E+02  0.39848756837E+03  0.00000000000E+00 0.  1.
         13    1    1    2    0    0 -0.12208315220E+03  0.29644270737E+03  0.39988687668E+03  0.51253497452E+03  0.10566000000E+00 0. -1.
<mgrwt>
<rscale>  1 0.66893086E+03</rscale>
<asrwt>0</asrwt>
<pdfrwt beam="2">  1       21 0.12194823E+00 0.85478139E+03</pdfrwt>
<pdfrwt beam="1">  1        4 0.10835072E+00 0.85478139E+03</pdfrwt>
<totfact> 0.12857433E+01</totfact>
</mgrwt>
</event>
<event>
 6    1  0.1353269E-005  0.1019654E+04  0.7818608E-02  0.9729014E-01
          4   -1    0    0  502    0 -0.00000000000E+00  0.00000000000E+00  0.76655029156E+03  0.76655029156E+03  0.00000000000E+00 0.  1.
         21   -1    0    0  501  502  0.00000000000E+00 -0.00000000000E+00 -0.50038332340E+03  0.50038332340E+03  0.00000000000E+00 0.  1.
    9000010    2    1    2  501    0 -0.13359522120E+03  0.17195096689E+03  0.24088585926E+03  0.10477214716E+04  0.99613225368E+03 0.  0.
        -13    1    3    3    0    0  0.25723030102E+03  0.12639698247E+03  0.50019484098E+03  0.57648808752E+03  0.10566000000E+00 0.  1.
          4    1    3    3  501    0 -0.39082552222E+03  0.45553984423E+02 -0.25930898172E+03  0.47123338413E+03  0.00000000000E+00 0.  1.
         13    1    1    2    0    0  0.13359522120E+03 -0.17195096689E+03  0.25281108897E+02  0.21921214331E+03  0.10566000000E+00 0. -1.
<mgrwt>
<rscale>  1 0.69315275E+03</rscale>
<asrwt>0</asrwt>
<pdfrwt beam="2">  1       21 0.76982049E-01 0.10196540E+04</pdfrwt>
<pdfrwt beam="1">  1        4 0.11793081E+00 0.10196540E+04</pdfrwt>
<totfact> 0.31738776E+01</totfact>
</mgrwt>
</event>
<event>
 6    1  0.1353269E-005  0.1026755E+04  0.7818608E-02  0.9630229E-01
         21   -1    0    0  501  502  0.00000000000E+00  0.00000000000E+00  0.43678441878E+03  0.43678441878E+03  0.00000000000E+00 0.  1.
          4   -1    0    0  502    0 -0.00000000000E+00 -0.00000000000E+00 -0.10126437296E+04  0.10126437296E+04  0.00000000000E+00 0.  1.
    9000010    2    1    2  501    0 -0.76858626284E+02 -0.28734617677E+03 -0.38797857388E+03  0.10976124918E+04  0.98272617479E+03 0.  0.
        -13    1    3    3    0    0 -0.18499906514E+03 -0.54262064091E+02  0.30371323815E+03  0.35973708163E+03  0.10566000000E+00 0.  1.
          4    1    3    3  501    0  0.10814043886E+03 -0.23308411268E+03 -0.69169181203E+03  0.73787541017E+03  0.00000000000E+00 0.  1.
         13    1    1    2    0    0  0.76858626284E+02  0.28734617677E+03 -0.18788073694E+03  0.35181565658E+03  0.10566000000E+00 0. -1.
<mgrwt>
<rscale>  1 0.75327359E+03</rscale>
<asrwt>0</asrwt>
<pdfrwt beam="1">  1       21 0.67197604E-01 0.10267550E+04</pdfrwt>
<pdfrwt beam="2">  1        4 0.15579134E+00 0.10267550E+04</pdfrwt>
<totfact> 0.20995087E+01</totfact>
</mgrwt>
</event>
<event>
 6    1  0.1353269E-005  0.1086825E+04  0.7818608E-02  0.9474185E-01
         21   -1    0    0  501  502  0.00000000000E+00  0.00000000000E+00  0.12002214236E+04  0.12002214236E+04  0.00000000000E+00 0. -1.
          4   -1    0    0  502    0 -0.00000000000E+00 -0.00000000000E+00 -0.49445851502E+03  0.49445851502E+03  0.00000000000E+00 0.  1.
    9000010    2    1    2  501    0 -0.16045863684E+03  0.39932973419E+03  0.36744824295E+03  0.11472605063E+04  0.99798659677E+03 0.  0.
        -13    1    3    3    0    0  0.19875821049E+03  0.62903111193E+03  0.24408390076E+03  0.70339315307E+03  0.10566000000E+00 0.  1.
          4    1    3    3  501    0 -0.35921684733E+03 -0.22970137774E+03  0.12336434219E+03  0.44386735323E+03  0.00000000000E+00 0.  1.
         13    1    1    2    0    0  0.16045863684E+03 -0.39932973419E+03  0.33831466567E+03  0.54741943236E+03  0.10566000000E+00 0. -1.
<mgrwt>
<rscale>  1 0.86214073E+03</rscale>
<asrwt>0</asrwt>
<pdfrwt beam="1">  1       21 0.18464945E+00 0.10868249E+04</pdfrwt>
<pdfrwt beam="2">  1        4 0.76070541E-01 0.10868249E+04</pdfrwt>
<totfact> 0.90131062E+00</totfact>
</mgrwt>
</event>
<event>
 6    1  0.1353269E-005  0.1035161E+04  0.7818608E-02  0.9632696E-01
         21   -1    0    0  501  502  0.00000000000E+00  0.00000000000E+00  0.49961943424E+03  0.49961943424E+03  0.00000000000E+00 0.  1.
          4   -1    0    0  502    0 -0.00000000000E+00 -0.00000000000E+00 -0.89161691201E+03  0.89161691201E+03  0.00000000000E+00 0.  1.
    9000010    2    1    2  501    0  0.14087854634E+03 -0.25100102914E+03 -0.22804238632E+03  0.10599818148E+04  0.99433889407E+03 0.  0.
        -13    1    3    3    0    0 -0.40546729389E+03 -0.13583460209E+03  0.59842389016E+02  0.43178222315E+03  0.10566000000E+00 0.  1.
          4    1    3    3  501    0  0.54634584023E+03 -0.11516642705E+03 -0.28788477534E+03  0.62819959163E+03  0.00000000000E+00 0.  1.
         13    1    1    2    0    0 -0.14087854634E+03  0.25100102914E+03 -0.16395509144E+03  0.33125453148E+03  0.10566000000E+00 0. -1.
<mgrwt>
<rscale>  1 0.75169445E+03</rscale>
<asrwt>0</asrwt>
<pdfrwt beam="1">  1       21 0.76864528E-01 0.10351609E+04</pdfrwt>
<pdfrwt beam="2">  1        4 0.13717183E+00 0.10351609E+04</pdfrwt>
<totfact> 0.21611828E+01</totfact>
</mgrwt>
</event>
<event>
 6    1  0.1353269E-005  0.1049529E+04  0.7818608E-02  0.9586751E-01
          4   -1    0    0  502    0 -0.00000000000E+00  0.00000000000E+00  0.18399534759E+04  0.18399534759E+04  0.00000000000E+00 0.  1.
         21   -1    0    0  501  502  0.00000000000E+00 -0.00000000000E+00 -0.26193380200E+03  0.26193380200E+03  0.00000000000E+00 0.  1.
    9000010    2    1    2  501    0  0.21941429379E+03  0.23721986009E+03  0.10624442960E+04  0.14934188105E+04  0.99854692787E+03 0.  0.
        -13    1    3    3    0    0  0.25496498444E+03 -0.34935443879E+03  0.62840312937E+03  0.76285396463E+03  0.10566000000E+00 0.  1.
          4    1    3    3  501    0 -0.35550690652E+02  0.58657429888E+03  0.43404116666E+03  0.73056484590E+03  0.00000000000E+00 0.  1.
         13    1    1    2    0    0 -0.21941429379E+03 -0.23721986009E+03  0.51557537786E+03  0.60846846735E+03  0.10566000000E+00 0. -1.
<mgrwt>
<rscale>  1 0.78179299E+03</rscale>
<asrwt>0</asrwt>
<pdfrwt beam="2">  1       21 0.40297509E-01 0.10495294E+04</pdfrwt>
<pdfrwt beam="1">  1        4 0.28306976E+00 0.10495294E+04</pdfrwt>
<totfact> 0.93597892E+00</totfact>
</mgrwt>
</event>
<event>
 6    1  0.1353269E-005  0.1046661E+04  0.7818608E-02  0.9572794E-01
         21   -1    0    0  501  502  0.00000000000E+00  0.00000000000E+00  0.10560818240E+04  0.10560818240E+04  0.00000000000E+00 0. -1.
          4   -1    0    0  502    0 -0.00000000000E+00 -0.00000000000E+00 -0.45640429737E+03  0.45640429737E+03  0.00000000000E+00 0.  1.
    9000010    2    1    2  501    0 -0.33951881895E+03 -0.39613739432E+02  0.45706648414E+03  0.11421076698E+04  0.98927138933E+03 0.  0.
        -13    1    3    3    0    0 -0.50957587854E+03 -0.39294322756E+03  0.36318698694E+03  0.73890239864E+03  0.10566000000E+00 0.  1.
          4    1    3    3  501    0  0.17005705959E+03  0.35332948813E+03  0.93879497201E+02  0.40320527117E+03  0.00000000000E+00 0.  1.
         13    1    1    2    0    0  0.33951881895E+03  0.39613739432E+02  0.14261104247E+03  0.37037845154E+03  0.10566000000E+00 0. -1.
<mgrwt>
<rscale>  1 0.79123351E+03</rscale>
<asrwt>0</asrwt>
<pdfrwt beam="1">  1       21 0.16247413E+00 0.10466614E+04</pdfrwt>
<pdfrwt beam="2">  1        4 0.70216046E-01 0.10466614E+04</pdfrwt>
<totfact> 0.15851227E+01</totfact>
</mgrwt>
</event>
<event>
 6    1  0.1353269E-005  0.1092990E+04  0.7818608E-02  0.9368663E-01
         21   -1    0    0  501  502  0.00000000000E+00  0.00000000000E+00  0.11260981119E+04  0.11260981119E+04  0.00000000000E+00 0.  1.
          4   -1    0    0  502    0 -0.00000000000E+00 -0.00000000000E+00 -0.96023399095E+03  0.96023399095E+03  0.00000000000E+00 0.  1.
    9000010    2    1    2  501    0  0.58273775685E+03  0.19956075893E+03  0.67720712757E+03  0.12857826219E+04  0.90289515864E+03 0.  0.
        -13    1    3    3    0    0 -0.74286218864E+02 -0.10187712952E+03  0.53422795172E+03  0.54890518981E+03  0.10566000000E+00 0.  1.
          4    1    3    3  501    0  0.65702397571E+03  0.30143788845E+03  0.14297917584E+03  0.73687743213E+03  0.00000000000E+00 0.  1.
         13    1    1    2    0    0 -0.58273775685E+03 -0.19956075893E+03 -0.51134300663E+03  0.80054948089E+03  0.10566000000E+00 0. -1.
<mgrwt>
<rscale>  1 0.94700106E+03</rscale>
<asrwt>0</asrwt>
<pdfrwt beam="1">  1       21 0.17324586E+00 0.10929901E+04</pdfrwt>
<pdfrwt beam="2">  1        4 0.14772831E+00 0.10929901E+04</pdfrwt>
<totfact> 0.21384596E+00</totfact>
</mgrwt>
</event>
<event>
 6    1  0.1353269E-005  0.1057608E+04  0.7818608E-02  0.9780385E-01
          4   -1    0    0  502    0 -0.00000000000E+00  0.00000000000E+00  0.66216331566E+03  0.66216331566E+03  0.00000000000E+00 0.  1.
         21   -1    0    0  501  502  0.00000000000E+00 -0.00000000000E+00 -0.56846358947E+03  0.56846358947E+03  0.00000000000E+00 0.  1.
    9000010    2    1    2  501    0 -0.99864471946E+02  0.13081792336E+03  0.43263078624E+02  0.10584929212E+04  0.10447245228E+04 0.  0.
        -13    1    3    3    0    0 -0.53238129580E+03  0.22857502240E+03  0.15786194807E+03  0.60049711972E+03  0.10566000000E+00 0.  1.
          4    1    3    3  501    0  0.43251682385E+03 -0.97757099048E+02 -0.11459886944E+03  0.45799580152E+03  0.00000000000E+00 0.  1.
         13    1    1    2    0    0  0.99864471946E+02 -0.13081792336E+03  0.50436647566E+02  0.17213398389E+03  0.10566000000E+00 0. -1.
<mgrwt>
<rscale>  1 0.66425876E+03</rscale>
<asrwt>0</asrwt>
<pdfrwt beam="2">  1       21 0.87455937E-01 0.10576084E+04</pdfrwt>
<pdfrwt beam="1">  1        4 0.10187128E+00 0.10576084E+04</pdfrwt>
<totfact> 0.33533370E+01</totfact>
</mgrwt>
</event>
<event>
 6    1  0.1353269E-005  0.1037381E+04  0.7818608E-02  0.1005380E+00
          4   -1    0    0  502    0 -0.00000000000E+00  0.00000000000E+00  0.54651600229E+03  0.54651600229E+03  0.00000000000E+00 0.  1.
         21   -1    0    0  501  502  0.00000000000E+00 -0.00000000000E+00 -0.78128925976E+03  0.78128925976E+03  0.00000000000E+00 0.  1.
    9000010    2    1    2  501    0  0.70674996326E+02  0.16515995743E+02 -0.42738708320E+03  0.11219707891E+04  0.10348386345E+04 0.  0.
        -13    1    3    3    0    0 -0.88312159683E+02  0.42108690239E+03 -0.52265469268E+03  0.67696466367E+03  0.10566000000E+00 0.  1.
          4    1    3    3  501    0  0.15898715601E+03 -0.40457090664E+03  0.95267609480E+02  0.44500612546E+03  0.00000000000E+00 0.  1.
         13    1    1    2    0    0 -0.70674996326E+02 -0.16515995743E+02  0.19261382573E+03  0.20583447293E+03  0.10566000000E+00 0. -1.
<mgrwt>
<rscale>  1 0.53352738E+03</rscale>
<asrwt>0</asrwt>
<pdfrwt beam="2">  1       21 0.12019835E+00 0.10373807E+04</pdfrwt>
<pdfrwt beam="1">  1        4 0.84079385E-01 0.10373807E+04</pdfrwt>
<totfact> 0.23944227E+01</totfact>
</mgrwt>
</event>
<event>
 6    1  0.1353269E-005  0.1074261E+04  0.7818608E-02  0.9403203E-01
         21   -1    0    0  501  502  0.00000000000E+00  0.00000000000E+00  0.29127778405E+03  0.29127778405E+03  0.00000000000E+00 0.  1.
          4   -1    0    0  502    0 -0.00000000000E+00 -0.00000000000E+00 -0.23895571592E+04  0.23895571592E+04  0.00000000000E+00 0.  1.
    9000010    2    1    2  501    0  0.12455966584E+03 -0.55946613211E+03 -0.11573610369E+04  0.15790886958E+04  0.90858080332E+03 0.  0.
        -13    1    3    3    0    0 -0.31811004738E+03 -0.53256744503E+03 -0.78130225557E+03  0.99762483503E+03  0.10566000000E+00 0.  1.
          4    1    3    3  501    0  0.44266971322E+03 -0.26898687085E+02 -0.37605878130E+03  0.58146386076E+03  0.00000000000E+00 0.  1.
         13    1    1    2    0    0 -0.12455966584E+03  0.55946613211E+03 -0.94091833824E+03  0.11017462474E+04  0.10566000000E+00 0. -1.
<mgrwt>
<rscale>  1 0.91812570E+03</rscale>
<asrwt>0</asrwt>
<pdfrwt beam="1">  1       21 0.44811965E-01 0.10742609E+04</pdfrwt>
<pdfrwt beam="2">  1        4 0.36762420E+00 0.10742609E+04</pdfrwt>
<totfact> 0.21675359E+00</totfact>
</mgrwt>
</event>
<event>
 6    1  0.1353269E-005  0.1014314E+04  0.7818608E-02  0.9807150E-01
         21   -1    0    0  501  502  0.00000000000E+00  0.00000000000E+00  0.12397764517E+04  0.12397764517E+04  0.00000000000E+00 0.  1.
          4   -1    0    0  502    0 -0.00000000000E+00 -0.00000000000E+00 -0.37186275430E+03  0.37186275430E+03  0.00000000000E+00 0.  1.
    9000010    2    1    2  501    0 -0.12851159782E+03 -0.11257676172E+03  0.97750074337E+03  0.14086660800E+04  0.99982181596E+03 0.  0.
        -13    1    3    3    0    0 -0.22904547492E+03  0.33169949100E+03  0.92881196211E+02  0.41365844568E+03  0.10566000000E+00 0.  1.
          4    1    3    3  501    0  0.10053387710E+03 -0.44427625272E+03  0.88461954716E+03  0.99500763434E+03  0.00000000000E+00 0.  1.
         13    1    1    2    0    0  0.12851159782E+03  0.11257676172E+03 -0.10958704598E+03  0.20297312597E+03  0.10566000000E+00 0. -1.
<mgrwt>
<rscale>  1 0.64980225E+03</rscale>
<asrwt>0</asrwt>
<pdfrwt beam="1">  1       21 0.19073484E+00 0.10143138E+04</pdfrwt>
<pdfrwt beam="2">  1        4 0.57209655E-01 0.10143138E+04</pdfrwt>
<totfact> 0.15485506E+01</totfact>
</mgrwt>
</event>
<event>
 6    1  0.1353269E-005  0.1003559E+04  0.7818608E-02  0.9888608E-01
          4   -1    0    0  502    0 -0.00000000000E+00  0.00000000000E+00  0.48860791117E+03  0.48860791117E+03  0.00000000000E+00 0.  1.
         21   -1    0    0  501  502  0.00000000000E+00 -0.00000000000E+00 -0.84184103460E+03  0.84184103460E+03  0.00000000000E+00 0.  1.
    9000010    2    1    2  501    0  0.76953843802E+02 -0.11134544774E+03 -0.50803142582E+03  0.11248225165E+04  0.99438929062E+03 0.  0.
        -13    1    3    3    0    0 -0.33082610780E+03 -0.10592184812E+03 -0.61222480555E+03  0.70390665234E+03  0.10566000000E+00 0.  1.
          4    1    3    3  501    0  0.40777995160E+03 -0.54235996185E+01  0.10419337973E+03  0.42091586420E+03  0.00000000000E+00 0.  1.
         13    1    1    2    0    0 -0.76953843802E+02  0.11134544774E+03  0.15479830239E+03  0.20562642923E+03  0.10566000000E+00 0. -1.
<mgrwt>
<rscale>  1 0.60816563E+03</rscale>
<asrwt>0</asrwt>
<pdfrwt beam="2">  1       21 0.12951401E+00 0.10035586E+04</pdfrwt>
<pdfrwt beam="1">  1        4 0.75170448E-01 0.10035586E+04</pdfrwt>
<totfact> 0.25528674E+01</totfact>
</mgrwt>
</event>
<event>
 6    1  0.1353269E-005  0.1001364E+04  0.7818608E-02  0.1001688E+00
          4   -1    0    0  502    0 -0.00000000000E+00  0.00000000000E+00  0.47961369841E+03  0.47961369841E+03  0.00000000000E+00 0.  1.
         21   -1    0    0  501  502  0.00000000000E+00 -0.00000000000E+00 -0.70736520211E+03  0.70736520211E+03  0.00000000000E+00 0.  1.
    9000010    2    1    2  501    0 -0.26720632211E+00 -0.90578552285E+02 -0.32624340899E+03  0.10531685418E+04  0.99725857729E+03 0.  0.
        -13    1    3    3    0    0 -0.18960581932E+03  0.36034053010E+03 -0.38527114502E+03  0.56056179919E+03  0.10566000000E+00 0.  1.
          4    1    3    3  501    0  0.18933861300E+03 -0.45091908239E+03  0.59027736030E+02  0.49260674260E+03  0.00000000000E+00 0.  1.
         13    1    1    2    0    0  0.26720632211E+00  0.90578552285E+02  0.98491905290E+02  0.13381035874E+03  0.10566000000E+00 0. -1.
<mgrwt>
<rscale>  1 0.54916236E+03</rscale>
<asrwt>0</asrwt>
<pdfrwt beam="2">  1       21 0.10882542E+00 0.10013637E+04</pdfrwt>
<pdfrwt beam="1">  1        4 0.73786723E-01 0.10013637E+04</pdfrwt>
<totfact> 0.41782577E+01</totfact>
</mgrwt>
</event>
<event>
 6    1  0.1353269E-005  0.1105483E+04  0.7818608E-02  0.9408489E-01
         21   -1    0    0  501  502  0.00000000000E+00  0.00000000000E+00  0.33116646262E+03  0.33116646262E+03  0.00000000000E+00 0. -1.
          4   -1    0    0  502    0 -0.00000000000E+00 -0.00000000000E+00 -0.19851822626E+04  0.19851822626E+04  0.00000000000E+00 0.  1.
    9000010    2    1    2  501    0  0.17541839573E+03 -0.48539936740E+03 -0.11339683453E+04  0.15836594830E+04  0.97760369801E+03 0.  0.
        -13    1    3    3    0    0  0.16078699639E+03 -0.61021848390E+03 -0.23101473487E+03  0.67200213927E+03  0.10566000000E+00 0.  1.
          4    1    3    3  501    0  0.14631399337E+02  0.12481911649E+03 -0.90295361044E+03  0.91165734368E+03  0.00000000000E+00 0.  1.
         13    1    1    2    0    0 -0.17541839573E+03  0.48539936740E+03 -0.52004745464E+03  0.73268924223E+03  0.10566000000E+00 0. -1.
<mgrwt>
<rscale>  1 0.91380330E+03</rscale>
<asrwt>0</asrwt>
<pdfrwt beam="1">  1       21 0.50948686E-01 0.11054832E+04</pdfrwt>
<pdfrwt beam="2">  1        4 0.30541266E+00 0.11054832E+04</pdfrwt>
<totfact> 0.40965224E+00</totfact>
</mgrwt>
</event>
<event>
 6    1  0.1353269E-005  0.9956296E+03  0.7818608E-02  0.1048711E+00
          4   -1    0    0  502    0 -0.00000000000E+00  0.00000000000E+00  0.52712039884E+03  0.52712039884E+03  0.00000000000E+00 0.  1.
         21   -1    0    0  501  502  0.00000000000E+00 -0.00000000000E+00 -0.49251591220E+03  0.49251591220E+03  0.00000000000E+00 0.  1.
    9000010    2    1    2  501    0  0.14624593331E+02 -0.17112829656E+02  0.27421401411E+02  0.99600718608E+03  0.99537513220E+03 0.  0.
        -13    1    3    3    0    0 -0.36428929480E+03 -0.26697243499E+03 -0.19334349828E+03  0.49128677047E+03  0.10566000000E+00 0.  1.
          4    1    3    3  501    0  0.37891388813E+03  0.24985960534E+03  0.22076489969E+03  0.50472041561E+03  0.00000000000E+00 0.  1.
         13    1    1    2    0    0 -0.14624593331E+02  0.17112829656E+02  0.71830852246E+01  0.23629124958E+02  0.10566000000E+00 0. -1.
<mgrwt>
<rscale>  1 0.38607474E+03</rscale>
<asrwt>0</asrwt>
<pdfrwt beam="2">  1       21 0.75771679E-01 0.99562964E+03</pdfrwt>
<pdfrwt beam="1">  1        4 0.81095446E-01 0.99562964E+03</pdfrwt>
<totfact> 0.81017583E+01</totfact>
</mgrwt>
</event>
<event>
 6    1  0.1353269E-005  0.1022755E+04  0.7818608E-02  0.9885404E-01
          4   -1    0    0  502    0 -0.00000000000E+00  0.00000000000E+00  0.10532271619E+04  0.10532271619E+04  0.00000000000E+00 0.  1.
         21   -1    0    0  501  502  0.00000000000E+00 -0.00000000000E+00 -0.37615502085E+03  0.37615502085E+03  0.00000000000E+00 0.  1.
    9000010    2    1    2  501    0  0.43728617885E+02 -0.12157469956E+03  0.35541961055E+03  0.10827513112E+04  0.10145613351E+04 0.  0.
        -13    1    3    3    0    0  0.11137550661E+03  0.66618340296E+02  0.68503182986E+03  0.69721669933E+03  0.10566000000E+00 0.  1.
          4    1    3    3  501    0 -0.67646888725E+02 -0.18819303985E+03 -0.32961221931E+03  0.38553461183E+03  0.00000000000E+00 0.  1.
         13    1    1    2    0    0 -0.43728617885E+02  0.12157469956E+03  0.32165253046E+03  0.34663087155E+03  0.10566000000E+00 0. -1.
<mgrwt>
<rscale>  1 0.60973927E+03</rscale>
<asrwt>0</asrwt>
<pdfrwt beam="2">  1       21 0.57870004E-01 0.10227548E+04</pdfrwt>
<pdfrwt beam="1">  1        4 0.16203495E+00 0.10227548E+04</pdfrwt>
<totfact> 0.26368836E+01</totfact>
</mgrwt>
</event>
<event>
 6    1  0.1353269E-005  0.9757775E+03  0.7818608E-02  0.1008009E+00
          4   -1    0    0  502    0 -0.00000000000E+00  0.00000000000E+00  0.17726511024E+04  0.17726511024E+04  0.00000000000E+00 0.  1.
         21   -1    0    0  501  502  0.00000000000E+00 -0.00000000000E+00 -0.15816741061E+03  0.15816741061E+03  0.00000000000E+00 0.  1.
    9000010    2    1    2  501    0 -0.35507613160E+02 -0.72097785802E+02  0.15258260145E+04  0.18111561705E+04  0.97246221833E+03 0.  0.
        -13    1    3    3    0    0  0.35849162773E+03 -0.18243592247E+03  0.25541616370E+03  0.47648351578E+03  0.10566000000E+00 0.  1.
          4    1    3    3  501    0 -0.39399924089E+03  0.11033813667E+03  0.12704098508E+04  0.13346726547E+04  0.00000000000E+00 0.  1.
         13    1    1    2    0    0  0.35507613160E+02  0.72097785802E+02  0.88657677275E+02  0.11966234250E+03  0.10566000000E+00 0. -1.
<mgrwt>
<rscale>  1 0.52273659E+03</rscale>
<asrwt>0</asrwt>
<pdfrwt beam="2">  1       21 0.24333449E-01 0.97577746E+03</pdfrwt>
<pdfrwt beam="1">  1        4 0.27271554E+00 0.97577746E+03</pdfrwt>
<totfact> 0.30438317E+01</totfact>
</mgrwt>
</event>
<event>
 6    1  0.1353269E-005  0.1011737E+04  0.7818608E-02  0.9870875E-01
         21   -1    0    0  501  502  0.00000000000E+00  0.00000000000E+00  0.71121225285E+03  0.71121225285E+03  0.00000000000E+00 0.  1.
          4   -1    0    0  502    0 -0.00000000000E+00 -0.00000000000E+00 -0.76945274769E+03  0.76945274769E+03  0.00000000000E+00 0.  1.
    9000010    2    1    2  501    0 -0.91567818240E+02  0.10574682068E+03  0.33303234994E+03  0.10651394229E+04  0.10020201539E+04 0.  0.
        -13    1    3    3    0    0  0.16579180971E+03 -0.38665056179E+03  0.28357092652E+03  0.50734412644E+03  0.10566000000E+00 0.  1.
          4    1    3    3  501    0 -0.25735962796E+03  0.49239738248E+03  0.49461423419E+02  0.55779529648E+03  0.00000000000E+00 0.  1.
         13    1    1    2    0    0  0.91567818240E+02 -0.10574682068E+03 -0.39127284478E+03  0.41552557761E+03  0.10566000000E+00 0. -1.
<mgrwt>
<rscale>  1 0.61693781E+03</rscale>
<asrwt>0</asrwt>
<pdfrwt beam="1">  1       21 0.10941727E+00 0.10117368E+04</pdfrwt>
<pdfrwt beam="2">  1        4 0.11837734E+00 0.10117368E+04</pdfrwt>
<totfact> 0.13389279E+01</totfact>
</mgrwt>
</event>
<event>
 6    1  0.1353269E-005  0.1005225E+04  0.7818608E-02  0.1001172E+00
          4   -1    0    0  502    0 -0.00000000000E+00  0.00000000000E+00  0.44639849809E+03  0.44639849809E+03  0.00000000000E+00 0.  1.
         21   -1    0    0  501  502  0.00000000000E+00 -0.00000000000E+00 -0.67535971126E+03  0.67535971126E+03  0.00000000000E+00 0.  1.
    9000010    2    1    2  501    0  0.83724115030E+02  0.35664469597E+02 -0.22795896805E+03  0.10307488830E+04  0.10010975411E+04 0.  0.
        -13    1    3    3    0    0  0.28290262125E+03 -0.40708228963E+03 -0.31570897666E+01  0.49574172915E+03  0.10566000000E+00 0.  1.
          4    1    3    3  501    0 -0.19917850622E+03  0.44274675923E+03 -0.22480187828E+03  0.53500715381E+03  0.00000000000E+00 0.  1.
         13    1    1    2    0    0 -0.83724115030E+02 -0.35664469597E+02 -0.10022451262E+01  0.91009326383E+02  0.10566000000E+00 0. -1.
<mgrwt>
<rscale>  1 0.55139454E+03</rscale>
<asrwt>0</asrwt>
<pdfrwt beam="2">  1       21 0.10390149E+00 0.10052253E+04</pdfrwt>
<pdfrwt beam="1">  1        4 0.68676692E-01 0.10052253E+04</pdfrwt>
<totfact> 0.55146282E+01</totfact>
</mgrwt>
</event>
<event>
 6    1  0.1353269E-005  0.1045101E+04  0.7818608E-02  0.9998843E-01
          4   -1    0    0  502    0 -0.00000000000E+00  0.00000000000E+00  0.88614754179E+03  0.88614754179E+03  0.00000000000E+00 0.  1.
         21   -1    0    0  501  502  0.00000000000E+00 -0.00000000000E+00 -0.45138012812E+03  0.45138012812E+03  0.00000000000E+00 0.  1.
    9000010    2    1    2  501    0 -0.71581062380E+02 -0.44581613320E+02  0.16896846359E+03  0.10586720410E+04  0.10416932274E+04 0.  0.
        -13    1    3    3    0    0  0.15162824504E+03 -0.38256496418E+03  0.41526400260E+03  0.58462918122E+03  0.10566000000E+00 0.  1.
          4    1    3    3  501    0 -0.22320930742E+03  0.33798335086E+03 -0.24629553901E+03  0.47404285979E+03  0.00000000000E+00 0.  1.
         13    1    1    2    0    0  0.71581062380E+02  0.44581613320E+02  0.26579895008E+03  0.27885562889E+03  0.10566000000E+00 0. -1.
<mgrwt>
<rscale>  1 0.55700993E+03</rscale>
<asrwt>0</asrwt>
<pdfrwt beam="2">  1       21 0.69443097E-01 0.10451010E+04</pdfrwt>
<pdfrwt beam="1">  1        4 0.13633039E+00 0.10451010E+04</pdfrwt>
<totfact> 0.27748307E+01</totfact>
</mgrwt>
</event>
<event>
 6    1  0.1353269E-005  0.1288600E+04  0.7818608E-02  0.9156612E-01
         21   -1    0    0  501  502  0.00000000000E+00  0.00000000000E+00  0.78236727829E+03  0.78236727829E+03  0.00000000000E+00 0.  1.
          4   -1    0    0  502    0 -0.00000000000E+00 -0.00000000000E+00 -0.16893087753E+04  0.16893087753E+04  0.00000000000E+00 0.  1.
    9000010    2    1    2  501    0 -0.65661333525E+03 -0.49288690717E+03 -0.56868834285E+02  0.12898545280E+04  0.99318279476E+03 0.  0.
        -13    1    3    3    0    0 -0.54461500788E+03 -0.78482222243E+03 -0.14204651406E+03  0.96577877951E+03  0.10566000000E+00 0.  1.
          4    1    3    3  501    0 -0.11199832737E+03  0.29193531526E+03  0.85177679779E+02  0.32407574849E+03  0.00000000000E+00 0.  1.
         13    1    1    2    0    0  0.65661333525E+03  0.49288690717E+03 -0.85007266276E+03  0.11818215256E+04  0.10566000000E+00 0. -1.
<mgrwt>
<rscale>  1 0.11512708E+04</rscale>
<asrwt>0</asrwt>
<pdfrwt beam="1">  1       21 0.12036420E+00 0.12886003E+04</pdfrwt>
<pdfrwt beam="2">  1        4 0.25989365E+00 0.12886003E+04</pdfrwt>
<totfact> 0.10019699E+00</totfact>
</mgrwt>
</event>
<event>
 6    1  0.1353269E-005  0.1010110E+04  0.7818608E-02  0.1016527E+00
         21   -1    0    0  501  502  0.00000000000E+00  0.00000000000E+00  0.14871081417E+04  0.14871081417E+04  0.00000000000E+00 0.  1.
          4   -1    0    0  502    0 -0.00000000000E+00 -0.00000000000E+00 -0.29674383458E+03  0.29674383458E+03  0.00000000000E+00 0.  1.
    9000010    2    1    2  501    0 -0.79034861395E+01 -0.55193471600E+02  0.13086140474E+04  0.16531163782E+04  0.10085703993E+04 0.  0.
        -13    1    3    3    0    0 -0.75903225790E+02 -0.50586539906E+03  0.92660819555E+03  0.10584251796E+04  0.10566000000E+00 0.  1.
          4    1    3    3  501    0  0.67999739651E+02  0.45067192746E+03  0.38200585182E+03  0.59469119854E+03  0.00000000000E+00 0.  1.
         13    1    1    2    0    0  0.79034861395E+01  0.55193471600E+02 -0.11824974021E+03  0.13073559815E+03  0.10566000000E+00 0. -1.
<mgrwt>
<rscale>  1 0.48961042E+03</rscale>
<asrwt>0</asrwt>
<pdfrwt beam="1">  1       21 0.22878586E+00 0.10101104E+04</pdfrwt>
<pdfrwt beam="2">  1        4 0.45652898E-01 0.10101104E+04</pdfrwt>
<totfact> 0.13835170E+01</totfact>
</mgrwt>
</event>
<event>
 6    1  0.1353269E-005  0.1151464E+04  0.7818608E-02  0.9351279E-01
         21   -1    0    0  501  502  0.00000000000E+00  0.00000000000E+00  0.87068824177E+03  0.87068824177E+03  0.00000000000E+00 0.  1.
          4   -1    0    0  502    0 -0.00000000000E+00 -0.00000000000E+00 -0.86958021786E+03  0.86958021786E+03  0.00000000000E+00 0.  1.
    9000010    2    1    2  501    0  0.52855489366E+03 -0.18769111912E+03  0.14674930710E+03  0.11607776259E+04  0.10056197621E+04 0.  0.
        -13    1    3    3    0    0 -0.18037483786E+03 -0.19397150798E+03  0.33517946724E+03  0.42720640733E+03  0.10566000000E+00 0.  1.
          4    1    3    3  501    0  0.70892973152E+03  0.62803888627E+01 -0.18843016014E+03  0.73357121860E+03  0.00000000000E+00 0.  1.
         13    1    1    2    0    0 -0.52855489366E+03  0.18769111912E+03 -0.14564128319E+03  0.57949083370E+03  0.10566000000E+00 0. -1.
<mgrwt>
<rscale>  1 0.96196065E+03</rscale>
<asrwt>0</asrwt>
<pdfrwt beam="1">  1       21 0.13395204E+00 0.11514640E+04</pdfrwt>
<pdfrwt beam="2">  1        4 0.13378157E+00 0.11514640E+04</pdfrwt>
<totfact> 0.56939454E+00</totfact>
</mgrwt>
</event>
<event>
 6    1  0.1353269E-005  0.1120917E+04  0.7818608E-02  0.9436863E-01
         21   -1    0    0  501  502  0.00000000000E+00  0.00000000000E+00  0.16185920687E+04  0.16185920687E+04  0.00000000000E+00 0.  1.
          4   -1    0    0  502    0 -0.00000000000E+00 -0.00000000000E+00 -0.43683421836E+03  0.43683421836E+03  0.00000000000E+00 0.  1.
    9000010    2    1    2  501    0  0.84793403352E+01  0.44748035915E+03  0.47178124231E+03  0.12161543608E+04  0.10276883369E+04 0.  0.
        -13    1    3    3    0    0 -0.15473151242E+03 -0.36323256622E+02 -0.27137793654E+03  0.31449517566E+03  0.10566000000E+00 0.  1.
          4    1    3    3  501    0  0.16321085276E+03  0.48380361577E+03  0.74315917885E+03  0.90165918517E+03  0.00000000000E+00 0.  1.
         13    1    1    2    0    0 -0.84793403352E+01 -0.44748035915E+03  0.70997660800E+03  0.83927192620E+03  0.10566000000E+00 0. -1.
<mgrwt>
<rscale>  1 0.89103138E+03</rscale>
<asrwt>0</asrwt>
<pdfrwt beam="1">  1       21 0.24901416E+00 0.11209165E+04</pdfrwt>
<pdfrwt beam="2">  1        4 0.67205265E-01 0.11209165E+04</pdfrwt>
<totfact> 0.43905048E+00</totfact>
</mgrwt>
</event>
<event>
 6    1  0.1353269E-005  0.1102275E+04  0.7818608E-02  0.9350558E-01
         21   -1    0    0  501  502  0.00000000000E+00  0.00000000000E+00  0.18551076960E+04  0.18551076960E+04  0.00000000000E+00 0. -1.
          4   -1    0    0  502    0 -0.00000000000E+00 -0.00000000000E+00 -0.60380975344E+03  0.60380975344E+03  0.00000000000E+00 0.  1.
    9000010    2    1    2  501    0 -0.21205254279E+03  0.60495891509E+03  0.14184961924E+04  0.17964245546E+04  0.89669847922E+03 0.  0.
        -13    1    3    3    0    0 -0.33660233346E+03  0.78120139019E+03  0.12901413132E+04  0.15453288848E+04  0.10566000000E+00 0.  1.
          4    1    3    3  501    0  0.12454979067E+03 -0.17624247510E+03  0.12835487922E+03  0.25109566983E+03  0.00000000000E+00 0.  1.
         13    1    1    2    0    0  0.21205254279E+03 -0.60495891509E+03 -0.16719824983E+03  0.66249289487E+03  0.10566000000E+00 0. -1.
<mgrwt>
<rscale>  1 0.96258684E+03</rscale>
<asrwt>0</asrwt>
<pdfrwt beam="1">  1       21 0.28540118E+00 0.11022748E+04</pdfrwt>
<pdfrwt beam="2">  1        4 0.92893809E-01 0.11022748E+04</pdfrwt>
<totfact> 0.12344374E+00</totfact>
</mgrwt>
</event>
<event>
 6    1  0.1353269E-005  0.9413904E+03  0.7818608E-02  0.9766142E-01
          4   -1    0    0  502    0 -0.00000000000E+00  0.00000000000E+00  0.14229418494E+04  0.14229418494E+04  0.00000000000E+00 0.  1.
         21   -1    0    0  501  502  0.00000000000E+00 -0.00000000000E+00 -0.25257803932E+03  0.25257803932E+03  0.00000000000E+00 0.  1.
    9000010    2    1    2  501    0 -0.61113885794E+02 -0.23684955906E+03  0.82140522790E+03  0.12493688311E+04  0.90905627278E+03 0.  0.
        -13    1    3    3    0    0  0.36558043153E+02 -0.51502440183E+03  0.18583133040E+03  0.54874394714E+03  0.10566000000E+00 0.  1.
          4    1    3    3  501    0 -0.97671928948E+02  0.27817484278E+03  0.63557389750E+03  0.70062488397E+03  0.00000000000E+00 0.  1.
         13    1    1    2    0    0  0.61113885794E+02  0.23684955906E+03  0.34895858220E+03  0.42615105763E+03  0.10566000000E+00 0. -1.
<mgrwt>
<rscale>  1 0.67211656E+03</rscale>
<asrwt>0</asrwt>
<pdfrwt beam="2">  1       21 0.38858161E-01 0.94139042E+03</pdfrwt>
<pdfrwt beam="1">  1        4 0.21891413E+00 0.94139042E+03</pdfrwt>
<totfact> 0.25605320E+01</totfact>
</mgrwt>
</event>
<event>
 6    1  0.1353269E-005  0.1005557E+04  0.7818608E-02  0.9880186E-01
          4   -1    0    0  502    0 -0.00000000000E+00  0.00000000000E+00  0.66026316102E+03  0.66026316102E+03  0.00000000000E+00 0.  1.
         21   -1    0    0  501  502  0.00000000000E+00 -0.00000000000E+00 -0.57816462687E+03  0.57816462687E+03  0.00000000000E+00 0.  1.
    9000010    2    1    2  501    0  0.12040980873E+03 -0.67935095731E+02 -0.99191531429E+02  0.10104370023E+04  0.99600716687E+03 0.  0.
        -13    1    3    3    0    0 -0.43687277791E+03  0.24732440682E+02 -0.82333621151E+02  0.44525088887E+03  0.10566000000E+00 0.  1.
          4    1    3    3  501    0  0.55728258664E+03 -0.92667536413E+02 -0.16857910279E+02  0.56518611343E+03  0.00000000000E+00 0.  1.
         13    1    1    2    0    0 -0.12040980873E+03  0.67935095731E+02  0.18129006558E+03  0.22799078558E+03  0.10566000000E+00 0. -1.
<mgrwt>
<rscale>  1 0.61231232E+03</rscale>
<asrwt>0</asrwt>
<pdfrwt beam="2">  1       21 0.88948405E-01 0.10055566E+04</pdfrwt>
<pdfrwt beam="1">  1        4 0.10157895E+00 0.10055566E+04</pdfrwt>
<totfact> 0.32567663E+01</totfact>
</mgrwt>
</event>
<event>
 6    1  0.1353269E-005  0.1021644E+04  0.7818608E-02  0.9774060E-01
         21   -1    0    0  501  502  0.00000000000E+00  0.00000000000E+00  0.13056343902E+04  0.13056343902E+04  0.00000000000E+00 0.  1.
          4   -1    0    0  502    0 -0.00000000000E+00 -0.00000000000E+00 -0.32755177124E+03  0.32755177124E+03  0.00000000000E+00 0.  1.
    9000010    2    1    2  501    0  0.96381719716E+02  0.15958270013E+03  0.10183082373E+04  0.14424659852E+04  0.10044901085E+04 0.  0.
        -13    1    3    3    0    0  0.30549290569E+03  0.32919386416E+03  0.67350839663E+02  0.45412626262E+03  0.10566000000E+00 0.  1.
          4    1    3    3  501    0 -0.20911118598E+03 -0.16961116403E+03  0.95095739764E+03  0.98833972256E+03  0.00000000000E+00 0.  1.
         13    1    1    2    0    0 -0.96381719716E+02 -0.15958270013E+03 -0.40225618384E+02  0.19072017622E+03  0.10566000000E+00 0. -1.
<mgrwt>
<rscale>  1 0.66773409E+03</rscale>
<asrwt>0</asrwt>
<pdfrwt beam="1">  1       21 0.20086683E+00 0.10216440E+04</pdfrwt>
<pdfrwt beam="2">  1        4 0.50392581E-01 0.10216440E+04</pdfrwt>
<totfact> 0.17250059E+01</totfact>
</mgrwt>
</event>
<event>
 6    1  0.1353269E-005  0.1316390E+04  0.7818608E-02  0.9135482E-01
          4   -1    0    0  502    0 -0.00000000000E+00  0.00000000000E+00  0.68769561974E+03  0.68769561974E+03  0.00000000000E+00 0.  1.
         21   -1    0    0  501  502  0.00000000000E+00 -0.00000000000E+00 -0.16815191865E+04  0.16815191865E+04  0.00000000000E+00 0. -1.
    9000010    2    1    2  501    0  0.62694495505E+03  0.55022814775E+03 -0.62210921505E+03  0.14559883493E+04  0.10183669312E+04 0.  0.
        -13    1    3    3    0    0  0.43728646446E+03  0.40669161838E+03 -0.90632610952E+03  0.10853776082E+04  0.10566000000E+00 0.  1.
          4    1    3    3  501    0  0.18965849059E+03  0.14353652938E+03  0.28421689447E+03  0.37061074110E+03  0.00000000000E+00 0.  1.
         13    1    1    2    0    0 -0.62694495505E+03 -0.55022814775E+03 -0.37171435175E+03  0.91322645697E+03  0.10566000000E+00 0. -1.
<mgrwt>
<rscale>  1 0.11744913E+04</rscale>
<asrwt>0</asrwt>
<pdfrwt beam="2">  1       21 0.25869526E+00 0.13163898E+04</pdfrwt>
<pdfrwt beam="1">  1        4 0.10579933E+00 0.13163898E+04</pdfrwt>
<totfact> 0.12846082E+00</totfact>
</mgrwt>
</event>
<event>
 6    1  0.1353269E-005  0.1034712E+04  0.7818608E-02  0.9708310E-01
          4   -1    0    0  502    0 -0.00000000000E+00  0.00000000000E+00  0.67260854622E+03  0.67260854622E+03  0.00000000000E+00 0.  1.
         21   -1    0    0  501  502  0.00000000000E+00 -0.00000000000E+00 -0.61858901503E+03  0.61858901503E+03  0.00000000000E+00 0. -1.
    9000010    2    1    2  501    0 -0.20407639460E+03  0.90645626593E+02  0.15476258654E+03  0.10462220955E+04  0.10103293574E+04 0.  0.
        -13    1    3    3    0    0 -0.31380663160E+03 -0.34230215869E+03 -0.16944069225E+03  0.49432330436E+03  0.10566000000E+00 0.  1.
          4    1    3    3  501    0  0.10973023701E+03  0.43294778528E+03  0.32420327879E+03  0.55189879115E+03  0.00000000000E+00 0.  1.
         13    1    1    2    0    0  0.20407639460E+03 -0.90645626593E+02 -0.10074305535E+03  0.24497546575E+03  0.10566000000E+00 0. -1.
<mgrwt>
<rscale>  1 0.70524157E+03</rscale>
<asrwt>0</asrwt>
<pdfrwt beam="2">  1       21 0.95167541E-01 0.10347121E+04</pdfrwt>
<pdfrwt beam="1">  1        4 0.10347824E+00 0.10347121E+04</pdfrwt>
<totfact> 0.26353227E+01</totfact>
</mgrwt>
</event>
<event>
 6    1  0.1353269E-005  0.1015904E+04  0.7818608E-02  0.9896222E-01
         21   -1    0    0  501  502  0.00000000000E+00  0.00000000000E+00  0.38443517979E+03  0.38443517979E+03  0.00000000000E+00 0.  1.
          4   -1    0    0  502    0 -0.00000000000E+00 -0.00000000000E+00 -0.91514753707E+03  0.91514753707E+03  0.00000000000E+00 0.  1.
    9000010    2    1    2  501    0 -0.95451832359E+02  0.84248371263E+02 -0.34197181305E+03  0.10719166356E+04  0.10078946931E+04 0.  0.
        -13    1    3    3    0    0  0.58161222825E+02 -0.17919661855E+03 -0.62687883830E+03  0.65457714977E+03  0.10566000000E+00 0.  1.
          4    1    3    3  501    0 -0.15361305518E+03  0.26344498981E+03  0.28490702525E+03  0.41733948581E+03  0.00000000000E+00 0.  1.
         13    1    1    2    0    0  0.95451832359E+02 -0.84248371263E+02 -0.18874054423E+03  0.22766608127E+03  0.10566000000E+00 0. -1.
<mgrwt>
<rscale>  1 0.60444734E+03</rscale>
<asrwt>0</asrwt>
<pdfrwt beam="1">  1       21 0.59143875E-01 0.10159038E+04</pdfrwt>
<pdfrwt beam="2">  1        4 0.14079193E+00 0.10159038E+04</pdfrwt>
<totfact> 0.36724092E+01</totfact>
</mgrwt>
</event>
<event>
 6    1  0.1353269E-005  0.1005319E+04  0.7818608E-02  0.9949644E-01
          4   -1    0    0  502    0 -0.00000000000E+00  0.00000000000E+00  0.61573735111E+03  0.61573735111E+03  0.00000000000E+00 0.  1.
         21   -1    0    0  501  502  0.00000000000E+00 -0.00000000000E+00 -0.70557965772E+03  0.70557965772E+03  0.00000000000E+00 0.  1.
    9000010    2    1    2  501    0 -0.96827760677E+02  0.53702343171E+02 -0.32898994247E+03  0.10577811293E+04  0.99920317171E+03 0.  0.
        -13    1    3    3    0    0  0.94569854242E+02 -0.13308648921E+03 -0.63251346506E+03  0.65324479760E+03  0.10566000000E+00 0.  1.
          4    1    3    3  501    0 -0.19139761492E+03  0.18678883238E+03  0.30352352259E+03  0.40453633170E+03  0.00000000000E+00 0.  1.
         13    1    1    2    0    0  0.96827760677E+02 -0.53702343171E+02  0.23914763586E+03  0.26353587953E+03  0.10566000000E+00 0. -1.
<mgrwt>
<rscale>  1 0.57914506E+03</rscale>
<asrwt>0</asrwt>
<pdfrwt beam="2">  1       21 0.10855072E+00 0.10053191E+04</pdfrwt>
<pdfrwt beam="1">  1        4 0.94728824E-01 0.10053191E+04</pdfrwt>
<totfact> 0.23553106E+01</totfact>
</mgrwt>
</event>
<event>
 6    1  0.1353269E-005  0.1049024E+04  0.7818608E-02  0.9569433E-01
         21   -1    0    0  501  502  0.00000000000E+00  0.00000000000E+00  0.82042285498E+03  0.82042285498E+03  0.00000000000E+00 0.  1.
          4   -1    0    0  502    0 -0.00000000000E+00 -0.00000000000E+00 -0.64502990529E+03  0.64502990529E+03  0.00000000000E+00 0.  1.
    9000010    2    1    2  501    0  0.12599271898E+03  0.31952935097E+03  0.31408667769E+03  0.10950352489E+04  0.99120057703E+03 0.  0.
        -13    1    3    3    0    0  0.41125189472E+03  0.84251691177E+02  0.52275896590E+03  0.67045015920E+03  0.10566000000E+00 0.  1.
          4    1    3    3  501    0 -0.28525917574E+03  0.23527765979E+03 -0.20867228821E+03  0.42458508972E+03  0.00000000000E+00 0.  1.
         13    1    1    2    0    0 -0.12599271898E+03 -0.31952935097E+03 -0.13869372800E+03  0.37041751136E+03  0.10566000000E+00 0. -1.
<mgrwt>
<rscale>  1 0.79352761E+03</rscale>
<asrwt>0</asrwt>
<pdfrwt beam="1">  1       21 0.12621890E+00 0.10490242E+04</pdfrwt>
<pdfrwt beam="2">  1        4 0.99235370E-01 0.10490242E+04</pdfrwt>
<totfact> 0.14222187E+01</totfact>
</mgrwt>
</event>
<event>
 6    1  0.1353269E-005  0.1141428E+04  0.7818608E-02  0.9359217E-01
         21   -1    0    0  501  502  0.00000000000E+00  0.00000000000E+00  0.62027202041E+03  0.62027202041E+03  0.00000000000E+00 0.  1.
          4   -1    0    0  502    0 -0.00000000000E+00 -0.00000000000E+00 -0.13366879707E+04  0.13366879707E+04  0.00000000000E+00 0.  1.
    9000010    2    1    2  501    0  0.13230187899E+03 -0.54368174084E+03 -0.13393227778E+03  0.11492590177E+04  0.99486924379E+03 0.  0.
        -13    1    3    3    0    0  0.42007183298E+02 -0.64834088456E+03 -0.45936130215E+03  0.79569046942E+03  0.10566000000E+00 0.  1.
          4    1    3    3  501    0  0.90294695694E+02  0.10465914372E+03  0.32542902437E+03  0.35356854829E+03  0.00000000000E+00 0.  1.
         13    1    1    2    0    0 -0.13230187899E+03  0.54368174084E+03 -0.58248367249E+03  0.80770097337E+03  0.10566000000E+00 0. -1.
<mgrwt>
<rscale>  1 0.95509317E+03</rscale>
<asrwt>0</asrwt>
<pdfrwt beam="1">  1       21 0.95426466E-01 0.11414282E+04</pdfrwt>
<pdfrwt beam="2">  1        4 0.20564430E+00 0.11414282E+04</pdfrwt>
<totfact> 0.40539107E+00</totfact>
</mgrwt>
</event>
<event>
 6    1  0.1353269E-005  0.1009511E+04  0.7818608E-02  0.9555481E-01
          4   -1    0    0  502    0 -0.00000000000E+00  0.00000000000E+00  0.64408900070E+03  0.64408900070E+03  0.00000000000E+00 0.  1.
         21   -1    0    0  501  502  0.00000000000E+00 -0.00000000000E+00 -0.89699714553E+03  0.89699714553E+03  0.00000000000E+00 0.  1.
    9000010    2    1    2  501    0  0.38618006221E+03  0.12009465408E+03 -0.43290499340E+03  0.10984162432E+04  0.92496148223E+03 0.  0.
        -13    1    3    3    0    0 -0.22464265127E+03  0.11627262956E+03  0.11499231391E+03  0.27786127578E+03  0.10566000000E+00 0.  1.
          4    1    3    3  501    0  0.61082271348E+03  0.38220245254E+01 -0.54789730732E+03  0.82055496741E+03  0.00000000000E+00 0.  1.
         13    1    1    2    0    0 -0.38618006221E+03 -0.12009465408E+03  0.17999684858E+03  0.44266990303E+03  0.10566000000E+00 0. -1.
<mgrwt>
<rscale>  1 0.80314145E+03</rscale>
<asrwt>0</asrwt>
<pdfrwt beam="2">  1       21 0.13799956E+00 0.10095105E+04</pdfrwt>
<pdfrwt beam="1">  1        4 0.99090616E-01 0.10095105E+04</pdfrwt>
<totfact> 0.11296558E+01</totfact>
</mgrwt>
</event>
<event>
 6    1  0.1353269E-005  0.1045175E+04  0.7818608E-02  0.9601682E-01
         21   -1    0    0  501  502  0.00000000000E+00  0.00000000000E+00  0.21703958932E+04  0.21703958932E+04  0.00000000000E+00 0.  1.
          4   -1    0    0  502    0 -0.00000000000E+00 -0.00000000000E+00 -0.54686711611E+03  0.54686711611E+03  0.00000000000E+00 0.  1.
    9000010    2    1    2  501    0 -0.22356415585E+03 -0.21599205663E+03  0.19832701174E+04  0.22418186452E+04  0.99787623420E+03 0.  0.
        -13    1    3    3    0    0 -0.15126076595E+03  0.30455577938E+03  0.14641310097E+04  0.15031013495E+04  0.10566000000E+00 0.  1.
          4    1    3    3  501    0 -0.72303389902E+02 -0.52054783601E+03  0.51913910773E+03  0.73871729569E+03  0.00000000000E+00 0.  1.
         13    1    1    2    0    0  0.22356415585E+03  0.21599205663E+03 -0.35974134033E+03  0.47544436417E+03  0.10566000000E+00 0. -1.
<mgrwt>
<rscale>  1 0.77184960E+03</rscale>
<asrwt>0</asrwt>
<pdfrwt beam="1">  1       21 0.33390705E+00 0.10451749E+04</pdfrwt>
<pdfrwt beam="2">  1        4 0.84133404E-01 0.10451749E+04</pdfrwt>
<totfact> 0.78379868E-01</totfact>
</mgrwt>
</event>
<event>
 6    1  0.1353269E-005  0.1041264E+04  0.7818608E-02  0.9599129E-01
         21   -1    0    0  501  502  0.00000000000E+00  0.00000000000E+00  0.68552673254E+03  0.68552673254E+03  0.00000000000E+00 0.  1.
          4   -1    0    0  502    0 -0.00000000000E+00 -0.00000000000E+00 -0.71916299161E+03  0.71916299161E+03  0.00000000000E+00 0.  1.
    9000010    2    1    2  501    0  0.15135498100E+02  0.31677418220E+03  0.12736821578E+03  0.10490249692E+04  0.99179421145E+03 0.  0.
        -13    1    3    3    0    0 -0.17812141974E+03  0.62980261472E+03 -0.14687754490E+02  0.65467115025E+03  0.10566000000E+00 0.  1.
          4    1    3    3  501    0  0.19325691784E+03 -0.31302843252E+03  0.14205597027E+03  0.39435381898E+03  0.00000000000E+00 0.  1.
         13    1    1    2    0    0 -0.15135498100E+02 -0.31677418220E+03 -0.16100447484E+03  0.35566475492E+03  0.10566000000E+00 0. -1.
<mgrwt>
<rscale>  1 0.77353841E+03</rscale>
<asrwt>0</asrwt>
<pdfrwt beam="1">  1       21 0.10546565E+00 0.10412640E+04</pdfrwt>
<pdfrwt beam="2">  1        4 0.11064046E+00 0.10412640E+04</pdfrwt>
<totfact> 0.17318737E+01</totfact>
</mgrwt>
</event>
<event>
 6    1  0.1353269E-005  0.1029946E+04  0.7818608E-02  0.9673776E-01
         21   -1    0    0  501  502  0.00000000000E+00  0.00000000000E+00  0.55896101312E+03  0.55896101312E+03  0.00000000000E+00 0.  1.
          4   -1    0    0  502    0 -0.00000000000E+00 -0.00000000000E+00 -0.92403483902E+03  0.92403483902E+03  0.00000000000E+00 0.  1.
    9000010    2    1    2  501    0  0.25405710801E+03 -0.10482728015E+02  0.98355981099E+01  0.10299925529E+04  0.99806463638E+03 0.  0.
        -13    1    3    3    0    0 -0.17093488744E+03 -0.39447466087E+03  0.12080902573E+03  0.44656894840E+03  0.10566000000E+00 0.  1.
          4    1    3    3  501    0  0.42499199545E+03  0.38399193286E+03 -0.11097342762E+03  0.58342360454E+03  0.00000000000E+00 0.  1.
         13    1    1    2    0    0 -0.25405710801E+03  0.10482728015E+02 -0.37490942401E+03  0.45300329921E+03  0.10566000000E+00 0. -1.
<mgrwt>
<rscale>  1 0.72599880E+03</rscale>
<asrwt>0</asrwt>
<pdfrwt beam="1">  1       21 0.85994003E-01 0.10299456E+04</pdfrwt>
<pdfrwt beam="2">  1        4 0.14215921E+00 0.10299456E+04</pdfrwt>
<totfact> 0.15097983E+01</totfact>
</mgrwt>
</event>
<event>
 6    1  0.1353269E-005  0.9519209E+03  0.7818608E-02  0.1017721E+00
         21   -1    0    0  501  502  0.00000000000E+00  0.00000000000E+00  0.44066277643E+03  0.44066277643E+03  0.00000000000E+00 0.  1.
          4   -1    0    0  502    0 -0.00000000000E+00 -0.00000000000E+00 -0.58589241546E+03  0.58589241546E+03  0.00000000000E+00 0.  1.
    9000010    2    1    2  501    0 -0.12228669613E+02  0.63066403595E+02 -0.13893468618E+03  0.96200637921E+03  0.94975076467E+03 0.  0.
        -13    1    3    3    0    0 -0.20054409445E+03  0.41955129330E+03 -0.27043245642E+03  0.53793581975E+03  0.10566000000E+00 0.  1.
          4    1    3    3  501    0  0.18831542484E+03 -0.35648488970E+03  0.13149777024E+03  0.42407055945E+03  0.00000000000E+00 0.  1.
         13    1    1    2    0    0  0.12228669613E+02 -0.63066403595E+02 -0.62949528599E+01  0.64548812680E+02  0.10566000000E+00 0. -1.
<mgrwt>
<rscale>  1 0.48518124E+03</rscale>
<asrwt>0</asrwt>
<pdfrwt beam="1">  1       21 0.67794273E-01 0.95192091E+03</pdfrwt>
<pdfrwt beam="2">  1        4 0.90137295E-01 0.95192091E+03</pdfrwt>
<totfact> 0.82090711E+01</totfact>
</mgrwt>
</event>
<event>
 6    1  0.1353269E-005  0.1049948E+04  0.7818608E-02  0.9579924E-01
          4   -1    0    0  502    0 -0.00000000000E+00  0.00000000000E+00  0.18660742864E+04  0.18660742864E+04  0.00000000000E+00 0.  1.
         21   -1    0    0  501  502  0.00000000000E+00 -0.00000000000E+00 -0.29702934354E+03  0.29702934354E+03  0.00000000000E+00 0.  1.
    9000010    2    1    2  501    0  0.21973184457E+03  0.24675887305E+03  0.78092301155E+03  0.13085229054E+04  0.99660394296E+03 0.  0.
        -13    1    3    3    0    0  0.11060556871E+03 -0.18113137062E+03 -0.16221538961E+03  0.26712545562E+03  0.10566000000E+00 0.  1.
          4    1    3    3  501    0  0.10912627586E+03  0.42789024367E+03  0.94313840116E+03  0.10413974498E+04  0.00000000000E+00 0.  1.
         13    1    1    2    0    0 -0.21973184457E+03 -0.24675887305E+03  0.78812193131E+03  0.85458072452E+03  0.10566000000E+00 0. -1.
<mgrwt>
<rscale>  1 0.78639341E+03</rscale>
<asrwt>0</asrwt>
<pdfrwt beam="2">  1       21 0.45696823E-01 0.10499483E+04</pdfrwt>
<pdfrwt beam="1">  1        4 0.28708835E+00 0.10499483E+04</pdfrwt>
<totfact> 0.67741666E+00</totfact>
</mgrwt>
</event>
<event>
 6    1  0.1353269E-005  0.1113910E+04  0.7818608E-02  0.9422961E-01
         21   -1    0    0  501  502  0.00000000000E+00  0.00000000000E+00  0.26315699400E+03  0.26315699400E+03  0.00000000000E+00 0.  1.
          4   -1    0    0  502    0 -0.00000000000E+00 -0.00000000000E+00 -0.24845813510E+04  0.24845813510E+04  0.00000000000E+00 0.  1.
    9000010    2    1    2  501    0  0.47247075198E+03 -0.79694368807E+02 -0.17577105565E+04  0.20809472954E+04  0.10055920852E+04 0.  0.
        -13    1    3    3    0    0  0.37777370292E+03  0.55175298829E+02 -0.18520966355E+04  0.18910365525E+04  0.10566000000E+00 0.  1.
          4    1    3    3  501    0  0.94697049062E+02 -0.13486966764E+03  0.94386079059E+02  0.18991074290E+03  0.00000000000E+00 0.  1.
         13    1    1    2    0    0 -0.47247075198E+03  0.79694368807E+02 -0.46371380049E+03  0.66679104960E+03  0.10566000000E+00 0. -1.
<mgrwt>
<rscale>  1 0.90209923E+03</rscale>
<asrwt>0</asrwt>
<pdfrwt beam="1">  1       21 0.40485691E-01 0.11139099E+04</pdfrwt>
<pdfrwt beam="2">  1        4 0.38224329E+00 0.11139099E+04</pdfrwt>
<totfact> 0.21322486E+00</totfact>
</mgrwt>
</event>
<event>
 6    1  0.1353269E-005  0.1101563E+04  0.7818608E-02  0.9506989E-01
         21   -1    0    0  501  502  0.00000000000E+00  0.00000000000E+00  0.56189186273E+03  0.56189186273E+03  0.00000000000E+00 0.  1.
          4   -1    0    0  502    0 -0.00000000000E+00 -0.00000000000E+00 -0.99433851800E+03  0.99433851800E+03  0.00000000000E+00 0.  1.
    9000010    2    1    2  501    0 -0.32252894649E+03  0.17805813577E+03 -0.19709152175E+03  0.11190557348E+04  0.10381286281E+04 0.  0.
        -13    1    3    3    0    0 -0.25476350092E+03 -0.28981694547E+03 -0.44190865425E+03  0.58666990135E+03  0.10566000000E+00 0.  1.
          4    1    3    3  501    0 -0.67765445571E+02  0.46787508124E+03  0.24481713249E+03  0.53238583342E+03  0.00000000000E+00 0.  1.
         13    1    1    2    0    0  0.32252894649E+03 -0.17805813577E+03 -0.23535513351E+03  0.43717464596E+03  0.10566000000E+00 0. -1.
<mgrwt>
<rscale>  1 0.83770535E+03</rscale>
<asrwt>0</asrwt>
<pdfrwt beam="1">  1       21 0.86444903E-01 0.11015628E+04</pdfrwt>
<pdfrwt beam="2">  1        4 0.15297515E+00 0.11015628E+04</pdfrwt>
<totfact> 0.12167130E+01</totfact>
</mgrwt>
</event>
<event>
 6    1  0.1353269E-005  0.1008758E+04  0.7818608E-02  0.9788540E-01
         21   -1    0    0  501  502  0.00000000000E+00  0.00000000000E+00  0.49972902608E+03  0.49972902608E+03  0.00000000000E+00 0.  1.
          4   -1    0    0  502    0 -0.00000000000E+00 -0.00000000000E+00 -0.71249695999E+03  0.71249695999E+03  0.00000000000E+00 0.  1.
    9000010    2    1    2  501    0 -0.91636033827E+02 -0.16029248262E+03 -0.18186067614E+03  0.10250199167E+04  0.99171653275E+03 0.  0.
        -13    1    3    3    0    0 -0.33183615598E+02 -0.84346018260E+00  0.40894534970E+03  0.41029035325E+03  0.10566000000E+00 0.  1.
          4    1    3    3  501    0 -0.58452418230E+02 -0.15944902244E+03 -0.59080602584E+03  0.61472956340E+03  0.00000000000E+00 0.  1.
         13    1    1    2    0    0  0.91636033827E+02  0.16029248262E+03 -0.30907257765E+02  0.18720606942E+03  0.10566000000E+00 0. -1.
<mgrwt>
<rscale>  1 0.65981169E+03</rscale>
<asrwt>0</asrwt>
<pdfrwt beam="1">  1       21 0.76881388E-01 0.10087579E+04</pdfrwt>
<pdfrwt beam="2">  1        4 0.10961492E+00 0.10087579E+04</pdfrwt>
<totfact> 0.38188412E+01</totfact>
</mgrwt>
</event>
<event>
 6    1  0.1353269E-005  0.1012620E+04  0.7818608E-02  0.1002526E+00
         21   -1    0    0  501  502  0.00000000000E+00  0.00000000000E+00  0.51493991715E+03  0.51493991715E+03  0.00000000000E+00 0.  1.
          4   -1    0    0  502    0 -0.00000000000E+00 -0.00000000000E+00 -0.84512315635E+03  0.84512315635E+03  0.00000000000E+00 0.  1.
    9000010    2    1    2  501    0  0.31405438853E+02  0.79328084859E+02  0.65997527925E+01  0.10126410801E+04  0.10090189065E+04 0.  0.
        -13    1    3    3    0    0 -0.46607151498E+03 -0.96985196806E+02 -0.63262312330E+02  0.48024047809E+03  0.10566000000E+00 0.  1.
          4    1    3    3  501    0  0.49747695383E+03  0.17631328167E+03  0.69862065123E+02  0.53240060202E+03  0.00000000000E+00 0.  1.
         13    1    1    2    0    0 -0.31405438853E+02 -0.79328084859E+02 -0.33678299198E+03  0.34742199339E+03  0.10566000000E+00 0. -1.
<mgrwt>
<rscale>  1 0.54556390E+03</rscale>
<asrwt>0</asrwt>
<pdfrwt beam="1">  1       21 0.79221526E-01 0.10126196E+04</pdfrwt>
<pdfrwt beam="2">  1        4 0.13001895E+00 0.10126196E+04</pdfrwt>
<totfact> 0.23175484E+01</totfact>
</mgrwt>
</event>
<event>
 6    1  0.1353269E-005  0.9799660E+03  0.7818608E-02  0.1005570E+00
          4   -1    0    0  502    0 -0.00000000000E+00  0.00000000000E+00  0.14052392242E+04  0.14052392242E+04  0.00000000000E+00 0.  1.
         21   -1    0    0  501  502  0.00000000000E+00 -0.00000000000E+00 -0.26583375358E+03  0.26583375358E+03  0.00000000000E+00 0.  1.
    9000010    2    1    2  501    0  0.79413111254E+02 -0.31926153599E+02  0.65394366300E+03  0.11781237924E+04  0.97622109913E+03 0.  0.
        -13    1    3    3    0    0  0.18918566283E+03 -0.44628418164E+03  0.13132913488E+03  0.50220328417E+03  0.10566000000E+00 0.  1.
          4    1    3    3  501    0 -0.10977255157E+03  0.41435802804E+03  0.52261452812E+03  0.67592050825E+03  0.00000000000E+00 0.  1.
         13    1    1    2    0    0 -0.79413111254E+02  0.31926153599E+02  0.48546180757E+03  0.49294918531E+03  0.10566000000E+00 0. -1.
<mgrwt>
<rscale>  1 0.53273918E+03</rscale>
<asrwt>0</asrwt>
<pdfrwt beam="2">  1       21 0.40897501E-01 0.97996600E+03</pdfrwt>
<pdfrwt beam="1">  1        4 0.21619065E+00 0.97996600E+03</pdfrwt>
<totfact> 0.23853338E+01</totfact>
</mgrwt>
</event>
<event>
 6    1  0.1353269E-005  0.1213189E+04  0.7818608E-02  0.9280567E-01
         21   -1    0    0  501  502  0.00000000000E+00  0.00000000000E+00  0.12108357466E+04  0.12108357466E+04  0.00000000000E+00 0. -1.
          4   -1    0    0  502    0 -0.00000000000E+00 -0.00000000000E+00 -0.69425878694E+03  0.69425878694E+03  0.00000000000E+00 0.  1.
    9000010    2    1    2  501    0  0.20638600741E+03  0.58505447922E+03  0.33055776731E+03  0.12574163119E+04  0.10425657851E+04 0.  0.
        -13    1    3    3    0    0  0.30342777532E+03  0.40686042614E+03  0.68288221827E+03  0.85084191034E+03  0.10566000000E+00 0.  1.
          4    1    3    3  501    0 -0.97041767915E+02  0.17819405308E+03 -0.35232445096E+03  0.40657440158E+03  0.00000000000E+00 0.  1.
         13    1    1    2    0    0 -0.20638600741E+03 -0.58505447922E+03  0.18601919238E+03  0.64767822165E+03  0.10566000000E+00 0. -1.
<mgrwt>
<rscale>  1 0.10259179E+04</rscale>
<asrwt>0</asrwt>
<pdfrwt beam="1">  1       21 0.18628242E+00 0.12131889E+04</pdfrwt>
<pdfrwt beam="2">  1        4 0.10680904E+00 0.12131889E+04</pdfrwt>
<totfact> 0.38752896E+00</totfact>
</mgrwt>
</event>
<event>
 6    1  0.1353269E-005  0.9983558E+03  0.7818608E-02  0.9939089E-01
          4   -1    0    0  502    0 -0.00000000000E+00  0.00000000000E+00  0.11752786550E+04  0.11752786550E+04  0.00000000000E+00 0.  1.
         21   -1    0    0  501  502  0.00000000000E+00 -0.00000000000E+00 -0.27003359161E+03  0.27003359161E+03  0.00000000000E+00 0.  1.
    9000010    2    1    2  501    0  0.81081767641E+02 -0.84243921827E+02  0.73919055187E+03  0.12422226029E+04  0.99148526558E+03 0.  0.
        -13    1    3    3    0    0 -0.15522461636E+02 -0.42850086191E+03  0.86436405550E+01  0.42886904663E+03  0.10566000000E+00 0.  1.
          4    1    3    3  501    0  0.96604229277E+02  0.34425694009E+03  0.73054691132E+03  0.81335355630E+03  0.00000000000E+00 0.  1.
         13    1    1    2    0    0 -0.81081767641E+02  0.84243921827E+02  0.16605451151E+03  0.20308964367E+03  0.10566000000E+00 0. -1.
<mgrwt>
<rscale>  1 0.58403685E+03</rscale>
<asrwt>0</asrwt>
<pdfrwt beam="2">  1       21 0.41543630E-01 0.99835581E+03</pdfrwt>
<pdfrwt beam="1">  1        4 0.18081210E+00 0.99835581E+03</pdfrwt>
<totfact> 0.39619319E+01</totfact>
</mgrwt>
</event>
<event>
 6    1  0.1353269E-005  0.9850145E+03  0.7818608E-02  0.1005767E+00
          4   -1    0    0  502    0 -0.00000000000E+00  0.00000000000E+00  0.45912114413E+03  0.45912114413E+03  0.00000000000E+00 0.  1.
         21   -1    0    0  501  502  0.00000000000E+00 -0.00000000000E+00 -0.62485961708E+03  0.62485961708E+03  0.00000000000E+00 0.  1.
    9000010    2    1    2  501    0  0.70131089434E+02 -0.45806801209E+02 -0.13260438593E+03  0.99390017713E+03  0.98144638478E+03 0.  0.
        -13    1    3    3    0    0 -0.71010774491E+02 -0.31097133522E+02  0.41808988885E+03  0.42521609581E+03  0.10566000000E+00 0.  1.
          4    1    3    3  501    0  0.14114186393E+03 -0.14709667687E+02 -0.55069427478E+03  0.56868408132E+03  0.00000000000E+00 0.  1.
         13    1    1    2    0    0 -0.70131089434E+02  0.45806801209E+02 -0.33134087019E+02  0.90080584084E+02  0.10566000000E+00 0. -1.
<mgrwt>
<rscale>  1 0.53192232E+03</rscale>
<asrwt>0</asrwt>
<pdfrwt beam="2">  1       21 0.96132249E-01 0.98501454E+03</pdfrwt>
<pdfrwt beam="1">  1        4 0.70634022E-01 0.98501454E+03</pdfrwt>
<totfact> 0.62893238E+01</totfact>
</mgrwt>
</event>
<event>
 6    1  0.1353269E-005  0.9587956E+03  0.7818608E-02  0.9686824E-01
         21   -1    0    0  501  502  0.00000000000E+00  0.00000000000E+00  0.66075941658E+03  0.66075941658E+03  0.00000000000E+00 0.  1.
          4   -1    0    0  502    0 -0.00000000000E+00 -0.00000000000E+00 -0.62738191627E+03  0.62738191627E+03  0.00000000000E+00 0.  1.
    9000010    2    1    2  501    0  0.12946090711E+03 -0.27244092480E+03  0.13842575998E+03  0.96873668041E+03  0.91011256500E+03 0.  0.
        -13    1    3    3    0    0  0.95920318161E+02 -0.59944391328E+03 -0.12105742269E+02  0.60719047486E+03  0.10566000000E+00 0.  1.
          4    1    3    3  501    0  0.33540588949E+02  0.32700298848E+03  0.15053150225E+03  0.36154620555E+03  0.00000000000E+00 0.  1.
         13    1    1    2    0    0 -0.12946090711E+03  0.27244092480E+03 -0.10504825967E+03  0.31940465244E+03  0.10566000000E+00 0. -1.
<mgrwt>
<rscale>  1 0.71806752E+03</rscale>
<asrwt>0</asrwt>
<pdfrwt beam="1">  1       21 0.10165529E+00 0.95879563E+03</pdfrwt>
<pdfrwt beam="2">  1        4 0.96520295E-01 0.95879563E+03</pdfrwt>
<totfact> 0.26681595E+01</totfact>
</mgrwt>
</event>
<event>
 6    1  0.1353269E-005  0.1152329E+04  0.7818608E-02  0.9343088E-01
          4   -1    0    0  502    0 -0.00000000000E+00  0.00000000000E+00  0.72979589929E+03  0.72979589929E+03  0.00000000000E+00 0.  1.
         21   -1    0    0  501  502  0.00000000000E+00 -0.00000000000E+00 -0.12581448450E+04  0.12581448450E+04  0.00000000000E+00 0.  1.
    9000010    2    1    2  501    0  0.29431451714E+03 -0.49565750441E+03 -0.74492945522E+03  0.13721448975E+04  0.99777970002E+03 0.  0.
        -13    1    3    3    0    0  0.24227420392E+03  0.20856188916E+03 -0.55569913155E+03  0.64108999950E+03  0.10566000000E+00 0.  1.
          4    1    3    3  501    0  0.52040313223E+02 -0.70421939357E+03 -0.18923032367E+03  0.73105489799E+03  0.00000000000E+00 0.  1.
         13    1    1    2    0    0 -0.29431451714E+03  0.49565750441E+03  0.21658050951E+03  0.61579584681E+03  0.10566000000E+00 0. -1.
<mgrwt>
<rscale>  1 0.96911025E+03</rscale>
<asrwt>0</asrwt>
<pdfrwt beam="2">  1       21 0.19356074E+00 0.11523288E+04</pdfrwt>
<pdfrwt beam="1">  1        4 0.11227629E+00 0.11523288E+04</pdfrwt>
<totfact> 0.30659787E+00</totfact>
</mgrwt>
</event>
<event>
 6    1  0.1353269E-005  0.9778708E+03  0.7818608E-02  0.9994161E-01
          4   -1    0    0  502    0 -0.00000000000E+00  0.00000000000E+00  0.15817993971E+04  0.15817993971E+04  0.00000000000E+00 0.  1.
         21   -1    0    0  501  502  0.00000000000E+00 -0.00000000000E+00 -0.19334227883E+03  0.19334227883E+03  0.00000000000E+00 0.  1.
    9000010    2    1    2  501    0  0.12177703511E+02 -0.10376492780E+03  0.11185942489E+04  0.14857605499E+04  0.97227355260E+03 0.  0.
        -13    1    3    3    0    0 -0.15723353980E+03 -0.44007081965E+03  0.97780265592E+03  0.10837355570E+04  0.10566000000E+00 0.  1.
          4    1    3    3  501    0  0.16941124331E+03  0.33630589185E+03  0.14079159301E+03  0.40202499290E+03  0.00000000000E+00 0.  1.
         13    1    1    2    0    0 -0.12177703511E+02  0.10376492780E+03  0.26986286929E+03  0.28938112601E+03  0.10566000000E+00 0. -1.
<mgrwt>
<rscale>  1 0.55907028E+03</rscale>
<asrwt>0</asrwt>
<pdfrwt beam="2">  1       21 0.29744967E-01 0.97787081E+03</pdfrwt>
<pdfrwt beam="1">  1        4 0.24335374E+00 0.97787081E+03</pdfrwt>
<totfact> 0.30955002E+01</totfact>
</mgrwt>
</event>
<event>
 6    1  0.1353269E-005  0.1058376E+04  0.7818608E-02  0.9553481E-01
         21   -1    0    0  501  502  0.00000000000E+00  0.00000000000E+00  0.66111987183E+03  0.66111987183E+03  0.00000000000E+00 0. -1.
          4   -1    0    0  502    0 -0.00000000000E+00 -0.00000000000E+00 -0.85585959201E+03  0.85585959201E+03  0.00000000000E+00 0.  1.
    9000010    2    1    2  501    0  0.32405186635E+03  0.14097334053E+03 -0.37171500890E+03  0.11217537577E+04  0.99763537940E+03 0.  0.
        -13    1    3    3    0    0  0.64771797289E+03  0.20980415175E+03 -0.89227841703E+02  0.68667166345E+03  0.10566000000E+00 0.  1.
          4    1    3    3  501    0 -0.32366610654E+03 -0.68830811224E+02 -0.28248716720E+03  0.43508209424E+03  0.00000000000E+00 0.  1.
         13    1    1    2    0    0 -0.32405186635E+03 -0.14097334053E+03  0.17697528871E+03  0.39522570615E+03  0.10566000000E+00 0. -1.
<mgrwt>
<rscale>  1 0.80453132E+03</rscale>
<asrwt>0</asrwt>
<pdfrwt beam="1">  1       21 0.10171075E+00 0.10583759E+04</pdfrwt>
<pdfrwt beam="2">  1        4 0.13167071E+00 0.10583759E+04</pdfrwt>
<totfact> 0.12209589E+01</totfact>
</mgrwt>
</event>
<event>
 6    1  0.1353269E-005  0.1017626E+04  0.7818608E-02  0.9739300E-01
          4   -1    0    0  502    0 -0.00000000000E+00  0.00000000000E+00  0.12059005282E+04  0.12059005282E+04  0.00000000000E+00 0.  1.
         21   -1    0    0  501  502  0.00000000000E+00 -0.00000000000E+00 -0.84220719229E+03  0.84220719229E+03  0.00000000000E+00 0.  1.
    9000010    2    1    2  501    0  0.20676334681E+03  0.45352085749E+02 -0.51763641085E+03  0.11417137515E+04  0.99536673810E+03 0.  0.
        -13    1    3    3    0    0  0.11688164361E+03 -0.63661590066E+02  0.29144036503E+03  0.32039290597E+03  0.10566000000E+00 0.  1.
          4    1    3    3  501    0  0.89881703208E+02  0.10901367582E+03 -0.80907677588E+03  0.82132084556E+03  0.00000000000E+00 0.  1.
         13    1    1    2    0    0 -0.20676334681E+03 -0.45352085749E+02  0.88132974677E+03  0.90639396897E+03  0.10566000000E+00 0. -1.
<mgrwt>
<rscale>  1 0.68724328E+03</rscale>
<asrwt>0</asrwt>
<pdfrwt beam="2">  1       21 0.12957034E+00 0.10176261E+04</pdfrwt>
<pdfrwt beam="1">  1        4 0.18552316E+00 0.10176261E+04</pdfrwt>
<totfact> 0.25759392E+00</totfact>
</mgrwt>
</event>
<event>
 6    1  0.1353269E-005  0.1111831E+04  0.7818608E-02  0.9413663E-01
         21   -1    0    0  501  502  0.00000000000E+00  0.00000000000E+00  0.14237201938E+04  0.14237201938E+04  0.00000000000E+00 0. -1.
          4   -1    0    0  502    0 -0.00000000000E+00 -0.00000000000E+00 -0.47771920874E+03  0.47771920874E+03  0.00000000000E+00 0.  1.
    9000010    2    1    2  501    0  0.40436977007E+03 -0.29077098187E+03  0.83680846092E+03  0.13915514802E+04  0.99403442952E+03 0.  0.
        -13    1    3    3    0    0 -0.33228679931E+03 -0.79972176239E+02  0.20588211408E+03  0.39899564162E+03  0.10566000000E+00 0.  1.
          4    1    3    3  501    0  0.73665656938E+03 -0.21079880563E+03  0.63092634684E+03  0.99255583863E+03  0.00000000000E+00 0.  1.
         13    1    1    2    0    0 -0.40436977007E+03  0.29077098187E+03  0.10919252419E+03  0.50988792234E+03  0.10566000000E+00 0. -1.
<mgrwt>
<rscale>  1 0.90959722E+03</rscale>
<asrwt>0</asrwt>
<pdfrwt beam="1">  1       21 0.21903387E+00 0.11118305E+04</pdfrwt>
<pdfrwt beam="2">  1        4 0.73495263E-01 0.11118305E+04</pdfrwt>
<totfact> 0.56332016E+00</totfact>
</mgrwt>
</event>
<event>
 6    1  0.1353269E-005  0.1135654E+04  0.7818608E-02  0.9394367E-01
          4   -1    0    0  502    0 -0.00000000000E+00  0.00000000000E+00  0.55793619180E+03  0.55793619180E+03  0.00000000000E+00 0.  1.
         21   -1    0    0  501  502  0.00000000000E+00 -0.00000000000E+00 -0.12621980800E+04  0.12621980800E+04  0.00000000000E+00 0.  1.
    9000010    2    1    2  501    0  0.47200071731E+03  0.16713446764E+03 -0.66927450612E+03  0.13181952959E+04  0.10193095047E+04 0.  0.
        -13    1    3    3    0    0  0.60140109811E+03  0.18559574095E+03  0.69777632999E+01  0.62942653282E+03  0.10566000000E+00 0.  1.
          4    1    3    3  501    0 -0.12940038080E+03 -0.18461273313E+02 -0.67625226942E+03  0.68876876312E+03  0.00000000000E+00 0.  1.
         13    1    1    2    0    0 -0.47200071731E+03 -0.16713446764E+03 -0.34987382088E+02  0.50193897586E+03  0.10566000000E+00 0. -1.
<mgrwt>
<rscale>  1 0.92540727E+03</rscale>
<asrwt>0</asrwt>
<pdfrwt beam="2">  1       21 0.19418432E+00 0.11356542E+04</pdfrwt>
<pdfrwt beam="1">  1        4 0.85836338E-01 0.11356542E+04</pdfrwt>
<totfact> 0.58046878E+00</totfact>
</mgrwt>
</event>
<event>
 6    1  0.1353269E-005  0.1031414E+04  0.7818608E-02  0.9674905E-01
          4   -1    0    0  502    0 -0.00000000000E+00  0.00000000000E+00  0.12961139181E+04  0.12961139181E+04  0.00000000000E+00 0.  1.
         21   -1    0    0  501  502  0.00000000000E+00 -0.00000000000E+00 -0.42400229325E+03  0.42400229325E+03  0.00000000000E+00 0.  1.
    9000010    2    1    2  501    0  0.14265533185E+03  0.20800936177E+03  0.26829656069E+03  0.10657378184E+04  0.10000978026E+04 0.  0.
        -13    1    3    3    0    0 -0.25178006345E+03  0.17108478155E+03  0.51557845575E+03  0.59873563283E+03  0.10566000000E+00 0.  1.
          4    1    3    3  501    0  0.39443539530E+03  0.36924580219E+02 -0.24728189506E+03  0.46700218556E+03  0.00000000000E+00 0.  1.
         13    1    1    2    0    0 -0.14265533185E+03 -0.20800936177E+03  0.60381506417E+03  0.65437839296E+03  0.10566000000E+00 0. -1.
<mgrwt>
<rscale>  1 0.72530811E+03</rscale>
<asrwt>0</asrwt>
<pdfrwt beam="2">  1       21 0.65231123E-01 0.10314136E+04</pdfrwt>
<pdfrwt beam="1">  1        4 0.19940214E+00 0.10314136E+04</pdfrwt>
<totfact> 0.11047877E+01</totfact>
</mgrwt>
</event>
<event>
 6    1  0.1353269E-005  0.1084692E+04  0.7818608E-02  0.9475086E-01
         21   -1    0    0  501  502  0.00000000000E+00  0.00000000000E+00  0.19424557483E+04  0.19424557483E+04  0.00000000000E+00 0.  1.
          4   -1    0    0  502    0 -0.00000000000E+00 -0.00000000000E+00 -0.29734771247E+03  0.29734771247E+03  0.00000000000E+00 0.  1.
    9000010    2    1    2  501    0  0.40389491351E+03  0.15196285487E+03  0.12461507870E+04  0.16521039559E+04  0.99515420258E+03 0.  0.
        -13    1    3    3    0    0  0.34273908274E+03  0.53357133547E+03  0.10292114538E+04  0.12089022610E+04  0.10566000000E+00 0.  1.
          4    1    3    3  501    0  0.61155830771E+02 -0.38160848060E+03  0.21693933316E+03  0.44320169492E+03  0.00000000000E+00 0.  1.
         13    1    1    2    0    0 -0.40389491351E+03 -0.15196285487E+03  0.39895724888E+03  0.58769950487E+03  0.10566000000E+00 0. -1.
<mgrwt>
<rscale>  1 0.86145796E+03</rscale>
<asrwt>0</asrwt>
<pdfrwt beam="1">  1       21 0.29883934E+00 0.10846915E+04</pdfrwt>
<pdfrwt beam="2">  1        4 0.45745803E-01 0.10846915E+04</pdfrwt>
<totfact> 0.49118813E+00</totfact>
</mgrwt>
</event>
<event>
 6    1  0.1353269E-005  0.1005897E+04  0.7818608E-02  0.9761748E-01
         21   -1    0    0  501  502  0.00000000000E+00  0.00000000000E+00  0.67000989653E+03  0.67000989653E+03  0.00000000000E+00 0.  1.
          4   -1    0    0  502    0 -0.00000000000E+00 -0.00000000000E+00 -0.79294751578E+03  0.79294751578E+03  0.00000000000E+00 0.  1.
    9000010    2    1    2  501    0 -0.16824032822E+03 -0.11437709116E+03  0.25146571510E+03  0.10368532056E+04  0.98511046950E+03 0.  0.
        -13    1    3    3    0    0 -0.40000870081E+03  0.27655902092E+03  0.31285979993E+03  0.57825004830E+03  0.10566000000E+00 0.  1.
          4    1    3    3  501    0  0.23176837259E+03 -0.39093611207E+03 -0.61394084830E+02  0.45860315733E+03  0.00000000000E+00 0.  1.
         13    1    1    2    0    0  0.16824032822E+03  0.11437709116E+03 -0.37440333435E+03  0.42610420669E+03  0.10566000000E+00 0. -1.
<mgrwt>
<rscale>  1 0.67456402E+03</rscale>
<asrwt>0</asrwt>
<pdfrwt beam="1">  1       21 0.10307845E+00 0.10058974E+04</pdfrwt>
<pdfrwt beam="2">  1        4 0.12199193E+00 0.10058974E+04</pdfrwt>
<totfact> 0.14431410E+01</totfact>
</mgrwt>
</event>
<event>
 6    1  0.1353269E-005  0.9956070E+03  0.7818608E-02  0.1045769E+00
         21   -1    0    0  501  502  0.00000000000E+00  0.00000000000E+00  0.16417610530E+04  0.16417610530E+04  0.00000000000E+00 0.  1.
          4   -1    0    0  502    0 -0.00000000000E+00 -0.00000000000E+00 -0.28410911653E+03  0.28410911653E+03  0.00000000000E+00 0.  1.
    9000010    2    1    2  501    0  0.24085247055E+02  0.44591244325E+01  0.14895895411E+04  0.17916780475E+04  0.99530560236E+03 0.  0.
        -13    1    3    3    0    0 -0.28754382617E+03 -0.39523512347E+03  0.73685959181E+03  0.88422526768E+03  0.10566000000E+00 0.  1.
          4    1    3    3  501    0  0.31162907322E+03  0.39969424790E+03  0.75272994926E+03  0.90745277982E+03  0.00000000000E+00 0.  1.
         13    1    1    2    0    0 -0.24085247055E+02 -0.44591244325E+01 -0.13193760466E+03  0.13419212199E+03  0.10566000000E+00 0. -1.
<mgrwt>
<rscale>  1 0.39430684E+03</rscale>
<asrwt>0</asrwt>
<pdfrwt beam="1">  1       21 0.25257862E+00 0.99560696E+03</pdfrwt>
<pdfrwt beam="2">  1        4 0.43709096E-01 0.99560696E+03</pdfrwt>
<totfact> 0.10673379E+01</totfact>
</mgrwt>
</event>
<event>
 6    1  0.1353269E-005  0.1016592E+04  0.7818608E-02  0.9759112E-01
          4   -1    0    0  502    0 -0.00000000000E+00  0.00000000000E+00  0.63516571195E+03  0.63516571195E+03  0.00000000000E+00 0.  1.
         21   -1    0    0  501  502  0.00000000000E+00 -0.00000000000E+00 -0.79296849658E+03  0.79296849658E+03  0.00000000000E+00 0.  1.
    9000010    2    1    2  501    0  0.19853512606E+03 -0.10494830217E+02 -0.41927719540E+03  0.10996601359E+04  0.99696173957E+03 0.  0.
        -13    1    3    3    0    0  0.53714019755E+03  0.15350577637E+03 -0.45670827391E+03  0.72157194639E+03  0.10566000000E+00 0.  1.
          4    1    3    3  501    0 -0.33860507149E+03 -0.16400060658E+03  0.37431078517E+02  0.37808818950E+03  0.00000000000E+00 0.  1.
         13    1    1    2    0    0 -0.19853512606E+03  0.10494830217E+02  0.26147441077E+03  0.32847407263E+03  0.10566000000E+00 0. -1.
<mgrwt>
<rscale>  1 0.67603754E+03</rscale>
<asrwt>0</asrwt>
<pdfrwt beam="2">  1       21 0.12199515E+00 0.10165919E+04</pdfrwt>
<pdfrwt beam="1">  1        4 0.97717802E-01 0.10165919E+04</pdfrwt>
<totfact> 0.16194447E+01</totfact>
</mgrwt>
</event>
<event>
 6    1  0.1353269E-005  0.1043254E+04  0.7818608E-02  0.9613852E-01
         21   -1    0    0  501  502  0.00000000000E+00  0.00000000000E+00  0.57394137016E+03  0.57394137016E+03  0.00000000000E+00 0.  1.
          4   -1    0    0  502    0 -0.00000000000E+00 -0.00000000000E+00 -0.85934410600E+03  0.85934410600E+03  0.00000000000E+00 0.  1.
    9000010    2    1    2  501    0 -0.11020146852E+03  0.27885287938E+03 -0.36986566371E+02  0.10439091846E+04  0.99923725292E+03 0.  0.
        -13    1    3    3    0    0  0.24618451774E+03  0.52560569037E+02 -0.40963734829E+03  0.48080370055E+03  0.10566000000E+00 0.  1.
          4    1    3    3  501    0 -0.35638598625E+03  0.22629231035E+03  0.37265078192E+03  0.56310548406E+03  0.00000000000E+00 0.  1.
         13    1    1    2    0    0  0.11020146852E+03 -0.27885287938E+03 -0.24841616947E+03  0.38937629155E+03  0.10566000000E+00 0. -1.
<mgrwt>
<rscale>  1 0.76386115E+03</rscale>
<asrwt>0</asrwt>
<pdfrwt beam="1">  1       21 0.88298672E-01 0.10432537E+04</pdfrwt>
<pdfrwt beam="2">  1        4 0.13220679E+00 0.10432537E+04</pdfrwt>
<totfact> 0.17104786E+01</totfact>
</mgrwt>
</event>
<event>
 6    1  0.1353269E-005  0.1194193E+04  0.7818608E-02  0.9326294E-01
         21   -1    0    0  501  502  0.00000000000E+00  0.00000000000E+00  0.89919957045E+03  0.89919957045E+03  0.00000000000E+00 0.  1.
          4   -1    0    0  502    0 -0.00000000000E+00 -0.00000000000E+00 -0.12509857116E+04  0.12509857116E+04  0.00000000000E+00 0.  1.
    9000010    2    1    2  501    0 -0.36874977736E+03 -0.40868024568E+03  0.36287833897E+03  0.12481091922E+04  0.10597640895E+04 0.  0.
        -13    1    3    3    0    0 -0.15805639845E+03  0.34183125678E+03 -0.24964903880E+02  0.37743037874E+03  0.10566000000E+00 0.  1.
          4    1    3    3  501    0 -0.21069337890E+03 -0.75051150247E+03  0.38784324284E+03  0.87067881350E+03  0.00000000000E+00 0.  1.
         13    1    1    2    0    0  0.36874977736E+03  0.40868024568E+03 -0.71466448013E+03  0.90207608983E+03  0.10566000000E+00 0. -1.
<mgrwt>
<rscale>  1 0.98397797E+03</rscale>
<asrwt>0</asrwt>
<pdfrwt beam="1">  1       21 0.13833840E+00 0.11941926E+04</pdfrwt>
<pdfrwt beam="2">  1        4 0.19245934E+00 0.11941926E+04</pdfrwt>
<totfact> 0.18919689E+00</totfact>
</mgrwt>
</event>
<event>
 6    1  0.1353269E-005  0.9458821E+03  0.7818608E-02  0.9691044E-01
          4   -1    0    0  502    0 -0.00000000000E+00  0.00000000000E+00  0.27604424038E+03  0.27604424038E+03  0.00000000000E+00 0.  1.
         21   -1    0    0  501  502  0.00000000000E+00 -0.00000000000E+00 -0.14496578689E+04  0.14496578689E+04  0.00000000000E+00 0.  1.
    9000010    2    1    2  501    0  0.30105950265E+03  0.72792293261E+02 -0.97115833807E+03  0.13556700865E+04  0.89373224383E+03 0.  0.
        -13    1    3    3    0    0  0.44426532838E+03 -0.16361167944E+03 -0.96988958185E+03  0.10792711781E+04  0.10566000000E+00 0.  1.
          4    1    3    3  501    0 -0.14320582573E+03  0.23640397270E+03 -0.12687562268E+01  0.27639890842E+03  0.00000000000E+00 0.  1.
         13    1    1    2    0    0 -0.30105950265E+03 -0.72792293261E+02 -0.20245529041E+03  0.37003202277E+03  0.10566000000E+00 0. -1.
<mgrwt>
<rscale>  1 0.71552562E+03</rscale>
<asrwt>0</asrwt>
<pdfrwt beam="2">  1       21 0.22302429E+00 0.94588206E+03</pdfrwt>
<pdfrwt beam="1">  1        4 0.42468344E-01 0.94588206E+03</pdfrwt>
<totfact> 0.17680388E+01</totfact>
</mgrwt>
</event>
<event>
 6    1  0.1353269E-005  0.1328313E+04  0.7818608E-02  0.9115627E-01
         21   -1    0    0  501  502  0.00000000000E+00  0.00000000000E+00  0.18223681196E+04  0.18223681196E+04  0.00000000000E+00 0. -1.
          4   -1    0    0  502    0 -0.00000000000E+00 -0.00000000000E+00 -0.81623445238E+03  0.81623445238E+03  0.00000000000E+00 0.  1.
    9000010    2    1    2  501    0 -0.77071935047E+03  0.41526374723E+03  0.11431336041E+04  0.17524754419E+04  0.99898120130E+03 0.  0.
        -13    1    3    3    0    0  0.15762307783E+01 -0.22204262575E+03 -0.13720511725E+02  0.22247174149E+03  0.10566000000E+00 0.  1.
          4    1    3    3  501    0 -0.77229558125E+03  0.63730637298E+03  0.11568541158E+04  0.15300037004E+04  0.00000000000E+00 0.  1.
         13    1    1    2    0    0  0.77071935047E+03 -0.41526374723E+03 -0.13699993683E+03  0.88612713016E+03  0.10566000000E+00 0. -1.
<mgrwt>
<rscale>  1 0.11968397E+04</rscale>
<asrwt>0</asrwt>
<pdfrwt beam="1">  1       21 0.28036432E+00 0.13283131E+04</pdfrwt>
<pdfrwt beam="2">  1        4 0.12557453E+00 0.13283131E+04</pdfrwt>
<totfact> 0.60882683E-01</totfact>
</mgrwt>
</event>
<event>
 6    1  0.1353269E-005  0.9098651E+03  0.7818608E-02  0.9929900E-01
         21   -1    0    0  501  502  0.00000000000E+00  0.00000000000E+00  0.79039780583E+03  0.79039780583E+03  0.00000000000E+00 0.  1.
          4   -1    0    0  502    0 -0.00000000000E+00 -0.00000000000E+00 -0.43354469750E+03  0.43354469750E+03  0.00000000000E+00 0.  1.
    9000010    2    1    2  501    0 -0.15892121067E+03 -0.67852472156E+01  0.91353631153E+02  0.91443971769E+03  0.89585295701E+03 0.  0.
        -13    1    3    3    0    0 -0.17994218914E+03 -0.28673780152E+03  0.38195505491E+03  0.51037969531E+03  0.10566000000E+00 0.  1.
          4    1    3    3  501    0  0.21020978471E+02  0.27995255430E+03 -0.29060142375E+03  0.40406002238E+03  0.00000000000E+00 0.  1.
         13    1    1    2    0    0  0.15892121067E+03  0.67852472156E+01  0.26549947717E+03  0.30950278565E+03  0.10566000000E+00 0. -1.
<mgrwt>
<rscale>  1 0.58833837E+03</rscale>
<asrwt>0</asrwt>
<pdfrwt beam="1">  1       21 0.12159966E+00 0.90986511E+03</pdfrwt>
<pdfrwt beam="2">  1        4 0.66699184E-01 0.90986511E+03</pdfrwt>
<totfact> 0.39772499E+01</totfact>
</mgrwt>
</event>
<event>
 6    1  0.1353269E-005  0.1015083E+04  0.7818608E-02  0.9778213E-01
         21   -1    0    0  501  502  0.00000000000E+00  0.00000000000E+00  0.16960885945E+04  0.16960885945E+04  0.00000000000E+00 0.  1.
          4   -1    0    0  502    0 -0.00000000000E+00 -0.00000000000E+00 -0.24895825513E+03  0.24895825513E+03  0.00000000000E+00 0.  1.
    9000010    2    1    2  501    0 -0.15844868860E+03  0.10021481043E+03  0.14342573929E+04  0.17571247406E+04  0.99761921093E+03 0.  0.
        -13    1    3    3    0    0  0.27535525875E+03  0.39632734305E+03  0.58243896815E+03  0.75639344534E+03  0.10566000000E+00 0.  1.
          4    1    3    3  501    0 -0.43380394735E+03 -0.29611253262E+03  0.85181842471E+03  0.10007312953E+04  0.00000000000E+00 0.  1.
         13    1    1    2    0    0  0.15844868860E+03 -0.10021481043E+03  0.12872946545E+02  0.18792210904E+03  0.10566000000E+00 0. -1.
<mgrwt>
<rscale>  1 0.66544970E+03</rscale>
<asrwt>0</asrwt>
<pdfrwt beam="1">  1       21 0.26093670E+00 0.10150828E+04</pdfrwt>
<pdfrwt beam="2">  1        4 0.38301271E-01 0.10150828E+04</pdfrwt>
<totfact> 0.12346498E+01</totfact>
</mgrwt>
</event>
<event>
 6    1  0.1353269E-005  0.1012343E+04  0.7818608E-02  0.1021388E+00
          4   -1    0    0  502    0 -0.00000000000E+00  0.00000000000E+00  0.11891012372E+04  0.11891012372E+04  0.00000000000E+00 0.  1.
         21   -1    0    0  501  502  0.00000000000E+00 -0.00000000000E+00 -0.27327387017E+03  0.27327387017E+03  0.00000000000E+00 0.  1.
    9000010    2    1    2  501    0  0.41762324332E+02 -0.23244129321E+02  0.67474624888E+03  0.12166018420E+04  0.10112137065E+04 0.  0.
        -13    1    3    3    0    0 -0.25624383757E+03 -0.42851103870E+03  0.42151015116E+03  0.65341673783E+03  0.10566000000E+00 0.  1.
          4    1    3    3  501    0  0.29800616190E+03  0.40526690938E+03  0.25323609772E+03  0.56318510417E+03  0.00000000000E+00 0.  1.
         13    1    1    2    0    0 -0.41762324332E+02  0.23244129321E+02  0.24108111819E+03  0.24577326542E+03  0.10566000000E+00 0. -1.
<mgrwt>
<rscale>  1 0.47189130E+03</rscale>
<asrwt>0</asrwt>
<pdfrwt beam="2">  1       21 0.42042135E-01 0.10123426E+04</pdfrwt>
<pdfrwt beam="1">  1        4 0.18293865E+00 0.10123426E+04</pdfrwt>
<totfact> 0.37299654E+01</totfact>
</mgrwt>
</event>
<event>
 6    1  0.1353269E-005  0.1002858E+04  0.7818608E-02  0.1000467E+00
          4   -1    0    0  502    0 -0.00000000000E+00  0.00000000000E+00  0.20222354007E+03  0.20222354007E+03  0.00000000000E+00 0.  1.
         21   -1    0    0  501  502  0.00000000000E+00 -0.00000000000E+00 -0.15369823474E+04  0.15369823474E+04  0.00000000000E+00 0.  1.
    9000010    2    1    2  501    0 -0.53391291657E+01 -0.93552912034E+02 -0.12937457169E+04  0.16369183594E+04  0.99847037097E+03 0.  0.
        -13    1    3    3    0    0  0.28770540563E+01 -0.51823547539E+03 -0.98087835330E+03  0.11093685774E+04  0.10566000000E+00 0.  1.
          4    1    3    3  501    0 -0.82161832220E+01  0.42468256335E+03 -0.31286736360E+03  0.52754978200E+03  0.00000000000E+00 0.  1.
         13    1    1    2    0    0  0.53391291657E+01  0.93552912034E+02 -0.41013090450E+02  0.10228752809E+03  0.10566000000E+00 0. -1.
<mgrwt>
<rscale>  1 0.55446028E+03</rscale>
<asrwt>0</asrwt>
<pdfrwt beam="2">  1       21 0.23645882E+00 0.10028578E+04</pdfrwt>
<pdfrwt beam="1">  1        4 0.31111315E-01 0.10028578E+04</pdfrwt>
<totfact> 0.26815058E+01</totfact>
</mgrwt>
</event>
<event>
 6    1  0.1353269E-005  0.1083413E+04  0.7818608E-02  0.9456515E-01
         21   -1    0    0  501  502  0.00000000000E+00  0.00000000000E+00  0.53348279511E+03  0.53348279511E+03  0.00000000000E+00 0.  1.
          4   -1    0    0  502    0 -0.00000000000E+00 -0.00000000000E+00 -0.11294420027E+04  0.11294420027E+04  0.00000000000E+00 0.  1.
    9000010    2    1    2  501    0  0.44758149262E+03 -0.11597515961E+03 -0.34599970034E+03  0.11373211481E+04  0.97979802566E+03 0.  0.
        -13    1    3    3    0    0 -0.14666856937E+03 -0.14310187515E+03 -0.48492717467E+03  0.52644486113E+03  0.10566000000E+00 0.  1.
          4    1    3    3  501    0  0.59425006198E+03  0.27126715540E+02  0.13892747433E+03  0.61087628697E+03  0.00000000000E+00 0.  1.
         13    1    1    2    0    0 -0.44758149262E+03  0.11597515961E+03 -0.24995950727E+03  0.52560364974E+03  0.10566000000E+00 0. -1.
<mgrwt>
<rscale>  1 0.87567158E+03</rscale>
<asrwt>0</asrwt>
<pdfrwt beam="1">  1       21 0.82074277E-01 0.10834129E+04</pdfrwt>
<pdfrwt beam="2">  1        4 0.17376031E+00 0.10834129E+04</pdfrwt>
<totfact> 0.96823992E+00</totfact>
</mgrwt>
</event>
<event>
 6    1  0.1353269E-005  0.1013492E+04  0.7818608E-02  0.1017292E+00
         21   -1    0    0  501  502  0.00000000000E+00  0.00000000000E+00  0.10435342806E+04  0.10435342806E+04  0.00000000000E+00 0.  1.
          4   -1    0    0  502    0 -0.00000000000E+00 -0.00000000000E+00 -0.28617210238E+03  0.28617210238E+03  0.00000000000E+00 0.  1.
    9000010    2    1    2  501    0 -0.53333981514E+02  0.79878139515E+01  0.77176583645E+03  0.12738870737E+04  0.10120560515E+04 0.  0.
        -13    1    3    3    0    0  0.33381318463E+03  0.16654622545E+02 -0.75207889840E+02  0.34258554632E+03  0.10566000000E+00 0.  1.
          4    1    3    3  501    0 -0.38714716615E+03 -0.86668085939E+01  0.84697372629E+03  0.93130152736E+03  0.00000000000E+00 0.  1.
         13    1    1    2    0    0  0.53333981514E+02 -0.79878139515E+01 -0.14403658240E+02  0.55819309298E+02  0.10566000000E+00 0. -1.
<mgrwt>
<rscale>  1 0.48676648E+03</rscale>
<asrwt>0</asrwt>
<pdfrwt beam="1">  1       21 0.16054373E+00 0.10134919E+04</pdfrwt>
<pdfrwt beam="2">  1        4 0.44026478E-01 0.10134919E+04</pdfrwt>
<totfact> 0.44952275E+01</totfact>
</mgrwt>
</event>
<event>
 6    1  0.1353269E-005  0.9365258E+03  0.7818608E-02  0.9770738E-01
         21   -1    0    0  501  502  0.00000000000E+00  0.00000000000E+00  0.32167832364E+04  0.32167832364E+04  0.00000000000E+00 0.  1.
          4   -1    0    0  502    0 -0.00000000000E+00 -0.00000000000E+00 -0.11526919942E+03  0.11526919942E+03  0.00000000000E+00 0.  1.
    9000010    2    1    2  501    0 -0.19948087515E+03  0.14171026552E+03  0.27389939498E+04  0.28946793186E+04  0.90399451412E+03 0.  0.
        -13    1    3    3    0    0 -0.39091835480E+03  0.13608715964E+03  0.26523799798E+04  0.26844843906E+04  0.10566000000E+00 0.  1.
          4    1    3    3  501    0  0.19143747965E+03  0.56231058871E+01  0.86613969973E+02  0.21019492794E+03  0.00000000000E+00 0.  1.
         13    1    1    2    0    0  0.19948087515E+03 -0.14171026552E+03  0.36252008722E+03  0.43737311727E+03  0.10566000000E+00 0. -1.
<mgrwt>
<rscale>  1 0.66956843E+03</rscale>
<asrwt>0</asrwt>
<pdfrwt beam="1">  1       21 0.49488966E+00 0.93652576E+03</pdfrwt>
<pdfrwt beam="2">  1        4 0.17733725E-01 0.93652576E+03</pdfrwt>
<totfact> 0.16389632E+00</totfact>
</mgrwt>
</event>
<event>
 6    1  0.1353269E-005  0.1016080E+04  0.7818608E-02  0.9702518E-01
          4   -1    0    0  502    0 -0.00000000000E+00  0.00000000000E+00  0.84345911820E+03  0.84345911820E+03  0.00000000000E+00 0.  1.
         21   -1    0    0  501  502  0.00000000000E+00 -0.00000000000E+00 -0.49396858948E+03  0.49396858948E+03  0.00000000000E+00 0.  1.
    9000010    2    1    2  501    0 -0.23843499708E+02  0.23924803960E+03  0.15428087744E+03  0.10277263095E+04  0.98722370368E+03 0.  0.
        -13    1    3    3    0    0 -0.34795380860E+03 -0.45741873173E+02  0.39916601293E+03  0.53150511655E+03  0.10566000000E+00 0.  1.
          4    1    3    3  501    0  0.32411030889E+03  0.28498991277E+03 -0.24488513549E+03  0.49622119292E+03  0.00000000000E+00 0.  1.
         13    1    1    2    0    0  0.23843499708E+02 -0.23924803960E+03  0.19520965129E+03  0.30970139821E+03  0.10566000000E+00 0. -1.
<mgrwt>
<rscale>  1 0.70867089E+03</rscale>
<asrwt>0</asrwt>
<pdfrwt beam="2">  1       21 0.75995168E-01 0.10160801E+04</pdfrwt>
<pdfrwt beam="1">  1        4 0.12976294E+00 0.10160801E+04</pdfrwt>
<totfact> 0.25663332E+01</totfact>
</mgrwt>
</event>
<event>
 6    1  0.1353269E-005  0.1100308E+04  0.7818608E-02  0.9451666E-01
          4   -1    0    0  502    0 -0.00000000000E+00  0.00000000000E+00  0.22333290252E+03  0.22333290252E+03  0.00000000000E+00 0.  1.
         21   -1    0    0  501  502  0.00000000000E+00 -0.00000000000E+00 -0.26898146239E+04  0.26898146239E+04  0.00000000000E+00 0.  1.
    9000010    2    1    2  501    0 -0.44874716125E+03 -0.15600349218E+02 -0.17936299666E+04  0.21042304227E+04  0.10045197007E+04 0.  0.
        -13    1    3    3    0    0  0.15755945109E+03 -0.88784222850E+02 -0.13174900695E+04  0.13298449960E+04  0.10566000000E+00 0.  1.
          4    1    3    3  501    0 -0.60630661234E+03  0.73183873632E+02 -0.47613989705E+03  0.77438542670E+03  0.00000000000E+00 0.  1.
         13    1    1    2    0    0  0.44874716125E+03  0.15600349218E+02 -0.67285175488E+03  0.80891710381E+03  0.10566000000E+00 0. -1.
<mgrwt>
<rscale>  1 0.87943073E+03</rscale>
<asrwt>0</asrwt>
<pdfrwt beam="2">  1       21 0.41381760E+00 0.11003078E+04</pdfrwt>
<pdfrwt beam="1">  1        4 0.34358911E-01 0.11003078E+04</pdfrwt>
<totfact> 0.16184825E+00</totfact>
</mgrwt>
</event>
<event>
 6    1  0.1353269E-005  0.9910252E+03  0.7818608E-02  0.1000144E+00
         21   -1    0    0  501  502  0.00000000000E+00  0.00000000000E+00  0.30105345349E+03  0.30105345349E+03  0.00000000000E+00 0.  1.
          4   -1    0    0  502    0 -0.00000000000E+00 -0.00000000000E+00 -0.10769737712E+04  0.10769737712E+04  0.00000000000E+00 0.  1.
    9000010    2    1    2  501    0  0.78979087000E+02  0.58180513942E+02 -0.55392712269E+03  0.11353264662E+04  0.98615833371E+03 0.  0.
        -13    1    3    3    0    0 -0.55832162734E+02  0.82189223259E+02  0.27643514561E+03  0.29374938248E+03  0.10566000000E+00 0.  1.
          4    1    3    3  501    0  0.13481124973E+03 -0.24008709317E+02 -0.83036226830E+03  0.84157708369E+03  0.00000000000E+00 0.  1.
         13    1    1    2    0    0 -0.78979087000E+02 -0.58180513942E+02 -0.22199319499E+03  0.24270075849E+03  0.10566000000E+00 0. -1.
<mgrwt>
<rscale>  1 0.55587293E+03</rscale>
<asrwt>0</asrwt>
<pdfrwt beam="1">  1       21 0.46315916E-01 0.99102519E+03</pdfrwt>
<pdfrwt beam="2">  1        4 0.16568827E+00 0.99102519E+03</pdfrwt>
<totfact> 0.40343185E+01</totfact>
</mgrwt>
</event>
<event>
 6    1  0.1353269E-005  0.1042553E+04  0.7818608E-02  0.9593293E-01
         21   -1    0    0  501  502  0.00000000000E+00  0.00000000000E+00  0.48605671258E+03  0.48605671258E+03  0.00000000000E+00 0.  1.
          4   -1    0    0  502    0 -0.00000000000E+00 -0.00000000000E+00 -0.13337347291E+04  0.13337347291E+04  0.00000000000E+00 0.  1.
    9000010    2    1    2  501    0  0.18383366243E+02  0.32182069898E+03 -0.15267362073E+03  0.10536728923E+04  0.99146902068E+03 0.  0.
        -13    1    3    3    0    0  0.26652899053E+02  0.77953227790E+02 -0.56693524929E+03  0.57288975449E+03  0.10566000000E+00 0.  1.
          4    1    3    3  501    0 -0.82695328094E+01  0.24386747118E+03  0.41426162855E+03  0.48078313777E+03  0.00000000000E+00 0.  1.
         13    1    1    2    0    0 -0.18383366243E+02 -0.32182069898E+03 -0.69500439575E+03  0.76611854939E+03  0.10566000000E+00 0. -1.
<mgrwt>
<rscale>  1 0.77741702E+03</rscale>
<asrwt>0</asrwt>
<pdfrwt beam="1">  1       21 0.74777956E-01 0.10425533E+04</pdfrwt>
<pdfrwt beam="2">  1        4 0.20518996E+00 0.10425533E+04</pdfrwt>
<totfact> 0.73888512E+00</totfact>
</mgrwt>
</event>
<event>
 6    1  0.1353269E-005  0.9605838E+03  0.7818608E-02  0.9671312E-01
          4   -1    0    0  502    0 -0.00000000000E+00  0.00000000000E+00  0.21254363780E+04  0.21254363780E+04  0.00000000000E+00 0.  1.
         21   -1    0    0  501  502  0.00000000000E+00 -0.00000000000E+00 -0.19304375880E+03  0.19304375880E+03  0.00000000000E+00 0.  1.
    9000010    2    1    2  501    0 -0.31603082732E+03 -0.28355513014E+01  0.13669975380E+04  0.16707493801E+04  0.90710401719E+03 0.  0.
        -13    1    3    3    0    0 -0.59639010270E+03 -0.64273112065E+02  0.58554687234E+03  0.83825851526E+03  0.10566000000E+00 0.  1.
          4    1    3    3  501    0  0.28035927538E+03  0.61437560764E+02  0.78145066565E+03  0.83249086482E+03  0.00000000000E+00 0.  1.
         13    1    1    2    0    0  0.31603082732E+03  0.28355513014E+01  0.56539508117E+03  0.64773075667E+03  0.10566000000E+00 0. -1.
<mgrwt>
<rscale>  1 0.72750868E+03</rscale>
<asrwt>0</asrwt>
<pdfrwt beam="2">  1       21 0.29699041E-01 0.96058379E+03</pdfrwt>
<pdfrwt beam="1">  1        4 0.32699020E+00 0.96058379E+03</pdfrwt>
<totfact> 0.94485909E+00</totfact>
</mgrwt>
</event>
<event>
 6    1  0.1353269E-005  0.1061868E+04  0.7818608E-02  0.9545093E-01
          4   -1    0    0  502    0 -0.00000000000E+00  0.00000000000E+00  0.43923754268E+03  0.43923754268E+03  0.00000000000E+00 0.  1.
         21   -1    0    0  501  502  0.00000000000E+00 -0.00000000000E+00 -0.11651556458E+04  0.11651556458E+04  0.00000000000E+00 0.  1.
    9000010    2    1    2  501    0  0.69400334539E+02 -0.35347580373E+03 -0.61678120847E+03  0.12279992151E+04  0.99890012658E+03 0.  0.
        -13    1    3    3    0    0  0.37729527623E+03  0.21610945139E+02  0.72722895013E+02  0.38484722818E+03  0.10566000000E+00 0.  1.
          4    1    3    3  501    0 -0.30789494169E+03 -0.37508674887E+03 -0.68950410349E+03  0.84315198691E+03  0.00000000000E+00 0.  1.
         13    1    1    2    0    0 -0.69400334539E+02  0.35347580373E+03 -0.10913689463E+03  0.37639397337E+03  0.10566000000E+00 0. -1.
<mgrwt>
<rscale>  1 0.81039372E+03</rscale>
<asrwt>0</asrwt>
<pdfrwt beam="2">  1       21 0.17925471E+00 0.10618677E+04</pdfrwt>
<pdfrwt beam="1">  1        4 0.67575007E-01 0.10618677E+04</pdfrwt>
<totfact> 0.12911857E+01</totfact>
</mgrwt>
</event>
<event>
 6    1  0.1353269E-005  0.1137194E+04  0.7818608E-02  0.9382993E-01
          4   -1    0    0  502    0 -0.00000000000E+00  0.00000000000E+00  0.27172782232E+04  0.27172782232E+04  0.00000000000E+00 0.  1.
         21   -1    0    0  501  502  0.00000000000E+00 -0.00000000000E+00 -0.35828726597E+03  0.35828726597E+03  0.00000000000E+00 0.  1.
    9000010    2    1    2  501    0  0.29632023513E+03 -0.42662348871E+03  0.69585407301E+03  0.13331999736E+04  0.10116303653E+04 0.  0.
        -13    1    3    3    0    0  0.43244516548E+02 -0.70832645052E+03  0.62976556703E+03  0.94878929657E+03  0.10566000000E+00 0.  1.
          4    1    3    3  501    0  0.25307571858E+03  0.28170296181E+03  0.66088505986E+02  0.38441067707E+03  0.00000000000E+00 0.  1.
         13    1    1    2    0    0 -0.29632023513E+03  0.42662348871E+03  0.16631368842E+04  0.17423655155E+04  0.10566000000E+00 0. -1.
<mgrwt>
<rscale>  1 0.93488614E+03</rscale>
<asrwt>0</asrwt>
<pdfrwt beam="2">  1       21 0.55121120E-01 0.11371936E+04</pdfrwt>
<pdfrwt beam="1">  1        4 0.41804279E+00 0.11371936E+04</pdfrwt>
<totfact> 0.61759087E-01</totfact>
</mgrwt>
</event>
<event>
 6    1  0.1353269E-005  0.8285421E+03  0.7818608E-02  0.9952759E-01
          4   -1    0    0  502    0 -0.00000000000E+00  0.00000000000E+00  0.90021037629E+03  0.90021037629E+03  0.00000000000E+00 0.  1.
         21   -1    0    0  501  502  0.00000000000E+00 -0.00000000000E+00 -0.42472728481E+03  0.42472728481E+03  0.00000000000E+00 0.  1.
    9000010    2    1    2  501    0  0.11137942797E+03  0.16108234137E+03  0.19604354751E+02  0.82877404752E+03  0.80506471383E+03 0.  0.
        -13    1    3    3    0    0 -0.81463415420E+02 -0.36731795287E+02  0.37110023892E+03  0.38170788743E+03  0.10566000000E+00 0.  1.
          4    1    3    3  501    0  0.19284284339E+03  0.19781413665E+03 -0.35149588417E+03  0.44706616009E+03  0.00000000000E+00 0.  1.
         13    1    1    2    0    0 -0.11137942797E+03 -0.16108234137E+03  0.45587873672E+03  0.49616361357E+03  0.10566000000E+00 0. -1.
<mgrwt>
<rscale>  1 0.57771114E+03</rscale>
<asrwt>0</asrwt>
<pdfrwt beam="2">  1       21 0.65342659E-01 0.82854215E+03</pdfrwt>
<pdfrwt beam="1">  1        4 0.13849390E+00 0.82854215E+03</pdfrwt>
<totfact> 0.31225694E+01</totfact>
</mgrwt>
</event>
<event>
 6    1  0.1353269E-005  0.1116946E+04  0.7818608E-02  0.9395961E-01
         21   -1    0    0  501  502  0.00000000000E+00  0.00000000000E+00  0.11776124868E+04  0.11776124868E+04  0.00000000000E+00 0.  1.
          4   -1    0    0  502    0 -0.00000000000E+00 -0.00000000000E+00 -0.72368355012E+03  0.72368355012E+03  0.00000000000E+00 0.  1.
    9000010    2    1    2  501    0  0.19357505907E+03 -0.48618836629E+03  0.70504749836E+03  0.13208557091E+04  0.98677119859E+03 0.  0.
        -13    1    3    3    0    0 -0.16118430391E+03  0.16400370842E+03 -0.78174116720E+02  0.24287609987E+03  0.10566000000E+00 0.  1.
          4    1    3    3  501    0  0.35475936297E+03 -0.65019207471E+03  0.78322161508E+03  0.10779796092E+04  0.00000000000E+00 0.  1.
         13    1    1    2    0    0 -0.19357505907E+03  0.48618836629E+03 -0.25111856164E+03  0.58044032783E+03  0.10566000000E+00 0. -1.
<mgrwt>
<rscale>  1 0.92408781E+03</rscale>
<asrwt>0</asrwt>
<pdfrwt beam="1">  1       21 0.18117115E+00 0.11169458E+04</pdfrwt>
<pdfrwt beam="2">  1        4 0.11133593E+00 0.11169458E+04</pdfrwt>
<totfact> 0.38543161E+00</totfact>
</mgrwt>
</event>
<event>
 6    1  0.1353269E-005  0.9944223E+03  0.7818608E-02  0.9967725E-01
         21   -1    0    0  501  502  0.00000000000E+00  0.00000000000E+00  0.14646896279E+04  0.14646896279E+04  0.00000000000E+00 0.  1.
          4   -1    0    0  502    0 -0.00000000000E+00 -0.00000000000E+00 -0.46975580718E+03  0.46975580718E+03  0.00000000000E+00 0.  1.
    9000010    2    1    2  501    0 -0.10410107002E+03 -0.28807842371E+02  0.12850476985E+04  0.16248763833E+04  0.98853869375E+03 0.  0.
        -13    1    3    3    0    0  0.22803896697E+03  0.22995031739E+03  0.59825952318E+02  0.32932973546E+03  0.10566000000E+00 0.  1.
          4    1    3    3  501    0 -0.33214003699E+03 -0.25875815976E+03  0.12252217462E+04  0.12955466479E+04  0.00000000000E+00 0.  1.
         13    1    1    2    0    0  0.10410107002E+03  0.28807842371E+02 -0.29011387780E+03  0.30956905177E+03  0.10566000000E+00 0. -1.
<mgrwt>
<rscale>  1 0.57088382E+03</rscale>
<asrwt>0</asrwt>
<pdfrwt beam="1">  1       21 0.22533686E+00 0.99442228E+03</pdfrwt>
<pdfrwt beam="2">  1        4 0.72270125E-01 0.99442228E+03</pdfrwt>
<totfact> 0.54074559E+00</totfact>
</mgrwt>
</event>
<event>
 6    1  0.1353269E-005  0.1098056E+04  0.7818608E-02  0.9421459E-01
          4   -1    0    0  502    0 -0.00000000000E+00  0.00000000000E+00  0.62927653457E+03  0.62927653457E+03  0.00000000000E+00 0.  1.
         21   -1    0    0  501  502  0.00000000000E+00 -0.00000000000E+00 -0.10365613530E+04  0.10365613530E+04  0.00000000000E+00 0.  1.
    9000010    2    1    2  501    0  0.10650008310E+03  0.49147297264E+03 -0.17504192027E+03  0.11119202714E+04  0.97613475793E+03 0.  0.
        -13    1    3    3    0    0 -0.99403704058E+02  0.52966875160E+03 -0.49352782735E+03  0.73075290649E+03  0.10566000000E+00 0.  1.
          4    1    3    3  501    0  0.20590378716E+03 -0.38195778962E+02  0.31848590708E+03  0.38116736495E+03  0.00000000000E+00 0.  1.
         13    1    1    2    0    0 -0.10650008310E+03 -0.49147297264E+03 -0.23224289813E+03  0.55391761611E+03  0.10566000000E+00 0. -1.
<mgrwt>
<rscale>  1 0.90330507E+03</rscale>
<asrwt>0</asrwt>
<pdfrwt beam="2">  1       21 0.15947098E+00 0.10980560E+04</pdfrwt>
<pdfrwt beam="1">  1        4 0.96811775E-01 0.10980560E+04</pdfrwt>
<totfact> 0.79050807E+00</totfact>
</mgrwt>
</event>
<event>
 6    1  0.1353269E-005  0.1037835E+04  0.7818608E-02  0.9672358E-01
         21   -1    0    0  501  502  0.00000000000E+00  0.00000000000E+00  0.97080970312E+03  0.97080970312E+03  0.00000000000E+00 0.  1.
          4   -1    0    0  502    0 -0.00000000000E+00 -0.00000000000E+00 -0.45746593051E+03  0.45746593051E+03  0.00000000000E+00 0.  1.
    9000010    2    1    2  501    0 -0.30445220599E+02 -0.24784657172E+03  0.55214331892E+03  0.11755697759E+04  0.10073466230E+04 0.  0.
        -13    1    3    3    0    0 -0.13894469803E+03  0.20544862683E+03 -0.18083529196E+03  0.30694654478E+03  0.10566000000E+00 0.  1.
          4    1    3    3  501    0  0.10849947743E+03 -0.45329519855E+03  0.73297861088E+03  0.86862323112E+03  0.00000000000E+00 0.  1.
         13    1    1    2    0    0  0.30445220599E+02  0.24784657172E+03 -0.38799546320E+02  0.25270585773E+03  0.10566000000E+00 0. -1.
<mgrwt>
<rscale>  1 0.72686724E+03</rscale>
<asrwt>0</asrwt>
<pdfrwt beam="1">  1       21 0.14935534E+00 0.10378353E+04</pdfrwt>
<pdfrwt beam="2">  1        4 0.70379374E-01 0.10378353E+04</pdfrwt>
<totfact> 0.20034436E+01</totfact>
</mgrwt>
</event>
<event>
 6    1  0.1353269E-005  0.1036802E+04  0.7818608E-02  0.9654998E-01
         21   -1    0    0  501  502  0.00000000000E+00  0.00000000000E+00  0.62722496337E+03  0.62722496337E+03  0.00000000000E+00 0.  1.
          4   -1    0    0  502    0 -0.00000000000E+00 -0.00000000000E+00 -0.67636027747E+03  0.67636027747E+03  0.00000000000E+00 0.  1.
    9000010    2    1    2  501    0  0.26554728828E+03  0.47162745519E+01 -0.49762678119E+02  0.10379953120E+04  0.10022077320E+04 0.  0.
        -13    1    3    3    0    0 -0.17403047862E+03  0.24056854535E+03  0.30515458330E+03  0.42576890841E+03  0.10566000000E+00 0.  1.
          4    1    3    3  501    0  0.43957776690E+03 -0.23585227080E+03 -0.35491726142E+03  0.61222640358E+03  0.00000000000E+00 0.  1.
         13    1    1    2    0    0 -0.26554728828E+03 -0.47162745519E+01  0.62736401782E+00  0.26558992885E+03  0.10566000000E+00 0. -1.
<mgrwt>
<rscale>  1 0.73760602E+03</rscale>
<asrwt>0</asrwt>
<pdfrwt beam="1">  1       21 0.96496148E-01 0.10368018E+04</pdfrwt>
<pdfrwt beam="2">  1        4 0.10405543E+00 0.10368018E+04</pdfrwt>
<totfact> 0.25124789E+01</totfact>
</mgrwt>
</event>
<event>
 6    1  0.1353269E-005  0.1048651E+04  0.7818608E-02  0.9537489E-01
          4   -1    0    0  502    0 -0.00000000000E+00  0.00000000000E+00  0.36525283797E+03  0.36525283797E+03  0.00000000000E+00 0.  1.
         21   -1    0    0  501  502  0.00000000000E+00 -0.00000000000E+00 -0.14395817731E+04  0.14395817731E+04  0.00000000000E+00 0.  1.
    9000010    2    1    2  501    0  0.67941480930E+02 -0.37795456046E+03 -0.90491028544E+03  0.13851104342E+04  0.97580868809E+03 0.  0.
        -13    1    3    3    0    0 -0.22812840350E+03 -0.26313636827E+03 -0.99568843273E+03  0.10548359034E+04  0.10566000000E+00 0.  1.
          4    1    3    3  501    0  0.29606988443E+03 -0.11481819219E+03  0.90778147288E+02  0.33027453088E+03  0.00000000000E+00 0.  1.
         13    1    1    2    0    0 -0.67941480930E+02  0.37795456046E+03 -0.16941864973E+03  0.41972417686E+03  0.10566000000E+00 0. -1.
<mgrwt>
<rscale>  1 0.81575457E+03</rscale>
<asrwt>0</asrwt>
<pdfrwt beam="2">  1       21 0.22147412E+00 0.10486507E+04</pdfrwt>
<pdfrwt beam="1">  1        4 0.56192745E-01 0.10486507E+04</pdfrwt>
<totfact> 0.98998909E+00</totfact>
</mgrwt>
</event>
<event>
 6    1  0.1353269E-005  0.1113925E+04  0.7818608E-02  0.9388072E-01
         21   -1    0    0  501  502  0.00000000000E+00  0.00000000000E+00  0.16546739103E+04  0.16546739103E+04  0.00000000000E+00 0.  1.
          4   -1    0    0  502    0 -0.00000000000E+00 -0.00000000000E+00 -0.54807336975E+03  0.54807336975E+03  0.00000000000E+00 0.  1.
    9000010    2    1    2  501    0 -0.22360451796E+03 -0.49448895739E+03  0.12160521277E+04  0.16491246915E+04  0.97278525965E+03 0.  0.
        -13    1    3    3    0    0 -0.10496644777E+03  0.29606606542E+03  0.36299815690E+03  0.48004243910E+03  0.10566000000E+00 0.  1.
          4    1    3    3  501    0 -0.11863807019E+03 -0.79055502282E+03  0.85305397084E+03  0.11690822524E+04  0.00000000000E+00 0.  1.
         13    1    1    2    0    0  0.22360451796E+03  0.49448895739E+03 -0.10945158718E+03  0.55362258853E+03  0.10566000000E+00 0. -1.
<mgrwt>
<rscale>  1 0.93063863E+03</rscale>
<asrwt>0</asrwt>
<pdfrwt beam="1">  1       21 0.25456521E+00 0.11139253E+04</pdfrwt>
<pdfrwt beam="2">  1        4 0.84318981E-01 0.11139253E+04</pdfrwt>
<totfact> 0.24179190E+00</totfact>
</mgrwt>
</event>
<event>
 6    1  0.1353269E-005  0.1100680E+04  0.7818608E-02  0.9463288E-01
          4   -1    0    0  502    0 -0.00000000000E+00  0.00000000000E+00  0.42353890221E+03  0.42353890221E+03  0.00000000000E+00 0.  1.
         21   -1    0    0  501  502  0.00000000000E+00 -0.00000000000E+00 -0.13846921650E+04  0.13846921650E+04  0.00000000000E+00 0.  1.
    9000010    2    1    2  501    0 -0.28056322160E+03  0.32655342679E+03 -0.70986769186E+03  0.13097360209E+04  0.10129873852E+04 0.  0.
        -13    1    3    3    0    0 -0.27883520380E+03 -0.23318865481E+03 -0.65268656371E+03  0.74707816273E+03  0.10566000000E+00 0.  1.
          4    1    3    3  501    0 -0.17280177988E+01  0.55974208160E+03 -0.57181128143E+02  0.56265785818E+03  0.00000000000E+00 0.  1.
         13    1    1    2    0    0  0.28056322160E+03 -0.32655342679E+03 -0.25128557093E+03  0.49849504630E+03  0.10566000000E+00 0. -1.
<mgrwt>
<rscale>  1 0.87045375E+03</rscale>
<asrwt>0</asrwt>
<pdfrwt beam="2">  1       21 0.21302956E+00 0.11006799E+04</pdfrwt>
<pdfrwt beam="1">  1        4 0.65159832E-01 0.11006799E+04</pdfrwt>
<totfact> 0.81008632E+00</totfact>
</mgrwt>
</event>
<event>
 6    1  0.1353269E-005  0.1018393E+04  0.7818608E-02  0.9714159E-01
         21   -1    0    0  501  502  0.00000000000E+00  0.00000000000E+00  0.89715624491E+03  0.89715624491E+03  0.00000000000E+00 0.  1.
          4   -1    0    0  502    0 -0.00000000000E+00 -0.00000000000E+00 -0.56687473092E+03  0.56687473092E+03  0.00000000000E+00 0.  1.
    9000010    2    1    2  501    0  0.22689850163E+03  0.35580904612E+02  0.54027312417E+03  0.11528310107E+04  0.99215692288E+03 0.  0.
        -13    1    3    3    0    0  0.35279980898E+03  0.41326273813E+03  0.52325460006E+03  0.75435348717E+03  0.10566000000E+00 0.  1.
          4    1    3    3  501    0 -0.12590130735E+03 -0.37768183352E+03  0.17018524107E+02  0.39847752349E+03  0.00000000000E+00 0.  1.
         13    1    1    2    0    0 -0.22689850163E+03 -0.35580904612E+02 -0.20999161017E+03  0.31119996517E+03  0.10566000000E+00 0. -1.
<mgrwt>
<rscale>  1 0.70179985E+03</rscale>
<asrwt>0</asrwt>
<pdfrwt beam="1">  1       21 0.13802404E+00 0.10183930E+04</pdfrwt>
<pdfrwt beam="2">  1        4 0.87211497E-01 0.10183930E+04</pdfrwt>
<totfact> 0.15265971E+01</totfact>
</mgrwt>
</event>
<event>
 6    1  0.1353269E-005  0.1010350E+04  0.7818608E-02  0.9717920E-01
          4   -1    0    0  502    0 -0.00000000000E+00  0.00000000000E+00  0.75948049388E+03  0.75948049388E+03  0.00000000000E+00 0.  1.
         21   -1    0    0  501  502  0.00000000000E+00 -0.00000000000E+00 -0.51558642878E+03  0.51558642878E+03  0.00000000000E+00 0.  1.
    9000010    2    1    2  501    0 -0.19336283116E+03 -0.12867236261E+03  0.13774122618E+03  0.10196962161E+04  0.98329139447E+03 0.  0.
        -13    1    3    3    0    0  0.25144050593E+03  0.27846203221E+03  0.17817424222E+03  0.41534263345E+03  0.10566000000E+00 0.  1.
          4    1    3    3  501    0 -0.44480333709E+03 -0.40713439481E+03 -0.40433016041E+02  0.60435358269E+03  0.00000000000E+00 0.  1.
         13    1    1    2    0    0  0.19336283116E+03  0.12867236261E+03  0.10615283892E+03  0.25537070652E+03  0.10566000000E+00 0. -1.
<mgrwt>
<rscale>  1 0.69959816E+03</rscale>
<asrwt>0</asrwt>
<pdfrwt beam="2">  1       21 0.79320988E-01 0.10103503E+04</pdfrwt>
<pdfrwt beam="1">  1        4 0.11684315E+00 0.10103503E+04</pdfrwt>
<totfact> 0.30305563E+01</totfact>
</mgrwt>
</event>
<event>
 6    1  0.1353269E-005  0.1006086E+04  0.7818608E-02  0.1006204E+00
         21   -1    0    0  501  502  0.00000000000E+00  0.00000000000E+00  0.44404122597E+03  0.44404122597E+03  0.00000000000E+00 0.  1.
          4   -1    0    0  502    0 -0.00000000000E+00 -0.00000000000E+00 -0.10259580637E+04  0.10259580637E+04  0.00000000000E+00 0.  1.
    9000010    2    1    2  501    0 -0.58324554715E+02  0.51107550616E+02 -0.13347504529E+03  0.10149017311E+04  0.10030933161E+04 0.  0.
        -13    1    3    3    0    0  0.44749622295E+03 -0.26035073673E+01 -0.22044753225E+03  0.49885546348E+03  0.10566000000E+00 0.  1.
          4    1    3    3  501    0 -0.50582077766E+03  0.53711057984E+02  0.86972486965E+02  0.51604626765E+03  0.00000000000E+00 0.  1.
         13    1    1    2    0    0  0.58324554715E+02 -0.51107550616E+02 -0.44844179240E+03  0.45509755849E+03  0.10566000000E+00 0. -1.
<mgrwt>
<rscale>  1 0.53011442E+03</rscale>
<asrwt>0</asrwt>
<pdfrwt beam="1">  1       21 0.68314034E-01 0.10060864E+04</pdfrwt>
<pdfrwt beam="2">  1        4 0.15783970E+00 0.10060864E+04</pdfrwt>
<totfact> 0.19550540E+01</totfact>
</mgrwt>
</event>
<event>
 6    1  0.1353269E-005  0.1173928E+04  0.7818608E-02  0.9569903E-01
         21   -1    0    0  501  502  0.00000000000E+00  0.00000000000E+00  0.21006992917E+03  0.21006992917E+03  0.00000000000E+00 0.  1.
          4   -1    0    0  502    0 -0.00000000000E+00 -0.00000000000E+00 -0.24667811825E+04  0.24667811825E+04  0.00000000000E+00 0.  1.
    9000010    2    1    2  501    0 -0.23567157455E+03 -0.65827867224E+02 -0.16715885323E+04  0.20426248042E+04  0.11481434887E+04 0.  0.
        -13    1    3    3    0    0  0.33114894149E+03  0.19733041385E+03 -0.11980730660E+04  0.12585618762E+04  0.10566000000E+00 0.  1.
          4    1    3    3  501    0 -0.56682051603E+03 -0.26315828107E+03 -0.47351546629E+03  0.78406292803E+03  0.00000000000E+00 0.  1.
         13    1    1    2    0    0  0.23567157455E+03  0.65827867224E+02 -0.58512272103E+03  0.63422630738E+03  0.10566000000E+00 0. -1.
<mgrwt>
<rscale>  1 0.79320668E+03</rscale>
<asrwt>0</asrwt>
<pdfrwt beam="1">  1       21 0.32318449E-01 0.11739284E+04</pdfrwt>
<pdfrwt beam="2">  1        4 0.37950481E+00 0.11739284E+04</pdfrwt>
<totfact> 0.35177385E+00</totfact>
</mgrwt>
</event>
<event>
 6    1  0.1353269E-005  0.1015090E+04  0.7818608E-02  0.1000511E+00
          4   -1    0    0  502    0 -0.00000000000E+00  0.00000000000E+00  0.31938968051E+03  0.31938968051E+03  0.00000000000E+00 0.  1.
         21   -1    0    0  501  502  0.00000000000E+00 -0.00000000000E+00 -0.13669367350E+04  0.13669367350E+04  0.00000000000E+00 0.  1.
    9000010    2    1    2  501    0  0.86104448355E+02 -0.26984241520E+02 -0.11604670669E+04  0.15417820775E+04  0.10110717263E+04 0.  0.
        -13    1    3    3    0    0 -0.10554139125E+03 -0.21104694882E+03  0.98044833012E+02  0.25552416777E+03  0.10566000000E+00 0.  1.
          4    1    3    3  501    0  0.19164583960E+03  0.18406270730E+03 -0.12585118999E+04  0.12862579097E+04  0.00000000000E+00 0.  1.
         13    1    1    2    0    0 -0.86104448355E+02  0.26984241520E+02  0.11292001236E+03  0.14454433809E+03  0.10566000000E+00 0. -1.
<mgrwt>
<rscale>  1 0.55426924E+03</rscale>
<asrwt>0</asrwt>
<pdfrwt beam="2">  1       21 0.21029796E+00 0.10150902E+04</pdfrwt>
<pdfrwt beam="1">  1        4 0.49136874E-01 0.10150902E+04</pdfrwt>
<totfact> 0.15711076E+01</totfact>
</mgrwt>
</event>
<event>
 6    1  0.1353269E-005  0.1060055E+04  0.7818608E-02  0.9599048E-01
          4   -1    0    0  502    0 -0.00000000000E+00  0.00000000000E+00  0.11243367299E+04  0.11243367299E+04  0.00000000000E+00 0.  1.
         21   -1    0    0  501  502  0.00000000000E+00 -0.00000000000E+00 -0.48269684320E+03  0.48269684320E+03  0.00000000000E+00 0.  1.
    9000010    2    1    2  501    0  0.15873405721E+03 -0.25533242073E+03  0.20944014745E+03  0.10805473228E+04  0.10165265345E+04 0.  0.
        -13    1    3    3    0    0  0.59018768779E+03 -0.17872059383E+03  0.69585515061E+02  0.62056805634E+03  0.10566000000E+00 0.  1.
          4    1    3    3  501    0 -0.43145363058E+03 -0.76611826904E+02  0.13985463239E+03  0.45997926644E+03  0.00000000000E+00 0.  1.
         13    1    1    2    0    0 -0.15873405721E+03  0.25533242073E+03  0.43219973926E+03  0.52648625032E+03  0.10566000000E+00 0. -1.
<mgrwt>
<rscale>  1 0.77359232E+03</rscale>
<asrwt>0</asrwt>
<pdfrwt beam="2">  1       21 0.74261053E-01 0.10600553E+04</pdfrwt>
<pdfrwt beam="1">  1        4 0.17297488E+00 0.10600553E+04</pdfrwt>
<totfact> 0.12430360E+01</totfact>
</mgrwt>
</event>
<event>
 6    1  0.1353269E-005  0.1049403E+04  0.7818608E-02  0.9596363E-01
         21   -1    0    0  501  502  0.00000000000E+00  0.00000000000E+00  0.14122474367E+04  0.14122474367E+04  0.00000000000E+00 0.  1.
          4   -1    0    0  502    0 -0.00000000000E+00 -0.00000000000E+00 -0.37793786142E+03  0.37793786142E+03  0.00000000000E+00 0.  1.
    9000010    2    1    2  501    0 -0.27334837989E+03  0.15199345761E+03  0.10398942055E+04  0.14773713803E+04  0.10017109806E+04 0.  0.
        -13    1    3    3    0    0 -0.51254491433E+02  0.48822189893E+03  0.17143091111E+03  0.51997712828E+03  0.10566000000E+00 0.  1.
          4    1    3    3  501    0 -0.22209388846E+03 -0.33622844132E+03  0.86846329437E+03  0.95739425198E+03  0.00000000000E+00 0.  1.
         13    1    1    2    0    0  0.27334837989E+03 -0.15199345761E+03 -0.55846302094E+01  0.31281391786E+03  0.10566000000E+00 0. -1.
<mgrwt>
<rscale>  1 0.77537336E+03</rscale>
<asrwt>0</asrwt>
<pdfrwt beam="1">  1       21 0.21726883E+00 0.10494028E+04</pdfrwt>
<pdfrwt beam="2">  1        4 0.58144287E-01 0.10494028E+04</pdfrwt>
<totfact> 0.98043412E+00</totfact>
</mgrwt>
</event>
<event>
 6    1  0.1353269E-005  0.1014413E+04  0.7818608E-02  0.1018792E+00
         21   -1    0    0  501  502  0.00000000000E+00  0.00000000000E+00  0.11425053472E+04  0.11425053472E+04  0.00000000000E+00 0.  1.
          4   -1    0    0  502    0 -0.00000000000E+00 -0.00000000000E+00 -0.29291889972E+03  0.29291889972E+03  0.00000000000E+00 0.  1.
    9000010    2    1    2  501    0  0.51364417028E+02 -0.14497817914E+01  0.90529962069E+03  0.13596325980E+04  0.10131105532E+04 0.  0.
        -13    1    3    3    0    0 -0.38649664523E+03 -0.27739093491E+03  0.29650064042E+03  0.56056937882E+03  0.10566000000E+00 0.  1.
          4    1    3    3  501    0  0.43786106226E+03  0.27594115311E+03  0.60879898028E+03  0.79906321916E+03  0.00000000000E+00 0.  1.
         13    1    1    2    0    0 -0.51364417028E+02  0.14497817914E+01 -0.55713173260E+02  0.75791648898E+02  0.10566000000E+00 0. -1.
<mgrwt>
<rscale>  1 0.48124929E+03</rscale>
<asrwt>0</asrwt>
<pdfrwt beam="1">  1       21 0.17577005E+00 0.10144128E+04</pdfrwt>
<pdfrwt beam="2">  1        4 0.45064447E-01 0.10144128E+04</pdfrwt>
<totfact> 0.32881069E+01</totfact>
</mgrwt>
</event>
<event>
 6    1  0.1353269E-005  0.1067093E+04  0.7818608E-02  0.9515618E-01
         21   -1    0    0  501  502  0.00000000000E+00  0.00000000000E+00  0.12081584784E+04  0.12081584784E+04  0.00000000000E+00 0.  1.
          4   -1    0    0  502    0 -0.00000000000E+00 -0.00000000000E+00 -0.65590966266E+03  0.65590966266E+03  0.00000000000E+00 0.  1.
    9000010    2    1    2  501    0  0.35569300990E+03  0.16773154107E+03  0.85532211888E+03  0.13675756180E+04  0.99198576436E+03 0.  0.
        -13    1    3    3    0    0 -0.22798444650E+03  0.23565259464E+03  0.67908663946E+03  0.75410060885E+03  0.10566000000E+00 0.  1.
          4    1    3    3  501    0  0.58367745640E+03 -0.67921053572E+02  0.17623547942E+03  0.61347500913E+03  0.00000000000E+00 0.  1.
         13    1    1    2    0    0 -0.35569300990E+03 -0.16773154107E+03 -0.30307330319E+03  0.49649252304E+03  0.10566000000E+00 0. -1.
<mgrwt>
<rscale>  1 0.83142081E+03</rscale>
<asrwt>0</asrwt>
<pdfrwt beam="1">  1       21 0.18587054E+00 0.10670928E+04</pdfrwt>
<pdfrwt beam="2">  1        4 0.10090918E+00 0.10670928E+04</pdfrwt>
<totfact> 0.45660783E+00</totfact>
</mgrwt>
</event>
<event>
 6    1  0.1353269E-005  0.9982949E+03  0.7818608E-02  0.9859787E-01
          4   -1    0    0  502    0 -0.00000000000E+00  0.00000000000E+00  0.29863254021E+03  0.29863254021E+03  0.00000000000E+00 0.  1.
         21   -1    0    0  501  502  0.00000000000E+00 -0.00000000000E+00 -0.12238609625E+04  0.12238609625E+04  0.00000000000E+00 0.  1.
    9000010    2    1    2  501    0  0.16525985315E+02 -0.15002797822E+03 -0.93953377407E+03  0.13708816407E+04  0.98681875632E+03 0.  0.
        -13    1    3    3    0    0 -0.11098523053E+03  0.13964635494E+03  0.15202015820E+03  0.23436929301E+03  0.10566000000E+00 0.  1.
          4    1    3    3  501    0  0.12751121584E+03 -0.28967433316E+03 -0.10915539323E+04  0.11365123477E+04  0.00000000000E+00 0.  1.
         13    1    1    2    0    0 -0.16525985315E+02  0.15002797822E+03  0.14305351783E+02  0.15161186198E+03  0.10566000000E+00 0. -1.
<mgrwt>
<rscale>  1 0.62250375E+03</rscale>
<asrwt>0</asrwt>
<pdfrwt beam="2">  1       21 0.18828630E+00 0.99829493E+03</pdfrwt>
<pdfrwt beam="1">  1        4 0.45943467E-01 0.99829493E+03</pdfrwt>
<totfact> 0.25703515E+01</totfact>
</mgrwt>
</event>
<event>
 6    1  0.1353269E-005  0.1175116E+04  0.7818608E-02  0.9336033E-01
          4   -1    0    0  502    0 -0.00000000000E+00  0.00000000000E+00  0.25545834083E+04  0.25545834083E+04  0.00000000000E+00 0.  1.
         21   -1    0    0  501  502  0.00000000000E+00 -0.00000000000E+00 -0.51885450773E+03  0.51885450773E+03  0.00000000000E+00 0. -1.
    9000010    2    1    2  501    0  0.23524086005E+03 -0.50558558888E+03  0.21982280587E+04  0.24926100263E+04  0.10343805370E+04 0.  0.
        -13    1    3    3    0    0  0.61738524606E+03 -0.26662868311E+03  0.16571542224E+04  0.17884114528E+04  0.10566000000E+00 0.  1.
          4    1    3    3  501    0 -0.38214438600E+03 -0.23895690577E+03  0.54107383633E+03  0.70419857351E+03  0.00000000000E+00 0.  1.
         13    1    1    2    0    0 -0.23524086005E+03  0.50558558888E+03 -0.16249915812E+03  0.58082788972E+03  0.10566000000E+00 0. -1.
<mgrwt>
<rscale>  1 0.97532167E+03</rscale>
<asrwt>0</asrwt>
<pdfrwt beam="2">  1       21 0.79823772E-01 0.11751162E+04</pdfrwt>
<pdfrwt beam="1">  1        4 0.39301282E+00 0.11751162E+04</pdfrwt>
<totfact> 0.39526723E-01</totfact>
</mgrwt>
</event>
<event>
 6    1  0.1353269E-005  0.1028909E+04  0.7818608E-02  0.9670861E-01
         21   -1    0    0  501  502  0.00000000000E+00  0.00000000000E+00  0.53898904016E+03  0.53898904016E+03  0.00000000000E+00 0.  1.
          4   -1    0    0  502    0 -0.00000000000E+00 -0.00000000000E+00 -0.77520620386E+03  0.77520620386E+03  0.00000000000E+00 0.  1.
    9000010    2    1    2  501    0 -0.12712735012E+03  0.22400149320E+03 -0.24031561674E+03  0.10566009106E+04  0.99615051906E+03 0.  0.
        -13    1    3    3    0    0 -0.35933445440E+03  0.11360747372E+03 -0.54204507654E+03  0.66018238720E+03  0.10566000000E+00 0.  1.
          4    1    3    3  501    0  0.23220710428E+03  0.11039401948E+03  0.30172945980E+03  0.39641852344E+03  0.00000000000E+00 0.  1.
         13    1    1    2    0    0  0.12712735012E+03 -0.22400149320E+03  0.40984530466E+01  0.25759433337E+03  0.10566000000E+00 0. -1.
<mgrwt>
<rscale>  1 0.72778506E+03</rscale>
<asrwt>0</asrwt>
<pdfrwt beam="1">  1       21 0.82921391E-01 0.10289091E+04</pdfrwt>
<pdfrwt beam="2">  1        4 0.11926249E+00 0.10289091E+04</pdfrwt>
<totfact> 0.25884634E+01</totfact>
</mgrwt>
</event>
<event>
 6    1  0.1353269E-005  0.1033129E+04  0.7818608E-02  0.9658490E-01
         21   -1    0    0  501  502  0.00000000000E+00  0.00000000000E+00  0.43592813705E+03  0.43592813705E+03  0.00000000000E+00 0.  1.
          4   -1    0    0  502    0 -0.00000000000E+00 -0.00000000000E+00 -0.17670399296E+04  0.17670399296E+04  0.00000000000E+00 0.  1.
    9000010    2    1    2  501    0 -0.25970134835E+03  0.54106983059E+02 -0.21434995392E+03  0.10551312440E+04  0.99849070275E+03 0.  0.
        -13    1    3    3    0    0 -0.10116811103E+03 -0.46924696056E+03 -0.42409534615E+02  0.48189861638E+03  0.10566000000E+00 0.  1.
          4    1    3    3  501    0 -0.15853323732E+03  0.52335394361E+03 -0.17194041931E+03  0.57323262767E+03  0.00000000000E+00 0.  1.
         13    1    1    2    0    0  0.25970134835E+03 -0.54106983059E+02 -0.11167618386E+04  0.11478368226E+04  0.10566000000E+00 0. -1.
<mgrwt>
<rscale>  1 0.73542986E+03</rscale>
<asrwt>0</asrwt>
<pdfrwt beam="1">  1       21 0.67065868E-01 0.10331292E+04</pdfrwt>
<pdfrwt beam="2">  1        4 0.27185229E+00 0.10331292E+04</pdfrwt>
<totfact> 0.36213608E+00</totfact>
</mgrwt>
</event>
<event>
 6    1  0.1353269E-005  0.1130092E+04  0.7818608E-02  0.9388685E-01
         21   -1    0    0  501  502  0.00000000000E+00  0.00000000000E+00  0.13649395389E+04  0.13649395389E+04  0.00000000000E+00 0. -1.
          4   -1    0    0  502    0 -0.00000000000E+00 -0.00000000000E+00 -0.59750594169E+03  0.59750594169E+03  0.00000000000E+00 0.  1.
    9000010    2    1    2  501    0  0.26750588648E+03 -0.44427783860E+03  0.87935156254E+03  0.14319100536E+04  0.10040742174E+04 0.  0.
        -13    1    3    3    0    0 -0.36705506326E+02  0.27590784273E+03  0.47793509914E+03  0.55307721163E+03  0.10566000000E+00 0.  1.
          4    1    3    3  501    0  0.30421139281E+03 -0.72018568132E+03  0.40141646340E+03  0.87883284200E+03  0.00000000000E+00 0.  1.
         13    1    1    2    0    0 -0.26750588648E+03  0.44427783860E+03 -0.11191796529E+03  0.53053542699E+03  0.10566000000E+00 0. -1.
<mgrwt>
<rscale>  1 0.93012782E+03</rscale>
<asrwt>0</asrwt>
<pdfrwt beam="1">  1       21 0.20999070E+00 0.11300917E+04</pdfrwt>
<pdfrwt beam="2">  1        4 0.91923991E-01 0.11300917E+04</pdfrwt>
<totfact> 0.38496154E+00</totfact>
</mgrwt>
</event>
<event>
 6    1  0.1353269E-005  0.1011134E+04  0.7818608E-02  0.9882864E-01
          4   -1    0    0  502    0 -0.00000000000E+00  0.00000000000E+00  0.11402683651E+04  0.11402683651E+04  0.00000000000E+00 0.  1.
         21   -1    0    0  501  502  0.00000000000E+00 -0.00000000000E+00 -0.29248822630E+03  0.29248822630E+03  0.00000000000E+00 0.  1.
    9000010    2    1    2  501    0  0.76112221116E+02 -0.11126402297E+03  0.80135857348E+03  0.12901812573E+04  0.10021074594E+04 0.  0.
        -13    1    3    3    0    0 -0.17850512885E+03 -0.63477938131E+02 -0.18833709758E+03  0.26714116707E+03  0.10566000000E+00 0.  1.
          4    1    3    3  501    0  0.25461734996E+03 -0.47786084837E+02  0.98969567106E+03  0.10230400902E+04  0.00000000000E+00 0.  1.
         13    1    1    2    0    0 -0.76112221116E+02  0.11126402297E+03  0.46421565285E+02  0.14257533411E+03  0.10566000000E+00 0. -1.
<mgrwt>
<rscale>  1 0.61099019E+03</rscale>
<asrwt>0</asrwt>
<pdfrwt beam="2">  1       21 0.44998189E-01 0.10111341E+04</pdfrwt>
<pdfrwt beam="1">  1        4 0.17542590E+00 0.10111341E+04</pdfrwt>
<totfact> 0.36458234E+01</totfact>
</mgrwt>
</event>
<event>
 6    1  0.1353269E-005  0.1108363E+04  0.7818608E-02  0.9419863E-01
          4   -1    0    0  502    0 -0.00000000000E+00  0.00000000000E+00  0.43523090859E+03  0.43523090859E+03  0.00000000000E+00 0.  1.
         21   -1    0    0  501  502  0.00000000000E+00 -0.00000000000E+00 -0.14707777017E+04  0.14707777017E+04  0.00000000000E+00 0.  1.
    9000010    2    1    2  501    0 -0.37415076477E+03 -0.31913230337E+03 -0.71183697322E+03  0.13172622468E+04  0.99329438169E+03 0.  0.
        -13    1    3    3    0    0 -0.20371789236E+03 -0.59903638113E+03 -0.75683122431E+03  0.98647811879E+03  0.10566000000E+00 0.  1.
          4    1    3    3  501    0 -0.17043287241E+03  0.27990407776E+03  0.44994251094E+02  0.33078412806E+03  0.00000000000E+00 0.  1.
         13    1    1    2    0    0  0.37415076477E+03  0.31913230337E+03 -0.32370981992E+03  0.58874636347E+03  0.10566000000E+00 0. -1.
<mgrwt>
<rscale>  1 0.90458881E+03</rscale>
<asrwt>0</asrwt>
<pdfrwt beam="2">  1       21 0.22627349E+00 0.11083627E+04</pdfrwt>
<pdfrwt beam="1">  1        4 0.66958601E-01 0.11083627E+04</pdfrwt>
<totfact> 0.62222619E+00</totfact>
</mgrwt>
</event>
<event>
 6    1  0.1353269E-005  0.1035164E+04  0.7818608E-02  0.9662075E-01
         21   -1    0    0  501  502  0.00000000000E+00  0.00000000000E+00  0.47700848163E+03  0.47700848163E+03  0.00000000000E+00 0.  1.
          4   -1    0    0  502    0 -0.00000000000E+00 -0.00000000000E+00 -0.90303572769E+03  0.90303572769E+03  0.00000000000E+00 0.  1.
    9000010    2    1    2  501    0  0.15346546954E+03  0.21054411066E+03 -0.24789785597E+03  0.10644327969E+04  0.10018399868E+04 0.  0.
        -13    1    3    3    0    0 -0.14386457127E+02 -0.39369639406E+03 -0.11166170652E+02  0.39411738781E+03  0.10566000000E+00 0.  1.
          4    1    3    3  501    0  0.16785192667E+03  0.60424050472E+03 -0.23673168531E+03  0.67031540909E+03  0.00000000000E+00 0.  1.
         13    1    1    2    0    0 -0.15346546954E+03 -0.21054411066E+03 -0.17812939009E+03  0.31561141243E+03  0.10566000000E+00 0. -1.
<mgrwt>
<rscale>  1 0.73320410E+03</rscale>
<asrwt>0</asrwt>
<pdfrwt beam="1">  1       21 0.73385921E-01 0.10351637E+04</pdfrwt>
<pdfrwt beam="2">  1        4 0.13892857E+00 0.10351637E+04</pdfrwt>
<totfact> 0.23277579E+01</totfact>
</mgrwt>
</event>
<event>
 6    1  0.1353269E-005  0.1186294E+04  0.7818608E-02  0.9295084E-01
          4   -1    0    0  502    0 -0.00000000000E+00  0.00000000000E+00  0.15398486264E+04  0.15398486264E+04  0.00000000000E+00 0.  1.
         21   -1    0    0  501  502  0.00000000000E+00 -0.00000000000E+00 -0.58990312140E+03  0.58990312140E+03  0.00000000000E+00 0. -1.
    9000010    2    1    2  501    0  0.62917120886E+03 -0.35121473774E+01  0.91756286260E+03  0.14997379448E+04  0.10056955558E+04 0.  0.
        -13    1    3    3    0    0 -0.23589715180E+03 -0.17336750117E+03  0.14116758112E+03  0.32501085184E+03  0.10566000000E+00 0.  1.
          4    1    3    3  501    0  0.86506836066E+03  0.16985535379E+03  0.77639528148E+03  0.11747270930E+04  0.00000000000E+00 0.  1.
         13    1    1    2    0    0 -0.62917120886E+03  0.35121473774E+01  0.32382642375E+02  0.63001380297E+03  0.10566000000E+00 0. -1.
<mgrwt>
<rscale>  1 0.10123672E+04</rscale>
<asrwt>0</asrwt>
<pdfrwt beam="2">  1       21 0.90754327E-01 0.11862935E+04</pdfrwt>
<pdfrwt beam="1">  1        4 0.23689979E+00 0.11862935E+04</pdfrwt>
<totfact> 0.28747367E+00</totfact>
</mgrwt>
</event>
<event>
 6    1  0.1353269E-005  0.9439485E+03  0.7818608E-02  0.9805855E-01
          4   -1    0    0  502    0 -0.00000000000E+00  0.00000000000E+00  0.66723207719E+03  0.66723207719E+03  0.00000000000E+00 0.  1.
         21   -1    0    0  501  502  0.00000000000E+00 -0.00000000000E+00 -0.67721569073E+03  0.67721569073E+03  0.00000000000E+00 0.  1.
    9000010    2    1    2  501    0  0.20277301174E+03  0.64798047995E+02 -0.29476161241E+03  0.98890001990E+03  0.91963207855E+03 0.  0.
        -13    1    3    3    0    0  0.20270738871E+03  0.66685617666E+02 -0.62409077809E+03  0.65956543837E+03  0.10566000000E+00 0.  1.
          4    1    3    3  501    0  0.65623034754E-01 -0.18875696712E+01  0.32932916567E+03  0.32933458153E+03  0.00000000000E+00 0.  1.
         13    1    1    2    0    0 -0.20277301174E+03 -0.64798047995E+02  0.28477799887E+03  0.35554774802E+03  0.10566000000E+00 0. -1.
<mgrwt>
<rscale>  1 0.65049253E+03</rscale>
<asrwt>0</asrwt>
<pdfrwt beam="2">  1       21 0.10418703E+00 0.94394854E+03</pdfrwt>
<pdfrwt beam="1">  1        4 0.10265109E+00 0.94394854E+03</pdfrwt>
<totfact> 0.21666482E+01</totfact>
</mgrwt>
</event>
<event>
 6    1  0.1353269E-005  0.9784122E+03  0.7818608E-02  0.9883652E-01
         21   -1    0    0  501  502  0.00000000000E+00  0.00000000000E+00  0.22399501626E+03  0.22399501626E+03  0.00000000000E+00 0.  1.
          4   -1    0    0  502    0 -0.00000000000E+00 -0.00000000000E+00 -0.18643966762E+04  0.18643966762E+04  0.00000000000E+00 0.  1.
    9000010    2    1    2  501    0  0.12371125041E+03  0.81983808772E+02 -0.88737758296E+03  0.13208820247E+04  0.96709075591E+03 0.  0.
        -13    1    3    3    0    0 -0.22778173637E+03  0.12283223744E+03  0.95808574569E+02  0.27595574301E+03  0.10566000000E+00 0.  1.
          4    1    3    3  501    0  0.35149298678E+03 -0.40848428666E+02 -0.98318615753E+03  0.10449262817E+04  0.00000000000E+00 0.  1.
         13    1    1    2    0    0 -0.12371125041E+03 -0.81983808772E+02 -0.75302407702E+03  0.76750966777E+03  0.10566000000E+00 0. -1.
<mgrwt>
<rscale>  1 0.61060157E+03</rscale>
<asrwt>0</asrwt>
<pdfrwt beam="1">  1       21 0.34460770E-01 0.97841216E+03</pdfrwt>
<pdfrwt beam="2">  1        4 0.28683027E+00 0.97841216E+03</pdfrwt>
<totfact> 0.12383090E+01</totfact>
</mgrwt>
</event>
<event>
 6    1  0.1353269E-005  0.1020029E+04  0.7818608E-02  0.9661881E-01
         21   -1    0    0  501  502  0.00000000000E+00  0.00000000000E+00  0.52462805611E+03  0.52462805611E+03  0.00000000000E+00 0.  1.
          4   -1    0    0  502    0 -0.00000000000E+00 -0.00000000000E+00 -0.10603035685E+04  0.10603035685E+04  0.00000000000E+00 0.  1.
    9000010    2    1    2  501    0 -0.22993427993E+03 -0.14621832771E+03 -0.41814466117E+02  0.10208852465E+04  0.98295913676E+03 0.  0.
        -13    1    3    3    0    0 -0.25726846042E+03  0.36807783044E+03  0.14672612376E+03  0.47243720911E+03  0.10566000000E+00 0.  1.
          4    1    3    3  501    0  0.27334180494E+02 -0.51429615815E+03 -0.18854058987E+03  0.54844803741E+03  0.00000000000E+00 0.  1.
         13    1    1    2    0    0  0.22993427993E+03  0.14621832771E+03 -0.49386104632E+03  0.56404637813E+03  0.10566000000E+00 0. -1.
<mgrwt>
<rscale>  1 0.73332417E+03</rscale>
<asrwt>0</asrwt>
<pdfrwt beam="1">  1       21 0.80712009E-01 0.10200285E+04</pdfrwt>
<pdfrwt beam="2">  1        4 0.16312363E+00 0.10200285E+04</pdfrwt>
<totfact> 0.12110318E+01</totfact>
</mgrwt>
</event>
<event>
 6    1  0.1353269E-005  0.1023722E+04  0.7818608E-02  0.9701691E-01
         21   -1    0    0  501  502  0.00000000000E+00  0.00000000000E+00  0.23492358836E+03  0.23492358836E+03  0.00000000000E+00 0.  1.
          4   -1    0    0  502    0 -0.00000000000E+00 -0.00000000000E+00 -0.18428841740E+04  0.18428841740E+04  0.00000000000E+00 0.  1.
    9000010    2    1    2  501    0  0.13895388194E+03 -0.19043585620E+03 -0.10235422170E+04  0.14476341059E+04  0.99620873201E+03 0.  0.
        -13    1    3    3    0    0 -0.32398727747E+03 -0.21088955037E+02 -0.14940520849E+02  0.32501650775E+03  0.10566000000E+00 0.  1.
          4    1    3    3  501    0  0.46294115941E+03 -0.16934690116E+03 -0.10086016962E+04  0.11226175981E+04  0.00000000000E+00 0.  1.
         13    1    1    2    0    0 -0.13895388194E+03  0.19043585620E+03 -0.58441836862E+03  0.63017365652E+03  0.10566000000E+00 0. -1.
<mgrwt>
<rscale>  1 0.70916183E+03</rscale>
<asrwt>0</asrwt>
<pdfrwt beam="1">  1       21 0.36142091E-01 0.10237216E+04</pdfrwt>
<pdfrwt beam="2">  1        4 0.28352064E+00 0.10237216E+04</pdfrwt>
<totfact> 0.11700447E+01</totfact>
</mgrwt>
</event>
<event>
 6    1  0.1353269E-005  0.1024828E+04  0.7818608E-02  0.9704142E-01
          4   -1    0    0  502    0 -0.00000000000E+00  0.00000000000E+00  0.68696142160E+03  0.68696142160E+03  0.00000000000E+00 0.  1.
         21   -1    0    0  501  502  0.00000000000E+00 -0.00000000000E+00 -0.57662829149E+03  0.57662829149E+03  0.00000000000E+00 0.  1.
    9000010    2    1    2  501    0 -0.20398284435E+03  0.11272195682E+03  0.71492564462E+02  0.10273190187E+04  0.99797692308E+03 0.  0.
        -13    1    3    3    0    0  0.23881610885E+03 -0.19242709700E+02  0.39590566229E+03  0.46275773394E+03  0.10566000000E+00 0.  1.
          4    1    3    3  501    0 -0.44279895321E+03  0.13196466652E+03 -0.32441309783E+03  0.56456128473E+03  0.00000000000E+00 0.  1.
         13    1    1    2    0    0  0.20398284435E+03 -0.11272195682E+03  0.38840565646E+02  0.23627069443E+03  0.10566000000E+00 0. -1.
<mgrwt>
<rscale>  1 0.70770714E+03</rscale>
<asrwt>0</asrwt>
<pdfrwt beam="2">  1       21 0.88712045E-01 0.10248284E+04</pdfrwt>
<pdfrwt beam="1">  1        4 0.10568637E+00 0.10248284E+04</pdfrwt>
<totfact> 0.29708587E+01</totfact>
</mgrwt>
</event>
<event>
 6    1  0.1353269E-005  0.1038167E+04  0.7818608E-02  0.9767632E-01
          4   -1    0    0  502    0 -0.00000000000E+00  0.00000000000E+00  0.13794135403E+03  0.13794135403E+03  0.00000000000E+00 0.  1.
         21   -1    0    0  501  502  0.00000000000E+00 -0.00000000000E+00 -0.28029501315E+04  0.28029501315E+04  0.00000000000E+00 0.  1.
    9000010    2    1    2  501    0 -0.10782222792E+03 -0.14598093707E+03 -0.24409711285E+04  0.26525705773E+04  0.10221812708E+04 0.  0.
        -13    1    3    3    0    0 -0.33990392896E+03  0.10276829547E+03 -0.22170058787E+04  0.22452641450E+04  0.10566000000E+00 0.  1.
          4    1    3    3  501    0  0.23208170104E+03 -0.24874923254E+03 -0.22396524977E+03  0.40730643225E+03  0.00000000000E+00 0.  1.
         13    1    1    2    0    0  0.10782222792E+03  0.14598093707E+03 -0.22403764900E+03  0.28832090829E+03  0.10566000000E+00 0. -1.
<mgrwt>
<rscale>  1 0.67128877E+03</rscale>
<asrwt>0</asrwt>
<pdfrwt beam="2">  1       21 0.43122312E+00 0.10381670E+04</pdfrwt>
<pdfrwt beam="1">  1        4 0.21221746E-01 0.10381670E+04</pdfrwt>
<totfact> 0.31805467E+00</totfact>
</mgrwt>
</event>
<event>
 6    1  0.1353269E-005  0.9573961E+03  0.7818608E-02  0.9824979E-01
          4   -1    0    0  502    0 -0.00000000000E+00  0.00000000000E+00  0.19687445436E+03  0.19687445436E+03  0.00000000000E+00 0.  1.
         21   -1    0    0  501  502  0.00000000000E+00 -0.00000000000E+00 -0.17819395911E+04  0.17819395911E+04  0.00000000000E+00 0.  1.
    9000010    2    1    2  501    0 -0.17319043642E+02 -0.19086415580E+03 -0.14730258034E+04  0.17568187784E+04  0.93801819133E+03 0.  0.
        -13    1    3    3    0    0  0.33193570123E+03  0.22882250120E+03 -0.51391589743E+03  0.65318497197E+03  0.10566000000E+00 0.  1.
          4    1    3    3  501    0 -0.34925474488E+03 -0.41968665700E+03 -0.95910990597E+03  0.11036338064E+04  0.00000000000E+00 0.  1.
         13    1    1    2    0    0  0.17319043642E+02  0.19086415580E+03 -0.11203933337E+03  0.22199526713E+03  0.10566000000E+00 0. -1.
<mgrwt>
<rscale>  1 0.64039066E+03</rscale>
<asrwt>0</asrwt>
<pdfrwt beam="2">  1       21 0.27414455E+00 0.95739605E+03</pdfrwt>
<pdfrwt beam="1">  1        4 0.30288377E-01 0.95739605E+03</pdfrwt>
<totfact> 0.16430581E+01</totfact>
</mgrwt>
</event>
<event>
 6    1  0.1353269E-005  0.1037853E+04  0.7818608E-02  0.9639913E-01
          4   -1    0    0  502    0 -0.00000000000E+00  0.00000000000E+00  0.98143678318E+03  0.98143678318E+03  0.00000000000E+00 0.  1.
         21   -1    0    0  501  502  0.00000000000E+00 -0.00000000000E+00 -0.65117078870E+03  0.65117078870E+03  0.00000000000E+00 0.  1.
    9000010    2    1    2  501    0  0.19845118542E+03 -0.19565028689E+03 -0.17795112887E+03  0.10529985973E+04  0.99973873285E+03 0.  0.
        -13    1    3    3    0    0  0.24891374911E+03 -0.40769618206E+03 -0.48219165413E+03  0.67873635076E+03  0.10566000000E+00 0.  1.
          4    1    3    3  501    0 -0.50462563691E+02  0.21204589518E+03  0.30424052526E+03  0.37426224657E+03  0.00000000000E+00 0.  1.
         13    1    1    2    0    0 -0.19845118542E+03  0.19565028689E+03  0.50821712335E+03  0.57960897455E+03  0.10566000000E+00 0. -1.
<mgrwt>
<rscale>  1 0.74709871E+03</rscale>
<asrwt>0</asrwt>
<pdfrwt beam="2">  1       21 0.10018012E+00 0.10378533E+04</pdfrwt>
<pdfrwt beam="1">  1        4 0.15099028E+00 0.10378533E+04</pdfrwt>
<totfact> 0.88578819E+00</totfact>
</mgrwt>
</event>
<event>
 6    1  0.1353269E-005  0.1020714E+04  0.7818608E-02  0.9747403E-01
         21   -1    0    0  501  502  0.00000000000E+00  0.00000000000E+00  0.92010364614E+03  0.92010364614E+03  0.00000000000E+00 0. -1.
          4   -1    0    0  502    0 -0.00000000000E+00 -0.00000000000E+00 -0.52108333839E+03  0.52108333839E+03  0.00000000000E+00 0.  1.
    9000010    2    1    2  501    0 -0.20214379985E+03  0.28835195831E+02  0.32030233212E+02  0.10212163780E+04  0.10000816820E+04 0.  0.
        -13    1    3    3    0    0  0.22142384913E+03  0.29597869059E+03 -0.25023107299E+03  0.44637149024E+03  0.10566000000E+00 0.  1.
          4    1    3    3  501    0 -0.42356764898E+03 -0.26714349475E+03  0.28226130621E+03  0.57484488780E+03  0.00000000000E+00 0.  1.
         13    1    1    2    0    0  0.20214379985E+03 -0.28835195831E+02  0.36699007454E+03  0.41997060649E+03  0.10566000000E+00 0. -1.
<mgrwt>
<rscale>  1 0.68263218E+03</rscale>
<asrwt>0</asrwt>
<pdfrwt beam="1">  1       21 0.14155441E+00 0.10207139E+04</pdfrwt>
<pdfrwt beam="2">  1        4 0.80166668E-01 0.10207139E+04</pdfrwt>
<totfact> 0.17317846E+01</totfact>
</mgrwt>
</event>
<event>
 6    1  0.1353269E-005  0.9949024E+03  0.7818608E-02  0.1009979E+00
         21   -1    0    0  501  502  0.00000000000E+00  0.00000000000E+00  0.47854033095E+03  0.47854033095E+03  0.00000000000E+00 0.  1.
          4   -1    0    0  502    0 -0.00000000000E+00 -0.00000000000E+00 -0.62029930305E+03  0.62029930305E+03  0.00000000000E+00 0.  1.
    9000010    2    1    2  501    0  0.52778209660E+02 -0.47994037449E+02 -0.69542364378E+02  0.99732994659E+03  0.99234163213E+03 0.  0.
        -13    1    3    3    0    0  0.42881219371E+03 -0.27914363874E+02  0.25544829080E+03  0.49991294204E+03  0.10566000000E+00 0.  1.
          4    1    3    3  501    0 -0.37603398405E+03 -0.20079673575E+02 -0.32499065518E+03  0.49741700454E+03  0.00000000000E+00 0.  1.
         13    1    1    2    0    0 -0.52778209660E+02  0.47994037449E+02 -0.72216607716E+02  0.10150968742E+03  0.10566000000E+00 0. -1.
<mgrwt>
<rscale>  1 0.51483042E+03</rscale>
<asrwt>0</asrwt>
<pdfrwt beam="1">  1       21 0.73621590E-01 0.99490245E+03</pdfrwt>
<pdfrwt beam="2">  1        4 0.95430661E-01 0.99490245E+03</pdfrwt>
<totfact> 0.59165113E+01</totfact>
</mgrwt>
</event>
<event>
 6    1  0.1353269E-005  0.9849344E+03  0.7818608E-02  0.1019710E+00
          4   -1    0    0  502    0 -0.00000000000E+00  0.00000000000E+00  0.25676844413E+04  0.25676844413E+04  0.00000000000E+00 0.  1.
         21   -1    0    0  501  502  0.00000000000E+00 -0.00000000000E+00 -0.10887852181E+03  0.10887852181E+03  0.00000000000E+00 0.  1.
    9000010    2    1    2  501    0 -0.46379053234E+02  0.28807843834E+02  0.24093536289E+04  0.26028985303E+04  0.98342002312E+03 0.  0.
        -13    1    3    3    0    0  0.36658215901E+03  0.22834773871E+03  0.61929290806E+03  0.75501581852E+03  0.10566000000E+00 0.  1.
          4    1    3    3  501    0 -0.41296121225E+03 -0.19953989488E+03  0.17900607208E+04  0.18478827118E+04  0.00000000000E+00 0.  1.
         13    1    1    2    0    0  0.46379053234E+02 -0.28807843834E+02  0.49452290643E+02  0.73664432796E+02  0.10566000000E+00 0. -1.
<mgrwt>
<rscale>  1 0.47791353E+03</rscale>
<asrwt>0</asrwt>
<pdfrwt beam="2">  1       21 0.16750544E-01 0.98493444E+03</pdfrwt>
<pdfrwt beam="1">  1        4 0.39502833E+00 0.98493444E+03</pdfrwt>
<totfact> 0.10307388E+01</totfact>
</mgrwt>
</event>
<event>
 6    1  0.1353269E-005  0.1037249E+04  0.7818608E-02  0.9631912E-01
          4   -1    0    0  502    0 -0.00000000000E+00  0.00000000000E+00  0.16456300037E+04  0.16456300037E+04  0.00000000000E+00 0.  1.
         21   -1    0    0  501  502  0.00000000000E+00 -0.00000000000E+00 -0.29516876160E+03  0.29516876160E+03  0.00000000000E+00 0.  1.
    9000010    2    1    2  501    0 -0.24145480752E+03  0.15488690285E+03  0.76501385067E+03  0.12888485862E+04  0.99679190891E+03 0.  0.
        -13    1    3    3    0    0  0.22458812294E+02  0.44461559512E+03  0.77839732305E+03  0.89671056053E+03  0.10566000000E+00 0.  1.
          4    1    3    3  501    0 -0.26391361981E+03 -0.28972869226E+03 -0.13383472377E+02  0.39213802567E+03  0.00000000000E+00 0.  1.
         13    1    1    2    0    0  0.24145480752E+03 -0.15488690285E+03  0.58544739143E+03  0.65195017912E+03  0.10566000000E+00 0. -1.
<mgrwt>
<rscale>  1 0.75219554E+03</rscale>
<asrwt>0</asrwt>
<pdfrwt beam="2">  1       21 0.45410579E-01 0.10372485E+04</pdfrwt>
<pdfrwt beam="1">  1        4 0.25317384E+00 0.10372485E+04</pdfrwt>
<totfact> 0.11128883E+01</totfact>
</mgrwt>
</event>
<event>
 6    1  0.1353269E-005  0.1091304E+04  0.7818608E-02  0.9568364E-01
          4   -1    0    0  502    0 -0.00000000000E+00  0.00000000000E+00  0.39067265232E+03  0.39067265232E+03  0.00000000000E+00 0.  1.
         21   -1    0    0  501  502  0.00000000000E+00 -0.00000000000E+00 -0.12911258431E+04  0.12911258431E+04  0.00000000000E+00 0.  1.
    9000010    2    1    2  501    0  0.21626278380E+03 -0.21677631768E+03 -0.82045117783E+03  0.13653148516E+04  0.10474650091E+04 0.  0.
        -13    1    3    3    0    0  0.26163287428E+03 -0.33350425894E+03  0.10070747688E+03  0.43568206149E+03  0.10566000000E+00 0.  1.
          4    1    3    3  501    0 -0.45370090485E+02  0.11672794126E+03 -0.92115865470E+03  0.92963279014E+03  0.00000000000E+00 0.  1.
         13    1    1    2    0    0 -0.21626278380E+03  0.21677631768E+03 -0.80002012999E+02  0.31648364383E+03  0.10566000000E+00 0. -1.
<mgrwt>
<rscale>  1 0.79425953E+03</rscale>
<asrwt>0</asrwt>
<pdfrwt beam="2">  1       21 0.19863474E+00 0.10913040E+04</pdfrwt>
<pdfrwt beam="1">  1        4 0.60103486E-01 0.10913040E+04</pdfrwt>
<totfact> 0.12138844E+01</totfact>
</mgrwt>
</event>
<event>
 6    1  0.1353269E-005  0.1264962E+04  0.7818608E-02  0.9188538E-01
         21   -1    0    0  501  502  0.00000000000E+00  0.00000000000E+00  0.10679387903E+04  0.10679387903E+04  0.00000000000E+00 0. -1.
          4   -1    0    0  502    0 -0.00000000000E+00 -0.00000000000E+00 -0.13581423117E+04  0.13581423117E+04  0.00000000000E+00 0.  1.
    9000010    2    1    2  501    0  0.70175071942E+03  0.31641822949E+03  0.46497848317E+03  0.13477145412E+04  0.10037703556E+04 0.  0.
        -13    1    3    3    0    0  0.63635374090E+03  0.63752320086E+03  0.47804129861E+03  0.10197575249E+04  0.10566000000E+00 0.  1.
          4    1    3    3  501    0  0.65396978523E+02 -0.32110497137E+03 -0.13062815441E+02  0.32795701637E+03  0.00000000000E+00 0.  1.
         13    1    1    2    0    0 -0.70175071942E+03 -0.31641822949E+03 -0.75518200460E+03  0.10783665608E+04  0.10566000000E+00 0. -1.
<mgrwt>
<rscale>  1 0.11172518E+04</rscale>
<asrwt>0</asrwt>
<pdfrwt beam="1">  1       21 0.16429828E+00 0.12649623E+04</pdfrwt>
<pdfrwt beam="2">  1        4 0.20894497E+00 0.12649623E+04</pdfrwt>
<totfact> 0.89740501E-01</totfact>
</mgrwt>
</event>
<event>
 6    1  0.1353269E-005  0.1002457E+04  0.7818608E-02  0.9638759E-01
          4   -1    0    0  502    0 -0.00000000000E+00  0.00000000000E+00  0.10446168229E+04  0.10446168229E+04  0.00000000000E+00 0.  1.
         21   -1    0    0  501  502  0.00000000000E+00 -0.00000000000E+00 -0.41357390538E+03  0.41357390538E+03  0.00000000000E+00 0.  1.
    9000010    2    1    2  501    0  0.75157088328E+02 -0.30123393487E+03  0.45036115551E+03  0.10989743844E+04  0.95316790531E+03 0.  0.
        -13    1    3    3    0    0  0.46315888743E+03 -0.32362042438E+03  0.42956867894E+03  0.70977150913E+03  0.10566000000E+00 0.  1.
          4    1    3    3  501    0 -0.38800179911E+03  0.22386489512E+02  0.20792476565E+02  0.38920287525E+03  0.00000000000E+00 0.  1.
         13    1    1    2    0    0 -0.75157088328E+02  0.30123393487E+03  0.18068176205E+03  0.35921634393E+03  0.10566000000E+00 0. -1.
<mgrwt>
<rscale>  1 0.74783106E+03</rscale>
<asrwt>0</asrwt>
<pdfrwt beam="2">  1       21 0.63626755E-01 0.10024567E+04</pdfrwt>
<pdfrwt beam="1">  1        4 0.16071028E+00 0.10024567E+04</pdfrwt>
<totfact> 0.21865300E+01</totfact>
</mgrwt>
</event>
<event>
 6    1  0.1353269E-005  0.1035570E+04  0.7818608E-02  0.9629166E-01
          4   -1    0    0  502    0 -0.00000000000E+00  0.00000000000E+00  0.63194838287E+03  0.63194838287E+03  0.00000000000E+00 0.  1.
         21   -1    0    0  501  502  0.00000000000E+00 -0.00000000000E+00 -0.70337206605E+03  0.70337206605E+03  0.00000000000E+00 0.  1.
    9000010    2    1    2  501    0  0.24641731132E+03  0.15472710364E+03  0.60770399599E+00  0.10355697194E+04  0.99385225593E+03 0.  0.
        -13    1    3    3    0    0 -0.27782577579E+03  0.35304659766E+03 -0.11395350014E+03  0.46348082287E+03  0.10566000000E+00 0.  1.
          4    1    3    3  501    0  0.52424308711E+03 -0.19831949402E+03  0.11456120413E+03  0.57208889657E+03  0.00000000000E+00 0.  1.
         13    1    1    2    0    0 -0.24641731132E+03 -0.15472710364E+03 -0.72031387179E+02  0.29975072947E+03  0.10566000000E+00 0. -1.
<mgrwt>
<rscale>  1 0.75395523E+03</rscale>
<asrwt>0</asrwt>
<pdfrwt beam="2">  1       21 0.10821109E+00 0.10355695E+04</pdfrwt>
<pdfrwt beam="1">  1        4 0.97222828E-01 0.10355695E+04</pdfrwt>
<totfact> 0.22247772E+01</totfact>
</mgrwt>
</event>
<event>
 6    1  0.1353269E-005  0.1015327E+04  0.7818608E-02  0.1052707E+00
         21   -1    0    0  501  502  0.00000000000E+00  0.00000000000E+00  0.79598073899E+03  0.79598073899E+03  0.00000000000E+00 0.  1.
          4   -1    0    0  502    0 -0.00000000000E+00 -0.00000000000E+00 -0.34758139275E+03  0.34758139275E+03  0.00000000000E+00 0.  1.
    9000010    2    1    2  501    0  0.13218143772E+02 -0.13566870547E+02  0.46649464534E+03  0.11173661337E+04  0.10151507490E+04 0.  0.
        -13    1    3    3    0    0 -0.14565485863E+03 -0.22091943931E+01  0.76514938175E+03  0.77889267935E+03  0.10566000000E+00 0.  1.
          4    1    3    3  501    0  0.15887300241E+03 -0.11357676153E+02 -0.29865473641E+03  0.33847345432E+03  0.00000000000E+00 0.  1.
         13    1    1    2    0    0 -0.13218143772E+02  0.13566870547E+02 -0.18095299102E+02  0.26195998069E+02  0.10566000000E+00 0. -1.
<mgrwt>
<rscale>  1 0.37524050E+03</rscale>
<asrwt>0</asrwt>
<pdfrwt beam="1">  1       21 0.12245858E+00 0.10153274E+04</pdfrwt>
<pdfrwt beam="2">  1        4 0.53474061E-01 0.10153274E+04</pdfrwt>
<totfact> 0.62538637E+01</totfact>
</mgrwt>
</event>
<event>
 6    1  0.1353269E-005  0.1059017E+04  0.7818608E-02  0.9578657E-01
          4   -1    0    0  502    0 -0.00000000000E+00  0.00000000000E+00  0.10571096254E+04  0.10571096254E+04  0.00000000000E+00 0.  1.
         21   -1    0    0  501  502  0.00000000000E+00 -0.00000000000E+00 -0.47092880567E+03  0.47092880567E+03  0.00000000000E+00 0. -1.
    9000010    2    1    2  501    0  0.67037157116E+02  0.31637781329E+03  0.57362476424E+03  0.12043926882E+04  0.10084282206E+04 0.  0.
        -13    1    3    3    0    0  0.16610081001E+03 -0.48295342356E+02 -0.24664876621E+03  0.30125992800E+03  0.10566000000E+00 0.  1.
          4    1    3    3  501    0 -0.99063652891E+02  0.36467315565E+03  0.82027353045E+03  0.90313276019E+03  0.00000000000E+00 0.  1.
         13    1    1    2    0    0 -0.67037157116E+02 -0.31637781329E+03  0.12556055474E+02  0.32364574286E+03  0.10566000000E+00 0. -1.
<mgrwt>
<rscale>  1 0.78725036E+03</rscale>
<asrwt>0</asrwt>
<pdfrwt beam="2">  1       21 0.72450586E-01 0.10590167E+04</pdfrwt>
<pdfrwt beam="1">  1        4 0.16263225E+00 0.10590167E+04</pdfrwt>
<totfact> 0.15648036E+01</totfact>
</mgrwt>
</event>
<event>
 6    1  0.1353269E-005  0.1122503E+04  0.7818608E-02  0.9433647E-01
         21   -1    0    0  501  502  0.00000000000E+00  0.00000000000E+00  0.29845720737E+04  0.29845720737E+04  0.00000000000E+00 0.  1.
          4   -1    0    0  502    0 -0.00000000000E+00 -0.00000000000E+00 -0.50162740217E+03  0.50162740217E+03  0.00000000000E+00 0.  1.
    9000010    2    1    2  501    0  0.76149103381E+02  0.44430058332E+03  0.27443979415E+04  0.29650857475E+04  0.10280134895E+04 0.  0.
        -13    1    3    3    0    0 -0.17195182075E+03  0.12799479721E+03  0.24630967760E+02  0.21577023082E+03  0.10566000000E+00 0.  1.
          4    1    3    3  501    0  0.24810092413E+03  0.31630578611E+03  0.27197669738E+04  0.27493155167E+04  0.00000000000E+00 0.  1.
         13    1    1    2    0    0 -0.76149103381E+02 -0.44430058332E+03 -0.26145327001E+03  0.52111372832E+03  0.10566000000E+00 0. -1.
<mgrwt>
<rscale>  1 0.89357623E+03</rscale>
<asrwt>0</asrwt>
<pdfrwt beam="1">  1       21 0.45916492E+00 0.11225032E+04</pdfrwt>
<pdfrwt beam="2">  1        4 0.77173449E-01 0.11225032E+04</pdfrwt>
<totfact> 0.14133313E-01</totfact>
</mgrwt>
</event>
<event>
 6    1  0.1353269E-005  0.1044838E+04  0.7818608E-02  0.9632919E-01
          4   -1    0    0  502    0 -0.00000000000E+00  0.00000000000E+00  0.96612676801E+03  0.96612676801E+03  0.00000000000E+00 0.  1.
         21   -1    0    0  501  502  0.00000000000E+00 -0.00000000000E+00 -0.64065861129E+03  0.64065861129E+03  0.00000000000E+00 0.  1.
    9000010    2    1    2  501    0  0.83131903245E+02 -0.26705747503E+03 -0.14960223863E+03  0.10554937142E+04  0.10067052908E+04 0.  0.
        -13    1    3    3    0    0  0.12968670149E+03 -0.28891296439E+03  0.39623489427E+03  0.50723904043E+03  0.10566000000E+00 0.  1.
          4    1    3    3  501    0 -0.46554798245E+02  0.21855489353E+02 -0.54583713290E+03  0.54825467377E+03  0.00000000000E+00 0.  1.
         13    1    1    2    0    0 -0.83131903245E+02  0.26705747503E+03  0.47507039535E+03  0.55129166511E+03  0.10566000000E+00 0. -1.
<mgrwt>
<rscale>  1 0.75155154E+03</rscale>
<asrwt>0</asrwt>
<pdfrwt beam="2">  1       21 0.98562863E-01 0.10448379E+04</pdfrwt>
<pdfrwt beam="1">  1        4 0.14863489E+00 0.10448379E+04</pdfrwt>
<totfact> 0.96120264E+00</totfact>
</mgrwt>
</event>
<event>
 6    1  0.1353269E-005  0.1093658E+04  0.7818608E-02  0.9445631E-01
         21   -1    0    0  501  502  0.00000000000E+00  0.00000000000E+00  0.96789319042E+03  0.96789319042E+03  0.00000000000E+00 0.  1.
          4   -1    0    0  502    0 -0.00000000000E+00 -0.00000000000E+00 -0.64990436099E+03  0.64990436099E+03  0.00000000000E+00 0.  1.
    9000010    2    1    2  501    0 -0.15308648868E+03 -0.44132889454E+03  0.35337973141E+03  0.11493328321E+04  0.98887919287E+03 0.  0.
        -13    1    3    3    0    0 -0.43057286471E+03 -0.52742521711E+03  0.47933822319E+03  0.83266769773E+03  0.10566000000E+00 0.  1.
          4    1    3    3  501    0  0.27748637603E+03  0.86096322564E+02 -0.12595849178E+03  0.31666513432E+03  0.00000000000E+00 0.  1.
         13    1    1    2    0    0  0.15308648868E+03  0.44132889454E+03 -0.35390901971E+02  0.46846471935E+03  0.10566000000E+00 0. -1.
<mgrwt>
<rscale>  1 0.88413743E+03</rscale>
<asrwt>0</asrwt>
<pdfrwt beam="1">  1       21 0.14890665E+00 0.10936584E+04</pdfrwt>
<pdfrwt beam="2">  1        4 0.99985286E-01 0.10936584E+04</pdfrwt>
<totfact> 0.88821384E+00</totfact>
</mgrwt>
</event>
<event>
 6    1  0.1353269E-005  0.1025475E+04  0.7818608E-02  0.9795909E-01
          4   -1    0    0  502    0 -0.00000000000E+00  0.00000000000E+00  0.40684167388E+03  0.40684167388E+03  0.00000000000E+00 0.  1.
         21   -1    0    0  501  502  0.00000000000E+00 -0.00000000000E+00 -0.13777747279E+04  0.13777747279E+04  0.00000000000E+00 0.  1.
    9000010    2    1    2  501    0  0.84538906663E+02 -0.14926745963E+03 -0.11471529795E+04  0.15386873986E+04  0.10110249013E+04 0.  0.
        -13    1    3    3    0    0  0.31799304232E+03  0.28207810947E+03 -0.19507017708E+03  0.46769650411E+03  0.10566000000E+00 0.  1.
          4    1    3    3  501    0 -0.23345413566E+03 -0.43134556910E+03 -0.95208280245E+03  0.10709908945E+04  0.00000000000E+00 0.  1.
         13    1    1    2    0    0 -0.84538906663E+02  0.14926745963E+03  0.17621992554E+03  0.24592900310E+03  0.10566000000E+00 0. -1.
<mgrwt>
<rscale>  1 0.65582532E+03</rscale>
<asrwt>0</asrwt>
<pdfrwt beam="2">  1       21 0.21196534E+00 0.10254750E+04</pdfrwt>
<pdfrwt beam="1">  1        4 0.62591027E-01 0.10254750E+04</pdfrwt>
<totfact> 0.90884389E+00</totfact>
</mgrwt>
</event>
<event>
 6    1  0.1353269E-005  0.1034876E+04  0.7818608E-02  0.9608312E-01
         21   -1    0    0  501  502  0.00000000000E+00  0.00000000000E+00  0.40382225455E+03  0.40382225455E+03  0.00000000000E+00 0. -1.
          4   -1    0    0  502    0 -0.00000000000E+00 -0.00000000000E+00 -0.11437024130E+04  0.11437024130E+04  0.00000000000E+00 0.  1.
    9000010    2    1    2  501    0  0.94379611877E+02 -0.29848457663E+03 -0.64902367900E+03  0.12215561650E+04  0.98639098476E+03 0.  0.
        -13    1    3    3    0    0  0.71410347950E+02  0.27289953852E+03 -0.58076872190E+03  0.64565154334E+03  0.10566000000E+00 0.  1.
          4    1    3    3  501    0  0.22969263927E+02 -0.57138411515E+03 -0.68254957101E+02  0.57590462170E+03  0.00000000000E+00 0.  1.
         13    1    1    2    0    0 -0.94379611877E+02  0.29848457663E+03 -0.90856479498E+02  0.32596850255E+03  0.10566000000E+00 0. -1.
<mgrwt>
<rscale>  1 0.76748478E+03</rscale>
<asrwt>0</asrwt>
<pdfrwt beam="1">  1       21 0.62126502E-01 0.10348757E+04</pdfrwt>
<pdfrwt beam="2">  1        4 0.17595421E+00 0.10348757E+04</pdfrwt>
<totfact> 0.17831058E+01</totfact>
</mgrwt>
</event>
<event>
 6    1  0.1353269E-005  0.9729194E+03  0.7818608E-02  0.1015233E+00
         21   -1    0    0  501  502  0.00000000000E+00  0.00000000000E+00  0.11196486678E+04  0.11196486678E+04  0.00000000000E+00 0.  1.
          4   -1    0    0  502    0 -0.00000000000E+00 -0.00000000000E+00 -0.24146155499E+03  0.24146155499E+03  0.00000000000E+00 0.  1.
    9000010    2    1    2  501    0 -0.24494304137E+02 -0.60112113180E+02  0.80076997021E+03  0.12600812061E+04  0.97075159729E+03 0.  0.
        -13    1    3    3    0    0 -0.50999987011E+02 -0.49704159739E+03  0.59331628552E+03  0.77567749357E+03  0.10566000000E+00 0.  1.
          4    1    3    3  501    0  0.26505682874E+02  0.43692948421E+03  0.20745368469E+03  0.48440371250E+03  0.00000000000E+00 0.  1.
         13    1    1    2    0    0  0.24494304137E+02  0.60112113180E+02  0.77417142614E+02  0.10102901673E+03  0.10566000000E+00 0. -1.
<mgrwt>
<rscale>  1 0.49446710E+03</rscale>
<asrwt>0</asrwt>
<pdfrwt beam="1">  1       21 0.17225364E+00 0.97291937E+03</pdfrwt>
<pdfrwt beam="2">  1        4 0.37147932E-01 0.97291937E+03</pdfrwt>
<totfact> 0.52055699E+01</totfact>
</mgrwt>
</event>
<event>
 6    1  0.1353269E-005  0.1082405E+04  0.7818608E-02  0.9595294E-01
          4   -1    0    0  502    0 -0.00000000000E+00  0.00000000000E+00  0.85998334566E+03  0.85998334566E+03  0.00000000000E+00 0.  1.
         21   -1    0    0  501  502  0.00000000000E+00 -0.00000000000E+00 -0.70411431845E+03  0.70411431845E+03  0.00000000000E+00 0.  1.
    9000010    2    1    2  501    0 -0.14253988700E+03 -0.24802436989E+03 -0.20700868904E+03  0.11020219608E+04  0.10439186258E+04 0.  0.
        -13    1    3    3    0    0 -0.12218132677E+03  0.40178076990E+03 -0.16278937778E+03  0.45039588848E+03  0.10566000000E+00 0.  1.
          4    1    3    3  501    0 -0.20358560228E+02 -0.64980513979E+03 -0.44219311257E+02  0.65162607235E+03  0.00000000000E+00 0.  1.
         13    1    1    2    0    0  0.14253988700E+03  0.24802436989E+03  0.36287771625E+03  0.46207570328E+03  0.10566000000E+00 0. -1.
<mgrwt>
<rscale>  1 0.77608407E+03</rscale>
<asrwt>0</asrwt>
<pdfrwt beam="2">  1       21 0.10832528E+00 0.10824046E+04</pdfrwt>
<pdfrwt beam="1">  1        4 0.13230513E+00 0.10824046E+04</pdfrwt>
<totfact> 0.10265876E+01</totfact>
</mgrwt>
</event>
<event>
 6    1  0.1353269E-005  0.1015793E+04  0.7818608E-02  0.1010551E+00
          4   -1    0    0  502    0 -0.00000000000E+00  0.00000000000E+00  0.73097266150E+03  0.73097266150E+03  0.00000000000E+00 0.  1.
         21   -1    0    0  501  502  0.00000000000E+00 -0.00000000000E+00 -0.60194274381E+03  0.60194274381E+03  0.00000000000E+00 0.  1.
    9000010    2    1    2  501    0  0.41515955781E+02  0.51116845062E+02 -0.16719316502E+03  0.10294609074E+04  0.10136565981E+04 0.  0.
        -13    1    3    3    0    0  0.15433236094E+02  0.12473990987E+02  0.42999650226E+03  0.43045416521E+03  0.10566000000E+00 0.  1.
          4    1    3    3  501    0  0.26082719686E+02  0.38642854075E+02 -0.59718966728E+03  0.59900674215E+03  0.00000000000E+00 0.  1.
         13    1    1    2    0    0 -0.41515955781E+02 -0.51116845062E+02  0.29622308270E+03  0.30345449795E+03  0.10566000000E+00 0. -1.
<mgrwt>
<rscale>  1 0.51256232E+03</rscale>
<asrwt>0</asrwt>
<pdfrwt beam="2">  1       21 0.92606576E-01 0.10157934E+04</pdfrwt>
<pdfrwt beam="1">  1        4 0.11245733E+00 0.10157934E+04</pdfrwt>
<totfact> 0.23004143E+01</totfact>
</mgrwt>
</event>
<event>
 6    1  0.1353269E-005  0.1538483E+04  0.7818608E-02  0.8963325E-01
          4   -1    0    0  502    0 -0.00000000000E+00  0.00000000000E+00  0.16215551526E+04  0.16215551526E+04  0.00000000000E+00 0.  1.
         21   -1    0    0  501  502  0.00000000000E+00 -0.00000000000E+00 -0.10115685488E+04  0.10115685488E+04  0.00000000000E+00 0. -1.
    9000010    2    1    2  501    0  0.10161402207E+04 -0.29367647827E+01  0.46133580818E+03  0.16061637982E+04  0.11551544684E+04 0.  0.
        -13    1    3    3    0    0  0.10280580521E+04 -0.39205577279E+03  0.51201488036E+03  0.12135774950E+04  0.10566000000E+00 0.  1.
          4    1    3    3  501    0 -0.11917831371E+02  0.38911900801E+03 -0.50679072180E+02  0.39258630319E+03  0.00000000000E+00 0.  1.
         13    1    1    2    0    0 -0.10161402207E+04  0.29367647827E+01  0.14865079556E+03  0.10269599032E+04  0.10566000000E+00 0. -1.
<mgrwt>
<rscale>  1 0.13869428E+04</rscale>
<asrwt>0</asrwt>
<pdfrwt beam="2">  1       21 0.15562593E+00 0.15384835E+04</pdfrwt>
<pdfrwt beam="1">  1        4 0.24947002E+00 0.15384835E+04</pdfrwt>
<totfact> 0.55918291E-01</totfact>
</mgrwt>
</event>
<event>
 6    1  0.1353269E-005  0.1004432E+04  0.7818608E-02  0.9758681E-01
         21   -1    0    0  501  502  0.00000000000E+00  0.00000000000E+00  0.77845558607E+03  0.77845558607E+03  0.00000000000E+00 0.  1.
          4   -1    0    0  502    0 -0.00000000000E+00 -0.00000000000E+00 -0.53188475073E+03  0.53188475073E+03  0.00000000000E+00 0.  1.
    9000010    2    1    2  501    0  0.16457518374E+03 -0.12458862546E+03  0.36932802832E+03  0.10701806893E+04  0.98299348855E+03 0.  0.
        -13    1    3    3    0    0  0.14405419228E+03 -0.24085489077E+03  0.68117979878E+03  0.73672832045E+03  0.10566000000E+00 0.  1.
          4    1    3    3  501    0  0.20520991464E+02  0.11626626531E+03 -0.31185177047E+03  0.33345236884E+03  0.00000000000E+00 0.  1.
         13    1    1    2    0    0 -0.16457518374E+03  0.12458862546E+03 -0.12275719297E+03  0.24015964751E+03  0.10566000000E+00 0. -1.
<mgrwt>
<rscale>  1 0.67627903E+03</rscale>
<asrwt>0</asrwt>
<pdfrwt beam="1">  1       21 0.11976240E+00 0.10044319E+04</pdfrwt>
<pdfrwt beam="2">  1        4 0.81828423E-01 0.10044319E+04</pdfrwt>
<totfact> 0.25821671E+01</totfact>
</mgrwt>
</event>
<event>
 6    1  0.1353269E-005  0.1150994E+04  0.7818608E-02  0.9514385E-01
         21   -1    0    0  501  502  0.00000000000E+00  0.00000000000E+00  0.34416332236E+03  0.34416332236E+03  0.00000000000E+00 0.  1.
          4   -1    0    0  502    0 -0.00000000000E+00 -0.00000000000E+00 -0.18438391810E+04  0.18438391810E+04  0.00000000000E+00 0.  1.
    9000010    2    1    2  501    0 -0.31329637194E+03  0.29959469743E+02 -0.74693139127E+03  0.13721125409E+04  0.11071287798E+04 0.  0.
        -13    1    3    3    0    0 -0.62623421628E+03  0.17481275954E+03 -0.12661349081E+03  0.66238944870E+03  0.10566000000E+00 0.  1.
          4    1    3    3  501    0  0.31293784433E+03 -0.14485328980E+03 -0.62031790046E+03  0.70972309220E+03  0.00000000000E+00 0.  1.
         13    1    1    2    0    0  0.31329637194E+03 -0.29959469743E+02 -0.75274446738E+03  0.81588996246E+03  0.10566000000E+00 0. -1.
<mgrwt>
<rscale>  1 0.83231496E+03</rscale>
<asrwt>0</asrwt>
<pdfrwt beam="1">  1       21 0.52948204E-01 0.11509936E+04</pdfrwt>
<pdfrwt beam="2">  1        4 0.28366756E+00 0.11509936E+04</pdfrwt>
<totfact> 0.51088666E+00</totfact>
</mgrwt>
</event>
<event>
 6    1  0.1353269E-005  0.1006672E+04  0.7818608E-02  0.9411069E-01
          4   -1    0    0  502    0 -0.00000000000E+00  0.00000000000E+00  0.16160863757E+04  0.16160863757E+04  0.00000000000E+00 0.  1.
         21   -1    0    0  501  502  0.00000000000E+00 -0.00000000000E+00 -0.44509179543E+03  0.44509179543E+03  0.00000000000E+00 0. -1.
    9000010    2    1    2  501    0  0.60470243982E+03  0.30496491082E+03  0.57677076272E+03  0.11601950447E+04  0.74479486539E+03 0.  0.
        -13    1    3    3    0    0  0.54086608529E+03  0.50075611476E+03  0.25847786208E+03  0.78109130391E+03  0.10566000000E+00 0.  1.
          4    1    3    3  501    0  0.63836354524E+02 -0.19579120394E+03  0.31829290064E+03  0.37910374081E+03  0.00000000000E+00 0.  1.
         13    1    1    2    0    0 -0.60470243982E+03 -0.30496491082E+03  0.59422381752E+03  0.90098312638E+03  0.10566000000E+00 0. -1.
<mgrwt>
<rscale>  1 0.91170281E+03</rscale>
<asrwt>0</asrwt>
<pdfrwt beam="2">  1       21 0.68475662E-01 0.10066718E+04</pdfrwt>
<pdfrwt beam="1">  1        4 0.24862867E+00 0.10066718E+04</pdfrwt>
<totfact> 0.48214418E+00</totfact>
</mgrwt>
</event>
<event>
 6    1  0.1353269E-005  0.9741581E+03  0.7818608E-02  0.1025516E+00
          4   -1    0    0  502    0 -0.00000000000E+00  0.00000000000E+00  0.10304091505E+04  0.10304091505E+04  0.00000000000E+00 0.  1.
         21   -1    0    0  501  502  0.00000000000E+00 -0.00000000000E+00 -0.25925633070E+03  0.25925633070E+03  0.00000000000E+00 0.  1.
    9000010    2    1    2  501    0  0.14677275282E+02 -0.45047052928E+02  0.68348663601E+03  0.11900159437E+04  0.97300529555E+03 0.  0.
        -13    1    3    3    0    0  0.37609741759E+03  0.27792823981E+03  0.21071823396E+03  0.51292841537E+03  0.10566000000E+00 0.  1.
          4    1    3    3  501    0 -0.36142014231E+03 -0.32297529274E+03  0.47276840205E+03  0.67708752829E+03  0.00000000000E+00 0.  1.
         13    1    1    2    0    0 -0.14677275282E+02  0.45047052928E+02  0.87666183765E+02  0.99649537516E+02  0.10566000000E+00 0. -1.
<mgrwt>
<rscale>  1 0.45747372E+03</rscale>
<asrwt>0</asrwt>
<pdfrwt beam="2">  1       21 0.39885590E-01 0.97415808E+03</pdfrwt>
<pdfrwt beam="1">  1        4 0.15852448E+00 0.97415808E+03</pdfrwt>
<totfact> 0.62624390E+01</totfact>
</mgrwt>
</event>
<event>
 6    1  0.1353269E-005  0.1049223E+04  0.7818608E-02  0.9624125E-01
          4   -1    0    0  502    0 -0.00000000000E+00  0.00000000000E+00  0.22163500044E+04  0.22163500044E+04  0.00000000000E+00 0.  1.
         21   -1    0    0  501  502  0.00000000000E+00 -0.00000000000E+00 -0.27650390853E+03  0.27650390853E+03  0.00000000000E+00 0.  1.
    9000010    2    1    2  501    0  0.15539281319E+03 -0.23843257663E+03  0.80387058259E+03  0.13217700569E+04  0.10098867014E+04 0.  0.
        -13    1    3    3    0    0 -0.22021133973E+03 -0.22422619364E+03 -0.11051618342E+03  0.33314299936E+03  0.10566000000E+00 0.  1.
          4    1    3    3  501    0  0.37560415292E+03 -0.14206382985E+02  0.91438676600E+03  0.98862705751E+03  0.00000000000E+00 0.  1.
         13    1    1    2    0    0 -0.15539281319E+03  0.23843257663E+03  0.11359755133E+04  0.11710838561E+04  0.10566000000E+00 0. -1.
<mgrwt>
<rscale>  1 0.75719786E+03</rscale>
<asrwt>0</asrwt>
<pdfrwt beam="2">  1       21 0.42539064E-01 0.10492227E+04</pdfrwt>
<pdfrwt beam="1">  1        4 0.34097691E+00 0.10492227E+04</pdfrwt>
<totfact> 0.36241251E+00</totfact>
</mgrwt>
</event>
<event>
 6    1  0.1353269E-005  0.1044228E+04  0.7818608E-02  0.9656119E-01
          4   -1    0    0  502    0 -0.00000000000E+00  0.00000000000E+00  0.79148523116E+03  0.79148523116E+03  0.00000000000E+00 0.  1.
         21   -1    0    0  501  502  0.00000000000E+00 -0.00000000000E+00 -0.54345372926E+03  0.54345372926E+03  0.00000000000E+00 0.  1.
    9000010    2    1    2  501    0 -0.23066485893E+03  0.11774477920E+03  0.13705301075E+03  0.10531831320E+04  0.10116032185E+04 0.  0.
        -13    1    3    3    0    0 -0.33128474213E+03 -0.25332925240E+03 -0.26719564857E+03  0.49529669520E+03  0.10566000000E+00 0.  1.
          4    1    3    3  501    0  0.10061988320E+03  0.37107403161E+03  0.40424865932E+03  0.55788643682E+03  0.00000000000E+00 0.  1.
         13    1    1    2    0    0  0.23066485893E+03 -0.11774477920E+03  0.11097849116E+03  0.28175582840E+03  0.10566000000E+00 0. -1.
<mgrwt>
<rscale>  1 0.73690669E+03</rscale>
<asrwt>0</asrwt>
<pdfrwt beam="2">  1       21 0.83608266E-01 0.10442276E+04</pdfrwt>
<pdfrwt beam="1">  1        4 0.12176696E+00 0.10442276E+04</pdfrwt>
<totfact> 0.24049952E+01</totfact>
</mgrwt>
</event>
<event>
 6    1  0.1353269E-005  0.1091037E+04  0.7818608E-02  0.9710336E-01
          4   -1    0    0  502    0 -0.00000000000E+00  0.00000000000E+00  0.63323766288E+03  0.63323766288E+03  0.00000000000E+00 0.  1.
         21   -1    0    0  501  502  0.00000000000E+00 -0.00000000000E+00 -0.64777990879E+03  0.64777990879E+03  0.00000000000E+00 0.  1.
    9000010    2    1    2  501    0 -0.18562565569E+03  0.36526559938E+02  0.27783712978E+01  0.10910410242E+04  0.10745099923E+04 0.  0.
        -13    1    3    3    0    0  0.35575886302E+03  0.10961288036E+03 -0.28939887434E+03  0.47151995906E+03  0.10566000000E+00 0.  1.
          4    1    3    3  501    0 -0.54138451871E+03 -0.73086320418E+02  0.29217724564E+03  0.61952106518E+03  0.00000000000E+00 0.  1.
         13    1    1    2    0    0  0.18562565569E+03 -0.36526559938E+02 -0.17320617205E+02  0.18997654744E+03  0.10566000000E+00 0. -1.
<mgrwt>
<rscale>  1 0.70404702E+03</rscale>
<asrwt>0</asrwt>
<pdfrwt beam="2">  1       21 0.99658448E-01 0.10910375E+04</pdfrwt>
<pdfrwt beam="1">  1        4 0.97421178E-01 0.10910375E+04</pdfrwt>
<totfact> 0.27084246E+01</totfact>
</mgrwt>
</event>
<event>
 6    1  0.1353269E-005  0.1000510E+04  0.7818608E-02  0.9856983E-01
         21   -1    0    0  501  502  0.00000000000E+00  0.00000000000E+00  0.17563293182E+03  0.17563293182E+03  0.00000000000E+00 0.  1.
          4   -1    0    0  502    0 -0.00000000000E+00 -0.00000000000E+00 -0.18893091864E+04  0.18893091864E+04  0.00000000000E+00 0.  1.
    9000010    2    1    2  501    0 -0.15076861138E+03 -0.12734307366E+02 -0.15033500025E+04  0.18058466141E+04  0.98900324924E+03 0.  0.
        -13    1    3    3    0    0 -0.25489912448E+03  0.39387867676E+03 -0.11985887768E+04  0.12871398691E+04  0.10566000000E+00 0.  1.
          4    1    3    3  501    0  0.10413051310E+03 -0.40661298412E+03 -0.30476122567E+03  0.51870674498E+03  0.00000000000E+00 0.  1.
         13    1    1    2    0    0  0.15076861138E+03  0.12734307366E+02 -0.21032625210E+03  0.25909550410E+03  0.10566000000E+00 0. -1.
<mgrwt>
<rscale>  1 0.62392139E+03</rscale>
<asrwt>0</asrwt>
<pdfrwt beam="1">  1       21 0.27020449E-01 0.10005103E+04</pdfrwt>
<pdfrwt beam="2">  1        4 0.29066298E+00 0.10005103E+04</pdfrwt>
<totfact> 0.19127392E+01</totfact>
</mgrwt>
</event>
<event>
 6    1  0.1353269E-005  0.1077493E+04  0.7818608E-02  0.9534100E-01
          4   -1    0    0  502    0 -0.00000000000E+00  0.00000000000E+00  0.12188896858E+04  0.12188896858E+04  0.00000000000E+00 0.  1.
         21   -1    0    0  501  502  0.00000000000E+00 -0.00000000000E+00 -0.43977718270E+03  0.43977718270E+03  0.00000000000E+00 0.  1.
    9000010    2    1    2  501    0 -0.35634505481E+03 -0.36232569448E+02  0.43505758159E+03  0.11620096453E+04  0.10162168663E+04 0.  0.
        -13    1    3    3    0    0 -0.15802761208E+03  0.47943688066E+03  0.96234897639E+02  0.51390039444E+03  0.10566000000E+00 0.  1.
          4    1    3    3  501    0 -0.19831744273E+03 -0.51566945011E+03  0.33882268396E+03  0.64810925085E+03  0.00000000000E+00 0.  1.
         13    1    1    2    0    0  0.35634505481E+03  0.36232569448E+02  0.34405492146E+03  0.49665722317E+03  0.10566000000E+00 0. -1.
<mgrwt>
<rscale>  1 0.81815750E+03</rscale>
<asrwt>0</asrwt>
<pdfrwt beam="2">  1       21 0.67658029E-01 0.10774931E+04</pdfrwt>
<pdfrwt beam="1">  1        4 0.18752149E+00 0.10774931E+04</pdfrwt>
<totfact> 0.12164727E+01</totfact>
</mgrwt>
</event>
<event>
 6    1  0.1353269E-005  0.1066267E+04  0.7818608E-02  0.9487792E-01
         21   -1    0    0  501  502  0.00000000000E+00  0.00000000000E+00  0.21334680008E+04  0.21334680008E+04  0.00000000000E+00 0. -1.
          4   -1    0    0  502    0 -0.00000000000E+00 -0.00000000000E+00 -0.29137811797E+03  0.29137811797E+03  0.00000000000E+00 0.  1.
    9000010    2    1    2  501    0  0.13414485027E+02 -0.43425640959E+03  0.93119643291E+03  0.14156457096E+04  0.97373887703E+03 0.  0.
        -13    1    3    3    0    0  0.35109253690E+03 -0.20260088674E+03  0.92073113889E+03  0.10060113966E+04  0.10566000000E+00 0.  1.
          4    1    3    3  501    0 -0.33767805187E+03 -0.23165552285E+03  0.10465294020E+02  0.40963431297E+03  0.00000000000E+00 0.  1.
         13    1    1    2    0    0 -0.13414485027E+02  0.43425640959E+03  0.91089344987E+03  0.10092004092E+04  0.10566000000E+00 0. -1.
<mgrwt>
<rscale>  1 0.85189872E+03</rscale>
<asrwt>0</asrwt>
<pdfrwt beam="1">  1       21 0.32822584E+00 0.10662673E+04</pdfrwt>
<pdfrwt beam="2">  1        4 0.44827404E-01 0.10662673E+04</pdfrwt>
<totfact> 0.33686236E+00</totfact>
</mgrwt>
</event>
<event>
 6    1  0.1353269E-005  0.9807526E+03  0.7818608E-02  0.1029943E+00
          4   -1    0    0  502    0 -0.00000000000E+00  0.00000000000E+00  0.21215886250E+04  0.21215886250E+04  0.00000000000E+00 0.  1.
         21   -1    0    0  501  502  0.00000000000E+00 -0.00000000000E+00 -0.12335565525E+03  0.12335565525E+03  0.00000000000E+00 0.  1.
    9000010    2    1    2  501    0 -0.99849950094E+01  0.39445207785E+02  0.19411673228E+04  0.21748577354E+04  0.97990814345E+03 0.  0.
        -13    1    3    3    0    0 -0.39137546732E+03  0.17443473411E+03  0.15643834908E+04  0.16220043004E+04  0.10566000000E+00 0.  1.
          4    1    3    3  501    0  0.38139047231E+03 -0.13498952632E+03  0.37678383193E+03  0.55285343500E+03  0.00000000000E+00 0.  1.
         13    1    1    2    0    0  0.99849950094E+01 -0.39445207785E+02  0.57065646970E+02  0.70086544862E+02  0.10566000000E+00 0. -1.
<mgrwt>
<rscale>  1 0.44262938E+03</rscale>
<asrwt>0</asrwt>
<pdfrwt beam="2">  1       21 0.18977795E-01 0.98075257E+03</pdfrwt>
<pdfrwt beam="1">  1        4 0.32639822E+00 0.98075257E+03</pdfrwt>
<totfact> 0.22927603E+01</totfact>
</mgrwt>
</event>
<event>
 6    1  0.1353269E-005  0.1157578E+04  0.7818608E-02  0.9330913E-01
         21   -1    0    0  501  502  0.00000000000E+00  0.00000000000E+00  0.13012685727E+04  0.13012685727E+04  0.00000000000E+00 0.  1.
          4   -1    0    0  502    0 -0.00000000000E+00 -0.00000000000E+00 -0.66027152425E+03  0.66027152425E+03  0.00000000000E+00 0.  1.
    9000010    2    1    2  501    0  0.44760323105E+03 -0.39095424312E+03  0.71815162832E+03  0.13622515913E+04  0.99337493635E+03 0.  0.
        -13    1    3    3    0    0  0.65392124116E+03 -0.50061435858E+03  0.28747703415E+03  0.87227907345E+03  0.10566000000E+00 0.  1.
          4    1    3    3  501    0 -0.20631801011E+03  0.10966011546E+03  0.43067459417E+03  0.48997251788E+03  0.00000000000E+00 0.  1.
         13    1    1    2    0    0 -0.44760323105E+03  0.39095424312E+03 -0.77154579826E+02  0.59928850566E+03  0.10566000000E+00 0. -1.
<mgrwt>
<rscale>  1 0.97986093E+03</rscale>
<asrwt>0</asrwt>
<pdfrwt beam="1">  1       21 0.20019517E+00 0.11575784E+04</pdfrwt>
<pdfrwt beam="2">  1        4 0.10158023E+00 0.11575784E+04</pdfrwt>
<totfact> 0.35218646E+00</totfact>
</mgrwt>
</event>
<event>
 6    1  0.1353269E-005  0.1056823E+04  0.7818608E-02  0.9571352E-01
          4   -1    0    0  502    0 -0.00000000000E+00  0.00000000000E+00  0.79839982246E+03  0.79839982246E+03  0.00000000000E+00 0.  1.
         21   -1    0    0  501  502  0.00000000000E+00 -0.00000000000E+00 -0.13075354043E+04  0.13075354043E+04  0.00000000000E+00 0.  1.
    9000010    2    1    2  501    0 -0.33109791110E+03  0.41676449181E+02 -0.10375239838E+04  0.14809895750E+04  0.10027518891E+04 0.  0.
        -13    1    3    3    0    0  0.22629055869E+03  0.18556733856E+03 -0.81130794783E+03  0.86247507295E+03  0.10566000000E+00 0.  1.
          4    1    3    3  501    0 -0.55738846980E+03 -0.14389088938E+03 -0.22621603599E+03  0.61851450205E+03  0.00000000000E+00 0.  1.
         13    1    1    2    0    0  0.33109791110E+03 -0.41676449181E+02  0.52838840197E+03  0.62494565176E+03  0.10566000000E+00 0. -1.
<mgrwt>
<rscale>  1 0.79221686E+03</rscale>
<asrwt>0</asrwt>
<pdfrwt beam="2">  1       21 0.20115929E+00 0.10568226E+04</pdfrwt>
<pdfrwt beam="1">  1        4 0.12283074E+00 0.10568226E+04</pdfrwt>
<totfact> 0.21972792E+00</totfact>
</mgrwt>
</event>
<event>
 6    1  0.1353269E-005  0.1020587E+04  0.7818608E-02  0.9743530E-01
          4   -1    0    0  502    0 -0.00000000000E+00  0.00000000000E+00  0.46419734320E+03  0.46419734320E+03  0.00000000000E+00 0.  1.
         21   -1    0    0  501  502  0.00000000000E+00 -0.00000000000E+00 -0.94067010251E+03  0.94067010251E+03  0.00000000000E+00 0.  1.
    9000010    2    1    2  501    0 -0.20553182894E+03  0.23853199528E+02 -0.57959613139E+03  0.11736819166E+04  0.99939244444E+03 0.  0.
        -13    1    3    3    0    0  0.35579216360E+03 -0.19214484906E+03 -0.13701428391E+03  0.42694335907E+03  0.10566000000E+00 0.  1.
          4    1    3    3  501    0 -0.56132399254E+03  0.21599804859E+03 -0.44258184747E+03  0.74673855753E+03  0.00000000000E+00 0.  1.
         13    1    1    2    0    0  0.20553182894E+03 -0.23853199528E+02  0.10312337208E+03  0.23118552911E+03  0.10566000000E+00 0. -1.
<mgrwt>
<rscale>  1 0.68483126E+03</rscale>
<asrwt>0</asrwt>
<pdfrwt beam="2">  1       21 0.14471848E+00 0.10205869E+04</pdfrwt>
<pdfrwt beam="1">  1        4 0.71414976E-01 0.10205869E+04</pdfrwt>
<totfact> 0.21196659E+01</totfact>
</mgrwt>
</event>
<event>
 6    1  0.1353269E-005  0.1083895E+04  0.7818608E-02  0.9493212E-01
          4   -1    0    0  502    0 -0.00000000000E+00  0.00000000000E+00  0.22453143346E+04  0.22453143346E+04  0.00000000000E+00 0.  1.
         21   -1    0    0  501  502  0.00000000000E+00 -0.00000000000E+00 -0.25686469462E+03  0.25686469462E+03  0.00000000000E+00 0.  1.
    9000010    2    1    2  501    0  0.34152633993E+03  0.21920998562E+03  0.12112785236E+04  0.16254303685E+04  0.10050547063E+04 0.  0.
        -13    1    3    3    0    0  0.45297052712E+03 -0.29539397117E+03  0.47186155839E+03  0.71769996384E+03  0.10566000000E+00 0.  1.
          4    1    3    3  501    0 -0.11144418719E+03  0.51460395680E+03  0.73941696519E+03  0.90773040470E+03  0.00000000000E+00 0.  1.
         13    1    1    2    0    0 -0.34152633993E+03 -0.21920998562E+03  0.77717111638E+03  0.87674866065E+03  0.10566000000E+00 0. -1.
<mgrwt>
<rscale>  1 0.84786141E+03</rscale>
<asrwt>0</asrwt>
<pdfrwt beam="2">  1       21 0.39517647E-01 0.10838949E+04</pdfrwt>
<pdfrwt beam="1">  1        4 0.34543296E+00 0.10838949E+04</pdfrwt>
<totfact> 0.39421597E+00</totfact>
</mgrwt>
</event>
<event>
 6    1  0.1353269E-005  0.1036157E+04  0.7818608E-02  0.9648845E-01
          4   -1    0    0  502    0 -0.00000000000E+00  0.00000000000E+00  0.10621790102E+04  0.10621790102E+04  0.00000000000E+00 0.  1.
         21   -1    0    0  501  502  0.00000000000E+00 -0.00000000000E+00 -0.52340677521E+03  0.52340677521E+03  0.00000000000E+00 0.  1.
    9000010    2    1    2  501    0 -0.25992013275E+03  0.79099365770E+02  0.63453729797E+02  0.10380979978E+04  0.99990294133E+03 0.  0.
        -13    1    3    3    0    0  0.21215951441E+02  0.13720943202E+03  0.49816384879E+03  0.51714966522E+03  0.10566000000E+00 0.  1.
          4    1    3    3  501    0 -0.28113608419E+03 -0.58110066247E+02 -0.43471011900E+03  0.52094833255E+03  0.00000000000E+00 0.  1.
         13    1    1    2    0    0  0.25992013275E+03 -0.79099365770E+02  0.47531850523E+03  0.54748778767E+03  0.10566000000E+00 0. -1.
<mgrwt>
<rscale>  1 0.74145937E+03</rscale>
<asrwt>0</asrwt>
<pdfrwt beam="2">  1       21 0.80524120E-01 0.10361569E+04</pdfrwt>
<pdfrwt beam="1">  1        4 0.16341215E+00 0.10361569E+04</pdfrwt>
<totfact> 0.12096569E+01</totfact>
</mgrwt>
</event>
<event>
 6    1  0.1353269E-005  0.1017858E+04  0.7818608E-02  0.9764904E-01
          4   -1    0    0  502    0 -0.00000000000E+00  0.00000000000E+00  0.64755320832E+03  0.64755320832E+03  0.00000000000E+00 0.  1.
         21   -1    0    0  501  502  0.00000000000E+00 -0.00000000000E+00 -0.56846418129E+03  0.56846418129E+03  0.00000000000E+00 0.  1.
    9000010    2    1    2  501    0 -0.11097582676E+03 -0.15950130619E+03  0.45891443236E+02  0.10188920703E+04  0.99913899206E+03 0.  0.
        -13    1    3    3    0    0 -0.47757489943E+03  0.18503558420E+03 -0.13232569117E+02  0.51233881761E+03  0.10566000000E+00 0.  1.
          4    1    3    3  501    0  0.36659907267E+03 -0.34453689039E+03  0.59124012354E+02  0.50655325264E+03  0.00000000000E+00 0.  1.
         13    1    1    2    0    0  0.11097582676E+03  0.15950130619E+03  0.33197583795E+02  0.19712531936E+03  0.10566000000E+00 0. -1.
<mgrwt>
<rscale>  1 0.67280484E+03</rscale>
<asrwt>0</asrwt>
<pdfrwt beam="2">  1       21 0.87456028E-01 0.10178581E+04</pdfrwt>
<pdfrwt beam="1">  1        4 0.99623570E-01 0.10178581E+04</pdfrwt>
<totfact> 0.35515038E+01</totfact>
</mgrwt>
</event>
<event>
 6    1  0.1353269E-005  0.1050452E+04  0.7818608E-02  0.9645436E-01
         21   -1    0    0  501  502  0.00000000000E+00  0.00000000000E+00  0.85376713362E+03  0.85376713362E+03  0.00000000000E+00 0.  1.
          4   -1    0    0  502    0 -0.00000000000E+00 -0.00000000000E+00 -0.59551380606E+03  0.59551380606E+03  0.00000000000E+00 0.  1.
    9000010    2    1    2  501    0  0.23118707403E+03  0.12701352181E+03  0.42941655080E+03  0.11348341905E+04  0.10167940636E+04 0.  0.
        -13    1    3    3    0    0  0.45684494273E+03  0.17797418970E+03  0.65067783947E+03  0.81471699126E+03  0.10566000000E+00 0.  1.
          4    1    3    3  501    0 -0.22565786870E+03 -0.50960667885E+02 -0.22126128867E+03  0.32011719923E+03  0.00000000000E+00 0.  1.
         13    1    1    2    0    0 -0.23118707403E+03 -0.12701352181E+03 -0.17116322324E+03  0.31444674919E+03  0.10566000000E+00 0. -1.
<mgrwt>
<rscale>  1 0.74360575E+03</rscale>
<asrwt>0</asrwt>
<pdfrwt beam="1">  1       21 0.13134879E+00 0.10504523E+04</pdfrwt>
<pdfrwt beam="2">  1        4 0.91617509E-01 0.10504523E+04</pdfrwt>
<totfact> 0.15477890E+01</totfact>
</mgrwt>
</event>
<event>
 6    1  0.1353269E-005  0.1057670E+04  0.7818608E-02  0.9556158E-01
          4   -1    0    0  502    0 -0.00000000000E+00  0.00000000000E+00  0.16059100665E+04  0.16059100665E+04  0.00000000000E+00 0.  1.
         21   -1    0    0  501  502  0.00000000000E+00 -0.00000000000E+00 -0.32139437160E+03  0.32139437160E+03  0.00000000000E+00 0.  1.
    9000010    2    1    2  501    0  0.24567535230E+03 -0.25045644208E+03  0.78616386449E+03  0.13178461818E+04  0.99778761720E+03 0.  0.
        -13    1    3    3    0    0 -0.20231833650E+03  0.65327230204E+02  0.73756140175E+03  0.76759181132E+03  0.10566000000E+00 0.  1.
          4    1    3    3  501    0  0.44799368880E+03 -0.31578367228E+03  0.48602462738E+02  0.55025437051E+03  0.00000000000E+00 0.  1.
         13    1    1    2    0    0 -0.24567535230E+03  0.25045644208E+03  0.49835183042E+03  0.60945825629E+03  0.10566000000E+00 0. -1.
<mgrwt>
<rscale>  1 0.80267192E+03</rscale>
<asrwt>0</asrwt>
<pdfrwt beam="2">  1       21 0.49445289E-01 0.10576696E+04</pdfrwt>
<pdfrwt beam="1">  1        4 0.24706308E+00 0.10576696E+04</pdfrwt>
<totfact> 0.10091385E+01</totfact>
</mgrwt>
</event>
<event>
 6    1  0.1353269E-005  0.1036652E+04  0.7818608E-02  0.9663814E-01
         21   -1    0    0  501  502  0.00000000000E+00  0.00000000000E+00  0.52741253774E+03  0.52741253774E+03  0.00000000000E+00 0.  1.
          4   -1    0    0  502    0 -0.00000000000E+00 -0.00000000000E+00 -0.13199806993E+04  0.13199806993E+04  0.00000000000E+00 0.  1.
    9000010    2    1    2  501    0  0.19007853214E+03 -0.17430288583E+03 -0.24238467540E+02  0.10369354193E+04  0.10040598668E+04 0.  0.
        -13    1    3    3    0    0  0.10727820443E+02 -0.96438258495E+02  0.48334861078E+03  0.49299220535E+03  0.10566000000E+00 0.  1.
          4    1    3    3  501    0  0.17935071170E+03 -0.77864627339E+02 -0.50758707832E+03  0.54394321399E+03  0.00000000000E+00 0.  1.
         13    1    1    2    0    0 -0.19007853214E+03  0.17430288583E+03 -0.76832969400E+03  0.81045781768E+03  0.10566000000E+00 0. -1.
<mgrwt>
<rscale>  1 0.73212754E+03</rscale>
<asrwt>0</asrwt>
<pdfrwt beam="1">  1       21 0.81140391E-01 0.10366521E+04</pdfrwt>
<pdfrwt beam="2">  1        4 0.20307395E+00 0.10366521E+04</pdfrwt>
<totfact> 0.63057227E+00</totfact>
</mgrwt>
</event>
<event>
 6    1  0.1353269E-005  0.1049545E+04  0.7818608E-02  0.9737780E-01
         21   -1    0    0  501  502  0.00000000000E+00  0.00000000000E+00  0.25558310627E+04  0.25558310627E+04  0.00000000000E+00 0. -1.
          4   -1    0    0  502    0 -0.00000000000E+00 -0.00000000000E+00 -0.16030228187E+03  0.16030228187E+03  0.00000000000E+00 0.  1.
    9000010    2    1    2  501    0 -0.18549459899E+03  0.56557581065E+02  0.17352324156E+04  0.20279485530E+04  0.10314731171E+04 0.  0.
        -13    1    3    3    0    0 -0.41568501605E+03  0.22736851710E+02  0.17688152595E+03  0.45232519539E+03  0.10566000000E+00 0.  1.
          4    1    3    3  501    0  0.23019041706E+03  0.33820729356E+02  0.15583508897E+04  0.15756233577E+04  0.00000000000E+00 0.  1.
         13    1    1    2    0    0  0.18549459899E+03 -0.56557581065E+02  0.66029636523E+03  0.68818479156E+03  0.10566000000E+00 0. -1.
<mgrwt>
<rscale>  1 0.68811231E+03</rscale>
<asrwt>0</asrwt>
<pdfrwt beam="1">  1       21 0.39320475E+00 0.10495446E+04</pdfrwt>
<pdfrwt beam="2">  1        4 0.24661891E-01 0.10495446E+04</pdfrwt>
<totfact> 0.42693640E+00</totfact>
</mgrwt>
</event>
<event>
 6    1  0.1353269E-005  0.1074766E+04  0.7818608E-02  0.9498478E-01
         21   -1    0    0  501  502  0.00000000000E+00  0.00000000000E+00  0.25151404557E+03  0.25151404557E+03  0.00000000000E+00 0.  1.
          4   -1    0    0  502    0 -0.00000000000E+00 -0.00000000000E+00 -0.22486041757E+04  0.22486041757E+04  0.00000000000E+00 0.  1.
    9000010    2    1    2  501    0  0.27291022888E+03  0.30415653189E+03 -0.16198180599E+04  0.19439479101E+04  0.99404815828E+03 0.  0.
        -13    1    3    3    0    0 -0.92674589712E+02  0.50567246382E+03 -0.13558569718E+04  0.14500487438E+04  0.10566000000E+00 0.  1.
          4    1    3    3  501    0  0.36558481859E+03 -0.20151593193E+03 -0.26396108807E+03  0.49389916625E+03  0.00000000000E+00 0.  1.
         13    1    1    2    0    0 -0.27291022888E+03 -0.30415653189E+03 -0.37727207022E+03  0.55617031119E+03  0.10566000000E+00 0. -1.
<mgrwt>
<rscale>  1 0.84396091E+03</rscale>
<asrwt>0</asrwt>
<pdfrwt beam="1">  1       21 0.38694468E-01 0.10747665E+04</pdfrwt>
<pdfrwt beam="2">  1        4 0.34593911E+00 0.10747665E+04</pdfrwt>
<totfact> 0.40936663E+00</totfact>
</mgrwt>
</event>
<event>
 6    1  0.1353269E-005  0.1009401E+04  0.7818608E-02  0.9601639E-01
          4   -1    0    0  502    0 -0.00000000000E+00  0.00000000000E+00  0.28859596213E+03  0.28859596213E+03  0.00000000000E+00 0.  1.
         21   -1    0    0  501  502  0.00000000000E+00 -0.00000000000E+00 -0.20361544213E+04  0.20361544213E+04  0.00000000000E+00 0.  1.
    9000010    2    1    2  501    0  0.33309588841E+03 -0.90402521329E+02 -0.16989638400E+04  0.19762006238E+04  0.94855958660E+03 0.  0.
        -13    1    3    3    0    0  0.25020971339E+03  0.40266905245E+03 -0.56936652140E+03  0.74089507579E+03  0.10566000000E+00 0.  1.
          4    1    3    3  501    0  0.82886175019E+02 -0.49307157378E+03 -0.11295973186E+04  0.12353055480E+04  0.00000000000E+00 0.  1.
         13    1    1    2    0    0 -0.33309588841E+03  0.90402521329E+02 -0.48594619189E+02  0.34854975960E+03  0.10566000000E+00 0. -1.
<mgrwt>
<rscale>  1 0.77187763E+03</rscale>
<asrwt>0</asrwt>
<pdfrwt beam="2">  1       21 0.31325453E+00 0.10094012E+04</pdfrwt>
<pdfrwt beam="1">  1        4 0.44399379E-01 0.10094012E+04</pdfrwt>
<totfact> 0.43061854E+00</totfact>
</mgrwt>
</event>
<event>
 6    1  0.1353269E-005  0.1010613E+04  0.7818608E-02  0.9783751E-01
          4   -1    0    0  502    0 -0.00000000000E+00  0.00000000000E+00  0.38806409700E+03  0.38806409700E+03  0.00000000000E+00 0.  1.
         21   -1    0    0  501  502  0.00000000000E+00 -0.00000000000E+00 -0.99027822772E+03  0.99027822772E+03  0.00000000000E+00 0.  1.
    9000010    2    1    2  501    0  0.13571169225E+03 -0.12798514905E+03 -0.62827870895E+03  0.11899883091E+04  0.99324728942E+03 0.  0.
        -13    1    3    3    0    0  0.34104495369E+03 -0.44783930904E+03 -0.57760482806E+03  0.80653521666E+03  0.10566000000E+00 0.  1.
          4    1    3    3  501    0 -0.20533326143E+03  0.31985415999E+03 -0.50673880892E+02  0.38345309246E+03  0.00000000000E+00 0.  1.
         13    1    1    2    0    0 -0.13571169225E+03  0.12798514905E+03  0.26064578222E+02  0.18835401560E+03  0.10566000000E+00 0. -1.
<mgrwt>
<rscale>  1 0.66241880E+03</rscale>
<asrwt>0</asrwt>
<pdfrwt beam="2">  1       21 0.15235050E+00 0.10106127E+04</pdfrwt>
<pdfrwt beam="1">  1        4 0.59702169E-01 0.10106127E+04</pdfrwt>
<totfact> 0.27340445E+01</totfact>
</mgrwt>
</event>
<event>
 6    1  0.1353269E-005  0.1032141E+04  0.7818608E-02  0.1007711E+00
          4   -1    0    0  502    0 -0.00000000000E+00  0.00000000000E+00  0.13532868709E+04  0.13532868709E+04  0.00000000000E+00 0.  1.
         21   -1    0    0  501  502  0.00000000000E+00 -0.00000000000E+00 -0.23909325414E+03  0.23909325414E+03  0.00000000000E+00 0.  1.
    9000010    2    1    2  501    0 -0.42379511336E+01 -0.68405697467E+02  0.90660915269E+03  0.13737740397E+04  0.10298629310E+04 0.  0.
        -13    1    3    3    0    0 -0.23764281540E+03 -0.39745642950E+03  0.10272485840E+03  0.47433967656E+03  0.10566000000E+00 0.  1.
          4    1    3    3  501    0  0.23340486427E+03  0.32905073203E+03  0.80388429430E+03  0.89943436311E+03  0.00000000000E+00 0.  1.
         13    1    1    2    0    0  0.42379511336E+01  0.68405697467E+02  0.20758446410E+03  0.21860608541E+03  0.10566000000E+00 0. -1.
<mgrwt>
<rscale>  1 0.52394466E+03</rscale>
<asrwt>0</asrwt>
<pdfrwt beam="2">  1       21 0.36783578E-01 0.10321410E+04</pdfrwt>
<pdfrwt beam="1">  1        4 0.20819797E+00 0.10321410E+04</pdfrwt>
<totfact> 0.33341597E+01</totfact>
</mgrwt>
</event>
<event>
 6    1  0.1353269E-005  0.1173854E+04  0.7818608E-02  0.9356693E-01
          4   -1    0    0  502    0 -0.00000000000E+00  0.00000000000E+00  0.13111503739E+04  0.13111503739E+04  0.00000000000E+00 0.  1.
         21   -1    0    0  501  502  0.00000000000E+00 -0.00000000000E+00 -0.56388944183E+03  0.56388944183E+03  0.00000000000E+00 0. -1.
    9000010    2    1    2  501    0 -0.17173374941E+03 -0.48992688027E+03  0.66581953084E+03  0.13495366837E+04  0.10528118466E+04 0.  0.
        -13    1    3    3    0    0 -0.25733500691E+03  0.13457933906E+02 -0.21221706032E+03  0.33382407585E+03  0.10566000000E+00 0.  1.
          4    1    3    3  501    0  0.85601257497E+02 -0.50338481417E+03  0.87803659116E+03  0.10157126079E+04  0.00000000000E+00 0.  1.
         13    1    1    2    0    0  0.17173374941E+03  0.48992688027E+03  0.81441401204E+02  0.52550313195E+03  0.10566000000E+00 0. -1.
<mgrwt>
<rscale>  1 0.95727057E+03</rscale>
<asrwt>0</asrwt>
<pdfrwt beam="2">  1       21 0.86752222E-01 0.11738542E+04</pdfrwt>
<pdfrwt beam="1">  1        4 0.20171544E+00 0.11738542E+04</pdfrwt>
<totfact> 0.54033845E+00</totfact>
</mgrwt>
</event>
<event>
 6    1  0.1353269E-005  0.9969218E+03  0.7818608E-02  0.1012307E+00
         21   -1    0    0  501  502  0.00000000000E+00  0.00000000000E+00  0.27470743593E+03  0.27470743593E+03  0.00000000000E+00 0.  1.
          4   -1    0    0  502    0 -0.00000000000E+00 -0.00000000000E+00 -0.10350451949E+04  0.10350451949E+04  0.00000000000E+00 0.  1.
    9000010    2    1    2  501    0  0.10518568297E+02 -0.65151823508E+02 -0.73694334528E+03  0.12397332754E+04  0.99473498958E+03 0.  0.
        -13    1    3    3    0    0  0.32653950694E+03  0.99118413518E+02 -0.80749993960E+03  0.87664626452E+03  0.10566000000E+00 0.  1.
          4    1    3    3  501    0 -0.31602093864E+03 -0.16427023703E+03  0.70556594320E+02  0.36308701083E+03  0.00000000000E+00 0.  1.
         13    1    1    2    0    0 -0.10518568297E+02  0.65151823508E+02 -0.23394413709E+02  0.70019355483E+02  0.10566000000E+00 0. -1.
<mgrwt>
<rscale>  1 0.50567855E+03</rscale>
<asrwt>0</asrwt>
<pdfrwt beam="1">  1       21 0.42262682E-01 0.99692181E+03</pdfrwt>
<pdfrwt beam="2">  1        4 0.15923772E+00 0.99692181E+03</pdfrwt>
<totfact> 0.54673894E+01</totfact>
</mgrwt>
</event>
<event>
 6    1  0.1353269E-005  0.1010747E+04  0.7818608E-02  0.9777750E-01
          4   -1    0    0  502    0 -0.00000000000E+00  0.00000000000E+00  0.13397733829E+04  0.13397733829E+04  0.00000000000E+00 0.  1.
         21   -1    0    0  501  502  0.00000000000E+00 -0.00000000000E+00 -0.35602277958E+03  0.35602277958E+03  0.00000000000E+00 0.  1.
    9000010    2    1    2  501    0  0.60610102727E+02 -0.18027828682E+03  0.40894576426E+03  0.10903422341E+04  0.99269114232E+03 0.  0.
        -13    1    3    3    0    0  0.33035184136E+02 -0.44226221856E+03  0.61336268635E+03  0.75690223248E+03  0.10566000000E+00 0.  1.
          4    1    3    3  501    0  0.27574918591E+02  0.26198393174E+03 -0.20441692209E+03  0.33344000159E+03  0.00000000000E+00 0.  1.
         13    1    1    2    0    0 -0.60610102727E+02  0.18027828682E+03  0.57480483902E+03  0.60545392837E+03  0.10566000000E+00 0. -1.
<mgrwt>
<rscale>  1 0.66570406E+03</rscale>
<asrwt>0</asrwt>
<pdfrwt beam="2">  1       21 0.54772736E-01 0.10107470E+04</pdfrwt>
<pdfrwt beam="1">  1        4 0.20611898E+00 0.10107470E+04</pdfrwt>
<totfact> 0.14762661E+01</totfact>
</mgrwt>
</event>
<event>
 6    1  0.1353269E-005  0.1060621E+04  0.7818608E-02  0.9791823E-01
         21   -1    0    0  501  502  0.00000000000E+00  0.00000000000E+00  0.13854398608E+04  0.13854398608E+04  0.00000000000E+00 0.  1.
          4   -1    0    0  502    0 -0.00000000000E+00 -0.00000000000E+00 -0.46019801069E+03  0.46019801069E+03  0.00000000000E+00 0.  1.
    9000010    2    1    2  501    0  0.55838486023E+02  0.14689246127E+03  0.11544726471E+04  0.15677132392E+04  0.10489148563E+04 0.  0.
        -13    1    3    3    0    0  0.33524537651E+03  0.38907093665E+03  0.10722875429E+04  0.11889349192E+04  0.10566000000E+00 0.  1.
          4    1    3    3  501    0 -0.27940689048E+03 -0.24217847537E+03  0.82185104271E+02  0.37877832006E+03  0.00000000000E+00 0.  1.
         13    1    1    2    0    0 -0.55838486023E+02 -0.14689246127E+03 -0.22923079709E+03  0.27792463223E+03  0.10566000000E+00 0. -1.
<mgrwt>
<rscale>  1 0.65803223E+03</rscale>
<asrwt>0</asrwt>
<pdfrwt beam="1">  1       21 0.21314459E+00 0.10606214E+04</pdfrwt>
<pdfrwt beam="2">  1        4 0.70799695E-01 0.10606214E+04</pdfrwt>
<totfact> 0.67553273E+00</totfact>
</mgrwt>
</event>
<event>
 6    1  0.1353269E-005  0.9693009E+03  0.7818608E-02  0.9776835E-01
         21   -1    0    0  501  502  0.00000000000E+00  0.00000000000E+00  0.74395220249E+03  0.74395220249E+03  0.00000000000E+00 0.  1.
          4   -1    0    0  502    0 -0.00000000000E+00 -0.00000000000E+00 -0.65887053129E+03  0.65887053129E+03  0.00000000000E+00 0.  1.
    9000010    2    1    2  501    0 -0.16007655490E+02  0.21570816670E+03  0.37654175190E+03  0.10398692271E+04  0.94485875151E+03 0.  0.
        -13    1    3    3    0    0 -0.36000358162E+03 -0.18981716011E+02 -0.13080929522E+03  0.38350223885E+03  0.10566000000E+00 0.  1.
          4    1    3    3  501    0  0.34399592613E+03  0.23468988271E+03  0.50735104712E+03  0.65636698824E+03  0.00000000000E+00 0.  1.
         13    1    1    2    0    0  0.16007655490E+02 -0.21570816670E+03 -0.29146008070E+03  0.36295350669E+03  0.10566000000E+00 0. -1.
<mgrwt>
<rscale>  1 0.66620637E+03</rscale>
<asrwt>0</asrwt>
<pdfrwt beam="1">  1       21 0.11445418E+00 0.96930094E+03</pdfrwt>
<pdfrwt beam="2">  1        4 0.10136470E+00 0.96930094E+03</pdfrwt>
<totfact> 0.17569044E+01</totfact>
</mgrwt>
</event>
<event>
 6    1  0.1353269E-005  0.1043695E+04  0.7818608E-02  0.9608617E-01
         21   -1    0    0  501  502  0.00000000000E+00  0.00000000000E+00  0.13605561645E+04  0.13605561645E+04  0.00000000000E+00 0.  1.
          4   -1    0    0  502    0 -0.00000000000E+00 -0.00000000000E+00 -0.66126271444E+03  0.66126271444E+03  0.00000000000E+00 0.  1.
    9000010    2    1    2  501    0  0.26674187710E+03  0.14761563255E+03  0.11013007035E+04  0.15172879612E+04  0.99817729567E+03 0.  0.
        -13    1    3    3    0    0  0.12841080858E+03  0.28100080052E+03 -0.81064135326E+02  0.31940912770E+03  0.10566000000E+00 0.  1.
          4    1    3    3  501    0  0.13833106852E+03 -0.13338516797E+03  0.11823648389E+04  0.11978788335E+04  0.00000000000E+00 0.  1.
         13    1    1    2    0    0 -0.26674187710E+03 -0.14761563255E+03 -0.40200725346E+03  0.50453091776E+03  0.10566000000E+00 0. -1.
<mgrwt>
<rscale>  1 0.76728467E+03</rscale>
<asrwt>0</asrwt>
<pdfrwt beam="1">  1       21 0.20931633E+00 0.10436951E+04</pdfrwt>
<pdfrwt beam="2">  1        4 0.10173273E+00 0.10436951E+04</pdfrwt>
<totfact> 0.30889321E+00</totfact>
</mgrwt>
</event>
<event>
 6    1  0.1353269E-005  0.1040144E+04  0.7818608E-02  0.9620847E-01
          4   -1    0    0  502    0 -0.00000000000E+00  0.00000000000E+00  0.12803567288E+04  0.12803567288E+04  0.00000000000E+00 0.  1.
         21   -1    0    0  501  502  0.00000000000E+00 -0.00000000000E+00 -0.43857067528E+03  0.43857067528E+03  0.00000000000E+00 0.  1.
    9000010    2    1    2  501    0 -0.10824849126E+03  0.27485177524E+03  0.26885995882E+03  0.10743302001E+04  0.99731563069E+03 0.  0.
        -13    1    3    3    0    0 -0.13726463927E+03  0.85840021448E+02  0.63820428542E+03  0.65841841679E+03  0.10566000000E+00 0.  1.
          4    1    3    3  501    0  0.29016148014E+02  0.18901175379E+03 -0.36934432660E+03  0.41591178332E+03  0.00000000000E+00 0.  1.
         13    1    1    2    0    0  0.10824849126E+03 -0.27485177524E+03  0.57292609471E+03  0.64459720397E+03  0.10566000000E+00 0. -1.
<mgrwt>
<rscale>  1 0.75931644E+03</rscale>
<asrwt>0</asrwt>
<pdfrwt beam="2">  1       21 0.67472412E-01 0.10401441E+04</pdfrwt>
<pdfrwt beam="1">  1        4 0.19697796E+00 0.10401441E+04</pdfrwt>
<totfact> 0.10609168E+01</totfact>
</mgrwt>
</event>
<event>
 6    1  0.1353269E-005  0.1170813E+04  0.7818608E-02  0.9311969E-01
         21   -1    0    0  501  502  0.00000000000E+00  0.00000000000E+00  0.80886041624E+03  0.80886041624E+03  0.00000000000E+00 0. -1.
          4   -1    0    0  502    0 -0.00000000000E+00 -0.00000000000E+00 -0.99211521223E+03  0.99211521223E+03  0.00000000000E+00 0.  1.
    9000010    2    1    2  501    0 -0.56924655407E+03  0.23367158648E+03 -0.18682324893E+03  0.11856246760E+04  0.99607173257E+03 0.  0.
        -13    1    3    3    0    0  0.11866150188E+03  0.41726616872E+03  0.46707089682E+02  0.43631774085E+03  0.10566000000E+00 0.  1.
          4    1    3    3  501    0 -0.68790805595E+03 -0.18359458224E+03 -0.23353033861E+03  0.74930693518E+03  0.00000000000E+00 0.  1.
         13    1    1    2    0    0  0.56924655407E+03 -0.23367158648E+03  0.35684529288E+01  0.61535095244E+03  0.10566000000E+00 0. -1.
<mgrwt>
<rscale>  1 0.99688390E+03</rscale>
<asrwt>0</asrwt>
<pdfrwt beam="1">  1       21 0.12444006E+00 0.11708129E+04</pdfrwt>
<pdfrwt beam="2">  1        4 0.15263311E+00 0.11708129E+04</pdfrwt>
<totfact> 0.48716482E+00</totfact>
</mgrwt>
</event>
<event>
 6    1  0.1353269E-005  0.1006102E+04  0.7818608E-02  0.1009520E+00
         21   -1    0    0  501  502  0.00000000000E+00  0.00000000000E+00  0.46484670271E+03  0.46484670271E+03  0.00000000000E+00 0.  1.
          4   -1    0    0  502    0 -0.00000000000E+00 -0.00000000000E+00 -0.66239011895E+03  0.66239011895E+03  0.00000000000E+00 0.  1.
    9000010    2    1    2  501    0 -0.69552183544E+02 -0.76036250196E+01 -0.10549727378E+03  0.10116175116E+04  0.10036657779E+04 0.  0.
        -13    1    3    3    0    0  0.27669622514E+03  0.18947533679E+03  0.29504793329E+03  0.44667101804E+03  0.10566000000E+00 0.  1.
          4    1    3    3  501    0 -0.34624840868E+03 -0.19707896181E+03 -0.40054520707E+03  0.56494649358E+03  0.00000000000E+00 0.  1.
         13    1    1    2    0    0  0.69552183544E+02  0.76036250196E+01 -0.92046142463E+02  0.11561931005E+03  0.10566000000E+00 0. -1.
<mgrwt>
<rscale>  1 0.51665916E+03</rscale>
<asrwt>0</asrwt>
<pdfrwt beam="1">  1       21 0.71514877E-01 0.10061015E+04</pdfrwt>
<pdfrwt beam="2">  1        4 0.10190617E+00 0.10061015E+04</pdfrwt>
<totfact> 0.53983855E+01</totfact>
</mgrwt>
</event>
<event>
 6    1  0.1353269E-005  0.9908990E+03  0.7818608E-02  0.1004020E+00
          4   -1    0    0  502    0 -0.00000000000E+00  0.00000000000E+00  0.48754639487E+03  0.48754639487E+03  0.00000000000E+00 0.  1.
         21   -1    0    0  501  502  0.00000000000E+00 -0.00000000000E+00 -0.67080351417E+03  0.67080351417E+03  0.00000000000E+00 0.  1.
    9000010    2    1    2  501    0 -0.61440123322E+02  0.61444832347E+02 -0.27863146619E+03  0.10293280761E+04  0.98708177880E+03 0.  0.
        -13    1    3    3    0    0  0.41114386060E+03  0.14914228437E+02 -0.36103218184E+03  0.54736272782E+03  0.10566000000E+00 0.  1.
          4    1    3    3  501    0 -0.47258398393E+03  0.46530603910E+02  0.82400715652E+02  0.48196534824E+03  0.00000000000E+00 0.  1.
         13    1    1    2    0    0  0.61440123322E+02 -0.61444832347E+02  0.95374346887E+02  0.12902183297E+03  0.10566000000E+00 0. -1.
<mgrwt>
<rscale>  1 0.53922255E+03</rscale>
<asrwt>0</asrwt>
<pdfrwt beam="2">  1       21 0.10320054E+00 0.99089898E+03</pdfrwt>
<pdfrwt beam="1">  1        4 0.75007138E-01 0.99089898E+03</pdfrwt>
<totfact> 0.46051842E+01</totfact>
</mgrwt>
</event>
<event>
 6    1  0.1353269E-005  0.1052714E+04  0.7818608E-02  0.9605096E-01
         21   -1    0    0  501  502  0.00000000000E+00  0.00000000000E+00  0.49551461985E+03  0.49551461985E+03  0.00000000000E+00 0.  1.
          4   -1    0    0  502    0 -0.00000000000E+00 -0.00000000000E+00 -0.93465180017E+03  0.93465180017E+03  0.00000000000E+00 0.  1.
    9000010    2    1    2  501    0  0.22710657080E+03  0.19707676930E+03 -0.27701199290E+03  0.10885507953E+04  0.10088560563E+04 0.  0.
        -13    1    3    3    0    0 -0.66062147544E+02  0.53027295866E+03 -0.34998316608E+03  0.63878153208E+03  0.10566000000E+00 0.  1.
          4    1    3    3  501    0  0.29316871834E+03 -0.33319618936E+03  0.72971173176E+02  0.44976926321E+03  0.00000000000E+00 0.  1.
         13    1    1    2    0    0 -0.22710657080E+03 -0.19707676930E+03 -0.16212518741E+03  0.34161562472E+03  0.10566000000E+00 0. -1.
<mgrwt>
<rscale>  1 0.76959798E+03</rscale>
<asrwt>0</asrwt>
<pdfrwt beam="1">  1       21 0.76233019E-01 0.10527142E+04</pdfrwt>
<pdfrwt beam="2">  1        4 0.14379258E+00 0.10527142E+04</pdfrwt>
<totfact> 0.19424207E+01</totfact>
</mgrwt>
</event>
<event>
 6    1  0.1353269E-005  0.9890959E+03  0.7818608E-02  0.1061661E+00
          4   -1    0    0  502    0 -0.00000000000E+00  0.00000000000E+00  0.32418583752E+03  0.32418583752E+03  0.00000000000E+00 0.  1.
         21   -1    0    0  501  502  0.00000000000E+00 -0.00000000000E+00 -0.98774791416E+03  0.98774791416E+03  0.00000000000E+00 0.  1.
    9000010    2    1    2  501    0 -0.52794528212E+01 -0.15025061672E+02 -0.73909781911E+03  0.12347373486E+04  0.98896769847E+03 0.  0.
        -13    1    3    3    0    0 -0.28569128664E+03 -0.20404853993E+03 -0.81565929552E+03  0.88800642760E+03  0.10566000000E+00 0.  1.
          4    1    3    3  501    0  0.28041183382E+03  0.18902347826E+03  0.76561476417E+02  0.34673092096E+03  0.00000000000E+00 0.  1.
         13    1    1    2    0    0  0.52794528212E+01  0.15025061672E+02  0.75535742469E+02  0.77196403120E+02  0.10566000000E+00 0. -1.
<mgrwt>
<rscale>  1 0.35233454E+03</rscale>
<asrwt>0</asrwt>
<pdfrwt beam="2">  1       21 0.15196122E+00 0.98909592E+03</pdfrwt>
<pdfrwt beam="1">  1        4 0.49874744E-01 0.98909592E+03</pdfrwt>
<totfact> 0.40570390E+01</totfact>
</mgrwt>
</event>
<event>
 6    1  0.1353269E-005  0.1010729E+04  0.7818608E-02  0.9828160E-01
         21   -1    0    0  501  502  0.00000000000E+00  0.00000000000E+00  0.19449493696E+04  0.19449493696E+04  0.00000000000E+00 0.  1.
          4   -1    0    0  502    0 -0.00000000000E+00 -0.00000000000E+00 -0.57170406828E+03  0.57170406828E+03  0.00000000000E+00 0.  1.
    9000010    2    1    2  501    0  0.66133184946E+02  0.14700918608E+03  0.17978475652E+04  0.20624812319E+04  0.99779139372E+03 0.  0.
        -13    1    3    3    0    0  0.23201814873E+03 -0.29418195571E+03  0.13886101199E+04  0.14382675414E+04  0.10566000000E+00 0.  1.
          4    1    3    3  501    0 -0.16588496379E+03  0.44119114179E+03  0.40923744534E+03  0.62421369055E+03  0.00000000000E+00 0.  1.
         13    1    1    2    0    0 -0.66133184946E+02 -0.14700918608E+03 -0.42460226392E+03  0.45417220592E+03  0.10566000000E+00 0. -1.
<mgrwt>
<rscale>  1 0.63872955E+03</rscale>
<asrwt>0</asrwt>
<pdfrwt beam="1">  1       21 0.29922298E+00 0.10107289E+04</pdfrwt>
<pdfrwt beam="2">  1        4 0.87954473E-01 0.10107289E+04</pdfrwt>
<totfact> 0.11713810E+00</totfact>
</mgrwt>
</event>
<event>
 6    1  0.1353269E-005  0.1110601E+04  0.7818608E-02  0.9416753E-01
         21   -1    0    0  501  502  0.00000000000E+00  0.00000000000E+00  0.10378615246E+04  0.10378615246E+04  0.00000000000E+00 0.  1.
          4   -1    0    0  502    0 -0.00000000000E+00 -0.00000000000E+00 -0.63560696537E+03  0.63560696537E+03  0.00000000000E+00 0.  1.
    9000010    2    1    2  501    0  0.40911161408E+03  0.27731458992E+03  0.39630032902E+03  0.11791900678E+04  0.99456501580E+03 0.  0.
        -13    1    3    3    0    0  0.26969114831E+03  0.38348770351E+03 -0.23471168516E+03  0.52429545157E+03  0.10566000000E+00 0.  1.
          4    1    3    3  501    0  0.13942046577E+03 -0.10617311359E+03  0.63101201418E+03  0.65489461623E+03  0.00000000000E+00 0.  1.
         13    1    1    2    0    0 -0.40911161408E+03 -0.27731458992E+03  0.59542301679E+01  0.49427842213E+03  0.10566000000E+00 0. -1.
<mgrwt>
<rscale>  1 0.90709687E+03</rscale>
<asrwt>0</asrwt>
<pdfrwt beam="1">  1       21 0.15967100E+00 0.11106013E+04</pdfrwt>
<pdfrwt beam="2">  1        4 0.97785687E-01 0.11106013E+04</pdfrwt>
<totfact> 0.76789677E+00</totfact>
</mgrwt>
</event>
<event>
 6    1  0.1353269E-005  0.1049998E+04  0.7818608E-02  0.9625364E-01
         21   -1    0    0  501  502  0.00000000000E+00  0.00000000000E+00  0.36392630498E+03  0.36392630498E+03  0.00000000000E+00 0.  1.
          4   -1    0    0  502    0 -0.00000000000E+00 -0.00000000000E+00 -0.13572978018E+04  0.13572978018E+04  0.00000000000E+00 0.  1.
    9000010    2    1    2  501    0  0.79434620941E+02  0.27138682012E+03 -0.98289722344E+03  0.14382569944E+04  0.10112050064E+04 0.  0.
        -13    1    3    3    0    0  0.47532428349E+03  0.32019562481E+03 -0.83515502375E+03  0.10128881170E+04  0.10566000000E+00 0.  1.
          4    1    3    3  501    0 -0.39588966255E+03 -0.48808804686E+02 -0.14774219969E+03  0.42536887744E+03  0.00000000000E+00 0.  1.
         13    1    1    2    0    0 -0.79434620941E+02 -0.27138682012E+03 -0.10474273411E+02  0.28296711241E+03  0.10566000000E+00 0. -1.
<mgrwt>
<rscale>  1 0.75639914E+03</rscale>
<asrwt>0</asrwt>
<pdfrwt beam="1">  1       21 0.55988662E-01 0.10499982E+04</pdfrwt>
<pdfrwt beam="2">  1        4 0.20881505E+00 0.10499982E+04</pdfrwt>
<totfact> 0.13452627E+01</totfact>
</mgrwt>
</event>
<event>
 6    1  0.1353269E-005  0.9955904E+03  0.7818608E-02  0.9905757E-01
          4   -1    0    0  502    0 -0.00000000000E+00  0.00000000000E+00  0.28797021289E+03  0.28797021289E+03  0.00000000000E+00 0.  1.
         21   -1    0    0  501  502  0.00000000000E+00 -0.00000000000E+00 -0.11742170913E+04  0.11742170913E+04  0.00000000000E+00 0.  1.
    9000010    2    1    2  501    0 -0.11522830012E+03  0.62698506642E+02 -0.88334005602E+03  0.13309732628E+04  0.98691008091E+03 0.  0.
        -13    1    3    3    0    0 -0.55375203397E+03  0.27437472054E+02 -0.45968414199E+03  0.72021083827E+03  0.10566000000E+00 0.  1.
          4    1    3    3  501    0  0.43852373385E+03  0.35261034588E+02 -0.42365591403E+03  0.61076242452E+03  0.00000000000E+00 0.  1.
         13    1    1    2    0    0  0.11522830012E+03 -0.62698506642E+02 -0.29068223906E+01  0.13121404141E+03  0.10566000000E+00 0. -1.
<mgrwt>
<rscale>  1 0.59983105E+03</rscale>
<asrwt>0</asrwt>
<pdfrwt beam="2">  1       21 0.18064878E+00 0.99559036E+03</pdfrwt>
<pdfrwt beam="1">  1        4 0.44303110E-01 0.99559036E+03</pdfrwt>
<totfact> 0.31446708E+01</totfact>
</mgrwt>
</event>
<event>
 6    1  0.1353269E-005  0.1008939E+04  0.7818608E-02  0.9931124E-01
         21   -1    0    0  501  502  0.00000000000E+00  0.00000000000E+00  0.88223397825E+03  0.88223397825E+03  0.00000000000E+00 0.  1.
          4   -1    0    0  502    0 -0.00000000000E+00 -0.00000000000E+00 -0.45712978013E+03  0.45712978013E+03  0.00000000000E+00 0.  1.
    9000010    2    1    2  501    0 -0.67356811489E+02  0.94689076968E+02  0.56590156928E+03  0.11568072678E+04  0.10022252778E+04 0.  0.
        -13    1    3    3    0    0 -0.16238885423E+03  0.41098726435E+03  0.67690865473E+03  0.80838481519E+03  0.10566000000E+00 0.  1.
          4    1    3    3  501    0  0.95032042737E+02 -0.31629818738E+03 -0.11100708545E+03  0.34842245264E+03  0.00000000000E+00 0.  1.
         13    1    1    2    0    0  0.67356811489E+02 -0.94689076968E+02 -0.14079737116E+03  0.18255649055E+03  0.10566000000E+00 0. -1.
<mgrwt>
<rscale>  1 0.58776327E+03</rscale>
<asrwt>0</asrwt>
<pdfrwt beam="1">  1       21 0.13572830E+00 0.10089393E+04</pdfrwt>
<pdfrwt beam="2">  1        4 0.70327658E-01 0.10089393E+04</pdfrwt>
<totfact> 0.26165362E+01</totfact>
</mgrwt>
</event>
<event>
 6    1  0.1353269E-005  0.1041456E+04  0.7818608E-02  0.9558186E-01
          4   -1    0    0  502    0 -0.00000000000E+00  0.00000000000E+00  0.18433427673E+04  0.18433427673E+04  0.00000000000E+00 0.  1.
         21   -1    0    0  501  502  0.00000000000E+00 -0.00000000000E+00 -0.28289691883E+03  0.28289691883E+03  0.00000000000E+00 0.  1.
    9000010    2    1    2  501    0  0.54357866510E+02  0.36083808046E+03  0.92235403336E+03  0.13911750130E+04  0.97543429100E+03 0.  0.
        -13    1    3    3    0    0  0.31358424776E+03 -0.16575472309E+03  0.65786950425E+03  0.74739681860E+03  0.10566000000E+00 0.  1.
          4    1    3    3  501    0 -0.25922638125E+03  0.52659280355E+03  0.26448452911E+03  0.64377819443E+03  0.00000000000E+00 0.  1.
         13    1    1    2    0    0 -0.54357866510E+02 -0.36083808046E+03  0.63809181513E+03  0.73506467312E+03  0.10566000000E+00 0. -1.
<mgrwt>
<rscale>  1 0.80126658E+03</rscale>
<asrwt>0</asrwt>
<pdfrwt beam="2">  1       21 0.43522604E-01 0.10414562E+04</pdfrwt>
<pdfrwt beam="1">  1        4 0.28359119E+00 0.10414562E+04</pdfrwt>
<totfact> 0.79060173E+00</totfact>
</mgrwt>
</event>
<event>
 6    1  0.1353269E-005  0.9968137E+03  0.7818608E-02  0.9734901E-01
          4   -1    0    0  502    0 -0.00000000000E+00  0.00000000000E+00  0.53353077093E+03  0.53353077093E+03  0.00000000000E+00 0.  1.
         21   -1    0    0  501  502  0.00000000000E+00 -0.00000000000E+00 -0.77578911937E+03  0.77578911937E+03  0.00000000000E+00 0.  1.
    9000010    2    1    2  501    0  0.21417213101E+03  0.79747332121E+02 -0.29765339069E+02  0.99725799118E+03  0.97026191664E+03 0.  0.
        -13    1    3    3    0    0 -0.39286914566E+02 -0.18883312986E+03  0.39186960368E+03  0.43676447892E+03  0.10566000000E+00 0.  1.
          4    1    3    3  501    0  0.25345904558E+03  0.26858046198E+03 -0.42163494275E+03  0.56049351227E+03  0.00000000000E+00 0.  1.
         13    1    1    2    0    0 -0.21417213101E+03 -0.79747332121E+02 -0.21249300937E+03  0.31206189912E+03  0.10566000000E+00 0. -1.
<mgrwt>
<rscale>  1 0.68976297E+03</rscale>
<asrwt>0</asrwt>
<pdfrwt beam="2">  1       21 0.11935217E+00 0.99681369E+03</pdfrwt>
<pdfrwt beam="1">  1        4 0.82081658E-01 0.99681369E+03</pdfrwt>
<totfact> 0.25887452E+01</totfact>
</mgrwt>
</event>
<event>
 6    1  0.1353269E-005  0.9888997E+03  0.7818608E-02  0.9777166E-01
         21   -1    0    0  501  502  0.00000000000E+00  0.00000000000E+00  0.32275444839E+03  0.32275444839E+03  0.00000000000E+00 0.  1.
          4   -1    0    0  502    0 -0.00000000000E+00 -0.00000000000E+00 -0.12524193509E+04  0.12524193509E+04  0.00000000000E+00 0.  1.
    9000010    2    1    2  501    0 -0.20312099214E+03  0.11949276251E+02 -0.51889139957E+03  0.11167680789E+04  0.96774053070E+03 0.  0.
        -13    1    3    3    0    0  0.49663402266E+02 -0.35390210356E+03 -0.56622325744E+03  0.66956847361E+03  0.10566000000E+00 0.  1.
          4    1    3    3  501    0 -0.25278439441E+03  0.36585137981E+03  0.47331857862E+02  0.44719960525E+03  0.00000000000E+00 0.  1.
         13    1    1    2    0    0  0.20312099214E+03 -0.11949276251E+02 -0.41077350295E+03  0.45840572045E+03  0.10566000000E+00 0. -1.
<mgrwt>
<rscale>  1 0.66602489E+03</rscale>
<asrwt>0</asrwt>
<pdfrwt beam="1">  1       21 0.49654532E-01 0.98889972E+03</pdfrwt>
<pdfrwt beam="2">  1        4 0.19267989E+00 0.98889972E+03</pdfrwt>
<totfact> 0.22491370E+01</totfact>
</mgrwt>
</event>
<event>
 6    1  0.1353269E-005  0.1072079E+04  0.7818608E-02  0.9506104E-01
          4   -1    0    0  502    0 -0.00000000000E+00  0.00000000000E+00  0.40548590762E+03  0.40548590762E+03  0.00000000000E+00 0.  1.
         21   -1    0    0  501  502  0.00000000000E+00 -0.00000000000E+00 -0.14898724989E+04  0.14898724989E+04  0.00000000000E+00 0.  1.
    9000010    2    1    2  501    0  0.22773386978E+03 -0.32992709072E+03 -0.10372166274E+04  0.14917006093E+04  0.99430265764E+03 0.  0.
        -13    1    3    3    0    0  0.45107450915E+03 -0.34617050935E+03 -0.16624317495E+03  0.59240107928E+03  0.10566000000E+00 0.  1.
          4    1    3    3  501    0 -0.22334063937E+03  0.16243418631E+02 -0.87097345241E+03  0.89929953000E+03  0.00000000000E+00 0.  1.
         13    1    1    2    0    0 -0.22773386978E+03  0.32992709072E+03 -0.47169963949E+02  0.40365779728E+03  0.10566000000E+00 0. -1.
<mgrwt>
<rscale>  1 0.83835290E+03</rscale>
<asrwt>0</asrwt>
<pdfrwt beam="2">  1       21 0.22921115E+00 0.10720785E+04</pdfrwt>
<pdfrwt beam="1">  1        4 0.62382448E-01 0.10720785E+04</pdfrwt>
<totfact> 0.69952488E+00</totfact>
</mgrwt>
</event>
<event>
 6    1  0.1353269E-005  0.1123855E+04  0.7818608E-02  0.9424235E-01
         21   -1    0    0  501  502  0.00000000000E+00  0.00000000000E+00  0.21256847923E+04  0.21256847923E+04  0.00000000000E+00 0.  1.
          4   -1    0    0  502    0 -0.00000000000E+00 -0.00000000000E+00 -0.30764458209E+03  0.30764458209E+03  0.00000000000E+00 0.  1.
    9000010    2    1    2  501    0  0.32118871946E+03  0.33545612942E+03  0.14826623744E+04  0.18604669893E+04  0.10234044624E+04 0.  0.
        -13    1    3    3    0    0  0.51169517019E+03  0.27233243553E+03  0.15451282928E+04  0.16502782659E+04  0.10566000000E+00 0.  1.
          4    1    3    3  501    0 -0.19050645072E+03  0.63123693894E+02 -0.62465918397E+02  0.21018872343E+03  0.00000000000E+00 0.  1.
         13    1    1    2    0    0 -0.32118871946E+03 -0.33545612942E+03  0.33537783582E+03  0.57286238504E+03  0.10566000000E+00 0. -1.
<mgrwt>
<rscale>  1 0.90107756E+03</rscale>
<asrwt>0</asrwt>
<pdfrwt beam="1">  1       21 0.32702842E+00 0.11238548E+04</pdfrwt>
<pdfrwt beam="2">  1        4 0.47329937E-01 0.11238548E+04</pdfrwt>
<totfact> 0.30297710E+00</totfact>
</mgrwt>
</event>
<event>
 6    1  0.1353269E-005  0.1152666E+04  0.7818608E-02  0.9344525E-01
         21   -1    0    0  501  502  0.00000000000E+00  0.00000000000E+00  0.22672715385E+04  0.22672715385E+04  0.00000000000E+00 0.  1.
          4   -1    0    0  502    0 -0.00000000000E+00 -0.00000000000E+00 -0.53752612627E+03  0.53752612627E+03  0.00000000000E+00 0.  1.
    9000010    2    1    2  501    0 -0.28520431848E+03  0.49693233421E+03  0.18865066225E+04  0.22107797053E+04  0.10001781944E+04 0.  0.
        -13    1    3    3    0    0  0.23396206001E+03 -0.18304768086E+03  0.47415215726E+03  0.55952209822E+03  0.10566000000E+00 0.  1.
          4    1    3    3  501    0 -0.51916637849E+03  0.67998001507E+03  0.14123544652E+04  0.16512576070E+04  0.00000000000E+00 0.  1.
         13    1    1    2    0    0  0.28520431848E+03 -0.49693233421E+03 -0.15676121020E+03  0.59401795954E+03  0.10566000000E+00 0. -1.
<mgrwt>
<rscale>  1 0.96785166E+03</rscale>
<asrwt>0</asrwt>
<pdfrwt beam="1">  1       21 0.34881100E+00 0.11526663E+04</pdfrwt>
<pdfrwt beam="2">  1        4 0.82696328E-01 0.11526663E+04</pdfrwt>
<totfact> 0.64322519E-01</totfact>
</mgrwt>
</event>
<event>
 6    1  0.1353269E-005  0.1205466E+04  0.7818608E-02  0.9264437E-01
         21   -1    0    0  501  502  0.00000000000E+00  0.00000000000E+00  0.13013540608E+04  0.13013540608E+04  0.00000000000E+00 0.  1.
          4   -1    0    0  502    0 -0.00000000000E+00 -0.00000000000E+00 -0.11005526493E+04  0.11005526493E+04  0.00000000000E+00 0.  1.
    9000010    2    1    2  501    0  0.22340973618E+03  0.63273718267E+03  0.84466923075E+03  0.14719421772E+04  0.10014386707E+04 0.  0.
        -13    1    3    3    0    0  0.54468085333E+02  0.75083456401E+02  0.88313334885E+03  0.88799145309E+03  0.10566000000E+00 0.  1.
          4    1    3    3  501    0  0.16894165085E+03  0.55765372627E+03 -0.38464118106E+02  0.58395072412E+03  0.00000000000E+00 0.  1.
         13    1    1    2    0    0 -0.22340973618E+03 -0.63273718267E+03 -0.64386781923E+03  0.92996453286E+03  0.10566000000E+00 0. -1.
<mgrwt>
<rscale>  1 0.10412382E+04</rscale>
<asrwt>0</asrwt>
<pdfrwt beam="1">  1       21 0.20020832E+00 0.12054657E+04</pdfrwt>
<pdfrwt beam="2">  1        4 0.16931579E+00 0.12054657E+04</pdfrwt>
<totfact> 0.92723588E-01</totfact>
</mgrwt>
</event>
<event>
 6    1  0.1353269E-005  0.1073674E+04  0.7818608E-02  0.9513892E-01
         21   -1    0    0  501  502  0.00000000000E+00  0.00000000000E+00  0.86895190972E+03  0.86895190972E+03  0.00000000000E+00 0. -1.
          4   -1    0    0  502    0 -0.00000000000E+00 -0.00000000000E+00 -0.64988715463E+03  0.64988715463E+03  0.00000000000E+00 0.  1.
    9000010    2    1    2  501    0 -0.29209239209E+03  0.25600389103E+03  0.31468523329E+03  0.11188400084E+04  0.10009596449E+04 0.  0.
        -13    1    3    3    0    0  0.29339550861E+03 -0.13548977977E+03 -0.47852491573E+02  0.32669293994E+03  0.10566000000E+00 0.  1.
          4    1    3    3  501    0 -0.58548790069E+03  0.39149367080E+03  0.36253772486E+03  0.79214706847E+03  0.00000000000E+00 0.  1.
         13    1    1    2    0    0  0.29209239209E+03 -0.25600389103E+03 -0.95620478202E+02  0.39999905594E+03  0.10566000000E+00 0. -1.
<mgrwt>
<rscale>  1 0.83267339E+03</rscale>
<asrwt>0</asrwt>
<pdfrwt beam="1">  1       21 0.13368491E+00 0.10736741E+04</pdfrwt>
<pdfrwt beam="2">  1        4 0.99982639E-01 0.10736741E+04</pdfrwt>
<totfact> 0.11957667E+01</totfact>
</mgrwt>
</event>
<event>
 6    1  0.1353269E-005  0.1013363E+04  0.7818608E-02  0.9751465E-01
         21   -1    0    0  501  502  0.00000000000E+00  0.00000000000E+00  0.38142537726E+03  0.38142537726E+03  0.00000000000E+00 0.  1.
          4   -1    0    0  502    0 -0.00000000000E+00 -0.00000000000E+00 -0.97625301707E+03  0.97625301707E+03  0.00000000000E+00 0.  1.
    9000010    2    1    2  501    0  0.19865548054E+03 -0.54029247922E+02 -0.51660318189E+03  0.11374461611E+04  0.99223070011E+03 0.  0.
        -13    1    3    3    0    0  0.18643532352E+03  0.45248947837E+03 -0.14933555283E+03  0.51166979234E+03  0.10566000000E+00 0.  1.
          4    1    3    3  501    0  0.12220157019E+02 -0.50651872629E+03 -0.36726762906E+03  0.62577636874E+03  0.00000000000E+00 0.  1.
         13    1    1    2    0    0 -0.19865548054E+03  0.54029247922E+02 -0.78224457925E+02  0.22023223325E+03  0.10566000000E+00 0. -1.
<mgrwt>
<rscale>  1 0.68033541E+03</rscale>
<asrwt>0</asrwt>
<pdfrwt beam="1">  1       21 0.58680827E-01 0.10133632E+04</pdfrwt>
<pdfrwt beam="2">  1        4 0.15019277E+00 0.10133632E+04</pdfrwt>
<totfact> 0.31471948E+01</totfact>
</mgrwt>
</event>
<event>
 6    1  0.1353269E-005  0.1026756E+04  0.7818608E-02  0.9665272E-01
         21   -1    0    0  501  502  0.00000000000E+00  0.00000000000E+00  0.25756336005E+03  0.25756336005E+03  0.00000000000E+00 0.  1.
          4   -1    0    0  502    0 -0.00000000000E+00 -0.00000000000E+00 -0.18588374915E+04  0.18588374915E+04  0.00000000000E+00 0.  1.
    9000010    2    1    2  501    0 -0.25689293062E+03 -0.61377038250E+02 -0.89400227414E+03  0.13614209777E+04  0.99220254672E+03 0.  0.
        -13    1    3    3    0    0  0.86325987620E+02  0.35822443232E+03 -0.69964536249E+02  0.37506261817E+03  0.10566000000E+00 0.  1.
          4    1    3    3  501    0 -0.34321891824E+03 -0.41960147057E+03 -0.82403773789E+03  0.98635835953E+03  0.00000000000E+00 0.  1.
         13    1    1    2    0    0  0.25689293062E+03  0.61377038250E+02 -0.70727185736E+03  0.75497987391E+03  0.10566000000E+00 0. -1.
<mgrwt>
<rscale>  1 0.73122662E+03</rscale>
<asrwt>0</asrwt>
<pdfrwt beam="1">  1       21 0.39625132E-01 0.10267556E+04</pdfrwt>
<pdfrwt beam="2">  1        4 0.28597500E+00 0.10267556E+04</pdfrwt>
<totfact> 0.93302328E+00</totfact>
</mgrwt>
</event>
<event>
 6    1  0.1353269E-005  0.1019618E+04  0.7818608E-02  0.9693310E-01
          4   -1    0    0  502    0 -0.00000000000E+00  0.00000000000E+00  0.23128598377E+04  0.23128598377E+04  0.00000000000E+00 0.  1.
         21   -1    0    0  501  502  0.00000000000E+00 -0.00000000000E+00 -0.24998787607E+03  0.24998787607E+03  0.00000000000E+00 0.  1.
    9000010    2    1    2  501    0 -0.23586204726E+03 -0.67767061598E+02  0.85606131659E+03  0.13313383861E+04  0.98964520945E+03 0.  0.
        -13    1    3    3    0    0 -0.54854364471E+03  0.16177464215E+03  0.72172025879E+03  0.92084271627E+03  0.10566000000E+00 0.  1.
          4    1    3    3  501    0  0.31268159745E+03 -0.22954170375E+03  0.13434105780E+03  0.41049566983E+03  0.00000000000E+00 0.  1.
         13    1    1    2    0    0  0.23586204726E+03  0.67767061598E+02  0.12068106451E+04  0.12315093277E+04  0.10566000000E+00 0. -1.
<mgrwt>
<rscale>  1 0.71416521E+03</rscale>
<asrwt>0</asrwt>
<pdfrwt beam="2">  1       21 0.38459675E-01 0.10196180E+04</pdfrwt>
<pdfrwt beam="1">  1        4 0.35582458E+00 0.10196180E+04</pdfrwt>
<totfact> 0.36057536E+00</totfact>
</mgrwt>
</event>
<event>
 6    1  0.1353269E-005  0.1042023E+04  0.7818608E-02  0.9684977E-01
          4   -1    0    0  502    0 -0.00000000000E+00  0.00000000000E+00  0.15666119310E+04  0.15666119310E+04  0.00000000000E+00 0.  1.
         21   -1    0    0  501  502  0.00000000000E+00 -0.00000000000E+00 -0.28061327238E+03  0.28061327238E+03  0.00000000000E+00 0.  1.
    9000010    2    1    2  501    0  0.22946317732E+03  0.57025395617E+02  0.82479884146E+03  0.13289487057E+04  0.10148429869E+04 0.  0.
        -13    1    3    3    0    0 -0.17061019213E+03  0.35949719749E+03  0.71080735464E+03  0.81461228768E+03  0.10566000000E+00 0.  1.
          4    1    3    3  501    0  0.40007336946E+03 -0.30247180187E+03  0.11399148682E+03  0.51433641806E+03  0.00000000000E+00 0.  1.
         13    1    1    2    0    0 -0.22946317732E+03 -0.57025395617E+02  0.46119981713E+03  0.51827649761E+03  0.10566000000E+00 0. -1.
<mgrwt>
<rscale>  1 0.71918314E+03</rscale>
<asrwt>0</asrwt>
<pdfrwt beam="2">  1       21 0.43171274E-01 0.10420228E+04</pdfrwt>
<pdfrwt beam="1">  1        4 0.24101721E+00 0.10420228E+04</pdfrwt>
<totfact> 0.14736149E+01</totfact>
</mgrwt>
</event>
<event>
 6    1  0.1353269E-005  0.1063975E+04  0.7818608E-02  0.9626805E-01
         21   -1    0    0  501  502  0.00000000000E+00  0.00000000000E+00  0.45998073601E+03  0.45998073601E+03  0.00000000000E+00 0.  1.
          4   -1    0    0  502    0 -0.00000000000E+00 -0.00000000000E+00 -0.98904408906E+03  0.98904408906E+03  0.00000000000E+00 0.  1.
    9000010    2    1    2  501    0  0.14531852377E+03  0.22808443663E+03 -0.33258878686E+03  0.11147461241E+04  0.10290304352E+04 0.  0.
        -13    1    3    3    0    0  0.41980529142E+02 -0.10235177993E+02 -0.67977178548E+03  0.68114375516E+03  0.10566000000E+00 0.  1.
          4    1    3    3  501    0  0.10333799462E+03  0.23831961462E+03  0.34718299862E+03  0.43360236897E+03  0.00000000000E+00 0.  1.
         13    1    1    2    0    0 -0.14531852377E+03 -0.22808443663E+03 -0.19647456619E+03  0.33427870094E+03  0.10566000000E+00 0. -1.
<mgrwt>
<rscale>  1 0.75547144E+03</rscale>
<asrwt>0</asrwt>
<pdfrwt beam="1">  1       21 0.70766267E-01 0.10639754E+04</pdfrwt>
<pdfrwt beam="2">  1        4 0.15216063E+00 0.10639754E+04</pdfrwt>
<totfact> 0.19813358E+01</totfact>
</mgrwt>
</event>
<event>
 6    1  0.1353269E-005  0.1106915E+04  0.7818608E-02  0.9433076E-01
          4   -1    0    0  502    0 -0.00000000000E+00  0.00000000000E+00  0.13017505451E+04  0.13017505451E+04  0.00000000000E+00 0.  1.
         21   -1    0    0  501  502  0.00000000000E+00 -0.00000000000E+00 -0.47826865369E+03  0.47826865369E+03  0.00000000000E+00 0.  1.
    9000010    2    1    2  501    0  0.47004918179E+03 -0.30649196291E+02  0.58771547311E+03  0.12532636372E+04  0.10016859091E+04 0.  0.
        -13    1    3    3    0    0  0.65591573130E+03  0.25907500717E+02  0.23842980833E+02  0.65686006429E+03  0.10566000000E+00 0.  1.
          4    1    3    3  501    0 -0.18586654951E+03 -0.56556697008E+02  0.56387249228E+03  0.59640357289E+03  0.00000000000E+00 0.  1.
         13    1    1    2    0    0 -0.47004918179E+03  0.30649196291E+02  0.23576641829E+03  0.52675556161E+03  0.10566000000E+00 0. -1.
<mgrwt>
<rscale>  1 0.89402946E+03</rscale>
<asrwt>0</asrwt>
<pdfrwt beam="2">  1       21 0.73579793E-01 0.11069148E+04</pdfrwt>
<pdfrwt beam="1">  1        4 0.20026931E+00 0.11069148E+04</pdfrwt>
<totfact> 0.82063428E+00</totfact>
</mgrwt>
</event>
<event>
 6    1  0.1353269E-005  0.1184360E+04  0.7818608E-02  0.9622436E-01
          4   -1    0    0  502    0 -0.00000000000E+00  0.00000000000E+00  0.75019167701E+03  0.75019167701E+03  0.00000000000E+00 0.  1.
         21   -1    0    0  501  502  0.00000000000E+00 -0.00000000000E+00 -0.12822975143E+04  0.12822975143E+04  0.00000000000E+00 0.  1.
    9000010    2    1    2  501    0  0.14445712801E+02  0.19849067689E+03 -0.98330436702E+03  0.15393488951E+04  0.11675188714E+04 0.  0.
        -13    1    3    3    0    0  0.55422679052E+03  0.29892549150E+03 -0.45030511475E+03  0.77414371555E+03  0.10566000000E+00 0.  1.
          4    1    3    3  501    0 -0.53978107772E+03 -0.10043481461E+03 -0.53299925227E+03  0.76520517952E+03  0.00000000000E+00 0.  1.
         13    1    1    2    0    0 -0.14445712801E+02 -0.19849067689E+03  0.45119852970E+03  0.49314029626E+03  0.10566000000E+00 0. -1.
<mgrwt>
<rscale>  1 0.75828854E+03</rscale>
<asrwt>0</asrwt>
<pdfrwt beam="2">  1       21 0.19727654E+00 0.11843595E+04</pdfrwt>
<pdfrwt beam="1">  1        4 0.11541411E+00 0.11843595E+04</pdfrwt>
<totfact> 0.26854749E+00</totfact>
</mgrwt>
</event>
<event>
 6    1  0.1353269E-005  0.1025983E+04  0.7818608E-02  0.9947575E-01
          4   -1    0    0  502    0 -0.00000000000E+00  0.00000000000E+00  0.52951636823E+03  0.52951636823E+03  0.00000000000E+00 0.  1.
         21   -1    0    0  501  502  0.00000000000E+00 -0.00000000000E+00 -0.91018792013E+03  0.91018792013E+03  0.00000000000E+00 0.  1.
    9000010    2    1    2  501    0  0.10432573404E+03  0.10522783580E+02 -0.60570849127E+03  0.11914378528E+04  0.10206109901E+04 0.  0.
        -13    1    3    3    0    0  0.11866922076E+03  0.29295594610E+03 -0.79203580240E+03  0.85277564093E+03  0.10566000000E+00 0.  1.
          4    1    3    3  501    0 -0.14343486718E+02 -0.28243316252E+03  0.18632731113E+03  0.33866221191E+03  0.00000000000E+00 0.  1.
         13    1    1    2    0    0 -0.10432573404E+03 -0.10522783580E+02  0.22503693938E+03  0.24826643552E+03  0.10566000000E+00 0. -1.
<mgrwt>
<rscale>  1 0.58009963E+03</rscale>
<asrwt>0</asrwt>
<pdfrwt beam="2">  1       21 0.14002891E+00 0.10259831E+04</pdfrwt>
<pdfrwt beam="1">  1        4 0.81464058E-01 0.10259831E+04</pdfrwt>
<totfact> 0.17181367E+01</totfact>
</mgrwt>
</event>
<event>
 6    1  0.1353269E-005  0.1028491E+04  0.7818608E-02  0.9699578E-01
          4   -1    0    0  502    0 -0.00000000000E+00  0.00000000000E+00  0.32975798351E+03  0.32975798351E+03  0.00000000000E+00 0.  1.
         21   -1    0    0  501  502  0.00000000000E+00 -0.00000000000E+00 -0.13298252318E+04  0.13298252318E+04  0.00000000000E+00 0.  1.
    9000010    2    1    2  501    0 -0.19621269171E+03 -0.12774010767E+03 -0.98640059916E+03  0.14250544454E+04  0.10014874311E+04 0.  0.
        -13    1    3    3    0    0 -0.37441705150E+03 -0.52346683203E+02  0.40372401860E+02  0.38020816100E+03  0.10566000000E+00 0.  1.
          4    1    3    3  501    0  0.17820435979E+03 -0.75393424467E+02 -0.10267730010E+04  0.10448462844E+04  0.00000000000E+00 0.  1.
         13    1    1    2    0    0  0.19621269171E+03  0.12774010767E+03 -0.13666649172E+02  0.23452877000E+03  0.10566000000E+00 0. -1.
<mgrwt>
<rscale>  1 0.71041937E+03</rscale>
<asrwt>0</asrwt>
<pdfrwt beam="2">  1       21 0.20458850E+00 0.10284911E+04</pdfrwt>
<pdfrwt beam="1">  1        4 0.50731998E-01 0.10284911E+04</pdfrwt>
<totfact> 0.16024691E+01</totfact>
</mgrwt>
</event>
<event>
 6    1  0.1353269E-005  0.1032883E+04  0.7818608E-02  0.9669473E-01
          4   -1    0    0  502    0 -0.00000000000E+00  0.00000000000E+00  0.51258867093E+03  0.51258867093E+03  0.00000000000E+00 0.  1.
         21   -1    0    0  501  502  0.00000000000E+00 -0.00000000000E+00 -0.94337569397E+03  0.94337569397E+03  0.00000000000E+00 0.  1.
    9000010    2    1    2  501    0  0.12787310059E+03 -0.22153997637E+03 -0.99857249549E+02  0.10376988785E+04  0.10007077501E+04 0.  0.
        -13    1    3    3    0    0  0.55585299580E+03 -0.20934632548E+03  0.15871569867E+02  0.59418040596E+03  0.10566000000E+00 0.  1.
          4    1    3    3  501    0 -0.42797989521E+03 -0.12193650886E+02 -0.11572881942E+03  0.44351847252E+03  0.00000000000E+00 0.  1.
         13    1    1    2    0    0 -0.12787310059E+03  0.22153997637E+03 -0.33092977349E+03  0.41826548642E+03  0.10566000000E+00 0. -1.
<mgrwt>
<rscale>  1 0.72863796E+03</rscale>
<asrwt>0</asrwt>
<pdfrwt beam="2">  1       21 0.14513472E+00 0.10328831E+04</pdfrwt>
<pdfrwt beam="1">  1        4 0.78859796E-01 0.10328831E+04</pdfrwt>
<totfact> 0.16768149E+01</totfact>
</mgrwt>
</event>
<event>
 6    1  0.1353269E-005  0.1311335E+04  0.7818608E-02  0.9121263E-01
          4   -1    0    0  502    0 -0.00000000000E+00  0.00000000000E+00  0.63756941133E+03  0.63756941133E+03  0.00000000000E+00 0.  1.
         21   -1    0    0  501  502  0.00000000000E+00 -0.00000000000E+00 -0.20068420594E+04  0.20068420594E+04  0.00000000000E+00 0.  1.
    9000010    2    1    2  501    0  0.44030809490E+03  0.77416773378E+03 -0.11066155361E+04  0.17158665509E+04  0.96249320908E+03 0.  0.
        -13    1    3    3    0    0 -0.11419831980E+03 -0.14485252776E+03 -0.15177038472E+02  0.18507799628E+03  0.10566000000E+00 0.  1.
          4    1    3    3  501    0  0.55450641470E+03  0.91902026154E+03 -0.10914384976E+04  0.15307885547E+04  0.00000000000E+00 0.  1.
         13    1    1    2    0    0 -0.44030809490E+03 -0.77416773378E+03 -0.26265711204E+03  0.92854491982E+03  0.10566000000E+00 0. -1.
<mgrwt>
<rscale>  1 0.11904430E+04</rscale>
<asrwt>0</asrwt>
<pdfrwt beam="2">  1       21 0.30874493E+00 0.13113352E+04</pdfrwt>
<pdfrwt beam="1">  1        4 0.98087602E-01 0.13113352E+04</pdfrwt>
<totfact> 0.74756918E-01</totfact>
</mgrwt>
</event>
<event>
 6    1  0.1353269E-005  0.1030562E+04  0.7818608E-02  0.9680497E-01
         21   -1    0    0  501  502  0.00000000000E+00  0.00000000000E+00  0.41625308694E+03  0.41625308694E+03  0.00000000000E+00 0.  1.
          4   -1    0    0  502    0 -0.00000000000E+00 -0.00000000000E+00 -0.11066388902E+04  0.11066388902E+04  0.00000000000E+00 0.  1.
    9000010    2    1    2  501    0  0.24810048763E+03 -0.39980643182E+01 -0.32381868958E+03  0.10802394086E+04  0.10002443699E+04 0.  0.
        -13    1    3    3    0    0  0.22728865000E+03 -0.21223832120E+03 -0.63394287523E+03  0.70610821807E+03  0.10566000000E+00 0.  1.
          4    1    3    3  501    0  0.20811837626E+02  0.20824025688E+03  0.31012418565E+03  0.37413119049E+03  0.00000000000E+00 0.  1.
         13    1    1    2    0    0 -0.24810048763E+03  0.39980643182E+01 -0.36656711368E+03  0.44265256858E+03  0.10566000000E+00 0. -1.
<mgrwt>
<rscale>  1 0.72189942E+03</rscale>
<asrwt>0</asrwt>
<pdfrwt beam="1">  1       21 0.64038938E-01 0.10305623E+04</pdfrwt>
<pdfrwt beam="2">  1        4 0.17025213E+00 0.10305623E+04</pdfrwt>
<totfact> 0.18297508E+01</totfact>
</mgrwt>
</event>
<event>
 6    1  0.1353269E-005  0.1032797E+04  0.7818608E-02  0.9723463E-01
          4   -1    0    0  502    0 -0.00000000000E+00  0.00000000000E+00  0.58519203183E+03  0.58519203183E+03  0.00000000000E+00 0.  1.
         21   -1    0    0  501  502  0.00000000000E+00 -0.00000000000E+00 -0.66360603818E+03  0.66360603818E+03  0.00000000000E+00 0.  1.
    9000010    2    1    2  501    0  0.18692799569E+03 -0.10306316786E+03 -0.59680512144E+02  0.10345201031E+04  0.10104978911E+04 0.  0.
        -13    1    3    3    0    0 -0.40230075776E+03 -0.14543439725E+03  0.59404861136E+02  0.43188657340E+03  0.10566000000E+00 0.  1.
          4    1    3    3  501    0  0.58922875344E+03  0.42371229399E+02 -0.11908537328E+03  0.60263352968E+03  0.00000000000E+00 0.  1.
         13    1    1    2    0    0 -0.18692799569E+03  0.10306316786E+03 -0.18733494198E+02  0.21427796692E+03  0.10566000000E+00 0. -1.
<mgrwt>
<rscale>  1 0.69636863E+03</rscale>
<asrwt>0</asrwt>
<pdfrwt beam="2">  1       21 0.10209324E+00 0.10327972E+04</pdfrwt>
<pdfrwt beam="1">  1        4 0.90029544E-01 0.10327972E+04</pdfrwt>
<totfact> 0.30916460E+01</totfact>
</mgrwt>
</event>
<event>
 6    1  0.1353269E-005  0.9696771E+03  0.7818608E-02  0.1034203E+00
         21   -1    0    0  501  502  0.00000000000E+00  0.00000000000E+00  0.10878604940E+04  0.10878604940E+04  0.00000000000E+00 0.  1.
          4   -1    0    0  502    0 -0.00000000000E+00 -0.00000000000E+00 -0.28626853280E+03  0.28626853280E+03  0.00000000000E+00 0.  1.
    9000010    2    1    2  501    0 -0.26676813064E+02  0.25811864531E+02  0.86580521777E+03  0.12999585598E+04  0.96896629317E+03 0.  0.
        -13    1    3    3    0    0 -0.34746472882E+03  0.35022600999E+03  0.58067719446E+03  0.76195538660E+03  0.10566000000E+00 0.  1.
          4    1    3    3  501    0  0.32078791576E+03 -0.32441414545E+03  0.28512802332E+03  0.53800317318E+03  0.00000000000E+00 0.  1.
         13    1    1    2    0    0  0.26676813064E+02 -0.25811864531E+02 -0.64213256537E+02  0.74170467067E+02  0.10566000000E+00 0. -1.
<mgrwt>
<rscale>  1 0.42891692E+03</rscale>
<asrwt>0</asrwt>
<pdfrwt beam="1">  1       21 0.16736315E+00 0.96967705E+03</pdfrwt>
<pdfrwt beam="2">  1        4 0.44041313E-01 0.96967705E+03</pdfrwt>
<totfact> 0.40018745E+01</totfact>
</mgrwt>
</event>
<event>
 6    1  0.1353269E-005  0.1032793E+04  0.7818608E-02  0.9995360E-01
         21   -1    0    0  501  502  0.00000000000E+00  0.00000000000E+00  0.48231909384E+03  0.48231909384E+03  0.00000000000E+00 0.  1.
          4   -1    0    0  502    0 -0.00000000000E+00 -0.00000000000E+00 -0.76987039176E+03  0.76987039176E+03  0.00000000000E+00 0.  1.
    9000010    2    1    2  501    0 -0.71566230726E+02 -0.51798823376E+02 -0.91118856709E+02  0.10368048097E+04  0.10290076404E+04 0.  0.
        -13    1    3    3    0    0 -0.35571112622E+03  0.29630980358E+03 -0.28905773013E+03  0.54578776784E+03  0.10566000000E+00 0.  1.
          4    1    3    3  501    0  0.28414489550E+03 -0.34810862696E+03  0.19793887342E+03  0.49101704187E+03  0.00000000000E+00 0.  1.
         13    1    1    2    0    0  0.71566230726E+02  0.51798823376E+02 -0.19643244121E+03  0.21538467589E+03  0.10566000000E+00 0. -1.
<mgrwt>
<rscale>  1 0.55854169E+03</rscale>
<asrwt>0</asrwt>
<pdfrwt beam="1">  1       21 0.74202937E-01 0.10327931E+04</pdfrwt>
<pdfrwt beam="2">  1        4 0.11844160E+00 0.10327931E+04</pdfrwt>
<totfact> 0.34164064E+01</totfact>
</mgrwt>
</event>
<event>
 6    1  0.1353269E-005  0.1007409E+04  0.7818608E-02  0.9755840E-01
         21   -1    0    0  501  502  0.00000000000E+00  0.00000000000E+00  0.95063173274E+03  0.95063173274E+03  0.00000000000E+00 0.  1.
          4   -1    0    0  502    0 -0.00000000000E+00 -0.00000000000E+00 -0.42277977929E+03  0.42277977929E+03  0.00000000000E+00 0.  1.
    9000010    2    1    2  501    0  0.11793721671E+02  0.20618884109E+03  0.57723248591E+03  0.11610642064E+04  0.98601207827E+03 0.  0.
        -13    1    3    3    0    0 -0.37486262583E+03  0.55857190405E+02 -0.76658804878E+02  0.38667634721E+03  0.10566000000E+00 0.  1.
          4    1    3    3  501    0  0.38665634750E+03  0.15033165069E+03  0.65389129079E+03  0.77438785917E+03  0.00000000000E+00 0.  1.
         13    1    1    2    0    0 -0.11793721671E+02 -0.20618884109E+03 -0.49380532468E+02  0.21234730564E+03  0.10566000000E+00 0. -1.
<mgrwt>
<rscale>  1 0.67787243E+03</rscale>
<asrwt>0</asrwt>
<pdfrwt beam="1">  1       21 0.14625104E+00 0.10074089E+04</pdfrwt>
<pdfrwt beam="2">  1        4 0.65043043E-01 0.10074089E+04</pdfrwt>
<totfact> 0.25392781E+01</totfact>
</mgrwt>
</event>
<event>
 6    1  0.1353269E-005  0.9881062E+03  0.7818608E-02  0.9975738E-01
         21   -1    0    0  501  502  0.00000000000E+00  0.00000000000E+00  0.33452383703E+03  0.33452383703E+03  0.00000000000E+00 0.  1.
          4   -1    0    0  502    0 -0.00000000000E+00 -0.00000000000E+00 -0.13233336295E+04  0.13233336295E+04  0.00000000000E+00 0.  1.
    9000010    2    1    2  501    0 -0.10557444836E+03  0.19370302421E+02 -0.41102112436E+03  0.10701832975E+04  0.98225900498E+03 0.  0.
        -13    1    3    3    0    0  0.44009109341E+02  0.47212316065E+03 -0.59705854798E+02  0.47791409353E+03  0.10566000000E+00 0.  1.
          4    1    3    3  501    0 -0.14958355770E+03 -0.45275285823E+03 -0.35131526956E+03  0.59226920399E+03  0.00000000000E+00 0.  1.
         13    1    1    2    0    0  0.10557444836E+03 -0.19370302421E+02 -0.57778866809E+03  0.58767416900E+03  0.10566000000E+00 0. -1.
<mgrwt>
<rscale>  1 0.56727007E+03</rscale>
<asrwt>0</asrwt>
<pdfrwt beam="1">  1       21 0.51465206E-01 0.98810623E+03</pdfrwt>
<pdfrwt beam="2">  1        4 0.20358979E+00 0.98810623E+03</pdfrwt>
<totfact> 0.17612337E+01</totfact>
</mgrwt>
</event>
<event>
 6    1  0.1353269E-005  0.1179876E+04  0.7818608E-02  0.9298792E-01
          4   -1    0    0  502    0 -0.00000000000E+00  0.00000000000E+00  0.84518008942E+03  0.84518008942E+03  0.00000000000E+00 0.  1.
         21   -1    0    0  501  502  0.00000000000E+00 -0.00000000000E+00 -0.98398215094E+03  0.98398215094E+03  0.00000000000E+00 0.  1.
    9000010    2    1    2  501    0  0.22416205668E+03 -0.58972377397E+03 -0.19457055792E+03  0.11958117106E+04  0.99703820784E+03 0.  0.
        -13    1    3    3    0    0 -0.16486263841E+03  0.20913203591E+03 -0.15115229526E+03  0.30620732440E+03  0.10566000000E+00 0.  1.
          4    1    3    3  501    0  0.38902469509E+03 -0.79885580987E+03 -0.43418262656E+02  0.88960438617E+03  0.00000000000E+00 0.  1.
         13    1    1    2    0    0 -0.22416205668E+03  0.58972377397E+03  0.55768496394E+02  0.63335052979E+03  0.10566000000E+00 0. -1.
<mgrwt>
<rscale>  1 0.10089411E+04</rscale>
<asrwt>0</asrwt>
<pdfrwt beam="2">  1       21 0.15138187E+00 0.11798762E+04</pdfrwt>
<pdfrwt beam="1">  1        4 0.13002771E+00 0.11798762E+04</pdfrwt>
<totfact> 0.43633668E+00</totfact>
</mgrwt>
</event>
<event>
 6    1  0.1353269E-005  0.1011935E+04  0.7818608E-02  0.9854514E-01
          4   -1    0    0  502    0 -0.00000000000E+00  0.00000000000E+00  0.47372598672E+03  0.47372598672E+03  0.00000000000E+00 0.  1.
         21   -1    0    0  501  502  0.00000000000E+00 -0.00000000000E+00 -0.82386575018E+03  0.82386575018E+03  0.00000000000E+00 0.  1.
    9000010    2    1    2  501    0  0.14605670007E+03 -0.19966940757E+02 -0.46212762023E+03  0.11124633231E+04  0.10011400849E+04 0.  0.
        -13    1    3    3    0    0  0.31100682721E+03 -0.35287231906E+03  0.57296660978E+02  0.47384284173E+03  0.10566000000E+00 0.  1.
          4    1    3    3  501    0 -0.16495012714E+03  0.33290537831E+03 -0.51942428121E+03  0.63862048140E+03  0.00000000000E+00 0.  1.
         13    1    1    2    0    0 -0.14605670007E+03  0.19966940757E+02  0.11198785677E+03  0.18512841378E+03  0.10566000000E+00 0. -1.
<mgrwt>
<rscale>  1 0.62517283E+03</rscale>
<asrwt>0</asrwt>
<pdfrwt beam="2">  1       21 0.12674858E+00 0.10119351E+04</pdfrwt>
<pdfrwt beam="1">  1        4 0.72880921E-01 0.10119351E+04</pdfrwt>
<totfact> 0.28965415E+01</totfact>
</mgrwt>
</event>
<event>
 6    1  0.1353269E-005  0.1011639E+04  0.7818608E-02  0.9757807E-01
         21   -1    0    0  501  502  0.00000000000E+00  0.00000000000E+00  0.65899955240E+03  0.65899955240E+03  0.00000000000E+00 0.  1.
          4   -1    0    0  502    0 -0.00000000000E+00 -0.00000000000E+00 -0.89584513975E+03  0.89584513975E+03  0.00000000000E+00 0.  1.
    9000010    2    1    2  501    0  0.17933008470E+03  0.94319239525E+02  0.23740594431E+03  0.10391219714E+04  0.99113949115E+03 0.  0.
        -13    1    3    3    0    0  0.32529471745E+03  0.43074806978E+03 -0.90334209762E+02  0.54728496548E+03  0.10566000000E+00 0.  1.
          4    1    3    3  501    0 -0.14596463275E+03 -0.33642883026E+03  0.32774015407E+03  0.49183700596E+03  0.00000000000E+00 0.  1.
         13    1    1    2    0    0 -0.17933008470E+03 -0.94319239525E+02 -0.47425153165E+03  0.51572272072E+03  0.10566000000E+00 0. -1.
<mgrwt>
<rscale>  1 0.67676888E+03</rscale>
<asrwt>0</asrwt>
<pdfrwt beam="1">  1       21 0.10138455E+00 0.10116387E+04</pdfrwt>
<pdfrwt beam="2">  1        4 0.13782233E+00 0.10116387E+04</pdfrwt>
<totfact> 0.10988326E+01</totfact>
</mgrwt>
</event>
<event>
 6    1  0.1353269E-005  0.1038701E+04  0.7818608E-02  0.9637657E-01
         21   -1    0    0  501  502  0.00000000000E+00  0.00000000000E+00  0.30618354262E+03  0.30618354262E+03  0.00000000000E+00 0.  1.
          4   -1    0    0  502    0 -0.00000000000E+00 -0.00000000000E+00 -0.17169125559E+04  0.17169125559E+04  0.00000000000E+00 0.  1.
    9000010    2    1    2  501    0 -0.25409121518E+03 -0.11795726846E+03 -0.68254754326E+03  0.12428880960E+04  0.10002116813E+04 0.  0.
        -13    1    3    3    0    0 -0.58830294320E+03  0.14903448236E+03 -0.34589286129E+03  0.69853669379E+03  0.10566000000E+00 0.  1.
          4    1    3    3  501    0  0.33421172802E+03 -0.26699175082E+03 -0.33665468197E+03  0.54435140217E+03  0.00000000000E+00 0.  1.
         13    1    1    2    0    0  0.25409121518E+03  0.11795726846E+03 -0.72818147001E+03  0.78020800255E+03  0.10566000000E+00 0. -1.
<mgrwt>
<rscale>  1 0.74853170E+03</rscale>
<asrwt>0</asrwt>
<pdfrwt beam="1">  1       21 0.47105160E-01 0.10387010E+04</pdfrwt>
<pdfrwt beam="2">  1        4 0.26414039E+00 0.10387010E+04</pdfrwt>
<totfact> 0.88033415E+00</totfact>
</mgrwt>
</event>
<event>
 6    1  0.1353269E-005  0.1371242E+04  0.7818608E-02  0.9070738E-01
         21   -1    0    0  501  502  0.00000000000E+00  0.00000000000E+00  0.25311768212E+04  0.25311768212E+04  0.00000000000E+00 0. -1.
          4   -1    0    0  502    0 -0.00000000000E+00 -0.00000000000E+00 -0.63714575638E+03  0.63714575638E+03  0.00000000000E+00 0.  1.
    9000010    2    1    2  501    0 -0.59650906642E+03 -0.73277021590E+03  0.17329113075E+04  0.22098160085E+04  0.99374540803E+03 0.  0.
        -13    1    3    3    0    0 -0.89027073014E+02  0.18296596743E+03  0.22900358194E+02  0.20476035392E+03  0.10566000000E+00 0.  1.
          4    1    3    3  501    0 -0.50748199341E+03 -0.91573618333E+03  0.17100109493E+04  0.20050556546E+04  0.00000000000E+00 0.  1.
         13    1    1    2    0    0  0.59650906642E+03  0.73277021590E+03  0.16111975728E+03  0.95850656909E+03  0.10566000000E+00 0. -1.
<mgrwt>
<rscale>  1 0.12493335E+04</rscale>
<asrwt>0</asrwt>
<pdfrwt beam="1">  1       21 0.38941181E+00 0.13712422E+04</pdfrwt>
<pdfrwt beam="2">  1        4 0.98022425E-01 0.13712422E+04</pdfrwt>
<totfact> 0.22639401E-01</totfact>
</mgrwt>
</event>
<event>
 6    1  0.1353269E-005  0.9938203E+03  0.7818608E-02  0.1019846E+00
          4   -1    0    0  502    0 -0.00000000000E+00  0.00000000000E+00  0.15481054291E+04  0.15481054291E+04  0.00000000000E+00 0.  1.
         21   -1    0    0  501  502  0.00000000000E+00 -0.00000000000E+00 -0.18715295000E+03  0.18715295000E+03  0.00000000000E+00 0.  1.
    9000010    2    1    2  501    0 -0.16627086632E+01  0.52901618616E+02  0.13572477601E+04  0.16822010331E+04  0.99240993930E+03 0.  0.
        -13    1    3    3    0    0  0.30353349116E+03 -0.23072951095E+03  0.15813235883E+03  0.41276451101E+03  0.10566000000E+00 0.  1.
          4    1    3    3  501    0 -0.30519619982E+03  0.28363112957E+03  0.11991154013E+04  0.12694365221E+04  0.00000000000E+00 0.  1.
         13    1    1    2    0    0  0.16627086632E+01 -0.52901618616E+02  0.37047189451E+01  0.53057345945E+02  0.10566000000E+00 0. -1.
<mgrwt>
<rscale>  1 0.47742155E+03</rscale>
<asrwt>0</asrwt>
<pdfrwt beam="2">  1       21 0.28792763E-01 0.99382032E+03</pdfrwt>
<pdfrwt beam="1">  1        4 0.23817006E+00 0.99382032E+03</pdfrwt>
<totfact> 0.35542047E+01</totfact>
</mgrwt>
</event>
<event>
 6    1  0.1353269E-005  0.9946603E+03  0.7818608E-02  0.1007843E+00
          4   -1    0    0  502    0 -0.00000000000E+00  0.00000000000E+00  0.64136304260E+03  0.64136304260E+03  0.00000000000E+00 0.  1.
         21   -1    0    0  501  502  0.00000000000E+00 -0.00000000000E+00 -0.69363199375E+03  0.69363199375E+03  0.00000000000E+00 0.  1.
    9000010    2    1    2  501    0 -0.70104636081E+02  0.30037449955E+02 -0.32922447587E+03  0.10477298588E+04  0.99173191594E+03 0.  0.
        -13    1    3    3    0    0 -0.23554803262E+03  0.44947619892E+03 -0.31366826628E+03  0.59657314849E+03  0.10566000000E+00 0.  1.
          4    1    3    3  501    0  0.16544339654E+03 -0.41943874896E+03 -0.15556209586E+02  0.45115671030E+03  0.00000000000E+00 0.  1.
         13    1    1    2    0    0  0.70104636081E+02 -0.30037449955E+02  0.27695552472E+03  0.28726517756E+03  0.10566000000E+00 0. -1.
<mgrwt>
<rscale>  1 0.52341085E+03</rscale>
<asrwt>0</asrwt>
<pdfrwt beam="2">  1       21 0.10671261E+00 0.99466029E+03</pdfrwt>
<pdfrwt beam="1">  1        4 0.98671238E-01 0.99466029E+03</pdfrwt>
<totfact> 0.22331239E+01</totfact>
</mgrwt>
</event>
<event>
 6    1  0.1353269E-005  0.1031701E+04  0.7818608E-02  0.9639459E-01
         21   -1    0    0  501  502  0.00000000000E+00  0.00000000000E+00  0.15335463809E+04  0.15335463809E+04  0.00000000000E+00 0.  1.
          4   -1    0    0  502    0 -0.00000000000E+00 -0.00000000000E+00 -0.43176928760E+03  0.43176928760E+03  0.00000000000E+00 0.  1.
    9000010    2    1    2  501    0 -0.24548109311E+03 -0.14307363876E+03  0.12691211161E+04  0.16355656627E+04  0.99180421280E+03 0.  0.
        -13    1    3    3    0    0  0.32969461614E+03  0.76261009445E+02  0.17697216883E+03  0.38188144911E+03  0.10566000000E+00 0.  1.
          4    1    3    3  501    0 -0.57517570925E+03 -0.21933464820E+03  0.10921489472E+04  0.12536842136E+04  0.00000000000E+00 0.  1.
         13    1    1    2    0    0  0.24548109311E+03  0.14307363876E+03 -0.16734402280E+03  0.32975000578E+03  0.10566000000E+00 0. -1.
<mgrwt>
<rscale>  1 0.74738678E+03</rscale>
<asrwt>0</asrwt>
<pdfrwt beam="1">  1       21 0.23593021E+00 0.10317008E+04</pdfrwt>
<pdfrwt beam="2">  1        4 0.66426045E-01 0.10317008E+04</pdfrwt>
<totfact> 0.55395144E+00</totfact>
</mgrwt>
</event>
<event>
 6    1  0.1353269E-005  0.1019679E+04  0.7818608E-02  0.9780550E-01
         21   -1    0    0  501  502  0.00000000000E+00  0.00000000000E+00  0.14903211784E+04  0.14903211784E+04  0.00000000000E+00 0.  1.
          4   -1    0    0  502    0 -0.00000000000E+00 -0.00000000000E+00 -0.26973361887E+03  0.26973361887E+03  0.00000000000E+00 0.  1.
    9000010    2    1    2  501    0  0.13741535192E+03  0.12166592296E+03  0.12009893835E+04  0.15754750708E+04  0.10030257343E+04 0.  0.
        -13    1    3    3    0    0  0.43423662280E+03 -0.25142328992E+03  0.83608749808E+03  0.97509867752E+03  0.10566000000E+00 0.  1.
          4    1    3    3  501    0 -0.29682127087E+03  0.37308921288E+03  0.36490188546E+03  0.60037639329E+03  0.00000000000E+00 0.  1.
         13    1    1    2    0    0 -0.13741535192E+03 -0.12166592296E+03  0.19598175990E+02  0.18457972646E+03  0.10566000000E+00 0. -1.
<mgrwt>
<rscale>  1 0.66416849E+03</rscale>
<asrwt>0</asrwt>
<pdfrwt beam="1">  1       21 0.22928018E+00 0.10196795E+04</pdfrwt>
<pdfrwt beam="2">  1        4 0.41497481E-01 0.10196795E+04</pdfrwt>
<totfact> 0.16703370E+01</totfact>
</mgrwt>
</event>
<event>
 6    1  0.1353269E-005  0.1225259E+04  0.7818608E-02  0.9240876E-01
          4   -1    0    0  502    0 -0.00000000000E+00  0.00000000000E+00  0.99170074347E+03  0.99170074347E+03  0.00000000000E+00 0.  1.
         21   -1    0    0  501  502  0.00000000000E+00 -0.00000000000E+00 -0.94416822964E+03  0.94416822964E+03  0.00000000000E+00 0.  1.
    9000010    2    1    2  501    0 -0.67559437868E+03  0.17181747483E+03 -0.77237723991E+02  0.12276905828E+04  0.10076256705E+04 0.  0.
        -13    1    3    3    0    0 -0.40972035113E+03 -0.62076555271E+02 -0.51731948858E+03  0.66283009080E+03  0.10566000000E+00 0.  1.
          4    1    3    3  501    0 -0.26587402755E+03  0.23389403010E+03  0.44008176459E+03  0.56486049195E+03  0.00000000000E+00 0.  1.
         13    1    1    2    0    0  0.67559437868E+03 -0.17181747483E+03  0.12477023782E+03  0.70817839036E+03  0.10566000000E+00 0. -1.
<mgrwt>
<rscale>  1 0.10641299E+04</rscale>
<asrwt>0</asrwt>
<pdfrwt beam="2">  1       21 0.14525665E+00 0.12252585E+04</pdfrwt>
<pdfrwt beam="1">  1        4 0.15256935E+00 0.12252585E+04</pdfrwt>
<totfact> 0.31920783E+00</totfact>
</mgrwt>
</event>
<event>
 6    1  0.1353269E-005  0.1079434E+04  0.7818608E-02  0.9501847E-01
          4   -1    0    0  502    0 -0.00000000000E+00  0.00000000000E+00  0.10477671907E+04  0.10477671907E+04  0.00000000000E+00 0.  1.
         21   -1    0    0  501  502  0.00000000000E+00 -0.00000000000E+00 -0.52239823650E+03  0.52239823650E+03  0.00000000000E+00 0.  1.
    9000010    2    1    2  501    0  0.34631280994E+03  0.19743786243E+03  0.35111552995E+03  0.11351038926E+04  0.10031273397E+04 0.  0.
        -13    1    3    3    0    0 -0.93719860595E+02  0.52340826172E+03  0.16590326592E+03  0.55701303891E+03  0.10566000000E+00 0.  1.
          4    1    3    3  501    0  0.44003267054E+03 -0.32597039929E+03  0.18521226403E+03  0.57809085367E+03  0.00000000000E+00 0.  1.
         13    1    1    2    0    0 -0.34631280994E+03 -0.19743786243E+03  0.17425342421E+03  0.43506153457E+03  0.10566000000E+00 0. -1.
<mgrwt>
<rscale>  1 0.84147762E+03</rscale>
<asrwt>0</asrwt>
<pdfrwt beam="2">  1       21 0.80368960E-01 0.10794344E+04</pdfrwt>
<pdfrwt beam="1">  1        4 0.16119495E+00 0.10794344E+04</pdfrwt>
<totfact> 0.12564723E+01</totfact>
</mgrwt>
</event>
<event>
 6    1  0.1353269E-005  0.1041912E+04  0.7818608E-02  0.9827242E-01
         21   -1    0    0  501  502  0.00000000000E+00  0.00000000000E+00  0.94852354834E+03  0.94852354834E+03  0.00000000000E+00 0.  1.
          4   -1    0    0  502    0 -0.00000000000E+00 -0.00000000000E+00 -0.38421798366E+03  0.38421798366E+03  0.00000000000E+00 0.  1.
    9000010    2    1    2  501    0  0.13654945744E+03 -0.56027740431E+02  0.56478738712E+03  0.11851437497E+04  0.10314048927E+04 0.  0.
        -13    1    3    3    0    0 -0.38741828698E+03 -0.17901749279E+03  0.32241041841E+02  0.42799496230E+03  0.10566000000E+00 0.  1.
          4    1    3    3  501    0  0.52396774442E+03  0.12298975236E+03  0.53254634528E+03  0.75714878739E+03  0.00000000000E+00 0.  1.
         13    1    1    2    0    0 -0.13654945744E+03  0.56027740431E+02 -0.48182243932E+00  0.14759778230E+03  0.10566000000E+00 0. -1.
<mgrwt>
<rscale>  1 0.63920874E+03</rscale>
<asrwt>0</asrwt>
<pdfrwt beam="1">  1       21 0.14592670E+00 0.10419121E+04</pdfrwt>
<pdfrwt beam="2">  1        4 0.59110459E-01 0.10419121E+04</pdfrwt>
<totfact> 0.31396655E+01</totfact>
</mgrwt>
</event>
<event>
 6    1  0.1353269E-005  0.1016396E+04  0.7818608E-02  0.9708243E-01
         21   -1    0    0  501  502  0.00000000000E+00  0.00000000000E+00  0.53973829196E+03  0.53973829196E+03  0.00000000000E+00 0.  1.
          4   -1    0    0  502    0 -0.00000000000E+00 -0.00000000000E+00 -0.18745916611E+04  0.18745916611E+04  0.00000000000E+00 0.  1.
    9000010    2    1    2  501    0 -0.93216240074E+02  0.21642557209E+03  0.42188526345E+02  0.10172710106E+04  0.98870174550E+03 0.  0.
        -13    1    3    3    0    0  0.43711837149E+03  0.17276936333E+02  0.97150632954E+02  0.44811741751E+03  0.10566000000E+00 0.  1.
          4    1    3    3  501    0 -0.53033461157E+03  0.19914863575E+03 -0.54962106608E+02  0.56915359308E+03  0.00000000000E+00 0.  1.
         13    1    1    2    0    0  0.93216240074E+02 -0.21642557209E+03 -0.13770418954E+04  0.13970589424E+04  0.10566000000E+00 0. -1.
<mgrwt>
<rscale>  1 0.70528140E+03</rscale>
<asrwt>0</asrwt>
<pdfrwt beam="1">  1       21 0.83036660E-01 0.10163958E+04</pdfrwt>
<pdfrwt beam="2">  1        4 0.28839872E+00 0.10163958E+04</pdfrwt>
<totfact> 0.17485673E+00</totfact>
</mgrwt>
</event>
<event>
 6    1  0.1353269E-005  0.1064459E+04  0.7818608E-02  0.9525357E-01
         21   -1    0    0  501  502  0.00000000000E+00  0.00000000000E+00  0.54795807900E+03  0.54795807900E+03  0.00000000000E+00 0.  1.
          4   -1    0    0  502    0 -0.00000000000E+00 -0.00000000000E+00 -0.10092054147E+04  0.10092054147E+04  0.00000000000E+00 0.  1.
    9000010    2    1    2  501    0  0.80028126949E+02  0.37451390277E+03 -0.17433402104E+03  0.10786403221E+04  0.99318046149E+03 0.  0.
        -13    1    3    3    0    0  0.14143730099E+03 -0.30101494836E+03 -0.22003928301E+03  0.39878792168E+03  0.10566000000E+00 0.  1.
          4    1    3    3  501    0 -0.61409174042E+02  0.67552885114E+03  0.45705261966E+02  0.67985240041E+03  0.00000000000E+00 0.  1.
         13    1    1    2    0    0 -0.80028126949E+02 -0.37451390277E+03 -0.28691331465E+03  0.47852317160E+03  0.10566000000E+00 0. -1.
<mgrwt>
<rscale>  1 0.82439913E+03</rscale>
<asrwt>0</asrwt>
<pdfrwt beam="1">  1       21 0.84301244E-01 0.10644588E+04</pdfrwt>
<pdfrwt beam="2">  1        4 0.15526237E+00 0.10644588E+04</pdfrwt>
<totfact> 0.12456358E+01</totfact>
</mgrwt>
</event>
<event>
 6    1  0.1353269E-005  0.1019146E+04  0.7818608E-02  0.9720731E-01
         21   -1    0    0  501  502  0.00000000000E+00  0.00000000000E+00  0.20107647857E+03  0.20107647857E+03  0.00000000000E+00 0. -1.
          4   -1    0    0  502    0 -0.00000000000E+00 -0.00000000000E+00 -0.20959230028E+04  0.20959230028E+04  0.00000000000E+00 0.  1.
    9000010    2    1    2  501    0 -0.49739664024E+02 -0.21859798449E+03 -0.12413353012E+04  0.16061043788E+04  0.99418249457E+03 0.  0.
        -13    1    3    3    0    0 -0.49859189816E+03 -0.27004981068E+03 -0.71100797273E+03  0.90942461458E+03  0.10566000000E+00 0.  1.
          4    1    3    3  501    0  0.44885223414E+03  0.51451826186E+02 -0.53032732852E+03  0.69667976423E+03  0.00000000000E+00 0.  1.
         13    1    1    2    0    0  0.49739664024E+02  0.21859798449E+03 -0.65351122297E+03  0.69089510254E+03  0.10566000000E+00 0. -1.
<mgrwt>
<rscale>  1 0.69795765E+03</rscale>
<asrwt>0</asrwt>
<pdfrwt beam="1">  1       21 0.30934842E-01 0.10191457E+04</pdfrwt>
<pdfrwt beam="2">  1        4 0.32244971E+00 0.10191457E+04</pdfrwt>
<totfact> 0.92206660E+00</totfact>
</mgrwt>
</event>
<event>
 6    1  0.1353269E-005  0.1200145E+04  0.7818608E-02  0.9281955E-01
          4   -1    0    0  502    0 -0.00000000000E+00  0.00000000000E+00  0.58760103653E+03  0.58760103653E+03  0.00000000000E+00 0.  1.
         21   -1    0    0  501  502  0.00000000000E+00 -0.00000000000E+00 -0.16277962423E+04  0.16277962423E+04  0.00000000000E+00 0. -1.
    9000010    2    1    2  501    0 -0.90195065537E+02  0.63117118794E+03 -0.10239612407E+04  0.15776075242E+04  0.10167775862E+04 0.  0.
        -13    1    3    3    0    0 -0.53976549203E+02  0.30286635123E+03 -0.11748625250E+04  0.12144725021E+04  0.10566000000E+00 0.  1.
          4    1    3    3  501    0 -0.36218516334E+02  0.32830483671E+03  0.15090128425E+03  0.36313502216E+03  0.00000000000E+00 0.  1.
         13    1    1    2    0    0  0.90195065537E+02 -0.63117118794E+03 -0.16233965107E+02  0.63778975464E+03  0.10566000000E+00 0. -1.
<mgrwt>
<rscale>  1 0.10246124E+04</rscale>
<asrwt>0</asrwt>
<pdfrwt beam="2">  1       21 0.25043019E+00 0.12001454E+04</pdfrwt>
<pdfrwt beam="1">  1        4 0.90400159E-01 0.12001454E+04</pdfrwt>
<totfact> 0.21542619E+00</totfact>
</mgrwt>
</event>
<event>
 6    1  0.1353269E-005  0.9520611E+03  0.7818608E-02  0.9961019E-01
          4   -1    0    0  502    0 -0.00000000000E+00  0.00000000000E+00  0.17797886895E+04  0.17797886895E+04  0.00000000000E+00 0.  1.
         21   -1    0    0  501  502  0.00000000000E+00 -0.00000000000E+00 -0.16636620330E+03  0.16636620330E+03  0.00000000000E+00 0.  1.
    9000010    2    1    2  501    0  0.12427683212E+03 -0.19066096215E+02  0.13255617852E+04  0.16320338312E+04  0.94372248708E+03 0.  0.
        -13    1    3    3    0    0 -0.34069082486E+03 -0.16581844075E+03  0.92985143260E+03  0.10040864959E+04  0.10566000000E+00 0.  1.
          4    1    3    3  501    0  0.46496765698E+03  0.14675234453E+03  0.39571035263E+03  0.62794733525E+03  0.00000000000E+00 0.  1.
         13    1    1    2    0    0 -0.12427683212E+03  0.19066096215E+02  0.28786070097E+03  0.31412106162E+03  0.10566000000E+00 0. -1.
<mgrwt>
<rscale>  1 0.57393026E+03</rscale>
<asrwt>0</asrwt>
<pdfrwt beam="2">  1       21 0.25594802E-01 0.95206112E+03</pdfrwt>
<pdfrwt beam="1">  1        4 0.27381363E+00 0.95206112E+03</pdfrwt>
<totfact> 0.27193817E+01</totfact>
</mgrwt>
</event>
<event>
 6    1  0.1353269E-005  0.1250385E+04  0.7818608E-02  0.9202400E-01
         21   -1    0    0  501  502  0.00000000000E+00  0.00000000000E+00  0.11937365402E+04  0.11937365402E+04  0.00000000000E+00 0.  1.
          4   -1    0    0  502    0 -0.00000000000E+00 -0.00000000000E+00 -0.86057429915E+03  0.86057429915E+03  0.00000000000E+00 0.  1.
    9000010    2    1    2  501    0 -0.56944511619E+03 -0.49843186169E+03  0.34620071082E+03  0.12974277084E+04  0.99537011470E+03 0.  0.
        -13    1    3    3    0    0 -0.57144910320E+03 -0.23332194238E+03 -0.23353448049E+03  0.65994815788E+03  0.10566000000E+00 0.  1.
          4    1    3    3  501    0  0.20039870130E+01 -0.26510991931E+03  0.57973519131E+03  0.63747955051E+03  0.00000000000E+00 0.  1.
         13    1    1    2    0    0  0.56944511619E+03  0.49843186169E+03 -0.13038469745E+02  0.75688313097E+03  0.10566000000E+00 0. -1.
<mgrwt>
<rscale>  1 0.11028692E+04</rscale>
<asrwt>0</asrwt>
<pdfrwt beam="1">  1       21 0.18365177E+00 0.12503854E+04</pdfrwt>
<pdfrwt beam="2">  1        4 0.13239605E+00 0.12503854E+04</pdfrwt>
<totfact> 0.23452719E+00</totfact>
</mgrwt>
</event>
<event>
 6    1  0.1353269E-005  0.1664111E+04  0.7818608E-02  0.8837276E-01
         21   -1    0    0  501  502  0.00000000000E+00  0.00000000000E+00  0.25455837503E+04  0.25455837503E+04  0.00000000000E+00 0. -1.
          4   -1    0    0  502    0 -0.00000000000E+00 -0.00000000000E+00 -0.88194623305E+03  0.88194623305E+03  0.00000000000E+00 0.  1.
    9000010    2    1    2  501    0 -0.13192107221E+04 -0.15851102635E+03  0.83794634636E+03  0.18631743346E+04  0.10019091011E+04 0.  0.
        -13    1    3    3    0    0 -0.12568976194E+04  0.14487779833E+03  0.40032972553E+03  0.13270437455E+04  0.10566000000E+00 0.  1.
          4    1    3    3  501    0 -0.62313102704E+02 -0.30338882468E+03  0.43761662083E+03  0.53613058907E+03  0.00000000000E+00 0.  1.
         13    1    1    2    0    0  0.13192107221E+04  0.15851102635E+03  0.82569117087E+03  0.15643556487E+04  0.10566000000E+00 0. -1.
<mgrwt>
<rscale>  1 0.15730532E+04</rscale>
<asrwt>0</asrwt>
<pdfrwt beam="1">  1       21 0.39162827E+00 0.16641107E+04</pdfrwt>
<pdfrwt beam="2">  1        4 0.13568404E+00 0.16641107E+04</pdfrwt>
<totfact> 0.92188228E-02</totfact>
</mgrwt>
</event>
<event>
 6    1  0.1353269E-005  0.1024100E+04  0.7818608E-02  0.9705777E-01
         21   -1    0    0  501  502  0.00000000000E+00  0.00000000000E+00  0.15875845691E+04  0.15875845691E+04  0.00000000000E+00 0.  1.
          4   -1    0    0  502    0 -0.00000000000E+00 -0.00000000000E+00 -0.41198118246E+03  0.41198118246E+03  0.00000000000E+00 0.  1.
    9000010    2    1    2  501    0 -0.21587260153E+03 -0.85745092803E+02  0.13603728807E+04  0.17027611388E+04  0.99741060754E+03 0.  0.
        -13    1    3    3    0    0  0.26290303084E+03  0.28240355543E+03  0.32665470382E+03  0.50554236067E+03  0.10566000000E+00 0.  1.
          4    1    3    3  501    0 -0.47877563237E+03 -0.36814864823E+03  0.10337181769E+04  0.11972187781E+04  0.00000000000E+00 0.  1.
         13    1    1    2    0    0  0.21587260153E+03  0.85745092803E+02 -0.18476949412E+03  0.29680461276E+03  0.10566000000E+00 0. -1.
<mgrwt>
<rscale>  1 0.70673888E+03</rscale>
<asrwt>0</asrwt>
<pdfrwt beam="1">  1       21 0.24424378E+00 0.10241002E+04</pdfrwt>
<pdfrwt beam="2">  1        4 0.63381721E-01 0.10241002E+04</pdfrwt>
<totfact> 0.54396742E+00</totfact>
</mgrwt>
</event>
<event>
 6    1  0.1353269E-005  0.1233133E+04  0.7818608E-02  0.9218785E-01
          4   -1    0    0  502    0 -0.00000000000E+00  0.00000000000E+00  0.15746681587E+04  0.15746681587E+04  0.00000000000E+00 0.  1.
         21   -1    0    0  501  502  0.00000000000E+00 -0.00000000000E+00 -0.68129092054E+03  0.68129092054E+03  0.00000000000E+00 0. -1.
    9000010    2    1    2  501    0  0.72418930651E+03  0.16273119216E+03  0.87760921217E+03  0.15135439431E+04  0.98472622891E+03 0.  0.
        -13    1    3    3    0    0  0.15397219786E+03  0.28767703537E+02 -0.21962100408E+03  0.26975621415E+03  0.10566000000E+00 0.  1.
          4    1    3    3  501    0  0.57021710866E+03  0.13396348863E+03  0.10972302162E+04  0.12437877290E+04  0.00000000000E+00 0.  1.
         13    1    1    2    0    0 -0.72418930651E+03 -0.16273119216E+03  0.15768026024E+02  0.74241513615E+03  0.10566000000E+00 0. -1.
<mgrwt>
<rscale>  1 0.10861623E+04</rscale>
<asrwt>0</asrwt>
<pdfrwt beam="2">  1       21 0.10481399E+00 0.12331331E+04</pdfrwt>
<pdfrwt beam="1">  1        4 0.24225664E+00 0.12331331E+04</pdfrwt>
<totfact> 0.18523232E+00</totfact>
</mgrwt>
</event>
<event>
 6    1  0.1353269E-005  0.1044617E+04  0.7818608E-02  0.9946172E-01
         21   -1    0    0  501  502  0.00000000000E+00  0.00000000000E+00  0.43908707289E+03  0.43908707289E+03  0.00000000000E+00 0.  1.
          4   -1    0    0  502    0 -0.00000000000E+00 -0.00000000000E+00 -0.78683720838E+03  0.78683720838E+03  0.00000000000E+00 0.  1.
    9000010    2    1    2  501    0 -0.95181371268E+01 -0.99333489777E+02 -0.22649823559E+03  0.10688899808E+04  0.10398397007E+04 0.  0.
        -13    1    3    3    0    0 -0.51491769513E+03  0.29602096840E+01 -0.25834338483E+02  0.51557387425E+03  0.10566000000E+00 0.  1.
          4    1    3    3  501    0  0.50539955800E+03 -0.10229369946E+03 -0.20066389711E+03  0.55331610656E+03  0.00000000000E+00 0.  1.
         13    1    1    2    0    0  0.95181371268E+01  0.99333489777E+02 -0.12125189990E+03  0.15703430045E+03  0.10566000000E+00 0. -1.
<mgrwt>
<rscale>  1 0.58074825E+03</rscale>
<asrwt>0</asrwt>
<pdfrwt beam="1">  1       21 0.67551858E-01 0.10446168E+04</pdfrwt>
<pdfrwt beam="2">  1        4 0.12105188E+00 0.10446168E+04</pdfrwt>
<totfact> 0.40085366E+01</totfact>
</mgrwt>
</event>
<event>
 6    1  0.1353269E-005  0.9804691E+03  0.7818608E-02  0.9911349E-01
         21   -1    0    0  501  502  0.00000000000E+00  0.00000000000E+00  0.69567317936E+03  0.69567317936E+03  0.00000000000E+00 0.  1.
          4   -1    0    0  502    0 -0.00000000000E+00 -0.00000000000E+00 -0.51936302636E+03  0.51936302636E+03  0.00000000000E+00 0.  1.
    9000010    2    1    2  501    0  0.96504024125E+02  0.94261492974E+02  0.30680168423E+03  0.10273494811E+04  0.97114439042E+03 0.  0.
        -13    1    3    3    0    0 -0.34557491135E+03 -0.16471758893E+03 -0.72815695749E+02  0.38968710547E+03  0.10566000000E+00 0.  1.
          4    1    3    3  501    0  0.44207893547E+03  0.25897908190E+03  0.37961737998E+03  0.63766237559E+03  0.00000000000E+00 0.  1.
         13    1    1    2    0    0 -0.96504024125E+02 -0.94261492974E+02 -0.13049153123E+03  0.18768672467E+03  0.10566000000E+00 0. -1.
<mgrwt>
<rscale>  1 0.59714416E+03</rscale>
<asrwt>0</asrwt>
<pdfrwt beam="1">  1       21 0.10702664E+00 0.98046911E+03</pdfrwt>
<pdfrwt beam="2">  1        4 0.79902004E-01 0.98046911E+03</pdfrwt>
<totfact> 0.36415206E+01</totfact>
</mgrwt>
</event>
<event>
 6    1  0.1353269E-005  0.1035456E+04  0.7818608E-02  0.9635672E-01
          4   -1    0    0  502    0 -0.00000000000E+00  0.00000000000E+00  0.10661629178E+04  0.10661629178E+04  0.00000000000E+00 0.  1.
         21   -1    0    0  501  502  0.00000000000E+00 -0.00000000000E+00 -0.47268534118E+03  0.47268534118E+03  0.00000000000E+00 0.  1.
    9000010    2    1    2  501    0 -0.27214516521E+03 -0.83584385294E+02  0.20228633367E+03  0.10550301732E+04  0.99554988080E+03 0.  0.
        -13    1    3    3    0    0 -0.51125024208E+03  0.28941241860E+03  0.16603275576E+03  0.61049426305E+03  0.10566000000E+00 0.  1.
          4    1    3    3  501    0  0.23910507686E+03 -0.37299680390E+03  0.36253577914E+02  0.44453591015E+03  0.00000000000E+00 0.  1.
         13    1    1    2    0    0  0.27214516521E+03  0.83584385294E+02  0.39119124297E+03  0.48381808581E+03  0.10566000000E+00 0. -1.
<mgrwt>
<rscale>  1 0.74979475E+03</rscale>
<asrwt>0</asrwt>
<pdfrwt beam="2">  1       21 0.72720822E-01 0.10354559E+04</pdfrwt>
<pdfrwt beam="1">  1        4 0.16402506E+00 0.10354559E+04</pdfrwt>
<totfact> 0.15186507E+01</totfact>
</mgrwt>
</event>
<event>
 6    1  0.1353269E-005  0.1107362E+04  0.7818608E-02  0.9418413E-01
         21   -1    0    0  501  502  0.00000000000E+00  0.00000000000E+00  0.38638371018E+04  0.38638371018E+04  0.00000000000E+00 0.  1.
          4   -1    0    0  502    0 -0.00000000000E+00 -0.00000000000E+00 -0.26558238079E+03  0.26558238079E+03  0.00000000000E+00 0.  1.
    9000010    2    1    2  501    0  0.14126611413E+03  0.47509597095E+03  0.34326288546E+04  0.36068257251E+04  0.99024171862E+03 0.  0.
        -13    1    3    3    0    0 -0.38910075762E+03 -0.55238598218E+01  0.13265481468E+04  0.13824470729E+04  0.10566000000E+00 0.  1.
          4    1    3    3  501    0  0.53036687174E+03  0.48061983077E+03  0.21060807078E+04  0.22243786521E+04  0.00000000000E+00 0.  1.
         13    1    1    2    0    0 -0.14126611413E+03 -0.47509597095E+03  0.16562586647E+03  0.52259375754E+03  0.10566000000E+00 0. -1.
<mgrwt>
<rscale>  1 0.90575718E+03</rscale>
<asrwt>0</asrwt>
<pdfrwt beam="1">  1       21 0.59443644E+00 0.11073622E+04</pdfrwt>
<pdfrwt beam="2">  1        4 0.40858830E-01 0.11073622E+04</pdfrwt>
<totfact> 0.56317457E-02</totfact>
</mgrwt>
</event>
<event>
 6    1  0.1353269E-005  0.9958909E+03  0.7818608E-02  0.9996735E-01
         21   -1    0    0  501  502  0.00000000000E+00  0.00000000000E+00  0.12070091914E+04  0.12070091914E+04  0.00000000000E+00 0.  1.
          4   -1    0    0  502    0 -0.00000000000E+00 -0.00000000000E+00 -0.38057913355E+03  0.38057913355E+03  0.00000000000E+00 0.  1.
    9000010    2    1    2  501    0  0.68233612150E+02  0.70493250930E+02  0.98525728259E+03  0.14009035030E+04  0.99104671312E+03 0.  0.
        -13    1    3    3    0    0 -0.39665503342E+03 -0.17965738690E+02  0.79922145277E+03  0.89241970229E+03  0.10566000000E+00 0.  1.
          4    1    3    3  501    0  0.46488864556E+03  0.88458989620E+02  0.18603582982E+03  0.50848380072E+03  0.00000000000E+00 0.  1.
         13    1    1    2    0    0 -0.68233612150E+02 -0.70493250930E+02 -0.15882722475E+03  0.18668482193E+03  0.10566000000E+00 0. -1.
<mgrwt>
<rscale>  1 0.55793638E+03</rscale>
<asrwt>0</asrwt>
<pdfrwt beam="1">  1       21 0.18569372E+00 0.99589091E+03</pdfrwt>
<pdfrwt beam="2">  1        4 0.58550636E-01 0.99589091E+03</pdfrwt>
<totfact> 0.16026030E+01</totfact>
</mgrwt>
</event>
<event>
 6    1  0.1353269E-005  0.1022231E+04  0.7818608E-02  0.9853628E-01
          4   -1    0    0  502    0 -0.00000000000E+00  0.00000000000E+00  0.48403579254E+03  0.48403579254E+03  0.00000000000E+00 0.  1.
         21   -1    0    0  501  502  0.00000000000E+00 -0.00000000000E+00 -0.10911372039E+04  0.10911372039E+04  0.00000000000E+00 0.  1.
    9000010    2    1    2  501    0 -0.30247769331E+02  0.14019210375E+03 -0.82547709212E+03  0.13139131591E+04  0.10121198578E+04 0.  0.
        -13    1    3    3    0    0  0.45925641389E+02 -0.33472834804E+03 -0.75582829246E+03  0.82790618452E+03  0.10566000000E+00 0.  1.
          4    1    3    3  501    0 -0.76173410720E+02  0.47492045179E+03 -0.69648799664E+02  0.48600697456E+03  0.00000000000E+00 0.  1.
         13    1    1    2    0    0  0.30247769331E+02 -0.14019210375E+03  0.21837568077E+03  0.26125983736E+03  0.10566000000E+00 0. -1.
<mgrwt>
<rscale>  1 0.62562296E+03</rscale>
<asrwt>0</asrwt>
<pdfrwt beam="2">  1       21 0.16786726E+00 0.10222306E+04</pdfrwt>
<pdfrwt beam="1">  1        4 0.74467045E-01 0.10222306E+04</pdfrwt>
<totfact> 0.12666164E+01</totfact>
</mgrwt>
</event>
<event>
 6    1  0.1353269E-005  0.1009657E+04  0.7818608E-02  0.9976094E-01
         21   -1    0    0  501  502  0.00000000000E+00  0.00000000000E+00  0.50270308016E+03  0.50270308016E+03  0.00000000000E+00 0.  1.
          4   -1    0    0  502    0 -0.00000000000E+00 -0.00000000000E+00 -0.61511627896E+03  0.61511627896E+03  0.00000000000E+00 0.  1.
    9000010    2    1    2  501    0  0.39973632531E+02 -0.92203484215E+02 -0.12136645129E+03  0.10169256245E+04  0.10046434872E+04 0.  0.
        -13    1    3    3    0    0 -0.10468708729E+03 -0.52419570523E+03 -0.16458311537E+03  0.55931041172E+03  0.10566000000E+00 0.  1.
          4    1    3    3  501    0  0.14466071982E+03  0.43199222102E+03  0.43216664089E+02  0.45761521274E+03  0.00000000000E+00 0.  1.
         13    1    1    2    0    0 -0.39973632531E+02  0.92203484215E+02  0.89532524792E+01  0.10089373466E+03  0.10566000000E+00 0. -1.
<mgrwt>
<rscale>  1 0.56711015E+03</rscale>
<asrwt>0</asrwt>
<pdfrwt beam="1">  1       21 0.77338936E-01 0.10096573E+04</pdfrwt>
<pdfrwt beam="2">  1        4 0.94633273E-01 0.10096573E+04</pdfrwt>
<totfact> 0.53765520E+01</totfact>
</mgrwt>
</event>
<event>
 6    1  0.1353269E-005  0.9815077E+03  0.7818608E-02  0.9850132E-01
          4   -1    0    0  502    0 -0.00000000000E+00  0.00000000000E+00  0.53056254683E+03  0.53056254683E+03  0.00000000000E+00 0.  1.
         21   -1    0    0  501  502  0.00000000000E+00 -0.00000000000E+00 -0.13635137683E+04  0.13635137683E+04  0.00000000000E+00 0.  1.
    9000010    2    1    2  501    0 -0.89229052362E+02 -0.13744744132E+03 -0.11652689158E+04  0.15235514388E+04  0.96773122171E+03 0.  0.
        -13    1    3    3    0    0 -0.15785524531E+03 -0.51034757148E+03 -0.94366680690E+03  0.10843799960E+04  0.10566000000E+00 0.  1.
          4    1    3    3  501    0  0.68626192943E+02  0.37290013016E+03 -0.22160210892E+03  0.43917144273E+03  0.00000000000E+00 0.  1.
         13    1    1    2    0    0  0.89229052362E+02  0.13744744132E+03  0.33231769432E+03  0.37052487641E+03  0.10566000000E+00 0. -1.
<mgrwt>
<rscale>  1 0.62740166E+03</rscale>
<asrwt>0</asrwt>
<pdfrwt beam="2">  1       21 0.20977135E+00 0.98150769E+03</pdfrwt>
<pdfrwt beam="1">  1        4 0.81625007E-01 0.98150769E+03</pdfrwt>
<totfact> 0.52079331E+00</totfact>
</mgrwt>
</event>
<event>
 6    1  0.1353269E-005  0.1156782E+04  0.7818608E-02  0.9330397E-01
         21   -1    0    0  501  502  0.00000000000E+00  0.00000000000E+00  0.56196327944E+03  0.56196327944E+03  0.00000000000E+00 0.  1.
          4   -1    0    0  502    0 -0.00000000000E+00 -0.00000000000E+00 -0.13910097180E+04  0.13910097180E+04  0.00000000000E+00 0.  1.
    9000010    2    1    2  501    0 -0.95464029806E+02 -0.58895933672E+03 -0.42497130585E+03  0.12323737986E+04  0.99103889301E+03 0.  0.
        -13    1    3    3    0    0  0.29249588640E+03 -0.34344849051E+02  0.16230576837E+03  0.33626862153E+03  0.10566000000E+00 0.  1.
          4    1    3    3  501    0 -0.38795991620E+03 -0.55461448767E+03 -0.58727707422E+03  0.89610517709E+03  0.00000000000E+00 0.  1.
         13    1    1    2    0    0  0.95464029806E+02  0.58895933672E+03 -0.40407513270E+03  0.72059919881E+03  0.10566000000E+00 0. -1.
<mgrwt>
<rscale>  1 0.98031992E+03</rscale>
<asrwt>0</asrwt>
<pdfrwt beam="1">  1       21 0.86455889E-01 0.11567820E+04</pdfrwt>
<pdfrwt beam="2">  1        4 0.21400150E+00 0.11567820E+04</pdfrwt>
<totfact> 0.45365321E+00</totfact>
</mgrwt>
</event>
<event>
 6    1  0.1353269E-005  0.1154250E+04  0.7818608E-02  0.9347677E-01
         21   -1    0    0  501  502  0.00000000000E+00  0.00000000000E+00  0.86476674247E+03  0.86476674247E+03  0.00000000000E+00 0. -1.
          4   -1    0    0  502    0 -0.00000000000E+00 -0.00000000000E+00 -0.85403041755E+03  0.85403041755E+03  0.00000000000E+00 0.  1.
    9000010    2    1    2  501    0  0.31132436844E+03  0.47045335844E+03 -0.97077160629E+01  0.11542910087E+04  0.10069976506E+04 0.  0.
        -13    1    3    3    0    0 -0.25974494390E+02  0.65265036056E+03 -0.25276708340E+03  0.70037017149E+03  0.10566000000E+00 0.  1.
          4    1    3    3  501    0  0.33729886283E+03 -0.18219700212E+03  0.24305936734E+03  0.45392083726E+03  0.00000000000E+00 0.  1.
         13    1    1    2    0    0 -0.31132436844E+03 -0.47045335844E+03  0.20444040985E+02  0.56450615127E+03  0.10566000000E+00 0. -1.
<mgrwt>
<rscale>  1 0.96509694E+03</rscale>
<asrwt>0</asrwt>
<pdfrwt beam="1">  1       21 0.13304104E+00 0.11542502E+04</pdfrwt>
<pdfrwt beam="2">  1        4 0.13138930E+00 0.11542502E+04</pdfrwt>
<totfact> 0.60742788E+00</totfact>
</mgrwt>
</event>
<event>
 6    1  0.1353269E-005  0.1041037E+04  0.7818608E-02  0.9630664E-01
          4   -1    0    0  502    0 -0.00000000000E+00  0.00000000000E+00  0.18926188154E+03  0.18926188154E+03  0.00000000000E+00 0.  1.
         21   -1    0    0  501  502  0.00000000000E+00 -0.00000000000E+00 -0.23996182253E+04  0.23996182253E+04  0.00000000000E+00 0.  1.
    9000010    2    1    2  501    0  0.25574645667E+03 -0.12565965320E+03 -0.19072090321E+04  0.21728333519E+04  0.10012801229E+04 0.  0.
        -13    1    3    3    0    0 -0.33613585132E+03  0.16905260531E+03 -0.60680455474E+03  0.71398730572E+03  0.10566000000E+00 0.  1.
          4    1    3    3  501    0  0.59188230799E+03 -0.29471225851E+03 -0.13004044773E+04  0.14588460462E+04  0.00000000000E+00 0.  1.
         13    1    1    2    0    0 -0.25574645667E+03  0.12565965320E+03 -0.30314731164E+03  0.41604675489E+03  0.10566000000E+00 0. -1.
<mgrwt>
<rscale>  1 0.75299472E+03</rscale>
<asrwt>0</asrwt>
<pdfrwt beam="2">  1       21 0.36917200E+00 0.10410372E+04</pdfrwt>
<pdfrwt beam="1">  1        4 0.29117216E-01 0.10410372E+04</pdfrwt>
<totfact> 0.44389170E+00</totfact>
</mgrwt>
</event>
<event>
 6    1  0.1353269E-005  0.1004401E+04  0.7818608E-02  0.1011881E+00
          4   -1    0    0  502    0 -0.00000000000E+00  0.00000000000E+00  0.74065875997E+03  0.74065875997E+03  0.00000000000E+00 0.  1.
         21   -1    0    0  501  502  0.00000000000E+00 -0.00000000000E+00 -0.41038272559E+03  0.41038272559E+03  0.00000000000E+00 0.  1.
    9000010    2    1    2  501    0 -0.65187865937E+02 -0.50596214043E+01  0.22848690607E+03  0.10300617540E+04  0.10022703693E+04 0.  0.
        -13    1    3    3    0    0 -0.38336700576E+03  0.35587056646E+03  0.10965537950E+03  0.53445152689E+03  0.10566000000E+00 0.  1.
          4    1    3    3  501    0  0.31817913982E+03 -0.36093018787E+03  0.11883152657E+03  0.49561022713E+03  0.00000000000E+00 0.  1.
         13    1    1    2    0    0  0.65187865937E+02  0.50596214043E+01  0.10178912832E+03  0.12097973153E+03  0.10566000000E+00 0. -1.
<mgrwt>
<rscale>  1 0.50733891E+03</rscale>
<asrwt>0</asrwt>
<pdfrwt beam="2">  1       21 0.63135804E-01 0.10044008E+04</pdfrwt>
<pdfrwt beam="1">  1        4 0.11394750E+00 0.10044008E+04</pdfrwt>
<totfact> 0.54509618E+01</totfact>
</mgrwt>
</event>
<event>
 6    1  0.1353269E-005  0.1054422E+04  0.7818608E-02  0.9521880E-01
          4   -1    0    0  502    0 -0.00000000000E+00  0.00000000000E+00  0.97665418747E+03  0.97665418747E+03  0.00000000000E+00 0.  1.
         21   -1    0    0  501  502  0.00000000000E+00 -0.00000000000E+00 -0.54071797912E+03  0.54071797912E+03  0.00000000000E+00 0. -1.
    9000010    2    1    2  501    0  0.27812894986E+03 -0.28581790939E+03  0.32671163068E+03  0.11038777777E+04  0.97609326833E+03 0.  0.
        -13    1    3    3    0    0 -0.32746777296E+03 -0.28711811126E+03  0.22361501736E+03  0.48956678736E+03  0.10566000000E+00 0.  1.
          4    1    3    3  501    0  0.60559672282E+03  0.13002018734E+01  0.10309661332E+03  0.61431099037E+03  0.00000000000E+00 0.  1.
         13    1    1    2    0    0 -0.27812894986E+03  0.28581790939E+03  0.10922457767E+03  0.41349438885E+03  0.10566000000E+00 0. -1.
<mgrwt>
<rscale>  1 0.82689768E+03</rscale>
<asrwt>0</asrwt>
<pdfrwt beam="2">  1       21 0.83187382E-01 0.10544220E+04</pdfrwt>
<pdfrwt beam="1">  1        4 0.15025449E+00 0.10544220E+04</pdfrwt>
<totfact> 0.14062318E+01</totfact>
</mgrwt>
</event>
<event>
 6    1  0.1353269E-005  0.9206357E+03  0.7818608E-02  0.9640730E-01
         21   -1    0    0  501  502  0.00000000000E+00  0.00000000000E+00  0.73780073643E+03  0.73780073643E+03  0.00000000000E+00 0.  1.
          4   -1    0    0  502    0 -0.00000000000E+00 -0.00000000000E+00 -0.68773922112E+03  0.68773922112E+03  0.00000000000E+00 0.  1.
    9000010    2    1    2  501    0  0.39607820846E+03  0.40543019393E+02  0.28438196405E+03  0.96355752552E+03  0.83008934451E+03 0.  0.
        -13    1    3    3    0    0 -0.25491046769E+03  0.50860996104E+02  0.19494880434E+02  0.26066501298E+03  0.10566000000E+00 0.  1.
          4    1    3    3  501    0  0.65098867615E+03 -0.10317976711E+02  0.26488708362E+03  0.70289251254E+03  0.00000000000E+00 0.  1.
         13    1    1    2    0    0 -0.39607820846E+03 -0.40543019393E+02 -0.23432044874E+03  0.46198243203E+03  0.10566000000E+00 0. -1.
<mgrwt>
<rscale>  1 0.74658099E+03</rscale>
<asrwt>0</asrwt>
<pdfrwt beam="1">  1       21 0.11350781E+00 0.92063565E+03</pdfrwt>
<pdfrwt beam="2">  1        4 0.10580603E+00 0.92063565E+03</pdfrwt>
<totfact> 0.16253930E+01</totfact>
</mgrwt>
</event>
<event>
 6    1  0.1353269E-005  0.1580697E+04  0.7818608E-02  0.8895719E-01
          4   -1    0    0  502    0 -0.00000000000E+00  0.00000000000E+00  0.15815880065E+04  0.15815880065E+04  0.00000000000E+00 0.  1.
         21   -1    0    0  501  502  0.00000000000E+00 -0.00000000000E+00 -0.12574391105E+04  0.12574391105E+04  0.00000000000E+00 0. -1.
    9000010    2    1    2  501    0  0.33032183868E+03 -0.11798813052E+04  0.39705889649E+02  0.15811955519E+04  0.99868433656E+03 0.  0.
        -13    1    3    3    0    0 -0.23937074689E+03 -0.35678532791E+03  0.32681577861E+03  0.53981727370E+03  0.10566000000E+00 0.  1.
          4    1    3    3  501    0  0.56969258557E+03 -0.82309597728E+03 -0.28710988896E+03  0.10413782781E+04  0.00000000000E+00 0.  1.
         13    1    1    2    0    0 -0.33032183868E+03  0.11798813052E+04  0.28444300634E+03  0.12578315652E+04  0.10566000000E+00 0. -1.
<mgrwt>
<rscale>  1 0.14831752E+04</rscale>
<asrwt>0</asrwt>
<pdfrwt beam="2">  1       21 0.19345217E+00 0.15806969E+04</pdfrwt>
<pdfrwt beam="1">  1        4 0.24332123E+00 0.15806969E+04</pdfrwt>
<totfact> 0.31634100E-01</totfact>
</mgrwt>
</event>
<event>
 6    1  0.1353269E-005  0.9881784E+03  0.7818608E-02  0.9898783E-01
          4   -1    0    0  502    0 -0.00000000000E+00  0.00000000000E+00  0.92377789614E+03  0.92377789614E+03  0.00000000000E+00 0.  1.
         21   -1    0    0  501  502  0.00000000000E+00 -0.00000000000E+00 -0.34283626328E+03  0.34283626328E+03  0.00000000000E+00 0.  1.
    9000010    2    1    2  501    0 -0.86377350429E+02  0.10659411420E+03  0.50321046592E+03  0.11089261848E+04  0.97860776543E+03 0.  0.
        -13    1    3    3    0    0 -0.56781933419E+02 -0.43095249957E+03  0.12945658642E+03  0.45354521691E+03  0.10566000000E+00 0.  1.
          4    1    3    3  501    0 -0.29595417009E+02  0.53754661377E+03  0.37375387950E+03  0.65538096793E+03  0.00000000000E+00 0.  1.
         13    1    1    2    0    0  0.86377350429E+02 -0.10659411420E+03  0.77731166943E+02  0.15768797458E+03  0.10566000000E+00 0. -1.
<mgrwt>
<rscale>  1 0.60320324E+03</rscale>
<asrwt>0</asrwt>
<pdfrwt beam="2">  1       21 0.52744041E-01 0.98817838E+03</pdfrwt>
<pdfrwt beam="1">  1        4 0.14211967E+00 0.98817838E+03</pdfrwt>
<totfact> 0.46202753E+01</totfact>
</mgrwt>
</event>
<event>
 6    1  0.1353269E-005  0.1054702E+04  0.7818608E-02  0.9643453E-01
          4   -1    0    0  502    0 -0.00000000000E+00  0.00000000000E+00  0.53277577739E+03  0.53277577739E+03  0.00000000000E+00 0.  1.
         21   -1    0    0  501  502  0.00000000000E+00 -0.00000000000E+00 -0.83207181453E+03  0.83207181453E+03  0.00000000000E+00 0.  1.
    9000010    2    1    2  501    0 -0.25769427629E+03  0.49275736519E+02 -0.31860661475E+03  0.11017746974E+04  0.10215492503E+04 0.  0.
        -13    1    3    3    0    0 -0.60036766630E+03 -0.13663158787E+03 -0.29509207784E+02  0.61642544566E+03  0.10566000000E+00 0.  1.
          4    1    3    3  501    0  0.34267339002E+03  0.18590732439E+03 -0.28909740696E+03  0.48534925177E+03  0.00000000000E+00 0.  1.
         13    1    1    2    0    0  0.25769427629E+03 -0.49275736519E+02  0.19310577606E+02  0.26307289449E+03  0.10566000000E+00 0. -1.
<mgrwt>
<rscale>  1 0.74485752E+03</rscale>
<asrwt>0</asrwt>
<pdfrwt beam="2">  1       21 0.12801105E+00 0.10547025E+04</pdfrwt>
<pdfrwt beam="1">  1        4 0.81965505E-01 0.10547025E+04</pdfrwt>
<totfact> 0.21487629E+01</totfact>
</mgrwt>
</event>
<event>
 6    1  0.1353269E-005  0.1006260E+04  0.7818608E-02  0.9852874E-01
         21   -1    0    0  501  502  0.00000000000E+00  0.00000000000E+00  0.74059155306E+03  0.74059155306E+03  0.00000000000E+00 0.  1.
          4   -1    0    0  502    0 -0.00000000000E+00 -0.00000000000E+00 -0.45199042026E+03  0.45199042026E+03  0.00000000000E+00 0.  1.
    9000010    2    1    2  501    0 -0.58252283099E+02 -0.13901249361E+03  0.25746284954E+03  0.10386748399E+04  0.99490728326E+03 0.  0.
        -13    1    3    3    0    0  0.28941478165E+03 -0.32899984661E+03 -0.15686086947E+03  0.46541074165E+03  0.10566000000E+00 0.  1.
          4    1    3    3  501    0 -0.34766706474E+03  0.18998735300E+03  0.41432371902E+03  0.57326409825E+03  0.00000000000E+00 0.  1.
         13    1    1    2    0    0  0.58252283099E+02  0.13901249361E+03  0.31138283258E+02  0.15390713341E+03  0.10566000000E+00 0. -1.
<mgrwt>
<rscale>  1 0.62600576E+03</rscale>
<asrwt>0</asrwt>
<pdfrwt beam="1">  1       21 0.11393716E+00 0.10062596E+04</pdfrwt>
<pdfrwt beam="2">  1        4 0.69536988E-01 0.10062596E+04</pdfrwt>
<totfact> 0.42474988E+01</totfact>
</mgrwt>
</event>
<event>
 6    1  0.1353269E-005  0.1046589E+04  0.7818608E-02  0.9915512E-01
          4   -1    0    0  502    0 -0.00000000000E+00  0.00000000000E+00  0.67858192085E+03  0.67858192085E+03  0.00000000000E+00 0.  1.
         21   -1    0    0  501  502  0.00000000000E+00 -0.00000000000E+00 -0.56675597024E+03  0.56675597024E+03  0.00000000000E+00 0.  1.
    9000010    2    1    2  501    0  0.10603376659E+03 -0.27102941280E+02 -0.52496996465E+02  0.10479049375E+04  0.10408511393E+04 0.  0.
        -13    1    3    3    0    0  0.22527389102E+03  0.33318873660E+03  0.32163353165E+03  0.51498660178E+03  0.10566000000E+00 0.  1.
          4    1    3    3  501    0 -0.11924012443E+03 -0.36029167788E+03 -0.37413052811E+03  0.53291833567E+03  0.00000000000E+00 0.  1.
         13    1    1    2    0    0 -0.10603376659E+03  0.27102941280E+02  0.16432294707E+03  0.19743295363E+03  0.10566000000E+00 0. -1.
<mgrwt>
<rscale>  1 0.59515355E+03</rscale>
<asrwt>0</asrwt>
<pdfrwt beam="2">  1       21 0.87193226E-01 0.10465891E+04</pdfrwt>
<pdfrwt beam="1">  1        4 0.10439722E+00 0.10465891E+04</pdfrwt>
<totfact> 0.31849880E+01</totfact>
</mgrwt>
</event>
<event>
 6    1  0.1353269E-005  0.1028415E+04  0.7818608E-02  0.9556926E-01
          4   -1    0    0  502    0 -0.00000000000E+00  0.00000000000E+00  0.86904439875E+03  0.86904439875E+03  0.00000000000E+00 0.  1.
         21   -1    0    0  501  502  0.00000000000E+00 -0.00000000000E+00 -0.78148831083E+03  0.78148831083E+03  0.00000000000E+00 0.  1.
    9000010    2    1    2  501    0  0.61496506397E+02  0.37562110981E+03 -0.33521324745E+03  0.10816680855E+04  0.95538729713E+03 0.  0.
        -13    1    3    3    0    0 -0.30427280908E+02 -0.30683713714E+03 -0.23084902766E+03  0.38518324585E+03  0.10566000000E+00 0.  1.
          4    1    3    3  501    0  0.91923787305E+02  0.68245824695E+03 -0.10436421979E+03  0.69648483965E+03  0.00000000000E+00 0.  1.
         13    1    1    2    0    0 -0.61496506397E+02 -0.37562110981E+03  0.42276933536E+03  0.56886462407E+03  0.10566000000E+00 0. -1.
<mgrwt>
<rscale>  1 0.80213937E+03</rscale>
<asrwt>0</asrwt>
<pdfrwt beam="2">  1       21 0.12022897E+00 0.10284152E+04</pdfrwt>
<pdfrwt beam="1">  1        4 0.13369914E+00 0.10284152E+04</pdfrwt>
<totfact> 0.76981413E+00</totfact>
</mgrwt>
</event>
<event>
 6    1  0.1353269E-005  0.1068318E+04  0.7818608E-02  0.9528058E-01
         21   -1    0    0  501  502  0.00000000000E+00  0.00000000000E+00  0.27369638817E+03  0.27369638817E+03  0.00000000000E+00 0.  1.
          4   -1    0    0  502    0 -0.00000000000E+00 -0.00000000000E+00 -0.25263180874E+04  0.25263180874E+04  0.00000000000E+00 0.  1.
    9000010    2    1    2  501    0 -0.31636664484E+03  0.20187903963E+03 -0.90186681702E+03  0.13980937347E+04  0.10002296411E+04 0.  0.
        -13    1    3    3    0    0  0.21338265507E+03  0.38252286398E+03 -0.15468083272E+03  0.46452348717E+03  0.10566000000E+00 0.  1.
          4    1    3    3  501    0 -0.52974929991E+03 -0.18064382435E+03 -0.74718598429E+03  0.93357024757E+03  0.00000000000E+00 0.  1.
         13    1    1    2    0    0  0.31636664484E+03 -0.20187903963E+03 -0.13507548822E+04  0.14019207408E+04  0.10566000000E+00 0. -1.
<mgrwt>
<rscale>  1 0.82246453E+03</rscale>
<asrwt>0</asrwt>
<pdfrwt beam="1">  1       21 0.42107135E-01 0.10683175E+04</pdfrwt>
<pdfrwt beam="2">  1        4 0.38866433E+00 0.10683175E+04</pdfrwt>
<totfact> 0.17877916E+00</totfact>
</mgrwt>
</event>
<event>
 6    1  0.1353269E-005  0.1041287E+04  0.7818608E-02  0.9635626E-01
         21   -1    0    0  501  502  0.00000000000E+00  0.00000000000E+00  0.38221693365E+03  0.38221693365E+03  0.00000000000E+00 0.  1.
          4   -1    0    0  502    0 -0.00000000000E+00 -0.00000000000E+00 -0.12462899809E+04  0.12462899809E+04  0.00000000000E+00 0.  1.
    9000010    2    1    2  501    0  0.25177677946E+03 -0.12246236750E+03 -0.46349698969E+03  0.11397843274E+04  0.10029408135E+04 0.  0.
        -13    1    3    3    0    0  0.37086847745E+03  0.18593242884E+03  0.15141886017E+03  0.44163557152E+03  0.10566000000E+00 0.  1.
          4    1    3    3  501    0 -0.11909169799E+03 -0.30839479634E+03 -0.61491584986E+03  0.69814875589E+03  0.00000000000E+00 0.  1.
         13    1    1    2    0    0 -0.25177677946E+03  0.12246236750E+03 -0.40057605753E+03  0.48872258712E+03  0.10566000000E+00 0. -1.
<mgrwt>
<rscale>  1 0.74982424E+03</rscale>
<asrwt>0</asrwt>
<pdfrwt beam="1">  1       21 0.58802607E-01 0.10412871E+04</pdfrwt>
<pdfrwt beam="2">  1        4 0.19173692E+00 0.10412871E+04</pdfrwt>
<totfact> 0.15676713E+01</totfact>
</mgrwt>
</event>
<event>
 6    1  0.1353269E-005  0.9753767E+03  0.7818608E-02  0.9716004E-01
          4   -1    0    0  502    0 -0.00000000000E+00  0.00000000000E+00  0.13438832026E+04  0.13438832026E+04  0.00000000000E+00 0.  1.
         21   -1    0    0  501  502  0.00000000000E+00 -0.00000000000E+00 -0.32431859262E+03  0.32431859262E+03  0.00000000000E+00 0.  1.
    9000010    2    1    2  501    0  0.25976168587E+03 -0.50573691264E+01  0.52052154579E+03  0.11055778520E+04  0.94013722227E+03 0.  0.
        -13    1    3    3    0    0 -0.47095099512E+02  0.25989538532E+03  0.63212032040E+03  0.68508369586E+03  0.10566000000E+00 0.  1.
          4    1    3    3  501    0  0.30685678539E+03 -0.26495275445E+03 -0.11159877461E+03  0.42049415611E+03  0.00000000000E+00 0.  1.
         13    1    1    2    0    0 -0.25976168587E+03  0.50573691264E+01  0.49904306416E+03  0.56262394321E+03  0.10566000000E+00 0. -1.
<mgrwt>
<rscale>  1 0.70071859E+03</rscale>
<asrwt>0</asrwt>
<pdfrwt beam="2">  1       21 0.49895169E-01 0.97537670E+03</pdfrwt>
<pdfrwt beam="1">  1        4 0.20675126E+00 0.97537670E+03</pdfrwt>
<totfact> 0.17983664E+01</totfact>
</mgrwt>
</event>
<event>
 6    1  0.1353269E-005  0.1107326E+04  0.7818608E-02  0.9413997E-01
          4   -1    0    0  502    0 -0.00000000000E+00  0.00000000000E+00  0.55891501756E+03  0.55891501756E+03  0.00000000000E+00 0.  1.
         21   -1    0    0  501  502  0.00000000000E+00 -0.00000000000E+00 -0.12363175014E+04  0.12363175014E+04  0.00000000000E+00 0. -1.
    9000010    2    1    2  501    0 -0.10732054787E+03 -0.49199204946E+03 -0.66470239711E+03  0.12915111872E+04  0.98620382941E+03 0.  0.
        -13    1    3    3    0    0 -0.27743629141E+03 -0.67368650786E+03 -0.73291079699E+03  0.10334324623E+04  0.10566000000E+00 0.  1.
          4    1    3    3  501    0  0.17011574354E+03  0.18169445839E+03  0.68208399878E+02  0.25807872486E+03  0.00000000000E+00 0.  1.
         13    1    1    2    0    0  0.10732054787E+03  0.49199204946E+03 -0.12700086729E+02  0.50372133178E+03  0.10566000000E+00 0. -1.
<mgrwt>
<rscale>  1 0.90932645E+03</rscale>
<asrwt>0</asrwt>
<pdfrwt beam="2">  1       21 0.19020269E+00 0.11073265E+04</pdfrwt>
<pdfrwt beam="1">  1        4 0.85986928E-01 0.11073265E+04</pdfrwt>
<totfact> 0.61880674E+00</totfact>
</mgrwt>
</event>
<event>
 6    1  0.1353269E-005  0.1044923E+04  0.7818608E-02  0.9611540E-01
          4   -1    0    0  502    0 -0.00000000000E+00  0.00000000000E+00  0.17277283046E+04  0.17277283046E+04  0.00000000000E+00 0.  1.
         21   -1    0    0  501  502  0.00000000000E+00 -0.00000000000E+00 -0.41279033093E+03  0.41279033093E+03  0.00000000000E+00 0.  1.
    9000010    2    1    2  501    0  0.24726031327E+02 -0.29975222225E+03  0.30762967766E+03  0.10892656756E+04  0.10007002159E+04 0.  0.
        -13    1    3    3    0    0  0.31660278879E+02  0.30161382897E+03 -0.14539659216E+03  0.33632343846E+03  0.10566000000E+00 0.  1.
          4    1    3    3  501    0 -0.69342475514E+01 -0.60136605122E+03  0.45302626982E+03  0.75294223715E+03  0.00000000000E+00 0.  1.
         13    1    1    2    0    0 -0.24726031327E+02  0.29975222225E+03  0.10073082960E+04  0.10512529599E+04  0.10566000000E+00 0. -1.
<mgrwt>
<rscale>  1 0.76537082E+03</rscale>
<asrwt>0</asrwt>
<pdfrwt beam="2">  1       21 0.63506206E-01 0.10449228E+04</pdfrwt>
<pdfrwt beam="1">  1        4 0.26580435E+00 0.10449228E+04</pdfrwt>
<totfact> 0.44571246E+00</totfact>
</mgrwt>
</event>
<event>
 6    1  0.1353269E-005  0.1026651E+04  0.7818608E-02  0.9822033E-01
          4   -1    0    0  502    0 -0.00000000000E+00  0.00000000000E+00  0.88487564720E+03  0.88487564720E+03  0.00000000000E+00 0.  1.
         21   -1    0    0  501  502  0.00000000000E+00 -0.00000000000E+00 -0.40310674152E+03  0.40310674152E+03  0.00000000000E+00 0.  1.
    9000010    2    1    2  501    0  0.44320733719E+02 -0.15053652021E+03  0.47419919991E+03  0.11308745183E+04  0.10145869719E+04 0.  0.
        -13    1    3    3    0    0  0.11603067693E+03  0.31039714116E+03 -0.13989762300E+03  0.35969550917E+03  0.10566000000E+00 0.  1.
          4    1    3    3  501    0 -0.71709943209E+02 -0.46093366137E+03  0.61409682291E+03  0.77117900908E+03  0.00000000000E+00 0.  1.
         13    1    1    2    0    0 -0.44320733719E+02  0.15053652021E+03  0.75697057743E+01  0.15710787047E+03  0.10566000000E+00 0. -1.
<mgrwt>
<rscale>  1 0.64193418E+03</rscale>
<asrwt>0</asrwt>
<pdfrwt beam="2">  1       21 0.62016422E-01 0.10266510E+04</pdfrwt>
<pdfrwt beam="1">  1        4 0.13613471E+00 0.10266510E+04</pdfrwt>
<totfact> 0.36047380E+01</totfact>
</mgrwt>
</event>
<event>
 6    1  0.1353269E-005  0.1078077E+04  0.7818608E-02  0.9551902E-01
         21   -1    0    0  501  502  0.00000000000E+00  0.00000000000E+00  0.71229768782E+03  0.71229768782E+03  0.00000000000E+00 0.  1.
          4   -1    0    0  502    0 -0.00000000000E+00 -0.00000000000E+00 -0.13608068520E+04  0.13608068520E+04  0.00000000000E+00 0.  1.
    9000010    2    1    2  501    0 -0.33318276548E+03 -0.44930456026E+02  0.25606847608E+03  0.11080707479E+04  0.10243145107E+04 0.  0.
        -13    1    3    3    0    0  0.27050946660E+03  0.25901652178E+03 -0.26576828546E+02  0.37546140821E+03  0.10566000000E+00 0.  1.
          4    1    3    3  501    0 -0.60369223208E+03 -0.30394697781E+03  0.28264530463E+03  0.73260933970E+03  0.00000000000E+00 0.  1.
         13    1    1    2    0    0  0.33318276548E+03  0.44930456026E+02 -0.90457764031E+03  0.96503379195E+03  0.10566000000E+00 0. -1.
<mgrwt>
<rscale>  1 0.80563120E+03</rscale>
<asrwt>0</asrwt>
<pdfrwt beam="1">  1       21 0.10958426E+00 0.10780769E+04</pdfrwt>
<pdfrwt beam="2">  1        4 0.20935490E+00 0.10780769E+04</pdfrwt>
<totfact> 0.27349468E+00</totfact>
</mgrwt>
</event>
<event>
 6    1  0.1353269E-005  0.1118257E+04  0.7818608E-02  0.9390970E-01
          4   -1    0    0  502    0 -0.00000000000E+00  0.00000000000E+00  0.96730373509E+03  0.96730373509E+03  0.00000000000E+00 0.  1.
         21   -1    0    0  501  502  0.00000000000E+00 -0.00000000000E+00 -0.94380186154E+03  0.94380186154E+03  0.00000000000E+00 0.  1.
    9000010    2    1    2  501    0 -0.10403259880E+03  0.52057835107E+03 -0.44453520847E+03  0.12033744877E+04  0.98421237794E+03 0.  0.
        -13    1    3    3    0    0 -0.37786830437E+03  0.44585087534E+03 -0.63386332827E+03  0.86217758529E+03  0.10566000000E+00 0.  1.
          4    1    3    3  501    0  0.27383570557E+03  0.74727475729E+02  0.18932811980E+03  0.34119690242E+03  0.00000000000E+00 0.  1.
         13    1    1    2    0    0  0.10403259880E+03 -0.52057835107E+03  0.46803708202E+03  0.70773110891E+03  0.10566000000E+00 0. -1.
<mgrwt>
<rscale>  1 0.92822566E+03</rscale>
<asrwt>0</asrwt>
<pdfrwt beam="2">  1       21 0.14520029E+00 0.11182569E+04</pdfrwt>
<pdfrwt beam="1">  1        4 0.14881596E+00 0.11182569E+04</pdfrwt>
<totfact> 0.34619165E+00</totfact>
</mgrwt>
</event>
<event>
 6    1  0.1353269E-005  0.1001290E+04  0.7818608E-02  0.1002057E+00
          4   -1    0    0  502    0 -0.00000000000E+00  0.00000000000E+00  0.58148076951E+03  0.58148076951E+03  0.00000000000E+00 0.  1.
         21   -1    0    0  501  502  0.00000000000E+00 -0.00000000000E+00 -0.51160513435E+03  0.51160513435E+03  0.00000000000E+00 0.  1.
    9000010    2    1    2  501    0  0.65154359451E+02 -0.61442423556E+02  0.63314341624E+02  0.10032898922E+04  0.99727711296E+03 0.  0.
        -13    1    3    3    0    0  0.88490663796E+02  0.17117201482E+03  0.48458899069E+03  0.52149492548E+03  0.10566000000E+00 0.  1.
          4    1    3    3  501    0 -0.23336304345E+02 -0.23261443838E+03 -0.42127464907E+03  0.48179496675E+03  0.00000000000E+00 0.  1.
         13    1    1    2    0    0 -0.65154359451E+02  0.61442423556E+02  0.65612935330E+01  0.89796011630E+02  0.10566000000E+00 0. -1.
<mgrwt>
<rscale>  1 0.54757498E+03</rscale>
<asrwt>0</asrwt>
<pdfrwt beam="2">  1       21 0.78708482E-01 0.10012901E+04</pdfrwt>
<pdfrwt beam="1">  1        4 0.89458580E-01 0.10012901E+04</pdfrwt>
<totfact> 0.58975943E+01</totfact>
</mgrwt>
</event>
<event>
 6    1  0.1353269E-005  0.1424670E+04  0.7818608E-02  0.9021841E-01
          4   -1    0    0  502    0 -0.00000000000E+00  0.00000000000E+00  0.19305053957E+04  0.19305053957E+04  0.00000000000E+00 0.  1.
         21   -1    0    0  501  502  0.00000000000E+00 -0.00000000000E+00 -0.81026103349E+03  0.81026103349E+03  0.00000000000E+00 0. -1.
    9000010    2    1    2  501    0  0.73342024007E+03 -0.70568434921E+03  0.94080909096E+03  0.17072807365E+04  0.99689022377E+03 0.  0.
        -13    1    3    3    0    0  0.16754453965E+03  0.12275736286E+02 -0.18971284607E+03  0.25340252879E+03  0.10566000000E+00 0.  1.
          4    1    3    3  501    0  0.56587570042E+03 -0.71796008550E+03  0.11305219370E+04  0.14538782077E+04  0.00000000000E+00 0.  1.
         13    1    1    2    0    0 -0.73342024007E+03  0.70568434921E+03  0.17943527123E+03  0.10334856927E+04  0.10566000000E+00 0. -1.
<mgrwt>
<rscale>  1 0.13097860E+04</rscale>
<asrwt>0</asrwt>
<pdfrwt beam="2">  1       21 0.12465554E+00 0.14246704E+04</pdfrwt>
<pdfrwt beam="1">  1        4 0.29700083E+00 0.14246704E+04</pdfrwt>
<totfact> 0.52782118E-01</totfact>
</mgrwt>
</event>
<event>
 6    1  0.1353269E-005  0.1086087E+04  0.7818608E-02  0.9417366E-01
          4   -1    0    0  502    0 -0.00000000000E+00  0.00000000000E+00  0.57025527167E+03  0.57025527167E+03  0.00000000000E+00 0.  1.
         21   -1    0    0  501  502  0.00000000000E+00 -0.00000000000E+00 -0.13911376732E+04  0.13911376732E+04  0.00000000000E+00 0. -1.
    9000010    2    1    2  501    0 -0.29062569709E+03  0.44000156527E+03 -0.13233382979E+03  0.10941191588E+04  0.94948397450E+03 0.  0.
        -13    1    3    3    0    0 -0.88037881565E+02  0.62870249989E+03 -0.36516939307E+03  0.73237026070E+03  0.10566000000E+00 0.  1.
          4    1    3    3  501    0 -0.20258781552E+03 -0.18870093463E+03  0.23283556328E+03  0.36174889807E+03  0.00000000000E+00 0.  1.
         13    1    1    2    0    0  0.29062569709E+03 -0.44000156527E+03 -0.68854857174E+03  0.86727378610E+03  0.10566000000E+00 0. -1.
<mgrwt>
<rscale>  1 0.90660201E+03</rscale>
<asrwt>0</asrwt>
<pdfrwt beam="2">  1       21 0.21402118E+00 0.10860868E+04</pdfrwt>
<pdfrwt beam="1">  1        4 0.87731580E-01 0.10860868E+04</pdfrwt>
<totfact> 0.40610925E+00</totfact>
</mgrwt>
</event>
<event>
 6    1  0.1353269E-005  0.9779960E+03  0.7818608E-02  0.1005193E+00
          4   -1    0    0  502    0 -0.00000000000E+00  0.00000000000E+00  0.36948861204E+03  0.36948861204E+03  0.00000000000E+00 0.  1.
         21   -1    0    0  501  502  0.00000000000E+00 -0.00000000000E+00 -0.12355003765E+04  0.12355003765E+04  0.00000000000E+00 0.  1.
    9000010    2    1    2  501    0  0.68195785135E+02 -0.54226218616E+02 -0.10293459751E+04  0.14198695045E+04  0.97410734799E+03 0.  0.
        -13    1    3    3    0    0  0.57087324659E+02  0.45745591278E+03 -0.56101917638E+03  0.72613180774E+03  0.10566000000E+00 0.  1.
          4    1    3    3  501    0  0.11108460476E+02 -0.51168213140E+03 -0.46832679868E+03  0.69373769671E+03  0.00000000000E+00 0.  1.
         13    1    1    2    0    0 -0.68195785135E+02  0.54226218616E+02  0.16333421056E+03  0.18511948412E+03  0.10566000000E+00 0. -1.
<mgrwt>
<rscale>  1 0.53430758E+03</rscale>
<asrwt>0</asrwt>
<pdfrwt beam="2">  1       21 0.19007698E+00 0.97799605E+03</pdfrwt>
<pdfrwt beam="1">  1        4 0.56844402E-01 0.97799605E+03</pdfrwt>
<totfact> 0.15941959E+01</totfact>
</mgrwt>
</event>
<event>
 6    1  0.1353269E-005  0.1114616E+04  0.7818608E-02  0.9436439E-01
          4   -1    0    0  502    0 -0.00000000000E+00  0.00000000000E+00  0.16647069079E+04  0.16647069079E+04  0.00000000000E+00 0.  1.
         21   -1    0    0  501  502  0.00000000000E+00 -0.00000000000E+00 -0.14696741077E+04  0.14696741077E+04  0.00000000000E+00 0.  1.
    9000010    2    1    2  501    0 -0.36161050597E+03 -0.27760174642E+03 -0.12171725027E+04  0.16504171628E+04  0.10171248803E+04 0.  0.
        -13    1    3    3    0    0 -0.43789603327E+03 -0.59152332718E+03 -0.58375754420E+03  0.93937514558E+03  0.10566000000E+00 0.  1.
          4    1    3    3  501    0  0.76285527303E+02  0.31392158076E+03 -0.63341495850E+03  0.71104201718E+03  0.00000000000E+00 0.  1.
         13    1    1    2    0    0  0.36161050597E+03  0.27760174642E+03  0.14122053029E+04  0.14839638528E+04  0.10566000000E+00 0. -1.
<mgrwt>
<rscale>  1 0.89136593E+03</rscale>
<asrwt>0</asrwt>
<pdfrwt beam="2">  1       21 0.22610371E+00 0.11146156E+04</pdfrwt>
<pdfrwt beam="1">  1        4 0.25610876E+00 0.11146156E+04</pdfrwt>
<totfact> 0.16997658E-01</totfact>
</mgrwt>
</event>
<event>
 6    1  0.1353269E-005  0.9042170E+03  0.7818608E-02  0.1029614E+00
         21   -1    0    0  501  502  0.00000000000E+00  0.00000000000E+00  0.50906320715E+03  0.50906320715E+03  0.00000000000E+00 0.  1.
          4   -1    0    0  502    0 -0.00000000000E+00 -0.00000000000E+00 -0.50518193386E+03  0.50518193386E+03  0.00000000000E+00 0.  1.
    9000010    2    1    2  501    0 -0.35561331666E+02 -0.38527647503E+02  0.94922372043E+02  0.90918572563E+03  0.90269565140E+03 0.  0.
        -13    1    3    3    0    0  0.21366707518E+03 -0.40269768624E+03  0.10490085292E+03  0.46778546966E+03  0.10566000000E+00 0.  1.
          4    1    3    3  501    0 -0.24922840685E+03  0.36417003874E+03 -0.99784808738E+01  0.44140025597E+03  0.00000000000E+00 0.  1.
         13    1    1    2    0    0  0.35561331666E+02  0.38527647503E+02 -0.91041098755E+02  0.10505941537E+03  0.10566000000E+00 0. -1.
<mgrwt>
<rscale>  1 0.44371216E+03</rscale>
<asrwt>0</asrwt>
<pdfrwt beam="1">  1       21 0.78317417E-01 0.90421702E+03</pdfrwt>
<pdfrwt beam="2">  1        4 0.77720297E-01 0.90421702E+03</pdfrwt>
<totfact> 0.83257239E+01</totfact>
</mgrwt>
</event>
<event>
 6    1  0.1353269E-005  0.1090463E+04  0.7818608E-02  0.9575768E-01
         21   -1    0    0  501  502  0.00000000000E+00  0.00000000000E+00  0.91038095992E+03  0.91038095992E+03  0.00000000000E+00 0.  1.
          4   -1    0    0  502    0 -0.00000000000E+00 -0.00000000000E+00 -0.57553911209E+03  0.57553911209E+03  0.00000000000E+00 0.  1.
    9000010    2    1    2  501    0  0.18824677320E+03 -0.23253823784E+03  0.42968145044E+03  0.11720643073E+04  0.10486170473E+04 0.  0.
        -13    1    3    3    0    0 -0.11645889503E+03 -0.41731533455E+03 -0.17735857128E+03  0.46815685048E+03  0.10566000000E+00 0.  1.
          4    1    3    3  501    0  0.30470566823E+03  0.18477709671E+03  0.60704002172E+03  0.70390745677E+03  0.00000000000E+00 0.  1.
         13    1    1    2    0    0 -0.18824677320E+03  0.23253823784E+03 -0.94839602612E+02  0.31385576475E+03  0.10566000000E+00 0. -1.
<mgrwt>
<rscale>  1 0.78920995E+03</rscale>
<asrwt>0</asrwt>
<pdfrwt beam="1">  1       21 0.14005861E+00 0.10904626E+04</pdfrwt>
<pdfrwt beam="2">  1        4 0.88544478E-01 0.10904626E+04</pdfrwt>
<totfact> 0.14049214E+01</totfact>
</mgrwt>
</event>
<event>
 6    1  0.1353269E-005  0.1047747E+04  0.7818608E-02  0.9569274E-01
          4   -1    0    0  502    0 -0.00000000000E+00  0.00000000000E+00  0.64717736349E+03  0.64717736349E+03  0.00000000000E+00 0.  1.
         21   -1    0    0  501  502  0.00000000000E+00 -0.00000000000E+00 -0.14700592811E+04  0.14700592811E+04  0.00000000000E+00 0.  1.
    9000010    2    1    2  501    0 -0.17013382417E+03 -0.30003866845E+03 -0.12087773989E+04  0.15996614768E+04  0.98934590491E+03 0.  0.
        -13    1    3    3    0    0 -0.38727249635E+03 -0.46725417591E+03 -0.11763706650E+04  0.13236896933E+04  0.10566000000E+00 0.  1.
          4    1    3    3  501    0  0.21713867218E+03  0.16721550747E+03 -0.32406733839E+02  0.27597178351E+03  0.00000000000E+00 0.  1.
         13    1    1    2    0    0  0.17013382417E+03  0.30003866845E+03  0.38589548127E+03  0.51757516780E+03  0.10566000000E+00 0. -1.
<mgrwt>
<rscale>  1 0.79363619E+03</rscale>
<asrwt>0</asrwt>
<pdfrwt beam="2">  1       21 0.22616296E+00 0.10477471E+04</pdfrwt>
<pdfrwt beam="1">  1        4 0.99565750E-01 0.10477471E+04</pdfrwt>
<totfact> 0.25129231E+00</totfact>
</mgrwt>
</event>
<event>
 6    1  0.1353269E-005  0.1012338E+04  0.7818608E-02  0.9784898E-01
          4   -1    0    0  502    0 -0.00000000000E+00  0.00000000000E+00  0.27937525694E+03  0.27937525694E+03  0.00000000000E+00 0.  1.
         21   -1    0    0  501  502  0.00000000000E+00 -0.00000000000E+00 -0.17011418353E+04  0.17011418353E+04  0.00000000000E+00 0.  1.
    9000010    2    1    2  501    0  0.98410173910E+02  0.15652312811E+03 -0.14742135701E+04  0.17883329355E+04  0.99531150200E+03 0.  0.
        -13    1    3    3    0    0 -0.45023572885E+03  0.45624413125E+02 -0.64977703945E+03  0.79183584837E+03  0.10566000000E+00 0.  1.
          4    1    3    3  501    0  0.54864590276E+03  0.11089871498E+03 -0.82443653067E+03  0.99649708716E+03  0.00000000000E+00 0.  1.
         13    1    1    2    0    0 -0.98410173910E+02 -0.15652312811E+03  0.52446991809E+02  0.19218415667E+03  0.10566000000E+00 0. -1.
<mgrwt>
<rscale>  1 0.66179311E+03</rscale>
<asrwt>0</asrwt>
<pdfrwt beam="2">  1       21 0.26171413E+00 0.10123384E+04</pdfrwt>
<pdfrwt beam="1">  1        4 0.42980809E-01 0.10123384E+04</pdfrwt>
<totfact> 0.96500830E+00</totfact>
</mgrwt>
</event>
<event>
 6    1  0.1353269E-005  0.1073901E+04  0.7818608E-02  0.9526933E-01
          4   -1    0    0  502    0 -0.00000000000E+00  0.00000000000E+00  0.50678424868E+03  0.50678424868E+03  0.00000000000E+00 0.  1.
         21   -1    0    0  501  502  0.00000000000E+00 -0.00000000000E+00 -0.12447321664E+04  0.12447321664E+04  0.00000000000E+00 0.  1.
    9000010    2    1    2  501    0 -0.13934200414E+03  0.34374677645E+03 -0.84385240789E+03  0.13657784047E+04  0.10078123456E+04 0.  0.
        -13    1    3    3    0    0 -0.18541615981E+03  0.57827515513E+03 -0.93085209145E+03  0.11114256316E+04  0.10566000000E+00 0.  1.
          4    1    3    3  501    0  0.46074155672E+02 -0.23452837868E+03  0.86999683556E+02  0.25435277306E+03  0.00000000000E+00 0.  1.
         13    1    1    2    0    0  0.13934200414E+03 -0.34374677645E+03  0.10590449018E+03  0.38573801037E+03  0.10566000000E+00 0. -1.
<mgrwt>
<rscale>  1 0.82326924E+03</rscale>
<asrwt>0</asrwt>
<pdfrwt beam="2">  1       21 0.19149726E+00 0.10739012E+04</pdfrwt>
<pdfrwt beam="1">  1        4 0.77966807E-01 0.10739012E+04</pdfrwt>
<totfact> 0.76300908E+00</totfact>
</mgrwt>
</event>
<event>
 6    1  0.1353269E-005  0.1004802E+04  0.7818608E-02  0.1017333E+00
          4   -1    0    0  502    0 -0.00000000000E+00  0.00000000000E+00  0.19656522230E+03  0.19656522230E+03  0.00000000000E+00 0.  1.
         21   -1    0    0  501  502  0.00000000000E+00 -0.00000000000E+00 -0.14723962665E+04  0.14723962665E+04  0.00000000000E+00 0.  1.
    9000010    2    1    2  501    0  0.40069251910E+02  0.38071095478E+02 -0.12597532721E+04  0.16113988344E+04  0.10032810891E+04 0.  0.
        -13    1    3    3    0    0  0.63896857724E+02  0.49890124010E+03 -0.42894528352E+03  0.66104411594E+03  0.10566000000E+00 0.  1.
          4    1    3    3  501    0 -0.23827605815E+02 -0.46083014462E+03 -0.83080798860E+03  0.95035471847E+03  0.00000000000E+00 0.  1.
         13    1    1    2    0    0 -0.40069251910E+02 -0.38071095478E+02 -0.16077772065E+02  0.57562654370E+02  0.10566000000E+00 0. -1.
<mgrwt>
<rscale>  1 0.48661587E+03</rscale>
<asrwt>0</asrwt>
<pdfrwt beam="2">  1       21 0.22652250E+00 0.10048024E+04</pdfrwt>
<pdfrwt beam="1">  1        4 0.30240804E-01 0.10048024E+04</pdfrwt>
<totfact> 0.32885323E+01</totfact>
</mgrwt>
</event>
<event>
 6    1  0.1353269E-005  0.1049270E+04  0.7818608E-02  0.9575500E-01
          4   -1    0    0  502    0 -0.00000000000E+00  0.00000000000E+00  0.11906160007E+04  0.11906160007E+04  0.00000000000E+00 0.  1.
         21   -1    0    0  501  502  0.00000000000E+00 -0.00000000000E+00 -0.73050856632E+03  0.73050856632E+03  0.00000000000E+00 0.  1.
    9000010    2    1    2  501    0  0.32748264288E+03  0.75761826597E+02 -0.29890474966E+03  0.10910135850E+04  0.99397276500E+03 0.  0.
        -13    1    3    3    0    0  0.59692539560E+03 -0.19157101509E+03 -0.33310676421E+03  0.70991514230E+03  0.10566000000E+00 0.  1.
          4    1    3    3  501    0 -0.26944275272E+03  0.26733284169E+03  0.34202014551E+02  0.38109844271E+03  0.00000000000E+00 0.  1.
         13    1    1    2    0    0 -0.32748264288E+03 -0.75761826597E+02  0.75901218400E+03  0.83011098197E+03  0.10566000000E+00 0. -1.
<mgrwt>
<rscale>  1 0.78939211E+03</rscale>
<asrwt>0</asrwt>
<pdfrwt beam="2">  1       21 0.11238593E+00 0.10492696E+04</pdfrwt>
<pdfrwt beam="1">  1        4 0.18317169E+00 0.10492696E+04</pdfrwt>
<totfact> 0.38548363E+00</totfact>
</mgrwt>
</event>
<event>
 6    1  0.1353269E-005  0.1001004E+04  0.7818608E-02  0.9972705E-01
          4   -1    0    0  502    0 -0.00000000000E+00  0.00000000000E+00  0.80352750837E+03  0.80352750837E+03  0.00000000000E+00 0.  1.
         21   -1    0    0  501  502  0.00000000000E+00 -0.00000000000E+00 -0.85402627602E+03  0.85402627602E+03  0.00000000000E+00 0.  1.
    9000010    2    1    2  501    0 -0.55164024177E+02  0.88444543026E+02 -0.55351703946E+03  0.11438487137E+04  0.99556178112E+03 0.  0.
        -13    1    3    3    0    0 -0.48233340737E+03 -0.14780571024E+03 -0.35509323516E+03  0.61691430578E+03  0.10566000000E+00 0.  1.
          4    1    3    3  501    0  0.42716938320E+03  0.23625025327E+03 -0.19842380430E+03  0.52693440789E+03  0.00000000000E+00 0.  1.
         13    1    1    2    0    0  0.55164024177E+02 -0.88444543026E+02  0.50301827180E+03  0.51370507072E+03  0.10566000000E+00 0. -1.
<mgrwt>
<rscale>  1 0.56863439E+03</rscale>
<asrwt>0</asrwt>
<pdfrwt beam="2">  1       21 0.13138866E+00 0.10010039E+04</pdfrwt>
<pdfrwt beam="1">  1        4 0.12361962E+00 0.10010039E+04</pdfrwt>
<totfact> 0.74727049E+00</totfact>
</mgrwt>
</event>
<event>
 6    1  0.1353269E-005  0.1103470E+04  0.7818608E-02  0.9425980E-01
         21   -1    0    0  501  502  0.00000000000E+00  0.00000000000E+00  0.42697641616E+03  0.42697641616E+03  0.00000000000E+00 0.  1.
          4   -1    0    0  502    0 -0.00000000000E+00 -0.00000000000E+00 -0.17905419917E+04  0.17905419917E+04  0.00000000000E+00 0.  1.
    9000010    2    1    2  501    0 -0.42317197180E+03 -0.24225925732E+03 -0.46964276071E+03  0.11992541615E+04  0.98988997146E+03 0.  0.
        -13    1    3    3    0    0 -0.39989212052E+03 -0.60810028968E+03 -0.38361092570E+03  0.82271320874E+03  0.10566000000E+00 0.  1.
          4    1    3    3  501    0 -0.23279851285E+02  0.36584103236E+03 -0.86031835014E+02  0.37654095271E+03  0.00000000000E+00 0.  1.
         13    1    1    2    0    0  0.42317197180E+03  0.24225925732E+03 -0.89392281484E+03  0.10182642464E+04  0.10566000000E+00 0. -1.
<mgrwt>
<rscale>  1 0.89968132E+03</rscale>
<asrwt>0</asrwt>
<pdfrwt beam="1">  1       21 0.65688680E-01 0.11034701E+04</pdfrwt>
<pdfrwt beam="2">  1        4 0.27546799E+00 0.11034701E+04</pdfrwt>
<totfact> 0.35721909E+00</totfact>
</mgrwt>
</event>
<event>
 6    1  0.1353269E-005  0.1011696E+04  0.7818608E-02  0.9858497E-01
         21   -1    0    0  501  502  0.00000000000E+00  0.00000000000E+00  0.35817247298E+03  0.35817247298E+03  0.00000000000E+00 0.  1.
          4   -1    0    0  502    0 -0.00000000000E+00 -0.00000000000E+00 -0.10093338510E+04  0.10093338510E+04  0.00000000000E+00 0.  1.
    9000010    2    1    2  501    0  0.55205536430E+02 -0.13475537430E+03 -0.42241852523E+03  0.10963422297E+04  0.10011604327E+04 0.  0.
        -13    1    3    3    0    0 -0.32388585138E+03 -0.41912606758E+03 -0.29194116289E+03  0.60481266439E+03  0.10566000000E+00 0.  1.
          4    1    3    3  501    0  0.37909138781E+03  0.28437069329E+03 -0.13047736235E+03  0.49152956533E+03  0.00000000000E+00 0.  1.
         13    1    1    2    0    0 -0.55205536430E+02  0.13475537430E+03 -0.22874285280E+03  0.27116409428E+03  0.10566000000E+00 0. -1.
<mgrwt>
<rscale>  1 0.62315575E+03</rscale>
<asrwt>0</asrwt>
<pdfrwt beam="1">  1       21 0.55103457E-01 0.10116960E+04</pdfrwt>
<pdfrwt beam="2">  1        4 0.15528213E+00 0.10116960E+04</pdfrwt>
<totfact> 0.33055106E+01</totfact>
</mgrwt>
</event>
<event>
 6    1  0.1353269E-005  0.1014021E+04  0.7818608E-02  0.9808331E-01
         21   -1    0    0  501  502  0.00000000000E+00  0.00000000000E+00  0.63326420245E+03  0.63326420245E+03  0.00000000000E+00 0.  1.
          4   -1    0    0  502    0 -0.00000000000E+00 -0.00000000000E+00 -0.58665411086E+03  0.58665411086E+03  0.00000000000E+00 0.  1.
    9000010    2    1    2  501    0  0.43106590897E+02 -0.16478972809E+03  0.14323381065E+03  0.10240867865E+04  0.99961191920E+03 0.  0.
        -13    1    3    3    0    0 -0.17739547119E+03  0.10831507306E+03  0.48902354155E+03  0.53136178222E+03  0.10566000000E+00 0.  1.
          4    1    3    3  501    0  0.22050206209E+03 -0.27310480116E+03 -0.34578973090E+03  0.49272500423E+03  0.00000000000E+00 0.  1.
         13    1    1    2    0    0 -0.43106590897E+02  0.16478972809E+03 -0.96623719052E+02  0.19583152686E+03  0.10566000000E+00 0. -1.
<mgrwt>
<rscale>  1 0.64917345E+03</rscale>
<asrwt>0</asrwt>
<pdfrwt beam="1">  1       21 0.97425262E-01 0.10140206E+04</pdfrwt>
<pdfrwt beam="2">  1        4 0.90254478E-01 0.10140206E+04</pdfrwt>
<totfact> 0.34574337E+01</totfact>
</mgrwt>
</event>
<event>
 6    1  0.1353269E-005  0.9975085E+03  0.7818608E-02  0.9973246E-01
          4   -1    0    0  502    0 -0.00000000000E+00  0.00000000000E+00  0.67081193010E+03  0.67081193010E+03  0.00000000000E+00 0.  1.
         21   -1    0    0  501  502  0.00000000000E+00 -0.00000000000E+00 -0.50093046790E+03  0.50093046790E+03  0.00000000000E+00 0.  1.
    9000010    2    1    2  501    0 -0.87280416840E+02 -0.58652331937E+02  0.31586433666E+02  0.99800842525E+03  0.99195017359E+03 0.  0.
        -13    1    3    3    0    0 -0.19556601382E+03  0.80335627864E+02  0.47551240036E+03  0.52039593862E+03  0.10566000000E+00 0.  1.
          4    1    3    3  501    0  0.10828559698E+03 -0.13898795980E+03 -0.44392596670E+03  0.47761248664E+03  0.00000000000E+00 0.  1.
         13    1    1    2    0    0  0.87280416840E+02  0.58652331937E+02  0.13829502854E+03  0.17373397275E+03  0.10566000000E+00 0. -1.
<mgrwt>
<rscale>  1 0.56839062E+03</rscale>
<asrwt>0</asrwt>
<pdfrwt beam="2">  1       21 0.77066226E-01 0.99750845E+03</pdfrwt>
<pdfrwt beam="1">  1        4 0.10320184E+00 0.99750845E+03</pdfrwt>
<totfact> 0.44053463E+01</totfact>
</mgrwt>
</event>
<event>
 6    1  0.1353269E-005  0.1008332E+04  0.7818608E-02  0.9672334E-01
          4   -1    0    0  502    0 -0.00000000000E+00  0.00000000000E+00  0.10354471425E+04  0.10354471425E+04  0.00000000000E+00 0.  1.
         21   -1    0    0  501  502  0.00000000000E+00 -0.00000000000E+00 -0.39642107465E+03  0.39642107465E+03  0.00000000000E+00 0.  1.
    9000010    2    1    2  501    0  0.11577515992E+03 -0.24645860615E+03  0.52277329369E+03  0.11357931408E+04  0.97086992424E+03 0.  0.
        -13    1    3    3    0    0  0.30887093265E+03 -0.48289991665E+03  0.53174567554E+02  0.57569186926E+03  0.10566000000E+00 0.  1.
          4    1    3    3  501    0 -0.19309577272E+03  0.23644131049E+03  0.46959872614E+03  0.56010127150E+03  0.00000000000E+00 0.  1.
         13    1    1    2    0    0 -0.11577515992E+03  0.24645860615E+03  0.11625277417E+03  0.29607507641E+03  0.10566000000E+00 0. -1.
<mgrwt>
<rscale>  1 0.72688149E+03</rscale>
<asrwt>0</asrwt>
<pdfrwt beam="2">  1       21 0.60987858E-01 0.10083324E+04</pdfrwt>
<pdfrwt beam="1">  1        4 0.15929956E+00 0.10083324E+04</pdfrwt>
<totfact> 0.24623163E+01</totfact>
</mgrwt>
</event>
<event>
 6    1  0.1353269E-005  0.1214408E+04  0.7818608E-02  0.9250765E-01
         21   -1    0    0  501  502  0.00000000000E+00  0.00000000000E+00  0.11813732905E+04  0.11813732905E+04  0.00000000000E+00 0.  1.
          4   -1    0    0  502    0 -0.00000000000E+00 -0.00000000000E+00 -0.85980583350E+03  0.85980583350E+03  0.00000000000E+00 0.  1.
    9000010    2    1    2  501    0 -0.68646118686E+03  0.72206075331E+02  0.52285280568E+03  0.13221808756E+04  0.99917192370E+03 0.  0.
        -13    1    3    3    0    0 -0.63411871095E+03 -0.16065063082E+03  0.74826796777E+03  0.99389140629E+03  0.10566000000E+00 0.  1.
          4    1    3    3  501    0 -0.52342475906E+02  0.23285670615E+03 -0.22541516208E+03  0.32828946934E+03  0.00000000000E+00 0.  1.
         13    1    1    2    0    0  0.68646118686E+03 -0.72206075331E+02 -0.20128534870E+03  0.71899824836E+03  0.10566000000E+00 0. -1.
<mgrwt>
<rscale>  1 0.10544472E+04</rscale>
<asrwt>0</asrwt>
<pdfrwt beam="1">  1       21 0.18174974E+00 0.12144082E+04</pdfrwt>
<pdfrwt beam="2">  1        4 0.13227782E+00 0.12144082E+04</pdfrwt>
<totfact> 0.24375254E+00</totfact>
</mgrwt>
</event>
<event>
 6    1  0.1353269E-005  0.1033811E+04  0.7818608E-02  0.9622708E-01
         21   -1    0    0  501  502  0.00000000000E+00  0.00000000000E+00  0.11633715354E+04  0.11633715354E+04  0.00000000000E+00 0.  1.
          4   -1    0    0  502    0 -0.00000000000E+00 -0.00000000000E+00 -0.42162257612E+03  0.42162257612E+03  0.00000000000E+00 0.  1.
    9000010    2    1    2  501    0 -0.27651911518E+03  0.11363924312E+03  0.76359151599E+03  0.12852378654E+04  0.98964017137E+03 0.  0.
        -13    1    3    3    0    0 -0.44773600550E+03 -0.31645603479E+03  0.27943160490E+03  0.61538117095E+03  0.10566000000E+00 0.  1.
          4    1    3    3  501    0  0.17121689032E+03  0.43009527792E+03  0.48415991110E+03  0.66985669447E+03  0.00000000000E+00 0.  1.
         13    1    1    2    0    0  0.27651911518E+03 -0.11363924312E+03 -0.21842556698E+02  0.29975624612E+03  0.10566000000E+00 0. -1.
<mgrwt>
<rscale>  1 0.75811272E+03</rscale>
<asrwt>0</asrwt>
<pdfrwt beam="1">  1       21 0.17898024E+00 0.10338106E+04</pdfrwt>
<pdfrwt beam="2">  1        4 0.64865012E-01 0.10338106E+04</pdfrwt>
<totfact> 0.14251277E+01</totfact>
</mgrwt>
</event>
<event>
 6    1  0.1353269E-005  0.1096144E+04  0.7818608E-02  0.9431954E-01
         21   -1    0    0  501  502  0.00000000000E+00  0.00000000000E+00  0.45414158358E+03  0.45414158358E+03  0.00000000000E+00 0.  1.
          4   -1    0    0  502    0 -0.00000000000E+00 -0.00000000000E+00 -0.15348314989E+04  0.15348314989E+04  0.00000000000E+00 0.  1.
    9000010    2    1    2  501    0  0.15651594265E+03 -0.46117030783E+03 -0.43288569271E+03  0.11785252957E+04  0.98201657651E+03 0.  0.
        -13    1    3    3    0    0  0.93206383451E+02  0.29689520876E+03 -0.24208309706E+03  0.39425680964E+03  0.10566000000E+00 0.  1.
          4    1    3    3  501    0  0.63309559201E+02 -0.75806551659E+03 -0.19080259566E+03  0.78426848607E+03  0.00000000000E+00 0.  1.
         13    1    1    2    0    0 -0.15651594265E+03  0.46117030783E+03 -0.64780422265E+03  0.81044778683E+03  0.10566000000E+00 0. -1.
<mgrwt>
<rscale>  1 0.89492042E+03</rscale>
<asrwt>0</asrwt>
<pdfrwt beam="1">  1       21 0.69867935E-01 0.10961441E+04</pdfrwt>
<pdfrwt beam="2">  1        4 0.23612793E+00 0.10961441E+04</pdfrwt>
<totfact> 0.54462053E+00</totfact>
</mgrwt>
</event>
<event>
 6    1  0.1353269E-005  0.1003818E+04  0.7818608E-02  0.1014210E+00
          4   -1    0    0  502    0 -0.00000000000E+00  0.00000000000E+00  0.77071872393E+03  0.77071872393E+03  0.00000000000E+00 0.  1.
         21   -1    0    0  501  502  0.00000000000E+00 -0.00000000000E+00 -0.60838443672E+03  0.60838443672E+03  0.00000000000E+00 0. -1.
    9000010    2    1    2  501    0  0.14588976774E+02  0.59208092045E+02  0.43913250076E+03  0.10956676325E+04  0.10019639571E+04 0.  0.
        -13    1    3    3    0    0 -0.13580287561E+03  0.10871058621E+03  0.73758381990E+03  0.75781944757E+03  0.10566000000E+00 0.  1.
          4    1    3    3  501    0  0.15039185239E+03 -0.49502494163E+02 -0.29845131914E+03  0.33784818497E+03  0.00000000000E+00 0.  1.
         13    1    1    2    0    0 -0.14588976774E+02 -0.59208092045E+02 -0.27679821355E+03  0.28343552811E+03  0.10566000000E+00 0. -1.
<mgrwt>
<rscale>  1 0.49835227E+03</rscale>
<asrwt>0</asrwt>
<pdfrwt beam="2">  1       21 0.93597605E-01 0.10038178E+04</pdfrwt>
<pdfrwt beam="1">  1        4 0.11857211E+00 0.10038178E+04</pdfrwt>
<totfact> 0.19677936E+01</totfact>
</mgrwt>
</event>
<event>
 6    1  0.1353269E-005  0.1018520E+04  0.7818608E-02  0.9893386E-01
         21   -1    0    0  501  502  0.00000000000E+00  0.00000000000E+00  0.11709647247E+04  0.11709647247E+04  0.00000000000E+00 0.  1.
          4   -1    0    0  502    0 -0.00000000000E+00 -0.00000000000E+00 -0.30921115001E+03  0.30921115001E+03  0.00000000000E+00 0.  1.
    9000010    2    1    2  501    0  0.10999545411E+03 -0.64465572027E+02  0.88652182334E+03  0.13502979043E+04  0.10105091178E+04 0.  0.
        -13    1    3    3    0    0 -0.11627504705E+03 -0.35251691325E+03  0.91045969075E+03  0.98322170457E+03  0.10566000000E+00 0.  1.
          4    1    3    3  501    0  0.22627050117E+03  0.28805134122E+03 -0.23937867411E+02  0.36707619968E+03  0.00000000000E+00 0.  1.
         13    1    1    2    0    0 -0.10999545411E+03  0.64465572027E+02 -0.24768248652E+02  0.12987797045E+03  0.10566000000E+00 0. -1.
<mgrwt>
<rscale>  1 0.60582895E+03</rscale>
<asrwt>0</asrwt>
<pdfrwt beam="1">  1       21 0.18014842E+00 0.10185202E+04</pdfrwt>
<pdfrwt beam="2">  1        4 0.47570947E-01 0.10185202E+04</pdfrwt>
<totfact> 0.27271849E+01</totfact>
</mgrwt>
</event>
<event>
 6    1  0.1353269E-005  0.1064093E+04  0.7818608E-02  0.9522982E-01
         21   -1    0    0  501  502  0.00000000000E+00  0.00000000000E+00  0.97153606064E+03  0.97153606064E+03  0.00000000000E+00 0.  1.
          4   -1    0    0  502    0 -0.00000000000E+00 -0.00000000000E+00 -0.74524460797E+03  0.74524460797E+03  0.00000000000E+00 0.  1.
    9000010    2    1    2  501    0  0.16469017655E+03 -0.34970677261E+03  0.56326328495E+03  0.12039768972E+04  0.99140161374E+03 0.  0.
        -13    1    3    3    0    0  0.68593144330E+02 -0.68699632274E+03  0.48749221654E+03  0.84517314159E+03  0.10566000000E+00 0.  1.
          4    1    3    3  501    0  0.96097032220E+02  0.33728955013E+03  0.75771068406E+02  0.35880375560E+03  0.00000000000E+00 0.  1.
         13    1    1    2    0    0 -0.16469017655E+03  0.34970677261E+03 -0.33697183228E+03  0.51280377141E+03  0.10566000000E+00 0. -1.
<mgrwt>
<rscale>  1 0.82610467E+03</rscale>
<asrwt>0</asrwt>
<pdfrwt beam="1">  1       21 0.14946709E+00 0.10640934E+04</pdfrwt>
<pdfrwt beam="2">  1        4 0.11465302E+00 0.10640934E+04</pdfrwt>
<totfact> 0.63043330E+00</totfact>
</mgrwt>
</event>
<event>
 6    1  0.1353269E-005  0.1105886E+04  0.7818608E-02  0.9423127E-01
          4   -1    0    0  502    0 -0.00000000000E+00  0.00000000000E+00  0.68620279742E+03  0.68620279742E+03  0.00000000000E+00 0.  1.
         21   -1    0    0  501  502  0.00000000000E+00 -0.00000000000E+00 -0.10835060400E+04  0.10835060400E+04  0.00000000000E+00 0.  1.
    9000010    2    1    2  501    0  0.36121825858E+03  0.33014540247E+03 -0.57828005803E+03  0.12479548379E+04  0.99172013930E+03 0.  0.
        -13    1    3    3    0    0 -0.16052447139E+03 -0.18543393558E+03  0.84451158755E+02  0.25939518067E+03  0.10566000000E+00 0.  1.
          4    1    3    3  501    0  0.52174272997E+03  0.51557933805E+03 -0.66273121679E+03  0.98855965718E+03  0.00000000000E+00 0.  1.
         13    1    1    2    0    0 -0.36121825858E+03 -0.33014540247E+03  0.18097681550E+03  0.52175399952E+03  0.10566000000E+00 0. -1.
<mgrwt>
<rscale>  1 0.90196598E+03</rscale>
<asrwt>0</asrwt>
<pdfrwt beam="2">  1       21 0.16669323E+00 0.11058858E+04</pdfrwt>
<pdfrwt beam="1">  1        4 0.10556966E+00 0.11058858E+04</pdfrwt>
<totfact> 0.56332291E+00</totfact>
</mgrwt>
</event>
<event>
 6    1  0.1353269E-005  0.1060313E+04  0.7818608E-02  0.9712180E-01
          4   -1    0    0  502    0 -0.00000000000E+00  0.00000000000E+00  0.73468640462E+03  0.73468640462E+03  0.00000000000E+00 0.  1.
         21   -1    0    0  501  502  0.00000000000E+00 -0.00000000000E+00 -0.55488892827E+03  0.55488892827E+03  0.00000000000E+00 0.  1.
    9000010    2    1    2  501    0  0.18709362954E+03 -0.83410889205E+02  0.84577365151E+02  0.10636809253E+04  0.10403376267E+04 0.  0.
        -13    1    3    3    0    0  0.19858731990E+03  0.46371987296E+03  0.10817311704E+03  0.51592100036E+03  0.10566000000E+00 0.  1.
          4    1    3    3  501    0 -0.11493690361E+02 -0.54713076216E+03 -0.23595751888E+02  0.54775992491E+03  0.00000000000E+00 0.  1.
         13    1    1    2    0    0 -0.18709362954E+03  0.83410889205E+02  0.95220111196E+02  0.22589440761E+03  0.10566000000E+00 0. -1.
<mgrwt>
<rscale>  1 0.70296200E+03</rscale>
<asrwt>0</asrwt>
<pdfrwt beam="2">  1       21 0.85367527E-01 0.10603131E+04</pdfrwt>
<pdfrwt beam="1">  1        4 0.11302868E+00 0.10603131E+04</pdfrwt>
<totfact> 0.27529405E+01</totfact>
</mgrwt>
</event>
<event>
 6    1  0.1353269E-005  0.1017387E+04  0.7818608E-02  0.9978225E-01
         21   -1    0    0  501  502  0.00000000000E+00  0.00000000000E+00  0.67694089487E+03  0.67694089487E+03  0.00000000000E+00 0.  1.
          4   -1    0    0  502    0 -0.00000000000E+00 -0.00000000000E+00 -0.94478289877E+03  0.94478289877E+03  0.00000000000E+00 0.  1.
    9000010    2    1    2  501    0 -0.43298208340E+02  0.87427394631E+02  0.28801547855E+03  0.10573694403E+04  0.10126988364E+04 0.  0.
        -13    1    3    3    0    0 -0.35197750968E+03 -0.28264367654E+03 -0.70289451490E+02  0.45685471801E+03  0.10566000000E+00 0.  1.
          4    1    3    3  501    0  0.30867930134E+03  0.37007107117E+03  0.35830493004E+03  0.60051472229E+03  0.00000000000E+00 0.  1.
         13    1    1    2    0    0  0.43298208340E+02 -0.87427394631E+02 -0.55585748245E+03  0.56435435334E+03  0.10566000000E+00 0. -1.
<mgrwt>
<rscale>  1 0.56615413E+03</rscale>
<asrwt>0</asrwt>
<pdfrwt beam="1">  1       21 0.10414475E+00 0.10173874E+04</pdfrwt>
<pdfrwt beam="2">  1        4 0.14535121E+00 0.10173874E+04</pdfrwt>
<totfact> 0.89216318E+00</totfact>
</mgrwt>
</event>
<event>
 6    1  0.1353269E-005  0.1028569E+04  0.7818608E-02  0.9881264E-01
         21   -1    0    0  501  502  0.00000000000E+00  0.00000000000E+00  0.44105421474E+03  0.44105421474E+03  0.00000000000E+00 0.  1.
          4   -1    0    0  502    0 -0.00000000000E+00 -0.00000000000E+00 -0.77735282412E+03  0.77735282412E+03  0.00000000000E+00 0.  1.
    9000010    2    1    2  501    0  0.48872706409E+02 -0.11909174097E+03 -0.23620442879E+03  0.10553418974E+04  0.10204815550E+04 0.  0.
        -13    1    3    3    0    0 -0.46481794056E+03 -0.71501614758E+01 -0.25313295678E+03  0.52932329218E+03  0.10566000000E+00 0.  1.
          4    1    3    3  501    0  0.51369064697E+03 -0.11194157949E+03  0.16928527987E+02  0.52601860524E+03  0.00000000000E+00 0.  1.
         13    1    1    2    0    0 -0.48872706409E+02  0.11909174097E+03 -0.10009418059E+03  0.16306514143E+03  0.10566000000E+00 0. -1.
<mgrwt>
<rscale>  1 0.61177951E+03</rscale>
<asrwt>0</asrwt>
<pdfrwt beam="1">  1       21 0.67854495E-01 0.10285689E+04</pdfrwt>
<pdfrwt beam="2">  1        4 0.11959274E+00 0.10285689E+04</pdfrwt>
<totfact> 0.40966836E+01</totfact>
</mgrwt>
</event>
<event>
 6    1  0.1353269E-005  0.1161483E+04  0.7818608E-02  0.9326033E-01
          4   -1    0    0  502    0 -0.00000000000E+00  0.00000000000E+00  0.55385189427E+03  0.55385189427E+03  0.00000000000E+00 0.  1.
         21   -1    0    0  501  502  0.00000000000E+00 -0.00000000000E+00 -0.14742471936E+04  0.14742471936E+04  0.00000000000E+00 0. -1.
    9000010    2    1    2  501    0 -0.14587908875E+03 -0.58080560184E+03 -0.38164930755E+03  0.12225786906E+04  0.99520179109E+03 0.  0.
        -13    1    3    3    0    0 -0.19668312969E+03  0.23586734688E+03  0.26366216634E+02  0.30824154064E+03  0.10566000000E+00 0.  1.
          4    1    3    3  501    0  0.50804040945E+02 -0.81667294872E+03 -0.40801552418E+03  0.91433714992E+03  0.00000000000E+00 0.  1.
         13    1    1    2    0    0  0.14587908875E+03  0.58080560184E+03 -0.53874599176E+03  0.80552039730E+03  0.10566000000E+00 0. -1.
<mgrwt>
<rscale>  1 0.98421130E+03</rscale>
<asrwt>0</asrwt>
<pdfrwt beam="2">  1       21 0.22680726E+00 0.11614829E+04</pdfrwt>
<pdfrwt beam="1">  1        4 0.85207984E-01 0.11614829E+04</pdfrwt>
<totfact> 0.35396301E+00</totfact>
</mgrwt>
</event>
<event>
 6    1  0.1353269E-005  0.1024177E+04  0.7818608E-02  0.9889704E-01
         21   -1    0    0  501  502  0.00000000000E+00  0.00000000000E+00  0.13354283642E+04  0.13354283642E+04  0.00000000000E+00 0.  1.
          4   -1    0    0  502    0 -0.00000000000E+00 -0.00000000000E+00 -0.25378343857E+03  0.25378343857E+03  0.00000000000E+00 0.  1.
    9000010    2    1    2  501    0  0.12686523421E+03  0.25254724324E+01  0.10290450977E+04  0.14518512600E+04  0.10162859353E+04 0.  0.
        -13    1    3    3    0    0 -0.35525969388E+03 -0.19244566677E+03  0.15095994937E+03  0.43131624387E+03  0.10566000000E+00 0.  1.
          4    1    3    3  501    0  0.48212492809E+03  0.19497113920E+03  0.87808514828E+03  0.10205350161E+04  0.00000000000E+00 0.  1.
         13    1    1    2    0    0 -0.12686523421E+03 -0.25254724324E+01  0.52599828018E+02  0.13736054286E+03  0.10566000000E+00 0. -1.
<mgrwt>
<rscale>  1 0.60762891E+03</rscale>
<asrwt>0</asrwt>
<pdfrwt beam="1">  1       21 0.20545051E+00 0.10241769E+04</pdfrwt>
<pdfrwt beam="2">  1        4 0.39043607E-01 0.10241769E+04</pdfrwt>
<totfact> 0.27226533E+01</totfact>
</mgrwt>
</event>
<event>
 6    1  0.1353269E-005  0.1028162E+04  0.7818608E-02  0.9624071E-01
          4   -1    0    0  502    0 -0.00000000000E+00  0.00000000000E+00  0.31356495282E+03  0.31356495282E+03  0.00000000000E+00 0.  1.
         21   -1    0    0  501  502  0.00000000000E+00 -0.00000000000E+00 -0.14670625582E+04  0.14670625582E+04  0.00000000000E+00 0.  1.
    9000010    2    1    2  501    0 -0.27926756931E+03 -0.11627075862E+03 -0.10254924680E+04  0.14521543905E+04  0.98265370665E+03 0.  0.
        -13    1    3    3    0    0 -0.13436601657E+03 -0.41740139241E+03 -0.75305225280E+02  0.44491464003E+03  0.10566000000E+00 0.  1.
          4    1    3    3  501    0 -0.14490155274E+03  0.30113063378E+03 -0.95018724275E+03  0.10072397504E+04  0.00000000000E+00 0.  1.
         13    1    1    2    0    0  0.27926756931E+03  0.11627075862E+03 -0.12800513738E+03  0.32847312058E+03  0.10566000000E+00 0. -1.
<mgrwt>
<rscale>  1 0.75723272E+03</rscale>
<asrwt>0</asrwt>
<pdfrwt beam="2">  1       21 0.22570193E+00 0.10281622E+04</pdfrwt>
<pdfrwt beam="1">  1        4 0.48240762E-01 0.10281622E+04</pdfrwt>
<totfact> 0.12881970E+01</totfact>
</mgrwt>
</event>
<event>
 6    1  0.1353269E-005  0.1074027E+04  0.7818608E-02  0.9553243E-01
          4   -1    0    0  502    0 -0.00000000000E+00  0.00000000000E+00  0.23014828917E+04  0.23014828917E+04  0.00000000000E+00 0.  1.
         21   -1    0    0  501  502  0.00000000000E+00 -0.00000000000E+00 -0.38153938590E+03  0.38153938590E+03  0.00000000000E+00 0.  1.
    9000010    2    1    2  501    0  0.31067856348E+03  0.13424477297E+03  0.43296094290E+03  0.11580108080E+04  0.10193090917E+04 0.  0.
        -13    1    3    3    0    0  0.47895511484E+03  0.12866822445E+03 -0.17597052192E+03  0.52623108019E+03  0.10566000000E+00 0.  1.
          4    1    3    3  501    0 -0.16827655136E+03  0.55765485173E+01  0.60893146482E+03  0.63177972782E+03  0.00000000000E+00 0.  1.
         13    1    1    2    0    0 -0.31067856348E+03 -0.13424477297E+03  0.14869825629E+04  0.15250114696E+04  0.10566000000E+00 0. -1.
<mgrwt>
<rscale>  1 0.80469698E+03</rscale>
<asrwt>0</asrwt>
<pdfrwt beam="2">  1       21 0.58698369E-01 0.10740269E+04</pdfrwt>
<pdfrwt beam="1">  1        4 0.35407428E+00 0.10740269E+04</pdfrwt>
<totfact> 0.14793006E+00</totfact>
</mgrwt>
</event>
<event>
 6    1  0.1353269E-005  0.1095970E+04  0.7818608E-02  0.9514553E-01
         21   -1    0    0  501  502  0.00000000000E+00  0.00000000000E+00  0.43922282865E+03  0.43922282865E+03  0.00000000000E+00 0.  1.
          4   -1    0    0  502    0 -0.00000000000E+00 -0.00000000000E+00 -0.13257467088E+04  0.13257467088E+04  0.00000000000E+00 0.  1.
    9000010    2    1    2  501    0  0.33272141727E+03  0.14844627150E+03 -0.42152469274E+03  0.11742377096E+04  0.10336398284E+04 0.  0.
        -13    1    3    3    0    0 -0.22065594363E+03  0.16095751897E+03  0.20256969590E+03  0.34004538114E+03  0.10566000000E+00 0.  1.
          4    1    3    3  501    0  0.55337736090E+03 -0.12511247468E+02 -0.62409438865E+03  0.83419232843E+03  0.00000000000E+00 0.  1.
         13    1    1    2    0    0 -0.33272141727E+03 -0.14844627150E+03 -0.46499918746E+03  0.59073182793E+03  0.10566000000E+00 0. -1.
<mgrwt>
<rscale>  1 0.83219343E+03</rscale>
<asrwt>0</asrwt>
<pdfrwt beam="1">  1       21 0.67572745E-01 0.10959704E+04</pdfrwt>
<pdfrwt beam="2">  1        4 0.20396103E+00 0.10959704E+04</pdfrwt>
<totfact> 0.94475193E+00</totfact>
</mgrwt>
</event>
<event>
 6    1  0.1353269E-005  0.1046523E+04  0.7818608E-02  0.9606861E-01
         21   -1    0    0  501  502  0.00000000000E+00  0.00000000000E+00  0.39059367972E+03  0.39059367972E+03  0.00000000000E+00 0.  1.
          4   -1    0    0  502    0 -0.00000000000E+00 -0.00000000000E+00 -0.16780269779E+04  0.16780269779E+04  0.00000000000E+00 0.  1.
    9000010    2    1    2  501    0 -0.25875702298E+03  0.15998253751E+03 -0.38301986245E+03  0.11144124607E+04  0.10013297700E+04 0.  0.
        -13    1    3    3    0    0  0.34940372515E+03 -0.85462717111E+02 -0.26803530694E+03  0.44858641987E+03  0.10566000000E+00 0.  1.
          4    1    3    3  501    0 -0.60816074814E+03  0.24544525462E+03 -0.11498455551E+03  0.66582604079E+03  0.00000000000E+00 0.  1.
         13    1    1    2    0    0  0.25875702298E+03 -0.15998253751E+03 -0.90441343571E+03  0.95420819694E+03  0.10566000000E+00 0. -1.
<mgrwt>
<rscale>  1 0.76843740E+03</rscale>
<asrwt>0</asrwt>
<pdfrwt beam="1">  1       21 0.60091334E-01 0.10465233E+04</pdfrwt>
<pdfrwt beam="2">  1        4 0.25815800E+00 0.10465233E+04</pdfrwt>
<totfact> 0.56226720E+00</totfact>
</mgrwt>
</event>
<event>
 6    1  0.1353269E-005  0.1190112E+04  0.7818608E-02  0.9274685E-01
          4   -1    0    0  502    0 -0.00000000000E+00  0.00000000000E+00  0.85792076106E+03  0.85792076106E+03  0.00000000000E+00 0.  1.
         21   -1    0    0  501  502  0.00000000000E+00 -0.00000000000E+00 -0.13695666099E+04  0.13695666099E+04  0.00000000000E+00 0.  1.
    9000010    2    1    2  501    0 -0.49383337229E+03 -0.45506144792E+03 -0.86253725407E+03  0.14698086063E+04  0.98255508933E+03 0.  0.
        -13    1    3    3    0    0  0.12514039976E+03 -0.46038838218E+03 -0.66816272906E+03  0.82101097786E+03  0.10566000000E+00 0.  1.
          4    1    3    3  501    0 -0.61897377205E+03  0.53269342605E+01 -0.19437452500E+03  0.64879762845E+03  0.00000000000E+00 0.  1.
         13    1    1    2    0    0  0.49383337229E+03  0.45506144792E+03  0.35089140522E+03  0.75767876464E+03  0.10566000000E+00 0. -1.
<mgrwt>
<rscale>  1 0.10314715E+04</rscale>
<asrwt>0</asrwt>
<pdfrwt beam="2">  1       21 0.21070256E+00 0.11901121E+04</pdfrwt>
<pdfrwt beam="1">  1        4 0.13198781E+00 0.11901121E+04</pdfrwt>
<totfact> 0.15430916E+00</totfact>
</mgrwt>
</event>
<event>
 6    1  0.1353269E-005  0.1043578E+04  0.7818608E-02  0.9628802E-01
          4   -1    0    0  502    0 -0.00000000000E+00  0.00000000000E+00  0.76060972732E+03  0.76060972732E+03  0.00000000000E+00 0.  1.
         21   -1    0    0  501  502  0.00000000000E+00 -0.00000000000E+00 -0.77251205989E+03  0.77251205989E+03  0.00000000000E+00 0.  1.
    9000010    2    1    2  501    0  0.27531413701E+03 -0.72388028502E+02 -0.34110078807E+03  0.10979097297E+04  0.10040010589E+04 0.  0.
        -13    1    3    3    0    0  0.51369577825E+03 -0.38538624419E+03 -0.27658219297E+03  0.69921644033E+03  0.10566000000E+00 0.  1.
          4    1    3    3  501    0 -0.23838164124E+03  0.31299821569E+03 -0.64518595092E+02  0.39869328940E+03  0.00000000000E+00 0.  1.
         13    1    1    2    0    0 -0.27531413701E+03  0.72388028502E+02  0.32919845550E+03  0.43521205748E+03  0.10566000000E+00 0. -1.
<mgrwt>
<rscale>  1 0.75418843E+03</rscale>
<asrwt>0</asrwt>
<pdfrwt beam="2">  1       21 0.11884801E+00 0.10435785E+04</pdfrwt>
<pdfrwt beam="1">  1        4 0.11701688E+00 0.10435785E+04</pdfrwt>
<totfact> 0.11119352E+01</totfact>
</mgrwt>
</event>
<event>
 6    1  0.1353269E-005  0.1079885E+04  0.7818608E-02  0.9493020E-01
         21   -1    0    0  501  502  0.00000000000E+00  0.00000000000E+00  0.12670306952E+04  0.12670306952E+04  0.00000000000E+00 0.  1.
          4   -1    0    0  502    0 -0.00000000000E+00 -0.00000000000E+00 -0.43945144739E+03  0.43945144739E+03  0.00000000000E+00 0.  1.
    9000010    2    1    2  501    0  0.40201815914E+03  0.83695558915E+02  0.63714069821E+03  0.12538339357E+04  0.99876309610E+03 0.  0.
        -13    1    3    3    0    0  0.43646996606E+03  0.46987370419E+03  0.20505620323E+03  0.67330185416E+03  0.10566000000E+00 0.  1.
          4    1    3    3  501    0 -0.34451806925E+02 -0.38617814528E+03  0.43208449498E+03  0.58053208154E+03  0.00000000000E+00 0.  1.
         13    1    1    2    0    0 -0.40201815914E+03 -0.83695558915E+02  0.19043854957E+03  0.45264820687E+03  0.10566000000E+00 0. -1.
<mgrwt>
<rscale>  1 0.84800393E+03</rscale>
<asrwt>0</asrwt>
<pdfrwt beam="1">  1       21 0.19492780E+00 0.10798848E+04</pdfrwt>
<pdfrwt beam="2">  1        4 0.67607916E-01 0.10798848E+04</pdfrwt>
<totfact> 0.99522637E+00</totfact>
</mgrwt>
</event>
<event>
 6    1  0.1353269E-005  0.1011528E+04  0.7818608E-02  0.9658470E-01
          4   -1    0    0  502    0 -0.00000000000E+00  0.00000000000E+00  0.28422881989E+03  0.28422881989E+03  0.00000000000E+00 0.  1.
         21   -1    0    0  501  502  0.00000000000E+00 -0.00000000000E+00 -0.14762080212E+04  0.14762080212E+04  0.00000000000E+00 0.  1.
    9000010    2    1    2  501    0 -0.98394918231E+02  0.26497875865E+03 -0.96375113188E+03  0.13971416921E+04  0.97123290771E+03 0.  0.
        -13    1    3    3    0    0 -0.37991927250E+03 -0.22847288008E+03 -0.43167784917E+03  0.61877644362E+03  0.10566000000E+00 0.  1.
          4    1    3    3  501    0  0.28152435427E+03  0.49345163872E+03 -0.53207328271E+03  0.77836524844E+03  0.00000000000E+00 0.  1.
         13    1    1    2    0    0  0.98394918231E+02 -0.26497875865E+03 -0.22822806942E+03  0.36329514903E+03  0.10566000000E+00 0. -1.
<mgrwt>
<rscale>  1 0.73544222E+03</rscale>
<asrwt>0</asrwt>
<pdfrwt beam="2">  1       21 0.22710893E+00 0.10115279E+04</pdfrwt>
<pdfrwt beam="1">  1        4 0.43727509E-01 0.10115279E+04</pdfrwt>
<totfact> 0.15511227E+01</totfact>
</mgrwt>
</event>
<event>
 6    1  0.1353269E-005  0.1050975E+04  0.7818608E-02  0.9530481E-01
          4   -1    0    0  502    0 -0.00000000000E+00  0.00000000000E+00  0.39786509765E+03  0.39786509765E+03  0.00000000000E+00 0.  1.
         21   -1    0    0  501  502  0.00000000000E+00 -0.00000000000E+00 -0.16611741968E+04  0.16611741968E+04  0.00000000000E+00 0.  1.
    9000010    2    1    2  501    0 -0.89184773245E+02  0.38056026417E+03 -0.12939261197E+04  0.16669711224E+04  0.97558591692E+03 0.  0.
        -13    1    3    3    0    0 -0.29463851371E+03  0.11536000163E+03  0.13980578293E+02  0.31672583013E+03  0.10566000000E+00 0.  1.
          4    1    3    3  501    0  0.20545374046E+03  0.26520026254E+03 -0.13079066979E+04  0.13502452923E+04  0.00000000000E+00 0.  1.
         13    1    1    2    0    0  0.89184773245E+02 -0.38056026417E+03  0.30617020498E+02  0.39206817207E+03  0.10566000000E+00 0. -1.
<mgrwt>
<rscale>  1 0.82073422E+03</rscale>
<asrwt>0</asrwt>
<pdfrwt beam="2">  1       21 0.25556526E+00 0.10509747E+04</pdfrwt>
<pdfrwt beam="1">  1        4 0.61210015E-01 0.10509747E+04</pdfrwt>
<totfact> 0.49530625E+00</totfact>
</mgrwt>
</event>
<event>
 6    1  0.1353269E-005  0.1014742E+04  0.7818608E-02  0.9786759E-01
         21   -1    0    0  501  502  0.00000000000E+00  0.00000000000E+00  0.54542887212E+03  0.54542887212E+03  0.00000000000E+00 0.  1.
          4   -1    0    0  502    0 -0.00000000000E+00 -0.00000000000E+00 -0.76721490829E+03  0.76721490829E+03  0.00000000000E+00 0.  1.
    9000010    2    1    2  501    0  0.37019171452E+02  0.17866213176E+03  0.13587804215E+02  0.10148327123E+04  0.99820350089E+03 0.  0.
        -13    1    3    3    0    0  0.11759244675E+03 -0.26234613832E+03  0.35101894050E+03  0.45372655596E+03  0.10566000000E+00 0.  1.
          4    1    3    3  501    0 -0.80573275302E+02  0.44100827008E+03 -0.33743113629E+03  0.56110615636E+03  0.00000000000E+00 0.  1.
         13    1    1    2    0    0 -0.37019171452E+02 -0.17866213176E+03 -0.23537384038E+03  0.29781106810E+03  0.10566000000E+00 0. -1.
<mgrwt>
<rscale>  1 0.66077991E+03</rscale>
<asrwt>0</asrwt>
<pdfrwt beam="1">  1       21 0.83912135E-01 0.10147417E+04</pdfrwt>
<pdfrwt beam="2">  1        4 0.11803306E+00 0.10147417E+04</pdfrwt>
<totfact> 0.25861441E+01</totfact>
</mgrwt>
</event>
<event>
 6    1  0.1353269E-005  0.1178417E+04  0.7818608E-02  0.9310129E-01
         21   -1    0    0  501  502  0.00000000000E+00  0.00000000000E+00  0.84041137979E+03  0.84041137979E+03  0.00000000000E+00 0. -1.
          4   -1    0    0  502    0 -0.00000000000E+00 -0.00000000000E+00 -0.10361062125E+04  0.10361062125E+04  0.00000000000E+00 0.  1.
    9000010    2    1    2  501    0 -0.48341800510E+03 -0.36802819977E+03  0.13272520355E+03  0.11858675689E+04  0.10097168849E+04 0.  0.
        -13    1    3    3    0    0  0.30905684174E+03 -0.86543377062E+02  0.12618590176E+03  0.34486052326E+03  0.10566000000E+00 0.  1.
          4    1    3    3  501    0 -0.79247484683E+03 -0.28148482271E+03  0.65393017890E+01  0.84100704560E+03  0.00000000000E+00 0.  1.
         13    1    1    2    0    0  0.48341800510E+03  0.36802819977E+03 -0.32842003627E+03  0.69065002343E+03  0.10566000000E+00 0. -1.
<mgrwt>
<rscale>  1 0.99855668E+03</rscale>
<asrwt>0</asrwt>
<pdfrwt beam="1">  1       21 0.12929406E+00 0.11784167E+04</pdfrwt>
<pdfrwt beam="2">  1        4 0.15940096E+00 0.11784167E+04</pdfrwt>
<totfact> 0.39057132E+00</totfact>
</mgrwt>
</event>
<event>
 6    1  0.1353269E-005  0.9134620E+03  0.7818608E-02  0.9882899E-01
          4   -1    0    0  502    0 -0.00000000000E+00  0.00000000000E+00  0.17584099937E+04  0.17584099937E+04  0.00000000000E+00 0.  1.
         21   -1    0    0  501  502  0.00000000000E+00 -0.00000000000E+00 -0.17950460491E+03  0.17950460491E+03  0.00000000000E+00 0.  1.
    9000010    2    1    2  501    0  0.32756446342E+02  0.17985779903E+03  0.14517590851E+04  0.17152309522E+04  0.89498098624E+03 0.  0.
        -13    1    3    3    0    0 -0.35647611607E+03 -0.20103185088E+02  0.24886802558E+03  0.43521795080E+03  0.10566000000E+00 0.  1.
          4    1    3    3  501    0  0.38923256241E+03  0.19996098412E+03  0.12028910595E+04  0.12800130014E+04  0.00000000000E+00 0.  1.
         13    1    1    2    0    0 -0.32756446342E+02 -0.17985779903E+03  0.12714630371E+03  0.22268364637E+03  0.10566000000E+00 0. -1.
<mgrwt>
<rscale>  1 0.61097252E+03</rscale>
<asrwt>0</asrwt>
<pdfrwt beam="2">  1       21 0.27616094E-01 0.91346197E+03</pdfrwt>
<pdfrwt beam="1">  1        4 0.27052460E+00 0.91346197E+03</pdfrwt>
<totfact> 0.24603949E+01</totfact>
</mgrwt>
</event>
<event>
 6    1  0.1353269E-005  0.1255198E+04  0.7818608E-02  0.9201662E-01
          4   -1    0    0  502    0 -0.00000000000E+00  0.00000000000E+00  0.11648861846E+04  0.11648861846E+04  0.00000000000E+00 0.  1.
         21   -1    0    0  501  502  0.00000000000E+00 -0.00000000000E+00 -0.90833667553E+03  0.90833667553E+03  0.00000000000E+00 0.  1.
    9000010    2    1    2  501    0 -0.72266937689E+03 -0.20122991452E+03 -0.65380396405E+02  0.12568997734E+04  0.10063686885E+04 0.  0.
        -13    1    3    3    0    0 -0.92474442584E+03 -0.31963390061E+03  0.79253987398E+02  0.98163093330E+03  0.10566000000E+00 0.  1.
          4    1    3    3  501    0  0.20207504894E+03  0.11840398609E+03 -0.14463438380E+03  0.27526884005E+03  0.00000000000E+00 0.  1.
         13    1    1    2    0    0  0.72266937689E+03  0.20122991452E+03  0.32192990548E+03  0.81632308678E+03  0.10566000000E+00 0. -1.
<mgrwt>
<rscale>  1 0.11036291E+04</rscale>
<asrwt>0</asrwt>
<pdfrwt beam="2">  1       21 0.13974410E+00 0.12551982E+04</pdfrwt>
<pdfrwt beam="1">  1        4 0.17921326E+00 0.12551982E+04</pdfrwt>
<totfact> 0.22537034E+00</totfact>
</mgrwt>
</event>
<event>
 6    1  0.1353269E-005  0.1034707E+04  0.7818608E-02  0.9674140E-01
          4   -1    0    0  502    0 -0.00000000000E+00  0.00000000000E+00  0.99162493249E+03  0.99162493249E+03  0.00000000000E+00 0.  1.
         21   -1    0    0  501  502  0.00000000000E+00 -0.00000000000E+00 -0.72091493355E+03  0.72091493355E+03  0.00000000000E+00 0.  1.
    9000010    2    1    2  501    0  0.10119664308E+03  0.22911768829E+03 -0.30997408710E+03  0.10801399177E+04  0.10039335793E+04 0.  0.
        -13    1    3    3    0    0  0.44630465517E+03 -0.54291407450E+02  0.11458388280E+03  0.46396646378E+03  0.10566000000E+00 0.  1.
          4    1    3    3  501    0 -0.34510801209E+03  0.28340909574E+03 -0.42455796990E+03  0.61617345396E+03  0.00000000000E+00 0.  1.
         13    1    1    2    0    0 -0.10119664308E+03 -0.22911768829E+03  0.58068408605E+03  0.63239994830E+03  0.10566000000E+00 0. -1.
<mgrwt>
<rscale>  1 0.72577555E+03</rscale>
<asrwt>0</asrwt>
<pdfrwt beam="2">  1       21 0.11090999E+00 0.10347069E+04</pdfrwt>
<pdfrwt beam="1">  1        4 0.15255768E+00 0.10347069E+04</pdfrwt>
<totfact> 0.66717119E+00</totfact>
</mgrwt>
</event>
<event>
 6    1  0.1353269E-005  0.1051572E+04  0.7818608E-02  0.9606078E-01
          4   -1    0    0  502    0 -0.00000000000E+00  0.00000000000E+00  0.10663856878E+04  0.10663856878E+04  0.00000000000E+00 0.  1.
         21   -1    0    0  501  502  0.00000000000E+00 -0.00000000000E+00 -0.62157329391E+03  0.62157329391E+03  0.00000000000E+00 0. -1.
    9000010    2    1    2  501    0 -0.26097910795E+03 -0.14929283355E+03  0.72476509359E+03  0.12771403231E+04  0.10076728235E+04 0.  0.
        -13    1    3    3    0    0 -0.24810075023E+03  0.27452479851E+03 -0.69769844974E+02  0.37654440601E+03  0.10566000000E+00 0.  1.
          4    1    3    3  501    0 -0.12878357716E+02 -0.42381763206E+03  0.79453493857E+03  0.90059591712E+03  0.00000000000E+00 0.  1.
         13    1    1    2    0    0  0.26097910795E+03  0.14929283355E+03 -0.27995269975E+03  0.41081865853E+03  0.10566000000E+00 0. -1.
<mgrwt>
<rscale>  1 0.76895219E+03</rscale>
<asrwt>0</asrwt>
<pdfrwt beam="2">  1       21 0.95626661E-01 0.10515717E+04</pdfrwt>
<pdfrwt beam="1">  1        4 0.16405934E+00 0.10515717E+04</pdfrwt>
<totfact> 0.79019437E+00</totfact>
</mgrwt>
</event>
<event>
 6    1  0.1353269E-005  0.1031888E+04  0.7818608E-02  0.9805092E-01
          4   -1    0    0  502    0 -0.00000000000E+00  0.00000000000E+00  0.11418734763E+04  0.11418734763E+04  0.00000000000E+00 0.  1.
         21   -1    0    0  501  502  0.00000000000E+00 -0.00000000000E+00 -0.48651719895E+03  0.48651719895E+03  0.00000000000E+00 0.  1.
    9000010    2    1    2  501    0 -0.16325894011E+03 -0.58872363531E+01  0.85322517290E+02  0.10354095290E+04  0.10188742904E+04 0.  0.
        -13    1    3    3    0    0  0.69376896561E+02  0.16122573065E+03 -0.41963783146E+03  0.45486570629E+03  0.10566000000E+00 0.  1.
          4    1    3    3  501    0 -0.23263583667E+03 -0.16711296700E+03  0.50496034875E+03  0.58054382268E+03  0.00000000000E+00 0.  1.
         13    1    1    2    0    0  0.16325894011E+03  0.58872363531E+01  0.57003376003E+03  0.59298114626E+03  0.10566000000E+00 0. -1.
<mgrwt>
<rscale>  1 0.65089997E+03</rscale>
<asrwt>0</asrwt>
<pdfrwt beam="2">  1       21 0.74848800E-01 0.10318881E+04</pdfrwt>
<pdfrwt beam="1">  1        4 0.17567284E+00 0.10318881E+04</pdfrwt>
<totfact> 0.11712097E+01</totfact>
</mgrwt>
</event>
<event>
 6    1  0.1353269E-005  0.1027908E+04  0.7818608E-02  0.9711388E-01
          4   -1    0    0  502    0 -0.00000000000E+00  0.00000000000E+00  0.14370847086E+04  0.14370847086E+04  0.00000000000E+00 0.  1.
         21   -1    0    0  501  502  0.00000000000E+00 -0.00000000000E+00 -0.33590663695E+03  0.33590663695E+03  0.00000000000E+00 0.  1.
    9000010    2    1    2  501    0 -0.22512673224E+03 -0.11725857694E+02  0.52486445466E+03  0.11541561998E+04  0.10028829924E+04 0.  0.
        -13    1    3    3    0    0  0.75927676894E+02 -0.42386336471E+03  0.12247931993E+02  0.43078438582E+03  0.10566000000E+00 0.  1.
          4    1    3    3  501    0 -0.30105440914E+03  0.41213750702E+03  0.51261652266E+03  0.72337181398E+03  0.00000000000E+00 0.  1.
         13    1    1    2    0    0  0.22512673224E+03  0.11725857694E+02  0.57631361695E+03  0.61883514570E+03  0.10566000000E+00 0. -1.
<mgrwt>
<rscale>  1 0.70342756E+03</rscale>
<asrwt>0</asrwt>
<pdfrwt beam="2">  1       21 0.51677945E-01 0.10279075E+04</pdfrwt>
<pdfrwt beam="1">  1        4 0.22108995E+00 0.10279075E+04</pdfrwt>
<totfact> 0.13394968E+01</totfact>
</mgrwt>
</event>
<event>
 6    1  0.1353269E-005  0.1050813E+04  0.7818608E-02  0.9662653E-01
         21   -1    0    0  501  502  0.00000000000E+00  0.00000000000E+00  0.13522446978E+04  0.13522446978E+04  0.00000000000E+00 0.  1.
          4   -1    0    0  502    0 -0.00000000000E+00 -0.00000000000E+00 -0.37534144821E+03  0.37534144821E+03  0.00000000000E+00 0.  1.
    9000010    2    1    2  501    0  0.75433440181E+02 -0.23686328503E+03  0.10321498197E+04  0.14729361620E+04  0.10209864188E+04 0.  0.
        -13    1    3    3    0    0 -0.20618662008E+03  0.63549989104E+02  0.10389390719E+04  0.10611059936E+04  0.10566000000E+00 0.  1.
          4    1    3    3  501    0  0.28162006026E+03 -0.30041327413E+03 -0.67892522253E+01  0.41183016835E+03  0.00000000000E+00 0.  1.
         13    1    1    2    0    0 -0.75433440181E+02  0.23686328503E+03 -0.55246570100E+02  0.25464998402E+03  0.10566000000E+00 0. -1.
<mgrwt>
<rscale>  1 0.73284597E+03</rscale>
<asrwt>0</asrwt>
<pdfrwt beam="1">  1       21 0.20803764E+00 0.10508129E+04</pdfrwt>
<pdfrwt beam="2">  1        4 0.57744839E-01 0.10508129E+04</pdfrwt>
<totfact> 0.11475634E+01</totfact>
</mgrwt>
</event>
<event>
 6    1  0.1353269E-005  0.1083952E+04  0.7818608E-02  0.9458596E-01
          4   -1    0    0  502    0 -0.00000000000E+00  0.00000000000E+00  0.12926430790E+04  0.12926430790E+04  0.00000000000E+00 0.  1.
         21   -1    0    0  501  502  0.00000000000E+00 -0.00000000000E+00 -0.86019697136E+03  0.86019697136E+03  0.00000000000E+00 0. -1.
    9000010    2    1    2  501    0 -0.42183407478E+03 -0.17913059463E+03 -0.43801425355E+03  0.11691058341E+04  0.98230352160E+03 0.  0.
        -13    1    3    3    0    0 -0.57766375037E+03 -0.20301233780E+03 -0.65777101964E+03  0.89865017846E+03  0.10566000000E+00 0.  1.
          4    1    3    3  501    0  0.15582967559E+03  0.23881743166E+02  0.21975676609E+03  0.27045565569E+03  0.00000000000E+00 0.  1.
         13    1    1    2    0    0  0.42183407478E+03  0.17913059463E+03  0.87046036118E+03  0.98373421620E+03  0.10566000000E+00 0. -1.
<mgrwt>
<rscale>  1 0.87406386E+03</rscale>
<asrwt>0</asrwt>
<pdfrwt beam="2">  1       21 0.13233800E+00 0.10839520E+04</pdfrwt>
<pdfrwt beam="1">  1        4 0.19886817E+00 0.10839520E+04</pdfrwt>
<totfact> 0.19599786E+00</totfact>
</mgrwt>
</event>
<event>
 6    1  0.1353269E-005  0.1020085E+04  0.7818608E-02  0.1009710E+00
          4   -1    0    0  502    0 -0.00000000000E+00  0.00000000000E+00  0.18111362851E+04  0.18111362851E+04  0.00000000000E+00 0.  1.
         21   -1    0    0  501  502  0.00000000000E+00 -0.00000000000E+00 -0.18227404648E+03  0.18227404648E+03  0.00000000000E+00 0.  1.
    9000010    2    1    2  501    0  0.77440725395E+00 -0.66730382534E+02  0.12727227337E+04  0.16310722274E+04  0.10178997545E+04 0.  0.
        -13    1    3    3    0    0  0.23152414038E+03 -0.31525866375E+03  0.90915584610E+02  0.40156830968E+03  0.10566000000E+00 0.  1.
          4    1    3    3  501    0 -0.23074973313E+03  0.24852828121E+03  0.11818071491E+04  0.12295039177E+04  0.00000000000E+00 0.  1.
         13    1    1    2    0    0 -0.77440725395E+00  0.66730382534E+02  0.35613950486E+03  0.36233810419E+03  0.10566000000E+00 0. -1.
<mgrwt>
<rscale>  1 0.51590012E+03</rscale>
<asrwt>0</asrwt>
<pdfrwt beam="2">  1       21 0.28042162E-01 0.10200850E+04</pdfrwt>
<pdfrwt beam="1">  1        4 0.27863634E+00 0.10200850E+04</pdfrwt>
<totfact> 0.21016798E+01</totfact>
</mgrwt>
</event>
<event>
 6    1  0.1353269E-005  0.1227089E+04  0.7818608E-02  0.9229397E-01
         21   -1    0    0  501  502  0.00000000000E+00  0.00000000000E+00  0.64380056090E+03  0.64380056090E+03  0.00000000000E+00 0. -1.
          4   -1    0    0  502    0 -0.00000000000E+00 -0.00000000000E+00 -0.14912190206E+04  0.14912190206E+04  0.00000000000E+00 0.  1.
    9000010    2    1    2  501    0  0.50889461469E+03 -0.51518874575E+03 -0.62742560897E+03  0.13781906456E+04  0.99063282216E+03 0.  0.
        -13    1    3    3    0    0  0.48537538404E+03  0.16756768463E+03 -0.42248208684E+03  0.66495061262E+03  0.10566000000E+00 0.  1.
          4    1    3    3  501    0  0.23519230656E+02 -0.68275643038E+03 -0.20494352213E+03  0.71324003302E+03  0.00000000000E+00 0.  1.
         13    1    1    2    0    0 -0.50889461469E+03  0.51518874575E+03 -0.21999285071E+03  0.75682893585E+03  0.10566000000E+00 0. -1.
<mgrwt>
<rscale>  1 0.10755092E+04</rscale>
<asrwt>0</asrwt>
<pdfrwt beam="1">  1       21 0.99046240E-01 0.12270887E+04</pdfrwt>
<pdfrwt beam="2">  1        4 0.22941831E+00 0.12270887E+04</pdfrwt>
<totfact> 0.25733242E+00</totfact>
</mgrwt>
</event>
<event>
 6    1  0.1353269E-005  0.1190875E+04  0.7818608E-02  0.9284715E-01
         21   -1    0    0  501  502  0.00000000000E+00  0.00000000000E+00  0.12720291294E+04  0.12720291294E+04  0.00000000000E+00 0. -1.
          4   -1    0    0  502    0 -0.00000000000E+00 -0.00000000000E+00 -0.70210821313E+03  0.70210821313E+03  0.00000000000E+00 0.  1.
    9000010    2    1    2  501    0  0.53009649424E+03 -0.36923606848E+03  0.14214630480E+03  0.11993285294E+04  0.10004228016E+04 0.  0.
        -13    1    3    3    0    0 -0.27101013317E+03  0.26693123871E+02  0.13893772864E+03  0.30571672958E+03  0.10566000000E+00 0.  1.
          4    1    3    3  501    0  0.80110662741E+03 -0.39592919235E+03  0.32085761619E+01  0.89361179983E+03  0.00000000000E+00 0.  1.
         13    1    1    2    0    0 -0.53009649424E+03  0.36923606848E+03  0.42777461142E+03  0.77480881307E+03  0.10566000000E+00 0. -1.
<mgrwt>
<rscale>  1 0.10220229E+04</rscale>
<asrwt>0</asrwt>
<pdfrwt beam="1">  1       21 0.19569679E+00 0.11908750E+04</pdfrwt>
<pdfrwt beam="2">  1        4 0.10801665E+00 0.11908750E+04</pdfrwt>
<totfact> 0.32425299E+00</totfact>
</mgrwt>
</event>
<event>
 6    1  0.1353269E-005  0.1029179E+04  0.7818608E-02  0.9695251E-01
          4   -1    0    0  502    0 -0.00000000000E+00  0.00000000000E+00  0.41936830135E+03  0.41936830135E+03  0.00000000000E+00 0.  1.
         21   -1    0    0  501  502  0.00000000000E+00 -0.00000000000E+00 -0.10332188318E+04  0.10332188318E+04  0.00000000000E+00 0.  1.
    9000010    2    1    2  501    0 -0.21571252689E+03  0.98358344611E+02 -0.64329429013E+03  0.12136871450E+04  0.10015002167E+04 0.  0.
        -13    1    3    3    0    0  0.24054800457E+03  0.41030419937E+03 -0.27292279458E+03  0.54836095912E+03  0.10566000000E+00 0.  1.
          4    1    3    3  501    0 -0.45626053145E+03 -0.31194585476E+03 -0.37037149555E+03  0.66532618585E+03  0.00000000000E+00 0.  1.
         13    1    1    2    0    0  0.21571252689E+03 -0.98358344611E+02  0.29443759671E+02  0.23889998819E+03  0.10566000000E+00 0. -1.
<mgrwt>
<rscale>  1 0.71300276E+03</rscale>
<asrwt>0</asrwt>
<pdfrwt beam="2">  1       21 0.15895674E+00 0.10291788E+04</pdfrwt>
<pdfrwt beam="1">  1        4 0.64518200E-01 0.10291788E+04</pdfrwt>
<totfact> 0.20414965E+01</totfact>
</mgrwt>
</event>
<event>
 6    1  0.1353269E-005  0.1219035E+04  0.7818608E-02  0.9254178E-01
         21   -1    0    0  501  502  0.00000000000E+00  0.00000000000E+00  0.85415588747E+03  0.85415588747E+03  0.00000000000E+00 0. -1.
          4   -1    0    0  502    0 -0.00000000000E+00 -0.00000000000E+00 -0.12915200821E+04  0.12915200821E+04  0.00000000000E+00 0.  1.
    9000010    2    1    2  501    0  0.60540318520E+03  0.29595507372E+03  0.17940132533E+03  0.12321650829E+04  0.10158462156E+04 0.  0.
        -13    1    3    3    0    0  0.52414221435E+02 -0.35047385907E+03 -0.31368040768E+02  0.35575713857E+03  0.10566000000E+00 0.  1.
          4    1    3    3  501    0  0.55298896376E+03  0.64642893279E+03  0.21076936610E+03  0.87640794433E+03  0.00000000000E+00 0.  1.
         13    1    1    2    0    0 -0.60540318520E+03 -0.29595507372E+03 -0.61676551999E+03  0.91351088670E+03  0.10566000000E+00 0. -1.
<mgrwt>
<rscale>  1 0.10511297E+04</rscale>
<asrwt>0</asrwt>
<pdfrwt beam="1">  1       21 0.13140860E+00 0.12190348E+04</pdfrwt>
<pdfrwt beam="2">  1        4 0.19869540E+00 0.12190348E+04</pdfrwt>
<totfact> 0.19669616E+00</totfact>
</mgrwt>
</event>
<event>
 6    1  0.1353269E-005  0.1009507E+04  0.7818608E-02  0.9789378E-01
         21   -1    0    0  501  502  0.00000000000E+00  0.00000000000E+00  0.16049733669E+04  0.16049733669E+04  0.00000000000E+00 0.  1.
          4   -1    0    0  502    0 -0.00000000000E+00 -0.00000000000E+00 -0.30599793906E+03  0.30599793906E+03  0.00000000000E+00 0.  1.
    9000010    2    1    2  501    0 -0.20814942640E+01  0.18370777986E+03  0.13802911203E+04  0.17100605446E+04  0.99264828038E+03 0.  0.
        -13    1    3    3    0    0  0.40550572294E+03  0.20139905260E+03  0.11625812809E+04  0.12476344479E+04  0.10566000000E+00 0.  1.
          4    1    3    3  501    0 -0.40758721721E+03 -0.17691272745E+02  0.21770983939E+03  0.46242609672E+03  0.00000000000E+00 0.  1.
         13    1    1    2    0    0  0.20814942640E+01 -0.18370777986E+03 -0.81315692481E+02  0.20091076130E+03  0.10566000000E+00 0. -1.
<mgrwt>
<rscale>  1 0.65935717E+03</rscale>
<asrwt>0</asrwt>
<pdfrwt beam="1">  1       21 0.24691898E+00 0.10095066E+04</pdfrwt>
<pdfrwt beam="2">  1        4 0.47076607E-01 0.10095066E+04</pdfrwt>
<totfact> 0.99169275E+00</totfact>
</mgrwt>
</event>
<event>
 6    1  0.1353269E-005  0.1038871E+04  0.7818608E-02  0.9671597E-01
          4   -1    0    0  502    0 -0.00000000000E+00  0.00000000000E+00  0.11091534344E+04  0.11091534344E+04  0.00000000000E+00 0.  1.
         21   -1    0    0  501  502  0.00000000000E+00 -0.00000000000E+00 -0.54875494048E+03  0.54875494048E+03  0.00000000000E+00 0.  1.
    9000010    2    1    2  501    0  0.24697709993E+03  0.36111719080E+02 -0.60672440705E+01  0.10388888375E+04  0.10084401128E+04 0.  0.
        -13    1    3    3    0    0 -0.34875321339E+03  0.86333723387E+02 -0.19896761844E+03  0.41069506936E+03  0.10566000000E+00 0.  1.
          4    1    3    3  501    0  0.59573031333E+03 -0.50222004306E+02  0.19290037437E+03  0.62819376817E+03  0.00000000000E+00 0.  1.
         13    1    1    2    0    0 -0.24697709993E+03 -0.36111719080E+02  0.56646573803E+03  0.61901953739E+03  0.10566000000E+00 0. -1.
<mgrwt>
<rscale>  1 0.72733383E+03</rscale>
<asrwt>0</asrwt>
<pdfrwt beam="2">  1       21 0.84423837E-01 0.10388711E+04</pdfrwt>
<pdfrwt beam="1">  1        4 0.17063899E+00 0.10388711E+04</pdfrwt>
<totfact> 0.95775028E+00</totfact>
</mgrwt>
</event>
<event>
 6    1  0.1353269E-005  0.9381522E+03  0.7818608E-02  0.9578919E-01
         21   -1    0    0  501  502  0.00000000000E+00  0.00000000000E+00  0.12087690217E+04  0.12087690217E+04  0.00000000000E+00 0.  1.
          4   -1    0    0  502    0 -0.00000000000E+00 -0.00000000000E+00 -0.57726547123E+03  0.57726547123E+03  0.00000000000E+00 0.  1.
    9000010    2    1    2  501    0  0.36938348334E+03  0.28208021519E+03  0.85590698230E+03  0.12699237326E+04  0.81493319891E+03 0.  0.
        -13    1    3    3    0    0  0.54032131749E+03  0.44306977328E+03  0.69304449401E+03  0.98415884489E+03  0.10566000000E+00 0.  1.
          4    1    3    3  501    0 -0.17093783415E+03 -0.16098955808E+03  0.16286248829E+03  0.28576488771E+03  0.00000000000E+00 0.  1.
         13    1    1    2    0    0 -0.36938348334E+03 -0.28208021519E+03 -0.22440343182E+03  0.51611076035E+03  0.10566000000E+00 0. -1.
<mgrwt>
<rscale>  1 0.78707309E+03</rscale>
<asrwt>0</asrwt>
<pdfrwt beam="1">  1       21 0.18596446E+00 0.93815219E+03</pdfrwt>
<pdfrwt beam="2">  1        4 0.88810073E-01 0.93815219E+03</pdfrwt>
<totfact> 0.62914703E+00</totfact>
</mgrwt>
</event>
<event>
 6    1  0.1353269E-005  0.9830997E+03  0.7818608E-02  0.9654869E-01
          4   -1    0    0  502    0 -0.00000000000E+00  0.00000000000E+00  0.70120623842E+03  0.70120623842E+03  0.00000000000E+00 0.  1.
         21   -1    0    0  501  502  0.00000000000E+00 -0.00000000000E+00 -0.70381174298E+03  0.70381174298E+03  0.00000000000E+00 0.  1.
    9000010    2    1    2  501    0  0.31158110751E+03  0.74309271382E+01 -0.24149568631E+03  0.10123265818E+04  0.93238776077E+03 0.  0.
        -13    1    3    3    0    0  0.23709871067E+03  0.35505487067E+03  0.17790033619E+03  0.46252383784E+03  0.10566000000E+00 0.  1.
          4    1    3    3  501    0  0.74482396843E+02 -0.34762394353E+03 -0.41939602250E+03  0.54980274394E+03  0.00000000000E+00 0.  1.
         13    1    1    2    0    0 -0.31158110751E+03 -0.74309271382E+01  0.23889018175E+03  0.39269139962E+03  0.10566000000E+00 0. -1.
<mgrwt>
<rscale>  1 0.73768646E+03</rscale>
<asrwt>0</asrwt>
<pdfrwt beam="2">  1       21 0.10827873E+00 0.98309966E+03</pdfrwt>
<pdfrwt beam="1">  1        4 0.10787788E+00 0.98309966E+03</pdfrwt>
<totfact> 0.17349278E+01</totfact>
</mgrwt>
</event>
<event>
 6    1  0.1353269E-005  0.1020467E+04  0.7818608E-02  0.9833985E-01
         21   -1    0    0  501  502  0.00000000000E+00  0.00000000000E+00  0.79234367370E+03  0.79234367370E+03  0.00000000000E+00 0.  1.
          4   -1    0    0  502    0 -0.00000000000E+00 -0.00000000000E+00 -0.45762953824E+03  0.45762953824E+03  0.00000000000E+00 0.  1.
    9000010    2    1    2  501    0 -0.13601785677E+03 -0.71529895328E+02  0.38131618514E+03  0.10893832201E+04  0.10088292144E+04 0.  0.
        -13    1    3    3    0    0 -0.25913476489E+03  0.88414257915E+01  0.69562983133E+03  0.74238121648E+03  0.10566000000E+00 0.  1.
          4    1    3    3  501    0  0.12311690812E+03 -0.80371321119E+02 -0.31431364619E+03  0.34700200361E+03  0.00000000000E+00 0.  1.
         13    1    1    2    0    0  0.13601785677E+03  0.71529895328E+02 -0.46602049669E+02  0.16058999185E+03  0.10566000000E+00 0. -1.
<mgrwt>
<rscale>  1 0.63570168E+03</rscale>
<asrwt>0</asrwt>
<pdfrwt beam="1">  1       21 0.12189903E+00 0.10204674E+04</pdfrwt>
<pdfrwt beam="2">  1        4 0.70404544E-01 0.10204674E+04</pdfrwt>
<totfact> 0.34660231E+01</totfact>
</mgrwt>
</event>
<event>
 6    1  0.1353269E-005  0.1107057E+04  0.7818608E-02  0.9433993E-01
         21   -1    0    0  501  502  0.00000000000E+00  0.00000000000E+00  0.13204383915E+04  0.13204383915E+04  0.00000000000E+00 0.  1.
          4   -1    0    0  502    0 -0.00000000000E+00 -0.00000000000E+00 -0.49682995495E+03  0.49682995495E+03  0.00000000000E+00 0.  1.
    9000010    2    1    2  501    0 -0.45867133292E+03 -0.99481610531E+02  0.76188496773E+03  0.13438913506E+04  0.10026461368E+04 0.  0.
        -13    1    3    3    0    0 -0.76084186596E+03  0.52036758736E+02  0.59286617481E+03  0.96595987580E+03  0.10566000000E+00 0.  1.
          4    1    3    3  501    0  0.30217053304E+03 -0.15151836927E+03  0.16901879292E+03  0.37793147478E+03  0.00000000000E+00 0.  1.
         13    1    1    2    0    0  0.45867133292E+03  0.99481610531E+02  0.61723468836E+02  0.47337699589E+03  0.10566000000E+00 0. -1.
<mgrwt>
<rscale>  1 0.89330217E+03</rscale>
<asrwt>0</asrwt>
<pdfrwt beam="1">  1       21 0.20314437E+00 0.11070570E+04</pdfrwt>
<pdfrwt beam="2">  1        4 0.76435378E-01 0.11070570E+04</pdfrwt>
<totfact> 0.65989317E+00</totfact>
</mgrwt>
</event>
<event>
 6    1  0.1353269E-005  0.9938659E+03  0.7818608E-02  0.1004002E+00
          4   -1    0    0  502    0 -0.00000000000E+00  0.00000000000E+00  0.48322241186E+03  0.48322241186E+03  0.00000000000E+00 0.  1.
         21   -1    0    0  501  502  0.00000000000E+00 -0.00000000000E+00 -0.61151274352E+03  0.61151274352E+03  0.00000000000E+00 0.  1.
    9000010    2    1    2  501    0  0.83264111598E+02  0.22169149912E+02 -0.82825462618E+02  0.99731108767E+03  0.99012371188E+03 0.  0.
        -13    1    3    3    0    0 -0.38464065750E+03 -0.20667714165E+03  0.95106477999E+02  0.44688827419E+03  0.10566000000E+00 0.  1.
          4    1    3    3  501    0  0.46790476910E+03  0.22884629156E+03 -0.17793194062E+03  0.55042281348E+03  0.00000000000E+00 0.  1.
         13    1    1    2    0    0 -0.83264111598E+02 -0.22169149912E+02 -0.45464869048E+02  0.97424067713E+02  0.10566000000E+00 0. -1.
<mgrwt>
<rscale>  1 0.53929763E+03</rscale>
<asrwt>0</asrwt>
<pdfrwt beam="2">  1       21 0.94078884E-01 0.99386586E+03</pdfrwt>
<pdfrwt beam="1">  1        4 0.74341909E-01 0.99386586E+03</pdfrwt>
<totfact> 0.59038666E+01</totfact>
</mgrwt>
</event>
<event>
 6    1  0.1353269E-005  0.9929990E+03  0.7818608E-02  0.1008432E+00
         21   -1    0    0  501  502  0.00000000000E+00  0.00000000000E+00  0.15080600054E+04  0.15080600054E+04  0.00000000000E+00 0.  1.
          4   -1    0    0  502    0 -0.00000000000E+00 -0.00000000000E+00 -0.22188760829E+03  0.22188760829E+03  0.00000000000E+00 0.  1.
    9000010    2    1    2  501    0 -0.65117453394E+02 -0.37743883610E+02  0.13163259468E+04  0.16488665974E+04  0.99014250194E+03 0.  0.
        -13    1    3    3    0    0 -0.46773666637E+03  0.27661190236E+02  0.30683188715E+03  0.56007905571E+03  0.10566000000E+00 0.  1.
          4    1    3    3  501    0  0.40261921298E+03 -0.65405073846E+02  0.10094940597E+04  0.10887875417E+04  0.00000000000E+00 0.  1.
         13    1    1    2    0    0  0.65117453394E+02  0.37743883610E+02 -0.30153549694E+02  0.81081016334E+02  0.10566000000E+00 0. -1.
<mgrwt>
<rscale>  1 0.52102744E+03</rscale>
<asrwt>0</asrwt>
<pdfrwt beam="1">  1       21 0.23200923E+00 0.99299902E+03</pdfrwt>
<pdfrwt beam="2">  1        4 0.34136556E-01 0.99299902E+03</pdfrwt>
<totfact> 0.23876270E+01</totfact>
</mgrwt>
</event>
<event>
 6    1  0.1353269E-005  0.9960795E+03  0.7818608E-02  0.9920393E-01
          4   -1    0    0  502    0 -0.00000000000E+00  0.00000000000E+00  0.20613593026E+03  0.20613593026E+03  0.00000000000E+00 0.  1.
         21   -1    0    0  501  502  0.00000000000E+00 -0.00000000000E+00 -0.15581273140E+04  0.15581273140E+04  0.00000000000E+00 0.  1.
    9000010    2    1    2  501    0 -0.12345334969E+03  0.19473574831E+02 -0.12731081301E+04  0.16164710640E+04  0.98820769081E+03 0.  0.
        -13    1    3    3    0    0  0.18247571626E+02  0.45961234807E+03 -0.94027094417E+03  0.10467501822E+04  0.10566000000E+00 0.  1.
          4    1    3    3  501    0 -0.14170092132E+03 -0.44013877324E+03 -0.33283718595E+03  0.56972088180E+03  0.00000000000E+00 0.  1.
         13    1    1    2    0    0  0.12345334969E+03 -0.19473574831E+02 -0.78883253585E+02  0.14779218019E+03  0.10566000000E+00 0. -1.
<mgrwt>
<rscale>  1 0.59283044E+03</rscale>
<asrwt>0</asrwt>
<pdfrwt beam="2">  1       21 0.23971190E+00 0.99607951E+03</pdfrwt>
<pdfrwt beam="1">  1        4 0.31713219E-01 0.99607951E+03</pdfrwt>
<totfact> 0.24629083E+01</totfact>
</mgrwt>
</event>
<event>
 6    1  0.1353269E-005  0.1003603E+04  0.7818608E-02  0.9813603E-01
          4   -1    0    0  502    0 -0.00000000000E+00  0.00000000000E+00  0.57757991336E+03  0.57757991336E+03  0.00000000000E+00 0.  1.
         21   -1    0    0  501  502  0.00000000000E+00 -0.00000000000E+00 -0.65398804854E+03  0.65398804854E+03  0.00000000000E+00 0.  1.
    9000010    2    1    2  501    0 -0.17220983527E+03  0.12802138028E+02 -0.19461725804E+03  0.10222989245E+04  0.98863496393E+03 0.  0.
        -13    1    3    3    0    0  0.10662927168E+03 -0.45021331971E+03 -0.74673895837E+02  0.46865556298E+03  0.10566000000E+00 0.  1.
          4    1    3    3  501    0 -0.27883910695E+03  0.46301545774E+03 -0.11994336221E+03  0.55364336157E+03  0.00000000000E+00 0.  1.
         13    1    1    2    0    0  0.17220983527E+03 -0.12802138028E+02  0.11820912286E+03  0.20926903735E+03  0.10566000000E+00 0. -1.
<mgrwt>
<rscale>  1 0.64637596E+03</rscale>
<asrwt>0</asrwt>
<pdfrwt beam="2">  1       21 0.10061355E+00 0.10036031E+04</pdfrwt>
<pdfrwt beam="1">  1        4 0.88858448E-01 0.10036031E+04</pdfrwt>
<totfact> 0.33152394E+01</totfact>
</mgrwt>
</event>
<event>
 6    1  0.1353269E-005  0.1285622E+04  0.7818608E-02  0.9176782E-01
         21   -1    0    0  501  502  0.00000000000E+00  0.00000000000E+00  0.19046212676E+04  0.19046212676E+04  0.00000000000E+00 0.  1.
          4   -1    0    0  502    0 -0.00000000000E+00 -0.00000000000E+00 -0.65326703275E+03  0.65326703275E+03  0.00000000000E+00 0.  1.
    9000010    2    1    2  501    0 -0.59728148402E+03  0.48010222475E+03  0.12477459028E+04  0.17915617717E+04  0.10322695512E+04 0.  0.
        -13    1    3    3    0    0 -0.42378309404E+03  0.79658572639E+03  0.73098792419E+03  0.11612425615E+04  0.10566000000E+00 0.  1.
          4    1    3    3  501    0 -0.17349838998E+03 -0.31648350164E+03  0.51675797866E+03  0.63031921012E+03  0.00000000000E+00 0.  1.
         13    1    1    2    0    0  0.59728148402E+03 -0.48010222475E+03  0.36083320289E+01  0.76632652870E+03  0.10566000000E+00 0. -1.
<mgrwt>
<rscale>  1 0.11296326E+04</rscale>
<asrwt>0</asrwt>
<pdfrwt beam="1">  1       21 0.29301865E+00 0.12856219E+04</pdfrwt>
<pdfrwt beam="2">  1        4 0.10050262E+00 0.12856219E+04</pdfrwt>
<totfact> 0.88825534E-01</totfact>
</mgrwt>
</event>
<event>
 6    1  0.1353269E-005  0.9977072E+03  0.7818608E-02  0.9873402E-01
          4   -1    0    0  502    0 -0.00000000000E+00  0.00000000000E+00  0.28118837268E+03  0.28118837268E+03  0.00000000000E+00 0.  1.
         21   -1    0    0  501  502  0.00000000000E+00 -0.00000000000E+00 -0.13107348688E+04  0.13107348688E+04  0.00000000000E+00 0.  1.
    9000010    2    1    2  501    0  0.70127288879E+02  0.12654757884E+03 -0.10469388884E+04  0.14462021626E+04  0.98716135083E+03 0.  0.
        -13    1    3    3    0    0 -0.28454089501E+02 -0.32875622576E+03 -0.89864364968E+03  0.95731432218E+03  0.10566000000E+00 0.  1.
          4    1    3    3  501    0  0.98581378379E+02  0.45530380460E+03 -0.14829523875E+03  0.48888784039E+03  0.00000000000E+00 0.  1.
         13    1    1    2    0    0 -0.70127288879E+02 -0.12654757884E+03  0.17392392329E+02  0.14572107888E+03  0.10566000000E+00 0. -1.
<mgrwt>
<rscale>  1 0.61567856E+03</rscale>
<asrwt>0</asrwt>
<pdfrwt beam="2">  1       21 0.20165152E+00 0.99770720E+03</pdfrwt>
<pdfrwt beam="1">  1        4 0.43259749E-01 0.99770720E+03</pdfrwt>
<totfact> 0.23503348E+01</totfact>
</mgrwt>
</event>
<event>
 6    1  0.1353269E-005  0.1121743E+04  0.7818608E-02  0.9390538E-01
         21   -1    0    0  501  502  0.00000000000E+00  0.00000000000E+00  0.10165981962E+04  0.10165981962E+04  0.00000000000E+00 0.  1.
          4   -1    0    0  502    0 -0.00000000000E+00 -0.00000000000E+00 -0.70388465177E+03  0.70388465177E+03  0.00000000000E+00 0.  1.
    9000010    2    1    2  501    0  0.37158354632E+03 -0.37335349714E+03  0.39102312094E+03  0.11879421766E+04  0.99037385274E+03 0.  0.
        -13    1    3    3    0    0 -0.73832186339E+02 -0.25920521604E+03 -0.27080340656E+03  0.38206417253E+03  0.10566000000E+00 0.  1.
          4    1    3    3  501    0  0.44541573266E+03 -0.11414828110E+03  0.66182652750E+03  0.80587800410E+03  0.00000000000E+00 0.  1.
         13    1    1    2    0    0 -0.37158354632E+03  0.37335349714E+03 -0.78309576492E+02  0.53254067137E+03  0.10566000000E+00 0. -1.
<mgrwt>
<rscale>  1 0.92858465E+03</rscale>
<asrwt>0</asrwt>
<pdfrwt beam="1">  1       21 0.15639972E+00 0.11217431E+04</pdfrwt>
<pdfrwt beam="2">  1        4 0.10828995E+00 0.11217431E+04</pdfrwt>
<totfact> 0.63471417E+00</totfact>
</mgrwt>
</event>
<event>
 6    1  0.1353269E-005  0.9928010E+03  0.7818608E-02  0.9935537E-01
         21   -1    0    0  501  502  0.00000000000E+00  0.00000000000E+00  0.18508735927E+04  0.18508735927E+04  0.00000000000E+00 0.  1.
          4   -1    0    0  502    0 -0.00000000000E+00 -0.00000000000E+00 -0.21609146944E+03  0.21609146944E+03  0.00000000000E+00 0.  1.
    9000010    2    1    2  501    0  0.58822510638E+02  0.10488515819E+03  0.16689788542E+04  0.19419434170E+04  0.98549116440E+03 0.  0.
        -13    1    3    3    0    0  0.20503100246E+03 -0.27756905426E+03  0.14230978701E+04  0.14643393907E+04  0.10566000000E+00 0.  1.
          4    1    3    3  501    0 -0.14620849182E+03  0.38245421245E+03  0.24588098403E+03  0.47760402638E+03  0.00000000000E+00 0.  1.
         13    1    1    2    0    0 -0.58822510638E+02 -0.10488515819E+03 -0.34196730943E+02  0.12502164508E+03  0.10566000000E+00 0. -1.
<mgrwt>
<rscale>  1 0.58569488E+03</rscale>
<asrwt>0</asrwt>
<pdfrwt beam="1">  1       21 0.28474977E+00 0.99280100E+03</pdfrwt>
<pdfrwt beam="2">  1        4 0.33244843E-01 0.99280100E+03</pdfrwt>
<totfact> 0.11677230E+01</totfact>
</mgrwt>
</event>
<event>
 6    1  0.1353269E-005  0.9631766E+03  0.7818608E-02  0.1000210E+00
         21   -1    0    0  501  502  0.00000000000E+00  0.00000000000E+00  0.21598941627E+03  0.21598941627E+03  0.00000000000E+00 0.  1.
          4   -1    0    0  502    0 -0.00000000000E+00 -0.00000000000E+00 -0.13911975340E+04  0.13911975340E+04  0.00000000000E+00 0.  1.
    9000010    2    1    2  501    0  0.95922106983E+02 -0.46571108836E+02 -0.92592607173E+03  0.13360569659E+04  0.95725608230E+03 0.  0.
        -13    1    3    3    0    0 -0.23381795759E+03  0.11082852392E+03 -0.93542435497E+03  0.97055269514E+03  0.10566000000E+00 0.  1.
          4    1    3    3  501    0  0.32974006457E+03 -0.15739963275E+03  0.94982832432E+01  0.36550427078E+03  0.00000000000E+00 0.  1.
         13    1    1    2    0    0 -0.95922106983E+02  0.46571108836E+02 -0.24928204602E+03  0.27112998436E+03  0.10566000000E+00 0. -1.
<mgrwt>
<rscale>  1 0.55558327E+03</rscale>
<asrwt>0</asrwt>
<pdfrwt beam="1">  1       21 0.33229141E-01 0.96317658E+03</pdfrwt>
<pdfrwt beam="2">  1        4 0.21403039E+00 0.96317658E+03</pdfrwt>
<totfact> 0.37909302E+01</totfact>
</mgrwt>
</event>
<event>
 6    1  0.1353269E-005  0.1095174E+04  0.7818608E-02  0.9491854E-01
          4   -1    0    0  502    0 -0.00000000000E+00  0.00000000000E+00  0.40644764816E+03  0.40644764816E+03  0.00000000000E+00 0.  1.
         21   -1    0    0  501  502  0.00000000000E+00 -0.00000000000E+00 -0.16752596713E+04  0.16752596713E+04  0.00000000000E+00 0.  1.
    9000010    2    1    2  501    0 -0.77019074895E+02  0.38771479936E+03 -0.12821229612E+04  0.16861925968E+04  0.10213478754E+04 0.  0.
        -13    1    3    3    0    0 -0.27878384906E+03  0.61802592786E+03 -0.48877802174E+03  0.83581125125E+03  0.10566000000E+00 0.  1.
          4    1    3    3  501    0  0.20176477417E+03 -0.23031112850E+03 -0.79334493942E+03  0.85038134558E+03  0.00000000000E+00 0.  1.
         13    1    1    2    0    0  0.77019074895E+02 -0.38771479936E+03  0.13310938064E+02  0.39551472258E+03  0.10566000000E+00 0. -1.
<mgrwt>
<rscale>  1 0.84887061E+03</rscale>
<asrwt>0</asrwt>
<pdfrwt beam="2">  1       21 0.25773226E+00 0.10951740E+04</pdfrwt>
<pdfrwt beam="1">  1        4 0.62530406E-01 0.10951740E+04</pdfrwt>
<totfact> 0.45492215E+00</totfact>
</mgrwt>
</event>
<event>
 6    1  0.1353269E-005  0.1054009E+04  0.7818608E-02  0.9575539E-01
         21   -1    0    0  501  502  0.00000000000E+00  0.00000000000E+00  0.13268078805E+04  0.13268078805E+04  0.00000000000E+00 0.  1.
          4   -1    0    0  502    0 -0.00000000000E+00 -0.00000000000E+00 -0.47041817222E+03  0.47041817222E+03  0.00000000000E+00 0.  1.
    9000010    2    1    2  501    0  0.24456485756E+02 -0.33067053164E+03  0.98400355889E+03  0.14419424670E+04  0.10004968536E+04 0.  0.
        -13    1    3    3    0    0 -0.77663220563E+02  0.20439161133E+03  0.85451250822E+03  0.88204259788E+03  0.10566000000E+00 0.  1.
          4    1    3    3  501    0  0.10211970632E+03 -0.53506214297E+03  0.12949105068E+03  0.55989986914E+03  0.00000000000E+00 0.  1.
         13    1    1    2    0    0 -0.24456485756E+02  0.33067053164E+03 -0.12761385065E+03  0.35528358566E+03  0.10566000000E+00 0. -1.
<mgrwt>
<rscale>  1 0.78936575E+03</rscale>
<asrwt>0</asrwt>
<pdfrwt beam="1">  1       21 0.20412429E+00 0.10540090E+04</pdfrwt>
<pdfrwt beam="2">  1        4 0.72372027E-01 0.10540090E+04</pdfrwt>
<totfact> 0.74054442E+00</totfact>
</mgrwt>
</event>
<event>
 6    1  0.1353269E-005  0.1013851E+04  0.7818608E-02  0.9847540E-01
         21   -1    0    0  501  502  0.00000000000E+00  0.00000000000E+00  0.98382873924E+03  0.98382873924E+03  0.00000000000E+00 0.  1.
          4   -1    0    0  502    0 -0.00000000000E+00 -0.00000000000E+00 -0.42470278917E+03  0.42470278917E+03  0.00000000000E+00 0.  1.
    9000010    2    1    2  501    0  0.14733524795E+03 -0.27831170043E+02  0.67588814244E+03  0.12184902959E+04  0.10027021347E+04 0.  0.
        -13    1    3    3    0    0  0.47251421787E+03  0.26912021674E+03  0.51704221181E+03  0.75035194216E+03  0.10566000000E+00 0.  1.
          4    1    3    3  501    0 -0.32517896992E+03 -0.29695138678E+03  0.15884593062E+03  0.46813835377E+03  0.00000000000E+00 0.  1.
         13    1    1    2    0    0 -0.14733524795E+03  0.27831170043E+02 -0.11676219236E+03  0.19004123248E+03  0.10566000000E+00 0. -1.
<mgrwt>
<rscale>  1 0.62872480E+03</rscale>
<asrwt>0</asrwt>
<pdfrwt beam="1">  1       21 0.15135827E+00 0.10138510E+04</pdfrwt>
<pdfrwt beam="2">  1        4 0.65338891E-01 0.10138510E+04</pdfrwt>
<totfact> 0.22836744E+01</totfact>
</mgrwt>
</event>
<event>
 6    1  0.1353269E-005  0.1000027E+04  0.7818608E-02  0.1050375E+00
          4   -1    0    0  502    0 -0.00000000000E+00  0.00000000000E+00  0.35058153156E+03  0.35058153156E+03  0.00000000000E+00 0.  1.
         21   -1    0    0  501  502  0.00000000000E+00 -0.00000000000E+00 -0.78193467272E+03  0.78193467272E+03  0.00000000000E+00 0.  1.
    9000010    2    1    2  501    0  0.23311734490E+01  0.21055666937E+02 -0.45678925458E+03  0.10994135985E+04  0.99980251149E+03 0.  0.
        -13    1    3    3    0    0  0.55668123932E+02 -0.32897510111E+03  0.17381133624E+03  0.37620997986E+03  0.10566000000E+00 0.  1.
          4    1    3    3  501    0 -0.53336950483E+02  0.35003076805E+03 -0.63060059083E+03  0.72320361864E+03  0.00000000000E+00 0.  1.
         13    1    1    2    0    0 -0.23311734490E+01 -0.21055666937E+02  0.25436113422E+02  0.33102605787E+02  0.10566000000E+00 0. -1.
<mgrwt>
<rscale>  1 0.38151688E+03</rscale>
<asrwt>0</asrwt>
<pdfrwt beam="2">  1       21 0.12029764E+00 0.10000269E+04</pdfrwt>
<pdfrwt beam="1">  1        4 0.53935620E-01 0.10000269E+04</pdfrwt>
<totfact> 0.64406722E+01</totfact>
</mgrwt>
</event>
<event>
 6    1  0.1353269E-005  0.1001473E+04  0.7818608E-02  0.1010141E+00
         21   -1    0    0  501  502  0.00000000000E+00  0.00000000000E+00  0.71367006475E+03  0.71367006475E+03  0.00000000000E+00 0.  1.
          4   -1    0    0  502    0 -0.00000000000E+00 -0.00000000000E+00 -0.69809196184E+03  0.69809196184E+03  0.00000000000E+00 0.  1.
    9000010    2    1    2  501    0  0.68746870070E+02  0.10821610905E+02  0.35708947783E+03  0.10632318704E+04  0.99905248895E+03 0.  0.
        -13    1    3    3    0    0 -0.26097495857E+03 -0.38193606251E+03  0.49444507588E+02  0.46521807289E+03  0.10566000000E+00 0.  1.
          4    1    3    3  501    0  0.32972182864E+03  0.39275767342E+03  0.30764497024E+03  0.59801379752E+03  0.00000000000E+00 0.  1.
         13    1    1    2    0    0 -0.68746870070E+02 -0.10821610905E+02 -0.34151137491E+03  0.34853015618E+03  0.10566000000E+00 0. -1.
<mgrwt>
<rscale>  1 0.51418772E+03</rscale>
<asrwt>0</asrwt>
<pdfrwt beam="1">  1       21 0.10979540E+00 0.10014735E+04</pdfrwt>
<pdfrwt beam="2">  1        4 0.10739876E+00 0.10014735E+04</pdfrwt>
<totfact> 0.16900780E+01</totfact>
</mgrwt>
</event>
<event>
 6    1  0.1353269E-005  0.8488496E+03  0.7818608E-02  0.1012273E+00
         21   -1    0    0  501  502  0.00000000000E+00  0.00000000000E+00  0.18154164303E+04  0.18154164303E+04  0.00000000000E+00 0.  1.
          4   -1    0    0  502    0 -0.00000000000E+00 -0.00000000000E+00 -0.13574550773E+03  0.13574550773E+03  0.00000000000E+00 0.  1.
    9000010    2    1    2  501    0 -0.17457972586E+02  0.10558744293E+03  0.16192700209E+04  0.18282726830E+04  0.84207607368E+03 0.  0.
        -13    1    3    3    0    0  0.36535588230E+02  0.43722825635E+03  0.52831677438E+03  0.68674742272E+03  0.10566000000E+00 0.  1.
          4    1    3    3  501    0 -0.53993560816E+02 -0.33164081342E+03  0.10909532465E+04  0.11415252603E+04  0.00000000000E+00 0.  1.
         13    1    1    2    0    0  0.17457972586E+02 -0.10558744293E+03  0.60400901607E+02  0.12288925499E+03  0.10566000000E+00 0. -1.
<mgrwt>
<rscale>  1 0.50581340E+03</rscale>
<asrwt>0</asrwt>
<pdfrwt beam="1">  1       21 0.27929482E+00 0.84884958E+03</pdfrwt>
<pdfrwt beam="2">  1        4 0.20883926E-01 0.84884958E+03</pdfrwt>
<totfact> 0.31624223E+01</totfact>
</mgrwt>
</event>
<event>
 6    1  0.1353269E-005  0.1085144E+04  0.7818608E-02  0.9384338E-01
         21   -1    0    0  501  502  0.00000000000E+00  0.00000000000E+00  0.24592843934E+04  0.24592843934E+04  0.00000000000E+00 0.  1.
          4   -1    0    0  502    0 -0.00000000000E+00 -0.00000000000E+00 -0.43834875162E+03  0.43834875162E+03  0.00000000000E+00 0.  1.
    9000010    2    1    2  501    0  0.52975441487E+03  0.27077625897E+03  0.20308748432E+04  0.23026051446E+04  0.90751214894E+03 0.  0.
        -13    1    3    3    0    0 -0.17947249471E+02 -0.15349894027E+03 -0.23735815886E+01  0.15456284638E+03  0.10566000000E+00 0.  1.
          4    1    3    3  501    0  0.54770166434E+03  0.42427519924E+03  0.20332484248E+04  0.21480422982E+04  0.00000000000E+00 0.  1.
         13    1    1    2    0    0 -0.52975441487E+03 -0.27077625897E+03 -0.99392013837E+01  0.59502800051E+03  0.10566000000E+00 0. -1.
<mgrwt>
<rscale>  1 0.93375895E+03</rscale>
<asrwt>0</asrwt>
<pdfrwt beam="1">  1       21 0.37835143E+00 0.10851441E+04</pdfrwt>
<pdfrwt beam="2">  1        4 0.67438271E-01 0.10851441E+04</pdfrwt>
<totfact> 0.67063252E-01</totfact>
</mgrwt>
</event>
<event>
 6    1  0.1353269E-005  0.1122620E+04  0.7818608E-02  0.9397470E-01
          4   -1    0    0  502    0 -0.00000000000E+00  0.00000000000E+00  0.10514718039E+04  0.10514718039E+04  0.00000000000E+00 0.  1.
         21   -1    0    0  501  502  0.00000000000E+00 -0.00000000000E+00 -0.64407253109E+03  0.64407253109E+03  0.00000000000E+00 0.  1.
    9000010    2    1    2  501    0  0.14033836181E+03 -0.49305424574E+03  0.18942211421E+03  0.11384883254E+04  0.99873799598E+03 0.  0.
        -13    1    3    3    0    0  0.40125869588E+03 -0.68131617175E+03  0.64438260953E+02  0.79331744437E+03  0.10566000000E+00 0.  1.
          4    1    3    3  501    0 -0.26092033407E+03  0.18826192601E+03  0.12498385325E+03  0.34517088100E+03  0.00000000000E+00 0.  1.
         13    1    1    2    0    0 -0.14033836181E+03  0.49305424574E+03  0.21797715863E+03  0.55705600965E+03  0.10566000000E+00 0. -1.
<mgrwt>
<rscale>  1 0.92284149E+03</rscale>
<asrwt>0</asrwt>
<pdfrwt beam="2">  1       21 0.99088081E-01 0.11226197E+04</pdfrwt>
<pdfrwt beam="1">  1        4 0.16176489E+00 0.11226197E+04</pdfrwt>
<totfact> 0.74699351E+00</totfact>
</mgrwt>
</event>
<event>
 6    1  0.1353269E-005  0.1044665E+04  0.7818608E-02  0.9580584E-01
          4   -1    0    0  502    0 -0.00000000000E+00  0.00000000000E+00  0.50246693195E+03  0.50246693195E+03  0.00000000000E+00 0.  1.
         21   -1    0    0  501  502  0.00000000000E+00 -0.00000000000E+00 -0.94991620678E+03  0.94991620678E+03  0.00000000000E+00 0. -1.
    9000010    2    1    2  501    0 -0.16529401424E+03  0.29102331668E+03 -0.37507848084E+03  0.11099590961E+04  0.98960024565E+03 0.  0.
        -13    1    3    3    0    0 -0.34157801882E+03  0.31493476899E+03  0.20160301984E+03  0.50646148959E+03  0.10566000000E+00 0.  1.
          4    1    3    3  501    0  0.17628400458E+03 -0.23911452313E+02 -0.57668150068E+03  0.60349760649E+03  0.00000000000E+00 0.  1.
         13    1    1    2    0    0  0.16529401424E+03 -0.29102331668E+03 -0.72370793992E+02  0.34242404265E+03  0.10566000000E+00 0. -1.
<mgrwt>
<rscale>  1 0.78594686E+03</rscale>
<asrwt>0</asrwt>
<pdfrwt beam="2">  1       21 0.14614095E+00 0.10446652E+04</pdfrwt>
<pdfrwt beam="1">  1        4 0.77302606E-01 0.10446652E+04</pdfrwt>
<totfact> 0.17197293E+01</totfact>
</mgrwt>
</event>
<event>
 6    1  0.1353269E-005  0.1018847E+04  0.7818608E-02  0.9898719E-01
         21   -1    0    0  501  502  0.00000000000E+00  0.00000000000E+00  0.12327913057E+04  0.12327913057E+04  0.00000000000E+00 0.  1.
          4   -1    0    0  502    0 -0.00000000000E+00 -0.00000000000E+00 -0.26557449196E+03  0.26557449196E+03  0.00000000000E+00 0.  1.
    9000010    2    1    2  501    0 -0.12520034660E+03  0.88350349266E+00  0.87228224958E+03  0.13412400836E+04  0.10111244887E+04 0.  0.
        -13    1    3    3    0    0 -0.37436454394E+03  0.37737352347E+03  0.29353054247E+03  0.60722300558E+03  0.10566000000E+00 0.  1.
          4    1    3    3  501    0  0.24916419734E+03 -0.37649001998E+03  0.57875170711E+03  0.73401707805E+03  0.00000000000E+00 0.  1.
         13    1    1    2    0    0  0.12520034660E+03 -0.88350349266E+00  0.94934564121E+02  0.15712571399E+03  0.10566000000E+00 0. -1.
<mgrwt>
<rscale>  1 0.60323393E+03</rscale>
<asrwt>0</asrwt>
<pdfrwt beam="1">  1       21 0.18966020E+00 0.10188467E+04</pdfrwt>
<pdfrwt beam="2">  1        4 0.40857615E-01 0.10188467E+04</pdfrwt>
<totfact> 0.31946741E+01</totfact>
</mgrwt>
</event>
<event>
 6    1  0.1353269E-005  0.1020339E+04  0.7818608E-02  0.9734496E-01
          4   -1    0    0  502    0 -0.00000000000E+00  0.00000000000E+00  0.17730108022E+03  0.17730108022E+03  0.00000000000E+00 0.  1.
         21   -1    0    0  501  502  0.00000000000E+00 -0.00000000000E+00 -0.23287567046E+04  0.23287567046E+04  0.00000000000E+00 0.  1.
    9000010    2    1    2  501    0  0.21311963646E+03  0.10511967719E+02 -0.19972561465E+04  0.22427937139E+04  0.99777805511E+03 0.  0.
        -13    1    3    3    0    0  0.14863064168E+03  0.20771778398E+03 -0.20181622179E+04  0.20342606751E+04  0.10566000000E+00 0.  1.
          4    1    3    3  501    0  0.64488994777E+02 -0.19720581626E+03  0.20906071409E+02  0.20853303872E+03  0.00000000000E+00 0.  1.
         13    1    1    2    0    0 -0.21311963646E+03 -0.10511967719E+02 -0.15419947784E+03  0.26326407093E+03  0.10566000000E+00 0. -1.
<mgrwt>
<rscale>  1 0.68999530E+03</rscale>
<asrwt>0</asrwt>
<pdfrwt beam="2">  1       21 0.35827026E+00 0.10203389E+04</pdfrwt>
<pdfrwt beam="1">  1        4 0.27277089E-01 0.10203389E+04</pdfrwt>
<totfact> 0.59384432E+00</totfact>
</mgrwt>
</event>
<event>
 6    1  0.1353269E-005  0.1025014E+04  0.7818608E-02  0.9698514E-01
         21   -1    0    0  501  502  0.00000000000E+00  0.00000000000E+00  0.15551775672E+04  0.15551775672E+04  0.00000000000E+00 0.  1.
          4   -1    0    0  502    0 -0.00000000000E+00 -0.00000000000E+00 -0.26645009570E+03  0.26645009570E+03  0.00000000000E+00 0.  1.
    9000010    2    1    2  501    0  0.14230029611E+03  0.18998315917E+03  0.88943969631E+03  0.13571131705E+04  0.99715104634E+03 0.  0.
        -13    1    3    3    0    0  0.43088749815E+03  0.11800455944E+03  0.30110922809E+02  0.44776756353E+03  0.10566000000E+00 0.  1.
          4    1    3    3  501    0 -0.28858720204E+03  0.71978599732E+02  0.85932877350E+03  0.90934560700E+03  0.00000000000E+00 0.  1.
         13    1    1    2    0    0 -0.14230029611E+03 -0.18998315917E+03  0.39928777516E+03  0.46451449235E+03  0.10566000000E+00 0. -1.
<mgrwt>
<rscale>  1 0.71105354E+03</rscale>
<asrwt>0</asrwt>
<pdfrwt beam="1">  1       21 0.23925808E+00 0.10250137E+04</pdfrwt>
<pdfrwt beam="2">  1        4 0.40992324E-01 0.10250137E+04</pdfrwt>
<totfact> 0.14749030E+01</totfact>
</mgrwt>
</event>
<event>
 6    1  0.1353269E-005  0.9869621E+03  0.7818608E-02  0.9903738E-01
          4   -1    0    0  502    0 -0.00000000000E+00  0.00000000000E+00  0.13878468267E+04  0.13878468267E+04  0.00000000000E+00 0.  1.
         21   -1    0    0  501  502  0.00000000000E+00 -0.00000000000E+00 -0.23623021935E+03  0.23623021935E+03  0.00000000000E+00 0.  1.
    9000010    2    1    2  501    0  0.85277089866E+01 -0.13526031896E+03  0.88791718646E+03  0.13275884772E+04  0.97761247902E+03 0.  0.
        -13    1    3    3    0    0 -0.29226142938E+03  0.15041274396E+03  0.84963144815E+03  0.91099634768E+03  0.10566000000E+00 0.  1.
          4    1    3    3  501    0  0.30078913837E+03 -0.28567306292E+03  0.38285738316E+02  0.41659212954E+03  0.00000000000E+00 0.  1.
         13    1    1    2    0    0 -0.85277089866E+01  0.13526031896E+03  0.26369942085E+03  0.29648856880E+03  0.10566000000E+00 0. -1.
<mgrwt>
<rscale>  1 0.60080475E+03</rscale>
<asrwt>0</asrwt>
<pdfrwt beam="2">  1       21 0.36343112E-01 0.98696212E+03</pdfrwt>
<pdfrwt beam="1">  1        4 0.21351489E+00 0.98696212E+03</pdfrwt>
<totfact> 0.31710059E+01</totfact>
</mgrwt>
</event>
<event>
 6    1  0.1353269E-005  0.1013647E+04  0.7818608E-02  0.9759406E-01
         21   -1    0    0  501  502  0.00000000000E+00  0.00000000000E+00  0.18455218417E+04  0.18455218417E+04  0.00000000000E+00 0.  1.
          4   -1    0    0  502    0 -0.00000000000E+00 -0.00000000000E+00 -0.21266071508E+03  0.21266071508E+03  0.00000000000E+00 0.  1.
    9000010    2    1    2  501    0 -0.19979473602E+03  0.14980605473E+02  0.15235681877E+04  0.18299561062E+04  0.99364831447E+03 0.  0.
        -13    1    3    3    0    0  0.45478094598E+02 -0.16599560158E+03  0.15152870057E+04  0.15250303334E+04  0.10566000000E+00 0.  1.
          4    1    3    3  501    0 -0.24527283062E+03  0.18097620705E+03  0.82811820154E+01  0.30492577283E+03  0.00000000000E+00 0.  1.
         13    1    1    2    0    0  0.19979473602E+03 -0.14980605473E+02  0.10929293886E+03  0.22822645055E+03  0.10566000000E+00 0. -1.
<mgrwt>
<rscale>  1 0.67587329E+03</rscale>
<asrwt>0</asrwt>
<pdfrwt beam="1">  1       21 0.28392643E+00 0.10136465E+04</pdfrwt>
<pdfrwt beam="2">  1        4 0.32717034E-01 0.10136465E+04</pdfrwt>
<totfact> 0.12155706E+01</totfact>
</mgrwt>
</event>
<event>
 6    1  0.1353269E-005  0.1076082E+04  0.7818608E-02  0.9471022E-01
         21   -1    0    0  501  502  0.00000000000E+00  0.00000000000E+00  0.12161313336E+04  0.12161313336E+04  0.00000000000E+00 0.  1.
          4   -1    0    0  502    0 -0.00000000000E+00 -0.00000000000E+00 -0.52232318232E+03  0.52232318232E+03  0.00000000000E+00 0.  1.
    9000010    2    1    2  501    0 -0.21618970818E+03  0.39277868226E+03  0.71103919455E+03  0.12897786828E+04  0.97823270816E+03 0.  0.
        -13    1    3    3    0    0 -0.43173267224E+03  0.25078397946E+03 -0.34843071061E+02  0.50049950589E+03  0.10566000000E+00 0.  1.
          4    1    3    3  501    0  0.21554296407E+03  0.14199470280E+03  0.74588226561E+03  0.78927917693E+03  0.00000000000E+00 0.  1.
         13    1    1    2    0    0  0.21618970818E+03 -0.39277868226E+03 -0.17231043294E+02  0.44867583307E+03  0.10566000000E+00 0. -1.
<mgrwt>
<rscale>  1 0.86454389E+03</rscale>
<asrwt>0</asrwt>
<pdfrwt beam="1">  1       21 0.18709713E+00 0.10760819E+04</pdfrwt>
<pdfrwt beam="2">  1        4 0.80357413E-01 0.10760819E+04</pdfrwt>
<totfact> 0.76458451E+00</totfact>
</mgrwt>
</event>
<event>
 6    1  0.1353269E-005  0.1062438E+04  0.7818608E-02  0.9562944E-01
          4   -1    0    0  502    0 -0.00000000000E+00  0.00000000000E+00  0.30788836208E+03  0.30788836208E+03  0.00000000000E+00 0.  1.
         21   -1    0    0  501  502  0.00000000000E+00 -0.00000000000E+00 -0.15993420633E+04  0.15993420633E+04  0.00000000000E+00 0. -1.
    9000010    2    1    2  501    0 -0.29715549706E+03 -0.16129907873E+03 -0.10308005345E+04  0.14803125565E+04  0.10072024329E+04 0.  0.
        -13    1    3    3    0    0  0.24265086847E+03 -0.36625770818E+03 -0.66419792732E+03  0.79635610790E+03  0.10566000000E+00 0.  1.
          4    1    3    3  501    0 -0.53980636553E+03  0.20495862945E+03 -0.36660260713E+03  0.68395644862E+03  0.00000000000E+00 0.  1.
         13    1    1    2    0    0  0.29715549706E+03  0.16129907873E+03 -0.26065316671E+03  0.42691786881E+03  0.10566000000E+00 0. -1.
<mgrwt>
<rscale>  1 0.79798099E+03</rscale>
<asrwt>0</asrwt>
<pdfrwt beam="2">  1       21 0.24605263E+00 0.10624385E+04</pdfrwt>
<pdfrwt beam="1">  1        4 0.47367440E-01 0.10624385E+04</pdfrwt>
<totfact> 0.98388660E+00</totfact>
</mgrwt>
</event>
<event>
 6    1  0.1353269E-005  0.1009226E+04  0.7818608E-02  0.9604531E-01
          4   -1    0    0  502    0 -0.00000000000E+00  0.00000000000E+00  0.12898517732E+04  0.12898517732E+04  0.00000000000E+00 0.  1.
         21   -1    0    0  501  502  0.00000000000E+00 -0.00000000000E+00 -0.45473653379E+03  0.45473653379E+03  0.00000000000E+00 0.  1.
    9000010    2    1    2  501    0 -0.31791813065E+03  0.12585782155E+03  0.20818077508E+03  0.10304741965E+04  0.94953973352E+03 0.  0.
        -13    1    3    3    0    0 -0.70076363763E+02  0.52927029560E+03  0.78982117704E+02  0.53969985051E+03  0.10566000000E+00 0.  1.
          4    1    3    3  501    0 -0.24784176689E+03 -0.40341247404E+03  0.12919865737E+03  0.49077434600E+03  0.00000000000E+00 0.  1.
         13    1    1    2    0    0  0.31791813065E+03 -0.12585782155E+03  0.62693446429E+03  0.71411411043E+03  0.10566000000E+00 0. -1.
<mgrwt>
<rscale>  1 0.76997015E+03</rscale>
<asrwt>0</asrwt>
<pdfrwt beam="2">  1       21 0.69959468E-01 0.10092264E+04</pdfrwt>
<pdfrwt beam="1">  1        4 0.19843873E+00 0.10092264E+04</pdfrwt>
<totfact> 0.95841680E+00</totfact>
</mgrwt>
</event>
<event>
 6    1  0.1353269E-005  0.1031965E+04  0.7818608E-02  0.9694209E-01
          4   -1    0    0  502    0 -0.00000000000E+00  0.00000000000E+00  0.11262760628E+04  0.11262760628E+04  0.00000000000E+00 0.  1.
         21   -1    0    0  501  502  0.00000000000E+00 -0.00000000000E+00 -0.36339275300E+03  0.36339275300E+03  0.00000000000E+00 0. -1.
    9000010    2    1    2  501    0 -0.12818177406E+03  0.19813937334E+03  0.69477041951E+03  0.12440488747E+04  0.10046202708E+04 0.  0.
        -13    1    3    3    0    0 -0.34567377848E+03  0.52972567741E+03  0.38139150710E+03  0.73861975826E+03  0.10566000000E+00 0.  1.
          4    1    3    3  501    0  0.21749200442E+03 -0.33158630407E+03  0.31337891241E+03  0.50542911647E+03  0.00000000000E+00 0.  1.
         13    1    1    2    0    0  0.12818177406E+03 -0.19813937334E+03  0.68112890293E+02  0.24561994108E+03  0.10566000000E+00 0. -1.
<mgrwt>
<rscale>  1 0.71362608E+03</rscale>
<asrwt>0</asrwt>
<pdfrwt beam="2">  1       21 0.55906578E-01 0.10319650E+04</pdfrwt>
<pdfrwt beam="1">  1        4 0.17327324E+00 0.10319650E+04</pdfrwt>
<totfact> 0.23562237E+01</totfact>
</mgrwt>
</event>
<event>
 6    1  0.1353269E-005  0.1018141E+04  0.7818608E-02  0.9773821E-01
         21   -1    0    0  501  502  0.00000000000E+00  0.00000000000E+00  0.41379283074E+03  0.41379283074E+03  0.00000000000E+00 0.  1.
          4   -1    0    0  502    0 -0.00000000000E+00 -0.00000000000E+00 -0.89736770760E+03  0.89736770760E+03  0.00000000000E+00 0.  1.
    9000010    2    1    2  501    0 -0.16661191114E+03 -0.88183290033E+02 -0.33730819587E+03  0.10725609266E+04  0.10005370062E+04 0.  0.
        -13    1    3    3    0    0  0.33969051777E+03 -0.30973145004E+03 -0.96480110338E+02  0.46971442585E+03  0.10566000000E+00 0.  1.
          4    1    3    3  501    0 -0.50630242891E+03  0.22154816000E+03 -0.24082808553E+03  0.60284650078E+03  0.00000000000E+00 0.  1.
         13    1    1    2    0    0  0.16661191114E+03  0.88183290033E+02 -0.14626668098E+03  0.23859961171E+03  0.10566000000E+00 0. -1.
<mgrwt>
<rscale>  1 0.66786565E+03</rscale>
<asrwt>0</asrwt>
<pdfrwt beam="1">  1       21 0.63660437E-01 0.10181405E+04</pdfrwt>
<pdfrwt beam="2">  1        4 0.13805657E+00 0.10181405E+04</pdfrwt>
<totfact> 0.32789463E+01</totfact>
</mgrwt>
</event>
<event>
 6    1  0.1353269E-005  0.1127294E+04  0.7818608E-02  0.9384541E-01
         21   -1    0    0  501  502  0.00000000000E+00  0.00000000000E+00  0.56938981941E+03  0.56938981941E+03  0.00000000000E+00 0. -1.
          4   -1    0    0  502    0 -0.00000000000E+00 -0.00000000000E+00 -0.12317936537E+04  0.12317936537E+04  0.00000000000E+00 0.  1.
    9000010    2    1    2  501    0 -0.14924847781E+03 -0.50885067021E+03 -0.32713778263E+03  0.11738020506E+04  0.99478038406E+03 0.  0.
        -13    1    3    3    0    0 -0.70292970173E+02 -0.50060172841E+03  0.26884433480E+03  0.57255609303E+03  0.10566000000E+00 0.  1.
          4    1    3    3  501    0 -0.78955507637E+02 -0.82489418050E+01 -0.59598211743E+03  0.60124595760E+03  0.00000000000E+00 0.  1.
         13    1    1    2    0    0  0.14924847781E+03  0.50885067021E+03 -0.33526605161E+03  0.62738142245E+03  0.10566000000E+00 0. -1.
<mgrwt>
<rscale>  1 0.93358884E+03</rscale>
<asrwt>0</asrwt>
<pdfrwt beam="1">  1       21 0.87598435E-01 0.11272942E+04</pdfrwt>
<pdfrwt beam="2">  1        4 0.18950671E+00 0.11272942E+04</pdfrwt>
<totfact> 0.64081211E+00</totfact>
</mgrwt>
</event>
<event>
 6    1  0.1353269E-005  0.1006023E+04  0.7818608E-02  0.9725313E-01
          4   -1    0    0  502    0 -0.00000000000E+00  0.00000000000E+00  0.22791397725E+04  0.22791397725E+04  0.00000000000E+00 0.  1.
         21   -1    0    0  501  502  0.00000000000E+00 -0.00000000000E+00 -0.20436387872E+03  0.20436387872E+03  0.00000000000E+00 0.  1.
    9000010    2    1    2  501    0  0.15850103809E+03 -0.16602567527E+03  0.11375782869E+04  0.15186065223E+04  0.97948675681E+03 0.  0.
        -13    1    3    3    0    0  0.44081868329E+03  0.20147425597E+03  0.32624538171E+03  0.58425084306E+03  0.10566000000E+00 0.  1.
          4    1    3    3  501    0 -0.28231764521E+03 -0.36749993124E+03  0.81133290522E+03  0.93435567925E+03  0.00000000000E+00 0.  1.
         13    1    1    2    0    0 -0.15850103809E+03  0.16602567527E+03  0.93719760686E+03  0.96489712891E+03  0.10566000000E+00 0. -1.
<mgrwt>
<rscale>  1 0.69529458E+03</rscale>
<asrwt>0</asrwt>
<pdfrwt beam="2">  1       21 0.31440598E-01 0.10060226E+04</pdfrwt>
<pdfrwt beam="1">  1        4 0.35063687E+00 0.10060226E+04</pdfrwt>
<totfact> 0.59078867E+00</totfact>
</mgrwt>
</event>
<event>
 6    1  0.1353269E-005  0.1040501E+04  0.7818608E-02  0.9610456E-01
         21   -1    0    0  501  502  0.00000000000E+00  0.00000000000E+00  0.14840749036E+04  0.14840749036E+04  0.00000000000E+00 0.  1.
          4   -1    0    0  502    0 -0.00000000000E+00 -0.00000000000E+00 -0.64995469703E+03  0.64995469703E+03  0.00000000000E+00 0.  1.
    9000010    2    1    2  501    0  0.16255079042E+03 -0.25896285189E+03  0.12445675636E+04  0.16222175626E+04  0.99456366419E+03 0.  0.
        -13    1    3    3    0    0 -0.12757358404E+03  0.33467010773E+03  0.60240249648E+03  0.70083370301E+03  0.10566000000E+00 0.  1.
          4    1    3    3  501    0  0.29012437446E+03 -0.59363295961E+03  0.64216506709E+03  0.92138385963E+03  0.00000000000E+00 0.  1.
         13    1    1    2    0    0 -0.16255079042E+03  0.25896285189E+03 -0.41044735704E+03  0.51181203795E+03  0.10566000000E+00 0. -1.
<mgrwt>
<rscale>  1 0.76608014E+03</rscale>
<asrwt>0</asrwt>
<pdfrwt beam="1">  1       21 0.22831922E+00 0.10405006E+04</pdfrwt>
<pdfrwt beam="2">  1        4 0.99993030E-01 0.10405006E+04</pdfrwt>
<totfact> 0.24105680E+00</totfact>
</mgrwt>
</event>
<event>
 6    1  0.1353269E-005  0.1001320E+04  0.7818608E-02  0.9968766E-01
          4   -1    0    0  502    0 -0.00000000000E+00  0.00000000000E+00  0.47125686464E+03  0.47125686464E+03  0.00000000000E+00 0.  1.
         21   -1    0    0  501  502  0.00000000000E+00 -0.00000000000E+00 -0.79994376683E+03  0.79994376683E+03  0.00000000000E+00 0.  1.
    9000010    2    1    2  501    0 -0.59281466320E+02 -0.87206314614E+02 -0.46071993113E+03  0.11022273630E+04  0.99575251507E+03 0.  0.
        -13    1    3    3    0    0  0.37855202461E+03 -0.46526091520E+02  0.95514831107E+02  0.39317859384E+03  0.10566000000E+00 0.  1.
          4    1    3    3  501    0 -0.43783349093E+03 -0.40680223095E+02 -0.55623476224E+03  0.70904876917E+03  0.00000000000E+00 0.  1.
         13    1    1    2    0    0  0.59281466320E+02  0.87206314614E+02  0.13203302894E+03  0.16897326846E+03  0.10566000000E+00 0. -1.
<mgrwt>
<rscale>  1 0.57041268E+03</rscale>
<asrwt>0</asrwt>
<pdfrwt beam="2">  1       21 0.12306827E+00 0.10013203E+04</pdfrwt>
<pdfrwt beam="1">  1        4 0.72501058E-01 0.10013203E+04</pdfrwt>
<totfact> 0.31703345E+01</totfact>
</mgrwt>
</event>
<event>
 6    1  0.1353269E-005  0.1012040E+04  0.7818608E-02  0.1001160E+00
         21   -1    0    0  501  502  0.00000000000E+00  0.00000000000E+00  0.70841145771E+03  0.70841145771E+03  0.00000000000E+00 0.  1.
          4   -1    0    0  502    0 -0.00000000000E+00 -0.00000000000E+00 -0.48515083747E+03  0.48515083747E+03  0.00000000000E+00 0.  1.
    9000010    2    1    2  501    0 -0.50780053872E+02 -0.73347628306E+02  0.32052267154E+03  0.10615834854E+04  0.10081003050E+04 0.  0.
        -13    1    3    3    0    0 -0.23173817917E+03  0.40925313756E+03  0.27344835226E+03  0.54402640268E+03  0.10566000000E+00 0.  1.
          4    1    3    3  501    0  0.18095812530E+03 -0.48260076587E+03  0.47074319280E+02  0.51755708271E+03  0.00000000000E+00 0.  1.
         13    1    1    2    0    0  0.50780053872E+02  0.73347628306E+02 -0.97262051294E+02  0.13197880980E+03  0.10566000000E+00 0. -1.
<mgrwt>
<rscale>  1 0.55144489E+03</rscale>
<asrwt>0</asrwt>
<pdfrwt beam="1">  1       21 0.10898638E+00 0.10120399E+04</pdfrwt>
<pdfrwt beam="2">  1        4 0.74638590E-01 0.10120399E+04</pdfrwt>
<totfact> 0.40520366E+01</totfact>
</mgrwt>
</event>
<event>
 6    1  0.1353269E-005  0.1005671E+04  0.7818608E-02  0.9880283E-01
         21   -1    0    0  501  502  0.00000000000E+00  0.00000000000E+00  0.83174701950E+03  0.83174701950E+03  0.00000000000E+00 0.  1.
          4   -1    0    0  502    0 -0.00000000000E+00 -0.00000000000E+00 -0.42937489324E+03  0.42937489324E+03  0.00000000000E+00 0.  1.
    9000010    2    1    2  501    0 -0.63428757645E+02  0.12274135674E+03  0.46673946486E+03  0.11087020538E+04  0.99613546677E+03 0.  0.
        -13    1    3    3    0    0  0.38728749828E+03 -0.18193932088E+03  0.34875849546E+03  0.55201994722E+03  0.10566000000E+00 0.  1.
          4    1    3    3  501    0 -0.45071625593E+03  0.30468067762E+03  0.11798096939E+03  0.55668210660E+03  0.00000000000E+00 0.  1.
         13    1    1    2    0    0  0.63428757645E+02 -0.12274135674E+03 -0.64367338596E+02  0.15241985892E+03  0.10566000000E+00 0. -1.
<mgrwt>
<rscale>  1 0.61226429E+03</rscale>
<asrwt>0</asrwt>
<pdfrwt beam="1">  1       21 0.12796108E+00 0.10056712E+04</pdfrwt>
<pdfrwt beam="2">  1        4 0.66057676E-01 0.10056712E+04</pdfrwt>
<totfact> 0.35211041E+01</totfact>
</mgrwt>
</event>
<event>
 6    1  0.1353269E-005  0.1051118E+04  0.7818608E-02  0.9625680E-01
          4   -1    0    0  502    0 -0.00000000000E+00  0.00000000000E+00  0.81875654669E+03  0.81875654669E+03  0.00000000000E+00 0.  1.
         21   -1    0    0  501  502  0.00000000000E+00 -0.00000000000E+00 -0.79000553330E+03  0.79000553330E+03  0.00000000000E+00 0.  1.
    9000010    2    1    2  501    0  0.23620467567E+03  0.15325610336E+03 -0.37544910429E+03  0.11161589656E+04  0.10127036706E+04 0.  0.
        -13    1    3    3    0    0 -0.51500534698E+02 -0.49723621671E+02 -0.65974128306E+03  0.66361382999E+03  0.10566000000E+00 0.  1.
          4    1    3    3  501    0  0.28770521037E+03  0.20297972503E+03  0.28429217876E+03  0.45254513560E+03  0.00000000000E+00 0.  1.
         13    1    1    2    0    0 -0.23620467567E+03 -0.15325610336E+03  0.40420011768E+03  0.49260311441E+03  0.10566000000E+00 0. -1.
<mgrwt>
<rscale>  1 0.75619550E+03</rscale>
<asrwt>0</asrwt>
<pdfrwt beam="2">  1       21 0.12153931E+00 0.10511179E+04</pdfrwt>
<pdfrwt beam="1">  1        4 0.12596255E+00 0.10511179E+04</pdfrwt>
<totfact> 0.86985731E+00</totfact>
</mgrwt>
</event>
<event>
 6    1  0.1353269E-005  0.1187293E+04  0.7818608E-02  0.9365735E-01
          4   -1    0    0  502    0 -0.00000000000E+00  0.00000000000E+00  0.79863564365E+03  0.79863564365E+03  0.00000000000E+00 0.  1.
         21   -1    0    0  501  502  0.00000000000E+00 -0.00000000000E+00 -0.87623724469E+03  0.87623724469E+03  0.00000000000E+00 0. -1.
    9000010    2    1    2  501    0  0.38714566368E+03 -0.29318280810E+03 -0.65241760994E+02  0.11890841475E+04  0.10834328307E+04 0.  0.
        -13    1    3    3    0    0  0.16958461128E+03  0.30411003354E+03 -0.34895590239E+03  0.49296256030E+03  0.10566000000E+00 0.  1.
          4    1    3    3  501    0  0.21756105240E+03 -0.59729284164E+03  0.28371414140E+03  0.69612158724E+03  0.00000000000E+00 0.  1.
         13    1    1    2    0    0 -0.38714566368E+03  0.29318280810E+03 -0.12359840052E+02  0.48578874079E+03  0.10566000000E+00 0. -1.
<mgrwt>
<rscale>  1 0.94950036E+03</rscale>
<asrwt>0</asrwt>
<pdfrwt beam="2">  1       21 0.13480573E+00 0.11872930E+04</pdfrwt>
<pdfrwt beam="1">  1        4 0.12286702E+00 0.11872930E+04</pdfrwt>
<totfact> 0.69380617E+00</totfact>
</mgrwt>
</event>
<event>
 6    1  0.1353269E-005  0.1019527E+04  0.7818608E-02  0.1000956E+00
          4   -1    0    0  502    0 -0.00000000000E+00  0.00000000000E+00  0.16542572149E+03  0.16542572149E+03  0.00000000000E+00 0.  1.
         21   -1    0    0  501  502  0.00000000000E+00 -0.00000000000E+00 -0.23283713705E+04  0.23283713705E+04  0.00000000000E+00 0.  1.
    9000010    2    1    2  501    0  0.46719386409E+02 -0.74364441001E+02 -0.21778899888E+04  0.24047122133E+04  0.10157377882E+04 0.  0.
        -13    1    3    3    0    0 -0.58504855766E+02 -0.53560046847E+03 -0.13053448895E+04  0.14121671189E+04  0.10566000000E+00 0.  1.
          4    1    3    3  501    0  0.10522424217E+03  0.46123602747E+03 -0.87254509932E+03  0.99254509446E+03  0.00000000000E+00 0.  1.
         13    1    1    2    0    0 -0.46719386409E+02  0.74364441001E+02  0.14944339783E+02  0.89084878668E+02  0.10566000000E+00 0. -1.
<mgrwt>
<rscale>  1 0.55233243E+03</rscale>
<asrwt>0</asrwt>
<pdfrwt beam="2">  1       21 0.35821098E+00 0.10195274E+04</pdfrwt>
<pdfrwt beam="1">  1        4 0.25450111E-01 0.10195274E+04</pdfrwt>
<totfact> 0.67932088E+00</totfact>
</mgrwt>
</event>
<event>
 6    1  0.1353269E-005  0.1582707E+04  0.7818608E-02  0.8891728E-01
         21   -1    0    0  501  502  0.00000000000E+00  0.00000000000E+00  0.29004353855E+04  0.29004353855E+04  0.00000000000E+00 0. -1.
          4   -1    0    0  502    0 -0.00000000000E+00 -0.00000000000E+00 -0.69883193451E+03  0.69883193451E+03  0.00000000000E+00 0.  1.
    9000010    2    1    2  501    0  0.48522914702E+02  0.12392865693E+04  0.14657029187E+04  0.21571385884E+04  0.98324776614E+03 0.  0.
        -13    1    3    3    0    0  0.49721377556E+03  0.48805602766E+03  0.52495753219E+03  0.87235351006E+03  0.10566000000E+00 0.  1.
          4    1    3    3  501    0 -0.44869086086E+03  0.75123054160E+03  0.94074538649E+03  0.12847850783E+04  0.00000000000E+00 0.  1.
         13    1    1    2    0    0 -0.48522914702E+02 -0.12392865693E+04  0.73590053234E+03  0.14421287317E+04  0.10566000000E+00 0. -1.
<mgrwt>
<rscale>  1 0.14891091E+04</rscale>
<asrwt>0</asrwt>
<pdfrwt beam="1">  1       21 0.44622082E+00 0.15827071E+04</pdfrwt>
<pdfrwt beam="2">  1        4 0.10751261E+00 0.15827071E+04</pdfrwt>
<totfact> 0.72338439E-02</totfact>
</mgrwt>
</event>
<event>
 6    1  0.1353269E-005  0.1011865E+04  0.7818608E-02  0.9810202E-01
          4   -1    0    0  502    0 -0.00000000000E+00  0.00000000000E+00  0.12217610157E+04  0.12217610157E+04  0.00000000000E+00 0.  1.
         21   -1    0    0  501  502  0.00000000000E+00 -0.00000000000E+00 -0.30019733293E+03  0.30019733293E+03  0.00000000000E+00 0.  1.
    9000010    2    1    2  501    0  0.16461136428E+03  0.43949898041E+02  0.65421513468E+03  0.12049350811E+04  0.99741797284E+03 0.  0.
        -13    1    3    3    0    0  0.27496815505E+03  0.44245592383E+03  0.58900344025E+03  0.78632041472E+03  0.10566000000E+00 0.  1.
          4    1    3    3  501    0 -0.11035679077E+03 -0.39850602578E+03  0.65211694427E+02  0.41861466642E+03  0.00000000000E+00 0.  1.
         13    1    1    2    0    0 -0.16461136428E+03 -0.43949898041E+02  0.26734854807E+03  0.31702326746E+03  0.10566000000E+00 0. -1.
<mgrwt>
<rscale>  1 0.64817917E+03</rscale>
<asrwt>0</asrwt>
<pdfrwt beam="2">  1       21 0.46184206E-01 0.10118652E+04</pdfrwt>
<pdfrwt beam="1">  1        4 0.18796323E+00 0.10118652E+04</pdfrwt>
<totfact> 0.28221851E+01</totfact>
</mgrwt>
</event>
<event>
 6    1  0.1353269E-005  0.1028187E+04  0.7818608E-02  0.9888668E-01
         21   -1    0    0  501  502  0.00000000000E+00  0.00000000000E+00  0.71590124244E+03  0.71590124244E+03  0.00000000000E+00 0.  1.
          4   -1    0    0  502    0 -0.00000000000E+00 -0.00000000000E+00 -0.50302355745E+03  0.50302355745E+03  0.00000000000E+00 0.  1.
    9000010    2    1    2  501    0  0.13339995420E+02  0.12512183430E+03  0.29377500915E+03  0.10693326306E+04  0.10204582745E+04 0.  0.
        -13    1    3    3    0    0 -0.46943916898E+03  0.56822588136E+02 -0.45908648727E+02  0.47508899702E+03  0.10566000000E+00 0.  1.
          4    1    3    3  501    0  0.48277916440E+03  0.68299246163E+02  0.33968365788E+03  0.59424363357E+03  0.00000000000E+00 0.  1.
         13    1    1    2    0    0 -0.13339995420E+02 -0.12512183430E+03 -0.80897324162E+02  0.14959216930E+03  0.10566000000E+00 0. -1.
<mgrwt>
<rscale>  1 0.60813639E+03</rscale>
<asrwt>0</asrwt>
<pdfrwt beam="1">  1       21 0.11013865E+00 0.10281870E+04</pdfrwt>
<pdfrwt beam="2">  1        4 0.77388240E-01 0.10281870E+04</pdfrwt>
<totfact> 0.36285506E+01</totfact>
</mgrwt>
</event>
<event>
 6    1  0.1353269E-005  0.1043904E+04  0.7818608E-02  0.9785863E-01
         21   -1    0    0  501  502  0.00000000000E+00  0.00000000000E+00  0.58769620627E+03  0.58769620627E+03  0.00000000000E+00 0.  1.
          4   -1    0    0  502    0 -0.00000000000E+00 -0.00000000000E+00 -0.63652638227E+03  0.63652638227E+03  0.00000000000E+00 0.  1.
    9000010    2    1    2  501    0 -0.10813168708E+03  0.12868516351E+03  0.16113089089E+02  0.10440283270E+04  0.10302830596E+04 0.  0.
        -13    1    3    3    0    0  0.37550519821E+03 -0.16186182336E+03 -0.17992557447E+03  0.44673999961E+03  0.10566000000E+00 0.  1.
          4    1    3    3  501    0 -0.48363688529E+03  0.29054698687E+03  0.19603866356E+03  0.59728832736E+03  0.00000000000E+00 0.  1.
         13    1    1    2    0    0  0.10813168708E+03 -0.12868516351E+03 -0.64943265092E+02  0.18019426157E+03  0.10566000000E+00 0. -1.
<mgrwt>
<rscale>  1 0.66126757E+03</rscale>
<asrwt>0</asrwt>
<pdfrwt beam="1">  1       21 0.90414801E-01 0.10439040E+04</pdfrwt>
<pdfrwt beam="2">  1        4 0.97927136E-01 0.10439040E+04</pdfrwt>
<totfact> 0.34083260E+01</totfact>
</mgrwt>
</event>
<event>
 6    1  0.1353269E-005  0.1050633E+04  0.7818608E-02  0.9545904E-01
         21   -1    0    0  501  502  0.00000000000E+00  0.00000000000E+00  0.98242857740E+03  0.98242857740E+03  0.00000000000E+00 0.  1.
          4   -1    0    0  502    0 -0.00000000000E+00 -0.00000000000E+00 -0.58104847287E+03  0.58104847287E+03  0.00000000000E+00 0.  1.
    9000010    2    1    2  501    0  0.28886789866E+03  0.23257993840E+03  0.52243616175E+03  0.11733582597E+04  0.98300151160E+03 0.  0.
        -13    1    3    3    0    0  0.19795157042E+03  0.50371942962E+03 -0.39687006076E+02  0.54267223775E+03  0.10566000000E+00 0.  1.
          4    1    3    3  501    0  0.90916328233E+02 -0.27113949122E+03  0.56212316782E+03  0.63068602192E+03  0.00000000000E+00 0.  1.
         13    1    1    2    0    0 -0.28886789866E+03 -0.23257993840E+03 -0.12105605722E+03  0.39011879059E+03  0.10566000000E+00 0. -1.
<mgrwt>
<rscale>  1 0.80982506E+03</rscale>
<asrwt>0</asrwt>
<pdfrwt beam="1">  1       21 0.15114286E+00 0.10506332E+04</pdfrwt>
<pdfrwt beam="2">  1        4 0.89392072E-01 0.10506332E+04</pdfrwt>
<totfact> 0.11176976E+01</totfact>
</mgrwt>
</event>
<event>
 6    1  0.1353269E-005  0.1064068E+04  0.7818608E-02  0.9492591E-01
          4   -1    0    0  502    0 -0.00000000000E+00  0.00000000000E+00  0.16025953613E+04  0.16025953613E+04  0.00000000000E+00 0.  1.
         21   -1    0    0  501  502  0.00000000000E+00 -0.00000000000E+00 -0.47806181665E+03  0.47806181665E+03  0.00000000000E+00 0. -1.
    9000010    2    1    2  501    0  0.35391671224E+03  0.24398875474E+03  0.23064515770E+03  0.10887781475E+04  0.97337203267E+03 0.  0.
        -13    1    3    3    0    0 -0.24001651526E+03  0.24554331396E+03  0.34185068616E+03  0.48452177394E+03  0.10566000000E+00 0.  1.
          4    1    3    3  501    0  0.59393322750E+03 -0.15545592196E+01 -0.11120552846E+03  0.60425637352E+03  0.00000000000E+00 0.  1.
         13    1    1    2    0    0 -0.35391671224E+03 -0.24398875474E+03  0.89388838696E+03  0.99187903050E+03  0.10566000000E+00 0. -1.
<mgrwt>
<rscale>  1 0.84832277E+03</rscale>
<asrwt>0</asrwt>
<pdfrwt beam="2">  1       21 0.73547973E-01 0.10640680E+04</pdfrwt>
<pdfrwt beam="1">  1        4 0.24655313E+00 0.10640680E+04</pdfrwt>
<totfact> 0.41820336E+00</totfact>
</mgrwt>
</event>
<event>
 6    1  0.1353269E-005  0.9834932E+03  0.7818608E-02  0.9954385E-01
         21   -1    0    0  501  502  0.00000000000E+00  0.00000000000E+00  0.39520828492E+03  0.39520828492E+03  0.00000000000E+00 0. -1.
          4   -1    0    0  502    0 -0.00000000000E+00 -0.00000000000E+00 -0.79021920499E+03  0.79021920499E+03  0.00000000000E+00 0.  1.
    9000010    2    1    2  501    0  0.11202763396E+03 -0.31926355223E+02 -0.28198959430E+03  0.10231212541E+04  0.97657026702E+03 0.  0.
        -13    1    3    3    0    0  0.16700554114E+03  0.28571839796E+03 -0.52418083897E+03  0.61991242673E+03  0.10566000000E+00 0.  1.
          4    1    3    3  501    0 -0.54977907176E+02 -0.31764475318E+03  0.24219124467E+03  0.40320882740E+03  0.00000000000E+00 0.  1.
         13    1    1    2    0    0 -0.11202763396E+03  0.31926355223E+02 -0.11302132578E+03  0.16230623578E+03  0.10566000000E+00 0. -1.
<mgrwt>
<rscale>  1 0.57696437E+03</rscale>
<asrwt>0</asrwt>
<pdfrwt beam="1">  1       21 0.60801275E-01 0.98349325E+03</pdfrwt>
<pdfrwt beam="2">  1        4 0.12157219E+00 0.98349325E+03</pdfrwt>
<totfact> 0.50530298E+01</totfact>
</mgrwt>
</event>
<event>
 6    1  0.1353269E-005  0.1000292E+04  0.7818608E-02  0.9863700E-01
          4   -1    0    0  502    0 -0.00000000000E+00  0.00000000000E+00  0.27215265269E+03  0.27215265269E+03  0.00000000000E+00 0.  1.
         21   -1    0    0  501  502  0.00000000000E+00 -0.00000000000E+00 -0.13327269731E+04  0.13327269731E+04  0.00000000000E+00 0.  1.
    9000010    2    1    2  501    0  0.86413669548E+01  0.14788959574E+03 -0.10589980194E+04  0.14567293587E+04  0.98926114533E+03 0.  0.
        -13    1    3    3    0    0  0.17033025341E+03 -0.27314747269E+03 -0.18206726218E+02  0.32241810294E+03  0.10566000000E+00 0.  1.
          4    1    3    3  501    0 -0.16168888646E+03  0.42103706842E+03 -0.10407912931E+04  0.11343112557E+04  0.00000000000E+00 0.  1.
         13    1    1    2    0    0 -0.86413669548E+01 -0.14788959574E+03 -0.15763010239E+01  0.14815026709E+03  0.10566000000E+00 0. -1.
<mgrwt>
<rscale>  1 0.62053243E+03</rscale>
<asrwt>0</asrwt>
<pdfrwt beam="2">  1       21 0.20503492E+00 0.10002918E+04</pdfrwt>
<pdfrwt beam="1">  1        4 0.41869639E-01 0.10002918E+04</pdfrwt>
<totfact> 0.23828482E+01</totfact>
</mgrwt>
</event>
<event>
 6    1  0.1353269E-005  0.1085773E+04  0.7818608E-02  0.9505216E-01
         21   -1    0    0  501  502  0.00000000000E+00  0.00000000000E+00  0.85470512142E+03  0.85470512142E+03  0.00000000000E+00 0. -1.
          4   -1    0    0  502    0 -0.00000000000E+00 -0.00000000000E+00 -0.78162490076E+03  0.78162490076E+03  0.00000000000E+00 0.  1.
    9000010    2    1    2  501    0 -0.56812481433E+02  0.38292173489E+03  0.37147318566E+03  0.11475610729E+04  0.10144197234E+04 0.  0.
        -13    1    3    3    0    0  0.35537479625E+03  0.35688738718E+03  0.50527805546E+03  0.71341837475E+03  0.10566000000E+00 0.  1.
          4    1    3    3  501    0 -0.41218727769E+03  0.26034347708E+02 -0.13380486980E+03  0.43414269812E+03  0.00000000000E+00 0.  1.
         13    1    1    2    0    0  0.56812481433E+02 -0.38292173489E+03 -0.29839296499E+03  0.48876894932E+03  0.10566000000E+00 0. -1.
<mgrwt>
<rscale>  1 0.83900386E+03</rscale>
<asrwt>0</asrwt>
<pdfrwt beam="1">  1       21 0.13149310E+00 0.10857735E+04</pdfrwt>
<pdfrwt beam="2">  1        4 0.12024999E+00 0.10857735E+04</pdfrwt>
<totfact> 0.79189670E+00</totfact>
</mgrwt>
</event>
<event>
 6    1  0.1353269E-005  0.1033891E+04  0.7818608E-02  0.9706681E-01
         21   -1    0    0  501  502  0.00000000000E+00  0.00000000000E+00  0.30489550061E+03  0.30489550061E+03  0.00000000000E+00 0.  1.
          4   -1    0    0  502    0 -0.00000000000E+00 -0.00000000000E+00 -0.17880430194E+04  0.17880430194E+04  0.00000000000E+00 0.  1.
    9000010    2    1    2  501    0 -0.15836534982E+03 -0.15991238022E+03 -0.63024523039E+03  0.12108422225E+04  0.10090977574E+04 0.  0.
        -13    1    3    3    0    0 -0.50102668627E+03  0.19230269480E+03 -0.26470793199E+03  0.59839649665E+03  0.10566000000E+00 0.  1.
          4    1    3    3  501    0  0.34266133645E+03 -0.35221507502E+03 -0.36553729840E+03  0.61244572583E+03  0.00000000000E+00 0.  1.
         13    1    1    2    0    0  0.15836534982E+03  0.15991238022E+03 -0.85290228837E+03  0.88209629749E+03  0.10566000000E+00 0. -1.
<mgrwt>
<rscale>  1 0.70620381E+03</rscale>
<asrwt>0</asrwt>
<pdfrwt beam="1">  1       21 0.46907001E-01 0.10338906E+04</pdfrwt>
<pdfrwt beam="2">  1        4 0.27508354E+00 0.10338906E+04</pdfrwt>
<totfact> 0.76107333E+00</totfact>
</mgrwt>
</event>
<event>
 6    1  0.1353269E-005  0.1022366E+04  0.7818608E-02  0.1018456E+00
          4   -1    0    0  502    0 -0.00000000000E+00  0.00000000000E+00  0.73754103076E+03  0.73754103076E+03  0.00000000000E+00 0.  1.
         21   -1    0    0  501  502  0.00000000000E+00 -0.00000000000E+00 -0.39034855342E+03  0.39034855342E+03  0.00000000000E+00 0.  1.
    9000010    2    1    2  501    0 -0.46199942871E+02 -0.20907857716E+02  0.33297544618E+03  0.10752235764E+04  0.10211079856E+04 0.  0.
        -13    1    3    3    0    0  0.94194401069E+02  0.46100745831E+03  0.32742622651E+03  0.57324375861E+03  0.10566000000E+00 0.  1.
          4    1    3    3  501    0 -0.14039434394E+03 -0.48191531603E+03  0.55492196680E+01  0.50197981779E+03  0.00000000000E+00 0.  1.
         13    1    1    2    0    0  0.46199942871E+02  0.20907857716E+02  0.14217031163E+02  0.52666007773E+02  0.10566000000E+00 0. -1.
<mgrwt>
<rscale>  1 0.48248085E+03</rscale>
<asrwt>0</asrwt>
<pdfrwt beam="2">  1       21 0.60053624E-01 0.10223664E+04</pdfrwt>
<pdfrwt beam="1">  1        4 0.11346785E+00 0.10223664E+04</pdfrwt>
<totfact> 0.61532516E+01</totfact>
</mgrwt>
</event>
<event>
 6    1  0.1353269E-005  0.1074742E+04  0.7818608E-02  0.9526005E-01
         21   -1    0    0  501  502  0.00000000000E+00  0.00000000000E+00  0.20057908002E+04  0.20057908002E+04  0.00000000000E+00 0.  1.
          4   -1    0    0  502    0 -0.00000000000E+00 -0.00000000000E+00 -0.60288249851E+03  0.60288249851E+03  0.00000000000E+00 0.  1.
    9000010    2    1    2  501    0 -0.10052872562E+03 -0.35737199750E+03  0.17801335081E+04  0.20794100023E+04  0.10085880635E+04 0.  0.
        -13    1    3    3    0    0  0.28391477678E+02 -0.70407808959E+03  0.11485494742E+04  0.13474783627E+04  0.10566000000E+00 0.  1.
          4    1    3    3  501    0 -0.12892020330E+03  0.34670609209E+03  0.63158403398E+03  0.73193163963E+03  0.00000000000E+00 0.  1.
         13    1    1    2    0    0  0.10052872562E+03  0.35737199750E+03 -0.37722520647E+03  0.52926329633E+03  0.10566000000E+00 0. -1.
<mgrwt>
<rscale>  1 0.82393423E+03</rscale>
<asrwt>0</asrwt>
<pdfrwt beam="1">  1       21 0.30858320E+00 0.10747421E+04</pdfrwt>
<pdfrwt beam="2">  1        4 0.92751154E-01 0.10747421E+04</pdfrwt>
<totfact> 0.89249485E-01</totfact>
</mgrwt>
</event>
<event>
 6    1  0.1353269E-005  0.1003419E+04  0.7818608E-02  0.9806584E-01
          4   -1    0    0  502    0 -0.00000000000E+00  0.00000000000E+00  0.15852762814E+04  0.15852762814E+04  0.00000000000E+00 0.  1.
         21   -1    0    0  501  502  0.00000000000E+00 -0.00000000000E+00 -0.26698997211E+03  0.26698997211E+03  0.00000000000E+00 0.  1.
    9000010    2    1    2  501    0 -0.17628641596E+03  0.13478265452E+02  0.73785236533E+03  0.12455025940E+04  0.98772062571E+03 0.  0.
        -13    1    3    3    0    0 -0.16235043911E+02  0.27603775077E+03 -0.14386721765E+03  0.31170210776E+03  0.10566000000E+00 0.  1.
          4    1    3    3  501    0 -0.16005137205E+03 -0.26255948532E+03  0.88171958298E+03  0.93380048621E+03  0.00000000000E+00 0.  1.
         13    1    1    2    0    0  0.17628641596E+03 -0.13478265452E+02  0.58043394392E+03  0.60676365951E+03  0.10566000000E+00 0. -1.
<mgrwt>
<rscale>  1 0.65010429E+03</rscale>
<asrwt>0</asrwt>
<pdfrwt beam="2">  1       21 0.41075381E-01 0.10034195E+04</pdfrwt>
<pdfrwt beam="1">  1        4 0.24388865E+00 0.10034195E+04</pdfrwt>
<totfact> 0.15775505E+01</totfact>
</mgrwt>
</event>
<event>
 6    1  0.1353269E-005  0.1021511E+04  0.7818608E-02  0.9770371E-01
         21   -1    0    0  501  502  0.00000000000E+00  0.00000000000E+00  0.16404127655E+03  0.16404127655E+03  0.00000000000E+00 0.  1.
          4   -1    0    0  502    0 -0.00000000000E+00 -0.00000000000E+00 -0.22330631722E+04  0.22330631722E+04  0.00000000000E+00 0.  1.
    9000010    2    1    2  501    0 -0.84328102280E+02  0.16890806001E+03 -0.17311450904E+04  0.20100619340E+04  0.10039145844E+04 0.  0.
        -13    1    3    3    0    0 -0.54216398049E+01 -0.53122504107E+02  0.12661664593E+03  0.13741608644E+03  0.10566000000E+00 0.  1.
          4    1    3    3  501    0 -0.78906462475E+02  0.22203056412E+03 -0.18577617364E+04  0.18726458475E+04  0.00000000000E+00 0.  1.
         13    1    1    2    0    0  0.84328102280E+02 -0.16890806001E+03 -0.33787680523E+03  0.38704251478E+03  0.10566000000E+00 0. -1.
<mgrwt>
<rscale>  1 0.66977114E+03</rscale>
<asrwt>0</asrwt>
<pdfrwt beam="1">  1       21 0.25237121E-01 0.10215115E+04</pdfrwt>
<pdfrwt beam="2">  1        4 0.34354816E+00 0.10215115E+04</pdfrwt>
<totfact> 0.10174840E+01</totfact>
</mgrwt>
</event>
<event>
 6    1  0.1353269E-005  0.1133528E+04  0.7818608E-02  0.9361563E-01
          4   -1    0    0  502    0 -0.00000000000E+00  0.00000000000E+00  0.12452663329E+04  0.12452663329E+04  0.00000000000E+00 0.  1.
         21   -1    0    0  501  502  0.00000000000E+00 -0.00000000000E+00 -0.90955422663E+03  0.90955422663E+03  0.00000000000E+00 0. -1.
    9000010    2    1    2  501    0 -0.14411462645E+03 -0.54787844026E+03  0.82845060844E+03  0.14040003057E+04  0.98180784116E+03 0.  0.
        -13    1    3    3    0    0 -0.41929696729E+03 -0.36716513582E+03  0.50931737248E+02  0.55965546255E+03  0.10566000000E+00 0.  1.
          4    1    3    3  501    0  0.27518234085E+03 -0.18071330445E+03  0.77751887119E+03  0.84434484316E+03  0.00000000000E+00 0.  1.
         13    1    1    2    0    0  0.14411462645E+03  0.54787844026E+03 -0.49273850217E+03  0.75082025382E+03  0.10566000000E+00 0. -1.
<mgrwt>
<rscale>  1 0.95307546E+03</rscale>
<asrwt>0</asrwt>
<pdfrwt beam="2">  1       21 0.13993142E+00 0.11335283E+04</pdfrwt>
<pdfrwt beam="1">  1        4 0.19157944E+00 0.11335283E+04</pdfrwt>
<totfact> 0.18739960E+00</totfact>
</mgrwt>
</event>
<event>
 6    1  0.1353269E-005  0.1057283E+04  0.7818608E-02  0.9641295E-01
         21   -1    0    0  501  502  0.00000000000E+00  0.00000000000E+00  0.11907027506E+04  0.11907027506E+04  0.00000000000E+00 0.  1.
          4   -1    0    0  502    0 -0.00000000000E+00 -0.00000000000E+00 -0.36701831018E+03  0.36701831018E+03  0.00000000000E+00 0.  1.
    9000010    2    1    2  501    0 -0.18525109489E+03  0.18578394824E+03  0.69716780711E+03  0.12664477986E+04  0.10242135675E+04 0.  0.
        -13    1    3    3    0    0 -0.16135404509E+03 -0.38141128548E+03  0.69145022205E+02  0.41986991059E+03  0.10566000000E+00 0.  1.
          4    1    3    3  501    0 -0.23897049796E+02  0.56719523372E+03  0.62802278491E+03  0.84657788804E+03  0.00000000000E+00 0.  1.
         13    1    1    2    0    0  0.18525109489E+03 -0.18578394824E+03  0.12651663331E+03  0.29127326216E+03  0.10566000000E+00 0. -1.
<mgrwt>
<rscale>  1 0.74622278E+03</rscale>
<asrwt>0</asrwt>
<pdfrwt beam="1">  1       21 0.18318504E+00 0.10572829E+04</pdfrwt>
<pdfrwt beam="2">  1        4 0.56464356E-01 0.10572829E+04</pdfrwt>
<totfact> 0.17934493E+01</totfact>
</mgrwt>
</event>
<event>
 6    1  0.1353269E-005  0.1050669E+04  0.7818608E-02  0.9481915E-01
          4   -1    0    0  502    0 -0.00000000000E+00  0.00000000000E+00  0.10686578417E+04  0.10686578417E+04  0.00000000000E+00 0.  1.
         21   -1    0    0  501  502  0.00000000000E+00 -0.00000000000E+00 -0.53738688287E+03  0.53738688287E+03  0.00000000000E+00 0.  1.
    9000010    2    1    2  501    0 -0.40888542908E+02 -0.46176195375E+03  0.33672550361E+03  0.11033082924E+04  0.94287281671E+03 0.  0.
        -13    1    3    3    0    0 -0.46481363636E+03 -0.34062108742E+03  0.32643380453E+03  0.66229410509E+03  0.10566000000E+00 0.  1.
          4    1    3    3  501    0  0.42392509346E+03 -0.12114086634E+03  0.10291699080E+02  0.44101418733E+03  0.00000000000E+00 0.  1.
         13    1    1    2    0    0  0.40888542908E+02  0.46176195375E+03  0.19454545519E+03  0.50273643211E+03  0.10566000000E+00 0. -1.
<mgrwt>
<rscale>  1 0.85630394E+03</rscale>
<asrwt>0</asrwt>
<pdfrwt beam="2">  1       21 0.82674905E-01 0.10506689E+04</pdfrwt>
<pdfrwt beam="1">  1        4 0.16440890E+00 0.10506689E+04</pdfrwt>
<totfact> 0.11157949E+01</totfact>
</mgrwt>
</event>
<event>
 6    1  0.1353269E-005  0.1182899E+04  0.7818608E-02  0.9303304E-01
          4   -1    0    0  502    0 -0.00000000000E+00  0.00000000000E+00  0.95371294485E+03  0.95371294485E+03  0.00000000000E+00 0.  1.
         21   -1    0    0  501  502  0.00000000000E+00 -0.00000000000E+00 -0.84847224364E+03  0.84847224364E+03  0.00000000000E+00 0.  1.
    9000010    2    1    2  501    0  0.15501385014E+03  0.59600310986E+03  0.86747283818E+02  0.11860756054E+04  0.10099511126E+04 0.  0.
        -13    1    3    3    0    0 -0.16048935863E+03  0.53684956581E+03 -0.33746533677E+03  0.65410026390E+03  0.10566000000E+00 0.  1.
          4    1    3    3  501    0  0.31550320877E+03  0.59153544049E+02  0.42421262059E+03  0.53197534152E+03  0.00000000000E+00 0.  1.
         13    1    1    2    0    0 -0.15501385014E+03 -0.59600310986E+03  0.18493417394E+02  0.61610958307E+03  0.10566000000E+00 0. -1.
<mgrwt>
<rscale>  1 0.10047925E+04</rscale>
<asrwt>0</asrwt>
<pdfrwt beam="2">  1       21 0.13053419E+00 0.11828991E+04</pdfrwt>
<pdfrwt beam="1">  1        4 0.14672507E+00 0.11828991E+04</pdfrwt>
<totfact> 0.47658067E+00</totfact>
</mgrwt>
</event>
<event>
 6    1  0.1353269E-005  0.9751739E+03  0.7818608E-02  0.9711210E-01
         21   -1    0    0  501  502  0.00000000000E+00  0.00000000000E+00  0.16063887159E+04  0.16063887159E+04  0.00000000000E+00 0.  1.
          4   -1    0    0  502    0 -0.00000000000E+00 -0.00000000000E+00 -0.24833417908E+03  0.24833417908E+03  0.00000000000E+00 0.  1.
    9000010    2    1    2  501    0  0.52729708009E+02  0.25885872559E+03  0.12022662758E+04  0.15480337113E+04  0.93870970568E+03 0.  0.
        -13    1    3    3    0    0 -0.19589680830E+03  0.12984163631E+03  0.12429611390E+04  0.12649849067E+04  0.10566000000E+00 0.  1.
          4    1    3    3  501    0  0.24862651631E+03  0.12901708928E+03 -0.40694863125E+02  0.28304880466E+03  0.00000000000E+00 0.  1.
         13    1    1    2    0    0 -0.52729708009E+02 -0.25885872559E+03  0.15578826097E+03  0.30668918360E+03  0.10566000000E+00 0. -1.
<mgrwt>
<rscale>  1 0.70353282E+03</rscale>
<asrwt>0</asrwt>
<pdfrwt beam="1">  1       21 0.24713672E+00 0.97517392E+03</pdfrwt>
<pdfrwt beam="2">  1        4 0.38205259E-01 0.97517392E+03</pdfrwt>
<totfact> 0.15266881E+01</totfact>
</mgrwt>
</event>
<event>
 6    1  0.1353269E-005  0.1048233E+04  0.7818608E-02  0.9549676E-01
         21   -1    0    0  501  502  0.00000000000E+00  0.00000000000E+00  0.40703571247E+03  0.40703571247E+03  0.00000000000E+00 0.  1.
          4   -1    0    0  502    0 -0.00000000000E+00 -0.00000000000E+00 -0.16185162818E+04  0.16185162818E+04  0.00000000000E+00 0.  1.
    9000010    2    1    2  501    0  0.31900306180E+00 -0.36856809523E+03 -0.37815373983E+03  0.11143570873E+04  0.98129960993E+03 0.  0.
        -13    1    3    3    0    0 -0.21394644483E+03 -0.43701558433E+02  0.27676680953E+03  0.35253763698E+03  0.10566000000E+00 0.  1.
          4    1    3    3  501    0  0.21426544789E+03 -0.32486653680E+03 -0.65492054936E+03  0.76181945030E+03  0.00000000000E+00 0.  1.
         13    1    1    2    0    0 -0.31900306180E+00  0.36856809523E+03 -0.83332682945E+03  0.91119490694E+03  0.10566000000E+00 0. -1.
<mgrwt>
<rscale>  1 0.80718431E+03</rscale>
<asrwt>0</asrwt>
<pdfrwt beam="1">  1       21 0.62620878E-01 0.10482325E+04</pdfrwt>
<pdfrwt beam="2">  1        4 0.24900251E+00 0.10482325E+04</pdfrwt>
<totfact> 0.58398904E+00</totfact>
</mgrwt>
</event>
<event>
 6    1  0.1353269E-005  0.1012100E+04  0.7818608E-02  0.9692402E-01
          4   -1    0    0  502    0 -0.00000000000E+00  0.00000000000E+00  0.67199890102E+03  0.67199890102E+03  0.00000000000E+00 0.  1.
         21   -1    0    0  501  502  0.00000000000E+00 -0.00000000000E+00 -0.88400159368E+03  0.88400159368E+03  0.00000000000E+00 0.  1.
    9000010    2    1    2  501    0  0.24719673518E+03 -0.47289831009E+02 -0.53637063105E+03  0.11454434041E+04  0.98030841278E+03 0.  0.
        -13    1    3    3    0    0 -0.21248082769E+03  0.13881164419E+03 -0.59422653264E+03  0.64615939052E+03  0.10566000000E+00 0.  1.
          4    1    3    3  501    0  0.45967756288E+03 -0.18610147520E+03  0.57855901585E+02  0.49928401360E+03  0.00000000000E+00 0.  1.
         13    1    1    2    0    0 -0.24719673518E+03  0.47289831009E+02  0.32436793840E+03  0.41055709058E+03  0.10566000000E+00 0. -1.
<mgrwt>
<rscale>  1 0.71470964E+03</rscale>
<asrwt>0</asrwt>
<pdfrwt beam="2">  1       21 0.13600025E+00 0.10121004E+04</pdfrwt>
<pdfrwt beam="1">  1        4 0.10338445E+00 0.10121004E+04</pdfrwt>
<totfact> 0.10600408E+01</totfact>
</mgrwt>
</event>
<event>
 6    1  0.1353269E-005  0.1048206E+04  0.7818608E-02  0.9600141E-01
         21   -1    0    0  501  502  0.00000000000E+00  0.00000000000E+00  0.40576010778E+03  0.40576010778E+03  0.00000000000E+00 0. -1.
          4   -1    0    0  502    0 -0.00000000000E+00 -0.00000000000E+00 -0.11562803011E+04  0.11562803011E+04  0.00000000000E+00 0.  1.
    9000010    2    1    2  501    0  0.28625340137E+03  0.11847168025E+03 -0.66235102995E+03  0.12399373798E+04  0.10013786847E+04 0.  0.
        -13    1    3    3    0    0  0.18136058620E+03  0.17999519895E+01  0.25296896749E+03  0.31126871306E+03  0.10566000000E+00 0.  1.
          4    1    3    3  501    0  0.10489281517E+03  0.11667172826E+03 -0.91531999744E+03  0.92866866672E+03  0.00000000000E+00 0.  1.
         13    1    1    2    0    0 -0.28625340137E+03 -0.11847168025E+03 -0.88169163367E+02  0.32210302909E+03  0.10566000000E+00 0. -1.
<mgrwt>
<rscale>  1 0.77286863E+03</rscale>
<asrwt>0</asrwt>
<pdfrwt beam="1">  1       21 0.62424632E-01 0.10482060E+04</pdfrwt>
<pdfrwt beam="2">  1        4 0.17788928E+00 0.10482060E+04</pdfrwt>
<totfact> 0.17071917E+01</totfact>
</mgrwt>
</event>
<event>
 6    1  0.1353269E-005  0.1010700E+04  0.7818608E-02  0.1012546E+00
          4   -1    0    0  502    0 -0.00000000000E+00  0.00000000000E+00  0.11167022881E+04  0.11167022881E+04  0.00000000000E+00 0.  1.
         21   -1    0    0  501  502  0.00000000000E+00 -0.00000000000E+00 -0.31233621076E+03  0.31233621076E+03  0.00000000000E+00 0.  1.
    9000010    2    1    2  501    0  0.55952695918E+02  0.28670650681E+02  0.51772754879E+03  0.11355860025E+04  0.10087423080E+04 0.  0.
        -13    1    3    3    0    0 -0.10387096591E+03 -0.77027619640E+02  0.79118192854E+03  0.80168028974E+03  0.10566000000E+00 0.  1.
          4    1    3    3  501    0  0.15982366182E+03  0.10569827032E+03 -0.27345437975E+03  0.33390571279E+03  0.00000000000E+00 0.  1.
         13    1    1    2    0    0 -0.55952695918E+02 -0.28670650681E+02  0.28663852857E+03  0.29345249636E+03  0.10566000000E+00 0. -1.
<mgrwt>
<rscale>  1 0.50475265E+03</rscale>
<asrwt>0</asrwt>
<pdfrwt beam="2">  1       21 0.48051725E-01 0.10106996E+04</pdfrwt>
<pdfrwt beam="1">  1        4 0.17180035E+00 0.10106996E+04</pdfrwt>
<totfact> 0.33620344E+01</totfact>
</mgrwt>
</event>
<event>
 6    1  0.1353269E-005  0.1276568E+04  0.7818608E-02  0.9183923E-01
         21   -1    0    0  501  502  0.00000000000E+00  0.00000000000E+00  0.14517445994E+04  0.14517445994E+04  0.00000000000E+00 0.  1.
          4   -1    0    0  502    0 -0.00000000000E+00 -0.00000000000E+00 -0.10990780704E+04  0.10990780704E+04  0.00000000000E+00 0.  1.
    9000010    2    1    2  501    0 -0.74072161499E+03 -0.17902022124E+03  0.94280973898E+03  0.15869835909E+04  0.10241630550E+04 0.  0.
        -13    1    3    3    0    0 -0.89038653464E+03 -0.40829623583E+03  0.60170921621E+03  0.11495860078E+04  0.10566000000E+00 0.  1.
          4    1    3    3  501    0  0.14966491965E+03  0.22927601458E+03  0.34110052277E+03  0.43739758307E+03  0.00000000000E+00 0.  1.
         13    1    1    2    0    0  0.74072161499E+03  0.17902022124E+03 -0.59014321000E+03  0.96383907889E+03  0.10566000000E+00 0. -1.
<mgrwt>
<rscale>  1 0.11220923E+04</rscale>
<asrwt>0</asrwt>
<pdfrwt beam="1">  1       21 0.22334532E+00 0.12765683E+04</pdfrwt>
<pdfrwt beam="2">  1        4 0.16908893E+00 0.12765683E+04</pdfrwt>
<totfact> 0.64225089E-01</totfact>
</mgrwt>
</event>
<event>
 6    1  0.1353269E-005  0.1167801E+04  0.7818608E-02  0.9318450E-01
         21   -1    0    0  501  502  0.00000000000E+00  0.00000000000E+00  0.12636439982E+04  0.12636439982E+04  0.00000000000E+00 0. -1.
          4   -1    0    0  502    0 -0.00000000000E+00 -0.00000000000E+00 -0.66639086630E+03  0.66639086630E+03  0.00000000000E+00 0.  1.
    9000010    2    1    2  501    0  0.50637120009E+03  0.33226310575E+03  0.15054093985E+03  0.11774643645E+04  0.99847343050E+03 0.  0.
        -13    1    3    3    0    0  0.33754011997E+03 -0.19604433199E+03  0.40917173218E+03  0.56549821421E+03  0.10566000000E+00 0.  1.
          4    1    3    3  501    0  0.16883108012E+03  0.52830743774E+03 -0.25863079233E+03  0.61196615031E+03  0.00000000000E+00 0.  1.
         13    1    1    2    0    0 -0.50637120009E+03 -0.33226310575E+03  0.44671219200E+03  0.75257049993E+03  0.10566000000E+00 0. -1.
<mgrwt>
<rscale>  1 0.99101901E+03</rscale>
<asrwt>0</asrwt>
<pdfrwt beam="1">  1       21 0.19440677E+00 0.11678012E+04</pdfrwt>
<pdfrwt beam="2">  1        4 0.10252167E+00 0.11678012E+04</pdfrwt>
<totfact> 0.37735649E+00</totfact>
</mgrwt>
</event>
<event>
 6    1  0.1353269E-005  0.1070836E+04  0.7818608E-02  0.9545371E-01
         21   -1    0    0  501  502  0.00000000000E+00  0.00000000000E+00  0.39962929460E+03  0.39962929460E+03  0.00000000000E+00 0. -1.
          4   -1    0    0  502    0 -0.00000000000E+00 -0.00000000000E+00 -0.13121556220E+04  0.13121556220E+04  0.00000000000E+00 0.  1.
    9000010    2    1    2  501    0  0.30756158995E+03  0.16895060776E+03 -0.53741935066E+03  0.11981277404E+04  0.10117075093E+04 0.  0.
        -13    1    3    3    0    0  0.65692695176E+02  0.53022898004E+03 -0.37495055037E+02  0.53559704236E+03  0.10566000000E+00 0.  1.
          4    1    3    3  501    0  0.24186889477E+03 -0.36127837227E+03 -0.49992429563E+03  0.66253069807E+03  0.00000000000E+00 0.  1.
         13    1    1    2    0    0 -0.30756158995E+03 -0.16895060776E+03 -0.37510697676E+03  0.51365717619E+03  0.10566000000E+00 0. -1.
<mgrwt>
<rscale>  1 0.81019870E+03</rscale>
<asrwt>0</asrwt>
<pdfrwt beam="1">  1       21 0.61481429E-01 0.10708364E+04</pdfrwt>
<pdfrwt beam="2">  1        4 0.20187010E+00 0.10708364E+04</pdfrwt>
<totfact> 0.12106409E+01</totfact>
</mgrwt>
</event>
<event>
 6    1  0.1353269E-005  0.1312246E+04  0.7818608E-02  0.9134220E-01
          4   -1    0    0  502    0 -0.00000000000E+00  0.00000000000E+00  0.23712018305E+04  0.23712018305E+04  0.00000000000E+00 0.  1.
         21   -1    0    0  501  502  0.00000000000E+00 -0.00000000000E+00 -0.96410621635E+03  0.96410621635E+03  0.00000000000E+00 0. -1.
    9000010    2    1    2  501    0  0.84400042927E+03  0.59813397724E+02  0.19350143390E+04  0.23380054056E+04  0.10030326104E+04 0.  0.
        -13    1    3    3    0    0  0.27044498191E+03  0.50553261560E+03  0.69563755275E+03  0.90145178996E+03  0.10566000000E+00 0.  1.
          4    1    3    3  501    0  0.57355544737E+03 -0.44571921787E+03  0.12393767862E+04  0.14365536156E+04  0.00000000000E+00 0.  1.
         13    1    1    2    0    0 -0.84400042927E+03 -0.59813397724E+02 -0.52791872478E+03  0.99730264128E+03  0.10566000000E+00 0. -1.
<mgrwt>
<rscale>  1 0.11758964E+04</rscale>
<asrwt>0</asrwt>
<pdfrwt beam="2">  1       21 0.14832403E+00 0.13122457E+04</pdfrwt>
<pdfrwt beam="1">  1        4 0.36480028E+00 0.13122457E+04</pdfrwt>
<totfact> 0.12304634E-01</totfact>
</mgrwt>
</event>
<event>
 6    1  0.1353269E-005  0.1001830E+04  0.7818608E-02  0.1032168E+00
         21   -1    0    0  501  502  0.00000000000E+00  0.00000000000E+00  0.24981319023E+03  0.24981319023E+03  0.00000000000E+00 0.  1.
          4   -1    0    0  502    0 -0.00000000000E+00 -0.00000000000E+00 -0.10868518127E+04  0.10868518127E+04  0.00000000000E+00 0.  1.
    9000010    2    1    2  501    0 -0.21061069568E+01  0.35678954436E+02 -0.78137946281E+03  0.12705183727E+04  0.10011921129E+04 0.  0.
        -13    1    3    3    0    0 -0.48786805460E+03  0.73024992791E+00 -0.24467451682E+03  0.54578512467E+03  0.10566000000E+00 0.  1.
          4    1    3    3  501    0  0.48576194764E+03  0.34948704508E+02 -0.53670494600E+03  0.72473324802E+03  0.00000000000E+00 0.  1.
         13    1    1    2    0    0  0.21061069568E+01 -0.35678954436E+02 -0.55659159647E+02  0.66146630245E+02  0.10566000000E+00 0. -1.
<mgrwt>
<rscale>  1 0.43539939E+03</rscale>
<asrwt>0</asrwt>
<pdfrwt beam="1">  1       21 0.38432799E-01 0.10018299E+04</pdfrwt>
<pdfrwt beam="2">  1        4 0.16720797E+00 0.10018299E+04</pdfrwt>
<totfact> 0.58242305E+01</totfact>
</mgrwt>
</event>
<event>
 6    1  0.1353269E-005  0.1012847E+04  0.7818608E-02  0.9793052E-01
          4   -1    0    0  502    0 -0.00000000000E+00  0.00000000000E+00  0.55005673173E+03  0.55005673173E+03  0.00000000000E+00 0.  1.
         21   -1    0    0  501  502  0.00000000000E+00 -0.00000000000E+00 -0.64929707335E+03  0.64929707335E+03  0.00000000000E+00 0.  1.
    9000010    2    1    2  501    0  0.15839588838E+03  0.84916271962E+02 -0.55393109311E+02  0.10143602332E+04  0.99677392392E+03 0.  0.
        -13    1    3    3    0    0  0.48480905214E+03 -0.77079867388E+02 -0.30015267152E+03  0.57538922511E+03  0.10566000000E+00 0.  1.
          4    1    3    3  501    0 -0.32641316376E+03  0.16199613935E+03  0.24475956221E+03  0.43897100807E+03  0.00000000000E+00 0.  1.
         13    1    1    2    0    0 -0.15839588838E+03 -0.84916271962E+02 -0.43847232308E+02  0.18499357190E+03  0.10566000000E+00 0. -1.
<mgrwt>
<rscale>  1 0.65736746E+03</rscale>
<asrwt>0</asrwt>
<pdfrwt beam="2">  1       21 0.99891857E-01 0.10128466E+04</pdfrwt>
<pdfrwt beam="1">  1        4 0.84624113E-01 0.10128466E+04</pdfrwt>
<totfact> 0.37795463E+01</totfact>
</mgrwt>
</event>
<event>
 6    1  0.1353269E-005  0.1026515E+04  0.7818608E-02  0.9540235E-01
          4   -1    0    0  502    0 -0.00000000000E+00  0.00000000000E+00  0.13916604946E+04  0.13916604946E+04  0.00000000000E+00 0.  1.
         21   -1    0    0  501  502  0.00000000000E+00 -0.00000000000E+00 -0.36888448204E+03  0.36888448204E+03  0.00000000000E+00 0.  1.
    9000010    2    1    2  501    0  0.39525579372E+03 -0.90624320168E+02  0.76187772981E+03  0.12783543142E+04  0.94302288811E+03 0.  0.
        -13    1    3    3    0    0  0.63479892512E+03 -0.15129326537E+03  0.23008233993E+03  0.69195174817E+03  0.10566000000E+00 0.  1.
          4    1    3    3  501    0 -0.23954313141E+03  0.60668945198E+02  0.53179538988E+03  0.58640256600E+03  0.00000000000E+00 0.  1.
         13    1    1    2    0    0 -0.39525579372E+03  0.90624320168E+02  0.26089828275E+03  0.48219066247E+03  0.10566000000E+00 0. -1.
<mgrwt>
<rscale>  1 0.81381331E+03</rscale>
<asrwt>0</asrwt>
<pdfrwt beam="2">  1       21 0.56751459E-01 0.10265145E+04</pdfrwt>
<pdfrwt beam="1">  1        4 0.21410161E+00 0.10265145E+04</pdfrwt>
<totfact> 0.12097889E+01</totfact>
</mgrwt>
</event>
<event>
 6    1  0.1353269E-005  0.1028709E+04  0.7818608E-02  0.9678154E-01
          4   -1    0    0  502    0 -0.00000000000E+00  0.00000000000E+00  0.89809220002E+03  0.89809220002E+03  0.00000000000E+00 0.  1.
         21   -1    0    0  501  502  0.00000000000E+00 -0.00000000000E+00 -0.55589475129E+03  0.55589475129E+03  0.00000000000E+00 0.  1.
    9000010    2    1    2  501    0 -0.19548164147E+03 -0.15816313931E+03 -0.77884674247E+00  0.10287089232E+04  0.99750327881E+03 0.  0.
        -13    1    3    3    0    0 -0.64580315588E+02 -0.29613140727E+03 -0.44904767294E+03  0.54176401806E+03  0.10566000000E+00 0.  1.
          4    1    3    3  501    0 -0.13090132588E+03  0.13796826797E+03  0.44826882619E+03  0.48694490512E+03  0.00000000000E+00 0.  1.
         13    1    1    2    0    0  0.19548164147E+03  0.15816313931E+03  0.34297629547E+03  0.42527802812E+03  0.10566000000E+00 0. -1.
<mgrwt>
<rscale>  1 0.72332510E+03</rscale>
<asrwt>0</asrwt>
<pdfrwt beam="2">  1       21 0.85522269E-01 0.10287086E+04</pdfrwt>
<pdfrwt beam="1">  1        4 0.13816803E+00 0.10287086E+04</pdfrwt>
<totfact> 0.16492031E+01</totfact>
</mgrwt>
</event>
<event>
 6    1  0.1353269E-005  0.1022283E+04  0.7818608E-02  0.9787692E-01
          4   -1    0    0  502    0 -0.00000000000E+00  0.00000000000E+00  0.31622467761E+03  0.31622467761E+03  0.00000000000E+00 0.  1.
         21   -1    0    0  501  502  0.00000000000E+00 -0.00000000000E+00 -0.15477279214E+04  0.15477279214E+04  0.00000000000E+00 0.  1.
    9000010    2    1    2  501    0 -0.10547291727E+03 -0.14326391150E+03 -0.13164878924E+04  0.16667940681E+04  0.10066841659E+04 0.  0.
        -13    1    3    3    0    0  0.11322249035E+03 -0.26141103901E+03 -0.13809297496E+04  0.14100078185E+04  0.10566000000E+00 0.  1.
          4    1    3    3  501    0 -0.21869540762E+03  0.11814712751E+03  0.64441857164E+02  0.25678624964E+03  0.00000000000E+00 0.  1.
         13    1    1    2    0    0  0.10547291727E+03  0.14326391150E+03  0.84984648691E+02  0.19715853086E+03  0.10566000000E+00 0. -1.
<mgrwt>
<rscale>  1 0.66027286E+03</rscale>
<asrwt>0</asrwt>
<pdfrwt beam="2">  1       21 0.23811199E+00 0.10222828E+04</pdfrwt>
<pdfrwt beam="1">  1        4 0.48649950E-01 0.10222828E+04</pdfrwt>
<totfact> 0.10520080E+01</totfact>
</mgrwt>
</event>
<event>
 6    1  0.1353269E-005  0.1050320E+04  0.7818608E-02  0.9587736E-01
          4   -1    0    0  502    0 -0.00000000000E+00  0.00000000000E+00  0.38570583401E+03  0.38570583401E+03  0.00000000000E+00 0.  1.
         21   -1    0    0  501  502  0.00000000000E+00 -0.00000000000E+00 -0.18345533455E+04  0.18345533455E+04  0.00000000000E+00 0.  1.
    9000010    2    1    2  501    0  0.54664752716E+02  0.31663206904E+03 -0.15596796402E+04  0.18803652634E+04  0.99996441998E+03 0.  0.
        -13    1    3    3    0    0  0.32413685662E+03  0.29196151027E+03 -0.15493234802E+04  0.16095681044E+04  0.10566000000E+00 0.  1.
          4    1    3    3  501    0 -0.26947210391E+03  0.24670558769E+02 -0.10356160039E+02  0.27079715897E+03  0.00000000000E+00 0.  1.
         13    1    1    2    0    0 -0.54664752716E+02 -0.31663206904E+03  0.11083212870E+03  0.33989391617E+03  0.10566000000E+00 0. -1.
<mgrwt>
<rscale>  1 0.78113215E+03</rscale>
<asrwt>0</asrwt>
<pdfrwt beam="2">  1       21 0.28223897E+00 0.10503204E+04</pdfrwt>
<pdfrwt beam="1">  1        4 0.59339360E-01 0.10503204E+04</pdfrwt>
<totfact> 0.36037442E+00</totfact>
</mgrwt>
</event>
<event>
 6    1  0.1353269E-005  0.9862413E+03  0.7818608E-02  0.1011572E+00
          4   -1    0    0  502    0 -0.00000000000E+00  0.00000000000E+00  0.38322373414E+03  0.38322373414E+03  0.00000000000E+00 0.  1.
         21   -1    0    0  501  502  0.00000000000E+00 -0.00000000000E+00 -0.73694888966E+03  0.73694888966E+03  0.00000000000E+00 0.  1.
    9000010    2    1    2  501    0 -0.69240325701E+02 -0.81815936402E+01 -0.36063414650E+03  0.10501090348E+04  0.98377377290E+03 0.  0.
        -13    1    3    3    0    0  0.44544607508E+03 -0.11128116832E+03 -0.13338931851E+03  0.47811967716E+03  0.10566000000E+00 0.  1.
          4    1    3    3  501    0 -0.51468640078E+03  0.10309957468E+03 -0.22724482799E+03  0.57198935768E+03  0.00000000000E+00 0.  1.
         13    1    1    2    0    0  0.69240325701E+02  0.81815936402E+01  0.69089909864E+01  0.70063588961E+02  0.10566000000E+00 0. -1.
<mgrwt>
<rscale>  1 0.50854575E+03</rscale>
<asrwt>0</asrwt>
<pdfrwt beam="2">  1       21 0.11337675E+00 0.98624135E+03</pdfrwt>
<pdfrwt beam="1">  1        4 0.58957498E-01 0.98624135E+03</pdfrwt>
<totfact> 0.61981958E+01</totfact>
</mgrwt>
</event>
<event>
 6    1  0.1353269E-005  0.1030854E+04  0.7818608E-02  0.9683751E-01
          4   -1    0    0  502    0 -0.00000000000E+00  0.00000000000E+00  0.82884742924E+03  0.82884742924E+03  0.00000000000E+00 0.  1.
         21   -1    0    0  501  502  0.00000000000E+00 -0.00000000000E+00 -0.49135411967E+03  0.49135411967E+03  0.00000000000E+00 0.  1.
    9000010    2    1    2  501    0  0.18639984581E+03  0.15933885984E+03  0.28307824326E+03  0.10690147949E+04  0.10012619863E+04 0.  0.
        -13    1    3    3    0    0 -0.66713212596E+02 -0.12526730318E+03  0.57302131864E+03  0.59033549170E+03  0.10566000000E+00 0.  1.
          4    1    3    3  501    0  0.25311305841E+03  0.28460616302E+03 -0.28994307538E+03  0.47867930322E+03  0.00000000000E+00 0.  1.
         13    1    1    2    0    0 -0.18639984581E+03 -0.15933885984E+03  0.54415066311E+02  0.25118675399E+03  0.10566000000E+00 0. -1.
<mgrwt>
<rscale>  1 0.71992565E+03</rscale>
<asrwt>0</asrwt>
<pdfrwt beam="2">  1       21 0.75592942E-01 0.10308537E+04</pdfrwt>
<pdfrwt beam="1">  1        4 0.12751499E+00 0.10308537E+04</pdfrwt>
<totfact> 0.27136191E+01</totfact>
</mgrwt>
</event>
<event>
 6    1  0.1353269E-005  0.1107789E+04  0.7818608E-02  0.9418631E-01
          4   -1    0    0  502    0 -0.00000000000E+00  0.00000000000E+00  0.16412456540E+04  0.16412456540E+04  0.00000000000E+00 0.  1.
         21   -1    0    0  501  502  0.00000000000E+00 -0.00000000000E+00 -0.44825444691E+03  0.44825444691E+03  0.00000000000E+00 0.  1.
    9000010    2    1    2  501    0 -0.39435840312E+02 -0.49312304965E+03  0.44740675640E+03  0.11947254299E+04  0.99119650907E+03 0.  0.
        -13    1    3    3    0    0 -0.38125268637E+03 -0.61342668704E+03  0.40979725331E+03  0.83040936364E+03  0.10566000000E+00 0.  1.
          4    1    3    3  501    0  0.34181684606E+03  0.12030363739E+03  0.37609503088E+02  0.36431606627E+03  0.00000000000E+00 0.  1.
         13    1    1    2    0    0  0.39435840312E+02  0.49312304965E+03  0.74558445068E+03  0.89477467100E+03  0.10566000000E+00 0. -1.
<mgrwt>
<rscale>  1 0.90558171E+03</rscale>
<asrwt>0</asrwt>
<pdfrwt beam="2">  1       21 0.68962223E-01 0.11077888E+04</pdfrwt>
<pdfrwt beam="1">  1        4 0.25249933E+00 0.11077888E+04</pdfrwt>
<totfact> 0.44304294E+00</totfact>
</mgrwt>
</event>
<event>
 6    1  0.1353269E-005  0.1002825E+04  0.7818608E-02  0.1023182E+00
          4   -1    0    0  502    0 -0.00000000000E+00  0.00000000000E+00  0.46582102614E+03  0.46582102614E+03  0.00000000000E+00 0.  1.
         21   -1    0    0  501  502  0.00000000000E+00 -0.00000000000E+00 -0.60273872036E+03  0.60273872036E+03  0.00000000000E+00 0.  1.
    9000010    2    1    2  501    0  0.29222144242E+02  0.36274797578E+02 -0.16172858814E+03  0.10157829876E+04  0.10017430544E+04 0.  0.
        -13    1    3    3    0    0  0.78790747632E+02 -0.40380797442E+01  0.42162405326E+03  0.42894188587E+03  0.10566000000E+00 0.  1.
          4    1    3    3  501    0 -0.49568603390E+02  0.40312877322E+02 -0.58335264140E+03  0.58684110178E+03  0.00000000000E+00 0.  1.
         13    1    1    2    0    0 -0.29222144242E+02 -0.36274797578E+02  0.24810893925E+02  0.52776758851E+02  0.10566000000E+00 0. -1.
<mgrwt>
<rscale>  1 0.46555568E+03</rscale>
<asrwt>0</asrwt>
<pdfrwt beam="2">  1       21 0.92729033E-01 0.10028255E+04</pdfrwt>
<pdfrwt beam="1">  1        4 0.71664774E-01 0.10028255E+04</pdfrwt>
<totfact> 0.66383517E+01</totfact>
</mgrwt>
</event>
<event>
 6    1  0.1353269E-005  0.1016537E+04  0.7818608E-02  0.9829854E-01
         21   -1    0    0  501  502  0.00000000000E+00  0.00000000000E+00  0.57980078636E+03  0.57980078636E+03  0.00000000000E+00 0.  1.
          4   -1    0    0  502    0 -0.00000000000E+00 -0.00000000000E+00 -0.89335070060E+03  0.89335070060E+03  0.00000000000E+00 0.  1.
    9000010    2    1    2  501    0  0.59175364171E+02 -0.14604552924E+03  0.10881952447E+03  0.10223444614E+04  0.10042487185E+04 0.  0.
        -13    1    3    3    0    0  0.29330509928E+03  0.20844053382E+03  0.37604111963E+03  0.52046351670E+03  0.10566000000E+00 0.  1.
          4    1    3    3  501    0 -0.23412973511E+03 -0.35448606307E+03 -0.26722159515E+03  0.50188094473E+03  0.00000000000E+00 0.  1.
         13    1    1    2    0    0 -0.59175364171E+02  0.14604552924E+03 -0.42236943871E+03  0.45080702552E+03  0.10566000000E+00 0. -1.
<mgrwt>
<rscale>  1 0.63784710E+03</rscale>
<asrwt>0</asrwt>
<pdfrwt beam="1">  1       21 0.89200121E-01 0.10165365E+04</pdfrwt>
<pdfrwt beam="2">  1        4 0.13743857E+00 0.10165365E+04</pdfrwt>
<totfact> 0.15134207E+01</totfact>
</mgrwt>
</event>
<event>
 6    1  0.1353269E-005  0.9456185E+03  0.7818608E-02  0.9922480E-01
          4   -1    0    0  502    0 -0.00000000000E+00  0.00000000000E+00  0.22905821173E+03  0.22905821173E+03  0.00000000000E+00 0.  1.
         21   -1    0    0  501  502  0.00000000000E+00 -0.00000000000E+00 -0.13117891165E+04  0.13117891165E+04  0.00000000000E+00 0.  1.
    9000010    2    1    2  501    0 -0.99662244133E+02  0.10545994966E+03 -0.88153871020E+03  0.12927895241E+04  0.93441954822E+03 0.  0.
        -13    1    3    3    0    0  0.38185869460E+02  0.44624617389E+03 -0.79909245540E+03  0.91604725412E+03  0.10566000000E+00 0.  1.
          4    1    3    3  501    0 -0.13784811359E+03 -0.34078622423E+03 -0.82446254804E+02  0.37674226996E+03  0.00000000000E+00 0.  1.
         13    1    1    2    0    0  0.99662244133E+02 -0.10545994966E+03 -0.20119219458E+03  0.24805780417E+03  0.10566000000E+00 0. -1.
<mgrwt>
<rscale>  1 0.59184067E+03</rscale>
<asrwt>0</asrwt>
<pdfrwt beam="2">  1       21 0.20181372E+00 0.94561845E+03</pdfrwt>
<pdfrwt beam="1">  1        4 0.35239724E-01 0.94561845E+03</pdfrwt>
<totfact> 0.35778788E+01</totfact>
</mgrwt>
</event>
<event>
 6    1  0.1353269E-005  0.1014320E+04  0.7818608E-02  0.9903466E-01
         21   -1    0    0  501  502  0.00000000000E+00  0.00000000000E+00  0.15001220061E+04  0.15001220061E+04  0.00000000000E+00 0.  1.
          4   -1    0    0  502    0 -0.00000000000E+00 -0.00000000000E+00 -0.22631290634E+03  0.22631290634E+03  0.00000000000E+00 0.  1.
    9000010    2    1    2  501    0 -0.64317909789E+01  0.12479911654E+03  0.12293806843E+04  0.15938073034E+04  0.10065926018E+04 0.  0.
        -13    1    3    3    0    0 -0.97002232334E+02 -0.39152501991E+03  0.22755552983E+03  0.46312288284E+03  0.10566000000E+00 0.  1.
          4    1    3    3  501    0  0.90570441356E+02  0.51632413645E+03  0.10018251545E+04  0.11306844205E+04  0.00000000000E+00 0.  1.
         13    1    1    2    0    0  0.64317909789E+01 -0.12479911654E+03  0.44428415478E+02  0.13262760908E+03  0.10566000000E+00 0. -1.
<mgrwt>
<rscale>  1 0.60093586E+03</rscale>
<asrwt>0</asrwt>
<pdfrwt beam="1">  1       21 0.23078799E+00 0.10143199E+04</pdfrwt>
<pdfrwt beam="2">  1        4 0.34817371E-01 0.10143199E+04</pdfrwt>
<totfact> 0.23310864E+01</totfact>
</mgrwt>
</event>
<event>
 6    1  0.1353269E-005  0.9494780E+03  0.7818608E-02  0.9618151E-01
          4   -1    0    0  502    0 -0.00000000000E+00  0.00000000000E+00  0.66296025441E+03  0.66296025441E+03  0.00000000000E+00 0.  1.
         21   -1    0    0  501  502  0.00000000000E+00 -0.00000000000E+00 -0.10507631677E+04  0.10507631677E+04  0.00000000000E+00 0.  1.
    9000010    2    1    2  501    0  0.14849974162E+03  0.36272857712E+03 -0.72663493771E+03  0.11956198169E+04  0.86480299482E+03 0.  0.
        -13    1    3    3    0    0  0.84320069705E+02  0.20176648694E+02 -0.82810893469E+03  0.83263520835E+03  0.10566000000E+00 0.  1.
          4    1    3    3  501    0  0.64179671913E+02  0.34255192842E+03  0.10147399698E+03  0.36298460851E+03  0.00000000000E+00 0.  1.
         13    1    1    2    0    0 -0.14849974162E+03 -0.36272857712E+03  0.33883202438E+03  0.51810360530E+03  0.10566000000E+00 0. -1.
<mgrwt>
<rscale>  1 0.76106391E+03</rscale>
<asrwt>0</asrwt>
<pdfrwt beam="2">  1       21 0.16165587E+00 0.94947797E+03</pdfrwt>
<pdfrwt beam="1">  1        4 0.10199388E+00 0.94947797E+03</pdfrwt>
<totfact> 0.68318907E+00</totfact>
</mgrwt>
</event>
<event>
 6    1  0.1353269E-005  0.1208149E+04  0.7818608E-02  0.9782432E-01
          4   -1    0    0  502    0 -0.00000000000E+00  0.00000000000E+00  0.12527565200E+04  0.12527565200E+04  0.00000000000E+00 0.  1.
         21   -1    0    0  501  502  0.00000000000E+00 -0.00000000000E+00 -0.34803373619E+03  0.34803373619E+03  0.00000000000E+00 0.  1.
    9000010    2    1    2  501    0 -0.58649715518E+02  0.92660539581E+02  0.79894032427E+03  0.14484232498E+04  0.12031618777E+04 0.  0.
        -13    1    3    3    0    0  0.26094851007E+03  0.14186588073E+03  0.10162885324E+04  0.10588023636E+04  0.10566000000E+00 0.  1.
          4    1    3    3  501    0 -0.31959822558E+03 -0.49205341147E+02 -0.21734820808E+03  0.38962088618E+03  0.00000000000E+00 0.  1.
         13    1    1    2    0    0  0.58649715518E+02 -0.92660539581E+02  0.10578245953E+03  0.15236700638E+03  0.10566000000E+00 0. -1.
<mgrwt>
<rscale>  1 0.66313896E+03</rscale>
<asrwt>0</asrwt>
<pdfrwt beam="2">  1       21 0.53543652E-01 0.12081491E+04</pdfrwt>
<pdfrwt beam="1">  1        4 0.19273177E+00 0.12081491E+04</pdfrwt>
<totfact> 0.18689824E+01</totfact>
</mgrwt>
</event>
<event>
 6    1  0.1353269E-005  0.1027526E+04  0.7818608E-02  0.9809518E-01
          4   -1    0    0  502    0 -0.00000000000E+00  0.00000000000E+00  0.47784348228E+03  0.47784348228E+03  0.00000000000E+00 0.  1.
         21   -1    0    0  501  502  0.00000000000E+00 -0.00000000000E+00 -0.89408431064E+03  0.89408431064E+03  0.00000000000E+00 0.  1.
    9000010    2    1    2  501    0 -0.16210023083E+03  0.17759328373E+02 -0.54595206186E+03  0.11635605838E+04  0.10145036716E+04 0.  0.
        -13    1    3    3    0    0 -0.27118757308E+03  0.28218548901E+03 -0.72656424015E+03  0.82526780880E+03  0.10566000000E+00 0.  1.
          4    1    3    3  501    0  0.10908734225E+03 -0.26442616064E+03  0.18061217829E+03  0.33829277500E+03  0.00000000000E+00 0.  1.
         13    1    1    2    0    0  0.16210023083E+03 -0.17759328373E+02  0.12971123350E+03  0.20836720912E+03  0.10566000000E+00 0. -1.
<mgrwt>
<rscale>  1 0.64854221E+03</rscale>
<asrwt>0</asrwt>
<pdfrwt beam="2">  1       21 0.13755143E+00 0.10275260E+04</pdfrwt>
<pdfrwt beam="1">  1        4 0.73514383E-01 0.10275260E+04</pdfrwt>
<totfact> 0.22800121E+01</totfact>
</mgrwt>
</event>
<event>
 6    1  0.1353269E-005  0.1058175E+04  0.7818608E-02  0.9592597E-01
          4   -1    0    0  502    0 -0.00000000000E+00  0.00000000000E+00  0.37763771406E+03  0.37763771406E+03  0.00000000000E+00 0.  1.
         21   -1    0    0  501  502  0.00000000000E+00 -0.00000000000E+00 -0.12410603494E+04  0.12410603494E+04  0.00000000000E+00 0.  1.
    9000010    2    1    2  501    0  0.29306697444E+03  0.97992358129E+02 -0.63096889730E+03  0.12320127841E+04  0.10120489105E+04 0.  0.
        -13    1    3    3    0    0  0.63257659222E+03  0.13291332010E+03 -0.18871045236E+03  0.67337266181E+03  0.10566000000E+00 0.  1.
          4    1    3    3  501    0 -0.33950961778E+03 -0.34920961967E+02 -0.44225844494E+03  0.55864012232E+03  0.00000000000E+00 0.  1.
         13    1    1    2    0    0 -0.29306697444E+03 -0.97992358129E+02 -0.23245373803E+03  0.38668527932E+03  0.10566000000E+00 0. -1.
<mgrwt>
<rscale>  1 0.77788118E+03</rscale>
<asrwt>0</asrwt>
<pdfrwt beam="2">  1       21 0.19093236E+00 0.10581747E+04</pdfrwt>
<pdfrwt beam="1">  1        4 0.58098109E-01 0.10581747E+04</pdfrwt>
<totfact> 0.14850364E+01</totfact>
</mgrwt>
</event>
<event>
 6    1  0.1353269E-005  0.1190440E+04  0.7818608E-02  0.9312673E-01
         21   -1    0    0  501  502  0.00000000000E+00  0.00000000000E+00  0.15342258889E+04  0.15342258889E+04  0.00000000000E+00 0.  1.
          4   -1    0    0  502    0 -0.00000000000E+00 -0.00000000000E+00 -0.52691189123E+03  0.52691189123E+03  0.00000000000E+00 0.  1.
    9000010    2    1    2  501    0 -0.23000528258E+03 -0.53669451470E+03  0.51369943106E+03  0.12965471814E+04  0.10374025526E+04 0.  0.
        -13    1    3    3    0    0  0.30805294096E+03  0.37909274940E+02 -0.68010166866E+02  0.31774065135E+03  0.10566000000E+00 0.  1.
          4    1    3    3  501    0 -0.53805822354E+03 -0.57460378964E+03  0.58170959793E+03  0.97880653007E+03  0.00000000000E+00 0.  1.
         13    1    1    2    0    0  0.23000528258E+03  0.53669451470E+03  0.49361456663E+03  0.76459059874E+03  0.10566000000E+00 0. -1.
<mgrwt>
<rscale>  1 0.99624463E+03</rscale>
<asrwt>0</asrwt>
<pdfrwt beam="1">  1       21 0.23603475E+00 0.11904400E+04</pdfrwt>
<pdfrwt beam="2">  1        4 0.81063369E-01 0.11904400E+04</pdfrwt>
<totfact> 0.34451193E+00</totfact>
</mgrwt>
</event>
<event>
 6    1  0.1353269E-005  0.9875402E+03  0.7818608E-02  0.1013863E+00
          4   -1    0    0  502    0 -0.00000000000E+00  0.00000000000E+00  0.70063291289E+03  0.70063291289E+03  0.00000000000E+00 0.  1.
         21   -1    0    0  501  502  0.00000000000E+00 -0.00000000000E+00 -0.76325294622E+03  0.76325294622E+03  0.00000000000E+00 0.  1.
    9000010    2    1    2  501    0  0.14499231419E+02 -0.63082786045E+02 -0.43990528142E+03  0.10810884777E+04  0.98541665018E+03 0.  0.
        -13    1    3    3    0    0  0.17686010238E+03  0.19775064968E+03  0.22549271160E+03  0.34818355707E+03  0.10566000000E+00 0.  1.
          4    1    3    3  501    0 -0.16236087096E+03 -0.26083343572E+03 -0.66539799302E+03  0.73290492066E+03  0.00000000000E+00 0.  1.
         13    1    1    2    0    0 -0.14499231419E+02  0.63082786045E+02  0.37728524809E+03  0.38279738139E+03  0.10566000000E+00 0. -1.
<mgrwt>
<rscale>  1 0.49967619E+03</rscale>
<asrwt>0</asrwt>
<pdfrwt beam="2">  1       21 0.11742353E+00 0.98754020E+03</pdfrwt>
<pdfrwt beam="1">  1        4 0.10778968E+00 0.98754020E+03</pdfrwt>
<totfact> 0.14137178E+01</totfact>
</mgrwt>
</event>
<event>
 6    1  0.1353269E-005  0.9866557E+03  0.7818608E-02  0.1004540E+00
         21   -1    0    0  501  502  0.00000000000E+00  0.00000000000E+00  0.19879312481E+03  0.19879312481E+03  0.00000000000E+00 0.  1.
          4   -1    0    0  502    0 -0.00000000000E+00 -0.00000000000E+00 -0.15678246180E+04  0.15678246180E+04  0.00000000000E+00 0.  1.
    9000010    2    1    2  501    0  0.81292451816E+02 -0.29850662046E+02 -0.10707543363E+04  0.14560234766E+04  0.98284789811E+03 0.  0.
        -13    1    3    3    0    0 -0.64928363083E+01 -0.35301751827E+03 -0.20499069093E+02  0.35367180850E+03  0.10566000000E+00 0.  1.
          4    1    3    3  501    0  0.87785288124E+02  0.32316685622E+03 -0.10502552672E+04  0.11023516681E+04  0.00000000000E+00 0.  1.
         13    1    1    2    0    0 -0.81292451816E+02  0.29850662046E+02 -0.29827715688E+03  0.31059426625E+03  0.10566000000E+00 0. -1.
<mgrwt>
<rscale>  1 0.53703616E+03</rscale>
<asrwt>0</asrwt>
<pdfrwt beam="1">  1       21 0.30583559E-01 0.98665572E+03</pdfrwt>
<pdfrwt beam="2">  1        4 0.24120378E+00 0.98665572E+03</pdfrwt>
<totfact> 0.30152784E+01</totfact>
</mgrwt>
</event>
<event>
 6    1  0.1353269E-005  0.1028421E+04  0.7818608E-02  0.9697078E-01
          4   -1    0    0  502    0 -0.00000000000E+00  0.00000000000E+00  0.55199244152E+03  0.55199244152E+03  0.00000000000E+00 0.  1.
         21   -1    0    0  501  502  0.00000000000E+00 -0.00000000000E+00 -0.76805977385E+03  0.76805977385E+03  0.00000000000E+00 0.  1.
    9000010    2    1    2  501    0  0.20650703526E+03  0.11455100642E+03 -0.29695116515E+03  0.10704339183E+04  0.10009404029E+04 0.  0.
        -13    1    3    3    0    0 -0.16835644419E+03  0.47278267621E+03 -0.21290404834E+03  0.54515639608E+03  0.10566000000E+00 0.  1.
          4    1    3    3  501    0  0.37486347945E+03 -0.35823166979E+03 -0.84047116804E+02  0.52527752218E+03  0.00000000000E+00 0.  1.
         13    1    1    2    0    0 -0.20650703526E+03 -0.11455100642E+03  0.80883832813E+02  0.24961829712E+03  0.10566000000E+00 0. -1.
<mgrwt>
<rscale>  1 0.71191035E+03</rscale>
<asrwt>0</asrwt>
<pdfrwt beam="2">  1       21 0.11816304E+00 0.10284205E+04</pdfrwt>
<pdfrwt beam="1">  1        4 0.84921914E-01 0.10284205E+04</pdfrwt>
<totfact> 0.24479056E+01</totfact>
</mgrwt>
</event>
<event>
 6    1  0.1353269E-005  0.1002108E+04  0.7818608E-02  0.1005974E+00
         21   -1    0    0  501  502  0.00000000000E+00  0.00000000000E+00  0.18494005999E+03  0.18494005999E+03  0.00000000000E+00 0.  1.
          4   -1    0    0  502    0 -0.00000000000E+00 -0.00000000000E+00 -0.16158942550E+04  0.16158942550E+04  0.00000000000E+00 0.  1.
    9000010    2    1    2  501    0 -0.54255989400E+02  0.57476759478E+02 -0.13846413025E+04  0.17092254429E+04  0.99898587977E+03 0.  0.
        -13    1    3    3    0    0 -0.21339945237E+01  0.46766138567E+03 -0.11316718133E+04  0.12244969701E+04  0.10566000000E+00 0.  1.
          4    1    3    3  501    0 -0.52121994876E+02 -0.41018462620E+03 -0.25296948914E+03  0.48472847281E+03  0.00000000000E+00 0.  1.
         13    1    1    2    0    0  0.54255989400E+02 -0.57476759478E+02 -0.46312892582E+02  0.91608872110E+02  0.10566000000E+00 0. -1.
<mgrwt>
<rscale>  1 0.53106472E+03</rscale>
<asrwt>0</asrwt>
<pdfrwt beam="1">  1       21 0.28452317E-01 0.10021078E+04</pdfrwt>
<pdfrwt beam="2">  1        4 0.24859912E+00 0.10021078E+04</pdfrwt>
<totfact> 0.31327999E+01</totfact>
</mgrwt>
</event>
<event>
 6    1  0.1353269E-005  0.1030863E+04  0.7818608E-02  0.9673078E-01
         21   -1    0    0  501  502  0.00000000000E+00  0.00000000000E+00  0.71020555044E+03  0.71020555044E+03  0.00000000000E+00 0.  1.
          4   -1    0    0  502    0 -0.00000000000E+00 -0.00000000000E+00 -0.66740792426E+03  0.66740792426E+03  0.00000000000E+00 0.  1.
    9000010    2    1    2  501    0 -0.17116027891E+03 -0.18793050628E+03  0.23696334271E+03  0.10577477952E+04  0.99903205967E+03 0.  0.
        -13    1    3    3    0    0  0.89195964545E+02 -0.12303070727E+03  0.59286532718E+03  0.61203086716E+03  0.10566000000E+00 0.  1.
          4    1    3    3  501    0 -0.26035624346E+03 -0.64899799004E+02 -0.35590198447E+03  0.44571692807E+03  0.00000000000E+00 0.  1.
         13    1    1    2    0    0  0.17116027891E+03  0.18793050628E+03 -0.19416571652E+03  0.31986567947E+03  0.10566000000E+00 0. -1.
<mgrwt>
<rscale>  1 0.72642595E+03</rscale>
<asrwt>0</asrwt>
<pdfrwt beam="1">  1       21 0.10926239E+00 0.10308631E+04</pdfrwt>
<pdfrwt beam="2">  1        4 0.10267814E+00 0.10308631E+04</pdfrwt>
<totfact> 0.19038773E+01</totfact>
</mgrwt>
</event>
<event>
 6    1  0.1353269E-005  0.8415636E+03  0.7818608E-02  0.9787752E-01
          4   -1    0    0  502    0 -0.00000000000E+00  0.00000000000E+00  0.70539896463E+03  0.70539896463E+03  0.00000000000E+00 0.  1.
         21   -1    0    0  501  502  0.00000000000E+00 -0.00000000000E+00 -0.56307451962E+03  0.56307451962E+03  0.00000000000E+00 0.  1.
    9000010    2    1    2  501    0 -0.28303317085E+03  0.14676210018E+03 -0.12703674140E+03  0.85109793423E+03  0.77883404532E+03 0.  0.
        -13    1    3    3    0    0 -0.23686043275E+03  0.45933920697E+03 -0.13806447195E+03  0.53493661423E+03  0.10566000000E+00 0.  1.
          4    1    3    3  501    0 -0.46172738096E+02 -0.31257710678E+03  0.11027730550E+02  0.31616132001E+03  0.00000000000E+00 0.  1.
         13    1    1    2    0    0  0.28303317085E+03 -0.14676210018E+03  0.26936118641E+03  0.41737555002E+03  0.10566000000E+00 0. -1.
<mgrwt>
<rscale>  1 0.66024024E+03</rscale>
<asrwt>0</asrwt>
<pdfrwt beam="2">  1       21 0.86626849E-01 0.84156364E+03</pdfrwt>
<pdfrwt beam="1">  1        4 0.10852292E+00 0.84156364E+03</pdfrwt>
<totfact> 0.30008500E+01</totfact>
</mgrwt>
</event>
<event>
 6    1  0.1353269E-005  0.1162947E+04  0.7818608E-02  0.9323170E-01
          4   -1    0    0  502    0 -0.00000000000E+00  0.00000000000E+00  0.33666909567E+03  0.33666909567E+03  0.00000000000E+00 0.  1.
         21   -1    0    0  501  502  0.00000000000E+00 -0.00000000000E+00 -0.23153002379E+04  0.23153002379E+04  0.00000000000E+00 0.  1.
    9000010    2    1    2  501    0  0.36034080155E+03 -0.48327596921E+03 -0.13038406926E+04  0.17471249725E+04  0.99450689401E+03 0.  0.
        -13    1    3    3    0    0  0.32811062933E+02 -0.74132445391E+03 -0.90239399978E+03  0.11683122245E+04  0.10566000000E+00 0.  1.
          4    1    3    3  501    0  0.32752973862E+03  0.25804848470E+03 -0.40144669282E+03  0.57881274805E+03  0.00000000000E+00 0.  1.
         13    1    1    2    0    0 -0.36034080155E+03  0.48327596921E+03 -0.67479044968E+03  0.90484436110E+03  0.10566000000E+00 0. -1.
<mgrwt>
<rscale>  1 0.98677505E+03</rscale>
<asrwt>0</asrwt>
<pdfrwt beam="2">  1       21 0.35620003E+00 0.11629467E+04</pdfrwt>
<pdfrwt beam="1">  1        4 0.51795246E-01 0.11629467E+04</pdfrwt>
<totfact> 0.16273000E+00</totfact>
</mgrwt>
</event>
<event>
 6    1  0.1353269E-005  0.9865931E+03  0.7818608E-02  0.9755864E-01
         21   -1    0    0  501  502  0.00000000000E+00  0.00000000000E+00  0.66437235263E+03  0.66437235263E+03  0.00000000000E+00 0.  1.
          4   -1    0    0  502    0 -0.00000000000E+00 -0.00000000000E+00 -0.55194850177E+03  0.55194850177E+03  0.00000000000E+00 0.  1.
    9000010    2    1    2  501    0 -0.19944866219E+03 -0.92508513296E+02  0.50391511456E+02  0.98787914154E+03  0.96178391543E+03 0.  0.
        -13    1    3    3    0    0 -0.37137653632E+03  0.21548255726E+03  0.32693564933E+03  0.53966674363E+03  0.10566000000E+00 0.  1.
          4    1    3    3  501    0  0.17192787413E+03 -0.30799107055E+03 -0.27654413788E+03  0.44821239791E+03  0.00000000000E+00 0.  1.
         13    1    1    2    0    0  0.19944866219E+03  0.92508513296E+02  0.62032339411E+02  0.22844171287E+03  0.10566000000E+00 0. -1.
<mgrwt>
<rscale>  1 0.67785881E+03</rscale>
<asrwt>0</asrwt>
<pdfrwt beam="1">  1       21 0.10221113E+00 0.98659307E+03</pdfrwt>
<pdfrwt beam="2">  1        4 0.84915154E-01 0.98659307E+03</pdfrwt>
<totfact> 0.35494068E+01</totfact>
</mgrwt>
</event>
<event>
 6    1  0.1353269E-005  0.1027608E+04  0.7818608E-02  0.9727489E-01
         21   -1    0    0  501  502  0.00000000000E+00  0.00000000000E+00  0.26965495131E+03  0.26965495131E+03  0.00000000000E+00 0.  1.
          4   -1    0    0  502    0 -0.00000000000E+00 -0.00000000000E+00 -0.16098475099E+04  0.16098475099E+04  0.00000000000E+00 0.  1.
    9000010    2    1    2  501    0  0.99426400332E+02  0.18929323065E+03 -0.81209688077E+03  0.13097634048E+04  0.10051175536E+04 0.  0.
        -13    1    3    3    0    0  0.31931410173E+03  0.30572128687E+03 -0.93352343581E+03  0.10329051346E+04  0.10566000000E+00 0.  1.
          4    1    3    3  501    0 -0.21988770140E+03 -0.11642805622E+03  0.12142655504E+03  0.27685827019E+03  0.00000000000E+00 0.  1.
         13    1    1    2    0    0 -0.99426400332E+02 -0.18929323065E+03 -0.52809567784E+03  0.56973905639E+03  0.10566000000E+00 0. -1.
<mgrwt>
<rscale>  1 0.69403452E+03</rscale>
<asrwt>0</asrwt>
<pdfrwt beam="1">  1       21 0.41485377E-01 0.10276083E+04</pdfrwt>
<pdfrwt beam="2">  1        4 0.24766885E+00 0.10276083E+04</pdfrwt>
<totfact> 0.14597113E+01</totfact>
</mgrwt>
</event>
<event>
 6    1  0.1353269E-005  0.9785204E+03  0.7818608E-02  0.9964391E-01
          4   -1    0    0  502    0 -0.00000000000E+00  0.00000000000E+00  0.28602037009E+03  0.28602037009E+03  0.00000000000E+00 0.  1.
         21   -1    0    0  501  502  0.00000000000E+00 -0.00000000000E+00 -0.12328112010E+04  0.12328112010E+04  0.00000000000E+00 0.  1.
    9000010    2    1    2  501    0 -0.11129568396E+03  0.27199974144E+02 -0.99408191465E+03  0.13948838982E+04  0.97178993019E+03 0.  0.
        -13    1    3    3    0    0  0.71530410567E+02  0.14144810287E+03 -0.11293201632E+04  0.11403894982E+04  0.10566000000E+00 0.  1.
          4    1    3    3  501    0 -0.18282609453E+03 -0.11424812872E+03  0.13523824852E+03  0.25449439998E+03  0.00000000000E+00 0.  1.
         13    1    1    2    0    0  0.11129568396E+03 -0.27199974144E+02  0.47291083740E+02  0.12394767294E+03  0.10566000000E+00 0. -1.
<mgrwt>
<rscale>  1 0.57239571E+03</rscale>
<asrwt>0</asrwt>
<pdfrwt beam="2">  1       21 0.18966326E+00 0.97852043E+03</pdfrwt>
<pdfrwt beam="1">  1        4 0.44003134E-01 0.97852043E+03</pdfrwt>
<totfact> 0.27553685E+01</totfact>
</mgrwt>
</event>
<event>
 6    1  0.1353269E-005  0.1023666E+04  0.7818608E-02  0.9696209E-01
         21   -1    0    0  501  502  0.00000000000E+00  0.00000000000E+00  0.54200450320E+03  0.54200450320E+03  0.00000000000E+00 0.  1.
          4   -1    0    0  502    0 -0.00000000000E+00 -0.00000000000E+00 -0.96073489215E+03  0.96073489215E+03  0.00000000000E+00 0.  1.
    9000010    2    1    2  501    0 -0.16552587808E+03 -0.17400004244E+03 -0.42087049161E+01  0.10236746098E+04  0.99509655934E+03 0.  0.
        -13    1    3    3    0    0  0.22853465591E+03 -0.75197353673E+02  0.38958388944E+03  0.45788464598E+03  0.10566000000E+00 0.  1.
          4    1    3    3  501    0 -0.39406053399E+03 -0.98802688765E+02 -0.39379259435E+03  0.56578996379E+03  0.00000000000E+00 0.  1.
         13    1    1    2    0    0  0.16552587808E+03  0.17400004244E+03 -0.41452168404E+03  0.47906478558E+03  0.10566000000E+00 0. -1.
<mgrwt>
<rscale>  1 0.71242967E+03</rscale>
<asrwt>0</asrwt>
<pdfrwt beam="1">  1       21 0.83385308E-01 0.10236660E+04</pdfrwt>
<pdfrwt beam="2">  1        4 0.14780537E+00 0.10236660E+04</pdfrwt>
<totfact> 0.14658809E+01</totfact>
</mgrwt>
</event>
<event>
 6    1  0.1353269E-005  0.1112385E+04  0.7818608E-02  0.9421202E-01
          4   -1    0    0  502    0 -0.00000000000E+00  0.00000000000E+00  0.22252434826E+04  0.22252434826E+04  0.00000000000E+00 0.  1.
         21   -1    0    0  501  502  0.00000000000E+00 -0.00000000000E+00 -0.37769962568E+03  0.37769962568E+03  0.00000000000E+00 0.  1.
    9000010    2    1    2  501    0  0.40321534794E+03  0.26796958048E+03  0.59810367014E+03  0.12629837416E+04  0.10015036787E+04 0.  0.
        -13    1    3    3    0    0 -0.22982375865E+03  0.25257514897E+03 -0.63323588683E+02  0.34730829815E+03  0.10566000000E+00 0.  1.
          4    1    3    3  501    0  0.63303910659E+03  0.15394431509E+02  0.66142725882E+03  0.91567544343E+03  0.00000000000E+00 0.  1.
         13    1    1    2    0    0 -0.40321534794E+03 -0.26796958048E+03  0.12494401868E+04  0.13399593667E+04  0.10566000000E+00 0. -1.
<mgrwt>
<rscale>  1 0.90351162E+03</rscale>
<asrwt>0</asrwt>
<pdfrwt beam="2">  1       21 0.58107636E-01 0.11123848E+04</pdfrwt>
<pdfrwt beam="1">  1        4 0.34234514E+00 0.11123848E+04</pdfrwt>
<totfact> 0.17914260E+00</totfact>
</mgrwt>
</event>
<event>
 6    1  0.1353269E-005  0.9848352E+03  0.7818608E-02  0.9887350E-01
         21   -1    0    0  501  502  0.00000000000E+00  0.00000000000E+00  0.14937567801E+04  0.14937567801E+04  0.00000000000E+00 0.  1.
          4   -1    0    0  502    0 -0.00000000000E+00 -0.00000000000E+00 -0.26149397464E+03  0.26149397464E+03  0.00000000000E+00 0.  1.
    9000010    2    1    2  501    0 -0.99700058417E+02 -0.10362630713E+03  0.12694934114E+04  0.16067090354E+04  0.97428019061E+03 0.  0.
        -13    1    3    3    0    0  0.32712828025E+03  0.26148542623E+03  0.61775291302E+03  0.74632848838E+03  0.10566000000E+00 0.  1.
          4    1    3    3  501    0 -0.42682833866E+03 -0.36511173337E+03  0.65174049836E+03  0.86038054704E+03  0.00000000000E+00 0.  1.
         13    1    1    2    0    0  0.99700058417E+02  0.10362630713E+03 -0.37230605964E+02  0.14854171927E+03  0.10566000000E+00 0. -1.
<mgrwt>
<rscale>  1 0.60878315E+03</rscale>
<asrwt>0</asrwt>
<pdfrwt beam="1">  1       21 0.22980873E+00 0.98483522E+03</pdfrwt>
<pdfrwt beam="2">  1        4 0.40229843E-01 0.98483522E+03</pdfrwt>
<totfact> 0.17741859E+01</totfact>
</mgrwt>
</event>
<event>
 6    1  0.1353269E-005  0.1061291E+04  0.7818608E-02  0.9772962E-01
         21   -1    0    0  501  502  0.00000000000E+00  0.00000000000E+00  0.12227118443E+04  0.12227118443E+04  0.00000000000E+00 0.  1.
          4   -1    0    0  502    0 -0.00000000000E+00 -0.00000000000E+00 -0.33098594297E+03  0.33098594297E+03  0.00000000000E+00 0.  1.
    9000010    2    1    2  501    0  0.12839377775E+03 -0.10665009560E+03  0.89265449615E+03  0.13867844010E+04  0.10480838327E+04 0.  0.
        -13    1    3    3    0    0  0.44636291729E+03 -0.32532717515E+03  0.82826859616E+03  0.99554332069E+03  0.10566000000E+00 0.  1.
          4    1    3    3  501    0 -0.31796913955E+03  0.21867707955E+03  0.64385899995E+02  0.39124108034E+03  0.00000000000E+00 0.  1.
         13    1    1    2    0    0 -0.12839377775E+03  0.10665009560E+03 -0.92859481394E+00  0.16691338624E+03  0.10566000000E+00 0. -1.
<mgrwt>
<rscale>  1 0.66833933E+03</rscale>
<asrwt>0</asrwt>
<pdfrwt beam="1">  1       21 0.18810951E+00 0.10612912E+04</pdfrwt>
<pdfrwt beam="2">  1        4 0.50920915E-01 0.10612912E+04</pdfrwt>
<totfact> 0.20617696E+01</totfact>
</mgrwt>
</event>
<event>
 6    1  0.1353269E-005  0.9239607E+03  0.7818608E-02  0.9703919E-01
         21   -1    0    0  501  502  0.00000000000E+00  0.00000000000E+00  0.11887078681E+04  0.11887078681E+04  0.00000000000E+00 0.  1.
          4   -1    0    0  502    0 -0.00000000000E+00 -0.00000000000E+00 -0.39817690926E+03  0.39817690926E+03  0.00000000000E+00 0.  1.
    9000010    2    1    2  501    0 -0.10812893228E+03  0.29932553221E+03  0.85873690760E+03  0.12614009793E+04  0.86741899550E+03 0.  0.
        -13    1    3    3    0    0 -0.16474876454E+03  0.48291485690E+01 -0.14146747579E+03  0.21720620148E+03  0.10566000000E+00 0.  1.
          4    1    3    3  501    0  0.56619832260E+02  0.29449638364E+03  0.10002043834E+04  0.10441947778E+04  0.00000000000E+00 0.  1.
         13    1    1    2    0    0  0.10812893228E+03 -0.29932553221E+03 -0.68205948751E+02  0.32548379811E+03  0.10566000000E+00 0. -1.
<mgrwt>
<rscale>  1 0.70783932E+03</rscale>
<asrwt>0</asrwt>
<pdfrwt beam="1">  1       21 0.18287813E+00 0.92396069E+03</pdfrwt>
<pdfrwt beam="2">  1        4 0.61257986E-01 0.92396069E+03</pdfrwt>
<totfact> 0.15354980E+01</totfact>
</mgrwt>
</event>
<event>
 6    1  0.1353269E-005  0.1383233E+04  0.7818608E-02  0.9060269E-01
         21   -1    0    0  501  502  0.00000000000E+00  0.00000000000E+00  0.98180843618E+03  0.98180843618E+03  0.00000000000E+00 0. -1.
          4   -1    0    0  502    0 -0.00000000000E+00 -0.00000000000E+00 -0.14706729849E+04  0.14706729849E+04  0.00000000000E+00 0.  1.
    9000010    2    1    2  501    0  0.67705272625E+03  0.67826787136E+03 -0.55820720760E+03  0.14916192484E+04  0.99743921928E+03 0.  0.
        -13    1    3    3    0    0  0.69960393938E+03  0.56378658703E+03  0.23021686693E+02  0.89879419053E+03  0.10566000000E+00 0.  1.
          4    1    3    3  501    0 -0.22551213136E+02  0.11448128433E+03 -0.58122889429E+03  0.59282505787E+03  0.00000000000E+00 0.  1.
         13    1    1    2    0    0 -0.67705272625E+03 -0.67826787136E+03  0.69342658860E+02  0.96086217271E+03  0.10566000000E+00 0. -1.
<mgrwt>
<rscale>  1 0.12619824E+04</rscale>
<asrwt>0</asrwt>
<pdfrwt beam="1">  1       21 0.15104745E+00 0.13832327E+04</pdfrwt>
<pdfrwt beam="2">  1        4 0.22625738E+00 0.13832327E+04</pdfrwt>
<totfact> 0.86939058E-01</totfact>
</mgrwt>
</event>
<event>
 6    1  0.1353269E-005  0.1027041E+04  0.7818608E-02  0.9880222E-01
          4   -1    0    0  502    0 -0.00000000000E+00  0.00000000000E+00  0.13403001688E+04  0.13403001688E+04  0.00000000000E+00 0.  1.
         21   -1    0    0  501  502  0.00000000000E+00 -0.00000000000E+00 -0.40712782252E+03  0.40712782252E+03  0.00000000000E+00 0.  1.
    9000010    2    1    2  501    0 -0.12847988261E+03  0.18046122493E+02  0.25671176073E+03  0.10586379814E+04  0.10188133808E+04 0.  0.
        -13    1    3    3    0    0  0.42457694759E+03  0.59479960323E+02  0.26492039433E+03  0.50397051164E+03  0.10566000000E+00 0.  1.
          4    1    3    3  501    0 -0.55305683020E+03 -0.41433837830E+02 -0.82086336047E+01  0.55466746977E+03  0.00000000000E+00 0.  1.
         13    1    1    2    0    0  0.12847988261E+03 -0.18046122493E+02  0.67646058560E+03  0.68879000995E+03  0.10566000000E+00 0. -1.
<mgrwt>
<rscale>  1 0.61229437E+03</rscale>
<asrwt>0</asrwt>
<pdfrwt beam="2">  1       21 0.62635050E-01 0.10270411E+04</pdfrwt>
<pdfrwt beam="1">  1        4 0.20620002E+00 0.10270411E+04</pdfrwt>
<totfact> 0.10927322E+01</totfact>
</mgrwt>
</event>
<event>
 6    1  0.1353269E-005  0.1020397E+04  0.7818608E-02  0.9707156E-01
         21   -1    0    0  501  502  0.00000000000E+00  0.00000000000E+00  0.25342556005E+03  0.25342556005E+03  0.00000000000E+00 0.  1.
          4   -1    0    0  502    0 -0.00000000000E+00 -0.00000000000E+00 -0.15518390611E+04  0.15518390611E+04  0.00000000000E+00 0.  1.
    9000010    2    1    2  501    0  0.18047815305E+03 -0.14852363306E+03 -0.10473477102E+04  0.14622403132E+04  0.99326626559E+03 0.  0.
        -13    1    3    3    0    0 -0.93376802109E+02 -0.48228047088E+03 -0.86254402663E+03  0.99262071750E+03  0.10566000000E+00 0.  1.
          4    1    3    3  501    0  0.27385495516E+03  0.33375683782E+03 -0.18480368354E+03  0.46961959574E+03  0.00000000000E+00 0.  1.
         13    1    1    2    0    0 -0.18047815305E+03  0.14852363306E+03 -0.25106579090E+03  0.34302430793E+03  0.10566000000E+00 0. -1.
<mgrwt>
<rscale>  1 0.70592300E+03</rscale>
<asrwt>0</asrwt>
<pdfrwt beam="1">  1       21 0.38988547E-01 0.10203967E+04</pdfrwt>
<pdfrwt beam="2">  1        4 0.23874447E+00 0.10203967E+04</pdfrwt>
<totfact> 0.18907516E+01</totfact>
</mgrwt>
</event>
<event>
 6    1  0.1353269E-005  0.1013338E+04  0.7818608E-02  0.9837916E-01
         21   -1    0    0  501  502  0.00000000000E+00  0.00000000000E+00  0.60709495373E+03  0.60709495373E+03  0.00000000000E+00 0.  1.
          4   -1    0    0  502    0 -0.00000000000E+00 -0.00000000000E+00 -0.56824028430E+03  0.56824028430E+03  0.00000000000E+00 0.  1.
    9000010    2    1    2  501    0  0.72963229141E+02  0.13669345484E+03  0.75388638245E+02  0.10161388956E+04  0.10014220264E+04 0.  0.
        -13    1    3    3    0    0 -0.35703499828E+03  0.21021053671E+03 -0.23909694591E+03  0.47836160010E+03  0.10566000000E+00 0.  1.
          4    1    3    3  501    0  0.42999822742E+03 -0.73517081871E+02  0.31448558416E+03  0.53777729550E+03  0.00000000000E+00 0.  1.
         13    1    1    2    0    0 -0.72963229141E+02 -0.13669345484E+03 -0.36533968820E+02  0.15919634243E+03  0.10566000000E+00 0. -1.
<mgrwt>
<rscale>  1 0.63366843E+03</rscale>
<asrwt>0</asrwt>
<pdfrwt beam="1">  1       21 0.93399224E-01 0.10133384E+04</pdfrwt>
<pdfrwt beam="2">  1        4 0.87421582E-01 0.10133384E+04</pdfrwt>
<totfact> 0.41317730E+01</totfact>
</mgrwt>
</event>
<event>
 6    1  0.1353269E-005  0.1062426E+04  0.7818608E-02  0.9498234E-01
          4   -1    0    0  502    0 -0.00000000000E+00  0.00000000000E+00  0.55486927730E+03  0.55486927730E+03  0.00000000000E+00 0.  1.
         21   -1    0    0  501  502  0.00000000000E+00 -0.00000000000E+00 -0.10281468691E+04  0.10281468691E+04  0.00000000000E+00 0. -1.
    9000010    2    1    2  501    0  0.38117976809E+03  0.18433900399E+03 -0.46445359537E+03  0.11595108240E+04  0.97440716578E+03 0.  0.
        -13    1    3    3    0    0  0.33226228536E+03  0.25483102687E+03 -0.75129826639E+03  0.86010823433E+03  0.10566000000E+00 0.  1.
          4    1    3    3  501    0  0.48917482734E+02 -0.70492022882E+02  0.28684467102E+03  0.29940258966E+03  0.00000000000E+00 0.  1.
         13    1    1    2    0    0 -0.38117976809E+03 -0.18433900399E+03 -0.88239963985E+01  0.42350532236E+03  0.10566000000E+00 0. -1.
<mgrwt>
<rscale>  1 0.84414111E+03</rscale>
<asrwt>0</asrwt>
<pdfrwt beam="2">  1       21 0.15817644E+00 0.10624256E+04</pdfrwt>
<pdfrwt beam="1">  1        4 0.85364505E-01 0.10624256E+04</pdfrwt>
<totfact> 0.10935141E+01</totfact>
</mgrwt>
</event>
<event>
 6    1  0.1353269E-005  0.1005414E+04  0.7818608E-02  0.9849344E-01
          4   -1    0    0  502    0 -0.00000000000E+00  0.00000000000E+00  0.18557571147E+03  0.18557571147E+03  0.00000000000E+00 0.  1.
         21   -1    0    0  501  502  0.00000000000E+00 -0.00000000000E+00 -0.19650926961E+04  0.19650926961E+04  0.00000000000E+00 0.  1.
    9000010    2    1    2  501    0  0.14819914872E+03  0.37411053225E+02 -0.17079255991E+04  0.19818847821E+04  0.99372776098E+03 0.  0.
        -13    1    3    3    0    0 -0.38733564540E+03  0.16583858722E+03 -0.49671527470E+03  0.65135045444E+03  0.10566000000E+00 0.  1.
          4    1    3    3  501    0  0.53553479412E+03 -0.12842753399E+03 -0.12112103244E+04  0.13305343277E+04  0.00000000000E+00 0.  1.
         13    1    1    2    0    0 -0.14819914872E+03 -0.37411053225E+02 -0.71591385599E+02  0.16878362551E+03  0.10566000000E+00 0. -1.
<mgrwt>
<rscale>  1 0.62780364E+03</rscale>
<asrwt>0</asrwt>
<pdfrwt beam="2">  1       21 0.30232196E+00 0.10054141E+04</pdfrwt>
<pdfrwt beam="1">  1        4 0.28550108E-01 0.10054141E+04</pdfrwt>
<totfact> 0.12219181E+01</totfact>
</mgrwt>
</event>
<event>
 6    1  0.1353269E-005  0.1244900E+04  0.7818608E-02  0.9211582E-01
         21   -1    0    0  501  502  0.00000000000E+00  0.00000000000E+00  0.73910005522E+03  0.73910005522E+03  0.00000000000E+00 0. -1.
          4   -1    0    0  502    0 -0.00000000000E+00 -0.00000000000E+00 -0.14349069032E+04  0.14349069032E+04  0.00000000000E+00 0.  1.
    9000010    2    1    2  501    0  0.73428019322E+03 -0.99592119050E+02 -0.15046240230E+03  0.12539599118E+04  0.10003452072E+04 0.  0.
        -13    1    3    3    0    0  0.66351192998E+03 -0.23671102469E+03 -0.50534697954E+03  0.86698083678E+03  0.10566000000E+00 0.  1.
          4    1    3    3  501    0  0.70768263238E+02  0.13711890564E+03  0.35488457725E+03  0.38697907506E+03  0.00000000000E+00 0.  1.
         13    1    1    2    0    0 -0.73428019322E+03  0.99592119050E+02 -0.54534444571E+03  0.92004704661E+03  0.10566000000E+00 0. -1.
<mgrwt>
<rscale>  1 0.10934677E+04</rscale>
<asrwt>0</asrwt>
<pdfrwt beam="1">  1       21 0.11370770E+00 0.12449002E+04</pdfrwt>
<pdfrwt beam="2">  1        4 0.22075491E+00 0.12449002E+04</pdfrwt>
<totfact> 0.20566303E+00</totfact>
</mgrwt>
</event>
<event>
 6    1  0.1353269E-005  0.9454992E+03  0.7818608E-02  0.9822047E-01
         21   -1    0    0  501  502  0.00000000000E+00  0.00000000000E+00  0.36318523740E+03  0.36318523740E+03  0.00000000000E+00 0.  1.
          4   -1    0    0  502    0 -0.00000000000E+00 -0.00000000000E+00 -0.11030480199E+04  0.11030480199E+04  0.00000000000E+00 0.  1.
    9000010    2    1    2  501    0 -0.14944448703E+03 -0.13425043229E+03 -0.81843731748E+03  0.12505232622E+04  0.92391122591E+03 0.  0.
        -13    1    3    3    0    0  0.16100465019E+03 -0.13526033512E+03  0.13360988020E+03  0.24913744578E+03  0.10566000000E+00 0.  1.
          4    1    3    3  501    0 -0.31044913722E+03  0.10099028243E+01 -0.95204719767E+03  0.10013858164E+04  0.00000000000E+00 0.  1.
         13    1    1    2    0    0  0.14944448703E+03  0.13425043229E+03  0.78574534986E+02  0.21570999510E+03  0.10566000000E+00 0. -1.
<mgrwt>
<rscale>  1 0.64192692E+03</rscale>
<asrwt>0</asrwt>
<pdfrwt beam="1">  1       21 0.55874652E-01 0.94549923E+03</pdfrwt>
<pdfrwt beam="2">  1        4 0.16969970E+00 0.94549923E+03</pdfrwt>
<totfact> 0.25232319E+01</totfact>
</mgrwt>
</event>
<event>
 6    1  0.1353269E-005  0.1028385E+04  0.7818608E-02  0.9705194E-01
          4   -1    0    0  502    0 -0.00000000000E+00  0.00000000000E+00  0.20102460624E+04  0.20102460624E+04  0.00000000000E+00 0.  1.
         21   -1    0    0  501  502  0.00000000000E+00 -0.00000000000E+00 -0.21358523640E+03  0.21358523640E+03  0.00000000000E+00 0.  1.
    9000010    2    1    2  501    0  0.17456533985E+03  0.14950293945E+03  0.11773227416E+04  0.15632225941E+04  0.10023731112E+04 0.  0.
        -13    1    3    3    0    0 -0.28531607913E+03 -0.23390576870E+03  0.20701460061E+03  0.42305109582E+03  0.10566000000E+00 0.  1.
          4    1    3    3  501    0  0.45988141898E+03  0.38340870815E+03  0.97030814100E+03  0.11401714983E+04  0.00000000000E+00 0.  1.
         13    1    1    2    0    0 -0.17456533985E+03 -0.14950293945E+03  0.61933808443E+03  0.66060870473E+03  0.10566000000E+00 0. -1.
<mgrwt>
<rscale>  1 0.70708393E+03</rscale>
<asrwt>0</asrwt>
<pdfrwt beam="2">  1       21 0.32859268E-01 0.10283852E+04</pdfrwt>
<pdfrwt beam="1">  1        4 0.30926861E+00 0.10283852E+04</pdfrwt>
<totfact> 0.98504648E+00</totfact>
</mgrwt>
</event>
<event>
 6    1  0.1353269E-005  0.9592362E+03  0.7818608E-02  0.1003547E+00
          4   -1    0    0  502    0 -0.00000000000E+00  0.00000000000E+00  0.22841520638E+03  0.22841520638E+03  0.00000000000E+00 0.  1.
         21   -1    0    0  501  502  0.00000000000E+00 -0.00000000000E+00 -0.16169036883E+04  0.16169036883E+04  0.00000000000E+00 0.  1.
    9000010    2    1    2  501    0  0.94709337280E+02  0.21917572925E+02 -0.14438509109E+04  0.17334473243E+04  0.95429761322E+03 0.  0.
        -13    1    3    3    0    0 -0.36428888407E+03  0.25016700868E+03 -0.58349632808E+03  0.73195484788E+03  0.10566000000E+00 0.  1.
          4    1    3    3  501    0  0.45899822135E+03 -0.22824943576E+03 -0.86035458281E+03  0.10014924764E+04  0.00000000000E+00 0.  1.
         13    1    1    2    0    0 -0.94709337280E+02 -0.21917572925E+02  0.55362428935E+02  0.11187157044E+03  0.10566000000E+00 0. -1.
<mgrwt>
<rscale>  1 0.54122095E+03</rscale>
<asrwt>0</asrwt>
<pdfrwt beam="2">  1       21 0.24875442E+00 0.95923624E+03</pdfrwt>
<pdfrwt beam="1">  1        4 0.35140800E-01 0.95923624E+03</pdfrwt>
<totfact> 0.17681414E+01</totfact>
</mgrwt>
</event>
<event>
 6    1  0.1353269E-005  0.1283141E+04  0.7818608E-02  0.9160611E-01
          4   -1    0    0  502    0 -0.00000000000E+00  0.00000000000E+00  0.89450068458E+03  0.89450068458E+03  0.00000000000E+00 0.  1.
         21   -1    0    0  501  502  0.00000000000E+00 -0.00000000000E+00 -0.12671277386E+04  0.12671277386E+04  0.00000000000E+00 0. -1.
    9000010    2    1    2  501    0  0.34238405780E+03 -0.74411576856E+03 -0.58883878155E+02  0.12844910841E+04  0.98768158530E+03 0.  0.
        -13    1    3    3    0    0 -0.27391505074E+03 -0.11865206698E+03 -0.24585833200E+03  0.38672224994E+03  0.10566000000E+00 0.  1.
          4    1    3    3  501    0  0.61629910854E+03 -0.62546370157E+03  0.18697445384E+03  0.89776883415E+03  0.00000000000E+00 0.  1.
         13    1    1    2    0    0 -0.34238405780E+03  0.74411576856E+03 -0.31374317585E+03  0.87713733908E+03  0.10566000000E+00 0. -1.
<mgrwt>
<rscale>  1 0.11469403E+04</rscale>
<asrwt>0</asrwt>
<pdfrwt beam="2">  1       21 0.19494273E+00 0.12831407E+04</pdfrwt>
<pdfrwt beam="1">  1        4 0.13761549E+00 0.12831407E+04</pdfrwt>
<totfact> 0.17550293E+00</totfact>
</mgrwt>
</event>
<event>
 6    1  0.1353269E-005  0.9967075E+03  0.7818608E-02  0.9803204E-01
          4   -1    0    0  502    0 -0.00000000000E+00  0.00000000000E+00  0.11689636218E+04  0.11689636218E+04  0.00000000000E+00 0.  1.
         21   -1    0    0  501  502  0.00000000000E+00 -0.00000000000E+00 -0.38390964343E+03  0.38390964343E+03  0.00000000000E+00 0.  1.
    9000010    2    1    2  501    0 -0.10003297648E+03  0.15253252073E+03  0.30968696798E+03  0.10437106468E+04  0.97987403775E+03 0.  0.
        -13    1    3    3    0    0  0.10973893908E+03 -0.39506744918E+03  0.11532592680E+03  0.42593544665E+03  0.10566000000E+00 0.  1.
          4    1    3    3  501    0 -0.20977191556E+03  0.54759996991E+03  0.19436104119E+03  0.61777520016E+03  0.00000000000E+00 0.  1.
         13    1    1    2    0    0  0.10003297648E+03 -0.15253252073E+03  0.47536701036E+03  0.50916261839E+03  0.10566000000E+00 0. -1.
<mgrwt>
<rscale>  1 0.65190894E+03</rscale>
<asrwt>0</asrwt>
<pdfrwt beam="2">  1       21 0.59063023E-01 0.99670753E+03</pdfrwt>
<pdfrwt beam="1">  1        4 0.17984056E+00 0.99670753E+03</pdfrwt>
<totfact> 0.18818295E+01</totfact>
</mgrwt>
</event>
<event>
 6    1  0.1353269E-005  0.1064331E+04  0.7818608E-02  0.9533738E-01
         21   -1    0    0  501  502  0.00000000000E+00  0.00000000000E+00  0.83879833896E+03  0.83879833896E+03  0.00000000000E+00 0.  1.
          4   -1    0    0  502    0 -0.00000000000E+00 -0.00000000000E+00 -0.11974323935E+04  0.11974323935E+04  0.00000000000E+00 0.  1.
    9000010    2    1    2  501    0 -0.25020515304E+03 -0.27542519540E+03  0.44269030863E+03  0.11527249866E+04  0.99716524629E+03 0.  0.
        -13    1    3    3    0    0 -0.24875565273E+03  0.34553438124E+03  0.28405496261E+03  0.51182088306E+03  0.10566000000E+00 0.  1.
          4    1    3    3  501    0 -0.14495003130E+01 -0.62095957664E+03  0.15863534602E+03  0.64090410350E+03  0.00000000000E+00 0.  1.
         13    1    1    2    0    0  0.25020515304E+03  0.27542519540E+03 -0.80132436321E+03  0.88350574594E+03  0.10566000000E+00 0. -1.
<mgrwt>
<rscale>  1 0.81841520E+03</rscale>
<asrwt>0</asrwt>
<pdfrwt beam="1">  1       21 0.12904590E+00 0.10643309E+04</pdfrwt>
<pdfrwt beam="2">  1        4 0.18422037E+00 0.10643309E+04</pdfrwt>
<totfact> 0.26406919E+00</totfact>
</mgrwt>
</event>
<event>
 6    1  0.1353269E-005  0.1051553E+04  0.7818608E-02  0.9632397E-01
         21   -1    0    0  501  502  0.00000000000E+00  0.00000000000E+00  0.60367183670E+03  0.60367183670E+03  0.00000000000E+00 0.  1.
          4   -1    0    0  502    0 -0.00000000000E+00 -0.00000000000E+00 -0.10733801791E+04  0.10733801791E+04  0.00000000000E+00 0.  1.
    9000010    2    1    2  501    0 -0.24640284971E+02 -0.27375398107E+03  0.88063337505E+02  0.10552340007E+04  0.10149952015E+04 0.  0.
        -13    1    3    3    0    0  0.16387494557E+03  0.35678634936E+03  0.12842030426E+02  0.39283129431E+03  0.10566000000E+00 0.  1.
          4    1    3    3  501    0 -0.18851523054E+03 -0.63054033043E+03  0.75221307079E+02  0.66240270643E+03  0.00000000000E+00 0.  1.
         13    1    1    2    0    0  0.24640284971E+02  0.27375398107E+03 -0.55777167991E+03  0.62181801507E+03  0.10566000000E+00 0. -1.
<mgrwt>
<rscale>  1 0.75188518E+03</rscale>
<asrwt>0</asrwt>
<pdfrwt beam="1">  1       21 0.92872590E-01 0.10515530E+04</pdfrwt>
<pdfrwt beam="2">  1        4 0.16513541E+00 0.10515530E+04</pdfrwt>
<totfact> 0.83334445E+00</totfact>
</mgrwt>
</event>
<event>
 6    1  0.1353269E-005  0.9916197E+03  0.7818608E-02  0.9840944E-01
         21   -1    0    0  501  502  0.00000000000E+00  0.00000000000E+00  0.11026403105E+04  0.11026403105E+04  0.00000000000E+00 0.  1.
          4   -1    0    0  502    0 -0.00000000000E+00 -0.00000000000E+00 -0.44676823872E+03  0.44676823872E+03  0.00000000000E+00 0.  1.
    9000010    2    1    2  501    0 -0.15932539496E+03  0.37723147009E+02  0.84245814352E+03  0.13011707788E+04  0.97800923038E+03 0.  0.
        -13    1    3    3    0    0 -0.90158119086E+02  0.15288690212E+03  0.10439890882E+04  0.10589693663E+04  0.10566000000E+00 0.  1.
          4    1    3    3  501    0 -0.69167275877E+02 -0.11516375511E+03 -0.20153094470E+03  0.24220141250E+03  0.00000000000E+00 0.  1.
         13    1    1    2    0    0  0.15932539496E+03 -0.37723147009E+02 -0.18658607178E+03  0.24823777039E+03  0.10566000000E+00 0. -1.
<mgrwt>
<rscale>  1 0.63210782E+03</rscale>
<asrwt>0</asrwt>
<pdfrwt beam="1">  1       21 0.16963697E+00 0.99161972E+03</pdfrwt>
<pdfrwt beam="2">  1        4 0.68733575E-01 0.99161972E+03</pdfrwt>
<totfact> 0.14764078E+01</totfact>
</mgrwt>
</event>
<event>
 6    1  0.1353269E-005  0.1203903E+04  0.7818608E-02  0.9282062E-01
         21   -1    0    0  501  502  0.00000000000E+00  0.00000000000E+00  0.12628594767E+04  0.12628594767E+04  0.00000000000E+00 0. -1.
          4   -1    0    0  502    0 -0.00000000000E+00 -0.00000000000E+00 -0.76049841280E+03  0.76049841280E+03  0.00000000000E+00 0.  1.
    9000010    2    1    2  501    0 -0.61792048112E+03 -0.12969016863E+03 -0.19745325936E+02  0.12040652957E+04  0.10250551680E+04 0.  0.
        -13    1    3    3    0    0 -0.10535045896E+03 -0.32793543239E+03  0.38868557557E+03  0.51934271424E+03  0.10566000000E+00 0.  1.
          4    1    3    3  501    0 -0.51257002216E+03  0.19824526375E+03 -0.40843090151E+03  0.68472258143E+03  0.00000000000E+00 0.  1.
         13    1    1    2    0    0  0.61792048112E+03  0.12969016863E+03  0.52210638983E+03  0.81929259382E+03  0.10566000000E+00 0. -1.
<mgrwt>
<rscale>  1 0.10245121E+04</rscale>
<asrwt>0</asrwt>
<pdfrwt beam="1">  1       21 0.19428607E+00 0.12039034E+04</pdfrwt>
<pdfrwt beam="2">  1        4 0.11699976E+00 0.12039034E+04</pdfrwt>
<totfact> 0.27168911E+00</totfact>
</mgrwt>
</event>
<event>
 6    1  0.1353269E-005  0.1991487E+04  0.7818608E-02  0.8641841E-01
         21   -1    0    0  501  502  0.00000000000E+00  0.00000000000E+00  0.40151185652E+04  0.40151185652E+04  0.00000000000E+00 0. -1.
          4   -1    0    0  502    0 -0.00000000000E+00 -0.00000000000E+00 -0.86889427189E+03  0.86889427189E+03  0.00000000000E+00 0.  1.
    9000010    2    1    2  501    0 -0.14755378073E+04  0.92877856930E+03  0.16331709439E+04  0.25755129127E+04  0.96238141086E+03 0.  0.
        -13    1    3    3    0    0 -0.16013024391E+04  0.80417961819E+03  0.15843486876E+04  0.23918685446E+04  0.10566000000E+00 0.  1.
          4    1    3    3  501    0  0.12576463179E+03  0.12459895110E+03  0.48822256369E+02  0.18364436812E+03  0.00000000000E+00 0.  1.
         13    1    1    2    0    0  0.14755378073E+04 -0.92877856930E+03  0.15130533494E+04  0.23084999244E+04  0.10566000000E+00 0. -1.
<mgrwt>
<rscale>  1 0.19263690E+04</rscale>
<asrwt>0</asrwt>
<pdfrwt beam="1">  1       21 0.61771054E+00 0.19914867E+04</pdfrwt>
<pdfrwt beam="2">  1        4 0.13367604E+00 0.19914867E+04</pdfrwt>
<totfact> 0.20746584E-03</totfact>
</mgrwt>
</event>
<event>
 6    1  0.1353269E-005  0.1044362E+04  0.7818608E-02  0.9623271E-01
          4   -1    0    0  502    0 -0.00000000000E+00  0.00000000000E+00  0.32734672163E+03  0.32734672163E+03  0.00000000000E+00 0.  1.
         21   -1    0    0  501  502  0.00000000000E+00 -0.00000000000E+00 -0.13593574660E+04  0.13593574660E+04  0.00000000000E+00 0.  1.
    9000010    2    1    2  501    0  0.24081263191E+02 -0.28843023541E+03 -0.82367370294E+03  0.13300864063E+04  0.10034538213E+04 0.  0.
        -13    1    3    3    0    0 -0.31583734271E+03 -0.28785562271E+03 -0.88676589011E+03  0.98436164167E+03  0.10566000000E+00 0.  1.
          4    1    3    3  501    0  0.33991860590E+03 -0.57461269754E+00  0.63092187162E+02  0.34572476466E+03  0.00000000000E+00 0.  1.
         13    1    1    2    0    0 -0.24081263191E+02  0.28843023541E+03 -0.20833704140E+03  0.35661778127E+03  0.10566000000E+00 0. -1.
<mgrwt>
<rscale>  1 0.75774927E+03</rscale>
<asrwt>0</asrwt>
<pdfrwt beam="2">  1       21 0.20913192E+00 0.10443618E+04</pdfrwt>
<pdfrwt beam="1">  1        4 0.50361035E-01 0.10443618E+04</pdfrwt>
<totfact> 0.15130843E+01</totfact>
</mgrwt>
</event>
<event>
 6    1  0.1353269E-005  0.1053987E+04  0.7818608E-02  0.9702164E-01
         21   -1    0    0  501  502  0.00000000000E+00  0.00000000000E+00  0.10032527391E+04  0.10032527391E+04  0.00000000000E+00 0.  1.
          4   -1    0    0  502    0 -0.00000000000E+00 -0.00000000000E+00 -0.48052885962E+03  0.48052885962E+03  0.00000000000E+00 0.  1.
    9000010    2    1    2  501    0 -0.19683288391E+03  0.88145439387E+02  0.64517521285E+03  0.12357752623E+04  0.10316863094E+04 0.  0.
        -13    1    3    3    0    0 -0.56060798179E+02 -0.29729713205E+03 -0.15245762629E+03  0.33877977625E+03  0.10566000000E+00 0.  1.
          4    1    3    3  501    0 -0.14077208573E+03  0.38544257143E+03  0.79763283915E+03  0.89699548610E+03  0.00000000000E+00 0.  1.
         13    1    1    2    0    0  0.19683288391E+03 -0.88145439387E+02 -0.12245133337E+03  0.24800633637E+03  0.10566000000E+00 0. -1.
<mgrwt>
<rscale>  1 0.70888068E+03</rscale>
<asrwt>0</asrwt>
<pdfrwt beam="1">  1       21 0.15434657E+00 0.10539874E+04</pdfrwt>
<pdfrwt beam="2">  1        4 0.73927517E-01 0.10539874E+04</pdfrwt>
<totfact> 0.16327655E+01</totfact>
</mgrwt>
</event>
<event>
 6    1  0.1353269E-005  0.7371140E+03  0.7818608E-02  0.1017159E+00
         21   -1    0    0  501  502  0.00000000000E+00  0.00000000000E+00  0.11703812483E+04  0.11703812483E+04  0.00000000000E+00 0.  1.
          4   -1    0    0  502    0 -0.00000000000E+00 -0.00000000000E+00 -0.16500885896E+03  0.16500885896E+03  0.00000000000E+00 0.  1.
    9000010    2    1    2  501    0  0.12436421401E+03 -0.65905326846E+02  0.81934989440E+03  0.11021212718E+04  0.72355171091E+03 0.  0.
        -13    1    3    3    0    0  0.36298162362E+03 -0.34745576189E+02  0.77627754908E+03  0.85765363553E+03  0.10566000000E+00 0.  1.
          4    1    3    3  501    0 -0.23861740961E+03 -0.31159750657E+02  0.43072345314E+02  0.24446763623E+03  0.00000000000E+00 0.  1.
         13    1    1    2    0    0 -0.12436421401E+03  0.65905326846E+02  0.18602249496E+03  0.23326883552E+03  0.10566000000E+00 0. -1.
<mgrwt>
<rscale>  1 0.48726089E+03</rscale>
<asrwt>0</asrwt>
<pdfrwt beam="1">  1       21 0.18005865E+00 0.73711400E+03</pdfrwt>
<pdfrwt beam="2">  1        4 0.25385979E-01 0.73711400E+03</pdfrwt>
<totfact> 0.98882169E+01</totfact>
</mgrwt>
</event>
<event>
 6    1  0.1353269E-005  0.1121895E+04  0.7818608E-02  0.9396487E-01
         21   -1    0    0  501  502  0.00000000000E+00  0.00000000000E+00  0.18497338563E+04  0.18497338563E+04  0.00000000000E+00 0. -1.
          4   -1    0    0  502    0 -0.00000000000E+00 -0.00000000000E+00 -0.36326669693E+03  0.36326669693E+03  0.00000000000E+00 0.  1.
    9000010    2    1    2  501    0 -0.31642272346E+03 -0.40688748868E+03  0.10699474337E+04  0.15503019329E+04  0.99647769863E+03 0.  0.
        -13    1    3    3    0    0  0.29309450096E+03 -0.24594951203E+03  0.10340232852E+03  0.39634278304E+03  0.10566000000E+00 0.  1.
          4    1    3    3  501    0 -0.60951722441E+03 -0.16093797665E+03  0.96654510514E+03  0.11539591498E+04  0.00000000000E+00 0.  1.
         13    1    1    2    0    0  0.31642272346E+03  0.40688748868E+03  0.41651972567E+03  0.66269862034E+03  0.10566000000E+00 0. -1.
<mgrwt>
<rscale>  1 0.92365375E+03</rscale>
<asrwt>0</asrwt>
<pdfrwt beam="1">  1       21 0.28457443E+00 0.11218951E+04</pdfrwt>
<pdfrwt beam="2">  1        4 0.55887185E-01 0.11218951E+04</pdfrwt>
<totfact> 0.39222576E+00</totfact>
</mgrwt>
</event>
<event>
 6    1  0.1353269E-005  0.1040061E+04  0.7818608E-02  0.9632151E-01
         21   -1    0    0  501  502  0.00000000000E+00  0.00000000000E+00  0.89304627563E+03  0.89304627563E+03  0.00000000000E+00 0.  1.
          4   -1    0    0  502    0 -0.00000000000E+00 -0.00000000000E+00 -0.58444244610E+03  0.58444244610E+03  0.00000000000E+00 0.  1.
    9000010    2    1    2  501    0  0.26256519482E+03  0.10905195918E+03  0.48003133318E+03  0.11454944273E+04  0.10004471955E+04 0.  0.
        -13    1    3    3    0    0 -0.15532709101E+03 -0.27245863490E+01 -0.25151197976E+03  0.29562174430E+03  0.10566000000E+00 0.  1.
          4    1    3    3  501    0  0.41789228583E+03  0.11177654552E+03  0.73154331294E+03  0.84987268305E+03  0.00000000000E+00 0.  1.
         13    1    1    2    0    0 -0.26256519482E+03 -0.10905195918E+03 -0.17142750364E+03  0.33199429438E+03  0.10566000000E+00 0. -1.
<mgrwt>
<rscale>  1 0.75204297E+03</rscale>
<asrwt>0</asrwt>
<pdfrwt beam="1">  1       21 0.13739173E+00 0.10400612E+04</pdfrwt>
<pdfrwt beam="2">  1        4 0.89914222E-01 0.10400612E+04</pdfrwt>
<totfact> 0.14355666E+01</totfact>
</mgrwt>
</event>
<event>
 6    1  0.1353269E-005  0.1065577E+04  0.7818608E-02  0.9743433E-01
         21   -1    0    0  501  502  0.00000000000E+00  0.00000000000E+00  0.11068661003E+04  0.11068661003E+04  0.00000000000E+00 0.  1.
          4   -1    0    0  502    0 -0.00000000000E+00 -0.00000000000E+00 -0.48192018897E+03  0.48192018897E+03  0.00000000000E+00 0.  1.
    9000010    2    1    2  501    0  0.19537140344E+01 -0.18184233698E+03  0.80301118452E+03  0.13342716429E+04  0.10499444757E+04 0.  0.
        -13    1    3    3    0    0  0.43163075110E+03 -0.39517195293E+03  0.41804014634E+03  0.71918255873E+03  0.10566000000E+00 0.  1.
          4    1    3    3  501    0 -0.42967703706E+03  0.21332961595E+03  0.38497103819E+03  0.61508908417E+03  0.00000000000E+00 0.  1.
         13    1    1    2    0    0 -0.19537140344E+01  0.18184233698E+03 -0.17806527322E+03  0.25451464635E+03  0.10566000000E+00 0. -1.
<mgrwt>
<rscale>  1 0.68488648E+03</rscale>
<asrwt>0</asrwt>
<pdfrwt beam="1">  1       21 0.17028709E+00 0.10655768E+04</pdfrwt>
<pdfrwt beam="2">  1        4 0.74141568E-01 0.10655768E+04</pdfrwt>
<totfact> 0.12206140E+01</totfact>
</mgrwt>
</event>
<event>
 6    1  0.1353269E-005  0.1092645E+04  0.7818608E-02  0.9487250E-01
          4   -1    0    0  502    0 -0.00000000000E+00  0.00000000000E+00  0.37534586478E+03  0.37534586478E+03  0.00000000000E+00 0.  1.
         21   -1    0    0  501  502  0.00000000000E+00 -0.00000000000E+00 -0.15264821254E+04  0.15264821254E+04  0.00000000000E+00 0. -1.
    9000010    2    1    2  501    0  0.36680419146E+03 -0.17056285742E+03 -0.70878267235E+03  0.13024001701E+04  0.10150055780E+04 0.  0.
        -13    1    3    3    0    0  0.28884515403E+03 -0.59420267343E+03 -0.39900731028E+03  0.77182587734E+03  0.10566000000E+00 0.  1.
          4    1    3    3  501    0  0.77959037437E+02  0.42363981601E+03 -0.30977536208E+03  0.53057429280E+03  0.00000000000E+00 0.  1.
         13    1    1    2    0    0 -0.36680419146E+03  0.17056285742E+03 -0.44235358822E+03  0.59942781999E+03  0.10566000000E+00 0. -1.
<mgrwt>
<rscale>  1 0.85230413E+03</rscale>
<asrwt>0</asrwt>
<pdfrwt beam="2">  1       21 0.23484341E+00 0.10926451E+04</pdfrwt>
<pdfrwt beam="1">  1        4 0.57745517E-01 0.10926451E+04</pdfrwt>
<totfact> 0.75869017E+00</totfact>
</mgrwt>
</event>
<event>
 6    1  0.1353269E-005  0.1114455E+04  0.7818608E-02  0.9412295E-01
         21   -1    0    0  501  502  0.00000000000E+00  0.00000000000E+00  0.11590131349E+04  0.11590131349E+04  0.00000000000E+00 0. -1.
          4   -1    0    0  502    0 -0.00000000000E+00 -0.00000000000E+00 -0.80660224252E+03  0.80660224252E+03  0.00000000000E+00 0.  1.
    9000010    2    1    2  501    0 -0.46711396221E+03  0.16964750673E+03 -0.29177013666E+03  0.11520153900E+04  0.99751386751E+03 0.  0.
        -13    1    3    3    0    0 -0.54959208034E+03  0.43939196161E+03  0.54082777131E+02  0.70572070159E+03  0.10566000000E+00 0.  1.
          4    1    3    3  501    0  0.82478118132E+02 -0.26974445488E+03 -0.34585291379E+03  0.44629468840E+03  0.00000000000E+00 0.  1.
         13    1    1    2    0    0  0.46711396221E+03 -0.16964750673E+03  0.64418102908E+03  0.81359998747E+03  0.10566000000E+00 0. -1.
<mgrwt>
<rscale>  1 0.91070706E+03</rscale>
<asrwt>0</asrwt>
<pdfrwt beam="1">  1       21 0.17830971E+00 0.11144549E+04</pdfrwt>
<pdfrwt beam="2">  1        4 0.12409265E+00 0.11144549E+04</pdfrwt>
<totfact> 0.30824520E+00</totfact>
</mgrwt>
</event>
<event>
 6    1  0.1353269E-005  0.1030309E+04  0.7818608E-02  0.9623593E-01
         21   -1    0    0  501  502  0.00000000000E+00  0.00000000000E+00  0.85931106689E+03  0.85931106689E+03  0.00000000000E+00 0.  1.
          4   -1    0    0  502    0 -0.00000000000E+00 -0.00000000000E+00 -0.73867875437E+03  0.73867875437E+03  0.00000000000E+00 0.  1.
    9000010    2    1    2  501    0 -0.28226705125E+03  0.10483957610E+03  0.47367711291E+03  0.11339783266E+04  0.98532776930E+03 0.  0.
        -13    1    3    3    0    0  0.16635540280E+03  0.14178133824E+03 -0.21801120238E+03  0.30871501979E+03  0.10566000000E+00 0.  1.
          4    1    3    3  501    0 -0.44862245404E+03 -0.36941762144E+02  0.69168831529E+03  0.82526330681E+03  0.00000000000E+00 0.  1.
         13    1    1    2    0    0  0.28226705125E+03 -0.10483957610E+03 -0.35304480038E+03  0.46401149466E+03  0.10566000000E+00 0. -1.
<mgrwt>
<rscale>  1 0.75754115E+03</rscale>
<asrwt>0</asrwt>
<pdfrwt beam="1">  1       21 0.13220170E+00 0.10303091E+04</pdfrwt>
<pdfrwt beam="2">  1        4 0.11364289E+00 0.10303091E+04</pdfrwt>
<totfact> 0.90454673E+00</totfact>
</mgrwt>
</event>
<event>
 6    1  0.1353269E-005  0.1166423E+04  0.7818608E-02  0.9321389E-01
          4   -1    0    0  502    0 -0.00000000000E+00  0.00000000000E+00  0.20909053361E+03  0.20909053361E+03  0.00000000000E+00 0.  1.
         21   -1    0    0  501  502  0.00000000000E+00 -0.00000000000E+00 -0.37542444582E+04  0.37542444582E+04  0.00000000000E+00 0.  1.
    9000010    2    1    2  501    0 -0.43721052643E+03 -0.41285843206E+03 -0.24660518691E+04  0.27279943964E+04  0.99946809671E+03 0.  0.
        -13    1    3    3    0    0  0.68031718086E+02 -0.37837576710E+01 -0.17856633725E+04  0.17869628766E+04  0.10566000000E+00 0.  1.
          4    1    3    3  501    0 -0.50524224452E+03 -0.40907467439E+03 -0.68038849666E+03  0.94103151981E+03  0.00000000000E+00 0.  1.
         13    1    1    2    0    0  0.43721052643E+03  0.41285843206E+03 -0.10791020555E+04  0.12353405954E+04  0.10566000000E+00 0. -1.
<mgrwt>
<rscale>  1 0.98837388E+03</rscale>
<asrwt>0</asrwt>
<pdfrwt beam="2">  1       21 0.57757604E+00 0.11664226E+04</pdfrwt>
<pdfrwt beam="1">  1        4 0.32167776E-01 0.11664226E+04</pdfrwt>
<totfact> 0.12171272E-01</totfact>
</mgrwt>
</event>
<event>
 6    1  0.1353269E-005  0.1101827E+04  0.7818608E-02  0.9446583E-01
          4   -1    0    0  502    0 -0.00000000000E+00  0.00000000000E+00  0.13567885468E+04  0.13567885468E+04  0.00000000000E+00 0.  1.
         21   -1    0    0  501  502  0.00000000000E+00 -0.00000000000E+00 -0.47345659227E+03  0.47345659227E+03  0.00000000000E+00 0. -1.
    9000010    2    1    2  501    0  0.92905833313E+02 -0.44569551066E+03  0.81360158684E+03  0.13696603831E+04  0.10033673509E+04 0.  0.
        -13    1    3    3    0    0  0.10211196064E+03  0.30599412945E+03  0.39234173066E+03  0.50792844432E+03  0.10566000000E+00 0.  1.
          4    1    3    3  501    0 -0.92061273239E+01 -0.75168964011E+03  0.42125985618E+03  0.86173193875E+03  0.00000000000E+00 0.  1.
         13    1    1    2    0    0 -0.92905833313E+02  0.44569551066E+03  0.69730367644E+02  0.46058475596E+03  0.10566000000E+00 0. -1.
<mgrwt>
<rscale>  1 0.88339237E+03</rscale>
<asrwt>0</asrwt>
<pdfrwt beam="2">  1       21 0.72839476E-01 0.11018267E+04</pdfrwt>
<pdfrwt beam="1">  1        4 0.20873670E+00 0.11018267E+04</pdfrwt>
<totfact> 0.73947146E+00</totfact>
</mgrwt>
</event>
<event>
 6    1  0.1353269E-005  0.1021786E+04  0.7818608E-02  0.9786853E-01
          4   -1    0    0  502    0 -0.00000000000E+00  0.00000000000E+00  0.75258215008E+03  0.75258215008E+03  0.00000000000E+00 0.  1.
         21   -1    0    0  501  502  0.00000000000E+00 -0.00000000000E+00 -0.50781071899E+03  0.50781071899E+03  0.00000000000E+00 0.  1.
    9000010    2    1    2  501    0  0.15578416380E+03 -0.87455750073E+02  0.93063187509E+02  0.10260157878E+04  0.10060469303E+04 0.  0.
        -13    1    3    3    0    0  0.48208039680E+03  0.21793338210E+03 -0.10130634272E+03  0.53866450993E+03  0.10566000000E+00 0.  1.
          4    1    3    3  501    0 -0.32629623300E+03 -0.30538913218E+03  0.19436953023E+03  0.48735127783E+03  0.00000000000E+00 0.  1.
         13    1    1    2    0    0 -0.15578416380E+03  0.87455750073E+02  0.15170824358E+03  0.23437708132E+03  0.10566000000E+00 0. -1.
<mgrwt>
<rscale>  1 0.66072883E+03</rscale>
<asrwt>0</asrwt>
<pdfrwt beam="2">  1       21 0.78124726E-01 0.10217865E+04</pdfrwt>
<pdfrwt beam="1">  1        4 0.11578187E+00 0.10217865E+04</pdfrwt>
<totfact> 0.32093063E+01</totfact>
</mgrwt>
</event>
<event>
 6    1  0.1353269E-005  0.1035998E+04  0.7818608E-02  0.9612028E-01
          4   -1    0    0  502    0 -0.00000000000E+00  0.00000000000E+00  0.85745139102E+03  0.85745139102E+03  0.00000000000E+00 0.  1.
         21   -1    0    0  501  502  0.00000000000E+00 -0.00000000000E+00 -0.53264495377E+03  0.53264495377E+03  0.00000000000E+00 0. -1.
    9000010    2    1    2  501    0 -0.27263231427E+03 -0.14350846590E+03  0.31108035368E+03  0.10816948612E+04  0.98912573905E+03 0.  0.
        -13    1    3    3    0    0 -0.68682729487E+02 -0.49066829843E+03  0.43615640817E+03  0.66007963153E+03  0.10566000000E+00 0.  1.
          4    1    3    3  501    0 -0.20394958478E+03  0.34715983253E+03 -0.12507605449E+03  0.42161522963E+03  0.00000000000E+00 0.  1.
         13    1    1    2    0    0  0.27263231427E+03  0.14350846590E+03  0.13726083573E+02  0.30840148362E+03  0.10566000000E+00 0. -1.
<mgrwt>
<rscale>  1 0.76505182E+03</rscale>
<asrwt>0</asrwt>
<pdfrwt beam="2">  1       21 0.81945378E-01 0.10359984E+04</pdfrwt>
<pdfrwt beam="1">  1        4 0.13191560E+00 0.10359984E+04</pdfrwt>
<totfact> 0.20572361E+01</totfact>
</mgrwt>
</event>
<event>
 6    1  0.1353269E-005  0.9455070E+03  0.7818608E-02  0.9759479E-01
         21   -1    0    0  501  502  0.00000000000E+00  0.00000000000E+00  0.10647242533E+04  0.10647242533E+04  0.00000000000E+00 0.  1.
          4   -1    0    0  502    0 -0.00000000000E+00 -0.00000000000E+00 -0.55023510856E+03  0.55023510856E+03  0.00000000000E+00 0.  1.
    9000010    2    1    2  501    0 -0.24506287700E+03  0.29308716955E+02  0.79929938994E+03  0.12380884271E+04  0.91272593032E+03 0.  0.
        -13    1    3    3    0    0 -0.41726963473E+03 -0.19332591515E+03  0.83610142204E+03  0.95422977141E+03  0.10566000000E+00 0.  1.
          4    1    3    3  501    0  0.17220675774E+03  0.22263463211E+03 -0.36802032094E+02  0.28385865565E+03  0.00000000000E+00 0.  1.
         13    1    1    2    0    0  0.24506287700E+03 -0.29308716955E+02 -0.28481024519E+03  0.37687093481E+03  0.10566000000E+00 0. -1.
<mgrwt>
<rscale>  1 0.67583228E+03</rscale>
<asrwt>0</asrwt>
<pdfrwt beam="1">  1       21 0.16380373E+00 0.94550697E+03</pdfrwt>
<pdfrwt beam="2">  1        4 0.84651555E-01 0.94550697E+03</pdfrwt>
<totfact> 0.10232234E+01</totfact>
</mgrwt>
</event>
<event>
 6    1  0.1353269E-005  0.1208093E+04  0.7818608E-02  0.9258607E-01
          4   -1    0    0  502    0 -0.00000000000E+00  0.00000000000E+00  0.63699335528E+03  0.63699335528E+03  0.00000000000E+00 0.  1.
         21   -1    0    0  501  502  0.00000000000E+00 -0.00000000000E+00 -0.14721237114E+04  0.14721237114E+04  0.00000000000E+00 0.  1.
    9000010    2    1    2  501    0  0.29954364008E+03 -0.61172676043E+03 -0.75178298130E+03  0.14229080477E+04  0.99777434296E+03 0.  0.
        -13    1    3    3    0    0  0.77930725441E+02 -0.10755618207E+03  0.24808432546E+03  0.28140251237E+03  0.10566000000E+00 0.  1.
          4    1    3    3  501    0  0.22161291464E+03 -0.50417057837E+03 -0.99986730676E+03  0.11415055353E+04  0.00000000000E+00 0.  1.
         13    1    1    2    0    0 -0.29954364008E+03  0.61172676043E+03 -0.83347374861E+02  0.68620901903E+03  0.10566000000E+00 0. -1.
<mgrwt>
<rscale>  1 0.10468456E+04</rscale>
<asrwt>0</asrwt>
<pdfrwt beam="2">  1       21 0.22648057E+00 0.12080934E+04</pdfrwt>
<pdfrwt beam="1">  1        4 0.97998977E-01 0.12080934E+04</pdfrwt>
<totfact> 0.25382478E+00</totfact>
</mgrwt>
</event>
<event>
 6    1  0.1353269E-005  0.1027195E+04  0.7818608E-02  0.9705146E-01
         21   -1    0    0  501  502  0.00000000000E+00  0.00000000000E+00  0.45046884285E+03  0.45046884285E+03  0.00000000000E+00 0.  1.
          4   -1    0    0  502    0 -0.00000000000E+00 -0.00000000000E+00 -0.96014916642E+03  0.96014916642E+03  0.00000000000E+00 0.  1.
    9000010    2    1    2  501    0 -0.10381451338E+03  0.20599070698E+03 -0.23834846615E+03  0.10544851512E+04  0.10009591991E+04 0.  0.
        -13    1    3    3    0    0  0.79043543981E+02 -0.15603270365E+03  0.31981746227E+03  0.36452339677E+03  0.10566000000E+00 0.  1.
          4    1    3    3  501    0 -0.18285805736E+03  0.36202341063E+03 -0.55816592843E+03  0.68996175448E+03  0.00000000000E+00 0.  1.
         13    1    1    2    0    0  0.10381451338E+03 -0.20599070698E+03 -0.27133185741E+03  0.35613285802E+03  0.10566000000E+00 0. -1.
<mgrwt>
<rscale>  1 0.70711225E+03</rscale>
<asrwt>0</asrwt>
<pdfrwt beam="1">  1       21 0.69302900E-01 0.10271947E+04</pdfrwt>
<pdfrwt beam="2">  1        4 0.14771525E+00 0.10271947E+04</pdfrwt>
<totfact> 0.22586605E+01</totfact>
</mgrwt>
</event>
<event>
 6    1  0.1353269E-005  0.1036622E+04  0.7818608E-02  0.9641382E-01
          4   -1    0    0  502    0 -0.00000000000E+00  0.00000000000E+00  0.53973634183E+03  0.53973634183E+03  0.00000000000E+00 0.  1.
         21   -1    0    0  501  502  0.00000000000E+00 -0.00000000000E+00 -0.81071228758E+03  0.81071228758E+03  0.00000000000E+00 0.  1.
    9000010    2    1    2  501    0 -0.27733469417E+03 -0.22936464861E+02 -0.27372958676E+03  0.10721534485E+04  0.99857123755E+03 0.  0.
        -13    1    3    3    0    0 -0.22487129469E+03 -0.48131108392E+03  0.84807884352E+01  0.53131854251E+03  0.10566000000E+00 0.  1.
          4    1    3    3  501    0 -0.52463399480E+02  0.45837461906E+03 -0.28221037519E+03  0.54083490600E+03  0.00000000000E+00 0.  1.
         13    1    1    2    0    0  0.27733469417E+03  0.22936464861E+02  0.27536410102E+01  0.27829518090E+03  0.10566000000E+00 0. -1.
<mgrwt>
<rscale>  1 0.74616765E+03</rscale>
<asrwt>0</asrwt>
<pdfrwt beam="2">  1       21 0.12472497E+00 0.10366220E+04</pdfrwt>
<pdfrwt beam="1">  1        4 0.83036361E-01 0.10366220E+04</pdfrwt>
<totfact> 0.22373701E+01</totfact>
</mgrwt>
</event>
<event>
 6    1  0.1353269E-005  0.9326369E+03  0.7818608E-02  0.1007987E+00
         21   -1    0    0  501  502  0.00000000000E+00  0.00000000000E+00  0.11617920485E+04  0.11617920485E+04  0.00000000000E+00 0.  1.
          4   -1    0    0  502    0 -0.00000000000E+00 -0.00000000000E+00 -0.29965193577E+03  0.29965193577E+03  0.00000000000E+00 0.  1.
    9000010    2    1    2  501    0  0.37016657978E+02 -0.84342020510E+02  0.95203808797E+03  0.13327370826E+04  0.92807747582E+03 0.  0.
        -13    1    3    3    0    0  0.40748604719E+03  0.20331029681E+03  0.38087817046E+03  0.59367343493E+03  0.10566000000E+00 0.  1.
          4    1    3    3  501    0 -0.37046938921E+03 -0.28765231732E+03  0.57115991751E+03  0.73906364771E+03  0.00000000000E+00 0.  1.
         13    1    1    2    0    0 -0.37016657978E+02  0.84342020510E+02 -0.89897975287E+02  0.12870690159E+03  0.10566000000E+00 0. -1.
<mgrwt>
<rscale>  1 0.52282745E+03</rscale>
<asrwt>0</asrwt>
<pdfrwt beam="1">  1       21 0.17873724E+00 0.93263691E+03</pdfrwt>
<pdfrwt beam="2">  1        4 0.46100298E-01 0.93263691E+03</pdfrwt>
<totfact> 0.30112408E+01</totfact>
</mgrwt>
</event>
<event>
 6    1  0.1353269E-005  0.1120187E+04  0.7818608E-02  0.9411795E-01
          4   -1    0    0  502    0 -0.00000000000E+00  0.00000000000E+00  0.77014026869E+03  0.77014026869E+03  0.00000000000E+00 0.  1.
         21   -1    0    0  501  502  0.00000000000E+00 -0.00000000000E+00 -0.87591508663E+03  0.87591508663E+03  0.00000000000E+00 0. -1.
    9000010    2    1    2  501    0 -0.46710806894E+03  0.14884256648E+03  0.77030458290E+02  0.11228328044E+04  0.10072118731E+04 0.  0.
        -13    1    3    3    0    0 -0.38807892435E+03 -0.13055411941E+03  0.47696795523E+03  0.62860804250E+03  0.10566000000E+00 0.  1.
          4    1    3    3  501    0 -0.79029144590E+02  0.27939668589E+03 -0.39993749694E+03  0.49422476186E+03  0.00000000000E+00 0.  1.
         13    1    1    2    0    0  0.46710806894E+03 -0.14884256648E+03 -0.18280527623E+03  0.52322255097E+03  0.10566000000E+00 0. -1.
<mgrwt>
<rscale>  1 0.91111300E+03</rscale>
<asrwt>0</asrwt>
<pdfrwt beam="2">  1       21 0.13475617E+00 0.11201874E+04</pdfrwt>
<pdfrwt beam="1">  1        4 0.11848312E+00 0.11201874E+04</pdfrwt>
<totfact> 0.76693351E+00</totfact>
</mgrwt>
</event>
<event>
 6    1  0.1353269E-005  0.9933382E+03  0.7818608E-02  0.9841080E-01
          4   -1    0    0  502    0 -0.00000000000E+00  0.00000000000E+00  0.30094852912E+03  0.30094852912E+03  0.00000000000E+00 0.  1.
         21   -1    0    0  501  502  0.00000000000E+00 -0.00000000000E+00 -0.16805474237E+04  0.16805474237E+04  0.00000000000E+00 0.  1.
    9000010    2    1    2  501    0 -0.42115880953E+02  0.15726812067E+03 -0.14856865779E+04  0.17871724676E+04  0.97990500157E+03 0.  0.
        -13    1    3    3    0    0  0.15532363847E+03  0.13031516732E+03  0.73231629373E+02  0.21556984531E+03  0.10566000000E+00 0.  1.
          4    1    3    3  501    0 -0.19743951943E+03  0.26952953343E+02 -0.15589182072E+04  0.15716026223E+04  0.00000000000E+00 0.  1.
         13    1    1    2    0    0  0.42115880953E+02 -0.15726812067E+03  0.10608768328E+03  0.19432348524E+03  0.10566000000E+00 0. -1.
<mgrwt>
<rscale>  1 0.63203769E+03</rscale>
<asrwt>0</asrwt>
<pdfrwt beam="2">  1       21 0.25854576E+00 0.99333822E+03</pdfrwt>
<pdfrwt beam="1">  1        4 0.46299773E-01 0.99333822E+03</pdfrwt>
<totfact> 0.86860249E+00</totfact>
</mgrwt>
</event>
<event>
 6    1  0.1353269E-005  0.1047001E+04  0.7818608E-02  0.9573911E-01
         21   -1    0    0  501  502  0.00000000000E+00  0.00000000000E+00  0.11806306885E+04  0.11806306885E+04  0.00000000000E+00 0.  1.
          4   -1    0    0  502    0 -0.00000000000E+00 -0.00000000000E+00 -0.41035756236E+03  0.41035756236E+03  0.00000000000E+00 0.  1.
    9000010    2    1    2  501    0 -0.16769344611E+03  0.29597233863E+03  0.52246387373E+03  0.11701199177E+04  0.99019765976E+03 0.  0.
        -13    1    3    3    0    0  0.15950994879E+01 -0.27156611987E+03 -0.11949296047E+03  0.29669728776E+03  0.10566000000E+00 0.  1.
          4    1    3    3  501    0 -0.16928854560E+03  0.56753845850E+03  0.64195683420E+03  0.87342262995E+03  0.00000000000E+00 0.  1.
         13    1    1    2    0    0  0.16769344611E+03 -0.29597233863E+03  0.24780925244E+03  0.42086833317E+03  0.10566000000E+00 0. -1.
<mgrwt>
<rscale>  1 0.79047279E+03</rscale>
<asrwt>0</asrwt>
<pdfrwt beam="1">  1       21 0.18163549E+00 0.10470015E+04</pdfrwt>
<pdfrwt beam="2">  1        4 0.63131933E-01 0.10470015E+04</pdfrwt>
<totfact> 0.14448271E+01</totfact>
</mgrwt>
</event>
<event>
 6    1  0.1353269E-005  0.1003835E+04  0.7818608E-02  0.9823542E-01
          4   -1    0    0  502    0 -0.00000000000E+00  0.00000000000E+00  0.10989661622E+04  0.10989661622E+04  0.00000000000E+00 0.  1.
         21   -1    0    0  501  502  0.00000000000E+00 -0.00000000000E+00 -0.58590513739E+03  0.58590513739E+03  0.00000000000E+00 0.  1.
    9000010    2    1    2  501    0  0.63258525808E+02  0.15460322169E+03 -0.13749814087E+03  0.10132084106E+04  0.98983925326E+03 0.  0.
        -13    1    3    3    0    0 -0.15806516939E+03  0.19718863329E+03 -0.51493003478E+03  0.57360344032E+03  0.10566000000E+00 0.  1.
          4    1    3    3  501    0  0.22132369520E+03 -0.42585411601E+02  0.37743189391E+03  0.43960497026E+03  0.00000000000E+00 0.  1.
         13    1    1    2    0    0 -0.63258525808E+02 -0.15460322169E+03  0.65055916568E+03  0.67166288900E+03  0.10566000000E+00 0. -1.
<mgrwt>
<rscale>  1 0.64114288E+03</rscale>
<asrwt>0</asrwt>
<pdfrwt beam="2">  1       21 0.90139252E-01 0.10038354E+04</pdfrwt>
<pdfrwt beam="1">  1        4 0.16907172E+00 0.10038354E+04</pdfrwt>
<totfact> 0.84339000E+00</totfact>
</mgrwt>
</event>
<event>
 6    1  0.1353269E-005  0.7966577E+03  0.7818608E-02  0.1041924E+00
         21   -1    0    0  501  502  0.00000000000E+00  0.00000000000E+00  0.48824948575E+03  0.48824948575E+03  0.00000000000E+00 0.  1.
          4   -1    0    0  502    0 -0.00000000000E+00 -0.00000000000E+00 -0.49047614495E+03  0.49047614495E+03  0.00000000000E+00 0.  1.
    9000010    2    1    2  501    0 -0.67313265246E+01 -0.52999261505E+02  0.15594297340E+03  0.81177690708E+03  0.79486433021E+03 0.  0.
        -13    1    3    3    0    0  0.18894007691E+03  0.30511309757E+03 -0.36245901119E+02  0.36070227541E+03  0.10566000000E+00 0.  1.
          4    1    3    3  501    0 -0.19567140344E+03 -0.35811235908E+03  0.19218887452E+03  0.45107463167E+03  0.00000000000E+00 0.  1.
         13    1    1    2    0    0  0.67313265246E+01  0.52999261505E+02 -0.15816963260E+03  0.16694872362E+03  0.10566000000E+00 0. -1.
<mgrwt>
<rscale>  1 0.40540604E+03</rscale>
<asrwt>0</asrwt>
<pdfrwt beam="1">  1       21 0.75115305E-01 0.79665773E+03</pdfrwt>
<pdfrwt beam="2">  1        4 0.75457869E-01 0.79665773E+03</pdfrwt>
<totfact> 0.98972601E+01</totfact>
</mgrwt>
</event>
<event>
 6    1  0.1353269E-005  0.1063057E+04  0.7818608E-02  0.9560843E-01
          4   -1    0    0  502    0 -0.00000000000E+00  0.00000000000E+00  0.97910796225E+03  0.97910796225E+03  0.00000000000E+00 0.  1.
         21   -1    0    0  501  502  0.00000000000E+00 -0.00000000000E+00 -0.54468908198E+03  0.54468908198E+03  0.00000000000E+00 0.  1.
    9000010    2    1    2  501    0  0.26771631380E+03 -0.20955497421E+03  0.13655317586E+03  0.10717911804E+04  0.10072260187E+04 0.  0.
        -13    1    3    3    0    0  0.15639904237E+03  0.34121228744E+03 -0.19124602000E+03  0.42126183887E+03  0.10566000000E+00 0.  1.
          4    1    3    3  501    0  0.11131727143E+03 -0.55076726165E+03  0.32779919586E+03  0.65052934156E+03  0.00000000000E+00 0.  1.
         13    1    1    2    0    0 -0.26771631380E+03  0.20955497421E+03  0.29786570441E+03  0.45200586381E+03  0.10566000000E+00 0. -1.
<mgrwt>
<rscale>  1 0.79942948E+03</rscale>
<asrwt>0</asrwt>
<pdfrwt beam="2">  1       21 0.83798320E-01 0.10630567E+04</pdfrwt>
<pdfrwt beam="1">  1        4 0.15063199E+00 0.10630567E+04</pdfrwt>
<totfact> 0.13714965E+01</totfact>
</mgrwt>
</event>
<event>
 6    1  0.1353269E-005  0.1116597E+04  0.7818608E-02  0.9401341E-01
         21   -1    0    0  501  502  0.00000000000E+00  0.00000000000E+00  0.12498976506E+04  0.12498976506E+04  0.00000000000E+00 0.  1.
          4   -1    0    0  502    0 -0.00000000000E+00 -0.00000000000E+00 -0.95171972751E+03  0.95171972751E+03  0.00000000000E+00 0.  1.
    9000010    2    1    2  501    0 -0.20006922843E+03 -0.47326563760E+03  0.88270615971E+03  0.14233620662E+04  0.99135329077E+03 0.  0.
        -13    1    3    3    0    0 -0.46975504439E+03 -0.34404306202E+03  0.95241161340E+03  0.11162989397E+04  0.10566000000E+00 0.  1.
          4    1    3    3  501    0  0.26968581596E+03 -0.12922257559E+03 -0.69705453686E+02  0.30706312648E+03  0.00000000000E+00 0.  1.
         13    1    1    2    0    0  0.20006922843E+03  0.47326563760E+03 -0.58452823666E+03  0.77825531191E+03  0.10566000000E+00 0. -1.
<mgrwt>
<rscale>  1 0.91965421E+03</rscale>
<asrwt>0</asrwt>
<pdfrwt beam="1">  1       21 0.19229195E+00 0.11165972E+04</pdfrwt>
<pdfrwt beam="2">  1        4 0.14641842E+00 0.11165972E+04</pdfrwt>
<totfact> 0.15900248E+00</totfact>
</mgrwt>
</event>
<event>
 6    1  0.1353269E-005  0.9978944E+03  0.7818608E-02  0.9882490E-01
         21   -1    0    0  501  502  0.00000000000E+00  0.00000000000E+00  0.33462035023E+03  0.33462035023E+03  0.00000000000E+00 0.  1.
          4   -1    0    0  502    0 -0.00000000000E+00 -0.00000000000E+00 -0.14991790359E+04  0.14991790359E+04  0.00000000000E+00 0.  1.
    9000010    2    1    2  501    0 -0.13421467124E+03 -0.41258064153E+02 -0.43111970461E+03  0.10870406862E+04  0.98796631921E+03 0.  0.
        -13    1    3    3    0    0 -0.51268242486E+03  0.16810416883E+03 -0.11590383592E+03  0.55184779666E+03  0.10566000000E+00 0.  1.
          4    1    3    3  501    0  0.37846775362E+03 -0.20936223298E+03 -0.31521586870E+03  0.53519288953E+03  0.00000000000E+00 0.  1.
         13    1    1    2    0    0  0.13421467124E+03  0.41258064153E+02 -0.73343898101E+03  0.74675869989E+03  0.10566000000E+00 0. -1.
<mgrwt>
<rscale>  1 0.61117459E+03</rscale>
<asrwt>0</asrwt>
<pdfrwt beam="1">  1       21 0.51480054E-01 0.99789441E+03</pdfrwt>
<pdfrwt beam="2">  1        4 0.23064293E+00 0.99789441E+03</pdfrwt>
<totfact> 0.11792026E+01</totfact>
</mgrwt>
</event>
<event>
 6    1  0.1353269E-005  0.8608082E+03  0.7818608E-02  0.1009666E+00
         21   -1    0    0  501  502  0.00000000000E+00  0.00000000000E+00  0.47434624419E+03  0.47434624419E+03  0.00000000000E+00 0.  1.
          4   -1    0    0  502    0 -0.00000000000E+00 -0.00000000000E+00 -0.81389896751E+03  0.81389896751E+03  0.00000000000E+00 0.  1.
    9000010    2    1    2  501    0 -0.46076448419E+02  0.10121507215E+03  0.70203091084E+02  0.86366616307E+03  0.85359430487E+03 0.  0.
        -13    1    3    3    0    0  0.34760404881E+03 -0.40072519679E+02  0.22687392785E+03  0.41702058928E+03  0.10566000000E+00 0.  1.
          4    1    3    3  501    0 -0.39368049723E+03  0.14128759182E+03 -0.15667083676E+03  0.44664557380E+03  0.00000000000E+00 0.  1.
         13    1    1    2    0    0  0.46076448419E+02 -0.10121507215E+03 -0.40975581441E+03  0.42457904863E+03  0.10566000000E+00 0. -1.
<mgrwt>
<rscale>  1 0.51607785E+03</rscale>
<asrwt>0</asrwt>
<pdfrwt beam="1">  1       21 0.72976346E-01 0.86080821E+03</pdfrwt>
<pdfrwt beam="2">  1        4 0.12521523E+00 0.86080821E+03</pdfrwt>
<totfact> 0.31345079E+01</totfact>
</mgrwt>
</event>
<event>
 6    1  0.1353269E-005  0.1027753E+04  0.7818608E-02  0.9954830E-01
          4   -1    0    0  502    0 -0.00000000000E+00  0.00000000000E+00  0.10071478085E+04  0.10071478085E+04  0.00000000000E+00 0.  1.
         21   -1    0    0  501  502  0.00000000000E+00 -0.00000000000E+00 -0.48980766899E+03  0.48980766899E+03  0.00000000000E+00 0.  1.
    9000010    2    1    2  501    0  0.92044606956E+02  0.43796205433E+02  0.61209613795E+02  0.10295740648E+04  0.10226855923E+04 0.  0.
        -13    1    3    3    0    0  0.39687190962E+03 -0.41807253334E+02 -0.33595316157E+03  0.52165093406E+03  0.10566000000E+00 0.  1.
          4    1    3    3  501    0 -0.30482730266E+03  0.85603458767E+02  0.39716277536E+03  0.50792313073E+03  0.00000000000E+00 0.  1.
         13    1    1    2    0    0 -0.92044606956E+02 -0.43796205433E+02  0.45613052574E+03  0.46738141272E+03  0.10566000000E+00 0. -1.
<mgrwt>
<rscale>  1 0.57676010E+03</rscale>
<asrwt>0</asrwt>
<pdfrwt beam="2">  1       21 0.75355026E-01 0.10277530E+04</pdfrwt>
<pdfrwt beam="1">  1        4 0.15494582E+00 0.10277530E+04</pdfrwt>
<totfact> 0.16370768E+01</totfact>
</mgrwt>
</event>
<event>
 6    1  0.1353269E-005  0.1013771E+04  0.7818608E-02  0.9859119E-01
         21   -1    0    0  501  502  0.00000000000E+00  0.00000000000E+00  0.27061241032E+03  0.27061241032E+03  0.00000000000E+00 0.  1.
          4   -1    0    0  502    0 -0.00000000000E+00 -0.00000000000E+00 -0.14015181818E+04  0.14015181818E+04  0.00000000000E+00 0.  1.
    9000010    2    1    2  501    0  0.69944097350E+02 -0.12637651495E+03 -0.73922381435E+03  0.12546644654E+04  0.10034280605E+04 0.  0.
        -13    1    3    3    0    0  0.58872408764E+02 -0.50155943143E+03 -0.10213495746E+03  0.51522750749E+03  0.10566000000E+00 0.  1.
          4    1    3    3  501    0  0.11071688586E+02  0.37518291649E+03 -0.63708885689E+03  0.73943695788E+03  0.00000000000E+00 0.  1.
         13    1    1    2    0    0 -0.69944097350E+02  0.12637651495E+03 -0.39168195714E+03  0.41746612677E+03  0.10566000000E+00 0. -1.
<mgrwt>
<rscale>  1 0.62284137E+03</rscale>
<asrwt>0</asrwt>
<pdfrwt beam="1">  1       21 0.41632679E-01 0.10137707E+04</pdfrwt>
<pdfrwt beam="2">  1        4 0.21561818E+00 0.10137707E+04</pdfrwt>
<totfact> 0.23091849E+01</totfact>
</mgrwt>
</event>
<event>
 6    1  0.1353269E-005  0.1014495E+04  0.7818608E-02  0.9856089E-01
          4   -1    0    0  502    0 -0.00000000000E+00  0.00000000000E+00  0.63489006590E+03  0.63489006590E+03  0.00000000000E+00 0.  1.
         21   -1    0    0  501  502  0.00000000000E+00 -0.00000000000E+00 -0.55967169063E+03  0.55967169063E+03  0.00000000000E+00 0.  1.
    9000010    2    1    2  501    0 -0.12847347106E+03 -0.68419216059E+02 -0.30031909355E+02  0.10149392204E+04  0.10039985477E+04 0.  0.
        -13    1    3    3    0    0  0.42537098681E+03  0.60045163071E+02  0.76917031669E+02  0.43641968213E+03  0.10566000000E+00 0.  1.
          4    1    3    3  501    0 -0.55384445787E+03 -0.12846437913E+03 -0.10694894102E+03  0.57851953831E+03  0.00000000000E+00 0.  1.
         13    1    1    2    0    0  0.12847347106E+03  0.68419216059E+02  0.10525028462E+03  0.17962253609E+03  0.10566000000E+00 0. -1.
<mgrwt>
<rscale>  1 0.62437444E+03</rscale>
<asrwt>0</asrwt>
<pdfrwt beam="2">  1       21 0.86103337E-01 0.10144948E+04</pdfrwt>
<pdfrwt beam="1">  1        4 0.97675394E-01 0.10144948E+04</pdfrwt>
<totfact> 0.38667504E+01</totfact>
</mgrwt>
</event>
<event>
 6    1  0.1353269E-005  0.1071737E+04  0.7818608E-02  0.9660432E-01
         21   -1    0    0  501  502  0.00000000000E+00  0.00000000000E+00  0.14560706350E+04  0.14560706350E+04  0.00000000000E+00 0.  1.
          4   -1    0    0  502    0 -0.00000000000E+00 -0.00000000000E+00 -0.34395004288E+03  0.34395004288E+03  0.00000000000E+00 0.  1.
    9000010    2    1    2  501    0  0.21006413266E+03  0.10772148771E+03  0.11371737874E+04  0.15626211570E+04  0.10454136975E+04 0.  0.
        -13    1    3    3    0    0 -0.25708418213E+02  0.33711145413E+03 -0.39909068068E+02  0.34043765971E+03  0.10566000000E+00 0.  1.
          4    1    3    3  501    0  0.23577255087E+03 -0.22938996642E+03  0.11770828555E+04  0.12221834973E+04  0.00000000000E+00 0.  1.
         13    1    1    2    0    0 -0.21006413266E+03 -0.10772148771E+03 -0.25053195287E+02  0.23739952085E+03  0.10566000000E+00 0. -1.
<mgrwt>
<rscale>  1 0.73422338E+03</rscale>
<asrwt>0</asrwt>
<pdfrwt beam="1">  1       21 0.22401086E+00 0.10717372E+04</pdfrwt>
<pdfrwt beam="2">  1        4 0.52915392E-01 0.10717372E+04</pdfrwt>
<totfact> 0.10803132E+01</totfact>
</mgrwt>
</event>
<event>
 6    1  0.1353269E-005  0.9988542E+03  0.7818608E-02  0.9644120E-01
         21   -1    0    0  501  502  0.00000000000E+00  0.00000000000E+00  0.34064178909E+03  0.34064178909E+03  0.00000000000E+00 0.  1.
          4   -1    0    0  502    0 -0.00000000000E+00 -0.00000000000E+00 -0.12539463032E+04  0.12539463032E+04  0.00000000000E+00 0.  1.
    9000010    2    1    2  501    0  0.30428211412E+03 -0.48852492955E+02 -0.68972600615E+03  0.12138499520E+04  0.95012397688E+03 0.  0.
        -13    1    3    3    0    0 -0.24553394032E+03 -0.23509792953E+03 -0.39545062793E+02  0.34223058816E+03  0.10566000000E+00 0.  1.
          4    1    3    3  501    0  0.54981605445E+03  0.18624543657E+03 -0.65018094336E+03  0.87161936387E+03  0.00000000000E+00 0.  1.
         13    1    1    2    0    0 -0.30428211412E+03  0.48852492955E+02 -0.22357850793E+03  0.38073814022E+03  0.10566000000E+00 0. -1.
<mgrwt>
<rscale>  1 0.74443584E+03</rscale>
<asrwt>0</asrwt>
<pdfrwt beam="1">  1       21 0.52406429E-01 0.99885421E+03</pdfrwt>
<pdfrwt beam="2">  1        4 0.19291481E+00 0.99885421E+03</pdfrwt>
<totfact> 0.19915507E+01</totfact>
</mgrwt>
</event>
<event>
 6    1  0.1353269E-005  0.1021731E+04  0.7818608E-02  0.9878835E-01
          4   -1    0    0  502    0 -0.00000000000E+00  0.00000000000E+00  0.85092978214E+03  0.85092978214E+03  0.00000000000E+00 0.  1.
         21   -1    0    0  501  502  0.00000000000E+00 -0.00000000000E+00 -0.39819466923E+03  0.39819466923E+03  0.00000000000E+00 0.  1.
    9000010    2    1    2  501    0 -0.13231512233E+03 -0.36807478318E+01  0.34483987182E+03  0.10783549174E+04  0.10131208967E+04 0.  0.
        -13    1    3    3    0    0 -0.36433322547E+03 -0.23327196614E+03 -0.17324892483E+03  0.46601471059E+03  0.10566000000E+00 0.  1.
          4    1    3    3  501    0  0.23201810314E+03  0.22959121831E+03  0.51808879665E+03  0.61234020685E+03  0.00000000000E+00 0.  1.
         13    1    1    2    0    0  0.13231512233E+03  0.36807478318E+01  0.10789524109E+03  0.17076953392E+03  0.10566000000E+00 0. -1.
<mgrwt>
<rscale>  1 0.61298086E+03</rscale>
<asrwt>0</asrwt>
<pdfrwt beam="2">  1       21 0.61260718E-01 0.10217313E+04</pdfrwt>
<pdfrwt beam="1">  1        4 0.13091227E+00 0.10217313E+04</pdfrwt>
<totfact> 0.41009190E+01</totfact>
</mgrwt>
</event>
<event>
 6    1  0.1353269E-005  0.1033507E+04  0.7818608E-02  0.9577469E-01
          4   -1    0    0  502    0 -0.00000000000E+00  0.00000000000E+00  0.15371035291E+04  0.15371035291E+04  0.00000000000E+00 0.  1.
         21   -1    0    0  501  502  0.00000000000E+00 -0.00000000000E+00 -0.36323364592E+03  0.36323364592E+03  0.00000000000E+00 0.  1.
    9000010    2    1    2  501    0  0.33777775716E+02  0.34773416988E+03  0.51532875957E+03  0.11548598691E+04  0.97266520228E+03 0.  0.
        -13    1    3    3    0    0  0.40763986528E+03  0.48363849062E+03  0.36017735108E+03  0.72787649005E+03  0.10566000000E+00 0.  1.
          4    1    3    3  501    0 -0.37386208956E+03 -0.13590432075E+03  0.15515140848E+03  0.42698337902E+03  0.00000000000E+00 0.  1.
         13    1    1    2    0    0 -0.33777775716E+02 -0.34773416988E+03  0.65854112362E+03  0.74547730595E+03  0.10566000000E+00 0. -1.
<mgrwt>
<rscale>  1 0.78805562E+03</rscale>
<asrwt>0</asrwt>
<pdfrwt beam="2">  1       21 0.55882100E-01 0.10335074E+04</pdfrwt>
<pdfrwt beam="1">  1        4 0.23647746E+00 0.10335074E+04</pdfrwt>
<totfact> 0.90202598E+00</totfact>
</mgrwt>
</event>
<event>
 6    1  0.1353269E-005  0.1025095E+04  0.7818608E-02  0.9502376E-01
          4   -1    0    0  502    0 -0.00000000000E+00  0.00000000000E+00  0.99800718801E+03  0.99800718801E+03  0.00000000000E+00 0.  1.
         21   -1    0    0  501  502  0.00000000000E+00 -0.00000000000E+00 -0.55779955624E+03  0.55779955624E+03  0.00000000000E+00 0.  1.
    9000010    2    1    2  501    0  0.28934747287E+03  0.36349341199E+03  0.26059439292E+03  0.10576999812E+04  0.91376714325E+03 0.  0.
        -13    1    3    3    0    0  0.52312127655E+03 -0.74714289292E+02  0.13408169786E+03  0.54517520842E+03  0.10566000000E+00 0.  1.
          4    1    3    3  501    0 -0.23377380368E+03  0.43820770128E+03  0.12651269506E+03  0.51252477283E+03  0.00000000000E+00 0.  1.
         13    1    1    2    0    0 -0.28934747287E+03 -0.36349341199E+03  0.17961323886E+03  0.49810676301E+03  0.10566000000E+00 0. -1.
<mgrwt>
<rscale>  1 0.84108901E+03</rscale>
<asrwt>0</asrwt>
<pdfrwt beam="2">  1       21 0.85815317E-01 0.10250950E+04</pdfrwt>
<pdfrwt beam="1">  1        4 0.15353957E+00 0.10250950E+04</pdfrwt>
<totfact> 0.12355413E+01</totfact>
</mgrwt>
</event>
<event>
 6    1  0.1353269E-005  0.1068875E+04  0.7818608E-02  0.9527480E-01
         21   -1    0    0  501  502  0.00000000000E+00  0.00000000000E+00  0.98614833714E+03  0.98614833714E+03  0.00000000000E+00 0. -1.
          4   -1    0    0  502    0 -0.00000000000E+00 -0.00000000000E+00 -0.57172752283E+03  0.57172752283E+03  0.00000000000E+00 0.  1.
    9000010    2    1    2  501    0 -0.14054186602E+03 -0.34816158890E+03  0.48844518256E+03  0.11751904456E+04  0.10007623989E+04 0.  0.
        -13    1    3    3    0    0 -0.20063841002E+03 -0.64604185574E+03  0.54174693113E+03  0.86666925612E+03  0.10566000000E+00 0.  1.
          4    1    3    3  501    0  0.60096544003E+02  0.29788026684E+03 -0.53301748567E+02  0.30852118951E+03  0.00000000000E+00 0.  1.
         13    1    1    2    0    0  0.14054186602E+03  0.34816158890E+03 -0.74024368249E+02  0.38268541434E+03  0.10566000000E+00 0. -1.
<mgrwt>
<rscale>  1 0.82287804E+03</rscale>
<asrwt>0</asrwt>
<pdfrwt beam="1">  1       21 0.15171513E+00 0.10688751E+04</pdfrwt>
<pdfrwt beam="2">  1        4 0.87958080E-01 0.10688751E+04</pdfrwt>
<totfact> 0.11464139E+01</totfact>
</mgrwt>
</event>
<event>
 6    1  0.1353269E-005  0.9973131E+03  0.7818608E-02  0.1007037E+00
         21   -1    0    0  501  502  0.00000000000E+00  0.00000000000E+00  0.14520224633E+04  0.14520224633E+04  0.00000000000E+00 0.  1.
          4   -1    0    0  502    0 -0.00000000000E+00 -0.00000000000E+00 -0.20833831717E+03  0.20833831717E+03  0.00000000000E+00 0.  1.
    9000010    2    1    2  501    0  0.42251011055E+02  0.65062575097E+02  0.12266791359E+04  0.15809412102E+04  0.99429126561E+03 0.  0.
        -13    1    3    3    0    0  0.29443569481E+03 -0.25815263096E+03  0.10745367417E+04  0.11436627037E+04  0.10566000000E+00 0.  1.
          4    1    3    3  501    0 -0.25218468375E+03  0.32321520606E+03  0.15214239422E+03  0.43727850652E+03  0.00000000000E+00 0.  1.
         13    1    1    2    0    0 -0.42251011055E+02 -0.65062575097E+02  0.17005010214E+02  0.79419570320E+02  0.10566000000E+00 0. -1.
<mgrwt>
<rscale>  1 0.52669337E+03</rscale>
<asrwt>0</asrwt>
<pdfrwt beam="1">  1       21 0.22338807E+00 0.99731309E+03</pdfrwt>
<pdfrwt beam="2">  1        4 0.32052050E-01 0.99731309E+03</pdfrwt>
<totfact> 0.30778226E+01</totfact>
</mgrwt>
</event>
<event>
 6    1  0.1353269E-005  0.1008242E+04  0.7818608E-02  0.9930531E-01
         21   -1    0    0  501  502  0.00000000000E+00  0.00000000000E+00  0.48731119047E+03  0.48731119047E+03  0.00000000000E+00 0.  1.
          4   -1    0    0  502    0 -0.00000000000E+00 -0.00000000000E+00 -0.82444061059E+03  0.82444061059E+03  0.00000000000E+00 0.  1.
    9000010    2    1    2  501    0 -0.11561743196E+03 -0.15594556380E+02 -0.58793722021E+02  0.10099549277E+04  0.10014697567E+04 0.  0.
        -13    1    3    3    0    0  0.11141215002E+03 -0.47023721723E+03 -0.12048486488E+03  0.49804851316E+03  0.10566000000E+00 0.  1.
          4    1    3    3  501    0 -0.22702958198E+03  0.45464266085E+03  0.61691142859E+02  0.51190641455E+03  0.00000000000E+00 0.  1.
         13    1    1    2    0    0  0.11561743196E+03  0.15594556380E+02 -0.27833569810E+03  0.30179687335E+03  0.10566000000E+00 0. -1.
<mgrwt>
<rscale>  1 0.58804189E+03</rscale>
<asrwt>0</asrwt>
<pdfrwt beam="1">  1       21 0.74970953E-01 0.10082422E+04</pdfrwt>
<pdfrwt beam="2">  1        4 0.12683702E+00 0.10082422E+04</pdfrwt>
<totfact> 0.28099075E+01</totfact>
</mgrwt>
</event>
<event>
 6    1  0.1353269E-005  0.1062813E+04  0.7818608E-02  0.9528632E-01
          4   -1    0    0  502    0 -0.00000000000E+00  0.00000000000E+00  0.17654411752E+04  0.17654411752E+04  0.00000000000E+00 0.  1.
         21   -1    0    0  501  502  0.00000000000E+00 -0.00000000000E+00 -0.33508126196E+03  0.33508126196E+03  0.00000000000E+00 0.  1.
    9000010    2    1    2  501    0  0.66338561356E+02  0.37456313271E+03  0.13386052234E+04  0.17092204063E+04  0.99240722894E+03 0.  0.
        -13    1    3    3    0    0  0.26276090057E+03  0.56670752398E+03  0.42586393744E+03  0.75601641053E+03  0.10566000000E+00 0.  1.
          4    1    3    3  501    0 -0.19642233921E+03 -0.19214439128E+03  0.91274128596E+03  0.95320399576E+03  0.00000000000E+00 0.  1.
         13    1    1    2    0    0 -0.66338561356E+02 -0.37456313271E+03  0.91754689852E+02  0.39130203089E+03  0.10566000000E+00 0. -1.
<mgrwt>
<rscale>  1 0.82205429E+03</rscale>
<asrwt>0</asrwt>
<pdfrwt beam="2">  1       21 0.51550964E-01 0.10628125E+04</pdfrwt>
<pdfrwt beam="1">  1        4 0.27160633E+00 0.10628125E+04</pdfrwt>
<totfact> 0.64975180E+00</totfact>
</mgrwt>
</event>
<event>
 6    1  0.1353269E-005  0.1072205E+04  0.7818608E-02  0.9537807E-01
         21   -1    0    0  501  502  0.00000000000E+00  0.00000000000E+00  0.52573547159E+03  0.52573547159E+03  0.00000000000E+00 0.  1.
          4   -1    0    0  502    0 -0.00000000000E+00 -0.00000000000E+00 -0.97722709063E+03  0.97722709063E+03  0.00000000000E+00 0.  1.
    9000010    2    1    2  501    0 -0.26933399769E+03 -0.23714955571E+03 -0.37620842576E+03  0.11362906592E+04  0.10103677393E+04 0.  0.
        -13    1    3    3    0    0  0.25295180271E+02  0.55333831143E+02 -0.64099990092E+03  0.64388086100E+03  0.10566000000E+00 0.  1.
          4    1    3    3  501    0 -0.29462917796E+03 -0.29248338685E+03  0.26479147515E+03  0.49240979824E+03  0.00000000000E+00 0.  1.
         13    1    1    2    0    0  0.26933399769E+03  0.23714955571E+03 -0.75283193281E+02  0.36667190298E+03  0.10566000000E+00 0. -1.
<mgrwt>
<rscale>  1 0.81552974E+03</rscale>
<asrwt>0</asrwt>
<pdfrwt beam="1">  1       21 0.80882381E-01 0.10722051E+04</pdfrwt>
<pdfrwt beam="2">  1        4 0.15034263E+00 0.10722051E+04</pdfrwt>
<totfact> 0.14979912E+01</totfact>
</mgrwt>
</event>
<event>
 6    1  0.1353269E-005  0.1048217E+04  0.7818608E-02  0.9590156E-01
          4   -1    0    0  502    0 -0.00000000000E+00  0.00000000000E+00  0.17833570010E+04  0.17833570010E+04  0.00000000000E+00 0.  1.
         21   -1    0    0  501  502  0.00000000000E+00 -0.00000000000E+00 -0.42633949807E+03  0.42633949807E+03  0.00000000000E+00 0.  1.
    9000010    2    1    2  501    0 -0.21224779920E+03 -0.24025516374E+03  0.27855796119E+03  0.10845979850E+04  0.99799127221E+03 0.  0.
        -13    1    3    3    0    0 -0.48915641578E+03  0.19967206445E+03  0.13483335691E+03  0.54527330553E+03  0.10566000000E+00 0.  1.
          4    1    3    3  501    0  0.27690861658E+03 -0.43992722819E+03  0.14372460429E+03  0.53932467950E+03  0.00000000000E+00 0.  1.
         13    1    1    2    0    0  0.21224779920E+03  0.24025516374E+03  0.10784595417E+04  0.11250985140E+04  0.10566000000E+00 0. -1.
<mgrwt>
<rscale>  1 0.77951143E+03</rscale>
<asrwt>0</asrwt>
<pdfrwt beam="2">  1       21 0.65590693E-01 0.10482167E+04</pdfrwt>
<pdfrwt beam="1">  1        4 0.27436261E+00 0.10482167E+04</pdfrwt>
<totfact> 0.36679824E+00</totfact>
</mgrwt>
</event>
<event>
 6    1  0.1353269E-005  0.1047308E+04  0.7818608E-02  0.9579540E-01
         21   -1    0    0  501  502  0.00000000000E+00  0.00000000000E+00  0.45614205624E+03  0.45614205624E+03  0.00000000000E+00 0.  1.
          4   -1    0    0  502    0 -0.00000000000E+00 -0.00000000000E+00 -0.17699467062E+04  0.17699467062E+04  0.00000000000E+00 0.  1.
    9000010    2    1    2  501    0  0.32229628547E+03 -0.85158426887E+02 -0.20359775001E+03  0.10669139589E+04  0.99283759932E+03 0.  0.
        -13    1    3    3    0    0 -0.16299301991E+03  0.18187018987E+03 -0.40882235381E+03  0.47621341711E+03  0.10566000000E+00 0.  1.
          4    1    3    3  501    0  0.48528930538E+03 -0.26702861676E+03  0.20522460379E+03  0.59070054180E+03  0.00000000000E+00 0.  1.
         13    1    1    2    0    0 -0.32229628547E+03  0.85158426887E+02 -0.11102068999E+04  0.11591748035E+04  0.10566000000E+00 0. -1.
<mgrwt>
<rscale>  1 0.78665280E+03</rscale>
<asrwt>0</asrwt>
<pdfrwt beam="1">  1       21 0.70175699E-01 0.10473077E+04</pdfrwt>
<pdfrwt beam="2">  1        4 0.27229950E+00 0.10473077E+04</pdfrwt>
<totfact> 0.32379397E+00</totfact>
</mgrwt>
</event>
<event>
 6    1  0.1353269E-005  0.1057967E+04  0.7818608E-02  0.9572268E-01
         21   -1    0    0  501  502  0.00000000000E+00  0.00000000000E+00  0.68597986829E+03  0.68597986829E+03  0.00000000000E+00 0.  1.
          4   -1    0    0  502    0 -0.00000000000E+00 -0.00000000000E+00 -0.11324070644E+04  0.11324070644E+04  0.00000000000E+00 0.  1.
    9000010    2    1    2  501    0  0.28168741475E+03 -0.17492093343E+03  0.21400120915E+03  0.10793938189E+04  0.10046638075E+04 0.  0.
        -13    1    3    3    0    0  0.40416421911E+03 -0.51962622556E+03  0.54883056746E+01  0.65832382834E+03  0.10566000000E+00 0.  1.
          4    1    3    3  501    0 -0.12247680435E+03  0.34470529213E+03  0.20851290348E+03  0.42106999055E+03  0.00000000000E+00 0.  1.
         13    1    1    2    0    0 -0.28168741475E+03  0.17492093343E+03 -0.66042840527E+03  0.73899311380E+03  0.10566000000E+00 0. -1.
<mgrwt>
<rscale>  1 0.79159154E+03</rscale>
<asrwt>0</asrwt>
<pdfrwt beam="1">  1       21 0.10553536E+00 0.10579672E+04</pdfrwt>
<pdfrwt beam="2">  1        4 0.17421647E+00 0.10579672E+04</pdfrwt>
<totfact> 0.52185531E+00</totfact>
</mgrwt>
</event>
<event>
 6    1  0.1353269E-005  0.1054965E+04  0.7818608E-02  0.9530530E-01
          4   -1    0    0  502    0 -0.00000000000E+00  0.00000000000E+00  0.10751387268E+04  0.10751387268E+04  0.00000000000E+00 0.  1.
         21   -1    0    0  501  502  0.00000000000E+00 -0.00000000000E+00 -0.52869850577E+03  0.52869850577E+03  0.00000000000E+00 0. -1.
    9000010    2    1    2  501    0 -0.31587948686E+03 -0.22251803915E+03  0.60016617868E+03  0.12137338903E+04  0.98166001575E+03 0.  0.
        -13    1    3    3    0    0  0.29065970764E+03 -0.64148562701E+02 -0.59689200394E+02  0.30358016330E+03  0.10566000000E+00 0.  1.
          4    1    3    3  501    0 -0.60653919449E+03 -0.15836947645E+03  0.65985537908E+03  0.91015372703E+03  0.00000000000E+00 0.  1.
         13    1    1    2    0    0  0.31587948686E+03  0.22251803915E+03 -0.53725957633E+02  0.39010334227E+03  0.10566000000E+00 0. -1.
<mgrwt>
<rscale>  1 0.82069889E+03</rscale>
<asrwt>0</asrwt>
<pdfrwt beam="2">  1       21 0.81338232E-01 0.10549647E+04</pdfrwt>
<pdfrwt beam="1">  1        4 0.16540596E+00 0.10549647E+04</pdfrwt>
<totfact> 0.11397943E+01</totfact>
</mgrwt>
</event>
<event>
 6    1  0.1353269E-005  0.1202194E+04  0.7818608E-02  0.9272015E-01
         21   -1    0    0  501  502  0.00000000000E+00  0.00000000000E+00  0.54334503027E+03  0.54334503027E+03  0.00000000000E+00 0. -1.
          4   -1    0    0  502    0 -0.00000000000E+00 -0.00000000000E+00 -0.17712087593E+04  0.17712087593E+04  0.00000000000E+00 0.  1.
    9000010    2    1    2  501    0  0.19253873113E+03 -0.62910731538E+03 -0.42171711312E+03  0.12740156813E+04  0.10061925539E+04 0.  0.
        -13    1    3    3    0    0  0.33799640823E+03  0.90763316509E+02  0.11053024711E+03  0.36701021551E+03  0.10566000000E+00 0.  1.
          4    1    3    3  501    0 -0.14545767710E+03 -0.71987063189E+03 -0.53224736023E+03  0.90700546579E+03  0.00000000000E+00 0.  1.
         13    1    1    2    0    0 -0.19253873113E+03  0.62910731538E+03 -0.80614661586E+03  0.10405381082E+04  0.10566000000E+00 0. -1.
<mgrwt>
<rscale>  1 0.10340053E+04</rscale>
<asrwt>0</asrwt>
<pdfrwt beam="1">  1       21 0.83591544E-01 0.12021941E+04</pdfrwt>
<pdfrwt beam="2">  1        4 0.27249365E+00 0.12021941E+04</pdfrwt>
<totfact> 0.21010149E+00</totfact>
</mgrwt>
</event>
<event>
 6    1  0.1353269E-005  0.1012418E+04  0.7818608E-02  0.1005207E+00
         21   -1    0    0  501  502  0.00000000000E+00  0.00000000000E+00  0.65170658520E+03  0.65170658520E+03  0.00000000000E+00 0.  1.
          4   -1    0    0  502    0 -0.00000000000E+00 -0.00000000000E+00 -0.54820687546E+03  0.54820687546E+03  0.00000000000E+00 0.  1.
    9000010    2    1    2  501    0 -0.47149559003E+02 -0.62769296103E+02  0.24179306601E+03  0.10408910440E+04  0.10093697109E+04 0.  0.
        -13    1    3    3    0    0  0.45433756338E+03  0.72755613989E+02  0.24524407853E+03  0.52140259884E+03  0.10566000000E+00 0.  1.
          4    1    3    3  501    0 -0.50148712238E+03 -0.13552491009E+03 -0.34510125238E+01  0.51948844516E+03  0.00000000000E+00 0.  1.
         13    1    1    2    0    0  0.47149559003E+02  0.62769296103E+02 -0.13829335627E+03  0.15902241666E+03  0.10566000000E+00 0. -1.
<mgrwt>
<rscale>  1 0.53425009E+03</rscale>
<asrwt>0</asrwt>
<pdfrwt beam="1">  1       21 0.10026255E+00 0.10124180E+04</pdfrwt>
<pdfrwt beam="2">  1        4 0.84339520E-01 0.10124180E+04</pdfrwt>
<totfact> 0.37744867E+01</totfact>
</mgrwt>
</event>
<event>
 6    1  0.1353269E-005  0.1002661E+04  0.7818608E-02  0.9833820E-01
         21   -1    0    0  501  502  0.00000000000E+00  0.00000000000E+00  0.89437866200E+03  0.89437866200E+03  0.00000000000E+00 0.  1.
          4   -1    0    0  502    0 -0.00000000000E+00 -0.00000000000E+00 -0.58260518385E+03  0.58260518385E+03  0.00000000000E+00 0.  1.
    9000010    2    1    2  501    0  0.10616873964E+03  0.12249436946E+03  0.58386126087E+03  0.11602687617E+04  0.98947104845E+03 0.  0.
        -13    1    3    3    0    0  0.48740414099E+03 -0.15113039321E+03  0.17990130203E+03  0.54108010686E+03  0.10566000000E+00 0.  1.
          4    1    3    3  501    0 -0.38123540135E+03  0.27362476267E+03  0.40395995884E+03  0.61918865489E+03  0.00000000000E+00 0.  1.
         13    1    1    2    0    0 -0.10616873964E+03 -0.12249436946E+03 -0.27208778272E+03  0.31671508410E+03  0.10566000000E+00 0. -1.
<mgrwt>
<rscale>  1 0.63578752E+03</rscale>
<asrwt>0</asrwt>
<pdfrwt beam="1">  1       21 0.13759672E+00 0.10026613E+04</pdfrwt>
<pdfrwt beam="2">  1        4 0.89631567E-01 0.10026613E+04</pdfrwt>
<totfact> 0.14463436E+01</totfact>
</mgrwt>
</event>
<event>
 6    1  0.1353269E-005  0.1003089E+04  0.7818608E-02  0.9910473E-01
          4   -1    0    0  502    0 -0.00000000000E+00  0.00000000000E+00  0.58902425671E+03  0.58902425671E+03  0.00000000000E+00 0.  1.
         21   -1    0    0  501  502  0.00000000000E+00 -0.00000000000E+00 -0.61130303939E+03  0.61130303939E+03  0.00000000000E+00 0.  1.
    9000010    2    1    2  501    0  0.12146296061E+03  0.34739890608E+02 -0.15738093500E+03  0.10153605058E+04  0.99510204863E+03 0.  0.
        -13    1    3    3    0    0 -0.32673366953E+03  0.21414849451E+03  0.17619538806E+03  0.42855489082E+03  0.10566000000E+00 0.  1.
          4    1    3    3  501    0  0.44819663015E+03 -0.17940860390E+03 -0.33357632307E+03  0.58680561495E+03  0.00000000000E+00 0.  1.
         13    1    1    2    0    0 -0.12146296061E+03 -0.34739890608E+02  0.13510215232E+03  0.18496679033E+03  0.10566000000E+00 0. -1.
<mgrwt>
<rscale>  1 0.59756373E+03</rscale>
<asrwt>0</asrwt>
<pdfrwt beam="2">  1       21 0.94046621E-01 0.10030893E+04</pdfrwt>
<pdfrwt beam="1">  1        4 0.90619117E-01 0.10030893E+04</pdfrwt>
<totfact> 0.37375424E+01</totfact>
</mgrwt>
</event>
<event>
 6    1  0.1353269E-005  0.1015295E+04  0.7818608E-02  0.9808446E-01
         21   -1    0    0  501  502  0.00000000000E+00  0.00000000000E+00  0.62218900661E+03  0.62218900661E+03  0.00000000000E+00 0.  1.
          4   -1    0    0  502    0 -0.00000000000E+00 -0.00000000000E+00 -0.90870198994E+03  0.90870198994E+03  0.00000000000E+00 0.  1.
    9000010    2    1    2  501    0  0.11957207169E+03 -0.12031983027E+03  0.18301761985E+03  0.10316582448E+04  0.10010239473E+04 0.  0.
        -13    1    3    3    0    0 -0.32910826121E+03 -0.95344721699E+02 -0.23694801612E+03  0.41659001076E+03  0.10566000000E+00 0.  1.
          4    1    3    3  501    0  0.44868033290E+03 -0.24975108576E+02  0.41996563598E+03  0.61506823408E+03  0.00000000000E+00 0.  1.
         13    1    1    2    0    0 -0.11957207169E+03  0.12031983027E+03 -0.46953060318E+03  0.49923275170E+03  0.10566000000E+00 0. -1.
<mgrwt>
<rscale>  1 0.64911221E+03</rscale>
<asrwt>0</asrwt>
<pdfrwt beam="1">  1       21 0.95721385E-01 0.10152947E+04</pdfrwt>
<pdfrwt beam="2">  1        4 0.13980031E+00 0.10152947E+04</pdfrwt>
<totfact> 0.12193556E+01</totfact>
</mgrwt>
</event>
<event>
 6    1  0.1353269E-005  0.1001374E+04  0.7818608E-02  0.9904078E-01
         21   -1    0    0  501  502  0.00000000000E+00  0.00000000000E+00  0.41795208963E+03  0.41795208963E+03  0.00000000000E+00 0.  1.
          4   -1    0    0  502    0 -0.00000000000E+00 -0.00000000000E+00 -0.80135044005E+03  0.80135044005E+03  0.00000000000E+00 0.  1.
    9000010    2    1    2  501    0 -0.12773863358E+03 -0.22000865986E+02 -0.24751281706E+03  0.10315098622E+04  0.99294954788E+03 0.  0.
        -13    1    3    3    0    0 -0.41938055658E+03  0.26530754613E+03  0.85767634871E+02  0.50361120285E+03  0.10566000000E+00 0.  1.
          4    1    3    3  501    0  0.29164192300E+03 -0.28730841212E+03 -0.33328045193E+03  0.52789865937E+03  0.00000000000E+00 0.  1.
         13    1    1    2    0    0  0.12773863358E+03  0.22000865986E+02 -0.13588553336E+03  0.18779266747E+03  0.10566000000E+00 0. -1.
<mgrwt>
<rscale>  1 0.60064078E+03</rscale>
<asrwt>0</asrwt>
<pdfrwt beam="1">  1       21 0.64300323E-01 0.10013741E+04</pdfrwt>
<pdfrwt beam="2">  1        4 0.12328468E+00 0.10013741E+04</pdfrwt>
<totfact> 0.42950796E+01</totfact>
</mgrwt>
</event>
<event>
 6    1  0.1353269E-005  0.8860983E+03  0.7818608E-02  0.9861920E-01
          4   -1    0    0  502    0 -0.00000000000E+00  0.00000000000E+00  0.23271912580E+03  0.23271912580E+03  0.00000000000E+00 0.  1.
         21   -1    0    0  501  502  0.00000000000E+00 -0.00000000000E+00 -0.15946097393E+04  0.15946097393E+04  0.00000000000E+00 0.  1.
    9000010    2    1    2  501    0 -0.21178315393E+03 -0.33055787604E+02 -0.13471875863E+04  0.16124778015E+04  0.85978222724E+03 0.  0.
        -13    1    3    3    0    0  0.28171258852E+03 -0.21340084155E+03 -0.44282773293E+03  0.56656713100E+03  0.10566000000E+00 0.  1.
          4    1    3    3  501    0 -0.49349574245E+03  0.18034505394E+03 -0.90435985333E+03  0.10459106705E+04  0.00000000000E+00 0.  1.
         13    1    1    2    0    0  0.21178315393E+03  0.33055787604E+02 -0.14703027266E+02  0.21485106366E+03  0.10566000000E+00 0. -1.
<mgrwt>
<rscale>  1 0.62142824E+03</rscale>
<asrwt>0</asrwt>
<pdfrwt beam="2">  1       21 0.24532458E+00 0.88609834E+03</pdfrwt>
<pdfrwt beam="1">  1        4 0.35802942E-01 0.88609834E+03</pdfrwt>
<totfact> 0.18110907E+01</totfact>
</mgrwt>
</event>
<event>
 6    1  0.1353269E-005  0.1121388E+04  0.7818608E-02  0.9417494E-01
         21   -1    0    0  501  502  0.00000000000E+00  0.00000000000E+00  0.14073690258E+04  0.14073690258E+04  0.00000000000E+00 0.  1.
          4   -1    0    0  502    0 -0.00000000000E+00 -0.00000000000E+00 -0.48068154350E+03  0.48068154350E+03  0.00000000000E+00 0.  1.
    9000010    2    1    2  501    0  0.43044928469E+03 -0.20979082519E+03  0.43808445117E+03  0.12039221382E+04  0.10140077670E+04 0.  0.
        -13    1    3    3    0    0  0.11649444982E+03 -0.43912779856E+03 -0.16755165414E+03  0.48422902462E+03  0.10566000000E+00 0.  1.
          4    1    3    3  501    0  0.31395483487E+03  0.22933697338E+03  0.60563610531E+03  0.71969311359E+03  0.00000000000E+00 0.  1.
         13    1    1    2    0    0 -0.43044928469E+03  0.20979082519E+03  0.48860303111E+03  0.68412843107E+03  0.10566000000E+00 0. -1.
<mgrwt>
<rscale>  1 0.90649860E+03</rscale>
<asrwt>0</asrwt>
<pdfrwt beam="1">  1       21 0.21651831E+00 0.11213878E+04</pdfrwt>
<pdfrwt beam="2">  1        4 0.73951007E-01 0.11213878E+04</pdfrwt>
<totfact> 0.57661161E+00</totfact>
</mgrwt>
</event>
<event>
 6    1  0.1353269E-005  0.1063448E+04  0.7818608E-02  0.9778033E-01
          4   -1    0    0  502    0 -0.00000000000E+00  0.00000000000E+00  0.38972830422E+03  0.38972830422E+03  0.00000000000E+00 0.  1.
         21   -1    0    0  501  502  0.00000000000E+00 -0.00000000000E+00 -0.11936959832E+04  0.11936959832E+04  0.00000000000E+00 0.  1.
    9000010    2    1    2  501    0 -0.16314062233E+03  0.10160576412E+01 -0.90081827236E+03  0.13936983176E+04  0.10508594319E+04 0.  0.
        -13    1    3    3    0    0 -0.46140575008E+03  0.34743919748E+03 -0.34021406988E+03  0.67033938171E+03  0.10566000000E+00 0.  1.
          4    1    3    3  501    0  0.29826512776E+03 -0.34642313984E+03 -0.56060420248E+03  0.72335893586E+03  0.00000000000E+00 0.  1.
         13    1    1    2    0    0  0.16314062233E+03 -0.10160576412E+01  0.96850593387E+02  0.18972596984E+03  0.10566000000E+00 0. -1.
<mgrwt>
<rscale>  1 0.66554867E+03</rscale>
<asrwt>0</asrwt>
<pdfrwt beam="2">  1       21 0.18364553E+00 0.10634479E+04</pdfrwt>
<pdfrwt beam="1">  1        4 0.59958202E-01 0.10634479E+04</pdfrwt>
<totfact> 0.15615105E+01</totfact>
</mgrwt>
</event>
<event>
 6    1  0.1353269E-005  0.1042959E+04  0.7818608E-02  0.9716971E-01
         21   -1    0    0  501  502  0.00000000000E+00  0.00000000000E+00  0.11403449072E+04  0.11403449072E+04  0.00000000000E+00 0. -1.
          4   -1    0    0  502    0 -0.00000000000E+00 -0.00000000000E+00 -0.64937255551E+03  0.64937255551E+03  0.00000000000E+00 0.  1.
    9000010    2    1    2  501    0 -0.19099649535E+03  0.91588188357E+02  0.86823684971E+03  0.13570552734E+04  0.10212226644E+04 0.  0.
        -13    1    3    3    0    0 -0.60527169442E+03  0.15010471613E+03  0.54807001838E+03  0.83022045632E+03  0.10566000000E+00 0.  1.
          4    1    3    3  501    0  0.41427519907E+03 -0.58516527777E+02  0.32016683133E+03  0.52683481706E+03  0.00000000000E+00 0.  1.
         13    1    1    2    0    0  0.19099649535E+03 -0.91588188357E+02 -0.37726449800E+03  0.43266218935E+03  0.10566000000E+00 0. -1.
<mgrwt>
<rscale>  1 0.70015250E+03</rscale>
<asrwt>0</asrwt>
<pdfrwt beam="1">  1       21 0.17543768E+00 0.10429591E+04</pdfrwt>
<pdfrwt beam="2">  1        4 0.99903470E-01 0.10429591E+04</pdfrwt>
<totfact> 0.55868589E+00</totfact>
</mgrwt>
</event>
<event>
 6    1  0.1353269E-005  0.1106992E+04  0.7818608E-02  0.9445441E-01
         21   -1    0    0  501  502  0.00000000000E+00  0.00000000000E+00  0.13129919654E+04  0.13129919654E+04  0.00000000000E+00 0.  1.
          4   -1    0    0  502    0 -0.00000000000E+00 -0.00000000000E+00 -0.51682447478E+03  0.51682447478E+03  0.00000000000E+00 0.  1.
    9000010    2    1    2  501    0 -0.36598360606E+03 -0.26312087164E+03  0.82125812351E+03  0.13783675017E+04  0.10110665020E+04 0.  0.
        -13    1    3    3    0    0 -0.61840651740E+03 -0.25327582627E+03  0.89337652068E+03  0.11156598423E+04  0.10566000000E+00 0.  1.
          4    1    3    3  501    0  0.25242291134E+03 -0.98450453711E+01 -0.72118397172E+02  0.26270765939E+03  0.00000000000E+00 0.  1.
         13    1    1    2    0    0  0.36598360606E+03  0.26312087164E+03 -0.25090632909E+02  0.45144893844E+03  0.10566000000E+00 0. -1.
<mgrwt>
<rscale>  1 0.88428585E+03</rscale>
<asrwt>0</asrwt>
<pdfrwt beam="1">  1       21 0.20199876E+00 0.11069924E+04</pdfrwt>
<pdfrwt beam="2">  1        4 0.79511458E-01 0.11069924E+04</pdfrwt>
<totfact> 0.61390726E+00</totfact>
</mgrwt>
</event>
<event>
 6    1  0.1353269E-005  0.1012878E+04  0.7818608E-02  0.9926249E-01
         21   -1    0    0  501  502  0.00000000000E+00  0.00000000000E+00  0.43615248270E+03  0.43615248270E+03  0.00000000000E+00 0.  1.
          4   -1    0    0  502    0 -0.00000000000E+00 -0.00000000000E+00 -0.10314312524E+04  0.10314312524E+04  0.00000000000E+00 0.  1.
    9000010    2    1    2  501    0 -0.56643856140E+02  0.10198138515E+03 -0.17056277006E+03  0.10271380280E+04  0.10061372375E+04 0.  0.
        -13    1    3    3    0    0 -0.34546567550E+03  0.23763689808E+03 -0.44124633600E+03  0.60870039302E+03  0.10566000000E+00 0.  1.
          4    1    3    3  501    0  0.28882181936E+03 -0.13565551292E+03  0.27068356594E+03  0.41843763501E+03  0.00000000000E+00 0.  1.
         13    1    1    2    0    0  0.56643856140E+02 -0.10198138515E+03 -0.42471599965E+03  0.44044570708E+03  0.10566000000E+00 0. -1.
<mgrwt>
<rscale>  1 0.59005832E+03</rscale>
<asrwt>0</asrwt>
<pdfrwt beam="1">  1       21 0.67100382E-01 0.10128775E+04</pdfrwt>
<pdfrwt beam="2">  1        4 0.15868173E+00 0.10128775E+04</pdfrwt>
<totfact> 0.20056683E+01</totfact>
</mgrwt>
</event>
<event>
 6    1  0.1353269E-005  0.9903057E+03  0.7818608E-02  0.9992236E-01
          4   -1    0    0  502    0 -0.00000000000E+00  0.00000000000E+00  0.47213148108E+03  0.47213148108E+03  0.00000000000E+00 0.  1.
         21   -1    0    0  501  502  0.00000000000E+00 -0.00000000000E+00 -0.66389674418E+03  0.66389674418E+03  0.00000000000E+00 0.  1.
    9000010    2    1    2  501    0  0.46128315821E+02  0.90079343802E+02 -0.24712312792E+03  0.10206739273E+04  0.98512096505E+03 0.  0.
        -13    1    3    3    0    0 -0.49174537927E+02 -0.99109526405E+02 -0.59944563871E+03  0.60957027351E+03  0.10566000000E+00 0.  1.
          4    1    3    3  501    0  0.95302853748E+02  0.18918887021E+03  0.35232251079E+03  0.41110365378E+03  0.00000000000E+00 0.  1.
         13    1    1    2    0    0 -0.46128315821E+02 -0.90079343802E+02  0.55357864823E+02  0.11535429798E+03  0.10566000000E+00 0. -1.
<mgrwt>
<rscale>  1 0.55991964E+03</rscale>
<asrwt>0</asrwt>
<pdfrwt beam="2">  1       21 0.10213796E+00 0.99030572E+03</pdfrwt>
<pdfrwt beam="1">  1        4 0.72635613E-01 0.99030572E+03</pdfrwt>
<totfact> 0.50823358E+01</totfact>
</mgrwt>
</event>
<event>
 6    1  0.1353269E-005  0.1191097E+04  0.7818608E-02  0.9271030E-01
         21   -1    0    0  501  502  0.00000000000E+00  0.00000000000E+00  0.15878423925E+04  0.15878423925E+04  0.00000000000E+00 0.  1.
          4   -1    0    0  502    0 -0.00000000000E+00 -0.00000000000E+00 -0.81708715180E+03  0.81708715180E+03  0.00000000000E+00 0.  1.
    9000010    2    1    2  501    0  0.59066443384E+03 -0.33474870040E+03  0.11256502090E+04  0.16388410276E+04  0.97865742464E+03 0.  0.
        -13    1    3    3    0    0 -0.78259271920E+02 -0.49378253940E+03  0.53714694731E+03  0.73380689832E+03  0.10566000000E+00 0.  1.
          4    1    3    3  501    0  0.66892370576E+03  0.15903383900E+03  0.58850326170E+03  0.90503412925E+03  0.00000000000E+00 0.  1.
         13    1    1    2    0    0 -0.59066443384E+03  0.33474870040E+03 -0.35489496828E+03  0.76608851675E+03  0.10566000000E+00 0. -1.
<mgrwt>
<rscale>  1 0.10349419E+04</rscale>
<asrwt>0</asrwt>
<pdfrwt beam="1">  1       21 0.24428344E+00 0.11910968E+04</pdfrwt>
<pdfrwt beam="2">  1        4 0.12570572E+00 0.11910968E+04</pdfrwt>
<totfact> 0.10514699E+00</totfact>
</mgrwt>
</event>
<event>
 6    1  0.1353269E-005  0.9949363E+03  0.7818608E-02  0.9919805E-01
         21   -1    0    0  501  502  0.00000000000E+00  0.00000000000E+00  0.78680366993E+03  0.78680366993E+03  0.00000000000E+00 0.  1.
          4   -1    0    0  502    0 -0.00000000000E+00 -0.00000000000E+00 -0.51328499700E+03  0.51328499700E+03  0.00000000000E+00 0.  1.
    9000010    2    1    2  501    0 -0.29475435801E+02  0.12214155842E+03  0.44300643303E+03  0.10891065028E+04  0.98697057356E+03 0.  0.
        -13    1    3    3    0    0 -0.32472694746E+03  0.44843809197E+03  0.21994935791E+03  0.59575334153E+03  0.10566000000E+00 0.  1.
          4    1    3    3  501    0  0.29525151166E+03 -0.32629653355E+03  0.22305707512E+03  0.49335316124E+03  0.00000000000E+00 0.  1.
         13    1    1    2    0    0  0.29475435801E+02 -0.12214155842E+03 -0.16948776010E+03  0.21098216416E+03  0.10566000000E+00 0. -1.
<mgrwt>
<rscale>  1 0.59310993E+03</rscale>
<asrwt>0</asrwt>
<pdfrwt beam="1">  1       21 0.12104672E+00 0.99493632E+03</pdfrwt>
<pdfrwt beam="2">  1        4 0.78966923E-01 0.99493632E+03</pdfrwt>
<totfact> 0.27281326E+01</totfact>
</mgrwt>
</event>
<event>
 6    1  0.1353269E-005  0.1018695E+04  0.7818608E-02  0.9724757E-01
          4   -1    0    0  502    0 -0.00000000000E+00  0.00000000000E+00  0.17514365303E+04  0.17514365303E+04  0.00000000000E+00 0.  1.
         21   -1    0    0  501  502  0.00000000000E+00 -0.00000000000E+00 -0.22147640955E+03  0.22147640955E+03  0.00000000000E+00 0.  1.
    9000010    2    1    2  501    0 -0.83827654946E+02  0.20501062627E+03  0.11815792697E+04  0.15600865101E+04  0.99432585986E+03 0.  0.
        -13    1    3    3    0    0  0.74727437412E+01 -0.26372641425E+03  0.10236508507E+04  0.10571038449E+04  0.10566000000E+00 0.  1.
          4    1    3    3  501    0 -0.91300398687E+02  0.46873704052E+03  0.15792841901E+03  0.50298266520E+03  0.00000000000E+00 0.  1.
         13    1    1    2    0    0  0.83827654946E+02 -0.20501062627E+03  0.34838085103E+03  0.41282642981E+03  0.10566000000E+00 0. -1.
<mgrwt>
<rscale>  1 0.69561713E+03</rscale>
<asrwt>0</asrwt>
<pdfrwt beam="2">  1       21 0.34073295E-01 0.10186954E+04</pdfrwt>
<pdfrwt beam="1">  1        4 0.26945176E+00 0.10186954E+04</pdfrwt>
<totfact> 0.16133318E+01</totfact>
</mgrwt>
</event>
<event>
 6    1  0.1353269E-005  0.1020274E+04  0.7818608E-02  0.9688644E-01
          4   -1    0    0  502    0 -0.00000000000E+00  0.00000000000E+00  0.26536362048E+03  0.26536362048E+03  0.00000000000E+00 0.  1.
         21   -1    0    0  501  502  0.00000000000E+00 -0.00000000000E+00 -0.15432493786E+04  0.15432493786E+04  0.00000000000E+00 0.  1.
    9000010    2    1    2  501    0  0.19009125626E+03  0.16052270754E+03 -0.11143800597E+04  0.15108944240E+04  0.98947300005E+03 0.  0.
        -13    1    3    3    0    0  0.18727898881E+03 -0.21723361400E+02  0.14534247582E+03  0.23805413360E+03  0.10566000000E+00 0.  1.
          4    1    3    3  501    0  0.28122674423E+01  0.18224606894E+03 -0.12597225355E+04  0.12728402904E+04  0.00000000000E+00 0.  1.
         13    1    1    2    0    0 -0.19009125626E+03 -0.16052270754E+03 -0.16350569844E+03  0.29771857504E+03  0.10566000000E+00 0. -1.
<mgrwt>
<rscale>  1 0.71696988E+03</rscale>
<asrwt>0</asrwt>
<pdfrwt beam="2">  1       21 0.23742298E+00 0.10202740E+04</pdfrwt>
<pdfrwt beam="1">  1        4 0.40825172E-01 0.10202740E+04</pdfrwt>
<totfact> 0.15293294E+01</totfact>
</mgrwt>
</event>
<event>
 6    1  0.1353269E-005  0.1000131E+04  0.7818608E-02  0.9887878E-01
          4   -1    0    0  502    0 -0.00000000000E+00  0.00000000000E+00  0.24779039508E+03  0.24779039508E+03  0.00000000000E+00 0.  1.
         21   -1    0    0  501  502  0.00000000000E+00 -0.00000000000E+00 -0.14433474572E+04  0.14433474572E+04  0.00000000000E+00 0.  1.
    9000010    2    1    2  501    0 -0.12683348768E+03 -0.51972627636E+02 -0.11892955348E+04  0.15539259523E+04  0.99069375108E+03 0.  0.
        -13    1    3    3    0    0 -0.42802846309E+02 -0.50512497523E+03 -0.42543788770E+03  0.66180112701E+03  0.10566000000E+00 0.  1.
          4    1    3    3  501    0 -0.84030641370E+02  0.45315234760E+03 -0.76385764710E+03  0.89212482526E+03  0.00000000000E+00 0.  1.
         13    1    1    2    0    0  0.12683348768E+03  0.51972627636E+02 -0.62615273421E+01  0.13721190003E+03  0.10566000000E+00 0. -1.
<mgrwt>
<rscale>  1 0.60852362E+03</rscale>
<asrwt>0</asrwt>
<pdfrwt beam="2">  1       21 0.22205345E+00 0.10001310E+04</pdfrwt>
<pdfrwt beam="1">  1        4 0.38121600E-01 0.10001310E+04</pdfrwt>
<totfact> 0.22197897E+01</totfact>
</mgrwt>
</event>
<event>
 6    1  0.1353269E-005  0.9685403E+03  0.7818608E-02  0.9864571E-01
         21   -1    0    0  501  502  0.00000000000E+00  0.00000000000E+00  0.48153728130E+03  0.48153728130E+03  0.00000000000E+00 0.  1.
          4   -1    0    0  502    0 -0.00000000000E+00 -0.00000000000E+00 -0.67176988042E+03  0.67176988042E+03  0.00000000000E+00 0.  1.
    9000010    2    1    2  501    0  0.12926691411E+03 -0.98855786715E+02 -0.11956847277E+03  0.97589286814E+03  0.95477110804E+03 0.  0.
        -13    1    3    3    0    0  0.84389450571E+02  0.25146143741E+03 -0.43029698342E+03  0.50547990957E+03  0.10566000000E+00 0.  1.
          4    1    3    3  501    0  0.44877463538E+02 -0.35031722413E+03  0.31072851065E+03  0.47041295857E+03  0.00000000000E+00 0.  1.
         13    1    1    2    0    0 -0.12926691411E+03  0.98855786715E+02 -0.70664126346E+02  0.17741429358E+03  0.10566000000E+00 0. -1.
<mgrwt>
<rscale>  1 0.62009461E+03</rscale>
<asrwt>0</asrwt>
<pdfrwt beam="1">  1       21 0.74082659E-01 0.96854028E+03</pdfrwt>
<pdfrwt beam="2">  1        4 0.10334921E+00 0.96854028E+03</pdfrwt>
<totfact> 0.48236610E+01</totfact>
</mgrwt>
</event>
<event>
 6    1  0.1353269E-005  0.1173645E+04  0.7818608E-02  0.9303840E-01
         21   -1    0    0  501  502  0.00000000000E+00  0.00000000000E+00  0.36205595787E+03  0.36205595787E+03  0.00000000000E+00 0. -1.
          4   -1    0    0  502    0 -0.00000000000E+00 -0.00000000000E+00 -0.24430406113E+04  0.24430406113E+04  0.00000000000E+00 0.  1.
    9000010    2    1    2  501    0  0.62530713457E+03  0.70621819959E+02 -0.94640540701E+03  0.15076889495E+04  0.99067972626E+03 0.  0.
        -13    1    3    3    0    0  0.30894662505E+03 -0.42365472147E+02 -0.10963324187E+04  0.11398191233E+04  0.10566000000E+00 0.  1.
          4    1    3    3  501    0  0.31636050952E+03  0.11298729211E+03  0.14992701173E+03  0.36786982617E+03  0.00000000000E+00 0.  1.
         13    1    1    2    0    0 -0.62530713457E+03 -0.70621819959E+02 -0.11345792464E+04  0.12974076197E+04  0.10566000000E+00 0. -1.
<mgrwt>
<rscale>  1 0.10043012E+04</rscale>
<asrwt>0</asrwt>
<pdfrwt beam="1">  1       21 0.55700914E-01 0.11736451E+04</pdfrwt>
<pdfrwt beam="2">  1        4 0.37585242E+00 0.11736451E+04</pdfrwt>
<totfact> 0.11744831E+00</totfact>
</mgrwt>
</event>
<event>
 6    1  0.1353269E-005  0.1091336E+04  0.7818608E-02  0.9478584E-01
         21   -1    0    0  501  502  0.00000000000E+00  0.00000000000E+00  0.17323167013E+04  0.17323167013E+04  0.00000000000E+00 0.  1.
          4   -1    0    0  502    0 -0.00000000000E+00 -0.00000000000E+00 -0.50610352038E+03  0.50610352038E+03  0.00000000000E+00 0.  1.
    9000010    2    1    2  501    0  0.31253780235E+03  0.27835547431E+03  0.14085854525E+04  0.17818883996E+04  0.10078946590E+04 0.  0.
        -13    1    3    3    0    0  0.20150253837E+03 -0.36915228600E+03  0.69159850945E+03  0.80943510714E+03  0.10566000000E+00 0.  1.
          4    1    3    3  501    0  0.11103526399E+03  0.64750776031E+03  0.71698694307E+03  0.97245329247E+03  0.00000000000E+00 0.  1.
         13    1    1    2    0    0 -0.31253780235E+03 -0.27835547431E+03 -0.18237227158E+03  0.45653182209E+03  0.10566000000E+00 0. -1.
<mgrwt>
<rscale>  1 0.85881300E+03</rscale>
<asrwt>0</asrwt>
<pdfrwt beam="1">  1       21 0.26651026E+00 0.10913356E+04</pdfrwt>
<pdfrwt beam="2">  1        4 0.77862081E-01 0.10913356E+04</pdfrwt>
<totfact> 0.24506847E+00</totfact>
</mgrwt>
</event>
<event>
 6    1  0.1353269E-005  0.9988696E+03  0.7818608E-02  0.9759323E-01
          4   -1    0    0  502    0 -0.00000000000E+00  0.00000000000E+00  0.14565550842E+04  0.14565550842E+04  0.00000000000E+00 0.  1.
         21   -1    0    0  501  502  0.00000000000E+00 -0.00000000000E+00 -0.32474794065E+03  0.32474794065E+03  0.00000000000E+00 0.  1.
    9000010    2    1    2  501    0  0.63195159868E+02 -0.19967542360E+03  0.50266906105E+03  0.11182203445E+04  0.97666608971E+03 0.  0.
        -13    1    3    3    0    0 -0.11583771195E+03 -0.32944044930E+03  0.72496002382E+03  0.80468405753E+03  0.10566000000E+00 0.  1.
          4    1    3    3  501    0  0.17903287182E+03  0.12976502569E+03 -0.22229096278E+03  0.31353628692E+03  0.00000000000E+00 0.  1.
         13    1    1    2    0    0 -0.63195159868E+02  0.19967542360E+03  0.62913808254E+03  0.66308268043E+03  0.10566000000E+00 0. -1.
<mgrwt>
<rscale>  1 0.67591959E+03</rscale>
<asrwt>0</asrwt>
<pdfrwt beam="2">  1       21 0.49961222E-01 0.99886964E+03</pdfrwt>
<pdfrwt beam="1">  1        4 0.22408539E+00 0.99886964E+03</pdfrwt>
<totfact> 0.13839582E+01</totfact>
</mgrwt>
</event>
<event>
 6    1  0.1353269E-005  0.1067318E+04  0.7818608E-02  0.9520090E-01
         21   -1    0    0  501  502  0.00000000000E+00  0.00000000000E+00  0.24596869799E+03  0.24596869799E+03  0.00000000000E+00 0. -1.
          4   -1    0    0  502    0 -0.00000000000E+00 -0.00000000000E+00 -0.22326572015E+04  0.22326572015E+04  0.00000000000E+00 0.  1.
    9000010    2    1    2  501    0  0.25588083672E+03 -0.29024147273E+03 -0.16532690006E+04  0.19678581527E+04  0.99471212201E+03 0.  0.
        -13    1    3    3    0    0  0.21004363728E+03  0.85304707250E+02 -0.15624047107E+04  0.15787665165E+04  0.10566000000E+00 0.  1.
          4    1    3    3  501    0  0.45837199442E+02 -0.37554617998E+03 -0.90864289947E+02  0.38909163617E+03  0.00000000000E+00 0.  1.
         13    1    1    2    0    0 -0.25588083672E+03  0.29024147273E+03 -0.33341950291E+03  0.51076774681E+03  0.10566000000E+00 0. -1.
<mgrwt>
<rscale>  1 0.82818733E+03</rscale>
<asrwt>0</asrwt>
<pdfrwt beam="1">  1       21 0.37841339E-01 0.10673178E+04</pdfrwt>
<pdfrwt beam="2">  1        4 0.34348572E+00 0.10673178E+04</pdfrwt>
<totfact> 0.44517492E+00</totfact>
</mgrwt>
</event>
<event>
 6    1  0.1353269E-005  0.1213082E+04  0.7818608E-02  0.9418803E-01
         21   -1    0    0  501  502  0.00000000000E+00  0.00000000000E+00  0.34238650892E+03  0.34238650892E+03  0.00000000000E+00 0.  1.
          4   -1    0    0  502    0 -0.00000000000E+00 -0.00000000000E+00 -0.19378287599E+04  0.19378287599E+04  0.00000000000E+00 0.  1.
    9000010    2    1    2  501    0  0.17202145947E+03 -0.33491241659E+03 -0.98330138558E+03  0.15615539024E+04  0.11531744300E+04 0.  0.
        -13    1    3    3    0    0  0.14353821615E+03 -0.36709775770E+02 -0.11889836525E+04  0.11981790201E+04  0.10566000000E+00 0.  1.
          4    1    3    3  501    0  0.28483243321E+02 -0.29820264082E+03  0.20568226695E+03  0.36337488229E+03  0.00000000000E+00 0.  1.
         13    1    1    2    0    0 -0.17202145947E+03  0.33491241659E+03 -0.61214086541E+03  0.71866136641E+03  0.10566000000E+00 0. -1.
<mgrwt>
<rscale>  1 0.90544291E+03</rscale>
<asrwt>0</asrwt>
<pdfrwt beam="1">  1       21 0.52674848E-01 0.12130824E+04</pdfrwt>
<pdfrwt beam="2">  1        4 0.29812750E+00 0.12130824E+04</pdfrwt>
<totfact> 0.41721487E+00</totfact>
</mgrwt>
</event>
<event>
 6    1  0.1353269E-005  0.1021309E+04  0.7818608E-02  0.9755889E-01
          4   -1    0    0  502    0 -0.00000000000E+00  0.00000000000E+00  0.41525420854E+03  0.41525420854E+03  0.00000000000E+00 0.  1.
         21   -1    0    0  501  502  0.00000000000E+00 -0.00000000000E+00 -0.93283433243E+03  0.93283433243E+03  0.00000000000E+00 0.  1.
    9000010    2    1    2  501    0 -0.19661425122E+03 -0.24825539806E+02 -0.32504639693E+03  0.10717866800E+04  0.10018972283E+04 0.  0.
        -13    1    3    3    0    0  0.95871621986E+02  0.30476068245E+03 -0.50355142216E+03  0.59635097669E+03  0.10566000000E+00 0.  1.
          4    1    3    3  501    0 -0.29248587321E+03 -0.32958622225E+03  0.17850502523E+03  0.47543570329E+03  0.00000000000E+00 0.  1.
         13    1    1    2    0    0  0.19661425122E+03  0.24825539806E+02 -0.19253372696E+03  0.27630186100E+03  0.10566000000E+00 0. -1.
<mgrwt>
<rscale>  1 0.67784479E+03</rscale>
<asrwt>0</asrwt>
<pdfrwt beam="2">  1       21 0.14351297E+00 0.10213087E+04</pdfrwt>
<pdfrwt beam="1">  1        4 0.63885263E-01 0.10213087E+04</pdfrwt>
<totfact> 0.27792578E+01</totfact>
</mgrwt>
</event>
<event>
 6    1  0.1353269E-005  0.1028926E+04  0.7818608E-02  0.9738512E-01
          4   -1    0    0  502    0 -0.00000000000E+00  0.00000000000E+00  0.95610392621E+03  0.95610392621E+03  0.00000000000E+00 0.  1.
         21   -1    0    0  501  502  0.00000000000E+00 -0.00000000000E+00 -0.51960473921E+03  0.51960473921E+03  0.00000000000E+00 0.  1.
    9000010    2    1    2  501    0  0.70473116913E+02  0.19284468813E+03  0.40589456514E+02  0.10297265359E+04  0.10082329596E+04 0.  0.
        -13    1    3    3    0    0  0.22133783462E+03  0.12934185285E+03  0.48913742932E+03  0.55224558654E+03  0.10566000000E+00 0.  1.
          4    1    3    3  501    0 -0.15086471771E+03  0.63502835280E+02 -0.44854797280E+03  0.47748094941E+03  0.00000000000E+00 0.  1.
         13    1    1    2    0    0 -0.70473116913E+02 -0.19284468813E+03  0.39590973049E+03  0.44598212947E+03  0.10566000000E+00 0. -1.
<mgrwt>
<rscale>  1 0.68769367E+03</rscale>
<asrwt>0</asrwt>
<pdfrwt beam="2">  1       21 0.79939191E-01 0.10289263E+04</pdfrwt>
<pdfrwt beam="1">  1        4 0.14709291E+00 0.10289263E+04</pdfrwt>
<totfact> 0.16398491E+01</totfact>
</mgrwt>
</event>
<event>
 6    1  0.1353269E-005  0.1217363E+04  0.7818608E-02  0.9238207E-01
          4   -1    0    0  502    0 -0.00000000000E+00  0.00000000000E+00  0.15213112883E+04  0.15213112883E+04  0.00000000000E+00 0.  1.
         21   -1    0    0  501  502  0.00000000000E+00 -0.00000000000E+00 -0.61620283304E+03  0.61620283304E+03  0.00000000000E+00 0. -1.
    9000010    2    1    2  501    0 -0.35318799172E+03 -0.62490794414E+03  0.53209992826E+03  0.13285721775E+04  0.98322021998E+03 0.  0.
        -13    1    3    3    0    0  0.32455958715E+02 -0.52810001709E+03  0.71617475855E+03  0.89042086299E+03  0.10566000000E+00 0.  1.
          4    1    3    3  501    0 -0.38564395043E+03 -0.96807927050E+02 -0.18407483029E+03  0.43815131449E+03  0.00000000000E+00 0.  1.
         13    1    1    2    0    0  0.35318799172E+03  0.62490794414E+03  0.37300852700E+03  0.80894194385E+03  0.10566000000E+00 0. -1.
<mgrwt>
<rscale>  1 0.10667622E+04</rscale>
<asrwt>0</asrwt>
<pdfrwt beam="2">  1       21 0.94800436E-01 0.12173634E+04</pdfrwt>
<pdfrwt beam="1">  1        4 0.23404789E+00 0.12173634E+04</pdfrwt>
<totfact> 0.26832948E+00</totfact>
</mgrwt>
</event>
<event>
 6    1  0.1353269E-005  0.1007062E+04  0.7818608E-02  0.9959213E-01
          4   -1    0    0  502    0 -0.00000000000E+00  0.00000000000E+00  0.66177918884E+03  0.66177918884E+03  0.00000000000E+00 0.  1.
         21   -1    0    0  501  502  0.00000000000E+00 -0.00000000000E+00 -0.54687620678E+03  0.54687620678E+03  0.00000000000E+00 0.  1.
    9000010    2    1    2  501    0 -0.23117699768E+02 -0.10431566657E+03 -0.54317716526E+02  0.10085258318E+04  0.10013779270E+04 0.  0.
        -13    1    3    3    0    0 -0.17330510326E+03 -0.11230782236E+03 -0.49849385401E+03  0.53957746379E+03  0.10566000000E+00 0.  1.
          4    1    3    3  501    0  0.15018740349E+03  0.79921557925E+01  0.44417613749E+03  0.46894836798E+03  0.00000000000E+00 0.  1.
         13    1    1    2    0    0  0.23117699768E+02  0.10431566657E+03  0.16922069858E+03  0.20012956384E+03  0.10566000000E+00 0. -1.
<mgrwt>
<rscale>  1 0.57475446E+03</rscale>
<asrwt>0</asrwt>
<pdfrwt beam="2">  1       21 0.84134802E-01 0.10070620E+04</pdfrwt>
<pdfrwt beam="1">  1        4 0.10181218E+00 0.10070620E+04</pdfrwt>
<totfact> 0.36995584E+01</totfact>
</mgrwt>
</event>
<event>
 6    1  0.1353269E-005  0.1353414E+04  0.7818608E-02  0.9081204E-01
          4   -1    0    0  502    0 -0.00000000000E+00  0.00000000000E+00  0.16899557822E+04  0.16899557822E+04  0.00000000000E+00 0.  1.
         21   -1    0    0  501  502  0.00000000000E+00 -0.00000000000E+00 -0.79252852429E+03  0.79252852429E+03  0.00000000000E+00 0.  1.
    9000010    2    1    2  501    0 -0.86001026316E+03 -0.38923369472E+03  0.37888401471E+03  0.14054478038E+04  0.96985045798E+03 0.  0.
        -13    1    3    3    0    0  0.15834943066E+03  0.11157908942E+03  0.15647428861E+03  0.24901536006E+03  0.10566000000E+00 0.  1.
          4    1    3    3  501    0 -0.10183596938E+04 -0.50081278414E+03  0.22240972610E+03  0.11564324438E+04  0.00000000000E+00 0.  1.
         13    1    1    2    0    0  0.86001026316E+03  0.38923369472E+03  0.51854324322E+03  0.10770365027E+04  0.10566000000E+00 0. -1.
<mgrwt>
<rscale>  1 0.12368446E+04</rscale>
<asrwt>0</asrwt>
<pdfrwt beam="2">  1       21 0.12192747E+00 0.13534144E+04</pdfrwt>
<pdfrwt beam="1">  1        4 0.25999320E+00 0.13534144E+04</pdfrwt>
<totfact> 0.95916334E-01</totfact>
</mgrwt>
</event>
<event>
 6    1  0.1353269E-005  0.1049201E+04  0.7818608E-02  0.9604566E-01
         21   -1    0    0  501  502  0.00000000000E+00  0.00000000000E+00  0.14072237621E+03  0.14072237621E+03  0.00000000000E+00 0.  1.
          4   -1    0    0  502    0 -0.00000000000E+00 -0.00000000000E+00 -0.33849951536E+04  0.33849951536E+04  0.00000000000E+00 0.  1.
    9000010    2    1    2  501    0  0.25883862522E+03  0.15995588022E+03 -0.21890495327E+04  0.24275010553E+04  0.10041116469E+04 0.  0.
        -13    1    3    3    0    0  0.32086857797E+03  0.49974208482E+03 -0.18520295900E+04  0.19449196408E+04  0.10566000000E+00 0.  1.
          4    1    3    3  501    0 -0.62029952746E+02 -0.33978620460E+03 -0.33701994263E+03  0.48258141448E+03  0.00000000000E+00 0.  1.
         13    1    1    2    0    0 -0.25883862522E+03 -0.15995588022E+03 -0.10552232447E+04  0.10982164745E+04  0.10566000000E+00 0. -1.
<mgrwt>
<rscale>  1 0.76994683E+03</rscale>
<asrwt>0</asrwt>
<pdfrwt beam="1">  1       21 0.21649597E-01 0.10492014E+04</pdfrwt>
<pdfrwt beam="2">  1        4 0.52076846E+00 0.10492014E+04</pdfrwt>
<totfact> 0.70021450E-01</totfact>
</mgrwt>
</event>
<event>
 6    1  0.1353269E-005  0.1113122E+04  0.7818608E-02  0.9418696E-01
          4   -1    0    0  502    0 -0.00000000000E+00  0.00000000000E+00  0.61363474658E+03  0.61363474658E+03  0.00000000000E+00 0.  1.
         21   -1    0    0  501  502  0.00000000000E+00 -0.00000000000E+00 -0.12346967198E+04  0.12346967198E+04  0.00000000000E+00 0.  1.
    9000010    2    1    2  501    0  0.48360170791E+03 -0.61582365892E+02 -0.75225993150E+03  0.13434790968E+04  0.10006888024E+04 0.  0.
        -13    1    3    3    0    0  0.65152178188E+03  0.26985443732E+03 -0.32269005848E+03  0.77551978351E+03  0.10566000000E+00 0.  1.
          4    1    3    3  501    0 -0.16792007396E+03 -0.33143680321E+03 -0.42956987301E+03  0.56795931330E+03  0.00000000000E+00 0.  1.
         13    1    1    2    0    0 -0.48360170791E+03  0.61582365892E+02  0.13119795824E+03  0.50485236961E+03  0.10566000000E+00 0. -1.
<mgrwt>
<rscale>  1 0.90552895E+03</rscale>
<asrwt>0</asrwt>
<pdfrwt beam="2">  1       21 0.18995334E+00 0.11131222E+04</pdfrwt>
<pdfrwt beam="1">  1        4 0.94405346E-01 0.11131222E+04</pdfrwt>
<totfact> 0.49816096E+00</totfact>
</mgrwt>
</event>
<event>
 6    1  0.1353269E-005  0.1147796E+04  0.7818608E-02  0.9362147E-01
         21   -1    0    0  501  502  0.00000000000E+00  0.00000000000E+00  0.15894131552E+04  0.15894131552E+04  0.00000000000E+00 0.  1.
          4   -1    0    0  502    0 -0.00000000000E+00 -0.00000000000E+00 -0.45074570527E+03  0.45074570527E+03  0.00000000000E+00 0.  1.
    9000010    2    1    2  501    0 -0.17561368626E+03  0.51540561574E+03  0.79611533041E+03  0.13968664842E+04  0.10104223077E+04 0.  0.
        -13    1    3    3    0    0  0.42169627685E+02  0.30398600498E+03  0.99014966075E+03  0.10366205335E+04  0.10566000000E+00 0.  1.
          4    1    3    3  501    0 -0.21778331394E+03  0.21141961076E+03 -0.19403433034E+03  0.36024595070E+03  0.00000000000E+00 0.  1.
         13    1    1    2    0    0  0.17561368626E+03 -0.51540561574E+03  0.34255211948E+03  0.64329237619E+03  0.10566000000E+00 0. -1.
<mgrwt>
<rscale>  1 0.95257376E+03</rscale>
<asrwt>0</asrwt>
<pdfrwt beam="1">  1       21 0.24452510E+00 0.11477963E+04</pdfrwt>
<pdfrwt beam="2">  1        4 0.69345494E-01 0.11477963E+04</pdfrwt>
<totfact> 0.43570635E+00</totfact>
</mgrwt>
</event>
<event>
 6    1  0.1353269E-005  0.1059120E+04  0.7818608E-02  0.9432076E-01
          4   -1    0    0  502    0 -0.00000000000E+00  0.00000000000E+00  0.91750286851E+03  0.91750286851E+03  0.00000000000E+00 0.  1.
         21   -1    0    0  501  502  0.00000000000E+00 -0.00000000000E+00 -0.71704566171E+03  0.71704566171E+03  0.00000000000E+00 0. -1.
    9000010    2    1    2  501    0 -0.52522790967E+03  0.12393380247E+03  0.72251724086E+00  0.10591200795E+04  0.91132369460E+03 0.  0.
        -13    1    3    3    0    0  0.41195044164E+02  0.25253757679E+03 -0.30873680652E+03  0.40098713972E+03  0.10566000000E+00 0.  1.
          4    1    3    3  501    0 -0.56642295383E+03 -0.12860377432E+03  0.30945932376E+03  0.65813293981E+03  0.00000000000E+00 0.  1.
         13    1    1    2    0    0  0.52522790967E+03 -0.12393380247E+03  0.19973468956E+03  0.57542845069E+03  0.10566000000E+00 0. -1.
<mgrwt>
<rscale>  1 0.89482315E+03</rscale>
<asrwt>0</asrwt>
<pdfrwt beam="2">  1       21 0.11031472E+00 0.10591198E+04</pdfrwt>
<pdfrwt beam="1">  1        4 0.14115429E+00 0.10591198E+04</pdfrwt>
<totfact> 0.82993202E+00</totfact>
</mgrwt>
</event>
<event>
 6    1  0.1353269E-005  0.1024697E+04  0.7818608E-02  0.9724784E-01
          4   -1    0    0  502    0 -0.00000000000E+00  0.00000000000E+00  0.70463740990E+03  0.70463740990E+03  0.00000000000E+00 0.  1.
         21   -1    0    0  501  502  0.00000000000E+00 -0.00000000000E+00 -0.54972292649E+03  0.54972292649E+03  0.00000000000E+00 0.  1.
    9000010    2    1    2  501    0  0.19558318846E+03 -0.95374466434E+02  0.97563259863E+02  0.10293309017E+04  0.10013263420E+04 0.  0.
        -13    1    3    3    0    0  0.40488221591E+03 -0.78146439813E+02  0.45544456658E+03  0.61438281161E+03  0.10566000000E+00 0.  1.
          4    1    3    3  501    0 -0.20929902745E+03 -0.17228026622E+02 -0.35788130672E+03  0.41494809012E+03  0.00000000000E+00 0.  1.
         13    1    1    2    0    0 -0.19558318846E+03  0.95374466434E+02  0.57351223541E+02  0.22502943465E+03  0.10566000000E+00 0. -1.
<mgrwt>
<rscale>  1 0.69560145E+03</rscale>
<asrwt>0</asrwt>
<pdfrwt beam="2">  1       21 0.84572758E-01 0.10246968E+04</pdfrwt>
<pdfrwt beam="1">  1        4 0.10840575E+00 0.10246968E+04</pdfrwt>
<totfact> 0.31300611E+01</totfact>
</mgrwt>
</event>
<event>
 6    1  0.1353269E-005  0.1144362E+04  0.7818608E-02  0.9376117E-01
          4   -1    0    0  502    0 -0.00000000000E+00  0.00000000000E+00  0.27797721377E+03  0.27797721377E+03  0.00000000000E+00 0.  1.
         21   -1    0    0  501  502  0.00000000000E+00 -0.00000000000E+00 -0.25003219290E+04  0.25003219290E+04  0.00000000000E+00 0. -1.
    9000010    2    1    2  501    0 -0.52182353371E+03  0.26152793884E+02 -0.14929282345E+04  0.18810632861E+04  0.10181260256E+04 0.  0.
        -13    1    3    3    0    0 -0.37769622934E+03 -0.33588121959E+03 -0.22255227287E+03  0.55226819631E+03  0.10566000000E+00 0.  1.
          4    1    3    3  501    0 -0.14412730437E+03  0.36203401348E+03 -0.12703759616E+04  0.13287950898E+04  0.00000000000E+00 0.  1.
         13    1    1    2    0    0  0.52182353371E+03 -0.26152793884E+02 -0.72941648078E+03  0.89723585670E+03  0.10566000000E+00 0. -1.
<mgrwt>
<rscale>  1 0.94067527E+03</rscale>
<asrwt>0</asrwt>
<pdfrwt beam="2">  1       21 0.38466490E+00 0.11443620E+04</pdfrwt>
<pdfrwt beam="1">  1        4 0.42765727E-01 0.11443620E+04</pdfrwt>
<totfact> 0.16002252E+00</totfact>
</mgrwt>
</event>
<event>
 6    1  0.1353269E-005  0.1017630E+04  0.7818608E-02  0.9982538E-01
         21   -1    0    0  501  502  0.00000000000E+00  0.00000000000E+00  0.82690143325E+03  0.82690143325E+03  0.00000000000E+00 0.  1.
          4   -1    0    0  502    0 -0.00000000000E+00 -0.00000000000E+00 -0.47456999954E+03  0.47456999954E+03  0.00000000000E+00 0.  1.
    9000010    2    1    2  501    0  0.95990993566E+02  0.58729359116E+01  0.49324530506E+03  0.11308681136E+04  0.10130760076E+04 0.  0.
        -13    1    3    3    0    0  0.24688296487E+03  0.37748313858E+03  0.56548449385E+03  0.72333770965E+03  0.10566000000E+00 0.  1.
          4    1    3    3  501    0 -0.15089197131E+03 -0.37161020267E+03 -0.72239188787E+02  0.40753040394E+03  0.00000000000E+00 0.  1.
         13    1    1    2    0    0 -0.95990993566E+02 -0.58729359116E+01 -0.14091387134E+03  0.17060331920E+03  0.10566000000E+00 0. -1.
<mgrwt>
<rscale>  1 0.56422600E+03</rscale>
<asrwt>0</asrwt>
<pdfrwt beam="1">  1       21 0.12721560E+00 0.10176305E+04</pdfrwt>
<pdfrwt beam="2">  1        4 0.73010769E-01 0.10176305E+04</pdfrwt>
<totfact> 0.28554567E+01</totfact>
</mgrwt>
</event>
<event>
 6    1  0.1353269E-005  0.1268530E+04  0.7818608E-02  0.9180879E-01
         21   -1    0    0  501  502  0.00000000000E+00  0.00000000000E+00  0.15830506209E+04  0.15830506209E+04  0.00000000000E+00 0. -1.
          4   -1    0    0  502    0 -0.00000000000E+00 -0.00000000000E+00 -0.67559160735E+03  0.67559160735E+03  0.00000000000E+00 0.  1.
    9000010    2    1    2  501    0 -0.19912927460E+03  0.75988216764E+03  0.68766823598E+03  0.14429331050E+04  0.99603964080E+03 0.  0.
        -13    1    3    3    0    0 -0.26968865426E+03 -0.17598658656E+03  0.24837712836E+03  0.40668717455E+03  0.10566000000E+00 0.  1.
          4    1    3    3  501    0  0.70559379662E+02  0.93586875421E+03  0.43929110762E+03  0.10362459305E+04  0.00000000000E+00 0.  1.
         13    1    1    2    0    0  0.19912927460E+03 -0.75988216764E+03  0.21979077761E+03  0.81570912327E+03  0.10566000000E+00 0. -1.
<mgrwt>
<rscale>  1 0.11252983E+04</rscale>
<asrwt>0</asrwt>
<pdfrwt beam="1">  1       21 0.24354625E+00 0.12685300E+04</pdfrwt>
<pdfrwt beam="2">  1        4 0.10393717E+00 0.12685300E+04</pdfrwt>
<totfact> 0.16891063E+00</totfact>
</mgrwt>
</event>
<event>
 6    1  0.1353269E-005  0.9896221E+03  0.7818608E-02  0.9880429E-01
          4   -1    0    0  502    0 -0.00000000000E+00  0.00000000000E+00  0.35106591864E+03  0.35106591864E+03  0.00000000000E+00 0.  1.
         21   -1    0    0  501  502  0.00000000000E+00 -0.00000000000E+00 -0.10725837449E+04  0.10725837449E+04  0.00000000000E+00 0.  1.
    9000010    2    1    2  501    0 -0.44593842347E+02  0.13789356598E+03 -0.78720521569E+03  0.12645330692E+04  0.97895280025E+03 0.  0.
        -13    1    3    3    0    0 -0.25569413924E+03 -0.27632994124E+03 -0.69521183802E+03  0.79060561606E+03  0.10566000000E+00 0.  1.
          4    1    3    3  501    0  0.21110029689E+03  0.41422350722E+03 -0.91993377674E+02  0.47392745312E+03  0.00000000000E+00 0.  1.
         13    1    1    2    0    0  0.44593842347E+02 -0.13789356598E+03  0.65687389409E+02  0.15911659438E+03  0.10566000000E+00 0. -1.
<mgrwt>
<rscale>  1 0.61219230E+03</rscale>
<asrwt>0</asrwt>
<pdfrwt beam="2">  1       21 0.16501288E+00 0.98962206E+03</pdfrwt>
<pdfrwt beam="1">  1        4 0.54010142E-01 0.98962206E+03</pdfrwt>
<totfact> 0.27091801E+01</totfact>
</mgrwt>
</event>
<event>
 6    1  0.1353269E-005  0.1014888E+04  0.7818608E-02  0.9808428E-01
         21   -1    0    0  501  502  0.00000000000E+00  0.00000000000E+00  0.19385763807E+03  0.19385763807E+03  0.00000000000E+00 0.  1.
          4   -1    0    0  502    0 -0.00000000000E+00 -0.00000000000E+00 -0.19413953991E+04  0.19413953991E+04  0.00000000000E+00 0.  1.
    9000010    2    1    2  501    0  0.69015380811E+02 -0.15519016306E+03 -0.12535404534E+04  0.16128734237E+04  0.10005747863E+04 0.  0.
        -13    1    3    3    0    0  0.24597405352E+03  0.37643314701E+03 -0.63756887798E+03  0.78019179340E+03  0.10566000000E+00 0.  1.
          4    1    3    3  501    0 -0.17695867271E+03 -0.53162331006E+03 -0.61597157546E+03  0.83268163029E+03  0.00000000000E+00 0.  1.
         13    1    1    2    0    0 -0.69015380811E+02  0.15519016306E+03 -0.49399730755E+03  0.52237961343E+03  0.10566000000E+00 0. -1.
<mgrwt>
<rscale>  1 0.64912195E+03</rscale>
<asrwt>0</asrwt>
<pdfrwt beam="1">  1       21 0.29824253E-01 0.10148877E+04</pdfrwt>
<pdfrwt beam="2">  1        4 0.29867621E+00 0.10148877E+04</pdfrwt>
<totfact> 0.13976221E+01</totfact>
</mgrwt>
</event>
<event>
 6    1  0.1353269E-005  0.1301898E+04  0.7818608E-02  0.9144601E-01
         21   -1    0    0  501  502  0.00000000000E+00  0.00000000000E+00  0.11843818731E+04  0.11843818731E+04  0.00000000000E+00 0. -1.
          4   -1    0    0  502    0 -0.00000000000E+00 -0.00000000000E+00 -0.97010756714E+03  0.97010756714E+03  0.00000000000E+00 0.  1.
    9000010    2    1    2  501    0 -0.19007184659E+03 -0.81108784664E+03  0.22587784798E+03  0.13213475224E+04  0.10004737233E+04 0.  0.
        -13    1    3    3    0    0 -0.53945535692E+03 -0.54140161875E+03  0.38040292388E+03  0.85371786355E+03  0.10566000000E+00 0.  1.
          4    1    3    3  501    0  0.34938351032E+03 -0.26968622789E+03 -0.15452507590E+03  0.46762965890E+03  0.00000000000E+00 0.  1.
         13    1    1    2    0    0  0.19007184659E+03  0.81108784664E+03 -0.11603542021E+02  0.83314191779E+03  0.10566000000E+00 0. -1.
<mgrwt>
<rscale>  1 0.11643993E+04</rscale>
<asrwt>0</asrwt>
<pdfrwt beam="1">  1       21 0.18221260E+00 0.13018980E+04</pdfrwt>
<pdfrwt beam="2">  1        4 0.14924732E+00 0.13018980E+04</pdfrwt>
<totfact> 0.17388428E+00</totfact>
</mgrwt>
</event>
<event>
 6    1  0.1353269E-005  0.1176016E+04  0.7818608E-02  0.9358251E-01
         21   -1    0    0  501  502  0.00000000000E+00  0.00000000000E+00  0.52143761003E+03  0.52143761003E+03  0.00000000000E+00 0. -1.
          4   -1    0    0  502    0 -0.00000000000E+00 -0.00000000000E+00 -0.15438927769E+04  0.15438927769E+04  0.00000000000E+00 0.  1.
    9000010    2    1    2  501    0 -0.25192473158E+03  0.44734046835E+03 -0.10125089189E+04  0.15518340344E+04  0.10580335508E+04 0.  0.
        -13    1    3    3    0    0 -0.55045412636E+03  0.61850155975E+03 -0.77157919848E+03  0.11317589829E+04  0.10566000000E+00 0.  1.
          4    1    3    3  501    0  0.29852939478E+03 -0.17116109140E+03 -0.24092972044E+03  0.42007505156E+03  0.00000000000E+00 0.  1.
         13    1    1    2    0    0  0.25192473158E+03 -0.44734046835E+03 -0.99462479613E+01  0.51349635249E+03  0.10566000000E+00 0. -1.
<mgrwt>
<rscale>  1 0.95592552E+03</rscale>
<asrwt>0</asrwt>
<pdfrwt beam="1">  1       21 0.80221170E-01 0.11760164E+04</pdfrwt>
<pdfrwt beam="2">  1        4 0.23752197E+00 0.11760164E+04</pdfrwt>
<totfact> 0.38329449E+00</totfact>
</mgrwt>
</event>
<event>
 6    1  0.1353269E-005  0.1013554E+04  0.7818608E-02  0.9853133E-01
          4   -1    0    0  502    0 -0.00000000000E+00  0.00000000000E+00  0.23293906419E+03  0.23293906419E+03  0.00000000000E+00 0.  1.
         21   -1    0    0  501  502  0.00000000000E+00 -0.00000000000E+00 -0.20823646432E+04  0.20823646432E+04  0.00000000000E+00 0.  1.
    9000010    2    1    2  501    0 -0.10206802056E+03  0.10630134116E+03 -0.19049623394E+04  0.21578165686E+04  0.10027826152E+04 0.  0.
        -13    1    3    3    0    0  0.27635184107E+03 -0.28996030849E+03 -0.44658425902E+03  0.59990401910E+03  0.10566000000E+00 0.  1.
          4    1    3    3  501    0 -0.37841986163E+03  0.39626164964E+03 -0.14583780803E+04  0.15579125495E+04  0.00000000000E+00 0.  1.
         13    1    1    2    0    0  0.10206802056E+03 -0.10630134116E+03  0.55536760395E+02  0.15748713875E+03  0.10566000000E+00 0. -1.
<mgrwt>
<rscale>  1 0.62587438E+03</rscale>
<asrwt>0</asrwt>
<pdfrwt beam="2">  1       21 0.32036380E+00 0.10135536E+04</pdfrwt>
<pdfrwt beam="1">  1        4 0.35836778E-01 0.10135536E+04</pdfrwt>
<totfact> 0.60137572E+00</totfact>
</mgrwt>
</event>
<event>
 6    1  0.1353269E-005  0.1019770E+04  0.7818608E-02  0.9734378E-01
          4   -1    0    0  502    0 -0.00000000000E+00  0.00000000000E+00  0.12260109713E+04  0.12260109713E+04  0.00000000000E+00 0.  1.
         21   -1    0    0  501  502  0.00000000000E+00 -0.00000000000E+00 -0.39139833918E+03  0.39139833918E+03  0.00000000000E+00 0.  1.
    9000010    2    1    2  501    0  0.12489820785E+03  0.17354946149E+03  0.33404677775E+03  0.10730884826E+04  0.99710213315E+03 0.  0.
        -13    1    3    3    0    0  0.48932095075E+03  0.30964503570E+03  0.36228928346E+03  0.68305825304E+03  0.10566000000E+00 0.  1.
          4    1    3    3  501    0 -0.36442274290E+03 -0.13609557420E+03 -0.28242505714E+02  0.39003022959E+03  0.00000000000E+00 0.  1.
         13    1    1    2    0    0 -0.12489820785E+03 -0.17354946149E+03  0.50056585440E+03  0.54432082788E+03  0.10566000000E+00 0. -1.
<mgrwt>
<rscale>  1 0.69006321E+03</rscale>
<asrwt>0</asrwt>
<pdfrwt beam="2">  1       21 0.60215130E-01 0.10197704E+04</pdfrwt>
<pdfrwt beam="1">  1        4 0.18861707E+00 0.10197704E+04</pdfrwt>
<totfact> 0.15645628E+01</totfact>
</mgrwt>
</event>
<event>
 6    1  0.1353269E-005  0.1113357E+04  0.7818608E-02  0.9443745E-01
          4   -1    0    0  502    0 -0.00000000000E+00  0.00000000000E+00  0.49328423688E+03  0.49328423688E+03  0.00000000000E+00 0.  1.
         21   -1    0    0  501  502  0.00000000000E+00 -0.00000000000E+00 -0.13107421919E+04  0.13107421919E+04  0.00000000000E+00 0. -1.
    9000010    2    1    2  501    0 -0.43963057962E+03 -0.73505601659E+02 -0.37200279737E+03  0.11738610309E+04  0.10202379716E+04 0.  0.
        -13    1    3    3    0    0 -0.49532836957E+03  0.32716421499E+03 -0.47056075868E+03  0.75750515249E+03  0.10566000000E+00 0.  1.
          4    1    3    3  501    0  0.55697789946E+02 -0.40066981665E+03  0.98557961313E+02  0.41635587844E+03  0.00000000000E+00 0.  1.
         13    1    1    2    0    0  0.43963057962E+03  0.73505601659E+02 -0.44545515768E+03  0.63016539787E+03  0.10566000000E+00 0. -1.
<mgrwt>
<rscale>  1 0.88561431E+03</rscale>
<asrwt>0</asrwt>
<pdfrwt beam="2">  1       21 0.20165264E+00 0.11133569E+04</pdfrwt>
<pdfrwt beam="1">  1        4 0.75889883E-01 0.11133569E+04</pdfrwt>
<totfact> 0.68621335E+00</totfact>
</mgrwt>
</event>
<event>
 6    1  0.1353269E-005  0.8058891E+03  0.7818608E-02  0.9937650E-01
         21   -1    0    0  501  502  0.00000000000E+00  0.00000000000E+00  0.28149561477E+03  0.28149561477E+03  0.00000000000E+00 0. -1.
          4   -1    0    0  502    0 -0.00000000000E+00 -0.00000000000E+00 -0.13591212719E+04  0.13591212719E+04  0.00000000000E+00 0.  1.
    9000010    2    1    2  501    0  0.21627710486E+03  0.55648196853E+02 -0.11514127117E+04  0.14054211204E+04  0.77432860281E+03 0.  0.
        -13    1    3    3    0    0  0.90591549680E+02 -0.18520107903E+03 -0.11119462474E+04  0.11308981992E+04  0.10566000000E+00 0.  1.
          4    1    3    3  501    0  0.12568555518E+03  0.24084927588E+03 -0.39466464238E+02  0.27452292122E+03  0.00000000000E+00 0.  1.
         13    1    1    2    0    0 -0.21627710486E+03 -0.55648196853E+02  0.73787054528E+02  0.23519576629E+03  0.10566000000E+00 0. -1.
<mgrwt>
<rscale>  1 0.58470821E+03</rscale>
<asrwt>0</asrwt>
<pdfrwt beam="1">  1       21 0.43307018E-01 0.80588913E+03</pdfrwt>
<pdfrwt beam="2">  1        4 0.20909558E+00 0.80588913E+03</pdfrwt>
<totfact> 0.23957515E+01</totfact>
</mgrwt>
</event>
<event>
 6    1  0.1353269E-005  0.1035249E+04  0.7818608E-02  0.9890918E-01
         21   -1    0    0  501  502  0.00000000000E+00  0.00000000000E+00  0.58880233372E+03  0.58880233372E+03  0.00000000000E+00 0.  1.
          4   -1    0    0  502    0 -0.00000000000E+00 -0.00000000000E+00 -0.60367888345E+03  0.60367888345E+03  0.00000000000E+00 0.  1.
    9000010    2    1    2  501    0 -0.38034809396E+02 -0.11632215090E+03  0.78973107491E+02  0.10382565147E+04  0.10279894694E+04 0.  0.
        -13    1    3    3    0    0  0.43774340492E+03 -0.20421730065E+02  0.27218060813E+03  0.51586687257E+03  0.10566000000E+00 0.  1.
          4    1    3    3  501    0 -0.47577821431E+03 -0.95900420840E+02 -0.19320750064E+03  0.52238964216E+03  0.00000000000E+00 0.  1.
         13    1    1    2    0    0  0.38034809396E+02  0.11632215090E+03 -0.93849657226E+02  0.15422470244E+03  0.10566000000E+00 0. -1.
<mgrwt>
<rscale>  1 0.60703458E+03</rscale>
<asrwt>0</asrwt>
<pdfrwt beam="1">  1       21 0.90584974E-01 0.10352487E+04</pdfrwt>
<pdfrwt beam="2">  1        4 0.92873675E-01 0.10352487E+04</pdfrwt>
<totfact> 0.38524199E+01</totfact>
</mgrwt>
</event>
<event>
 6    1  0.1353269E-005  0.8298544E+03  0.7818608E-02  0.1002929E+00
         21   -1    0    0  501  502  0.00000000000E+00  0.00000000000E+00  0.29512642572E+03  0.29512642572E+03  0.00000000000E+00 0.  1.
          4   -1    0    0  502    0 -0.00000000000E+00 -0.00000000000E+00 -0.99070284524E+03  0.99070284524E+03  0.00000000000E+00 0.  1.
    9000010    2    1    2  501    0  0.46164909753E+02  0.14594301054E+03 -0.33649200116E+03  0.89548046298E+03  0.81561500202E+03 0.  0.
        -13    1    3    3    0    0 -0.26484322178E+01  0.46634613686E+03 -0.33002421475E+03  0.57131578574E+03  0.10566000000E+00 0.  1.
          4    1    3    3  501    0  0.48813341970E+02 -0.32040312632E+03 -0.64677864117E+01  0.32416467724E+03  0.00000000000E+00 0.  1.
         13    1    1    2    0    0 -0.46164909753E+02 -0.14594301054E+03 -0.35908441836E+03  0.39034880798E+03  0.10566000000E+00 0. -1.
<mgrwt>
<rscale>  1 0.54384395E+03</rscale>
<asrwt>0</asrwt>
<pdfrwt beam="1">  1       21 0.45404066E-01 0.82985444E+03</pdfrwt>
<pdfrwt beam="2">  1        4 0.15241582E+00 0.82985444E+03</pdfrwt>
<totfact> 0.53681645E+01</totfact>
</mgrwt>
</event>
<event>
 6    1  0.1353269E-005  0.1122131E+04  0.7818608E-02  0.9438038E-01
         21   -1    0    0  501  502  0.00000000000E+00  0.00000000000E+00  0.62535235840E+03  0.62535235840E+03  0.00000000000E+00 0.  1.
          4   -1    0    0  502    0 -0.00000000000E+00 -0.00000000000E+00 -0.98959978501E+03  0.98959978501E+03  0.00000000000E+00 0.  1.
    9000010    2    1    2  501    0 -0.42344732854E+03  0.13436217128E+03 -0.32868170531E+03  0.11692776380E+04  0.10304453882E+04 0.  0.
        -13    1    3    3    0    0 -0.52965633006E+03 -0.86146608936E+02 -0.59927285654E+03  0.80441595830E+03  0.10566000000E+00 0.  1.
          4    1    3    3  501    0  0.10620900153E+03  0.22050878021E+03  0.27059115123E+03  0.36486167966E+03  0.00000000000E+00 0.  1.
         13    1    1    2    0    0  0.42344732854E+03 -0.13436217128E+03 -0.35565721304E+02  0.44567450545E+03  0.10566000000E+00 0. -1.
<mgrwt>
<rscale>  1 0.89010332E+03</rscale>
<asrwt>0</asrwt>
<pdfrwt beam="1">  1       21 0.96208055E-01 0.11221312E+04</pdfrwt>
<pdfrwt beam="2">  1        4 0.15224612E+00 0.11221312E+04</pdfrwt>
<totfact> 0.94862602E+00</totfact>
</mgrwt>
</event>
<event>
 6    1  0.1353269E-005  0.1053113E+04  0.7818608E-02  0.9609851E-01
         21   -1    0    0  501  502  0.00000000000E+00  0.00000000000E+00  0.72114282702E+03  0.72114282702E+03  0.00000000000E+00 0.  1.
          4   -1    0    0  502    0 -0.00000000000E+00 -0.00000000000E+00 -0.67384779539E+03  0.67384779539E+03  0.00000000000E+00 0.  1.
    9000010    2    1    2  501    0  0.29398602497E+03 -0.29958425249E+02  0.18455170220E+03  0.10691613805E+04  0.10108023727E+04 0.  0.
        -13    1    3    3    0    0  0.14228455736E+03  0.31595440283E+03 -0.29753487434E+03  0.45672649643E+03  0.10566000000E+00 0.  1.
          4    1    3    3  501    0  0.15170146761E+03 -0.34591282808E+03  0.48208657653E+03  0.61243488403E+03  0.00000000000E+00 0.  1.
         13    1    1    2    0    0 -0.29398602497E+03  0.29958425249E+02 -0.13725667057E+03  0.32582924194E+03  0.10566000000E+00 0. -1.
<mgrwt>
<rscale>  1 0.76647625E+03</rscale>
<asrwt>0</asrwt>
<pdfrwt beam="1">  1       21 0.11094505E+00 0.10531129E+04</pdfrwt>
<pdfrwt beam="2">  1        4 0.10366889E+00 0.10531129E+04</pdfrwt>
<totfact> 0.17852215E+01</totfact>
</mgrwt>
</event>
<event>
 6    1  0.1353269E-005  0.1028757E+04  0.7818608E-02  0.9699561E-01
         21   -1    0    0  501  502  0.00000000000E+00  0.00000000000E+00  0.56934988712E+03  0.56934988712E+03  0.00000000000E+00 0.  1.
          4   -1    0    0  502    0 -0.00000000000E+00 -0.00000000000E+00 -0.12899889093E+04  0.12899889093E+04  0.00000000000E+00 0.  1.
    9000010    2    1    2  501    0 -0.22114391158E+03 -0.76378259847E+02  0.73571428283E+02  0.10313843780E+04  0.10017997364E+04 0.  0.
        -13    1    3    3    0    0 -0.34716688586E+03  0.14961717476E+03 -0.36286590341E+03  0.52400555402E+03  0.10566000000E+00 0.  1.
          4    1    3    3  501    0  0.12602297429E+03 -0.22599543461E+03  0.43643733169E+03  0.50737882396E+03  0.00000000000E+00 0.  1.
         13    1    1    2    0    0  0.22114391158E+03  0.76378259847E+02 -0.79421045046E+03  0.82795441842E+03  0.10566000000E+00 0. -1.
<mgrwt>
<rscale>  1 0.71042952E+03</rscale>
<asrwt>0</asrwt>
<pdfrwt beam="1">  1       21 0.87592291E-01 0.10287570E+04</pdfrwt>
<pdfrwt beam="2">  1        4 0.19845983E+00 0.10287570E+04</pdfrwt>
<totfact> 0.56435359E+00</totfact>
</mgrwt>
</event>
<event>
 6    1  0.1353269E-005  0.1027328E+04  0.7818608E-02  0.9819788E-01
          4   -1    0    0  502    0 -0.00000000000E+00  0.00000000000E+00  0.35323080677E+03  0.35323080677E+03  0.00000000000E+00 0.  1.
         21   -1    0    0  501  502  0.00000000000E+00 -0.00000000000E+00 -0.99628785088E+03  0.99628785088E+03  0.00000000000E+00 0.  1.
    9000010    2    1    2  501    0 -0.65601941850E+02  0.14348394154E+03 -0.57887248505E+03  0.11791927200E+04  0.10151408083E+04 0.  0.
        -13    1    3    3    0    0  0.23249204047E+03 -0.13164713186E+03  0.17759856736E+03  0.32081891855E+03  0.10566000000E+00 0.  1.
          4    1    3    3  501    0 -0.29809398232E+03  0.27513107341E+03 -0.75647105241E+03  0.85837380143E+03  0.00000000000E+00 0.  1.
         13    1    1    2    0    0  0.65601941850E+02 -0.14348394154E+03 -0.64184559064E+02  0.17032593767E+03  0.10566000000E+00 0. -1.
<mgrwt>
<rscale>  1 0.64311348E+03</rscale>
<asrwt>0</asrwt>
<pdfrwt beam="2">  1       21 0.15327505E+00 0.10273277E+04</pdfrwt>
<pdfrwt beam="1">  1        4 0.54343201E-01 0.10273277E+04</pdfrwt>
<totfact> 0.32874908E+01</totfact>
</mgrwt>
</event>
<event>
 6    1  0.1353269E-005  0.8059796E+03  0.7818608E-02  0.1024647E+00
         21   -1    0    0  501  502  0.00000000000E+00  0.00000000000E+00  0.32944391515E+03  0.32944391515E+03  0.00000000000E+00 0.  1.
          4   -1    0    0  502    0 -0.00000000000E+00 -0.00000000000E+00 -0.74790703127E+03  0.74790703127E+03  0.00000000000E+00 0.  1.
    9000010    2    1    2  501    0 -0.63285544260E+02  0.58031214790E+02 -0.18268437652E+03  0.82642405026E+03  0.80139281717E+03 0.  0.
        -13    1    3    3    0    0  0.21574323172E+03  0.22499261586E+03  0.16306550905E+03  0.35179140216E+03  0.10566000000E+00 0.  1.
          4    1    3    3  501    0 -0.27902877598E+03 -0.16696140107E+03 -0.34574988557E+03  0.47463264810E+03  0.00000000000E+00 0.  1.
         13    1    1    2    0    0  0.63285544260E+02 -0.58031214790E+02 -0.23577873960E+03  0.25092689616E+03  0.10566000000E+00 0. -1.
<mgrwt>
<rscale>  1 0.46046467E+03</rscale>
<asrwt>0</asrwt>
<pdfrwt beam="1">  1       21 0.50683679E-01 0.80597961E+03</pdfrwt>
<pdfrwt beam="2">  1        4 0.11506262E+00 0.80597961E+03</pdfrwt>
<totfact> 0.87705954E+01</totfact>
</mgrwt>
</event>
<event>
 6    1  0.1353269E-005  0.9949750E+03  0.7818608E-02  0.9947800E-01
          4   -1    0    0  502    0 -0.00000000000E+00  0.00000000000E+00  0.15128149442E+04  0.15128149442E+04  0.00000000000E+00 0.  1.
         21   -1    0    0  501  502  0.00000000000E+00 -0.00000000000E+00 -0.29618005521E+03  0.29618005521E+03  0.00000000000E+00 0.  1.
    9000010    2    1    2  501    0 -0.11097122088E+03  0.29730977624E+02  0.55870001828E+03  0.11411051521E+04  0.98832014793E+03 0.  0.
        -13    1    3    3    0    0 -0.54059092886E+01 -0.47705687784E+03  0.27999088673E+03  0.55317935281E+03  0.10566000000E+00 0.  1.
          4    1    3    3  501    0 -0.10556531160E+03  0.50678785547E+03  0.27870913154E+03  0.58792579929E+03  0.00000000000E+00 0.  1.
         13    1    1    2    0    0  0.11097122088E+03 -0.29730977624E+02  0.65793487067E+03  0.66788984728E+03  0.10566000000E+00 0. -1.
<mgrwt>
<rscale>  1 0.57999590E+03</rscale>
<asrwt>0</asrwt>
<pdfrwt beam="2">  1       21 0.45566163E-01 0.99497500E+03</pdfrwt>
<pdfrwt beam="1">  1        4 0.23274076E+00 0.99497500E+03</pdfrwt>
<totfact> 0.14879726E+01</totfact>
</mgrwt>
</event>
<event>
 6    1  0.1353269E-005  0.1095992E+04  0.7818608E-02  0.9456633E-01
          4   -1    0    0  502    0 -0.00000000000E+00  0.00000000000E+00  0.36847511025E+03  0.36847511025E+03  0.00000000000E+00 0.  1.
         21   -1    0    0  501  502  0.00000000000E+00 -0.00000000000E+00 -0.23672185192E+04  0.23672185192E+04  0.00000000000E+00 0.  1.
    9000010    2    1    2  501    0  0.31213934974E+03 -0.31917976783E+03 -0.20096962029E+04  0.22891214934E+04  0.10009453962E+04 0.  0.
        -13    1    3    3    0    0  0.20843222491E+03 -0.68424597592E+03 -0.13631952493E+04  0.15394602453E+04  0.10566000000E+00 0.  1.
          4    1    3    3  501    0  0.10370712483E+03  0.36506620809E+03 -0.64650095351E+03  0.74966124811E+03  0.00000000000E+00 0.  1.
         13    1    1    2    0    0 -0.31213934974E+03  0.31917976783E+03  0.10952793856E+02  0.44657213606E+03  0.10566000000E+00 0. -1.
<mgrwt>
<rscale>  1 0.87557987E+03</rscale>
<asrwt>0</asrwt>
<pdfrwt beam="2">  1       21 0.36418747E+00 0.10959920E+04</pdfrwt>
<pdfrwt beam="1">  1        4 0.56688478E-01 0.10959920E+04</pdfrwt>
<totfact> 0.12074961E+00</totfact>
</mgrwt>
</event>
<event>
 6    1  0.1353269E-005  0.1051623E+04  0.7818608E-02  0.9550601E-01
         21   -1    0    0  501  502  0.00000000000E+00  0.00000000000E+00  0.18731361495E+03  0.18731361495E+03  0.00000000000E+00 0.  1.
          4   -1    0    0  502    0 -0.00000000000E+00 -0.00000000000E+00 -0.26750697372E+04  0.26750697372E+04  0.00000000000E+00 0.  1.
    9000010    2    1    2  501    0 -0.19286300889E+03  0.30852691428E+03 -0.18722730487E+04  0.21473977425E+04  0.98667405888E+03 0.  0.
        -13    1    3    3    0    0  0.22076412091E+03  0.20014113888E+03 -0.85259244673E+02  0.30993938523E+03  0.10566000000E+00 0.  1.
          4    1    3    3  501    0 -0.41362712980E+03  0.10838577540E+03 -0.17870138040E+04  0.18374583573E+04  0.00000000000E+00 0.  1.
         13    1    1    2    0    0  0.19286300889E+03 -0.30852691428E+03 -0.61548307350E+03  0.71498560962E+03  0.10566000000E+00 0. -1.
<mgrwt>
<rscale>  1 0.80653817E+03</rscale>
<asrwt>0</asrwt>
<pdfrwt beam="1">  1       21 0.28817479E-01 0.10516229E+04</pdfrwt>
<pdfrwt beam="2">  1        4 0.41154919E+00 0.10516229E+04</pdfrwt>
<totfact> 0.27157064E+00</totfact>
</mgrwt>
</event>
<event>
 6    1  0.1353269E-005  0.9977096E+03  0.7818608E-02  0.1023402E+00
         21   -1    0    0  501  502  0.00000000000E+00  0.00000000000E+00  0.10687108002E+04  0.10687108002E+04  0.00000000000E+00 0.  1.
          4   -1    0    0  502    0 -0.00000000000E+00 -0.00000000000E+00 -0.32641642656E+03  0.32641642656E+03  0.00000000000E+00 0.  1.
    9000010    2    1    2  501    0  0.43113316905E+02 -0.18689274472E+02  0.82855931613E+03  0.12968943476E+04  0.99660240884E+03 0.  0.
        -13    1    3    3    0    0 -0.32942230130E+03 -0.11264306944E+03  0.84337487822E+03  0.91240819267E+03  0.10566000000E+00 0.  1.
          4    1    3    3  501    0  0.37253561820E+03  0.93953794963E+02 -0.14815562087E+02  0.38448615488E+03  0.00000000000E+00 0.  1.
         13    1    1    2    0    0 -0.43113316905E+02  0.18689274472E+02 -0.86264942527E+02  0.98232879160E+02  0.10566000000E+00 0. -1.
<mgrwt>
<rscale>  1 0.46478748E+03</rscale>
<asrwt>0</asrwt>
<pdfrwt beam="1">  1       21 0.16441704E+00 0.99770958E+03</pdfrwt>
<pdfrwt beam="2">  1        4 0.50217912E-01 0.99770958E+03</pdfrwt>
<totfact> 0.31929235E+01</totfact>
</mgrwt>
</event>
<event>
 6    1  0.1353269E-005  0.1038392E+04  0.7818608E-02  0.9725028E-01
         21   -1    0    0  501  502  0.00000000000E+00  0.00000000000E+00  0.11277440113E+04  0.11277440113E+04  0.00000000000E+00 0.  1.
          4   -1    0    0  502    0 -0.00000000000E+00 -0.00000000000E+00 -0.35564029818E+03  0.35564029818E+03  0.00000000000E+00 0.  1.
    9000010    2    1    2  501    0  0.20892897484E+03  0.10593798515E+01  0.73244640706E+03  0.12707222492E+04  0.10171552765E+04 0.  0.
        -13    1    3    3    0    0 -0.24760895268E+03  0.30839371879E+03  0.57203356102E+02  0.39961120398E+03  0.10566000000E+00 0.  1.
          4    1    3    3  501    0  0.45653792752E+03 -0.30733433894E+03  0.67524305096E+03  0.87111104517E+03  0.00000000000E+00 0.  1.
         13    1    1    2    0    0 -0.20892897484E+03 -0.10593798515E+01  0.39657306067E+02  0.21266206033E+03  0.10566000000E+00 0. -1.
<mgrwt>
<rscale>  1 0.69545972E+03</rscale>
<asrwt>0</asrwt>
<pdfrwt beam="1">  1       21 0.17349908E+00 0.10383917E+04</pdfrwt>
<pdfrwt beam="2">  1        4 0.54713893E-01 0.10383917E+04</pdfrwt>
<totfact> 0.22636174E+01</totfact>
</mgrwt>
</event>
<event>
 6    1  0.1353269E-005  0.1011118E+04  0.7818608E-02  0.9860611E-01
         21   -1    0    0  501  502  0.00000000000E+00  0.00000000000E+00  0.11460073251E+04  0.11460073251E+04  0.00000000000E+00 0.  1.
          4   -1    0    0  502    0 -0.00000000000E+00 -0.00000000000E+00 -0.29164212408E+03  0.29164212408E+03  0.00000000000E+00 0.  1.
    9000010    2    1    2  501    0  0.14237486115E+03 -0.26814591027E+02  0.75697558613E+03  0.12630803464E+04  0.10006849156E+04 0.  0.
        -13    1    3    3    0    0  0.46617282678E+03  0.28075975859E+03  0.53971130591E+03  0.76644076833E+03  0.10566000000E+00 0.  1.
          4    1    3    3  501    0 -0.32379796563E+03 -0.30757434962E+03  0.21726428022E+03  0.49663957811E+03  0.00000000000E+00 0.  1.
         13    1    1    2    0    0 -0.14237486115E+03  0.26814591027E+02  0.97389614913E+02  0.17456910276E+03  0.10566000000E+00 0. -1.
<mgrwt>
<rscale>  1 0.62208831E+03</rscale>
<asrwt>0</asrwt>
<pdfrwt beam="1">  1       21 0.17630882E+00 0.10111182E+04</pdfrwt>
<pdfrwt beam="2">  1        4 0.44868020E-01 0.10111182E+04</pdfrwt>
<totfact> 0.32891054E+01</totfact>
</mgrwt>
</event>
<event>
 6    1  0.1353269E-005  0.1087091E+04  0.7818608E-02  0.9476683E-01
         21   -1    0    0  501  502  0.00000000000E+00  0.00000000000E+00  0.43406925150E+03  0.43406925150E+03  0.00000000000E+00 0. -1.
          4   -1    0    0  502    0 -0.00000000000E+00 -0.00000000000E+00 -0.16052999149E+04  0.16052999149E+04  0.00000000000E+00 0.  1.
    9000010    2    1    2  501    0 -0.47313735318E+02  0.42365042050E+03 -0.11911252565E+04  0.16126209100E+04  0.10000242769E+04 0.  0.
        -13    1    3    3    0    0 -0.34283907478E+03  0.61156369183E+03 -0.58730244126E+03  0.91458895086E+03  0.10566000000E+00 0.  1.
          4    1    3    3  501    0  0.29552533946E+03 -0.18791327133E+03 -0.60382281524E+03  0.69803195916E+03  0.00000000000E+00 0.  1.
         13    1    1    2    0    0  0.47313735318E+02 -0.42365042050E+03  0.19894593096E+02  0.42674825639E+03  0.10566000000E+00 0. -1.
<mgrwt>
<rscale>  1 0.86024925E+03</rscale>
<asrwt>0</asrwt>
<pdfrwt beam="1">  1       21 0.66779886E-01 0.10870910E+04</pdfrwt>
<pdfrwt beam="2">  1        4 0.24696921E+00 0.10870910E+04</pdfrwt>
<totfact> 0.51734978E+00</totfact>
</mgrwt>
</event>
<event>
 6    1  0.1353269E-005  0.1002019E+04  0.7818608E-02  0.1020114E+00
         21   -1    0    0  501  502  0.00000000000E+00  0.00000000000E+00  0.95787815907E+03  0.95787815907E+03  0.00000000000E+00 0.  1.
          4   -1    0    0  502    0 -0.00000000000E+00 -0.00000000000E+00 -0.29291475596E+03  0.29291475596E+03  0.00000000000E+00 0.  1.
    9000010    2    1    2  501    0  0.43503747758E+02  0.27040003227E+02  0.65882265097E+03  0.11992035959E+04  0.10007088694E+04 0.  0.
        -13    1    3    3    0    0  0.53169902752E+02  0.45239187328E+03  0.52533001689E+02  0.45852499713E+03  0.10566000000E+00 0.  1.
          4    1    3    3  501    0 -0.96661549939E+01 -0.42535187005E+03  0.60628964928E+03  0.74067859880E+03  0.00000000000E+00 0.  1.
         13    1    1    2    0    0 -0.43503747758E+02 -0.27040003227E+02  0.61407521497E+01  0.51589319093E+02  0.10566000000E+00 0. -1.
<mgrwt>
<rscale>  1 0.47645538E+03</rscale>
<asrwt>0</asrwt>
<pdfrwt beam="1">  1       21 0.14736587E+00 0.10020190E+04</pdfrwt>
<pdfrwt beam="2">  1        4 0.45063809E-01 0.10020190E+04</pdfrwt>
<totfact> 0.54572483E+01</totfact>
</mgrwt>
</event>
<event>
 6    1  0.1353269E-005  0.1106727E+04  0.7818608E-02  0.9446782E-01
          4   -1    0    0  502    0 -0.00000000000E+00  0.00000000000E+00  0.77519587050E+03  0.77519587050E+03  0.00000000000E+00 0.  1.
         21   -1    0    0  501  502  0.00000000000E+00 -0.00000000000E+00 -0.83762716805E+03  0.83762716805E+03  0.00000000000E+00 0.  1.
    9000010    2    1    2  501    0 -0.42826093473E+03 -0.13467905767E+03  0.14877913621E+03  0.11166821964E+04  0.10115819391E+04 0.  0.
        -13    1    3    3    0    0 -0.32386237633E+03 -0.49976964437E+03 -0.17170715034E+03  0.61979020069E+03  0.10566000000E+00 0.  1.
          4    1    3    3  501    0 -0.10439855841E+03  0.36509058670E+03  0.32048628656E+03  0.49689199567E+03  0.00000000000E+00 0.  1.
         13    1    1    2    0    0  0.42826093473E+03  0.13467905767E+03 -0.21121043377E+03  0.49614084219E+03  0.10566000000E+00 0. -1.
<mgrwt>
<rscale>  1 0.88323664E+03</rscale>
<asrwt>0</asrwt>
<pdfrwt beam="2">  1       21 0.12886572E+00 0.11067267E+04</pdfrwt>
<pdfrwt beam="1">  1        4 0.11926090E+00 0.11067267E+04</pdfrwt>
<totfact> 0.85128225E+00</totfact>
</mgrwt>
</event>
<event>
 6    1  0.1353269E-005  0.1055336E+04  0.7818608E-02  0.9530905E-01
          4   -1    0    0  502    0 -0.00000000000E+00  0.00000000000E+00  0.92060620967E+03  0.92060620967E+03  0.00000000000E+00 0.  1.
         21   -1    0    0  501  502  0.00000000000E+00 -0.00000000000E+00 -0.70989595915E+03  0.70989595915E+03  0.00000000000E+00 0.  1.
    9000010    2    1    2  501    0 -0.12310305060E+03  0.36529157536E+03 -0.19241875143E+03  0.10727340275E+04  0.98241591078E+03 0.  0.
        -13    1    3    3    0    0 -0.77180609937E+02  0.30240014695E+03 -0.59007413905E+03  0.66752542736E+03  0.10566000000E+00 0.  1.
          4    1    3    3  501    0 -0.45922440661E+02  0.62891428402E+02  0.39765538762E+03  0.40520860014E+03  0.00000000000E+00 0.  1.
         13    1    1    2    0    0  0.12310305060E+03 -0.36529157536E+03  0.40312900195E+03  0.55776814132E+03  0.10566000000E+00 0. -1.
<mgrwt>
<rscale>  1 0.82043182E+03</rscale>
<asrwt>0</asrwt>
<pdfrwt beam="2">  1       21 0.10921476E+00 0.10553356E+04</pdfrwt>
<pdfrwt beam="1">  1        4 0.14163173E+00 0.10553356E+04</pdfrwt>
<totfact> 0.84408370E+00</totfact>
</mgrwt>
</event>
<event>
 6    1  0.1353269E-005  0.1196319E+04  0.7818608E-02  0.9579181E-01
         21   -1    0    0  501  502  0.00000000000E+00  0.00000000000E+00  0.75312420901E+03  0.75312420901E+03  0.00000000000E+00 0.  1.
          4   -1    0    0  502    0 -0.00000000000E+00 -0.00000000000E+00 -0.80119989264E+03  0.80119989264E+03  0.00000000000E+00 0.  1.
    9000010    2    1    2  501    0  0.19702306553E+03 -0.10644330527E+03  0.20786610999E+03  0.12142439957E+04  0.11751731344E+04 0.  0.
        -13    1    3    3    0    0 -0.28137264057E+02 -0.60801814276E+03 -0.42450202171E+02  0.61014735792E+03  0.10566000000E+00 0.  1.
          4    1    3    3  501    0  0.22516032958E+03  0.50157483749E+03  0.25031631216E+03  0.60409663776E+03  0.00000000000E+00 0.  1.
         13    1    1    2    0    0 -0.19702306553E+03  0.10644330527E+03 -0.25594179363E+03  0.34008010597E+03  0.10566000000E+00 0. -1.
<mgrwt>
<rscale>  1 0.78689605E+03</rscale>
<asrwt>0</asrwt>
<pdfrwt beam="1">  1       21 0.11586526E+00 0.11963194E+04</pdfrwt>
<pdfrwt beam="2">  1        4 0.12326152E+00 0.11963194E+04</pdfrwt>
<totfact> 0.10251791E+01</totfact>
</mgrwt>
</event>
<event>
 6    1  0.1353269E-005  0.1029177E+04  0.7818608E-02  0.9701125E-01
          4   -1    0    0  502    0 -0.00000000000E+00  0.00000000000E+00  0.10710567411E+04  0.10710567411E+04  0.00000000000E+00 0.  1.
         21   -1    0    0  501  502  0.00000000000E+00 -0.00000000000E+00 -0.58657397081E+03  0.58657397081E+03  0.00000000000E+00 0.  1.
    9000010    2    1    2  501    0 -0.91405327767E+02  0.21372826402E+03 -0.94716673729E+02  0.10335259836E+04  0.10025816703E+04 0.  0.
        -13    1    3    3    0    0  0.16567840412E+03 -0.34759046620E+03  0.77044326676E+02  0.39268856009E+03  0.10566000000E+00 0.  1.
          4    1    3    3  501    0 -0.25708373189E+03  0.56131873022E+03 -0.17176100040E+03  0.64083742350E+03  0.00000000000E+00 0.  1.
         13    1    1    2    0    0  0.91405327767E+02 -0.21372826402E+03  0.57919944398E+03  0.62410472828E+03  0.10566000000E+00 0. -1.
<mgrwt>
<rscale>  1 0.70949865E+03</rscale>
<asrwt>0</asrwt>
<pdfrwt beam="2">  1       21 0.90242150E-01 0.10291767E+04</pdfrwt>
<pdfrwt beam="1">  1        4 0.16477796E+00 0.10291767E+04</pdfrwt>
<totfact> 0.90118086E+00</totfact>
</mgrwt>
</event>
<event>
 6    1  0.1353269E-005  0.9992775E+03  0.7818608E-02  0.1000465E+00
          4   -1    0    0  502    0 -0.00000000000E+00  0.00000000000E+00  0.17825339745E+04  0.17825339745E+04  0.00000000000E+00 0.  1.
         21   -1    0    0  501  502  0.00000000000E+00 -0.00000000000E+00 -0.17003019651E+03  0.17003019651E+03  0.00000000000E+00 0.  1.
    9000010    2    1    2  501    0 -0.57812233326E+02  0.75031959293E+02  0.15273153757E+04  0.18251705908E+04  0.99477805533E+03 0.  0.
        -13    1    3    3    0    0 -0.51531678610E+03  0.27131980630E+02  0.10008457466E+04  0.11260460710E+04  0.10566000000E+00 0.  1.
          4    1    3    3  501    0  0.45750455278E+03  0.47899978663E+02  0.52646962914E+03  0.69912451979E+03  0.00000000000E+00 0.  1.
         13    1    1    2    0    0  0.57812233326E+02 -0.75031959293E+02  0.85188402317E+02  0.12739358026E+03  0.10566000000E+00 0. -1.
<mgrwt>
<rscale>  1 0.55446756E+03</rscale>
<asrwt>0</asrwt>
<pdfrwt beam="2">  1       21 0.26158493E-01 0.99927745E+03</pdfrwt>
<pdfrwt beam="1">  1        4 0.27423598E+00 0.99927745E+03</pdfrwt>
<totfact> 0.25754661E+01</totfact>
</mgrwt>
</event>
<event>
 6    1  0.1353269E-005  0.1116232E+04  0.7818608E-02  0.9393900E-01
          4   -1    0    0  502    0 -0.00000000000E+00  0.00000000000E+00  0.65321075062E+03  0.65321075062E+03  0.00000000000E+00 0.  1.
         21   -1    0    0  501  502  0.00000000000E+00 -0.00000000000E+00 -0.17953685529E+04  0.17953685529E+04  0.00000000000E+00 0.  1.
    9000010    2    1    2  501    0  0.19977890839E+03 -0.48895652701E+03 -0.14556456486E+04  0.18343605001E+04  0.98335349312E+03 0.  0.
        -13    1    3    3    0    0  0.14776825816E+03 -0.25393598790E+02 -0.13471106081E+04  0.13554288232E+04  0.10566000000E+00 0.  1.
          4    1    3    3  501    0  0.52010650239E+02 -0.46356292822E+03 -0.10853504050E+03  0.47893167694E+03  0.00000000000E+00 0.  1.
         13    1    1    2    0    0 -0.19977890839E+03  0.48895652701E+03  0.31348784632E+03  0.61421880344E+03  0.10566000000E+00 0. -1.
<mgrwt>
<rscale>  1 0.92579428E+03</rscale>
<asrwt>0</asrwt>
<pdfrwt beam="2">  1       21 0.27621054E+00 0.11162321E+04</pdfrwt>
<pdfrwt beam="1">  1        4 0.10049396E+00 0.11162321E+04</pdfrwt>
<totfact> 0.11645835E+00</totfact>
</mgrwt>
</event>
<event>
 6    1  0.1353269E-005  0.1082141E+04  0.7818608E-02  0.9479182E-01
         21   -1    0    0  501  502  0.00000000000E+00  0.00000000000E+00  0.14835226159E+04  0.14835226159E+04  0.00000000000E+00 0.  1.
          4   -1    0    0  502    0 -0.00000000000E+00 -0.00000000000E+00 -0.38456380603E+03  0.38456380603E+03  0.00000000000E+00 0.  1.
    9000010    2    1    2  501    0  0.42111936165E+03 -0.78539105337E+02  0.77667810251E+03  0.13320129444E+04  0.99374025846E+03 0.  0.
        -13    1    3    3    0    0  0.12302803848E+03  0.29466958424E+03  0.79218153796E+03  0.85411806114E+03  0.10566000000E+00 0.  1.
          4    1    3    3  501    0  0.29809132317E+03 -0.37320868957E+03 -0.15503435451E+02  0.47789488325E+03  0.00000000000E+00 0.  1.
         13    1    1    2    0    0 -0.42111936165E+03  0.78539105337E+02  0.32228070739E+03  0.53607347756E+03  0.10566000000E+00 0. -1.
<mgrwt>
<rscale>  1 0.85836194E+03</rscale>
<asrwt>0</asrwt>
<pdfrwt beam="1">  1       21 0.22823424E+00 0.10821412E+04</pdfrwt>
<pdfrwt beam="2">  1        4 0.59163663E-01 0.10821412E+04</pdfrwt>
<totfact> 0.79592275E+00</totfact>
</mgrwt>
</event>
<event>
 6    1  0.1353269E-005  0.9824824E+03  0.7818608E-02  0.1019340E+00
         21   -1    0    0  501  502  0.00000000000E+00  0.00000000000E+00  0.19844720923E+04  0.19844720923E+04  0.00000000000E+00 0.  1.
          4   -1    0    0  502    0 -0.00000000000E+00 -0.00000000000E+00 -0.14023475063E+03  0.14023475063E+03  0.00000000000E+00 0.  1.
    9000010    2    1    2  501    0  0.35497738516E+02 -0.42829202313E+02  0.18097972124E+04  0.20592808261E+04  0.98090628533E+03 0.  0.
        -13    1    3    3    0    0  0.23523752381E+03 -0.14398436722E+03  0.18144963571E+04  0.18353379067E+04  0.10566000000E+00 0.  1.
          4    1    3    3  501    0 -0.19973978529E+03  0.10115516490E+03 -0.46991446249E+01  0.22394291946E+03  0.00000000000E+00 0.  1.
         13    1    1    2    0    0 -0.35497738516E+02  0.42829202313E+02  0.34440129220E+02  0.65426016807E+02  0.10566000000E+00 0. -1.
<mgrwt>
<rscale>  1 0.47925466E+03</rscale>
<asrwt>0</asrwt>
<pdfrwt beam="1">  1       21 0.30530338E+00 0.98248235E+03</pdfrwt>
<pdfrwt beam="2">  1        4 0.21574579E-01 0.98248235E+03</pdfrwt>
<totfact> 0.20073929E+01</totfact>
</mgrwt>
</event>
<event>
 6    1  0.1353269E-005  0.1100559E+04  0.7818608E-02  0.9443252E-01
         21   -1    0    0  501  502  0.00000000000E+00  0.00000000000E+00  0.14684739194E+04  0.14684739194E+04  0.00000000000E+00 0.  1.
          4   -1    0    0  502    0 -0.00000000000E+00 -0.00000000000E+00 -0.46791118203E+03  0.46791118203E+03  0.00000000000E+00 0.  1.
    9000010    2    1    2  501    0  0.19980528092E+03 -0.41685954914E+03  0.98001956957E+03  0.14736583280E+04  0.99876747889E+03 0.  0.
        -13    1    3    3    0    0  0.88181165761E+02 -0.55829838877E+03  0.98283448075E+02  0.57370084210E+03  0.10566000000E+00 0.  1.
          4    1    3    3  501    0  0.11162411516E+03  0.14143883962E+03  0.88173612150E+03  0.89995748588E+03  0.00000000000E+00 0.  1.
         13    1    1    2    0    0 -0.19980528092E+03  0.41685954914E+03  0.20543167843E+02  0.46272677349E+03  0.10566000000E+00 0. -1.
<mgrwt>
<rscale>  1 0.88600078E+03</rscale>
<asrwt>0</asrwt>
<pdfrwt beam="1">  1       21 0.22591906E+00 0.11005592E+04</pdfrwt>
<pdfrwt beam="2">  1        4 0.71986336E-01 0.11005592E+04</pdfrwt>
<totfact> 0.53248990E+00</totfact>
</mgrwt>
</event>
<event>
 6    1  0.1353269E-005  0.1076018E+04  0.7818608E-02  0.9522367E-01
         21   -1    0    0  501  502  0.00000000000E+00  0.00000000000E+00  0.22629641217E+03  0.22629641217E+03  0.00000000000E+00 0.  1.
          4   -1    0    0  502    0 -0.00000000000E+00 -0.00000000000E+00 -0.24467186873E+04  0.24467186873E+04  0.00000000000E+00 0.  1.
    9000010    2    1    2  501    0  0.32966486264E+03  0.17797391470E+03 -0.13571500981E+04  0.17319558565E+04  0.10086927501E+04 0.  0.
        -13    1    3    3    0    0 -0.36312180116E+03  0.17437243949E+02 -0.41883899915E+03  0.55460582248E+03  0.10566000000E+00 0.  1.
          4    1    3    3  501    0  0.69278666380E+03  0.16053667075E+03 -0.93831109895E+03  0.11773500340E+04  0.00000000000E+00 0.  1.
         13    1    1    2    0    0 -0.32966486264E+03 -0.17797391470E+03 -0.86327217702E+03  0.94105924295E+03  0.10566000000E+00 0. -1.
<mgrwt>
<rscale>  1 0.82654711E+03</rscale>
<asrwt>0</asrwt>
<pdfrwt beam="1">  1       21 0.34814833E-01 0.10760180E+04</pdfrwt>
<pdfrwt beam="2">  1        4 0.37641826E+00 0.10760180E+04</pdfrwt>
<totfact> 0.32113760E+00</totfact>
</mgrwt>
</event>
<event>
 6    1  0.1353269E-005  0.1042709E+04  0.7818608E-02  0.9876502E-01
         21   -1    0    0  501  502  0.00000000000E+00  0.00000000000E+00  0.48427722391E+03  0.48427722391E+03  0.00000000000E+00 0.  1.
          4   -1    0    0  502    0 -0.00000000000E+00 -0.00000000000E+00 -0.81119420647E+03  0.81119420647E+03  0.00000000000E+00 0.  1.
    9000010    2    1    2  501    0  0.10751757514E+03 -0.64691767013E+02 -0.11478701759E+03  0.10490080723E+04  0.10351313070E+04 0.  0.
        -13    1    3    3    0    0  0.26241749148E+03  0.30990035289E+03 -0.38682174236E+03  0.56083173955E+03  0.10566000000E+00 0.  1.
          4    1    3    3  501    0 -0.15489991634E+03 -0.37459211990E+03  0.27203472476E+03  0.48817633275E+03  0.00000000000E+00 0.  1.
         13    1    1    2    0    0 -0.10751757514E+03  0.64691767013E+02 -0.21212996496E+03  0.24646335809E+03  0.10566000000E+00 0. -1.
<mgrwt>
<rscale>  1 0.61413715E+03</rscale>
<asrwt>0</asrwt>
<pdfrwt beam="1">  1       21 0.74504189E-01 0.10427089E+04</pdfrwt>
<pdfrwt beam="2">  1        4 0.12479911E+00 0.10427089E+04</pdfrwt>
<totfact> 0.29621649E+01</totfact>
</mgrwt>
</event>
<event>
 6    1  0.1353269E-005  0.1401047E+04  0.7818608E-02  0.9043723E-01
         21   -1    0    0  501  502  0.00000000000E+00  0.00000000000E+00  0.15545161296E+04  0.15545161296E+04  0.00000000000E+00 0.  1.
          4   -1    0    0  502    0 -0.00000000000E+00 -0.00000000000E+00 -0.12833147566E+04  0.12833147566E+04  0.00000000000E+00 0.  1.
    9000010    2    1    2  501    0  0.64738077221E+03  0.73984975348E+03  0.90520168747E+03  0.16680292228E+04  0.99822435909E+03 0.  0.
        -13    1    3    3    0    0 -0.71673695846E+02  0.67529216696E+03  0.44257406297E+03  0.81057290963E+03  0.10566000000E+00 0.  1.
          4    1    3    3  501    0  0.71905446806E+03  0.64557586515E+02  0.46262762449E+03  0.85745631314E+03  0.00000000000E+00 0.  1.
         13    1    1    2    0    0 -0.64738077221E+03 -0.73984975348E+03 -0.63400031449E+03  0.11698016635E+04  0.10566000000E+00 0. -1.
<mgrwt>
<rscale>  1 0.12822966E+04</rscale>
<asrwt>0</asrwt>
<pdfrwt beam="1">  1       21 0.23915633E+00 0.14010465E+04</pdfrwt>
<pdfrwt beam="2">  1        4 0.19743304E+00 0.14010465E+04</pdfrwt>
<totfact> 0.31504145E-01</totfact>
</mgrwt>
</event>
<event>
 6    1  0.1353269E-005  0.1108218E+04  0.7818608E-02  0.9447730E-01
         21   -1    0    0  501  502  0.00000000000E+00  0.00000000000E+00  0.85301815621E+03  0.85301815621E+03  0.00000000000E+00 0. -1.
          4   -1    0    0  502    0 -0.00000000000E+00 -0.00000000000E+00 -0.14500540519E+04  0.14500540519E+04  0.00000000000E+00 0.  1.
    9000010    2    1    2  501    0  0.42412385270E+03  0.13677024411E+03  0.42593394861E+03  0.11872521260E+04  0.10146727256E+04 0.  0.
        -13    1    3    3    0    0 -0.28314815344E+03 -0.61044474290E+02 -0.73840059439E+02  0.29891749728E+03  0.10566000000E+00 0.  1.
          4    1    3    3  501    0  0.70727200614E+03  0.19781471840E+03  0.49977400805E+03  0.88833462874E+03  0.00000000000E+00 0.  1.
         13    1    1    2    0    0 -0.42412385270E+03 -0.13677024411E+03 -0.10229698443E+04  0.11158200821E+04  0.10566000000E+00 0. -1.
<mgrwt>
<rscale>  1 0.88249630E+03</rscale>
<asrwt>0</asrwt>
<pdfrwt beam="1">  1       21 0.13123356E+00 0.11082183E+04</pdfrwt>
<pdfrwt beam="2">  1        4 0.22308524E+00 0.11082183E+04</pdfrwt>
<totfact> 0.13903519E+00</totfact>
</mgrwt>
</event>
<event>
 6    1  0.1353269E-005  0.1125707E+04  0.7818608E-02  0.9452793E-01
          4   -1    0    0  502    0 -0.00000000000E+00  0.00000000000E+00  0.55755875201E+03  0.55755875201E+03  0.00000000000E+00 0.  1.
         21   -1    0    0  501  502  0.00000000000E+00 -0.00000000000E+00 -0.12350448997E+04  0.12350448997E+04  0.00000000000E+00 0. -1.
    9000010    2    1    2  501    0 -0.32942336494E+03 -0.25671169929E+03 -0.17501764361E+03  0.11392314311E+04  0.10453690392E+04 0.  0.
        -13    1    3    3    0    0 -0.27818198075E+03 -0.57517035773E+03  0.17581086003E+03  0.66265799965E+03  0.10566000000E+00 0.  1.
          4    1    3    3  501    0 -0.51241384186E+02  0.31845865844E+03 -0.35082850364E+03  0.47657343144E+03  0.00000000000E+00 0.  1.
         13    1    1    2    0    0  0.32942336494E+03  0.25671169929E+03 -0.50246850409E+03  0.65337222063E+03  0.10566000000E+00 0. -1.
<mgrwt>
<rscale>  1 0.87855494E+03</rscale>
<asrwt>0</asrwt>
<pdfrwt beam="2">  1       21 0.19000690E+00 0.11257074E+04</pdfrwt>
<pdfrwt beam="1">  1        4 0.85778271E-01 0.11257074E+04</pdfrwt>
<totfact> 0.62289461E+00</totfact>
</mgrwt>
</event>
<event>
 6    1  0.1353269E-005  0.1034211E+04  0.7818608E-02  0.9777919E-01
          4   -1    0    0  502    0 -0.00000000000E+00  0.00000000000E+00  0.93832502259E+03  0.93832502259E+03  0.00000000000E+00 0.  1.
         21   -1    0    0  501  502  0.00000000000E+00 -0.00000000000E+00 -0.46726835220E+03  0.46726835220E+03  0.00000000000E+00 0.  1.
    9000010    2    1    2  501    0  0.72345291383E+02 -0.16202357225E+03  0.15864658946E+03  0.10463086006E+04  0.10188755901E+04 0.  0.
        -13    1    3    3    0    0  0.49659357915E+03  0.90637208534E+02 -0.55987340530E+02  0.50789258696E+03  0.10566000000E+00 0.  1.
          4    1    3    3  501    0 -0.42424828777E+03 -0.25266078078E+03  0.21463392999E+03  0.53841601362E+03  0.00000000000E+00 0.  1.
         13    1    1    2    0    0 -0.72345291383E+02  0.16202357225E+03  0.31241008092E+03  0.35928477421E+03  0.10566000000E+00 0. -1.
<mgrwt>
<rscale>  1 0.66561141E+03</rscale>
<asrwt>0</asrwt>
<pdfrwt beam="2">  1       21 0.71887439E-01 0.10342113E+04</pdfrwt>
<pdfrwt beam="1">  1        4 0.14435770E+00 0.10342113E+04</pdfrwt>
<totfact> 0.22062891E+01</totfact>
</mgrwt>
</event>
<event>
 6    1  0.1353269E-005  0.1024382E+04  0.7818608E-02  0.9898231E-01
          4   -1    0    0  502    0 -0.00000000000E+00  0.00000000000E+00  0.14009375891E+04  0.14009375891E+04  0.00000000000E+00 0.  1.
         21   -1    0    0  501  502  0.00000000000E+00 -0.00000000000E+00 -0.25706455939E+03  0.25706455939E+03  0.00000000000E+00 0.  1.
    9000010    2    1    2  501    0  0.99244710761E+02  0.73299446954E+02  0.82237569273E+03  0.13136435122E+04  0.10169243706E+04 0.  0.
        -13    1    3    3    0    0 -0.45954132663E+03  0.18730187081E+02  0.42066049178E+03  0.62328509632E+03  0.10566000000E+00 0.  1.
          4    1    3    3  501    0  0.55878603739E+03  0.54569259873E+02  0.40171520096E+03  0.69035841588E+03  0.00000000000E+00 0.  1.
         13    1    1    2    0    0 -0.99244710761E+02 -0.73299446954E+02  0.32149733694E+03  0.34435863625E+03  0.10566000000E+00 0. -1.
<mgrwt>
<rscale>  1 0.60347107E+03</rscale>
<asrwt>0</asrwt>
<pdfrwt beam="2">  1       21 0.39548395E-01 0.10243815E+04</pdfrwt>
<pdfrwt beam="1">  1        4 0.21552886E+00 0.10243815E+04</pdfrwt>
<totfact> 0.25727674E+01</totfact>
</mgrwt>
</event>
<event>
 6    1  0.1353269E-005  0.1033714E+04  0.7818608E-02  0.9588418E-01
          4   -1    0    0  502    0 -0.00000000000E+00  0.00000000000E+00  0.21500915588E+04  0.21500915588E+04  0.00000000000E+00 0.  1.
         21   -1    0    0  501  502  0.00000000000E+00 -0.00000000000E+00 -0.21972754908E+03  0.21972754908E+03  0.00000000000E+00 0.  1.
    9000010    2    1    2  501    0 -0.25043580636E+03 -0.22439905271E+03  0.13688390513E+04  0.17153091247E+04  0.97749271966E+03 0.  0.
        -13    1    3    3    0    0 -0.52771520940E+03  0.13242250702E+03  0.51449161595E+03  0.74881285823E+03  0.10566000000E+00 0.  1.
          4    1    3    3  501    0  0.27727940304E+03 -0.35682155974E+03  0.85434743532E+03  0.96649626646E+03  0.00000000000E+00 0.  1.
         13    1    1    2    0    0  0.25043580636E+03  0.22439905271E+03  0.56152495842E+03  0.65450998316E+03  0.10566000000E+00 0. -1.
<mgrwt>
<rscale>  1 0.78067495E+03</rscale>
<asrwt>0</asrwt>
<pdfrwt beam="2">  1       21 0.33804240E-01 0.10337142E+04</pdfrwt>
<pdfrwt beam="1">  1        4 0.33078330E+00 0.10337142E+04</pdfrwt>
<totfact> 0.68041247E+00</totfact>
</mgrwt>
</event>
<event>
 6    1  0.1353269E-005  0.1033220E+04  0.7818608E-02  0.9697625E-01
          4   -1    0    0  502    0 -0.00000000000E+00  0.00000000000E+00  0.95053094760E+03  0.95053094760E+03  0.00000000000E+00 0.  1.
         21   -1    0    0  501  502  0.00000000000E+00 -0.00000000000E+00 -0.10680772750E+04  0.10680772750E+04  0.00000000000E+00 0.  1.
    9000010    2    1    2  501    0  0.15041799356E+03 -0.17721871390E+03 -0.79417090841E+03  0.13031692804E+04  0.10067326836E+04 0.  0.
        -13    1    3    3    0    0 -0.20473780521E+03  0.29666134400E+03 -0.56079488538E+03  0.66664566040E+03  0.10566000000E+00 0.  1.
          4    1    3    3  501    0  0.35515579876E+03 -0.47388005790E+03 -0.23337602303E+03  0.63652361998E+03  0.00000000000E+00 0.  1.
         13    1    1    2    0    0 -0.15041799356E+03  0.17721871390E+03  0.67662458098E+03  0.71543894225E+03  0.10566000000E+00 0. -1.
<mgrwt>
<rscale>  1 0.71158357E+03</rscale>
<asrwt>0</asrwt>
<pdfrwt beam="2">  1       21 0.16431958E+00 0.10332196E+04</pdfrwt>
<pdfrwt beam="1">  1        4 0.14623553E+00 0.10332196E+04</pdfrwt>
<totfact> 0.25868322E+00</totfact>
</mgrwt>
</event>
<event>
 6    1  0.1353269E-005  0.1062504E+04  0.7818608E-02  0.9562572E-01
          4   -1    0    0  502    0 -0.00000000000E+00  0.00000000000E+00  0.50374590794E+03  0.50374590794E+03  0.00000000000E+00 0.  1.
         21   -1    0    0  501  502  0.00000000000E+00 -0.00000000000E+00 -0.97894734667E+03  0.97894734667E+03  0.00000000000E+00 0.  1.
    9000010    2    1    2  501    0  0.26105114657E+03  0.21545980518E+03 -0.31500663095E+03  0.11082162642E+04  0.10071462068E+04 0.  0.
        -13    1    3    3    0    0 -0.17139507489E+03 -0.12785827366E+03 -0.48536174855E+03  0.53037726946E+03  0.10566000000E+00 0.  1.
          4    1    3    3  501    0  0.43244622146E+03  0.34331807883E+03  0.17035511759E+03  0.57783899470E+03  0.00000000000E+00 0.  1.
         13    1    1    2    0    0 -0.26105114657E+03 -0.21545980518E+03 -0.16019480777E+03  0.37447699045E+03  0.10566000000E+00 0. -1.
<mgrwt>
<rscale>  1 0.79823738E+03</rscale>
<asrwt>0</asrwt>
<pdfrwt beam="2">  1       21 0.15060728E+00 0.10625037E+04</pdfrwt>
<pdfrwt beam="1">  1        4 0.77499372E-01 0.10625037E+04</pdfrwt>
<totfact> 0.15695575E+01</totfact>
</mgrwt>
</event>
<event>
 6    1  0.1353269E-005  0.1019695E+04  0.7818608E-02  0.9775355E-01
         21   -1    0    0  501  502  0.00000000000E+00  0.00000000000E+00  0.15178516007E+04  0.15178516007E+04  0.00000000000E+00 0. -1.
          4   -1    0    0  502    0 -0.00000000000E+00 -0.00000000000E+00 -0.27375524164E+03  0.27375524164E+03  0.00000000000E+00 0.  1.
    9000010    2    1    2  501    0  0.43065963077E+02 -0.18166620454E+03  0.75704567190E+03  0.12699981096E+04  0.10024568629E+04 0.  0.
        -13    1    3    3    0    0  0.20961026102E+02 -0.50721538448E+03  0.79316123297E+03  0.94170672904E+03  0.10566000000E+00 0.  1.
          4    1    3    3  501    0  0.22104936975E+02  0.32554917994E+03 -0.36115561070E+02  0.32829138056E+03  0.00000000000E+00 0.  1.
         13    1    1    2    0    0 -0.43065963077E+02  0.18166620454E+03  0.48705068719E+03  0.52160873277E+03  0.10566000000E+00 0. -1.
<mgrwt>
<rscale>  1 0.66702077E+03</rscale>
<asrwt>0</asrwt>
<pdfrwt beam="1">  1       21 0.23351563E+00 0.10196946E+04</pdfrwt>
<pdfrwt beam="2">  1        4 0.42116192E-01 0.10196946E+04</pdfrwt>
<totfact> 0.15207885E+01</totfact>
</mgrwt>
</event>
<event>
 6    1  0.1353269E-005  0.1038411E+04  0.7818608E-02  0.9650714E-01
         21   -1    0    0  501  502  0.00000000000E+00  0.00000000000E+00  0.72193853095E+03  0.72193853095E+03  0.00000000000E+00 0.  1.
          4   -1    0    0  502    0 -0.00000000000E+00 -0.00000000000E+00 -0.70366023933E+03  0.70366023933E+03  0.00000000000E+00 0.  1.
    9000010    2    1    2  501    0  0.26254208288E+03  0.54897529742E+02  0.25343497382E+03  0.10688905416E+04  0.10031727767E+04 0.  0.
        -13    1    3    3    0    0 -0.27863596498E+03 -0.20134642858E+02 -0.21237264609E+03  0.35092101219E+03  0.10566000000E+00 0.  1.
          4    1    3    3  501    0  0.54117804786E+03  0.75032172600E+02  0.46580761991E+03  0.71796952942E+03  0.00000000000E+00 0.  1.
         13    1    1    2    0    0 -0.26254208288E+03 -0.54897529742E+02 -0.23515668220E+03  0.35670822867E+03  0.10566000000E+00 0. -1.
<mgrwt>
<rscale>  1 0.74028660E+03</rscale>
<asrwt>0</asrwt>
<pdfrwt beam="1">  1       21 0.11106747E+00 0.10384111E+04</pdfrwt>
<pdfrwt beam="2">  1        4 0.10825542E+00 0.10384111E+04</pdfrwt>
<totfact> 0.16036029E+01</totfact>
</mgrwt>
</event>
<event>
 6    1  0.1353269E-005  0.1079050E+04  0.7818608E-02  0.9494832E-01
         21   -1    0    0  501  502  0.00000000000E+00  0.00000000000E+00  0.11281588805E+04  0.11281588805E+04  0.00000000000E+00 0.  1.
          4   -1    0    0  502    0 -0.00000000000E+00 -0.00000000000E+00 -0.50076335185E+03  0.50076335185E+03  0.00000000000E+00 0.  1.
    9000010    2    1    2  501    0  0.32831743251E+03  0.24388262763E+03  0.55557195156E+03  0.12136756671E+04  0.99853761019E+03 0.  0.
        -13    1    3    3    0    0 -0.88301594029E+02 -0.15451319927E+03  0.60927379162E+03  0.63473306561E+03  0.10566000000E+00 0.  1.
          4    1    3    3  501    0  0.41661902654E+03  0.39839582690E+03 -0.53701840067E+02  0.57894260147E+03  0.00000000000E+00 0.  1.
         13    1    1    2    0    0 -0.32831743251E+03 -0.24388262763E+03  0.71823577055E+02  0.41524656523E+03  0.10566000000E+00 0. -1.
<mgrwt>
<rscale>  1 0.84665937E+03</rscale>
<asrwt>0</asrwt>
<pdfrwt beam="1">  1       21 0.17356290E+00 0.10790498E+04</pdfrwt>
<pdfrwt beam="2">  1        4 0.77040516E-01 0.10790498E+04</pdfrwt>
<totfact> 0.10559361E+01</totfact>
</mgrwt>
</event>
<event>
 6    1  0.1353269E-005  0.1016921E+04  0.7818608E-02  0.9680457E-01
         21   -1    0    0  501  502  0.00000000000E+00  0.00000000000E+00  0.40170376957E+03  0.40170376957E+03  0.00000000000E+00 0. -1.
          4   -1    0    0  502    0 -0.00000000000E+00 -0.00000000000E+00 -0.17241910212E+04  0.17241910212E+04  0.00000000000E+00 0.  1.
    9000010    2    1    2  501    0  0.16847744535E+03 -0.19577456274E+03 -0.15001954249E+04  0.18123783876E+04  0.98357347346E+03 0.  0.
        -13    1    3    3    0    0 -0.47236330641E+02  0.38569020731E+03 -0.69218745711E+03  0.79379575074E+03  0.10566000000E+00 0.  1.
          4    1    3    3  501    0  0.21571377599E+03 -0.58146477005E+03 -0.80800796784E+03  0.10185826368E+04  0.00000000000E+00 0.  1.
         13    1    1    2    0    0 -0.16847744535E+03  0.19577456274E+03  0.17770817336E+03  0.31351640316E+03  0.10566000000E+00 0. -1.
<mgrwt>
<rscale>  1 0.72192380E+03</rscale>
<asrwt>0</asrwt>
<pdfrwt beam="1">  1       21 0.61800579E-01 0.10169214E+04</pdfrwt>
<pdfrwt beam="2">  1        4 0.26526016E+00 0.10169214E+04</pdfrwt>
<totfact> 0.47932926E+00</totfact>
</mgrwt>
</event>
<event>
 6    1  0.1353269E-005  0.1012494E+04  0.7818608E-02  0.9760716E-01
         21   -1    0    0  501  502  0.00000000000E+00  0.00000000000E+00  0.63820701743E+03  0.63820701743E+03  0.00000000000E+00 0.  1.
          4   -1    0    0  502    0 -0.00000000000E+00 -0.00000000000E+00 -0.74959898763E+03  0.74959898763E+03  0.00000000000E+00 0.  1.
    9000010    2    1    2  501    0 -0.33145695735E+02  0.19740664365E+03  0.18588738696E+03  0.10294164859E+04  0.99251003052E+03 0.  0.
        -13    1    3    3    0    0  0.42402536925E+03  0.24418044058E+03 -0.84006650320E+02  0.49646624235E+03  0.10566000000E+00 0.  1.
          4    1    3    3  501    0 -0.45717106498E+03 -0.46773796926E+02  0.26989403728E+03  0.53295024354E+03  0.00000000000E+00 0.  1.
         13    1    1    2    0    0  0.33145695735E+02 -0.19740664365E+03 -0.29727935716E+03  0.35838951918E+03  0.10566000000E+00 0. -1.
<mgrwt>
<rscale>  1 0.67514042E+03</rscale>
<asrwt>0</asrwt>
<pdfrwt beam="1">  1       21 0.98185696E-01 0.10124940E+04</pdfrwt>
<pdfrwt beam="2">  1        4 0.11532292E+00 0.10124940E+04</pdfrwt>
<totfact> 0.18737762E+01</totfact>
</mgrwt>
</event>
<event>
 6    1  0.1353269E-005  0.9935483E+03  0.7818608E-02  0.1023606E+00
         21   -1    0    0  501  502  0.00000000000E+00  0.00000000000E+00  0.53992399706E+03  0.53992399706E+03  0.00000000000E+00 0.  1.
          4   -1    0    0  502    0 -0.00000000000E+00 -0.00000000000E+00 -0.50984980574E+03  0.50984980574E+03  0.00000000000E+00 0.  1.
    9000010    2    1    2  501    0 -0.21294056049E+02  0.42226057251E+02  0.57310742351E+02  0.99519983821E+03  0.99242214811E+03 0.  0.
        -13    1    3    3    0    0  0.16232681049E+03  0.26445343642E+02  0.49429665378E+03  0.52094005673E+03  0.10566000000E+00 0.  1.
          4    1    3    3  501    0 -0.18362086654E+03  0.15780713609E+02 -0.43698591143E+03  0.47425978149E+03  0.00000000000E+00 0.  1.
         13    1    1    2    0    0  0.21294056049E+02 -0.42226057251E+02 -0.27236551029E+02  0.54573964580E+02  0.10566000000E+00 0. -1.
<mgrwt>
<rscale>  1 0.46407434E+03</rscale>
<asrwt>0</asrwt>
<pdfrwt beam="1">  1       21 0.83065230E-01 0.99354829E+03</pdfrwt>
<pdfrwt beam="2">  1        4 0.78438432E-01 0.99354829E+03</pdfrwt>
<totfact> 0.70492111E+01</totfact>
</mgrwt>
</event>
<event>
 6    1  0.1353269E-005  0.9907753E+03  0.7818608E-02  0.9739575E-01
         21   -1    0    0  501  502  0.00000000000E+00  0.00000000000E+00  0.36919691933E+03  0.36919691933E+03  0.00000000000E+00 0.  1.
          4   -1    0    0  502    0 -0.00000000000E+00 -0.00000000000E+00 -0.11863305050E+04  0.11863305050E+04  0.00000000000E+00 0.  1.
    9000010    2    1    2  501    0 -0.70991272710E+02  0.21787536675E+03 -0.37843836170E+03  0.10605901082E+04  0.96391200206E+03 0.  0.
        -13    1    3    3    0    0  0.42271628181E+03 -0.13607315605E+02 -0.54729322130E+02  0.42646163229E+03  0.10566000000E+00 0.  1.
          4    1    3    3  501    0 -0.49370755452E+03  0.23148268236E+03 -0.32370903957E+03  0.63412847588E+03  0.00000000000E+00 0.  1.
         13    1    1    2    0    0  0.70991272710E+02 -0.21787536675E+03 -0.43869522401E+03  0.49493731620E+03  0.10566000000E+00 0. -1.
<mgrwt>
<rscale>  1 0.68708596E+03</rscale>
<asrwt>0</asrwt>
<pdfrwt beam="1">  1       21 0.56799527E-01 0.99077534E+03</pdfrwt>
<pdfrwt beam="2">  1        4 0.18251238E+00 0.99077534E+03</pdfrwt>
<totfact> 0.19672661E+01</totfact>
</mgrwt>
</event>
<event>
 6    1  0.1353269E-005  0.1011764E+04  0.7818608E-02  0.9840397E-01
          4   -1    0    0  502    0 -0.00000000000E+00  0.00000000000E+00  0.29725988026E+03  0.29725988026E+03  0.00000000000E+00 0.  1.
         21   -1    0    0  501  502  0.00000000000E+00 -0.00000000000E+00 -0.11461945114E+04  0.11461945114E+04  0.00000000000E+00 0. -1.
    9000010    2    1    2  501    0 -0.51686178500E+02  0.14551185591E+03 -0.71331624382E+03  0.12379367053E+04  0.99991102675E+03 0.  0.
        -13    1    3    3    0    0  0.10225609610E+03  0.14459779979E+03 -0.94407373042E+03  0.96054154128E+03  0.10566000000E+00 0.  1.
          4    1    3    3  501    0 -0.15394227460E+03  0.91405611937E+00  0.23075748660E+03  0.27739516404E+03  0.00000000000E+00 0.  1.
         13    1    1    2    0    0  0.51686178500E+02 -0.14551185591E+03 -0.13561838735E+03  0.20551768636E+03  0.10566000000E+00 0. -1.
<mgrwt>
<rscale>  1 0.63238952E+03</rscale>
<asrwt>0</asrwt>
<pdfrwt beam="2">  1       21 0.17633762E+00 0.10117644E+04</pdfrwt>
<pdfrwt beam="1">  1        4 0.45732289E-01 0.10117644E+04</pdfrwt>
<totfact> 0.31594667E+01</totfact>
</mgrwt>
</event>
<event>
 6    1  0.1945971E-005  0.8304167E+03  0.7818608E-02  0.1022881E+00
         21   -1    0    0  501  502  0.00000000000E+00  0.00000000000E+00  0.19409341644E+03  0.19409341644E+03  0.00000000000E+00 0.  1.
          4   -1    0    0  502    0 -0.00000000000E+00 -0.00000000000E+00 -0.12998324144E+04  0.12998324144E+04  0.00000000000E+00 0.  1.
    9000010    2    1    2  501    0 -0.34429656281E+02  0.75281733543E+02 -0.71901732101E+03  0.10984433316E+04  0.82628028183E+03 0.  0.
        -13    1    3    3    0    0 -0.41398799059E+03  0.12708673485E+02 -0.22193408412E+03  0.46989606893E+03  0.10566000000E+00 0.  1.
          4    1    3    3  501    0  0.37955833431E+03  0.62573060059E+02 -0.49708323689E+03  0.62854726265E+03  0.00000000000E+00 0.  1.
         13    1    1    2    0    0  0.34429656281E+02 -0.75281733543E+02 -0.38672167696E+03  0.39548249927E+03  0.10566000000E+00 0. -1.
<mgrwt>
<rscale>  1 0.46661121E+03</rscale>
<asrwt>0</asrwt>
<pdfrwt beam="1">  1       21 0.29860525E-01 0.83041667E+03</pdfrwt>
<pdfrwt beam="2">  1        4 0.19997422E+00 0.83041667E+03</pdfrwt>
<totfact> 0.58857660E+01</totfact>
</mgrwt>
</event>
<event>
 6    1  0.1353269E-005  0.9981799E+03  0.7818608E-02  0.1025149E+00
          4   -1    0    0  502    0 -0.00000000000E+00  0.00000000000E+00  0.43076333115E+03  0.43076333115E+03  0.00000000000E+00 0.  1.
         21   -1    0    0  501  502  0.00000000000E+00 -0.00000000000E+00 -0.72990602693E+03  0.72990602693E+03  0.00000000000E+00 0.  1.
    9000010    2    1    2  501    0  0.42657254636E+02  0.12763759767E+02 -0.38024171272E+03  0.10681511618E+04  0.99718633632E+03 0.  0.
        -13    1    3    3    0    0  0.45431736151E+03  0.22131512008E+03 -0.65544770949E+02  0.50958882985E+03  0.10566000000E+00 0.  1.
          4    1    3    3  501    0 -0.41166010687E+03 -0.20855136031E+03 -0.31469694178E+03  0.55856233192E+03  0.00000000000E+00 0.  1.
         13    1    1    2    0    0 -0.42657254636E+02 -0.12763759767E+02  0.81099016938E+02  0.92518196312E+02  0.10566000000E+00 0. -1.
<mgrwt>
<rscale>  1 0.45873310E+03</rscale>
<asrwt>0</asrwt>
<pdfrwt beam="2">  1       21 0.11229324E+00 0.99817992E+03</pdfrwt>
<pdfrwt beam="1">  1        4 0.66271282E-01 0.99817992E+03</pdfrwt>
<totfact> 0.49094548E+01</totfact>
</mgrwt>
</event>
<event>
 6    1  0.1353269E-005  0.1030547E+04  0.7818608E-02  0.9668488E-01
         21   -1    0    0  501  502  0.00000000000E+00  0.00000000000E+00  0.64030601504E+03  0.64030601504E+03  0.00000000000E+00 0.  1.
          4   -1    0    0  502    0 -0.00000000000E+00 -0.00000000000E+00 -0.10306506246E+04  0.10306506246E+04  0.00000000000E+00 0.  1.
    9000010    2    1    2  501    0 -0.16608606867E+03  0.19795049378E+03  0.17876124207E+03  0.10459362706E+04  0.99762624278E+03 0.  0.
        -13    1    3    3    0    0  0.31553928395E+03  0.37322202061E+02  0.38391709216E+03  0.49834760087E+03  0.10566000000E+00 0.  1.
          4    1    3    3  501    0 -0.48162535262E+03  0.16062829172E+03 -0.20515585009E+03  0.54758866972E+03  0.00000000000E+00 0.  1.
         13    1    1    2    0    0  0.16608606867E+03 -0.19795049378E+03 -0.56910585167E+03  0.62502036908E+03  0.10566000000E+00 0. -1.
<mgrwt>
<rscale>  1 0.72924373E+03</rscale>
<asrwt>0</asrwt>
<pdfrwt beam="1">  1       21 0.98508618E-01 0.10305470E+04</pdfrwt>
<pdfrwt beam="2">  1        4 0.15856163E+00 0.10305470E+04</pdfrwt>
<totfact> 0.80910513E+00</totfact>
</mgrwt>
</event>
<event>
 6    1  0.1353269E-005  0.1012107E+04  0.7818608E-02  0.9690854E-01
         21   -1    0    0  501  502  0.00000000000E+00  0.00000000000E+00  0.42823787761E+03  0.42823787761E+03  0.00000000000E+00 0.  1.
          4   -1    0    0  502    0 -0.00000000000E+00 -0.00000000000E+00 -0.12021503484E+04  0.12021503484E+04  0.00000000000E+00 0.  1.
    9000010    2    1    2  501    0 -0.24371827293E+03  0.67851968494E+02 -0.24089615643E+03  0.10403806932E+04  0.97997884797E+03 0.  0.
        -13    1    3    3    0    0 -0.58804878952E+03  0.91519318017E+02 -0.33460480123E+03  0.68274266645E+03  0.10566000000E+00 0.  1.
          4    1    3    3  501    0  0.34433051659E+03 -0.23667349523E+02  0.93708644793E+02  0.35763802678E+03  0.00000000000E+00 0.  1.
         13    1    1    2    0    0  0.24371827293E+03 -0.67851968494E+02 -0.53301631433E+03  0.59000753274E+03  0.10566000000E+00 0. -1.
<mgrwt>
<rscale>  1 0.71563984E+03</rscale>
<asrwt>0</asrwt>
<pdfrwt beam="1">  1       21 0.65882750E-01 0.10121072E+04</pdfrwt>
<pdfrwt beam="2">  1        4 0.18494621E+00 0.10121072E+04</pdfrwt>
<totfact> 0.13551559E+01</totfact>
</mgrwt>
</event>
<event>
 6    1  0.1353269E-005  0.8059450E+03  0.7818608E-02  0.9764595E-01
          4   -1    0    0  502    0 -0.00000000000E+00  0.00000000000E+00  0.52682512712E+03  0.52682512712E+03  0.00000000000E+00 0.  1.
         21   -1    0    0  501  502  0.00000000000E+00 -0.00000000000E+00 -0.75978182282E+03  0.75978182282E+03  0.00000000000E+00 0.  1.
    9000010    2    1    2  501    0  0.38721590706E+03 -0.59872238896E+02 -0.34856256016E+03  0.87809064582E+03  0.70429147393E+03 0.  0.
        -13    1    3    3    0    0 -0.16277611336E+02 -0.29875412853E+03 -0.93317399923E+01  0.29934275084E+03  0.10566000000E+00 0.  1.
          4    1    3    3  501    0  0.40349351840E+03  0.23888188964E+03 -0.33923082017E+03  0.57874789497E+03  0.00000000000E+00 0.  1.
         13    1    1    2    0    0 -0.38721590706E+03  0.59872238896E+02  0.11560586446E+03  0.40851630412E+03  0.10566000000E+00 0. -1.
<mgrwt>
<rscale>  1 0.67297661E+03</rscale>
<asrwt>0</asrwt>
<pdfrwt beam="2">  1       21 0.11688951E+00 0.80594499E+03</pdfrwt>
<pdfrwt beam="1">  1        4 0.81050020E-01 0.80594499E+03</pdfrwt>
<totfact> 0.28704726E+01</totfact>
</mgrwt>
</event>
<event>
 6    1  0.1353269E-005  0.9973996E+03  0.7818608E-02  0.1002614E+00
         21   -1    0    0  501  502  0.00000000000E+00  0.00000000000E+00  0.22805358365E+03  0.22805358365E+03  0.00000000000E+00 0.  1.
          4   -1    0    0  502    0 -0.00000000000E+00 -0.00000000000E+00 -0.14255126638E+04  0.14255126638E+04  0.00000000000E+00 0.  1.
    9000010    2    1    2  501    0  0.81682431381E+02  0.35434986805E+02 -0.12049708337E+04  0.15642124815E+04  0.99341749495E+03 0.  0.
        -13    1    3    3    0    0  0.39276792421E+03 -0.12584049375E+03 -0.11340264607E+04  0.12066973510E+04  0.10566000000E+00 0.  1.
          4    1    3    3  501    0 -0.31108549283E+03  0.16127548056E+03 -0.70944373010E+02  0.35751513050E+03  0.00000000000E+00 0.  1.
         13    1    1    2    0    0 -0.81682431381E+02 -0.35434986805E+02  0.75117535604E+01  0.89353765963E+02  0.10566000000E+00 0. -1.
<mgrwt>
<rscale>  1 0.54518656E+03</rscale>
<asrwt>0</asrwt>
<pdfrwt beam="1">  1       21 0.35085167E-01 0.99739961E+03</pdfrwt>
<pdfrwt beam="2">  1        4 0.21930964E+00 0.99739961E+03</pdfrwt>
<totfact> 0.31268414E+01</totfact>
</mgrwt>
</event>
<event>
 6    1  0.1353269E-005  0.1073260E+04  0.7818608E-02  0.9515629E-01
          4   -1    0    0  502    0 -0.00000000000E+00  0.00000000000E+00  0.15589248721E+04  0.15589248721E+04  0.00000000000E+00 0.  1.
         21   -1    0    0  501  502  0.00000000000E+00 -0.00000000000E+00 -0.39219027772E+03  0.39219027772E+03  0.00000000000E+00 0. -1.
    9000010    2    1    2  501    0  0.27355767999E+03 -0.27304014398E+03  0.11368932888E+04  0.15634616458E+04  0.10012498405E+04 0.  0.
        -13    1    3    3    0    0 -0.26242018055E+03 -0.10420774360E+03  0.91791963108E+03  0.96036454812E+03  0.10566000000E+00 0.  1.
          4    1    3    3  501    0  0.53597786054E+03 -0.16883240038E+03  0.21897365772E+03  0.60309709764E+03  0.00000000000E+00 0.  1.
         13    1    1    2    0    0 -0.27355767999E+03  0.27304014398E+03  0.29841305543E+02  0.38765350403E+03  0.10566000000E+00 0. -1.
<mgrwt>
<rscale>  1 0.83141315E+03</rscale>
<asrwt>0</asrwt>
<pdfrwt beam="2">  1       21 0.60336967E-01 0.10732595E+04</pdfrwt>
<pdfrwt beam="1">  1        4 0.23983459E+00 0.10732595E+04</pdfrwt>
<totfact> 0.72158886E+00</totfact>
</mgrwt>
</event>
<event>
 6    1  0.1353269E-005  0.1015058E+04  0.7818608E-02  0.9875922E-01
         21   -1    0    0  501  502  0.00000000000E+00  0.00000000000E+00  0.11273151711E+04  0.11273151711E+04  0.00000000000E+00 0.  1.
          4   -1    0    0  502    0 -0.00000000000E+00 -0.00000000000E+00 -0.37401541144E+03  0.37401541144E+03  0.00000000000E+00 0.  1.
    9000010    2    1    2  501    0  0.13577725664E+03  0.11591139932E+02  0.85830416691E+03  0.13292964154E+04  0.10058693251E+04 0.  0.
        -13    1    3    3    0    0 -0.18212341617E+03  0.83438402567E+02 -0.16235946045E+03  0.25785947975E+03  0.10566000000E+00 0.  1.
          4    1    3    3  501    0  0.31790067281E+03 -0.71847262634E+02  0.10206636274E+04  0.10714369357E+04  0.00000000000E+00 0.  1.
         13    1    1    2    0    0 -0.13577725664E+03 -0.11591139932E+02 -0.10500440725E+03  0.17203416711E+03  0.10566000000E+00 0. -1.
<mgrwt>
<rscale>  1 0.61442540E+03</rscale>
<asrwt>0</asrwt>
<pdfrwt beam="1">  1       21 0.17343310E+00 0.10150581E+04</pdfrwt>
<pdfrwt beam="2">  1        4 0.57540833E-01 0.10150581E+04</pdfrwt>
<totfact> 0.20385896E+01</totfact>
</mgrwt>
</event>
<event>
 6    1  0.1353269E-005  0.1010457E+04  0.7818608E-02  0.9797379E-01
          4   -1    0    0  502    0 -0.00000000000E+00  0.00000000000E+00  0.37729383435E+03  0.37729383435E+03  0.00000000000E+00 0.  1.
         21   -1    0    0  501  502  0.00000000000E+00 -0.00000000000E+00 -0.10074508626E+04  0.10074508626E+04  0.00000000000E+00 0.  1.
    9000010    2    1    2  501    0 -0.17785321764E+03  0.14504550351E+02 -0.65558589840E+03  0.12044982335E+04  0.99457577653E+03 0.  0.
        -13    1    3    3    0    0  0.29403236119E+03  0.11875575234E+03 -0.64770977601E+03  0.72116982968E+03  0.10566000000E+00 0.  1.
          4    1    3    3  501    0 -0.47188557882E+03 -0.10425120199E+03 -0.78761223908E+01  0.48332840380E+03  0.00000000000E+00 0.  1.
         13    1    1    2    0    0  0.17785321764E+03 -0.14504550351E+02  0.25428870115E+02  0.18024646350E+03  0.10566000000E+00 0. -1.
<mgrwt>
<rscale>  1 0.65503372E+03</rscale>
<asrwt>0</asrwt>
<pdfrwt beam="2">  1       21 0.15499244E+00 0.10104569E+04</pdfrwt>
<pdfrwt beam="1">  1        4 0.58045206E-01 0.10104569E+04</pdfrwt>
<totfact> 0.27694218E+01</totfact>
</mgrwt>
</event>
<event>
 6    1  0.1353269E-005  0.1094139E+04  0.7818608E-02  0.9455972E-01
          4   -1    0    0  502    0 -0.00000000000E+00  0.00000000000E+00  0.61285228226E+03  0.61285228226E+03  0.00000000000E+00 0.  1.
         21   -1    0    0  501  502  0.00000000000E+00 -0.00000000000E+00 -0.10187720191E+04  0.10187720191E+04  0.00000000000E+00 0. -1.
    9000010    2    1    2  501    0  0.17706698492E+03 -0.41343676791E+03 -0.12479261536E+03  0.11012327971E+04  0.99742558533E+03 0.  0.
        -13    1    3    3    0    0  0.18606617318E+03  0.92229135184E+02  0.35036844961E+03  0.40728969521E+03  0.10566000000E+00 0.  1.
          4    1    3    3  501    0 -0.89991882622E+01 -0.50566590310E+03 -0.47516106497E+03  0.69394310185E+03  0.00000000000E+00 0.  1.
         13    1    1    2    0    0 -0.17706698492E+03  0.41343676791E+03 -0.28112712145E+03  0.53039150426E+03  0.10566000000E+00 0. -1.
<mgrwt>
<rscale>  1 0.87609119E+03</rscale>
<asrwt>0</asrwt>
<pdfrwt beam="2">  1       21 0.15673416E+00 0.10941391E+04</pdfrwt>
<pdfrwt beam="1">  1        4 0.94284967E-01 0.10941391E+04</pdfrwt>
<totfact> 0.88511107E+00</totfact>
</mgrwt>
</event>
<event>
 6    1  0.1353269E-005  0.1018183E+04  0.7818608E-02  0.9734160E-01
         21   -1    0    0  501  502  0.00000000000E+00  0.00000000000E+00  0.13157781343E+04  0.13157781343E+04  0.00000000000E+00 0.  1.
          4   -1    0    0  502    0 -0.00000000000E+00 -0.00000000000E+00 -0.30348870803E+03  0.30348870803E+03  0.00000000000E+00 0.  1.
    9000010    2    1    2  501    0 -0.10136444041E+03 -0.18958004359E+03  0.95690430925E+03  0.13972693985E+04  0.99522890449E+03 0.  0.
        -13    1    3    3    0    0 -0.28606841877E+03 -0.45202315370E+03  0.19299900234E+03  0.56869033557E+03  0.10566000000E+00 0.  1.
          4    1    3    3  501    0  0.18470397836E+03  0.26244311011E+03  0.76390530691E+03  0.82857906297E+03  0.00000000000E+00 0.  1.
         13    1    1    2    0    0  0.10136444041E+03  0.18958004359E+03  0.55385117060E+02  0.22199744382E+03  0.10566000000E+00 0. -1.
<mgrwt>
<rscale>  1 0.69018824E+03</rscale>
<asrwt>0</asrwt>
<pdfrwt beam="1">  1       21 0.20242740E+00 0.10181827E+04</pdfrwt>
<pdfrwt beam="2">  1        4 0.46690571E-01 0.10181827E+04</pdfrwt>
<totfact> 0.19765775E+01</totfact>
</mgrwt>
</event>
<event>
 6    1  0.1353269E-005  0.1030190E+04  0.7818608E-02  0.9714628E-01
         21   -1    0    0  501  502  0.00000000000E+00  0.00000000000E+00  0.76871051583E+03  0.76871051583E+03  0.00000000000E+00 0.  1.
          4   -1    0    0  502    0 -0.00000000000E+00 -0.00000000000E+00 -0.55095496952E+03  0.55095496952E+03  0.00000000000E+00 0.  1.
    9000010    2    1    2  501    0  0.14599663152E+03 -0.16660632895E+03  0.31566764747E+03  0.10774683013E+04  0.10060910452E+04 0.  0.
        -13    1    3    3    0    0 -0.73708814090E+02 -0.33928268284E+03  0.59082993699E+03  0.68529245856E+03  0.10566000000E+00 0.  1.
          4    1    3    3  501    0  0.21970544561E+03  0.17267635389E+03 -0.27516228952E+03  0.39217584270E+03  0.00000000000E+00 0.  1.
         13    1    1    2    0    0 -0.14599663152E+03  0.16660632895E+03 -0.97912101167E+02  0.24219718409E+03  0.10566000000E+00 0. -1.
<mgrwt>
<rscale>  1 0.70152484E+03</rscale>
<asrwt>0</asrwt>
<pdfrwt beam="1">  1       21 0.11826316E+00 0.10301902E+04</pdfrwt>
<pdfrwt beam="2">  1        4 0.84762303E-01 0.10301902E+04</pdfrwt>
<totfact> 0.24528713E+01</totfact>
</mgrwt>
</event>
<event>
 6    1  0.1353269E-005  0.9848078E+03  0.7818608E-02  0.9818343E-01
         21   -1    0    0  501  502  0.00000000000E+00  0.00000000000E+00  0.34786639985E+03  0.34786639985E+03  0.00000000000E+00 0.  1.
          4   -1    0    0  502    0 -0.00000000000E+00 -0.00000000000E+00 -0.97721291168E+03  0.97721291168E+03  0.00000000000E+00 0.  1.
    9000010    2    1    2  501    0  0.21284730873E+02  0.17868532363E+03 -0.50872679665E+03  0.11084445694E+04  0.96822772380E+03 0.  0.
        -13    1    3    3    0    0 -0.87542756926E+02  0.14058817347E+03  0.27243154189E+03  0.31882240353E+03  0.10566000000E+00 0.  1.
          4    1    3    3  501    0  0.10882748780E+03  0.38097150164E+02 -0.78115833854E+03  0.78962216586E+03  0.00000000000E+00 0.  1.
         13    1    1    2    0    0 -0.21284730873E+02 -0.17868532363E+03 -0.12061971518E+03  0.21663474215E+03  0.10566000000E+00 0. -1.
<mgrwt>
<rscale>  1 0.64387376E+03</rscale>
<asrwt>0</asrwt>
<pdfrwt beam="1">  1       21 0.53517908E-01 0.98480780E+03</pdfrwt>
<pdfrwt beam="2">  1        4 0.15034045E+00 0.98480780E+03</pdfrwt>
<totfact> 0.38542386E+01</totfact>
</mgrwt>
</event>
<event>
 6    1  0.1353269E-005  0.1033893E+04  0.7818608E-02  0.9697242E-01
         21   -1    0    0  501  502  0.00000000000E+00  0.00000000000E+00  0.51767039817E+03  0.51767039817E+03  0.00000000000E+00 0.  1.
          4   -1    0    0  502    0 -0.00000000000E+00 -0.00000000000E+00 -0.77875787079E+03  0.77875787079E+03  0.00000000000E+00 0.  1.
    9000010    2    1    2  501    0 -0.95737885443E+02  0.21164650398E+03 -0.17446193200E+03  0.10485089659E+04  0.10074592302E+04 0.  0.
        -13    1    3    3    0    0  0.24671158916E+02 -0.23467882663E+03 -0.45158896854E+03  0.50952470541E+03  0.10566000000E+00 0.  1.
          4    1    3    3  501    0 -0.12040904436E+03  0.44632533062E+03  0.27712703654E+03  0.53898426053E+03  0.00000000000E+00 0.  1.
         13    1    1    2    0    0  0.95737885443E+02 -0.21164650398E+03 -0.86625540623E+02  0.24791930302E+03  0.10566000000E+00 0. -1.
<mgrwt>
<rscale>  1 0.71181246E+03</rscale>
<asrwt>0</asrwt>
<pdfrwt beam="1">  1       21 0.79641600E-01 0.10338927E+04</pdfrwt>
<pdfrwt beam="2">  1        4 0.11980890E+00 0.10338927E+04</pdfrwt>
<totfact> 0.28134008E+01</totfact>
</mgrwt>
</event>
<event>
 6    1  0.1353269E-005  0.1014937E+04  0.7818608E-02  0.9780977E-01
          4   -1    0    0  502    0 -0.00000000000E+00  0.00000000000E+00  0.13357416873E+04  0.13357416873E+04  0.00000000000E+00 0.  1.
         21   -1    0    0  501  502  0.00000000000E+00 -0.00000000000E+00 -0.51901315105E+03  0.51901315105E+03  0.00000000000E+00 0.  1.
    9000010    2    1    2  501    0 -0.16976580527E+03 -0.75652434382E+02 -0.22619080999E+01  0.10149399310E+04  0.99777463783E+03 0.  0.
        -13    1    3    3    0    0 -0.24615905884E+03  0.41360727207E+03  0.13719871815E+03  0.50048851853E+03  0.10566000000E+00 0.  1.
          4    1    3    3  501    0  0.76393253566E+02 -0.48925970645E+03 -0.13946062625E+03  0.51445141250E+03  0.00000000000E+00 0.  1.
         13    1    1    2    0    0  0.16976580527E+03  0.75652434382E+02  0.81899044433E+03  0.83981490730E+03  0.10566000000E+00 0. -1.
<mgrwt>
<rscale>  1 0.66393506E+03</rscale>
<asrwt>0</asrwt>
<pdfrwt beam="2">  1       21 0.79848178E-01 0.10149374E+04</pdfrwt>
<pdfrwt beam="1">  1        4 0.20549872E+00 0.10149374E+04</pdfrwt>
<totfact> 0.63302653E+00</totfact>
</mgrwt>
</event>
<event>
 6    1  0.1353269E-005  0.9846709E+03  0.7818608E-02  0.9893488E-01
          4   -1    0    0  502    0 -0.00000000000E+00  0.00000000000E+00  0.25413560780E+03  0.25413560780E+03  0.00000000000E+00 0.  1.
         21   -1    0    0  501  502  0.00000000000E+00 -0.00000000000E+00 -0.13271577375E+04  0.13271577375E+04  0.00000000000E+00 0.  1.
    9000010    2    1    2  501    0 -0.10278396316E+03  0.96599778709E+02 -0.10480449260E+04  0.14380455453E+04  0.97451565565E+03 0.  0.
        -13    1    3    3    0    0  0.10401963182E+03 -0.32409770083E+03 -0.61643199870E+02  0.34591805206E+03  0.10566000000E+00 0.  1.
          4    1    3    3  501    0 -0.20680359499E+03  0.42069747953E+03 -0.98640172612E+03  0.10921274932E+04  0.00000000000E+00 0.  1.
         13    1    1    2    0    0  0.10278396316E+03 -0.96599778709E+02 -0.24977203686E+02  0.14324779998E+03  0.10566000000E+00 0. -1.
<mgrwt>
<rscale>  1 0.60577905E+03</rscale>
<asrwt>0</asrwt>
<pdfrwt beam="2">  1       21 0.20417812E+00 0.98467092E+03</pdfrwt>
<pdfrwt beam="1">  1        4 0.39097786E-01 0.98467092E+03</pdfrwt>
<totfact> 0.27829600E+01</totfact>
</mgrwt>
</event>
<event>
 6    1  0.1353269E-005  0.1119018E+04  0.7818608E-02  0.9414717E-01
          4   -1    0    0  502    0 -0.00000000000E+00  0.00000000000E+00  0.30317079228E+04  0.30317079228E+04  0.00000000000E+00 0.  1.
         21   -1    0    0  501  502  0.00000000000E+00 -0.00000000000E+00 -0.34431243922E+03  0.34431243922E+03  0.00000000000E+00 0.  1.
    9000010    2    1    2  501    0  0.46975254704E+03  0.12728318011E+03  0.67770488628E+03  0.13082377885E+04  0.10076377002E+04 0.  0.
        -13    1    3    3    0    0  0.55021967947E+02  0.21886568993E+03  0.82761780427E+03  0.85783497730E+03  0.10566000000E+00 0.  1.
          4    1    3    3  501    0  0.41473057909E+03 -0.91582509818E+02 -0.14991291798E+03  0.45040281117E+03  0.00000000000E+00 0.  1.
         13    1    1    2    0    0 -0.46975254704E+03 -0.12728318011E+03  0.20096905973E+04  0.20677825736E+04  0.10566000000E+00 0. -1.
<mgrwt>
<rscale>  1 0.90874353E+03</rscale>
<asrwt>0</asrwt>
<pdfrwt beam="2">  1       21 0.52971147E-01 0.11190184E+04</pdfrwt>
<pdfrwt beam="1">  1        4 0.46641659E+00 0.11190184E+04</pdfrwt>
<totfact> 0.29693556E-01</totfact>
</mgrwt>
</event>
<event>
 6    1  0.1353269E-005  0.9285635E+03  0.7818608E-02  0.1018930E+00
          4   -1    0    0  502    0 -0.00000000000E+00  0.00000000000E+00  0.18950731886E+04  0.18950731886E+04  0.00000000000E+00 0.  1.
         21   -1    0    0  501  502  0.00000000000E+00 -0.00000000000E+00 -0.14380954876E+03  0.14380954876E+03  0.00000000000E+00 0.  1.
    9000010    2    1    2  501    0  0.28484208410E+02  0.60329814268E+02  0.13907557403E+04  0.16722535058E+04  0.92616371228E+03 0.  0.
        -13    1    3    3    0    0  0.43891624579E+03  0.19611673665E+03  0.57903988310E+03  0.75259314546E+03  0.10566000000E+00 0.  1.
          4    1    3    3  501    0 -0.41043203738E+03 -0.13578692238E+03  0.81171585723E+03  0.91966036039E+03  0.00000000000E+00 0.  1.
         13    1    1    2    0    0 -0.28484208410E+02 -0.60329814268E+02  0.36050789951E+03  0.36662923150E+03  0.10566000000E+00 0. -1.
<mgrwt>
<rscale>  1 0.48074691E+03</rscale>
<asrwt>0</asrwt>
<pdfrwt beam="2">  1       21 0.22124547E-01 0.92856355E+03</pdfrwt>
<pdfrwt beam="1">  1        4 0.29154970E+00 0.92856355E+03</pdfrwt>
<totfact> 0.28242997E+01</totfact>
</mgrwt>
</event>
<event>
 6    1  0.1353269E-005  0.1047556E+04  0.7818608E-02  0.9724902E-01
         21   -1    0    0  501  502  0.00000000000E+00  0.00000000000E+00  0.35372767169E+03  0.35372767169E+03  0.00000000000E+00 0.  1.
          4   -1    0    0  502    0 -0.00000000000E+00 -0.00000000000E+00 -0.11100576577E+04  0.11100576577E+04  0.00000000000E+00 0.  1.
    9000010    2    1    2  501    0 -0.20241307802E+03 -0.21784612983E+02 -0.60101617483E+03  0.12077228085E+04  0.10275837271E+04 0.  0.
        -13    1    3    3    0    0 -0.37737830329E+03 -0.34433217959E+03 -0.66152631117E+03  0.83582061786E+03  0.10566000000E+00 0.  1.
          4    1    3    3  501    0  0.17496522527E+03  0.32254756661E+03  0.60510136346E+02  0.37190219061E+03  0.00000000000E+00 0.  1.
         13    1    1    2    0    0  0.20241307802E+03  0.21784612983E+02 -0.15531381123E+03  0.25606252096E+03  0.10566000000E+00 0. -1.
<mgrwt>
<rscale>  1 0.69553316E+03</rscale>
<asrwt>0</asrwt>
<pdfrwt beam="1">  1       21 0.54419641E-01 0.10475562E+04</pdfrwt>
<pdfrwt beam="2">  1        4 0.17077811E+00 0.10475562E+04</pdfrwt>
<totfact> 0.26010564E+01</totfact>
</mgrwt>
</event>
<event>
 6    1  0.1353269E-005  0.9014514E+03  0.7818608E-02  0.9696213E-01
         21   -1    0    0  501  502  0.00000000000E+00  0.00000000000E+00  0.46115583236E+03  0.46115583236E+03  0.00000000000E+00 0.  1.
          4   -1    0    0  502    0 -0.00000000000E+00 -0.00000000000E+00 -0.94018307420E+03  0.94018307420E+03  0.00000000000E+00 0.  1.
    9000010    2    1    2  501    0 -0.14118118504E+03  0.32208521124E+03 -0.53043402849E+03  0.10459325487E+04  0.83002628128E+03 0.  0.
        -13    1    3    3    0    0  0.86733683086E+02  0.55154405938E+03 -0.43783570974E+03  0.70952357332E+03  0.10566000000E+00 0.  1.
          4    1    3    3  501    0 -0.22791486812E+03 -0.22945884814E+03 -0.92598318748E+02  0.33640897541E+03  0.00000000000E+00 0.  1.
         13    1    1    2    0    0  0.14118118504E+03 -0.32208521124E+03  0.51406786653E+02  0.35540635783E+03  0.10566000000E+00 0. -1.
<mgrwt>
<rscale>  1 0.71242687E+03</rscale>
<asrwt>0</asrwt>
<pdfrwt beam="1">  1       21 0.70947052E-01 0.90145141E+03</pdfrwt>
<pdfrwt beam="2">  1        4 0.14464355E+00 0.90145141E+03</pdfrwt>
<totfact> 0.22921606E+01</totfact>
</mgrwt>
</event>
<event>
 6    1  0.1353269E-005  0.1114848E+04  0.7818608E-02  0.9906136E-01
          4   -1    0    0  502    0 -0.00000000000E+00  0.00000000000E+00  0.11093883335E+04  0.11093883335E+04  0.00000000000E+00 0.  1.
         21   -1    0    0  501  502  0.00000000000E+00 -0.00000000000E+00 -0.35730036433E+03  0.35730036433E+03  0.00000000000E+00 0.  1.
    9000010    2    1    2  501    0  0.81070371099E+02 -0.46203695855E+02  0.78957145127E+03  0.13661292170E+04  0.11109359902E+04 0.  0.
        -13    1    3    3    0    0 -0.75520884437E+02  0.14133604864E+03  0.10186711338E+04  0.10311984158E+04  0.10566000000E+00 0.  1.
          4    1    3    3  501    0  0.15659125554E+03 -0.18753974449E+03 -0.22909968256E+03  0.33493080125E+03  0.00000000000E+00 0.  1.
         13    1    1    2    0    0 -0.81070371099E+02  0.46203695855E+02 -0.37483482124E+02  0.10055948079E+03  0.10566000000E+00 0. -1.
<mgrwt>
<rscale>  1 0.59964827E+03</rscale>
<asrwt>0</asrwt>
<pdfrwt beam="2">  1       21 0.54969287E-01 0.11148480E+04</pdfrwt>
<pdfrwt beam="1">  1        4 0.17067513E+00 0.11148480E+04</pdfrwt>
<totfact> 0.25336674E+01</totfact>
</mgrwt>
</event>
<event>
 6    1  0.1353269E-005  0.9318058E+03  0.7818608E-02  0.9660416E-01
         21   -1    0    0  501  502  0.00000000000E+00  0.00000000000E+00  0.16473983971E+04  0.16473983971E+04  0.00000000000E+00 0.  1.
          4   -1    0    0  502    0 -0.00000000000E+00 -0.00000000000E+00 -0.44066836022E+03  0.44066836022E+03  0.00000000000E+00 0.  1.
    9000010    2    1    2  501    0 -0.36026757113E+02  0.35740782522E+03  0.13987829800E+04  0.16807307475E+04  0.85978121602E+03 0.  0.
        -13    1    3    3    0    0  0.61805476448E+02 -0.11107465853E+03 -0.63522045969E+02  0.14210052137E+03  0.10566000000E+00 0.  1.
          4    1    3    3  501    0 -0.97832233560E+02  0.46848248375E+03  0.14623050260E+04  0.15386302261E+04  0.00000000000E+00 0.  1.
         13    1    1    2    0    0  0.36026757113E+02 -0.35740782522E+03 -0.19205294320E+03  0.40733600984E+03  0.10566000000E+00 0. -1.
<mgrwt>
<rscale>  1 0.73423296E+03</rscale>
<asrwt>0</asrwt>
<pdfrwt beam="1">  1       21 0.25344590E+00 0.93180578E+03</pdfrwt>
<pdfrwt beam="2">  1        4 0.67795133E-01 0.93180578E+03</pdfrwt>
<totfact> 0.41603542E+00</totfact>
</mgrwt>
</event>
<event>
 6    1  0.1353269E-005  0.1137220E+04  0.7818608E-02  0.9461913E-01
          4   -1    0    0  502    0 -0.00000000000E+00  0.00000000000E+00  0.83812966149E+03  0.83812966149E+03  0.00000000000E+00 0.  1.
         21   -1    0    0  501  502  0.00000000000E+00 -0.00000000000E+00 -0.75112083603E+03  0.75112083603E+03  0.00000000000E+00 0. -1.
    9000010    2    1    2  501    0 -0.29018648400E+03 -0.26390844257E+03 -0.12381278530E+03  0.11439397922E+04  0.10674327992E+04 0.  0.
        -13    1    3    3    0    0 -0.31192187108E+03 -0.62299602625E+03 -0.28113015103E+03  0.75130118818E+03  0.10566000000E+00 0.  1.
          4    1    3    3  501    0  0.21735387083E+02  0.35908758367E+03  0.15731736572E+03  0.39263860401E+03  0.00000000000E+00 0.  1.
         13    1    1    2    0    0  0.29018648400E+03  0.26390844257E+03  0.21082161076E+03  0.44531070533E+03  0.10566000000E+00 0. -1.
<mgrwt>
<rscale>  1 0.87151033E+03</rscale>
<asrwt>0</asrwt>
<pdfrwt beam="2">  1       21 0.11555705E+00 0.11372197E+04</pdfrwt>
<pdfrwt beam="1">  1        4 0.12894303E+00 0.11372197E+04</pdfrwt>
<totfact> 0.92518251E+00</totfact>
</mgrwt>
</event>
<event>
 6    1  0.1353269E-005  0.1027518E+04  0.7818608E-02  0.9689245E-01
         21   -1    0    0  501  502  0.00000000000E+00  0.00000000000E+00  0.21018614979E+04  0.21018614979E+04  0.00000000000E+00 0. -1.
          4   -1    0    0  502    0 -0.00000000000E+00 -0.00000000000E+00 -0.26118521267E+03  0.26118521267E+03  0.00000000000E+00 0.  1.
    9000010    2    1    2  501    0  0.18800347030E+03 -0.15409321411E+03  0.82225179196E+03  0.13160135291E+04  0.99835042738E+03 0.  0.
        -13    1    3    3    0    0 -0.13970928008E+03  0.17297754632E+03  0.82352027096E+03  0.85300970822E+03  0.10566000000E+00 0.  1.
          4    1    3    3  501    0  0.32771275039E+03 -0.32707076043E+03 -0.12684789925E+01  0.46300382086E+03  0.00000000000E+00 0.  1.
         13    1    1    2    0    0 -0.18800347030E+03  0.15409321411E+03  0.10184244933E+04  0.10470331815E+04  0.10566000000E+00 0. -1.
<mgrwt>
<rscale>  1 0.71660770E+03</rscale>
<asrwt>0</asrwt>
<pdfrwt beam="1">  1       21 0.32336330E+00 0.10275182E+04</pdfrwt>
<pdfrwt beam="2">  1        4 0.40182342E-01 0.10275182E+04</pdfrwt>
<totfact> 0.45575721E+00</totfact>
</mgrwt>
</event>
<event>
 6    1  0.1353269E-005  0.1053243E+04  0.7818608E-02  0.9576358E-01
         21   -1    0    0  501  502  0.00000000000E+00  0.00000000000E+00  0.12194885698E+04  0.12194885698E+04  0.00000000000E+00 0.  1.
          4   -1    0    0  502    0 -0.00000000000E+00 -0.00000000000E+00 -0.44222666933E+03  0.44222666933E+03  0.00000000000E+00 0.  1.
    9000010    2    1    2  501    0 -0.16137554715E+03  0.28941103867E+03  0.81006856787E+03  0.13287330998E+04  0.99975984577E+03 0.  0.
        -13    1    3    3    0    0 -0.21903940114E+03  0.47162276285E+03  0.24859704826E+02  0.52059994793E+03  0.10566000000E+00 0.  1.
          4    1    3    3  501    0  0.57663853988E+02 -0.18221172418E+03  0.78520886304E+03  0.80813315183E+03  0.00000000000E+00 0.  1.
         13    1    1    2    0    0  0.16137554715E+03 -0.28941103867E+03 -0.32806667430E+02  0.33298213934E+03  0.10566000000E+00 0. -1.
<mgrwt>
<rscale>  1 0.78880944E+03</rscale>
<asrwt>0</asrwt>
<pdfrwt beam="1">  1       21 0.18761362E+00 0.10532429E+04</pdfrwt>
<pdfrwt beam="2">  1        4 0.68034873E-01 0.10532429E+04</pdfrwt>
<totfact> 0.11084923E+01</totfact>
</mgrwt>
</event>
<event>
 6    1  0.1353269E-005  0.1039959E+04  0.7818608E-02  0.9631856E-01
         21   -1    0    0  501  502  0.00000000000E+00  0.00000000000E+00  0.47232922289E+03  0.47232922289E+03  0.00000000000E+00 0.  1.
          4   -1    0    0  502    0 -0.00000000000E+00 -0.00000000000E+00 -0.10472819463E+04  0.10472819463E+04  0.00000000000E+00 0.  1.
    9000010    2    1    2  501    0 -0.91318983831E+02 -0.26963624467E+03 -0.21717450594E+03  0.10623933597E+04  0.10002359839E+04 0.  0.
        -13    1    3    3    0    0  0.27337986654E+03  0.14993566254E+03  0.19729382425E+03  0.36897441454E+03  0.10566000000E+00 0.  1.
          4    1    3    3  501    0 -0.36469885038E+03 -0.41957190721E+03 -0.41446833019E+03  0.69341894517E+03  0.00000000000E+00 0.  1.
         13    1    1    2    0    0  0.91318983831E+02  0.26963624467E+03 -0.35777821748E+03  0.45721780949E+03  0.10566000000E+00 0. -1.
<mgrwt>
<rscale>  1 0.75223154E+03</rscale>
<asrwt>0</asrwt>
<pdfrwt beam="1">  1       21 0.72666035E-01 0.10399591E+04</pdfrwt>
<pdfrwt beam="2">  1        4 0.16112030E+00 0.10399591E+04</pdfrwt>
<totfact> 0.15978367E+01</totfact>
</mgrwt>
</event>
<event>
 6    1  0.1353269E-005  0.1193914E+04  0.7818608E-02  0.9281458E-01
          4   -1    0    0  502    0 -0.00000000000E+00  0.00000000000E+00  0.72567787730E+03  0.72567787730E+03  0.00000000000E+00 0.  1.
         21   -1    0    0  501  502  0.00000000000E+00 -0.00000000000E+00 -0.15831104035E+04  0.15831104035E+04  0.00000000000E+00 0.  1.
    9000010    2    1    2  501    0 -0.64722200274E+03 -0.45219097449E+02 -0.10928828913E+04  0.16185868803E+04  0.10022421800E+04 0.  0.
        -13    1    3    3    0    0 -0.76897186106E+02 -0.47405928775E+03 -0.44961947058E+03  0.65787769762E+03  0.10566000000E+00 0.  1.
          4    1    3    3  501    0 -0.57032481664E+03  0.42884019030E+03 -0.64326342070E+03  0.96070918269E+03  0.00000000000E+00 0.  1.
         13    1    1    2    0    0  0.64722200274E+03  0.45219097449E+02  0.23545036510E+03  0.69020140046E+03  0.10566000000E+00 0. -1.
<mgrwt>
<rscale>  1 0.10250792E+04</rscale>
<asrwt>0</asrwt>
<pdfrwt beam="2">  1       21 0.24355544E+00 0.11939139E+04</pdfrwt>
<pdfrwt beam="1">  1        4 0.11164275E+00 0.11939139E+04</pdfrwt>
<totfact> 0.14317390E+00</totfact>
</mgrwt>
</event>
<event>
 6    1  0.1353269E-005  0.1030906E+04  0.7818608E-02  0.9835526E-01
          4   -1    0    0  502    0 -0.00000000000E+00  0.00000000000E+00  0.15725156448E+04  0.15725156448E+04  0.00000000000E+00 0.  1.
         21   -1    0    0  501  502  0.00000000000E+00 -0.00000000000E+00 -0.36103422510E+03  0.36103422510E+03  0.00000000000E+00 0.  1.
    9000010    2    1    2  501    0  0.14215540083E+03  0.42285345363E+02  0.39545050696E+03  0.11041508886E+04  0.10201822744E+04 0.  0.
        -13    1    3    3    0    0  0.12099476737E+03 -0.39991366574E+03 -0.11018191555E+03  0.43210038122E+03  0.10566000000E+00 0.  1.
          4    1    3    3  501    0  0.21160633455E+02  0.44219901110E+03  0.50563242250E+03  0.67205050741E+03  0.00000000000E+00 0.  1.
         13    1    1    2    0    0 -0.14215540083E+03 -0.42285345363E+02  0.81603091277E+03  0.82939898130E+03  0.10566000000E+00 0. -1.
<mgrwt>
<rscale>  1 0.63490383E+03</rscale>
<asrwt>0</asrwt>
<pdfrwt beam="2">  1       21 0.55543728E-01 0.10309064E+04</pdfrwt>
<pdfrwt beam="1">  1        4 0.24192548E+00 0.10309064E+04</pdfrwt>
<totfact> 0.84556269E+00</totfact>
</mgrwt>
</event>
<event>
 6    1  0.1353269E-005  0.1046345E+04  0.7818608E-02  0.9604987E-01
         21   -1    0    0  501  502  0.00000000000E+00  0.00000000000E+00  0.84119141301E+03  0.84119141301E+03  0.00000000000E+00 0.  1.
          4   -1    0    0  502    0 -0.00000000000E+00 -0.00000000000E+00 -0.10113305242E+04  0.10113305242E+04  0.00000000000E+00 0.  1.
    9000010    2    1    2  501    0  0.77713981881E+02  0.29631106053E+03  0.46679877800E+03  0.11457478620E+04  0.10004985540E+04 0.  0.
        -13    1    3    3    0    0  0.14269212223E+03  0.61224126151E+03  0.52372148263E+03  0.81822038998E+03  0.10566000000E+00 0.  1.
          4    1    3    3  501    0 -0.64978140348E+02 -0.31593020098E+03 -0.56922704630E+02  0.32752747200E+03  0.00000000000E+00 0.  1.
         13    1    1    2    0    0 -0.77713981881E+02 -0.29631106053E+03 -0.63693788920E+03  0.70677407524E+03  0.10566000000E+00 0. -1.
<mgrwt>
<rscale>  1 0.76966971E+03</rscale>
<asrwt>0</asrwt>
<pdfrwt beam="1">  1       21 0.12941406E+00 0.10463446E+04</pdfrwt>
<pdfrwt beam="2">  1        4 0.15558931E+00 0.10463446E+04</pdfrwt>
<totfact> 0.42310025E+00</totfact>
</mgrwt>
</event>
<event>
 6    1  0.1353269E-005  0.1020371E+04  0.7818608E-02  0.9793845E-01
          4   -1    0    0  502    0 -0.00000000000E+00  0.00000000000E+00  0.95262694566E+03  0.95262694566E+03  0.00000000000E+00 0.  1.
         21   -1    0    0  501  502  0.00000000000E+00 -0.00000000000E+00 -0.38222550623E+03  0.38222550623E+03  0.00000000000E+00 0.  1.
    9000010    2    1    2  501    0  0.13407017997E+03 -0.11296656012E+03  0.41841913110E+03  0.11028289831E+04  0.10051969657E+04 0.  0.
        -13    1    3    3    0    0  0.32745828329E+03  0.37298085457E+03  0.17902200903E+03  0.52762916528E+03  0.10566000000E+00 0.  1.
          4    1    3    3  501    0 -0.19338810333E+03 -0.48594741469E+03  0.23939712207E+03  0.57519981781E+03  0.00000000000E+00 0.  1.
         13    1    1    2    0    0 -0.13407017997E+03  0.11296656012E+03  0.15198230833E+03  0.23202346880E+03  0.10566000000E+00 0. -1.
<mgrwt>
<rscale>  1 0.65693894E+03</rscale>
<asrwt>0</asrwt>
<pdfrwt beam="2">  1       21 0.58803924E-01 0.10203711E+04</pdfrwt>
<pdfrwt beam="1">  1        4 0.14655799E+00 0.10203711E+04</pdfrwt>
<totfact> 0.33428151E+01</totfact>
</mgrwt>
</event>
<event>
 6    1  0.1353269E-005  0.1260110E+04  0.7818608E-02  0.9192188E-01
          4   -1    0    0  502    0 -0.00000000000E+00  0.00000000000E+00  0.19628866709E+04  0.19628866709E+04  0.00000000000E+00 0.  1.
         21   -1    0    0  501  502  0.00000000000E+00 -0.00000000000E+00 -0.52423477255E+03  0.52423477255E+03  0.00000000000E+00 0.  1.
    9000010    2    1    2  501    0  0.58975010981E+03 -0.49218462974E+03  0.86567155014E+03  0.15288117897E+04  0.99891308629E+03 0.  0.
        -13    1    3    3    0    0  0.23131607739E+03 -0.72371558272E+02 -0.20939999221E+03  0.32030163598E+03  0.10566000000E+00 0.  1.
          4    1    3    3  501    0  0.35843403241E+03 -0.41981307146E+03  0.10750715424E+04  0.12085101538E+04  0.00000000000E+00 0.  1.
         13    1    1    2    0    0 -0.58975010981E+03  0.49218462974E+03  0.57298034817E+03  0.95830965367E+03  0.10566000000E+00 0. -1.
<mgrwt>
<rscale>  1 0.11134421E+04</rscale>
<asrwt>0</asrwt>
<pdfrwt beam="2">  1       21 0.80651504E-01 0.12601104E+04</pdfrwt>
<pdfrwt beam="1">  1        4 0.30198256E+00 0.12601104E+04</pdfrwt>
<totfact> 0.14900529E+00</totfact>
</mgrwt>
</event>
<event>
 6    1  0.1353269E-005  0.1058876E+04  0.7818608E-02  0.9599209E-01
         21   -1    0    0  501  502  0.00000000000E+00  0.00000000000E+00  0.30840478194E+04  0.30840478194E+04  0.00000000000E+00 0.  1.
          4   -1    0    0  502    0 -0.00000000000E+00 -0.00000000000E+00 -0.23381594440E+03  0.23381594440E+03  0.00000000000E+00 0.  1.
    9000010    2    1    2  501    0 -0.29937087108E+03 -0.35681893294E+02  0.28231099216E+04  0.30151564340E+04  0.10150480660E+04 0.  0.
        -13    1    3    3    0    0  0.15324088170E+03 -0.41665728076E+03  0.15306545035E+04  0.15937343812E+04  0.10566000000E+00 0.  1.
          4    1    3    3  501    0 -0.45261175278E+03  0.38097538747E+03  0.12924554181E+04  0.14214220528E+04  0.00000000000E+00 0.  1.
         13    1    1    2    0    0  0.29937087108E+03  0.35681893294E+02  0.27121953365E+02  0.30270732974E+03  0.10566000000E+00 0. -1.
<mgrwt>
<rscale>  1 0.77348527E+03</rscale>
<asrwt>0</asrwt>
<pdfrwt beam="1">  1       21 0.47446886E+00 0.10588761E+04</pdfrwt>
<pdfrwt beam="2">  1        4 0.35971686E-01 0.10588761E+04</pdfrwt>
<totfact> 0.57279819E-01</totfact>
</mgrwt>
</event>
<event>
 6    1  0.1353269E-005  0.1010287E+04  0.7818608E-02  0.9673756E-01
          4   -1    0    0  502    0 -0.00000000000E+00  0.00000000000E+00  0.19619367709E+03  0.19619367709E+03  0.00000000000E+00 0.  1.
         21   -1    0    0  501  502  0.00000000000E+00 -0.00000000000E+00 -0.20909121919E+04  0.20909121919E+04  0.00000000000E+00 0.  1.
    9000010    2    1    2  501    0 -0.22045028135E+03 -0.15489141767E+03 -0.15361347354E+04  0.18385838340E+04  0.97369960035E+03 0.  0.
        -13    1    3    3    0    0  0.35597276291E+03 -0.21232468370E+03 -0.80820375446E+03  0.90829053674E+03  0.10566000000E+00 0.  1.
          4    1    3    3  501    0 -0.57642304426E+03  0.57433266030E+02 -0.72793098089E+03  0.93029329727E+03  0.00000000000E+00 0.  1.
         13    1    1    2    0    0  0.22045028135E+03  0.15489141767E+03 -0.35858377948E+03  0.44852203501E+03  0.10566000000E+00 0. -1.
<mgrwt>
<rscale>  1 0.72601077E+03</rscale>
<asrwt>0</asrwt>
<pdfrwt beam="2">  1       21 0.32167882E+00 0.10102874E+04</pdfrwt>
<pdfrwt beam="1">  1        4 0.30183641E-01 0.10102874E+04</pdfrwt>
<totfact> 0.82986034E+00</totfact>
</mgrwt>
</event>
<event>
 6    1  0.1353269E-005  0.1038086E+04  0.7818608E-02  0.9697103E-01
          4   -1    0    0  502    0 -0.00000000000E+00  0.00000000000E+00  0.83508815995E+03  0.83508815995E+03  0.00000000000E+00 0.  1.
         21   -1    0    0  501  502  0.00000000000E+00 -0.00000000000E+00 -0.58132150229E+03  0.58132150229E+03  0.00000000000E+00 0. -1.
    9000010    2    1    2  501    0  0.15753740363E+03  0.16702190678E+03 -0.45659400245E+02  0.10390897367E+04  0.10123775725E+04 0.  0.
        -13    1    3    3    0    0  0.12787352739E+02 -0.24543519090E+02  0.46971499111E+03  0.47052957904E+03  0.10566000000E+00 0.  1.
          4    1    3    3  501    0  0.14475005089E+03  0.19156542587E+03 -0.51537439135E+03  0.56856015767E+03  0.00000000000E+00 0.  1.
         13    1    1    2    0    0 -0.15753740363E+03 -0.16702190678E+03  0.29942605790E+03  0.37731992553E+03  0.10566000000E+00 0. -1.
<mgrwt>
<rscale>  1 0.71189533E+03</rscale>
<asrwt>0</asrwt>
<pdfrwt beam="2">  1       21 0.89434077E-01 0.10380861E+04</pdfrwt>
<pdfrwt beam="1">  1        4 0.12847510E+00 0.10380861E+04</pdfrwt>
<totfact> 0.17862253E+01</totfact>
</mgrwt>
</event>
<event>
 6    1  0.1353269E-005  0.1177449E+04  0.7818608E-02  0.9318904E-01
         21   -1    0    0  501  502  0.00000000000E+00  0.00000000000E+00  0.10936219807E+04  0.10936219807E+04  0.00000000000E+00 0. -1.
          4   -1    0    0  502    0 -0.00000000000E+00 -0.00000000000E+00 -0.71640517407E+03  0.71640517407E+03  0.00000000000E+00 0.  1.
    9000010    2    1    2  501    0 -0.24804550381E+03 -0.53522345403E+03  0.20202469621E+03  0.11946549061E+04  0.10190170014E+04 0.  0.
        -13    1    3    3    0    0 -0.22752076860E+03  0.16209418959E+03 -0.24041485669E+03  0.36856416120E+03  0.10566000000E+00 0.  1.
          4    1    3    3  501    0 -0.20524735209E+02 -0.69731764362E+03  0.44243955290E+03  0.82609074491E+03  0.00000000000E+00 0.  1.
         13    1    1    2    0    0  0.24804550381E+03  0.53522345403E+03  0.17519211044E+03  0.61537224867E+03  0.10566000000E+00 0. -1.
<mgrwt>
<rscale>  1 0.99060980E+03</rscale>
<asrwt>0</asrwt>
<pdfrwt beam="1">  1       21 0.16824954E+00 0.11774491E+04</pdfrwt>
<pdfrwt beam="2">  1        4 0.11021618E+00 0.11774491E+04</pdfrwt>
<totfact> 0.48895991E+00</totfact>
</mgrwt>
</event>
<event>
 6    1  0.1353269E-005  0.1088292E+04  0.7818608E-02  0.9485152E-01
         21   -1    0    0  501  502  0.00000000000E+00  0.00000000000E+00  0.27999545717E+04  0.27999545717E+04  0.00000000000E+00 0.  1.
          4   -1    0    0  502    0 -0.00000000000E+00 -0.00000000000E+00 -0.22054218122E+03  0.22054218122E+03  0.00000000000E+00 0.  1.
    9000010    2    1    2  501    0 -0.41165499646E+03 -0.25103021375E+02  0.22242738588E+04  0.24762418626E+04  0.10071194395E+04 0.  0.
        -13    1    3    3    0    0 -0.60733591223E+03 -0.29478880025E+03  0.99352019902E+03  0.12011826439E+04  0.10566000000E+00 0.  1.
          4    1    3    3  501    0  0.19568091577E+03  0.26968577888E+03  0.12307536598E+04  0.12750592187E+04  0.00000000000E+00 0.  1.
         13    1    1    2    0    0  0.41165499646E+03  0.25103021375E+02  0.35513853173E+03  0.54425489036E+03  0.10566000000E+00 0. -1.
<mgrwt>
<rscale>  1 0.85387430E+03</rscale>
<asrwt>0</asrwt>
<pdfrwt beam="1">  1       21 0.43076222E+00 0.10882920E+04</pdfrwt>
<pdfrwt beam="2">  1        4 0.33929568E-01 0.10882920E+04</pdfrwt>
<totfact> 0.12806435E+00</totfact>
</mgrwt>
</event>
<event>
 6    1  0.1353269E-005  0.9965106E+03  0.7818608E-02  0.9825281E-01
          4   -1    0    0  502    0 -0.00000000000E+00  0.00000000000E+00  0.15268952765E+03  0.15268952765E+03  0.00000000000E+00 0.  1.
         21   -1    0    0  501  502  0.00000000000E+00 -0.00000000000E+00 -0.22562998349E+04  0.22562998349E+04  0.00000000000E+00 0.  1.
    9000010    2    1    2  501    0 -0.13135323990E+02  0.16927873918E+03 -0.18849320415E+04  0.21321355684E+04  0.98193963793E+03 0.  0.
        -13    1    3    3    0    0 -0.41808777298E+02 -0.25714415481E+03 -0.15939424231E+04  0.16150924276E+04  0.10566000000E+00 0.  1.
          4    1    3    3  501    0  0.28673453308E+02  0.42642289399E+03 -0.29098961840E+03  0.51704314081E+03  0.00000000000E+00 0.  1.
         13    1    1    2    0    0  0.13135323990E+02 -0.16927873918E+03 -0.21867826570E+03  0.27685379414E+03  0.10566000000E+00 0. -1.
<mgrwt>
<rscale>  1 0.64023283E+03</rscale>
<asrwt>0</asrwt>
<pdfrwt beam="2">  1       21 0.34712305E+00 0.99651055E+03</pdfrwt>
<pdfrwt beam="1">  1        4 0.23490697E-01 0.99651055E+03</pdfrwt>
<totfact> 0.93431384E+00</totfact>
</mgrwt>
</event>
<event>
 6    1  0.1353269E-005  0.1058308E+04  0.7818608E-02  0.9521338E-01
         21   -1    0    0  501  502  0.00000000000E+00  0.00000000000E+00  0.14878361480E+04  0.14878361480E+04  0.00000000000E+00 0.  1.
          4   -1    0    0  502    0 -0.00000000000E+00 -0.00000000000E+00 -0.57371742026E+03  0.57371742026E+03  0.00000000000E+00 0.  1.
    9000010    2    1    2  501    0 -0.29739754542E+03  0.26022728286E+03  0.11801526033E+04  0.15851739162E+04  0.98175997007E+03 0.  0.
        -13    1    3    3    0    0 -0.13842289298E+03  0.54425432599E+03  0.27905684952E+03  0.62709361748E+03  0.10566000000E+00 0.  1.
          4    1    3    3  501    0 -0.15897465244E+03 -0.28402704313E+03  0.90109575380E+03  0.95808029876E+03  0.00000000000E+00 0.  1.
         13    1    1    2    0    0  0.29739754542E+03 -0.26022728286E+03 -0.26603387556E+03  0.47637965204E+03  0.10566000000E+00 0. -1.
<mgrwt>
<rscale>  1 0.82728771E+03</rscale>
<asrwt>0</asrwt>
<pdfrwt beam="1">  1       21 0.22889787E+00 0.10583082E+04</pdfrwt>
<pdfrwt beam="2">  1        4 0.88264219E-01 0.10583082E+04</pdfrwt>
<totfact> 0.32055736E+00</totfact>
</mgrwt>
</event>
<event>
 6    1  0.1353269E-005  0.1045194E+04  0.7818608E-02  0.9606795E-01
         21   -1    0    0  501  502  0.00000000000E+00  0.00000000000E+00  0.19108113459E+04  0.19108113459E+04  0.00000000000E+00 0.  1.
          4   -1    0    0  502    0 -0.00000000000E+00 -0.00000000000E+00 -0.40244592427E+03  0.40244592427E+03  0.00000000000E+00 0.  1.
    9000010    2    1    2  501    0  0.28221513195E+03 -0.11685150116E+03  0.16681480016E+04  0.19685397946E+04  0.99956566243E+03 0.  0.
        -13    1    3    3    0    0  0.76463753586E+02  0.42186538381E+03  0.98678487967E+03  0.10759003288E+04  0.10566000000E+00 0.  1.
          4    1    3    3  501    0  0.20575137837E+03 -0.53871688497E+03  0.68136312192E+03  0.89263946572E+03  0.00000000000E+00 0.  1.
         13    1    1    2    0    0 -0.28221513195E+03  0.11685150116E+03 -0.15978257991E+03  0.34471747567E+03  0.10566000000E+00 0. -1.
<mgrwt>
<rscale>  1 0.76848039E+03</rscale>
<asrwt>0</asrwt>
<pdfrwt beam="1">  1       21 0.29397097E+00 0.10451943E+04</pdfrwt>
<pdfrwt beam="2">  1        4 0.61914759E-01 0.10451943E+04</pdfrwt>
<totfact> 0.27777467E+00</totfact>
</mgrwt>
</event>
<event>
 6    1  0.1353269E-005  0.1494599E+04  0.7818608E-02  0.8962836E-01
          4   -1    0    0  502    0 -0.00000000000E+00  0.00000000000E+00  0.26348633460E+04  0.26348633460E+04  0.00000000000E+00 0.  1.
         21   -1    0    0  501  502  0.00000000000E+00 -0.00000000000E+00 -0.71144422228E+03  0.71144422228E+03  0.00000000000E+00 0. -1.
    9000010    2    1    2  501    0  0.17303782714E+03  0.10968759672E+04  0.57958140561E+03  0.16030408644E+04  0.10003731455E+04 0.  0.
        -13    1    3    3    0    0  0.14892074637E+03  0.11758703157E+04  0.75766553727E+03  0.14067357483E+04  0.10566000000E+00 0.  1.
          4    1    3    3  501    0  0.24117080771E+02 -0.78994348454E+02 -0.17808413166E+03  0.19630511613E+03  0.00000000000E+00 0.  1.
         13    1    1    2    0    0 -0.17303782714E+03 -0.10968759672E+04  0.13438377181E+04  0.17432667039E+04  0.10566000000E+00 0. -1.
<mgrwt>
<rscale>  1 0.13876097E+04</rscale>
<asrwt>0</asrwt>
<pdfrwt beam="2">  1       21 0.10945296E+00 0.14945987E+04</pdfrwt>
<pdfrwt beam="1">  1        4 0.40536359E+00 0.14945987E+04</pdfrwt>
<totfact> 0.14218462E-01</totfact>
</mgrwt>
</event>
<event>
 6    1  0.1353269E-005  0.1024487E+04  0.7818608E-02  0.9781237E-01
          4   -1    0    0  502    0 -0.00000000000E+00  0.00000000000E+00  0.22335727141E+04  0.22335727141E+04  0.00000000000E+00 0.  1.
         21   -1    0    0  501  502  0.00000000000E+00 -0.00000000000E+00 -0.16327603826E+03  0.16327603826E+03  0.00000000000E+00 0.  1.
    9000010    2    1    2  501    0  0.10313646999E+03  0.14819937535E+03  0.18145995063E+04  0.20838292003E+04  0.10084505846E+04 0.  0.
        -13    1    3    3    0    0 -0.30683075829E+02  0.37981050904E+03  0.16936518505E+03  0.41699166777E+03  0.10566000000E+00 0.  1.
          4    1    3    3  501    0  0.13381954581E+03 -0.23161113369E+03  0.16452343212E+04  0.16668375325E+04  0.00000000000E+00 0.  1.
         13    1    1    2    0    0 -0.10313646999E+03 -0.14819937535E+03  0.25569716959E+03  0.31301955210E+03  0.10566000000E+00 0. -1.
<mgrwt>
<rscale>  1 0.66379242E+03</rscale>
<asrwt>0</asrwt>
<pdfrwt beam="2">  1       21 0.25119392E-01 0.10244866E+04</pdfrwt>
<pdfrwt beam="1">  1        4 0.34362655E+00 0.10244866E+04</pdfrwt>
<totfact> 0.10253468E+01</totfact>
</mgrwt>
</event>
<event>
 6    1  0.1353269E-005  0.1015279E+04  0.7818608E-02  0.9992684E-01
          4   -1    0    0  502    0 -0.00000000000E+00  0.00000000000E+00  0.16563709853E+03  0.16563709853E+03  0.00000000000E+00 0.  1.
         21   -1    0    0  501  502  0.00000000000E+00 -0.00000000000E+00 -0.19932395980E+04  0.19932395980E+04  0.00000000000E+00 0.  1.
    9000010    2    1    2  501    0 -0.73532990189E+02  0.58210875637E+02 -0.17898981554E+04  0.20577963551E+04  0.10109375974E+04 0.  0.
        -13    1    3    3    0    0 -0.24349047875E+03  0.27148357125E+02  0.14231958098E+02  0.24541231903E+03  0.10566000000E+00 0.  1.
          4    1    3    3  501    0  0.16995748856E+03  0.31062518512E+02 -0.18041301135E+04  0.18123840361E+04  0.00000000000E+00 0.  1.
         13    1    1    2    0    0  0.73532990189E+02 -0.58210875637E+02 -0.37704344106E+02  0.10108034140E+03  0.10566000000E+00 0. -1.
<mgrwt>
<rscale>  1 0.55972175E+03</rscale>
<asrwt>0</asrwt>
<pdfrwt beam="2">  1       21 0.30665224E+00 0.10152785E+04</pdfrwt>
<pdfrwt beam="1">  1        4 0.25482631E-01 0.10152785E+04</pdfrwt>
<totfact> 0.14278912E+01</totfact>
</mgrwt>
</event>
<event>
 6    1  0.1353269E-005  0.1168249E+04  0.7818608E-02  0.9374543E-01
         21   -1    0    0  501  502  0.00000000000E+00  0.00000000000E+00  0.37620182215E+03  0.37620182215E+03  0.00000000000E+00 0. -1.
          4   -1    0    0  502    0 -0.00000000000E+00 -0.00000000000E+00 -0.19609558528E+04  0.19609558528E+04  0.00000000000E+00 0.  1.
    9000010    2    1    2  501    0  0.98516042761E+02 -0.48394099652E+03 -0.82191892310E+03  0.14284103441E+04  0.10587261668E+04 0.  0.
        -13    1    3    3    0    0  0.64335767033E+02  0.21199151973E+03 -0.68286027791E+03  0.71789808864E+03  0.10566000000E+00 0.  1.
          4    1    3    3  501    0  0.34180275729E+02 -0.69593251625E+03 -0.13905864519E+03  0.71051225551E+03  0.00000000000E+00 0.  1.
         13    1    1    2    0    0 -0.98516042761E+02  0.48394099652E+03 -0.76283510755E+03  0.90874733082E+03  0.10566000000E+00 0. -1.
<mgrwt>
<rscale>  1 0.94200663E+03</rscale>
<asrwt>0</asrwt>
<pdfrwt beam="1">  1       21 0.57877204E-01 0.11682489E+04</pdfrwt>
<pdfrwt beam="2">  1        4 0.30168551E+00 0.11682489E+04</pdfrwt>
<totfact> 0.32395923E+00</totfact>
</mgrwt>
</event>
<event>
 6    1  0.1353269E-005  0.1102713E+04  0.7818608E-02  0.9467825E-01
          4   -1    0    0  502    0 -0.00000000000E+00  0.00000000000E+00  0.47243290818E+03  0.47243290818E+03  0.00000000000E+00 0.  1.
         21   -1    0    0  501  502  0.00000000000E+00 -0.00000000000E+00 -0.13724167437E+04  0.13724167437E+04  0.00000000000E+00 0. -1.
    9000010    2    1    2  501    0 -0.41586827993E+03 -0.67792690813E+02 -0.90019633556E+03  0.14234919280E+04  0.10190355987E+04 0.  0.
        -13    1    3    3    0    0  0.28476177380E+03  0.20472006332E+03 -0.30021782617E+03  0.46166040165E+03  0.10566000000E+00 0.  1.
          4    1    3    3  501    0 -0.70063005373E+03 -0.27251275413E+03 -0.59997850940E+03  0.96183152636E+03  0.00000000000E+00 0.  1.
         13    1    1    2    0    0  0.41586827993E+03  0.67792690813E+02  0.21249999494E+00  0.42135772392E+03  0.10566000000E+00 0. -1.
<mgrwt>
<rscale>  1 0.86698100E+03</rscale>
<asrwt>0</asrwt>
<pdfrwt beam="2">  1       21 0.21114104E+00 0.11027129E+04</pdfrwt>
<pdfrwt beam="1">  1        4 0.72681985E-01 0.11027129E+04</pdfrwt>
<totfact> 0.65320057E+00</totfact>
</mgrwt>
</event>
<event>
 6    1  0.1353269E-005  0.1017062E+04  0.7818608E-02  0.9947978E-01
         21   -1    0    0  501  502  0.00000000000E+00  0.00000000000E+00  0.81673209451E+03  0.81673209451E+03  0.00000000000E+00 0.  1.
          4   -1    0    0  502    0 -0.00000000000E+00 -0.00000000000E+00 -0.85193514339E+03  0.85193514339E+03  0.00000000000E+00 0.  1.
    9000010    2    1    2  501    0 -0.10750046610E+03  0.16037468244E+00  0.49256657879E+03  0.11300605475E+04  0.10113647366E+04 0.  0.
        -13    1    3    3    0    0  0.34563633970E+03  0.30575291587E+03  0.30078680466E+03  0.55083757851E+03  0.10566000000E+00 0.  1.
          4    1    3    3  501    0 -0.45313680579E+03 -0.30559254119E+03  0.19177977413E+03  0.57922296895E+03  0.00000000000E+00 0.  1.
         13    1    1    2    0    0  0.10750046610E+03 -0.16037468244E+00 -0.52776962767E+03  0.53860669044E+03  0.10566000000E+00 0. -1.
<mgrwt>
<rscale>  1 0.57991363E+03</rscale>
<asrwt>0</asrwt>
<pdfrwt beam="1">  1       21 0.12565109E+00 0.10170619E+04</pdfrwt>
<pdfrwt beam="2">  1        4 0.13106695E+00 0.10170619E+04</pdfrwt>
<totfact> 0.72281559E+00</totfact>
</mgrwt>
</event>
<event>
 6    1  0.1353269E-005  0.1022745E+04  0.7818608E-02  0.9751997E-01
         21   -1    0    0  501  502  0.00000000000E+00  0.00000000000E+00  0.41002122623E+03  0.41002122623E+03  0.00000000000E+00 0.  1.
          4   -1    0    0  502    0 -0.00000000000E+00 -0.00000000000E+00 -0.94802359991E+03  0.94802359991E+03  0.00000000000E+00 0.  1.
    9000010    2    1    2  501    0  0.18443803959E+03 -0.77100743283E+02 -0.34286183170E+03  0.10786852776E+04  0.10030183336E+04 0.  0.
        -13    1    3    3    0    0 -0.24202170988E+03 -0.40507921207E+03 -0.75344812108E+02  0.47784990110E+03  0.10566000000E+00 0.  1.
          4    1    3    3  501    0  0.42645974947E+03  0.32797846879E+03 -0.26751701960E+03  0.60083537652E+03  0.00000000000E+00 0.  1.
         13    1    1    2    0    0 -0.18443803959E+03  0.77100743283E+02 -0.19514054198E+03  0.27935954852E+03  0.10566000000E+00 0. -1.
<mgrwt>
<rscale>  1 0.68003518E+03</rscale>
<asrwt>0</asrwt>
<pdfrwt beam="1">  1       21 0.63080190E-01 0.10227452E+04</pdfrwt>
<pdfrwt beam="2">  1        4 0.14584978E+00 0.10227452E+04</pdfrwt>
<totfact> 0.28937523E+01</totfact>
</mgrwt>
</event>
<event>
 6    1  0.1353269E-005  0.1057811E+04  0.7818608E-02  0.9626898E-01
         21   -1    0    0  501  502  0.00000000000E+00  0.00000000000E+00  0.43523313240E+03  0.43523313240E+03  0.00000000000E+00 0.  1.
          4   -1    0    0  502    0 -0.00000000000E+00 -0.00000000000E+00 -0.12155098860E+04  0.12155098860E+04  0.00000000000E+00 0.  1.
    9000010    2    1    2  501    0 -0.27401977981E+03  0.24499255066E+02 -0.30384430622E+03  0.11005840039E+04  0.10214091902E+04 0.  0.
        -13    1    3    3    0    0  0.96748256516E+02  0.19989206782E+03 -0.56993419623E+03  0.61167153204E+03  0.10566000000E+00 0.  1.
          4    1    3    3  501    0 -0.37076803633E+03 -0.17539281275E+03  0.26608989001E+03  0.48891247181E+03  0.00000000000E+00 0.  1.
         13    1    1    2    0    0  0.27401977981E+03 -0.24499255066E+02 -0.47643244742E+03  0.55015901460E+03  0.10566000000E+00 0. -1.
<mgrwt>
<rscale>  1 0.75541172E+03</rscale>
<asrwt>0</asrwt>
<pdfrwt beam="1">  1       21 0.66958944E-01 0.10578108E+04</pdfrwt>
<pdfrwt beam="2">  1        4 0.18700152E+00 0.10578108E+04</pdfrwt>
<totfact> 0.12583842E+01</totfact>
</mgrwt>
</event>
<event>
 6    1  0.1353269E-005  0.9446956E+03  0.7818608E-02  0.1001921E+00
         21   -1    0    0  501  502  0.00000000000E+00  0.00000000000E+00  0.51619732814E+03  0.51619732814E+03  0.00000000000E+00 0.  1.
          4   -1    0    0  502    0 -0.00000000000E+00 -0.00000000000E+00 -0.71330104963E+03  0.71330104963E+03  0.00000000000E+00 0.  1.
    9000010    2    1    2  501    0  0.10450094032E+03 -0.23400656600E+02  0.64429040909E+02  0.94689010785E+03  0.93860627410E+03 0.  0.
        -13    1    3    3    0    0 -0.68792846302E+02 -0.17945130478E+03 -0.39074763194E+03  0.43545258011E+03  0.10566000000E+00 0.  1.
          4    1    3    3  501    0  0.17329378663E+03  0.15605064818E+03  0.45517667285E+03  0.51143752775E+03  0.00000000000E+00 0.  1.
         13    1    1    2    0    0 -0.10450094032E+03  0.23400656600E+02 -0.26153276239E+03  0.28260826992E+03  0.10566000000E+00 0. -1.
<mgrwt>
<rscale>  1 0.54815718E+03</rscale>
<asrwt>0</asrwt>
<pdfrwt beam="1">  1       21 0.79414974E-01 0.94469560E+03</pdfrwt>
<pdfrwt beam="2">  1        4 0.10973862E+00 0.94469560E+03</pdfrwt>
<totfact> 0.35500070E+01</totfact>
</mgrwt>
</event>
<event>
 6    1  0.1353269E-005  0.9552154E+03  0.7818608E-02  0.1043245E+00
         21   -1    0    0  501  502  0.00000000000E+00  0.00000000000E+00  0.70820306315E+03  0.70820306315E+03  0.00000000000E+00 0.  1.
          4   -1    0    0  502    0 -0.00000000000E+00 -0.00000000000E+00 -0.38564062064E+03  0.38564062064E+03  0.00000000000E+00 0.  1.
    9000010    2    1    2  501    0 -0.25249647487E+02  0.15881536010E+02  0.38087124209E+03  0.10283479194E+04  0.95474958620E+03 0.  0.
        -13    1    3    3    0    0 -0.27521717914E+03 -0.25675568121E+03 -0.12949347015E+03  0.39804088421E+03  0.10566000000E+00 0.  1.
          4    1    3    3  501    0  0.24996753165E+03  0.27263721722E+03  0.51036471224E+03  0.63030703517E+03  0.00000000000E+00 0.  1.
         13    1    1    2    0    0  0.25249647487E+02 -0.15881536010E+02 -0.58308799578E+02  0.65495764416E+02  0.10566000000E+00 0. -1.
<mgrwt>
<rscale>  1 0.40154690E+03</rscale>
<asrwt>0</asrwt>
<pdfrwt beam="1">  1       21 0.10895432E+00 0.95521544E+03</pdfrwt>
<pdfrwt beam="2">  1        4 0.59329326E-01 0.95521544E+03</pdfrwt>
<totfact> 0.67810656E+01</totfact>
</mgrwt>
</event>
<event>
 6    1  0.1353269E-005  0.9049948E+03  0.7818608E-02  0.1005598E+00
         21   -1    0    0  501  502  0.00000000000E+00  0.00000000000E+00  0.21587493718E+04  0.21587493718E+04  0.00000000000E+00 0.  1.
          4   -1    0    0  502    0 -0.00000000000E+00 -0.00000000000E+00 -0.11976730039E+03  0.11976730039E+03  0.00000000000E+00 0.  1.
    9000010    2    1    2  501    0 -0.68624139536E+01  0.10835920449E+03  0.17575298932E+04  0.19768477316E+04  0.89845802271E+03 0.  0.
        -13    1    3    3    0    0  0.63987331509E+02 -0.82327722289E+02  0.17699750862E+04  0.17730437246E+04  0.10566000000E+00 0.  1.
          4    1    3    3  501    0 -0.70849745463E+02  0.19068692678E+03 -0.12445192911E+02  0.20380400708E+03  0.00000000000E+00 0.  1.
         13    1    1    2    0    0  0.68624139536E+01 -0.10835920449E+03  0.28145217822E+03  0.30166894058E+03  0.10566000000E+00 0. -1.
<mgrwt>
<rscale>  1 0.53262117E+03</rscale>
<asrwt>0</asrwt>
<pdfrwt beam="1">  1       21 0.33211526E+00 0.90499482E+03</pdfrwt>
<pdfrwt beam="2">  1        4 0.18425740E-01 0.90499482E+03</pdfrwt>
<totfact> 0.18589204E+01</totfact>
</mgrwt>
</event>
<event>
 6    1  0.1353269E-005  0.1027734E+04  0.7818608E-02  0.9671903E-01
          4   -1    0    0  502    0 -0.00000000000E+00  0.00000000000E+00  0.93884966036E+03  0.93884966036E+03  0.00000000000E+00 0.  1.
         21   -1    0    0  501  502  0.00000000000E+00 -0.00000000000E+00 -0.55722610486E+03  0.55722610486E+03  0.00000000000E+00 0. -1.
    9000010    2    1    2  501    0 -0.85311968304E+01 -0.25739839924E+03 -0.94985290072E+01  0.10277775553E+04  0.99494209072E+03 0.  0.
        -13    1    3    3    0    0 -0.13613569645E+03  0.34709168579E+03 -0.13652032764E+03  0.39704329388E+03  0.10566000000E+00 0.  1.
          4    1    3    3  501    0  0.12760449962E+03 -0.60449008503E+03  0.12702179863E+03  0.63073426143E+03  0.00000000000E+00 0.  1.
         13    1    1    2    0    0  0.85311968304E+01  0.25739839924E+03  0.39112208451E+03  0.46829820991E+03  0.10566000000E+00 0. -1.
<mgrwt>
<rscale>  1 0.72714581E+03</rscale>
<asrwt>0</asrwt>
<pdfrwt beam="2">  1       21 0.85727093E-01 0.10277337E+04</pdfrwt>
<pdfrwt beam="1">  1        4 0.14443841E+00 0.10277337E+04</pdfrwt>
<totfact> 0.14585784E+01</totfact>
</mgrwt>
</event>
<event>
 6    1  0.1353269E-005  0.1014590E+04  0.7818608E-02  0.9729175E-01
         21   -1    0    0  501  502  0.00000000000E+00  0.00000000000E+00  0.18270384361E+04  0.18270384361E+04  0.00000000000E+00 0.  1.
          4   -1    0    0  502    0 -0.00000000000E+00 -0.00000000000E+00 -0.21446485064E+03  0.21446485064E+03  0.00000000000E+00 0.  1.
    9000010    2    1    2  501    0 -0.46263026501E+02  0.21600964443E+03  0.14382331695E+04  0.17600871786E+04  0.99024834885E+03 0.  0.
        -13    1    3    3    0    0 -0.10156692623E+03  0.47770625621E+03  0.14087330144E+04  0.14909888748E+04  0.10566000000E+00 0.  1.
          4    1    3    3  501    0  0.55303899734E+02 -0.26169661178E+03  0.29500155022E+02  0.26909830376E+03  0.00000000000E+00 0.  1.
         13    1    1    2    0    0  0.46263026501E+02 -0.21600964443E+03  0.17434041598E+03  0.28141610813E+03  0.10566000000E+00 0. -1.
<mgrwt>
<rscale>  1 0.69305995E+03</rscale>
<asrwt>0</asrwt>
<pdfrwt beam="1">  1       21 0.28108283E+00 0.10145897E+04</pdfrwt>
<pdfrwt beam="2">  1        4 0.32994594E-01 0.10145897E+04</pdfrwt>
<totfact> 0.12449830E+01</totfact>
</mgrwt>
</event>
<event>
 6    1  0.1353269E-005  0.9971515E+03  0.7818608E-02  0.9966950E-01
         21   -1    0    0  501  502  0.00000000000E+00  0.00000000000E+00  0.28008159781E+03  0.28008159781E+03  0.00000000000E+00 0.  1.
          4   -1    0    0  502    0 -0.00000000000E+00 -0.00000000000E+00 -0.10927312699E+04  0.10927312699E+04  0.00000000000E+00 0.  1.
    9000010    2    1    2  501    0  0.76616578236E+02 -0.75253365929E+02 -0.75640693839E+03  0.12515840535E+04  0.99135161134E+03 0.  0.
        -13    1    3    3    0    0 -0.25870978294E+02  0.23590082743E+03  0.15475758006E+03  0.28331683263E+03  0.10566000000E+00 0.  1.
          4    1    3    3  501    0  0.10248755653E+03 -0.31115419336E+03 -0.91116451844E+03  0.96826722084E+03  0.00000000000E+00 0.  1.
         13    1    1    2    0    0 -0.76616578236E+02  0.75253365929E+02 -0.56242733689E+02  0.12122881424E+03  0.10566000000E+00 0. -1.
<mgrwt>
<rscale>  1 0.57123467E+03</rscale>
<asrwt>0</asrwt>
<pdfrwt beam="1">  1       21 0.43089475E-01 0.99715154E+03</pdfrwt>
<pdfrwt beam="2">  1        4 0.16811251E+00 0.99715154E+03</pdfrwt>
<totfact> 0.45143828E+01</totfact>
</mgrwt>
</event>
<event>
 6    1  0.1353269E-005  0.1020281E+04  0.7818608E-02  0.9629013E-01
          4   -1    0    0  502    0 -0.00000000000E+00  0.00000000000E+00  0.66724705106E+03  0.66724705106E+03  0.00000000000E+00 0.  1.
         21   -1    0    0  501  502  0.00000000000E+00 -0.00000000000E+00 -0.72508533796E+03  0.72508533796E+03  0.00000000000E+00 0.  1.
    9000010    2    1    2  501    0  0.25883438756E+03  0.16020557814E+03 -0.22536608696E+03  0.10448749925E+04  0.97381353929E+03 0.  0.
        -13    1    3    3    0    0  0.63617348747E+02 -0.31838623669E+03 -0.38526558705E+03  0.50383186333E+03  0.10566000000E+00 0.  1.
          4    1    3    3  501    0  0.19521703881E+03  0.47859181484E+03  0.15989950009E+03  0.54104312915E+03  0.00000000000E+00 0.  1.
         13    1    1    2    0    0 -0.25883438756E+03 -0.16020557814E+03  0.16752780006E+03  0.34745739653E+03  0.10566000000E+00 0. -1.
<mgrwt>
<rscale>  1 0.75405341E+03</rscale>
<asrwt>0</asrwt>
<pdfrwt beam="2">  1       21 0.11155159E+00 0.10202813E+04</pdfrwt>
<pdfrwt beam="1">  1        4 0.10265339E+00 0.10202813E+04</pdfrwt>
<totfact> 0.18093014E+01</totfact>
</mgrwt>
</event>
<event>
 6    1  0.1353269E-005  0.1149440E+04  0.7818608E-02  0.9357615E-01
         21   -1    0    0  501  502  0.00000000000E+00  0.00000000000E+00  0.15395499435E+04  0.15395499435E+04  0.00000000000E+00 0.  1.
          4   -1    0    0  502    0 -0.00000000000E+00 -0.00000000000E+00 -0.48171317061E+03  0.48171317061E+03  0.00000000000E+00 0.  1.
    9000010    2    1    2  501    0  0.51797790738E+03 -0.18818590395E+03  0.86065757228E+03  0.14359472205E+04  0.10087110173E+04 0.  0.
        -13    1    3    3    0    0  0.80195283104E+03  0.98699821858E+01  0.63099138957E+03  0.10204782725E+04  0.10566000000E+00 0.  1.
          4    1    3    3  501    0 -0.28397492366E+03 -0.19805588613E+03  0.22966618271E+03  0.41546894804E+03  0.00000000000E+00 0.  1.
         13    1    1    2    0    0 -0.51797790738E+03  0.18818590395E+03  0.19717920062E+03  0.58531589360E+03  0.10566000000E+00 0. -1.
<mgrwt>
<rscale>  1 0.95647385E+03</rscale>
<asrwt>0</asrwt>
<pdfrwt beam="1">  1       21 0.23685384E+00 0.11494403E+04</pdfrwt>
<pdfrwt beam="2">  1        4 0.74109719E-01 0.11494403E+04</pdfrwt>
<totfact> 0.42024613E+00</totfact>
</mgrwt>
</event>
<event>
 6    1  0.1353269E-005  0.9940597E+03  0.7818608E-02  0.9890715E-01
          4   -1    0    0  502    0 -0.00000000000E+00  0.00000000000E+00  0.17820240534E+03  0.17820240534E+03  0.00000000000E+00 0.  1.
         21   -1    0    0  501  502  0.00000000000E+00 -0.00000000000E+00 -0.18416082007E+04  0.18416082007E+04  0.00000000000E+00 0.  1.
    9000010    2    1    2  501    0 -0.21906739050E+02  0.13657900853E+03 -0.13434197986E+04  0.16712065612E+04  0.98438858392E+03 0.  0.
        -13    1    3    3    0    0  0.26390665345E+03  0.25357823672E+03 -0.85384187903E+02  0.37581792743E+03  0.10566000000E+00 0.  1.
          4    1    3    3  501    0 -0.28581339250E+03 -0.11699922818E+03 -0.12580356107E+04  0.12953886337E+04  0.00000000000E+00 0.  1.
         13    1    1    2    0    0  0.21906739050E+02 -0.13657900853E+03 -0.31998599682E+03  0.34860404489E+03  0.10566000000E+00 0. -1.
<mgrwt>
<rscale>  1 0.60713376E+03</rscale>
<asrwt>0</asrwt>
<pdfrwt beam="2">  1       21 0.28332433E+00 0.99405966E+03</pdfrwt>
<pdfrwt beam="1">  1        4 0.27415756E-01 0.99405966E+03</pdfrwt>
<totfact> 0.17384639E+01</totfact>
</mgrwt>
</event>
<event>
 6    1  0.1353269E-005  0.1033162E+04  0.7818608E-02  0.1012908E+00
          4   -1    0    0  502    0 -0.00000000000E+00  0.00000000000E+00  0.10754830345E+04  0.10754830345E+04  0.00000000000E+00 0.  1.
         21   -1    0    0  501  502  0.00000000000E+00 -0.00000000000E+00 -0.31063146005E+03  0.31063146005E+03  0.00000000000E+00 0. -1.
    9000010    2    1    2  501    0  0.41655213578E+02 -0.40656229586E+02  0.80969053037E+03  0.13126391317E+04  0.10315205520E+04 0.  0.
        -13    1    3    3    0    0 -0.92618423729E+02  0.15037071339E+03  0.99748196853E+03  0.10129954652E+04  0.10566000000E+00 0.  1.
          4    1    3    3  501    0  0.13427363731E+03 -0.19102694298E+03 -0.18779143815E+03  0.29964366648E+03  0.00000000000E+00 0.  1.
         13    1    1    2    0    0 -0.41655213578E+02  0.40656229586E+02 -0.44838955888E+02  0.73475362888E+02  0.10566000000E+00 0. -1.
<mgrwt>
<rscale>  1 0.50335073E+03</rscale>
<asrwt>0</asrwt>
<pdfrwt beam="2">  1       21 0.47789456E-01 0.10331615E+04</pdfrwt>
<pdfrwt beam="1">  1        4 0.16545893E+00 0.10331615E+04</pdfrwt>
<totfact> 0.37734255E+01</totfact>
</mgrwt>
</event>
<event>
 6    1  0.1353269E-005  0.9975977E+03  0.7818608E-02  0.9686672E-01
          4   -1    0    0  502    0 -0.00000000000E+00  0.00000000000E+00  0.17707022485E+04  0.17707022485E+04  0.00000000000E+00 0.  1.
         21   -1    0    0  501  502  0.00000000000E+00 -0.00000000000E+00 -0.23367867498E+03  0.23367867498E+03  0.00000000000E+00 0.  1.
    9000010    2    1    2  501    0 -0.26169591657E+03 -0.57445112318E+02  0.10488132473E+04  0.14474841400E+04  0.96094558331E+03 0.  0.
        -13    1    3    3    0    0 -0.11961740066E+03  0.42788283347E+03  0.27316491909E+03  0.52154685879E+03  0.10566000000E+00 0.  1.
          4    1    3    3  501    0 -0.14207851591E+03 -0.48532794579E+03  0.77564832819E+03  0.92593728117E+03  0.00000000000E+00 0.  1.
         13    1    1    2    0    0  0.26169591657E+03  0.57445112318E+02  0.48821032622E+03  0.55689678350E+03  0.10566000000E+00 0. -1.
<mgrwt>
<rscale>  1 0.71815892E+03</rscale>
<asrwt>0</asrwt>
<pdfrwt beam="2">  1       21 0.35950567E-01 0.99759767E+03</pdfrwt>
<pdfrwt beam="1">  1        4 0.27241572E+00 0.99759767E+03</pdfrwt>
<totfact> 0.13888682E+01</totfact>
</mgrwt>
</event>
<event>
 6    1  0.1353269E-005  0.1158879E+04  0.7818608E-02  0.9336436E-01
         21   -1    0    0  501  502  0.00000000000E+00  0.00000000000E+00  0.31566198852E+03  0.31566198852E+03  0.00000000000E+00 0. -1.
          4   -1    0    0  502    0 -0.00000000000E+00 -0.00000000000E+00 -0.24037601103E+04  0.24037601103E+04  0.00000000000E+00 0.  1.
    9000010    2    1    2  501    0 -0.19307932594E+03 -0.54750593371E+03 -0.14617567561E+04  0.18654045984E+04  0.10029751383E+04 0.  0.
        -13    1    3    3    0    0  0.19864885697E+02  0.18459899537E+03 -0.89846679439E+03  0.91744972318E+03  0.10566000000E+00 0.  1.
          4    1    3    3  501    0 -0.21294421164E+03 -0.73210492907E+03 -0.56328996173E+03  0.94795487521E+03  0.00000000000E+00 0.  1.
         13    1    1    2    0    0  0.19307932594E+03  0.54750593371E+03 -0.62634136570E+03  0.85401750047E+03  0.10566000000E+00 0. -1.
<mgrwt>
<rscale>  1 0.97496563E+03</rscale>
<asrwt>0</asrwt>
<pdfrwt beam="1">  1       21 0.48563384E-01 0.11588794E+04</pdfrwt>
<pdfrwt beam="2">  1        4 0.36980924E+00 0.11588794E+04</pdfrwt>
<totfact> 0.17423237E+00</totfact>
</mgrwt>
</event>
<event>
 6    1  0.1353269E-005  0.1013262E+04  0.7818608E-02  0.9735058E-01
          4   -1    0    0  502    0 -0.00000000000E+00  0.00000000000E+00  0.62660088831E+03  0.62660088831E+03  0.00000000000E+00 0.  1.
         21   -1    0    0  501  502  0.00000000000E+00 -0.00000000000E+00 -0.64509940089E+03  0.64509940089E+03  0.00000000000E+00 0.  1.
    9000010    2    1    2  501    0  0.18852044233E+03 -0.10841961256E+03 -0.13951702227E+03  0.10228222861E+04  0.98964926105E+03 0.  0.
        -13    1    3    3    0    0 -0.40565861243E+02 -0.41622591069E+03  0.24080442096E+03  0.48257266618E+03  0.10566000000E+00 0.  1.
          4    1    3    3  501    0  0.22908630358E+03  0.30780629813E+03 -0.38032144323E+03  0.54024961993E+03  0.00000000000E+00 0.  1.
         13    1    1    2    0    0 -0.18852044233E+03  0.10841961256E+03  0.12101850970E+03  0.24887800308E+03  0.10566000000E+00 0. -1.
<mgrwt>
<rscale>  1 0.68967273E+03</rscale>
<asrwt>0</asrwt>
<pdfrwt beam="2">  1       21 0.99246062E-01 0.10132623E+04</pdfrwt>
<pdfrwt beam="1">  1        4 0.96400136E-01 0.10132623E+04</pdfrwt>
<totfact> 0.28256855E+01</totfact>
</mgrwt>
</event>
<event>
 6    1  0.1353269E-005  0.1005034E+04  0.7818608E-02  0.9985926E-01
         21   -1    0    0  501  502  0.00000000000E+00  0.00000000000E+00  0.84348783541E+03  0.84348783541E+03  0.00000000000E+00 0.  1.
          4   -1    0    0  502    0 -0.00000000000E+00 -0.00000000000E+00 -0.36135449764E+03  0.36135449764E+03  0.00000000000E+00 0.  1.
    9000010    2    1    2  501    0 -0.64060920679E+02 -0.75175530010E+02  0.42997398627E+03  0.10931473422E+04  0.10001691462E+04 0.  0.
        -13    1    3    3    0    0 -0.49518341471E+03  0.10862209302E+03  0.91775476423E+02  0.51519716860E+03  0.10566000000E+00 0.  1.
          4    1    3    3  501    0  0.43112249403E+03 -0.18379762303E+03  0.33819850985E+03  0.57795017359E+03  0.00000000000E+00 0.  1.
         13    1    1    2    0    0  0.64060920679E+02  0.75175530010E+02  0.52159351497E+02  0.11169499086E+03  0.10566000000E+00 0. -1.
<mgrwt>
<rscale>  1 0.56271697E+03</rscale>
<asrwt>0</asrwt>
<pdfrwt beam="1">  1       21 0.12976736E+00 0.10050341E+04</pdfrwt>
<pdfrwt beam="2">  1        4 0.55593000E-01 0.10050341E+04</pdfrwt>
<totfact> 0.49432456E+01</totfact>
</mgrwt>
</event>
<event>
 6    1  0.1353269E-005  0.1086404E+04  0.7818608E-02  0.9561921E-01
         21   -1    0    0  501  502  0.00000000000E+00  0.00000000000E+00  0.12562153679E+04  0.12562153679E+04  0.00000000000E+00 0.  1.
          4   -1    0    0  502    0 -0.00000000000E+00 -0.00000000000E+00 -0.54413647629E+03  0.54413647629E+03  0.00000000000E+00 0.  1.
    9000010    2    1    2  501    0 -0.10553452760E+03  0.29928231261E+03  0.91777343031E+03  0.14221750421E+04  0.10390218197E+04 0.  0.
        -13    1    3    3    0    0 -0.70633464980E+02 -0.22034805911E+03 -0.12029093450E+03  0.26079162873E+03  0.10566000000E+00 0.  1.
          4    1    3    3  501    0 -0.34901062621E+02  0.51963037173E+03  0.10380643648E+04  0.11613834134E+04  0.00000000000E+00 0.  1.
         13    1    1    2    0    0  0.10553452760E+03 -0.29928231261E+03 -0.20569453875E+03  0.37817680203E+03  0.10566000000E+00 0. -1.
<mgrwt>
<rscale>  1 0.79868630E+03</rscale>
<asrwt>0</asrwt>
<pdfrwt beam="1">  1       21 0.19326390E+00 0.10864041E+04</pdfrwt>
<pdfrwt beam="2">  1        4 0.83713304E-01 0.10864041E+04</pdfrwt>
<totfact> 0.62840317E+00</totfact>
</mgrwt>
</event>
<event>
 6    1  0.1353269E-005  0.1113415E+04  0.7818608E-02  0.9403410E-01
          4   -1    0    0  502    0 -0.00000000000E+00  0.00000000000E+00  0.17310659952E+04  0.17310659952E+04  0.00000000000E+00 0.  1.
         21   -1    0    0  501  502  0.00000000000E+00 -0.00000000000E+00 -0.39555876311E+03  0.39555876311E+03  0.00000000000E+00 0.  1.
    9000010    2    1    2  501    0  0.39327001368E+03 -0.33160923560E+03  0.72668130901E+03  0.13295708050E+04  0.98745471377E+03 0.  0.
        -13    1    3    3    0    0 -0.57484091242E+02 -0.42911825885E+03  0.75196590840E+03  0.86769789638E+03  0.10566000000E+00 0.  1.
          4    1    3    3  501    0  0.45075410492E+03  0.97509023250E+02 -0.25284599384E+02  0.46187290859E+03  0.00000000000E+00 0.  1.
         13    1    1    2    0    0 -0.39327001368E+03  0.33160923560E+03  0.60882592312E+03  0.79705395340E+03  0.10566000000E+00 0. -1.
<mgrwt>
<rscale>  1 0.91795596E+03</rscale>
<asrwt>0</asrwt>
<pdfrwt beam="2">  1       21 0.60855195E-01 0.11134149E+04</pdfrwt>
<pdfrwt beam="1">  1        4 0.26631784E+00 0.11134149E+04</pdfrwt>
<totfact> 0.48270039E+00</totfact>
</mgrwt>
</event>
<event>
 6    1  0.1353269E-005  0.9467850E+03  0.7818608E-02  0.1009221E+00
          4   -1    0    0  502    0 -0.00000000000E+00  0.00000000000E+00  0.53471424852E+03  0.53471424852E+03  0.00000000000E+00 0.  1.
         21   -1    0    0  501  502  0.00000000000E+00 -0.00000000000E+00 -0.60147682868E+03  0.60147682868E+03  0.00000000000E+00 0.  1.
    9000010    2    1    2  501    0 -0.39061389836E+02 -0.75197805702E+02 -0.20997284468E+03  0.96978887414E+03  0.94298534598E+03 0.  0.
        -13    1    3    3    0    0 -0.41568607584E+03  0.16573880855E+03 -0.26377917345E+03  0.51946484945E+03  0.10566000000E+00 0.  1.
          4    1    3    3  501    0  0.37662468600E+03 -0.24093661425E+03  0.53806328767E+02  0.45032402469E+03  0.00000000000E+00 0.  1.
         13    1    1    2    0    0  0.39061389836E+02  0.75197805702E+02  0.14321026452E+03  0.16640220307E+03  0.10566000000E+00 0. -1.
<mgrwt>
<rscale>  1 0.51785475E+03</rscale>
<asrwt>0</asrwt>
<pdfrwt beam="2">  1       21 0.92534897E-01 0.94678502E+03</pdfrwt>
<pdfrwt beam="1">  1        4 0.82263730E-01 0.94678502E+03</pdfrwt>
<totfact> 0.48954211E+01</totfact>
</mgrwt>
</event>
<event>
 6    1  0.1353269E-005  0.1080433E+04  0.7818608E-02  0.9817395E-01
          4   -1    0    0  502    0 -0.00000000000E+00  0.00000000000E+00  0.10296298786E+03  0.10296298786E+03  0.00000000000E+00 0.  1.
         21   -1    0    0  501  502  0.00000000000E+00 -0.00000000000E+00 -0.36800273537E+04  0.36800273537E+04  0.00000000000E+00 0.  1.
    9000010    2    1    2  501    0 -0.12795250542E+03  0.48103928321E+02 -0.33265270716E+04  0.34975875061E+04  0.10717509845E+04 0.  0.
        -13    1    3    3    0    0  0.40952508589E+02  0.51421947704E+03 -0.10781790072E+04  0.11952274935E+04  0.10566000000E+00 0.  1.
          4    1    3    3  501    0 -0.16890501401E+03 -0.46611554872E+03 -0.22483480644E+04  0.23023600125E+04  0.00000000000E+00 0.  1.
         13    1    1    2    0    0  0.12795250542E+03 -0.48103928321E+02 -0.25053729419E+03  0.28540283549E+03  0.10566000000E+00 0. -1.
<mgrwt>
<rscale>  1 0.64437331E+03</rscale>
<asrwt>0</asrwt>
<pdfrwt beam="2">  1       21 0.56615816E+00 0.10804332E+04</pdfrwt>
<pdfrwt beam="1">  1        4 0.15840457E-01 0.10804332E+04</pdfrwt>
<totfact> 0.58000681E-01</totfact>
</mgrwt>
</event>
<event>
 6    1  0.1353269E-005  0.9994603E+03  0.7818608E-02  0.9993467E-01
          4   -1    0    0  502    0 -0.00000000000E+00  0.00000000000E+00  0.42569428691E+03  0.42569428691E+03  0.00000000000E+00 0.  1.
         21   -1    0    0  501  502  0.00000000000E+00 -0.00000000000E+00 -0.98504560843E+03  0.98504560843E+03  0.00000000000E+00 0.  1.
    9000010    2    1    2  501    0 -0.81053866863E+02 -0.55201939113E+02 -0.71352343993E+03  0.12280214325E+04  0.99463760025E+03 0.  0.
        -13    1    3    3    0    0  0.31698211180E+03  0.30761136137E+03 -0.44198959830E+03  0.62486576560E+03  0.10566000000E+00 0.  1.
          4    1    3    3  501    0 -0.39803597866E+03 -0.36281330048E+03 -0.27153384163E+03  0.60315566686E+03  0.00000000000E+00 0.  1.
         13    1    1    2    0    0  0.81053866863E+02  0.55201939113E+02  0.15417211842E+03  0.18271846288E+03  0.10566000000E+00 0. -1.
<mgrwt>
<rscale>  1 0.55937634E+03</rscale>
<asrwt>0</asrwt>
<pdfrwt beam="2">  1       21 0.15154548E+00 0.99946032E+03</pdfrwt>
<pdfrwt beam="1">  1        4 0.65491430E-01 0.99946032E+03</pdfrwt>
<totfact> 0.22676023E+01</totfact>
</mgrwt>
</event>
<event>
 6    1  0.1353269E-005  0.9930825E+03  0.7818608E-02  0.1006847E+00
         21   -1    0    0  501  502  0.00000000000E+00  0.00000000000E+00  0.12388230819E+04  0.12388230819E+04  0.00000000000E+00 0.  1.
          4   -1    0    0  502    0 -0.00000000000E+00 -0.00000000000E+00 -0.29468560219E+03  0.29468560219E+03  0.00000000000E+00 0.  1.
    9000010    2    1    2  501    0 -0.75841528608E+02 -0.22256107280E+02  0.10202565620E+04  0.14237753818E+04  0.98993212580E+03 0.  0.
        -13    1    3    3    0    0 -0.16288982261E+03  0.43940218930E+03  0.27662610329E+03  0.54417771955E+03  0.10566000000E+00 0.  1.
          4    1    3    3  501    0  0.87048294003E+02 -0.46165829658E+03  0.74363045870E+03  0.87959766223E+03  0.00000000000E+00 0.  1.
         13    1    1    2    0    0  0.75841528608E+02  0.22256107280E+02 -0.76119082313E+02  0.10973330228E+03  0.10566000000E+00 0. -1.
<mgrwt>
<rscale>  1 0.52747320E+03</rscale>
<asrwt>0</asrwt>
<pdfrwt beam="1">  1       21 0.19058816E+00 0.99308252E+03</pdfrwt>
<pdfrwt beam="2">  1        4 0.45336247E-01 0.99308252E+03</pdfrwt>
<totfact> 0.25471267E+01</totfact>
</mgrwt>
</event>
<event>
 6    1  0.1353269E-005  0.1216314E+04  0.7818608E-02  0.9240394E-01
          4   -1    0    0  502    0 -0.00000000000E+00  0.00000000000E+00  0.11279641654E+04  0.11279641654E+04  0.00000000000E+00 0.  1.
         21   -1    0    0  501  502  0.00000000000E+00 -0.00000000000E+00 -0.82623678320E+03  0.82623678320E+03  0.00000000000E+00 0. -1.
    9000010    2    1    2  501    0 -0.11447942060E+03 -0.70462524355E+03  0.21340672856E+03  0.12348937677E+04  0.98479333568E+03 0.  0.
        -13    1    3    3    0    0 -0.17748938967E+03 -0.90114983761E+03 -0.25976287185E+02  0.91882984928E+03  0.10566000000E+00 0.  1.
          4    1    3    3  501    0  0.63009969068E+02  0.19652459406E+03  0.23938301574E+03  0.31606391837E+03  0.00000000000E+00 0.  1.
         13    1    1    2    0    0  0.11447942060E+03  0.70462524355E+03  0.88320653675E+02  0.71930718098E+03  0.10566000000E+00 0. -1.
<mgrwt>
<rscale>  1 0.10646045E+04</rscale>
<asrwt>0</asrwt>
<pdfrwt beam="2">  1       21 0.12711335E+00 0.12163142E+04</pdfrwt>
<pdfrwt beam="1">  1        4 0.17353295E+00 0.12163142E+04</pdfrwt>
<totfact> 0.32059196E+00</totfact>
</mgrwt>
</event>
<event>
 6    1  0.1353269E-005  0.1163651E+04  0.7818608E-02  0.9323935E-01
          4   -1    0    0  502    0 -0.00000000000E+00  0.00000000000E+00  0.78025920101E+03  0.78025920101E+03  0.00000000000E+00 0.  1.
         21   -1    0    0  501  502  0.00000000000E+00 -0.00000000000E+00 -0.11034128113E+04  0.11034128113E+04  0.00000000000E+00 0. -1.
    9000010    2    1    2  501    0  0.58424027688E+03 -0.13688850218E+03  0.70869789968E+02  0.11658073912E+04  0.99700009181E+03 0.  0.
        -13    1    3    3    0    0  0.43251529616E+03 -0.49286970477E+03  0.29454046193E+03  0.71884916510E+03  0.10566000000E+00 0.  1.
          4    1    3    3  501    0  0.15172498072E+03  0.35598120259E+03 -0.22367067196E+03  0.44695822609E+03  0.00000000000E+00 0.  1.
         13    1    1    2    0    0 -0.58424027688E+03  0.13688850218E+03 -0.39402340029E+03  0.71786462115E+03  0.10566000000E+00 0. -1.
<mgrwt>
<rscale>  1 0.98608953E+03</rscale>
<asrwt>0</asrwt>
<pdfrwt beam="2">  1       21 0.16975582E+00 0.11636513E+04</pdfrwt>
<pdfrwt beam="1">  1        4 0.12003988E+00 0.11636513E+04</pdfrwt>
<totfact> 0.38571456E+00</totfact>
</mgrwt>
</event>
<event>
 6    1  0.1353269E-005  0.9537276E+03  0.7818608E-02  0.9998689E-01
         21   -1    0    0  501  502  0.00000000000E+00  0.00000000000E+00  0.27683327130E+03  0.27683327130E+03  0.00000000000E+00 0.  1.
          4   -1    0    0  502    0 -0.00000000000E+00 -0.00000000000E+00 -0.10568019791E+04  0.10568019791E+04  0.00000000000E+00 0.  1.
    9000010    2    1    2  501    0  0.50330905909E+02  0.98952290661E+02 -0.61511203532E+03  0.11348829182E+04  0.94724424843E+03 0.  0.
        -13    1    3    3    0    0  0.17204167151E+03 -0.18591937878E+03 -0.75398394843E+03  0.79539685553E+03  0.10566000000E+00 0.  1.
          4    1    3    3  501    0 -0.12171076560E+03  0.28487166944E+03  0.13887191311E+03  0.33948606270E+03  0.00000000000E+00 0.  1.
         13    1    1    2    0    0 -0.50330905909E+02 -0.98952290661E+02 -0.16485667247E+03  0.19875233216E+03  0.10566000000E+00 0. -1.
<mgrwt>
<rscale>  1 0.55707750E+03</rscale>
<asrwt>0</asrwt>
<pdfrwt beam="1">  1       21 0.42589733E-01 0.95372765E+03</pdfrwt>
<pdfrwt beam="2">  1        4 0.16258492E+00 0.95372765E+03</pdfrwt>
<totfact> 0.50971767E+01</totfact>
</mgrwt>
</event>
<event>
 6    1  0.1353269E-005  0.1019178E+04  0.7818608E-02  0.9673929E-01
         21   -1    0    0  501  502  0.00000000000E+00  0.00000000000E+00  0.17958712798E+04  0.17958712798E+04  0.00000000000E+00 0.  1.
          4   -1    0    0  502    0 -0.00000000000E+00 -0.00000000000E+00 -0.25423966935E+03  0.25423966935E+03  0.00000000000E+00 0.  1.
    9000010    2    1    2  501    0  0.25142427843E+03  0.74685277489E+02  0.14498627388E+04  0.17722376049E+04  0.98485131289E+03 0.  0.
        -13    1    3    3    0    0  0.23389727420E+02 -0.29941519007E+03  0.12590380112E+04  0.12943621055E+04  0.10566000000E+00 0.  1.
          4    1    3    3  501    0  0.22803455101E+03  0.37410046756E+03  0.19082472762E+03  0.47787549943E+03  0.00000000000E+00 0.  1.
         13    1    1    2    0    0 -0.25142427843E+03 -0.74685277489E+02  0.91768871632E+02  0.27787334421E+03  0.10566000000E+00 0. -1.
<mgrwt>
<rscale>  1 0.72590516E+03</rscale>
<asrwt>0</asrwt>
<pdfrwt beam="1">  1       21 0.27628788E+00 0.10191782E+04</pdfrwt>
<pdfrwt beam="2">  1        4 0.39113796E-01 0.10191782E+04</pdfrwt>
<totfact> 0.94725484E+00</totfact>
</mgrwt>
</event>
<event>
 6    1  0.1353269E-005  0.1035470E+04  0.7818608E-02  0.9655327E-01
         21   -1    0    0  501  502  0.00000000000E+00  0.00000000000E+00  0.49345358821E+03  0.49345358821E+03  0.00000000000E+00 0.  1.
          4   -1    0    0  502    0 -0.00000000000E+00 -0.00000000000E+00 -0.10090252065E+04  0.10090252065E+04  0.00000000000E+00 0.  1.
    9000010    2    1    2  501    0  0.16156394058E+03 -0.21171386705E+03 -0.14416542433E+03  0.10454577444E+04  0.10006360763E+04 0.  0.
        -13    1    3    3    0    0  0.27863647485E+02  0.30641997627E+02 -0.55146041776E+03  0.55301348844E+03  0.10566000000E+00 0.  1.
          4    1    3    3  501    0  0.13370029310E+03 -0.24235586467E+03  0.40729499343E+03  0.49244425592E+03  0.00000000000E+00 0.  1.
         13    1    1    2    0    0 -0.16156394058E+03  0.21171386705E+03 -0.37140619398E+03  0.45702105038E+03  0.10566000000E+00 0. -1.
<mgrwt>
<rscale>  1 0.73740078E+03</rscale>
<asrwt>0</asrwt>
<pdfrwt beam="1">  1       21 0.75915937E-01 0.10354701E+04</pdfrwt>
<pdfrwt beam="2">  1        4 0.15523465E+00 0.10354701E+04</pdfrwt>
<totfact> 0.15996966E+01</totfact>
</mgrwt>
</event>
<event>
 6    1  0.1353269E-005  0.1071123E+04  0.7818608E-02  0.9514259E-01
         21   -1    0    0  501  502  0.00000000000E+00  0.00000000000E+00  0.71027529864E+03  0.71027529864E+03  0.00000000000E+00 0.  1.
          4   -1    0    0  502    0 -0.00000000000E+00 -0.00000000000E+00 -0.92970238742E+03  0.92970238742E+03  0.00000000000E+00 0.  1.
    9000010    2    1    2  501    0  0.28074283867E+03 -0.27169311129E+03  0.17441464557E+03  0.10852299857E+04  0.99733142187E+03 0.  0.
        -13    1    3    3    0    0 -0.16733980789E+03 -0.40640000598E+03  0.37347220473E+03  0.57675391203E+03  0.10566000000E+00 0.  1.
          4    1    3    3  501    0  0.44808264656E+03  0.13470689470E+03 -0.19905755916E+03  0.50847607366E+03  0.00000000000E+00 0.  1.
         13    1    1    2    0    0 -0.28074283867E+03  0.27169311129E+03 -0.39384173435E+03  0.55474770037E+03  0.10566000000E+00 0. -1.
<mgrwt>
<rscale>  1 0.83240694E+03</rscale>
<asrwt>0</asrwt>
<pdfrwt beam="1">  1       21 0.10927312E+00 0.10711226E+04</pdfrwt>
<pdfrwt beam="2">  1        4 0.14303114E+00 0.10711226E+04</pdfrwt>
<totfact> 0.81984817E+00</totfact>
</mgrwt>
</event>
<event>
 6    1  0.1353269E-005  0.9875127E+03  0.7818608E-02  0.1001233E+00
          4   -1    0    0  502    0 -0.00000000000E+00  0.00000000000E+00  0.11079811880E+04  0.11079811880E+04  0.00000000000E+00 0.  1.
         21   -1    0    0  501  502  0.00000000000E+00 -0.00000000000E+00 -0.29265408020E+03  0.29265408020E+03  0.00000000000E+00 0.  1.
    9000010    2    1    2  501    0 -0.95258758352E+02 -0.10216803912E+02  0.57689116119E+03  0.11436716017E+04  0.98285436685E+03 0.  0.
        -13    1    3    3    0    0  0.41626329187E+03  0.45649801943E+02  0.76054324886E+02  0.42560933269E+03  0.10566000000E+00 0.  1.
          4    1    3    3  501    0 -0.51152205022E+03 -0.55866605855E+02  0.50083683631E+03  0.71806226897E+03  0.00000000000E+00 0.  1.
         13    1    1    2    0    0  0.95258758352E+02  0.10216803912E+02  0.23843594665E+03  0.25696366658E+03  0.10566000000E+00 0. -1.
<mgrwt>
<rscale>  1 0.55113021E+03</rscale>
<asrwt>0</asrwt>
<pdfrwt beam="2">  1       21 0.45023705E-01 0.98751269E+03</pdfrwt>
<pdfrwt beam="1">  1        4 0.17045864E+00 0.98751269E+03</pdfrwt>
<totfact> 0.39588634E+01</totfact>
</mgrwt>
</event>
<event>
 6    1  0.1353269E-005  0.1331757E+04  0.7818608E-02  0.9334894E-01
         21   -1    0    0  501  502  0.00000000000E+00  0.00000000000E+00  0.17649211488E+04  0.17649211488E+04  0.00000000000E+00 0.  1.
          4   -1    0    0  502    0 -0.00000000000E+00 -0.00000000000E+00 -0.71613602554E+03  0.71613602554E+03  0.00000000000E+00 0.  1.
    9000010    2    1    2  501    0 -0.91995151981E+02  0.37352780349E+03  0.14197757765E+04  0.19466227032E+04  0.12749864961E+04 0.  0.
        -13    1    3    3    0    0  0.46851729715E+03 -0.15922307911E+03  0.27787624465E+03  0.56751710560E+03  0.10566000000E+00 0.  1.
          4    1    3    3  501    0 -0.56051244913E+03  0.53275088260E+03  0.11418995318E+04  0.13791055976E+04  0.00000000000E+00 0.  1.
         13    1    1    2    0    0  0.91995151981E+02 -0.37352780349E+03 -0.37099065324E+03  0.53443447112E+03  0.10566000000E+00 0. -1.
<mgrwt>
<rscale>  1 0.97632941E+03</rscale>
<asrwt>0</asrwt>
<pdfrwt beam="1">  1       21 0.27152633E+00 0.13317570E+04</pdfrwt>
<pdfrwt beam="2">  1        4 0.11017477E+00 0.13317570E+04</pdfrwt>
<totfact> 0.96157301E-01</totfact>
</mgrwt>
</event>
<event>
 6    1  0.1353269E-005  0.1044142E+04  0.7818608E-02  0.9580422E-01
         21   -1    0    0  501  502  0.00000000000E+00  0.00000000000E+00  0.80217418080E+03  0.80217418080E+03  0.00000000000E+00 0.  1.
          4   -1    0    0  502    0 -0.00000000000E+00 -0.00000000000E+00 -0.71476382532E+03  0.71476382532E+03  0.00000000000E+00 0.  1.
    9000010    2    1    2  501    0 -0.13036105810E+03  0.30900714942E+03  0.33887446882E+03  0.10977559033E+04  0.98881378114E+03 0.  0.
        -13    1    3    3    0    0  0.13165086422E+03  0.22767990766E+03  0.63907742214E+03  0.69107890509E+03  0.10566000000E+00 0.  1.
          4    1    3    3  501    0 -0.26201192232E+03  0.81327241763E+02 -0.30020295333E+03  0.40667699822E+03  0.00000000000E+00 0.  1.
         13    1    1    2    0    0  0.13036105810E+03 -0.30900714942E+03 -0.25146411333E+03  0.41918210281E+03  0.10566000000E+00 0. -1.
<mgrwt>
<rscale>  1 0.78605649E+03</rscale>
<asrwt>0</asrwt>
<pdfrwt beam="1">  1       21 0.12341141E+00 0.10441418E+04</pdfrwt>
<pdfrwt beam="2">  1        4 0.10996366E+00 0.10441418E+04</pdfrwt>
<totfact> 0.11752456E+01</totfact>
</mgrwt>
</event>
<event>
 6    1  0.1353269E-005  0.1042138E+04  0.7818608E-02  0.9794311E-01
          4   -1    0    0  502    0 -0.00000000000E+00  0.00000000000E+00  0.58887090110E+03  0.58887090110E+03  0.00000000000E+00 0.  1.
         21   -1    0    0  501  502  0.00000000000E+00 -0.00000000000E+00 -0.69331049718E+03  0.69331049718E+03  0.00000000000E+00 0.  1.
    9000010    2    1    2  501    0  0.72098325514E+02  0.14764504321E+03 -0.23971373086E+03  0.10693520534E+04  0.10291034516E+04 0.  0.
        -13    1    3    3    0    0  0.13562365560E+03  0.38975574992E+03 -0.53922479956E+03  0.67901893654E+03  0.10566000000E+00 0.  1.
          4    1    3    3  501    0 -0.63525330090E+02 -0.24211070670E+03  0.29951106870E+03  0.39033311689E+03  0.00000000000E+00 0.  1.
         13    1    1    2    0    0 -0.72098325514E+02 -0.14764504321E+03  0.13527413478E+03  0.21282934485E+03  0.10566000000E+00 0. -1.
<mgrwt>
<rscale>  1 0.65668753E+03</rscale>
<asrwt>0</asrwt>
<pdfrwt beam="2">  1       21 0.10666315E+00 0.10421378E+04</pdfrwt>
<pdfrwt beam="1">  1        4 0.90595523E-01 0.10421378E+04</pdfrwt>
<totfact> 0.27268039E+01</totfact>
</mgrwt>
</event>
<event>
 6    1  0.1353269E-005  0.1060516E+04  0.7818608E-02  0.9549917E-01
          4   -1    0    0  502    0 -0.00000000000E+00  0.00000000000E+00  0.39614562504E+03  0.39614562504E+03  0.00000000000E+00 0.  1.
         21   -1    0    0  501  502  0.00000000000E+00 -0.00000000000E+00 -0.12914427104E+04  0.12914427104E+04  0.00000000000E+00 0.  1.
    9000010    2    1    2  501    0 -0.19054476461E+03  0.30025457074E+03 -0.76991291130E+03  0.13105189561E+04  0.99911657417E+03 0.  0.
        -13    1    3    3    0    0 -0.27612679951E+03 -0.21495278284E+03 -0.70131153318E+03  0.78376564482E+03  0.10566000000E+00 0.  1.
          4    1    3    3  501    0  0.85582034902E+02  0.51520735358E+03 -0.68601378122E+02  0.52675331130E+03  0.00000000000E+00 0.  1.
         13    1    1    2    0    0  0.19054476461E+03 -0.30025457074E+03 -0.12538417409E+03  0.37706937935E+03  0.10566000000E+00 0. -1.
<mgrwt>
<rscale>  1 0.80701591E+03</rscale>
<asrwt>0</asrwt>
<pdfrwt beam="2">  1       21 0.19868349E+00 0.10605159E+04</pdfrwt>
<pdfrwt beam="1">  1        4 0.60945481E-01 0.10605159E+04</pdfrwt>
<totfact> 0.11810124E+01</totfact>
</mgrwt>
</event>
<event>
 6    1  0.1353269E-005  0.1032240E+04  0.7818608E-02  0.9651366E-01
          4   -1    0    0  502    0 -0.00000000000E+00  0.00000000000E+00  0.82032268923E+03  0.82032268923E+03  0.00000000000E+00 0.  1.
         21   -1    0    0  501  502  0.00000000000E+00 -0.00000000000E+00 -0.52728152255E+03  0.52728152255E+03  0.00000000000E+00 0.  1.
    9000010    2    1    2  501    0 -0.20583538693E+03  0.17850657442E+03  0.16058532379E+03  0.10446564191E+04  0.99563376001E+03 0.  0.
        -13    1    3    3    0    0 -0.38295130307E+03  0.51758672935E+03  0.46850265486E+02  0.64555610249E+03  0.10566000000E+00 0.  1.
          4    1    3    3  501    0  0.17711591614E+03 -0.33908015493E+03  0.11373505830E+03  0.39910031659E+03  0.00000000000E+00 0.  1.
         13    1    1    2    0    0  0.20583538693E+03 -0.17850657442E+03  0.13245584289E+03  0.30294779271E+03  0.10566000000E+00 0. -1.
<mgrwt>
<rscale>  1 0.73987781E+03</rscale>
<asrwt>0</asrwt>
<pdfrwt beam="2">  1       21 0.81120234E-01 0.10322400E+04</pdfrwt>
<pdfrwt beam="1">  1        4 0.12620349E+00 0.10322400E+04</pdfrwt>
<totfact> 0.23612360E+01</totfact>
</mgrwt>
</event>
